Title
44389
    1GLY      N    1   2.131   4.009   4.766 -0.0134  0.2436 -0.0930
    1GLY    HT1    2   2.176   4.082   4.708  0.5078  0.7126  0.9019
    1GLY    HT2    3   2.105   4.052   4.857  0.6343 -0.2756  0.3430
    1GLY    HT3    4   2.042   3.985   4.718  1.5842 -0.0623 -3.0027
    1GLY     CA    5   2.214   3.885   4.793 -0.3113 -0.5493 -0.2049
    1GLY    HA1    6   2.216   3.836   4.697  2.3061  0.3635 -0.6585
    1GLY    HA2    7   2.162   3.825   4.866 -0.9892  0.6237  0.2829
    1GLY      C    8   2.358   3.917   4.832  0.3505  0.6115 -0.5118
    1GLY      O    9   2.376   4.020   4.889  0.4757 -0.3401 -0.4095
    2PRO      N   10   2.457   3.832   4.806 -0.0034 -0.4811 -0.2155
    2PRO     CD   11   2.439   3.694   4.765  0.1943  0.0835  0.5077
    2PRO    HD1   12   2.410   3.687   4.658  1.6588  1.2880  0.0018
    2PRO    HD2   13   2.361   3.637   4.820 -1.1180  0.0671 -1.3206
    2PRO     CA   14   2.597   3.866   4.804 -0.3250 -0.4829  0.1830
    2PRO     HA   15   2.643   3.874   4.902  1.7875  2.3715 -0.9518
    2PRO     CB   16   2.654   3.749   4.725  0.3085 -0.2606  0.5856
    2PRO    HB1   17   2.765   3.742   4.724  0.3967  0.8366  1.6010
    2PRO    HB2   18   2.612   3.761   4.623  0.5661 -0.0132  0.5063
    2PRO     CG   19   2.579   3.636   4.785  1.0017  0.1807 -0.1283
    2PRO    HG1   20   2.589   3.540   4.731  3.0125 -0.4559  1.3309
    2PRO    HG2   21   2.586   3.623   4.895  0.5086  1.3247  0.0509
    2PRO      C   22   2.633   4.004   4.750  0.7309  0.1284  0.1864
    2PRO      O   23   2.576   4.046   4.644  0.0226 -0.5324 -0.2175
    3GLY      N   24   2.721   4.080   4.817 -0.2606 -0.0684  0.4259
    3GLY     HN   25   2.759   4.047   4.903 -0.5431  1.6016  1.2128
    3GLY     CA   26   2.789   4.191   4.754  0.6270  0.3068  0.0714
    3GLY    HA1   27   2.856   4.243   4.820  0.3799  0.1420  0.4553
    3GLY    HA2   28   2.719   4.263   4.713 -0.9241 -1.0129  0.3414
    3GLY      C   29   2.882   4.154   4.639 -0.1956  0.3116  0.2825
    3GLY      O   30   2.913   4.038   4.611  0.7419 -0.5699  0.3017
    4ASP      N   31   2.930   4.250   4.557 -0.4767 -0.0967  0.1648
    4ASP     HN   32   2.906   4.347   4.557  2.4195  0.6901 -1.9208
    4ASP     CA   33   3.032   4.227   4.459  0.3135  0.5305 -0.2294
    4ASP     HA   34   3.001   4.145   4.395  1.6786 -1.0147  1.0423
    4ASP     CB   35   3.064   4.354   4.366  0.1536 -0.9184  0.1026
    4ASP    HB1   36   3.156   4.332   4.306  0.7521 -0.2752  0.7746
    4ASP    HB2   37   3.080   4.448   4.423 -3.8131  0.2056 -0.5187
    4ASP     CG   38   2.953   4.371   4.265 -0.1226 -0.1299  0.3427
    4ASP    OD1   39   2.932   4.285   4.176  0.3786  0.3142  0.0578
    4ASP    OD2   40   2.894   4.481   4.274 -0.3760  0.1154  0.4818
    4ASP      C   41   3.166   4.179   4.520 -0.0452  0.0026 -0.4928
    4ASP      O   42   3.213   4.233   4.624  0.2310 -0.0547 -0.1197
    5PRO      N   43   3.238   4.091   4.451 -0.2018  0.0724 -0.5772
    5PRO     CD   44   3.188   3.995   4.347 -0.3537 -0.6241  0.1141
    5PRO    HD1   45   3.164   4.037   4.247 -0.2215  1.2535  0.8477
    5PRO    HD2   46   3.091   3.950   4.378 -1.2263 -0.1061 -1.7800
    5PRO     CA   47   3.376   4.062   4.475 -0.4436 -0.1726  0.9541
    5PRO     HA   48   3.382   4.019   4.573 -2.3167 -1.6768  0.4232
    5PRO     CB   49   3.419   3.972   4.356  0.2872  0.2416 -0.8150
    5PRO    HB1   50   3.506   3.911   4.390 -1.3916 -2.3968 -1.1736
    5PRO    HB2   51   3.456   4.028   4.267 -0.7569  0.0960 -1.3432
    5PRO     CG   52   3.297   3.886   4.336  0.1391 -0.0701 -0.0942
    5PRO    HG1   53   3.303   3.846   4.233 -1.9836 -0.7596  0.0164
    5PRO    HG2   54   3.291   3.803   4.409 -0.0591 -1.8868 -2.1250
    5PRO      C   55   3.472   4.184   4.488 -0.2121  0.2122 -0.1482
    5PRO      O   56   3.448   4.285   4.425  0.0215  0.4587  0.3178
    6GLY      N   57   3.568   4.181   4.586  0.6626  0.5552  0.0717
    6GLY     HN   58   3.583   4.093   4.630  0.3219  1.2789  1.6765
    6GLY     CA   59   3.672   4.288   4.604 -0.5189  0.0292  0.5745
    6GLY    HA1   60   3.745   4.247   4.672 -0.2575 -2.2672 -1.0035
    6GLY    HA2   61   3.631   4.373   4.655  1.4551  1.7956 -0.6950
    6GLY      C   62   3.755   4.316   4.482 -0.3807  0.8873 -0.0151
    6GLY      O   63   3.775   4.222   4.407 -0.6417 -0.8124 -0.2079
    7SER      N   64   3.816   4.429   4.464 -0.7445  0.1686  0.4013
    7SER     HN   65   3.783   4.510   4.513 -0.2243  1.5679 -1.5342
    7SER     CA   66   3.918   4.452   4.357 -0.2468  0.0935  0.2239
    7SER     HA   67   3.861   4.442   4.266 -1.4153 -2.1077  1.1675
    7SER     CB   68   3.964   4.601   4.374 -0.9016 -0.0803 -0.6502
    7SER    HB1   69   4.016   4.620   4.278 -1.6414  1.1220 -0.8152
    7SER    HB2   70   4.027   4.613   4.465 -0.2431 -0.9390 -0.9870
    7SER     OG   71   3.843   4.675   4.397  0.3871  0.1889 -0.1999
    7SER    HG1   72   3.805   4.698   4.312 -0.3259  0.7445  0.2617
    7SER      C   73   4.033   4.352   4.351  0.0765  0.3616  0.2486
    7SER      O   74   4.080   4.306   4.455 -0.4718  0.6112 -0.2770
    8GLY      N   75   4.084   4.316   4.228  0.2454  0.7319 -0.8604
    8GLY     HN   76   4.044   4.345   4.141  0.6690  0.1797 -1.2418
    8GLY     CA   77   4.205   4.234   4.200 -0.5029 -0.1624 -0.1755
    8GLY    HA1   78   4.228   4.258   4.098 -1.7052  1.4393 -0.0888
    8GLY    HA2   79   4.189   4.128   4.206  2.4456 -0.6936 -0.5474
    8GLY      C   80   4.331   4.263   4.278 -0.5143  0.0239  0.4230
    8GLY      O   81   4.355   4.370   4.331  0.4570 -0.2212  0.0952
    9ASN      N   82   4.407   4.157   4.296  0.0186 -0.8352  0.2731
    9ASN     HN   83   4.387   4.067   4.257  0.0595 -0.3482 -0.9080
    9ASN     CA   84   4.541   4.165   4.358  0.5329 -0.3210  0.6974
    9ASN     HA   85   4.531   4.214   4.454  1.0567  3.6060 -1.1337
    9ASN     CB   86   4.598   4.021   4.386 -0.7759 -0.1636  0.5106
    9ASN    HB1   87   4.579   3.949   4.304 -2.6840  2.5725 -1.5526
    9ASN    HB2   88   4.533   3.983   4.468  2.0402 -1.0231  2.4128
    9ASN     CG   89   4.749   4.025   4.428 -0.9686  0.0146  0.2001
    9ASN    OD1   90   4.779   4.053   4.547 -0.3899 -0.3365  0.0630
    9ASN    ND2   91   4.840   3.989   4.334 -0.2674  0.3857  0.4010
    9ASN   HD21   92   4.928   3.964   4.375  0.0639  0.3865 -0.3017
    9ASN   HD22   93   4.802   3.941   4.255 -1.0310 -0.8742  1.5226
    9ASN      C   94   4.631   4.255   4.272 -0.1651  0.7370 -0.2938
    9ASN      O   95   4.642   4.216   4.155  0.0112 -0.3092 -0.3873
   10PRO      N   96   4.699   4.360   4.319 -0.2116 -0.1545  0.2221
   10PRO     CD   97   4.710   4.389   4.461  0.1292  0.5036 -0.7585
   10PRO    HD1   98   4.769   4.317   4.521  0.6216  0.9159 -0.7508
   10PRO    HD2   99   4.615   4.410   4.514  1.1006  0.5497  0.9791
   10PRO     CA  100   4.797   4.444   4.242  0.0494  0.2876 -0.5565
   10PRO     HA  101   4.738   4.510   4.180 -0.7095  1.8168  1.7315
   10PRO     CB  102   4.877   4.513   4.351 -0.2551 -0.5554  0.1778
   10PRO    HB1  103   4.911   4.613   4.314 -1.9912 -0.7068 -1.8910
   10PRO    HB2  104   4.965   4.454   4.386 -0.0645 -0.1532  0.3842
   10PRO     CG  105   4.776   4.528   4.458 -0.2040  0.5018 -0.4172
   10PRO    HG1  106   4.819   4.543   4.560 -1.2244  0.5827  0.0084
   10PRO    HG2  107   4.703   4.611   4.448 -0.3824  0.5208  0.8882
   10PRO      C  108   4.881   4.374   4.138 -0.2045  0.0815 -0.3907
   10PRO      O  109   4.943   4.268   4.159 -0.5665 -0.1697 -0.3224
   11GLY      N  110   4.894   4.431   4.014 -0.5248 -1.0122 -0.1379
   11GLY     HN  111   4.846   4.516   3.995  1.5536  0.0685 -0.7162
   11GLY     CA  112   4.990   4.392   3.910  1.4274  0.0475 -0.6615
   11GLY    HA1  113   5.000   4.479   3.847  0.9404  1.0142  0.5870
   11GLY    HA2  114   4.967   4.299   3.861 -1.6209 -1.3414  3.1609
   11GLY      C  115   5.133   4.383   3.960  0.1280  0.5602 -0.2033
   11GLY      O  116   5.178   4.466   4.037 -0.2193  0.4245  0.3012
   12SER      N  117   5.203   4.278   3.917  0.2783 -0.3946  0.0765
   12SER     HN  118   5.163   4.204   3.864 -0.6920  1.0240 -1.2106
   12SER     CA  119   5.345   4.264   3.951  0.3333 -0.1236 -0.2770
   12SER     HA  120   5.353   4.260   4.059 -2.7944  2.4432  0.1420
   12SER     CB  121   5.405   4.133   3.886  0.7056 -0.4349  0.0198
   12SER    HB1  122   5.514   4.126   3.902  0.9280 -0.4207 -1.4336
   12SER    HB2  123   5.377   4.155   3.781  2.2311 -0.5336 -0.4096
   12SER     OG  124   5.340   4.020   3.944 -0.3445  0.1055  0.3162
   12SER    HG1  125   5.399   3.980   4.009  0.9706 -0.0287 -0.9284
   12SER      C  126   5.431   4.376   3.904  0.7172  0.3681 -0.3829
   12SER      O  127   5.423   4.434   3.798  0.2191  0.8305 -0.6085
   13GLY      N  128   5.527   4.420   3.994  0.2857 -0.3519  0.7762
   13GLY     HN  129   5.522   4.378   4.085  1.2903 -1.9154  0.1266
   13GLY     CA  130   5.615   4.534   3.957 -0.7291  0.0234 -0.2186
   13GLY    HA1  131   5.683   4.540   4.041 -0.8746  1.1956 -0.1703
   13GLY    HA2  132   5.548   4.618   3.944  1.0444  1.0166 -3.6190
   13GLY      C  133   5.703   4.515   3.835 -0.0120 -0.4361  0.3431
   13GLY      O  134   5.704   4.409   3.769 -0.6680  0.5063  0.3237
   14ASP      N  135   5.773   4.625   3.802  0.3423  0.5023 -0.2820
   14ASP     HN  136   5.760   4.709   3.853  0.2385 -1.0501  2.2944
   14ASP     CA  137   5.872   4.634   3.697 -0.3708  0.3060  0.1671
   14ASP     HA  138   5.830   4.618   3.598  0.7360 -0.7367 -0.1364
   14ASP     CB  139   5.928   4.777   3.688 -0.2304  0.0470 -0.4075
   14ASP    HB1  140   6.011   4.790   3.616  1.9431 -0.6360  1.9193
   14ASP    HB2  141   5.978   4.804   3.783 -1.1735 -0.7324  0.3293
   14ASP     CG  142   5.823   4.873   3.643  0.5426 -0.3748  0.7551
   14ASP    OD1  143   5.721   4.838   3.576  0.0695 -0.1503  0.6747
   14ASP    OD2  144   5.849   4.990   3.674 -0.5261  0.1610  0.0690
   14ASP      C  145   5.984   4.534   3.709 -0.3588 -0.6040 -0.0171
   14ASP      O  146   6.012   4.508   3.826  0.2799  0.1885  0.0692
   15PRO      N  147   6.043   4.473   3.604  0.1076 -0.9536 -0.3849
   15PRO     CD  148   5.967   4.447   3.475 -0.6201  0.4707  0.3397
   15PRO    HD1  149   5.968   4.540   3.414  2.1336 -0.4878 -1.1214
   15PRO    HD2  150   5.869   4.398   3.498 -0.2073 -0.2442  0.5763
   15PRO     CA  151   6.159   4.380   3.623 -0.4034  0.6902  0.4436
   15PRO     HA  152   6.134   4.299   3.690  0.0241 -1.9237 -2.4662
   15PRO     CB  153   6.189   4.344   3.475  0.5774  0.6348 -0.5806
   15PRO    HB1  154   6.246   4.250   3.461  0.3476  0.5115 -0.6962
   15PRO    HB2  155   6.248   4.428   3.433 -1.4442  2.5447  0.3007
   15PRO     CG  156   6.059   4.342   3.399 -0.2339  0.1474 -0.4221
   15PRO    HG1  157   6.063   4.365   3.291 -1.8240  1.1328 -0.2894
   15PRO    HG2  158   6.014   4.241   3.405 -0.7843  0.4879  1.6412
   15PRO      C  159   6.282   4.449   3.673  0.3441  0.0705  0.0800
   15PRO    OT1  160   6.319   4.561   3.629  0.2365  0.3470  0.2111
   15PRO    OT2  161   6.342   4.385   3.764  0.6326  0.0921  0.2558
   16SOD    SOD  162   0.675   3.274   4.707  0.2097 -0.9426 -0.2527
   17SOD    SOD  163   4.088   0.827   1.150 -0.1031 -0.0935 -0.0097
   18SOD    SOD  164   5.310   4.919   0.879  0.1339  0.0915  0.4482
   19SOD    SOD  165   5.636   4.292   4.953 -0.5500  0.0479 -0.1731
   20SOD    SOD  166   2.820   0.254   2.871 -0.0802 -0.1035 -0.4085
   21SOD    SOD  167   6.377   4.210   3.062 -0.1640  0.1121  0.1914
   22SOD    SOD  168   6.921   0.783   6.776 -0.2967  0.4526 -0.3867
   23SOD    SOD  169   8.388   6.673   3.963 -0.1570  0.0928  0.0658
   24SOD    SOD  170   7.174   1.084   0.228 -0.0904 -0.1222  0.0963
   25SOD    SOD  171   7.944   5.108   0.636  0.3367 -0.1369 -0.3703
   26SOD    SOD  172   6.822   7.197   4.479  0.0575  0.0516 -0.3315
   27SOD    SOD  173   4.620   3.276   6.548  0.1314 -0.5067  0.0277
   28SOD    SOD  174   0.525   2.507   4.964  0.0553 -0.2019 -0.1387
   29SOD    SOD  175   3.060   5.310   6.111 -0.2150  0.4128  0.4050
   30SOD    SOD  176   5.272   7.557   2.617  0.2771  0.2737 -0.1612
   31SOD    SOD  177   0.405   2.127   1.899 -0.0486 -0.0341  0.3701
   32SOD    SOD  178   3.355   2.459   6.094 -0.1192  0.3086  0.2701
   33SOD    SOD  179   0.449   5.704   3.589  0.0964 -0.2819  0.0973
   34SOD    SOD  180   2.238   0.806   4.640 -0.1400  0.1870  0.1077
   35SOD    SOD  181   6.927   0.381   5.204 -0.3272  0.3454  0.3974
   36SOD    SOD  182   2.484   3.556   3.468 -0.5608 -0.1102  0.5663
   37SOD    SOD  183   3.667   7.306   4.512 -0.2291 -0.2930  0.4655
   38SOD    SOD  184   2.961   2.621   1.217  0.1832 -0.2444 -0.0210
   39SOD    SOD  185   2.417   2.353   1.612  0.2132 -0.1430 -0.0188
   40SOD    SOD  186   7.785   0.995   3.464  0.4383  0.2123 -0.0767
   41SOD    SOD  187   8.307   5.119   5.499  0.0192  0.1084 -0.3661
   42SOD    SOD  188   0.380   2.321   1.368 -0.0222  0.8497 -0.2865
   43SOD    SOD  189   0.986   7.958   5.174 -0.0542 -0.2425 -0.1308
   44SOD    SOD  190   4.432   2.087   4.129 -0.2095  0.4677  0.2907
   45SOD    SOD  191   0.727   5.633   5.760 -0.2700  0.0057 -0.6121
   46SOD    SOD  192   2.542   1.273   3.578 -0.4955 -0.2330  0.3962
   47SOD    SOD  193   6.590   2.791   3.453 -0.1918 -0.4825  0.2479
   48SOD    SOD  194   6.258   0.234   3.187 -0.3715 -0.1391  0.5646
   49SOD    SOD  195   3.147   4.156   5.043 -0.3564  0.1337 -0.2695
   50SOD    SOD  196   0.508   1.415   3.575  0.0490  0.2695 -0.0279
   51SOD    SOD  197   1.574   2.195   2.897  0.3049  0.2404 -0.1939
   52SOD    SOD  198   0.444   7.875   4.673 -0.1762 -0.2703 -0.2847
   53SOD    SOD  199   7.099   4.008   4.461 -0.4013  0.2569  0.1377
   54SOD    SOD  200   6.901   2.457   4.442 -0.2328 -0.1656 -0.1072
   55SOD    SOD  201   4.886   6.593   0.398 -0.6447  0.3591  0.2849
   56SOD    SOD  202   6.777   5.490   0.350 -0.2028 -0.3701 -0.2101
   57SOD    SOD  203   4.470   6.172   4.264  0.1288 -0.0340 -0.1255
   58SOD    SOD  204   6.729   6.555   2.608  0.4094  0.3432 -0.3694
   59SOD    SOD  205   6.757   5.644   6.012  0.9018  0.0877  0.1362
   60CLA    CLA  206   8.028   2.133   4.110  0.1508  0.3138 -0.2311
   61CLA    CLA  207   0.151   2.741   1.637  0.4335  0.1693 -0.2956
   62CLA    CLA  208   6.861   4.906   0.425 -0.1303  0.0415  0.0882
   63CLA    CLA  209   1.046   4.495   2.554  0.1696  0.2058 -0.2301
   64CLA    CLA  210   2.863   1.124   4.789  0.0295 -0.1210  0.0110
   65CLA    CLA  211   0.736   7.980   5.286  0.0381 -0.0540  0.3394
   66CLA    CLA  212   0.516   6.724   0.355  0.0934  0.2953  0.2087
   67CLA    CLA  213   5.459   5.185   0.241  0.5207 -0.0896 -0.1341
   68CLA    CLA  214   3.122   6.343   5.121  0.0215  0.1534  0.0552
   69CLA    CLA  215   3.849   0.245   0.066 -0.0418  0.1971 -0.2584
   70CLA    CLA  216   3.634   7.618   3.759  0.1726  0.5242  0.2440
   71CLA    CLA  217   4.141   1.624   4.451  0.1147 -0.4427  0.2263
   72CLA    CLA  218   3.491   5.542   0.303 -0.0479 -0.0741  0.0601
   73CLA    CLA  219   2.734   1.640   3.911 -0.2138 -0.2622 -0.4161
   74CLA    CLA  220   0.474   0.695   2.580  0.5382 -0.0447  0.2146
   75CLA    CLA  221   1.615   2.826   4.018  0.5228  0.2202 -0.0709
   76CLA    CLA  222   2.730   2.788   3.125  0.1097  0.5692 -0.3414
   77CLA    CLA  223   4.773   4.257   5.204 -0.1677 -0.1073  0.4568
   78CLA    CLA  224   2.343   5.231   4.890 -0.0974  0.0571  0.0872
   79CLA    CLA  225   0.163   1.376   5.049  0.0819  0.3643  0.2288
   80CLA    CLA  226   3.353   3.757   1.102  0.1053  0.1838 -0.5435
   81CLA    CLA  227   7.428   4.566   5.591 -0.4155  0.2866  0.1475
   82CLA    CLA  228   8.289   7.025   3.483 -0.1800 -0.0072  0.0448
   83CLA    CLA  229   8.447   5.942   5.062 -0.6737  0.2879  0.5669
   84CLA    CLA  230   5.887   1.979   3.774 -0.1729  0.1471 -0.3379
   85CLA    CLA  231   1.553   6.002   5.287 -0.1356  0.2769 -0.0051
   86CLA    CLA  232   4.442   5.458   0.108 -0.2857 -0.1315  0.3803
   87CLA    CLA  233   6.033   3.310   1.127 -0.1775  0.1462 -0.0101
   88CLA    CLA  234   2.623   5.572   6.833  0.0906 -0.0515 -0.2765
   89CLA    CLA  235   6.867   0.000   4.816  0.2091 -0.4012  0.0943
   90CLA    CLA  236   0.973   3.620   1.666  0.1322 -0.1247 -0.2679
   91CLA    CLA  237   2.520   1.014   3.540  0.0553  0.0006 -0.0457
   92CLA    CLA  238   6.657   3.781   4.696  0.4393  0.4933 -0.4911
   93CLA    CLA  239   3.496   4.568   5.675  0.1061 -0.1561 -0.1143
   94CLA    CLA  240   3.879   6.424   6.373  0.1952 -0.2521  0.1630
   95CLA    CLA  241   6.824   3.372   6.015 -0.5555 -0.1514 -0.3122
   96CLA    CLA  242   5.110   6.051   1.000  0.0958  0.4563 -0.1444
   97CLA    CLA  243   7.970   6.137   5.347 -0.1674  0.3136 -0.1249
   98CLA    CLA  244   2.287   1.129   3.921 -0.2921  0.1525  0.3954
   99CLA    CLA  245   6.976   1.562   3.791  0.0065 -0.0442 -0.0012
  100CLA    CLA  246   6.554   7.056   0.622  0.1296  0.0751  0.0189
  101CLA    CLA  247   3.767   6.175   1.640 -0.1092 -0.2220 -0.1751
  102TIP3   OH2  248   4.555   0.368   2.223  0.6114 -0.3896  0.3636
  102TIP3    H1  249   4.482   0.339   2.168  0.7439 -0.7877  0.3988
  102TIP3    H2  250   4.524   0.450   2.262  0.4544 -0.1881 -0.1787
  103TIP3   OH2  251   4.346   0.612   3.570 -0.3374  0.4809  0.0655
  103TIP3    H1  252   4.304   0.695   3.592 -0.1767 -0.0700  2.6635
  103TIP3    H2  253   4.435   0.620   3.606 -0.3018 -0.7788  0.2911
  104TIP3   OH2  254   0.652   7.865   2.353 -0.2895 -0.4814 -0.1339
  104TIP3    H1  255   0.672   7.889   2.444 -1.4067 -2.0990  0.5577
  104TIP3    H2  256   0.591   7.932   2.323 -0.9849 -0.7167  0.7564
  105TIP3   OH2  257   3.460   1.549   1.875  0.1002  0.3564 -0.2264
  105TIP3    H1  258   3.539   1.602   1.861  0.9079 -0.6707  0.3662
  105TIP3    H2  259   3.472   1.473   1.818 -0.7038  0.4481 -0.5191
  106TIP3   OH2  260   2.118   0.991   1.805  0.4541 -0.2959 -0.5442
  106TIP3    H1  261   2.049   1.058   1.804 -0.1692 -0.9467 -1.2205
  106TIP3    H2  262   2.072   0.909   1.789  1.0742 -1.0307  1.3857
  107TIP3   OH2  263   2.212   7.646   1.106 -0.1747 -0.0815  0.0514
  107TIP3    H1  264   2.181   7.586   1.039 -0.0261  0.9728 -0.9717
  107TIP3    H2  265   2.235   7.726   1.059  0.4764  0.4796  1.2758
  108TIP3   OH2  266   3.930   0.395   2.952  0.0982  0.3448 -0.3275
  108TIP3    H1  267   3.850   0.445   2.968 -1.3709 -1.9786 -0.2003
  108TIP3    H2  268   3.968   0.383   3.038 -0.5566 -0.3702 -0.1316
  109TIP3   OH2  269   3.822   1.028   3.627  0.3280 -0.2166 -0.0013
  109TIP3    H1  270   3.848   0.993   3.542 -1.2078 -2.8651  0.5464
  109TIP3    H2  271   3.901   1.069   3.662  2.2113 -3.0253 -0.8166
  110TIP3   OH2  272   1.715   2.616   3.019 -0.1475 -0.8459  0.3490
  110TIP3    H1  273   1.691   2.706   3.042 -1.0890 -1.2993  1.1551
  110TIP3    H2  274   1.793   2.625   2.964 -0.6693  0.5031 -0.1705
  111TIP3   OH2  275   3.686   1.741   1.029 -0.4272  0.3187 -0.1255
  111TIP3    H1  276   3.663   1.829   1.060  2.1689  0.6212  1.0093
  111TIP3    H2  277   3.675   1.685   1.106  0.1735  0.0288 -0.2547
  112TIP3   OH2  278   4.326   6.106   2.880 -0.0663 -0.0181 -0.1752
  112TIP3    H1  279   4.409   6.095   2.927  0.9164 -0.9594 -2.0621
  112TIP3    H2  280   4.347   6.163   2.807 -1.3611  0.6777 -0.0132
  113TIP3   OH2  281   4.942   0.972   1.766  0.0144 -0.1676  0.0081
  113TIP3    H1  282   5.023   0.944   1.724 -1.0716 -2.5667 -0.5623
  113TIP3    H2  283   4.898   0.891   1.791 -0.5245  1.1317  3.6419
  114TIP3   OH2  284   6.498   0.144   0.933 -0.1218  0.0226  0.0049
  114TIP3    H1  285   6.498   0.161   0.838 -1.8329 -1.5066 -0.2901
  114TIP3    H2  286   6.587   0.167   0.961  0.4972  0.2120 -2.0253
  115TIP3   OH2  287   2.773   0.613   3.706  0.0753  0.0288  0.2478
  115TIP3    H1  288   2.807   0.686   3.653 -2.2615 -0.0437 -1.4380
  115TIP3    H2  289   2.752   0.545   3.641 -3.3180  0.1124  1.1572
  116TIP3   OH2  290   4.980   4.663   6.799  0.0563  0.2891  0.1708
  116TIP3    H1  291   5.014   4.659   6.889 -0.5173 -1.1986  0.3322
  116TIP3    H2  292   4.894   4.705   6.808  0.4065  1.0084  0.1907
  117TIP3   OH2  293   0.185   7.948   2.281 -0.6409  0.5939  0.0534
  117TIP3    H1  294   0.196   7.853   2.285 -0.0208  0.6256 -0.6319
  117TIP3    H2  295   0.252   7.982   2.340  0.2277  0.6458 -0.9313
  118TIP3   OH2  296   1.536   7.328   1.142 -0.2208  0.3887 -0.4259
  118TIP3    H1  297   1.552   7.317   1.048 -0.4850 -0.3328 -0.3910
  118TIP3    H2  298   1.459   7.274   1.160  0.6068 -0.5435  0.4522
  119TIP3   OH2  299   2.811   2.163   0.845  0.6808 -0.4167 -0.6299
  119TIP3    H1  300   2.775   2.154   0.933  0.2108  1.2525 -0.6317
  119TIP3    H2  301   2.748   2.120   0.788  0.0655  0.0963 -0.3403
  120TIP3   OH2  302   2.194   5.754   0.490 -0.4415 -0.2023  0.4662
  120TIP3    H1  303   2.151   5.734   0.574 -0.8920  0.1887  0.3312
  120TIP3    H2  304   2.260   5.820   0.512  0.1882 -0.9046  0.6980
  121TIP3   OH2  305   4.410   0.107   1.266 -0.1771 -0.5083 -0.2864
  121TIP3    H1  306   4.374   0.185   1.225 -0.1418 -0.6639 -0.6214
  121TIP3    H2  307   4.485   0.138   1.317 -1.1162 -0.1031  0.8678
  122TIP3   OH2  308   3.582   7.968   1.443 -0.0121 -0.1319 -0.1984
  122TIP3    H1  309   3.637   7.992   1.518  0.9188 -1.1275 -0.5504
  122TIP3    H2  310   3.511   7.917   1.480 -1.2695  1.9941  0.3902
  123TIP3   OH2  311   2.205   7.128   2.620  0.3711  0.5034  0.1326
  123TIP3    H1  312   2.249   7.114   2.704 -2.2878  1.1386  1.6800
  123TIP3    H2  313   2.203   7.223   2.609  0.0953  0.4471 -0.3207
  124TIP3   OH2  314   2.869   7.563   1.248  0.2042  0.1908  0.2095
  124TIP3    H1  315   2.927   7.522   1.312 -0.4502 -0.3110  0.4903
  124TIP3    H2  316   2.923   7.574   1.170  0.1293 -2.1937 -0.2279
  125TIP3   OH2  317   2.163   7.115   0.439 -0.4984  0.3070  0.0797
  125TIP3    H1  318   2.211   7.116   0.521  1.2230 -1.5599 -0.8573
  125TIP3    H2  319   2.230   7.106   0.371 -2.0091 -0.2479 -1.3906
  126TIP3   OH2  320   1.009   6.240   1.588 -0.2220 -0.5127  0.4889
  126TIP3    H1  321   1.025   6.192   1.507 -0.0063  0.7553 -0.2329
  126TIP3    H2  322   1.091   6.287   1.605 -1.1279  1.2411  0.0502
  127TIP3   OH2  323   1.134   7.690   2.072 -0.1397 -0.1083 -0.2176
  127TIP3    H1  324   1.170   7.601   2.062  2.6013  1.0697 -1.4824
  127TIP3    H2  325   1.115   7.718   1.983 -0.1330  0.9018  0.0965
  128TIP3   OH2  326   4.542   0.204   2.716 -0.6085 -0.8234 -0.2555
  128TIP3    H1  327   4.634   0.183   2.732 -0.3693 -0.9154 -1.6698
  128TIP3    H2  328   4.534   0.297   2.738  0.0905 -0.5387 -1.1327
  129TIP3   OH2  329   2.114   7.810   1.770  0.1926 -0.2738 -0.6663
  129TIP3    H1  330   2.199   7.805   1.727  1.1228  0.9728  0.9659
  129TIP3    H2  331   2.118   7.744   1.839 -0.1402 -0.1489 -0.5248
  130TIP3   OH2  332   1.284   6.707   2.519  0.1939  0.1222 -0.4737
  130TIP3    H1  333   1.302   6.797   2.492  0.5231  0.2241  0.0757
  130TIP3    H2  334   1.360   6.657   2.490  0.6258  0.2628  0.4171
  131TIP3   OH2  335   1.588   5.781   1.064  0.9133 -0.1889  0.1226
  131TIP3    H1  336   1.645   5.810   0.992  2.0237 -1.7473  0.3264
  131TIP3    H2  337   1.525   5.851   1.075  0.9188  0.2163 -2.1836
  132TIP3   OH2  338   2.673   6.307   2.636 -0.4472  0.0389 -0.3263
  132TIP3    H1  339   2.750   6.361   2.615 -0.6132  0.3947 -0.0245
  132TIP3    H2  340   2.705   6.217   2.629  0.7546  0.2035  2.5530
  133TIP3   OH2  341   0.024   6.945   2.734  0.2271 -0.1075 -0.4318
  133TIP3    H1  342  -0.027   6.996   2.671 -0.4439 -0.5140 -0.2193
  133TIP3    H2  343   0.091   6.902   2.682 -1.4524 -1.9036 -1.1475
  134TIP3   OH2  344   4.228   0.652   2.952 -0.0512  0.9735 -0.6382
  134TIP3    H1  345   4.140   0.613   2.960  0.1789  0.3878 -0.8970
  134TIP3    H2  346   4.230   0.721   3.018  0.4282 -1.1143  1.6120
  135TIP3   OH2  347   1.419   7.630   2.936  0.5525  0.4660  0.3196
  135TIP3    H1  348   1.473   7.627   3.016 -0.0505  1.2371  0.7709
  135TIP3    H2  349   1.344   7.575   2.956  0.8672 -0.1125 -0.0798
  136TIP3   OH2  350   1.104   6.345   2.010  0.1722 -0.6455  0.5211
  136TIP3    H1  351   1.020   6.333   1.964  1.5246  0.0676 -2.2727
  136TIP3    H2  352   1.114   6.265   2.062 -2.2174 -0.7446  0.9167
  137TIP3   OH2  353   2.057   7.883   0.548 -0.1906 -0.3012  0.0562
  137TIP3    H1  354   2.017   7.798   0.531  1.1161 -0.9551  0.1447
  137TIP3    H2  355   2.052   7.929   0.464 -2.1599  0.0798  0.3748
  138TIP3   OH2  356   0.977   6.921   2.088 -0.0066 -0.1729 -0.3330
  138TIP3    H1  357   1.038   6.868   2.139 -0.1458 -0.5486 -0.5501
  138TIP3    H2  358   0.924   6.967   2.154 -0.1605 -0.6258 -0.1365
  139TIP3   OH2  359   1.414   7.827   3.906  0.2883 -0.3683 -0.1181
  139TIP3    H1  360   1.498   7.811   3.863  0.9893 -0.5607  1.2997
  139TIP3    H2  361   1.411   7.764   3.978 -0.7792  0.0810  0.2440
  140TIP3   OH2  362   5.186   1.149   1.442  0.1039 -0.4059 -0.1020
  140TIP3    H1  363   5.177   1.226   1.498 -0.4277 -0.9451  0.5802
  140TIP3    H2  364   5.220   1.081   1.501 -0.9188 -1.1101 -0.2998
  141TIP3   OH2  365   5.861   0.212   2.289  0.0827  0.3869  0.0253
  141TIP3    H1  366   5.770   0.184   2.295  0.2122  0.3203  1.7735
  141TIP3    H2  367   5.884   0.239   2.378  2.1944 -0.9116 -0.0919
  142TIP3   OH2  368   1.565   6.922   1.959 -0.2665 -0.5095  0.2151
  142TIP3    H1  369   1.586   7.000   2.010 -0.7760 -0.5445  0.4841
  142TIP3    H2  370   1.609   6.935   1.875  0.7554 -0.5392  0.7344
  143TIP3   OH2  371   1.823   0.960   1.920 -0.1228  0.2156 -0.6857
  143TIP3    H1  372   1.792   0.931   1.834 -0.4259  0.5159 -0.6798
  143TIP3    H2  373   1.884   0.892   1.948 -0.8106 -0.4088 -0.6808
  144TIP3   OH2  374   4.049  -0.025   4.598  0.6300 -0.3906  0.1331
  144TIP3    H1  375   4.022   0.061   4.566 -2.0643 -1.1689  0.1756
  144TIP3    H2  376   4.026  -0.024   4.691 -0.6053 -1.6158 -0.1577
  145TIP3   OH2  377   5.435   0.514   1.125 -0.0425  0.0280 -0.0168
  145TIP3    H1  378   5.526   0.529   1.096  0.8886 -3.5475  0.7977
  145TIP3    H2  379   5.389   0.487   1.046  0.1085 -0.2483 -0.0086
  146TIP3   OH2  380   8.171   6.790   0.913  0.2532  0.3686 -0.1358
  146TIP3    H1  381   8.219   6.813   0.833  1.4172  0.4413  0.5724
  146TIP3    H2  382   8.150   6.697   0.902 -0.3281  0.5846 -0.8954
  147TIP3   OH2  383   2.961   6.528   4.000  0.2754  0.0594 -0.0778
  147TIP3    H1  384   2.964   6.540   4.095 -1.1408 -2.5367  0.3392
  147TIP3    H2  385   3.034   6.470   3.980  0.4693  0.4662 -0.5736
  148TIP3   OH2  386   3.951   7.833   2.570 -0.0427  0.6048 -0.3782
  148TIP3    H1  387   3.954   7.854   2.663  1.0708 -0.9970 -0.0275
  148TIP3    H2  388   3.891   7.758   2.565 -0.8805  1.3223 -1.0764
  149TIP3   OH2  389   1.678   6.950   2.911 -0.5525 -0.0516  0.0479
  149TIP3    H1  390   1.724   7.019   2.863  0.9334 -1.3011 -0.3621
  149TIP3    H2  391   1.646   6.891   2.842  0.4202 -1.1374  0.5237
  150TIP3   OH2  392   1.989   7.543   2.256  0.1665 -0.5027 -0.1383
  150TIP3    H1  393   2.077   7.513   2.233  0.8512  0.2546  1.4209
  150TIP3    H2  394   1.953   7.474   2.311  0.8219  0.3812  1.4389
  151TIP3   OH2  395   1.574   7.491   1.372 -0.2115 -0.0737  0.2516
  151TIP3    H1  396   1.574   7.426   1.302 -0.2346  0.1792  0.0181
  151TIP3    H2  397   1.648   7.547   1.353 -0.6852  0.4711 -0.0103
  152TIP3   OH2  398   4.387   0.465   4.809  0.1308  0.2108  0.4947
  152TIP3    H1  399   4.335   0.512   4.744 -0.6813 -0.4437  0.6661
  152TIP3    H2  400   4.435   0.399   4.759 -3.2078 -2.6871  0.9499
  153TIP3   OH2  401   0.697   7.679   3.888  0.2291 -0.2892 -0.1629
  153TIP3    H1  402   0.740   7.594   3.899  0.6313 -0.0186  0.4162
  153TIP3    H2  403   0.704   7.720   3.975  0.9726  0.7676 -0.7048
  154TIP3   OH2  404   3.073   7.453   4.117  0.2897  0.0595  0.1546
  154TIP3    H1  405   3.076   7.385   4.185  0.0197  1.1243  1.2529
  154TIP3    H2  406   3.042   7.408   4.039 -0.9114 -0.8604  1.1424
  155TIP3   OH2  407   3.113   0.073   1.548 -0.6615  0.1581  0.0934
  155TIP3    H1  408   3.124   0.127   1.627 -1.3309 -2.3973  2.0174
  155TIP3    H2  409   3.190   0.091   1.495 -0.1880  1.9368  1.3479
  156TIP3   OH2  410   1.841   6.274   2.660 -0.4825 -0.8256  0.2649
  156TIP3    H1  411   1.898   6.283   2.736  0.8975 -1.3728 -0.6808
  156TIP3    H2  412   1.850   6.183   2.634 -0.5780 -0.5327 -0.8158
  157TIP3   OH2  413   7.176   0.333   2.948 -0.1080 -0.0276 -0.0523
  157TIP3    H1  414   7.271   0.327   2.942 -0.1280  0.3011 -0.6861
  157TIP3    H2  415   7.153   0.411   2.898 -0.6975 -0.0054  0.2412
  158TIP3   OH2  416   3.235   0.684   4.120 -0.1898 -0.0538  0.3061
  158TIP3    H1  417   3.189   0.758   4.082  0.1990  1.0644  1.9394
  158TIP3    H2  418   3.326   0.713   4.128  0.0993 -0.9392  0.3481
  159TIP3   OH2  419   1.612   7.427   4.897  0.5486  0.1970 -0.3563
  159TIP3    H1  420   1.628   7.333   4.896  2.9762  0.5778  0.1229
  159TIP3    H2  421   1.685   7.464   4.947 -1.3651  2.1620  1.1354
  160TIP3   OH2  422   4.062   0.064   2.980 -0.3875  0.0653  0.3130
  160TIP3    H1  423   4.092  -0.009   2.926  1.7319  0.7666  0.5223
  160TIP3    H2  424   4.118   0.062   3.057  0.4523  2.5651 -0.1878
  161TIP3   OH2  425   1.353   6.730   0.694  0.2593  0.1601  0.7058
  161TIP3    H1  426   1.300   6.734   0.614  1.1205  0.8306  0.1658
  161TIP3    H2  427   1.293   6.696   0.760 -1.1135  1.7915  0.3236
  162TIP3   OH2  428   1.389   6.362   2.870  0.1972  0.2924  0.2873
  162TIP3    H1  429   1.477   6.380   2.835  0.1040  1.5393  0.6768
  162TIP3    H2  430   1.402   6.357   2.965  0.0495 -0.7405  0.2540
  163TIP3   OH2  431   2.507   6.049   3.064 -0.1654  0.2176  0.8629
  163TIP3    H1  432   2.512   6.032   2.970 -1.4626 -0.2275  0.8618
  163TIP3    H2  433   2.455   5.976   3.098 -1.4537  1.4615  1.6128
  164TIP3   OH2  434   4.686   0.054   2.998 -0.3554 -0.1786  0.1178
  164TIP3    H1  435   4.726   0.031   2.914  1.4586  0.2328  0.8309
  164TIP3    H2  436   4.594   0.032   2.988 -0.2532  0.2381 -2.1277
  165TIP3   OH2  437   3.930   0.577   3.530  0.1349  0.1881 -0.2096
  165TIP3    H1  438   3.867   0.512   3.500 -0.0265  0.7459 -1.1032
  165TIP3    H2  439   3.910   0.590   3.623 -1.3183  0.6576 -0.5829
  166TIP3   OH2  440   1.708   4.757   2.099  0.2100 -0.2539  0.1700
  166TIP3    H1  441   1.717   4.844   2.138  1.7318 -0.8502  1.2012
  166TIP3    H2  442   1.618   4.754   2.067  0.0603  1.5963  0.3702
  167TIP3   OH2  443   5.150   0.728   3.583  0.0020 -0.4644  0.0118
  167TIP3    H1  444   5.065   0.709   3.542 -0.1631 -1.5958  0.8441
  167TIP3    H2  445   5.215   0.697   3.520 -0.1757  0.8124 -0.8290
  168TIP3   OH2  446   3.665   6.620   0.491  0.0328 -0.0262 -0.3190
  168TIP3    H1  447   3.700   6.706   0.514 -1.9284  1.0211 -1.1755
  168TIP3    H2  448   3.626   6.587   0.571  1.0870 -0.2934  0.0996
  169TIP3   OH2  449   2.737   7.052   2.926  0.7233 -0.0606  0.1029
  169TIP3    H1  450   2.771   7.141   2.922 -1.9790  1.1189  1.8059
  169TIP3    H2  451   2.710   7.032   2.836 -0.8939  1.7995  0.1405
  170TIP3   OH2  452   5.049   0.700   1.569  0.3616  0.0531  0.4071
  170TIP3    H1  453   4.962   0.679   1.603 -0.8369  1.5975 -1.6098
  170TIP3    H2  454   5.093   0.615   1.562 -1.2675 -0.8282  0.6410
  171TIP3   OH2  455   2.490   5.663   1.749 -0.1169 -0.8354  0.2268
  171TIP3    H1  456   2.420   5.719   1.782  0.5234 -0.0178  0.2048
  171TIP3    H2  457   2.445   5.597   1.696 -0.8825 -0.4202  0.3489
  172TIP3   OH2  458   4.760   1.263   2.372  0.4368 -0.3579  0.3132
  172TIP3    H1  459   4.743   1.172   2.348  1.3756  0.2619 -2.8945
  172TIP3    H2  460   4.693   1.284   2.437 -0.6132 -2.9025  0.0935
  173TIP3   OH2  461   2.959   0.522   3.197 -0.4427  0.1712  0.5243
  173TIP3    H1  462   2.945   0.600   3.252  1.2668  0.7805  0.1393
  173TIP3    H2  463   3.021   0.469   3.247 -0.2564 -0.1062  0.0013
  174TIP3   OH2  464   2.580   7.722   0.497 -0.1082  0.0513  0.0885
  174TIP3    H1  465   2.534   7.745   0.416 -0.3261  2.0216  0.7422
  174TIP3    H2  466   2.519   7.748   0.567  1.4324  1.4771  0.9441
  175TIP3   OH2  467   4.647   1.506   2.938 -0.0790  0.3290  0.0946
  175TIP3    H1  468   4.679   1.454   2.864 -0.7293 -0.0859  0.1029
  175TIP3    H2  469   4.704   1.480   3.011 -0.7176 -0.7508  0.2200
  176TIP3   OH2  470   7.751   7.942   3.991  0.7947  0.1374  0.3057
  176TIP3    H1  471   7.845   7.957   3.998  0.6038  0.9283  1.4015
  176TIP3    H2  472   7.717   8.022   3.949  0.5579  0.0363  0.3047
  177TIP3   OH2  473   2.066   0.725   1.355 -0.6901  0.4093 -0.4578
  177TIP3    H1  474   2.091   0.689   1.440  0.3088  1.8762 -0.1251
  177TIP3    H2  475   1.973   0.703   1.347 -1.0611  1.1478  1.4765
  178TIP3   OH2  476   1.919   6.724   0.018  0.2599  0.7254  0.2659
  178TIP3    H1  477   1.875   6.642  -0.006 -0.0531  1.0601 -0.2976
  178TIP3    H2  478   1.861   6.764   0.083  1.6008 -0.6730  2.4050
  179TIP3   OH2  479   7.282   3.353   5.738  0.0823  0.0279  0.4923
  179TIP3    H1  480   7.189   3.330   5.735  0.0902 -0.2915  1.9706
  179TIP3    H2  481   7.308   3.332   5.828  1.7820 -0.6354 -0.1447
  180TIP3   OH2  482   3.699   1.700   1.834 -0.6808 -0.4225  0.6183
  180TIP3    H1  483   3.678   1.671   1.746  0.6289 -0.4051  0.2851
  180TIP3    H2  484   3.780   1.750   1.824 -1.8629  1.7002  1.4658
  181TIP3   OH2  485   3.128   0.912   0.956  0.5490  0.4557 -0.7667
  181TIP3    H1  486   3.156   0.904   0.865  0.9374 -0.0878 -0.6020
  181TIP3    H2  487   3.141   0.825   0.993  0.7787  0.7761 -0.0813
  182TIP3   OH2  488   1.619   0.554   0.328  0.2248 -0.4564  0.6486
  182TIP3    H1  489   1.593   0.506   0.249 -1.1369  1.4172 -0.0693
  182TIP3    H2  490   1.620   0.488   0.397  1.4911 -2.1296 -0.9409
  183TIP3   OH2  491   0.944   7.138   1.307 -0.1444  0.0272 -0.3265
  183TIP3    H1  492   0.973   7.128   1.216 -3.2767  1.1126 -1.5055
  183TIP3    H2  493   0.950   7.050   1.343  1.5684 -0.3369 -1.4392
  184TIP3   OH2  494   1.741   6.553   0.218 -0.5458  0.0762  0.0103
  184TIP3    H1  495   1.818   6.565   0.274 -0.5512 -1.4953  0.3763
  184TIP3    H2  496   1.700   6.639   0.215  0.8269  0.7614  0.4063
  185TIP3   OH2  497   4.341   1.630   3.950  0.9641 -0.3361  0.2010
  185TIP3    H1  498   4.278   1.578   4.000 -0.0135  0.9748  0.3651
  185TIP3    H2  499   4.341   1.590   3.863 -1.9204  1.0611 -0.5264
  186TIP3   OH2  500   5.759   1.776   1.785 -0.0834 -0.0742  0.1622
  186TIP3    H1  501   5.710   1.825   1.851 -1.6872 -1.4401  0.0132
  186TIP3    H2  502   5.771   1.838   1.713 -2.1378  0.0940 -0.0510
  187TIP3   OH2  503   5.557   0.633   1.648 -0.7348 -0.1828  0.1571
  187TIP3    H1  504   5.556   0.538   1.635  2.2813 -0.2628  0.0292
  187TIP3    H2  505   5.641   0.650   1.691 -0.9800  2.4745 -0.3336
  188TIP3   OH2  506   4.795   1.211   2.701  0.1939  0.6180 -0.3915
  188TIP3    H1  507   4.811   1.116   2.700 -0.8867  0.4113  0.5357
  188TIP3    H2  508   4.705   1.220   2.670 -0.8541  1.0535  2.5415
  189TIP3   OH2  509   6.953   1.749   0.321 -0.1971 -0.1532 -0.2425
  189TIP3    H1  510   7.004   1.720   0.245 -1.0738  0.5906 -1.1328
  189TIP3    H2  511   6.998   1.828   0.350 -1.3449  1.0285 -1.5989
  190TIP3   OH2  512   2.538   7.336   1.688  0.3084  0.3980 -0.3383
  190TIP3    H1  513   2.573   7.374   1.607  1.3895  0.5762  0.1955
  190TIP3    H2  514   2.443   7.343   1.679  0.4243  0.6344 -1.4859
  191TIP3   OH2  515   5.524   0.942   0.254  0.1614 -0.4183  0.8846
  191TIP3    H1  516   5.432   0.961   0.239  0.4605  0.6899  0.4710
  191TIP3    H2  517   5.571   1.018   0.220  1.1770 -0.5293  1.9908
  192TIP3   OH2  518   2.345   7.561   2.409 -0.2086 -0.3175 -0.1277
  192TIP3    H1  519   2.376   7.621   2.477  1.4564 -0.9413 -0.3113
  192TIP3    H2  520   2.313   7.618   2.339 -0.8996  0.3310  0.7074
  193TIP3   OH2  521   2.345   7.717   3.170 -0.2270  0.1768 -0.9176
  193TIP3    H1  522   2.370   7.809   3.180  0.1113  0.3381 -2.8724
  193TIP3    H2  523   2.413   7.681   3.112 -0.1358 -1.4054  0.1684
  194TIP3   OH2  524   7.308   3.008   0.603 -0.1130  0.2202 -0.1652
  194TIP3    H1  525   7.244   3.076   0.586 -1.3332 -1.2907 -1.7888
  194TIP3    H2  526   7.385   3.033   0.551 -0.8970 -0.1106 -1.5080
  195TIP3   OH2  527   5.633   2.241   3.157  0.8095  0.1154 -0.1293
  195TIP3    H1  528   5.606   2.198   3.239 -0.2894  0.4307 -0.3301
  195TIP3    H2  529   5.682   2.318   3.186  0.6652  0.0762  0.2264
  196TIP3   OH2  530   1.557   7.843   3.106 -0.2499 -0.0741  0.5818
  196TIP3    H1  531   1.536   7.933   3.079 -0.6769 -0.2460  0.3303
  196TIP3    H2  532   1.616   7.811   3.037 -0.3080 -0.0734  0.5310
  197TIP3   OH2  533   6.274   1.261   0.215 -0.2136 -0.5090 -0.2290
  197TIP3    H1  534   6.239   1.337   0.262 -1.2928 -1.3755  0.3847
  197TIP3    H2  535   6.268   1.189   0.277  0.4624 -1.1903 -0.9340
  198TIP3   OH2  536   3.547   1.358   1.695  0.1218  0.0087  0.4053
  198TIP3    H1  537   3.631   1.312   1.695 -0.4420 -1.0788 -0.7279
  198TIP3    H2  538   3.483   1.289   1.678 -0.6061  1.4452 -3.0513
  199TIP3   OH2  539   0.485   6.379   6.265 -0.0636  0.5641  0.1033
  199TIP3    H1  540   0.504   6.471   6.283 -1.8338  0.5801  2.1122
  199TIP3    H2  541   0.484   6.338   6.352 -0.5644 -1.1105 -0.6758
  200TIP3   OH2  542   3.225   6.789   0.815 -0.2927 -0.1959  0.0512
  200TIP3    H1  543   3.299   6.729   0.827 -1.2944 -1.3616  0.4483
  200TIP3    H2  544   3.223   6.840   0.896  0.6709  0.5114 -0.3595
  201TIP3   OH2  545   4.945   1.826   2.169  0.0719  0.3731 -0.2833
  201TIP3    H1  546   4.987   1.808   2.253 -0.4779 -0.2221 -0.1381
  201TIP3    H2  547   4.876   1.761   2.162  0.4015  0.1291 -1.4079
  202TIP3   OH2  548   1.181   7.352   1.895  0.9806  0.0179 -0.6751
  202TIP3    H1  549   1.089   7.325   1.899  0.8532  0.6917  1.0449
  202TIP3    H2  550   1.228   7.285   1.946  1.0976  1.1382  0.7062
  203TIP3   OH2  551   5.730   1.279   1.115  0.2356  0.7573  0.2738
  203TIP3    H1  552   5.739   1.268   1.209 -0.4371 -0.9945  0.1525
  203TIP3    H2  553   5.715   1.191   1.081 -3.0914  1.7358 -1.0578
  204TIP3   OH2  554   2.632   7.772   2.426  0.0461 -0.0099 -0.0178
  204TIP3    H1  555   2.595   7.851   2.466  1.2340  0.2493  0.5741
  204TIP3    H2  556   2.663   7.720   2.500 -1.0800 -1.2192 -0.3847
  205TIP3   OH2  557   2.372   1.449   0.284 -0.1401  0.4281  0.2737
  205TIP3    H1  558   2.424   1.517   0.240  0.0308  0.3419  0.3408
  205TIP3    H2  559   2.319   1.411   0.214  0.6754 -0.2114 -0.0033
  206TIP3   OH2  560   4.193   0.504   0.335 -0.3242  0.1202 -0.4472
  206TIP3    H1  561   4.287   0.511   0.317 -0.5561  1.0546 -1.3510
  206TIP3    H2  562   4.157   0.461   0.258 -0.8050  0.8748 -0.6503
  207TIP3   OH2  563   3.241   1.732   3.792 -0.6629  0.7104 -0.4776
  207TIP3    H1  564   3.269   1.650   3.751 -1.4226 -0.1790  0.7619
  207TIP3    H2  565   3.145   1.727   3.792 -0.6865  1.1587  0.5240
  208TIP3   OH2  566   3.317   7.526   3.001  0.1810  0.0425  0.0640
  208TIP3    H1  567   3.391   7.586   3.004 -0.0904  0.6023 -3.0870
  208TIP3    H2  568   3.261   7.560   2.932 -0.9936 -2.6765 -0.4020
  209TIP3   OH2  569   4.558   1.322   2.567  0.1392  0.2449 -0.4451
  209TIP3    H1  570   4.535   1.263   2.638  1.9206 -0.4039 -0.3879
  209TIP3    H2  571   4.478   1.373   2.552 -1.1536 -1.5384  0.1045
  210TIP3   OH2  572   3.824   1.550   0.911  0.1654 -0.0886  0.4219
  210TIP3    H1  573   3.778   1.618   0.960  0.7170  0.2954  0.4090
  210TIP3    H2  574   3.818   1.472   0.967  0.5046  0.2602  0.9438
  211TIP3   OH2  575   5.666   1.370   0.845 -0.1386  0.0264  0.3041
  211TIP3    H1  576   5.677   1.460   0.817 -0.5803  0.6593  2.1184
  211TIP3    H2  577   5.714   1.364   0.928 -1.4189 -0.9665  1.0040
  212TIP3   OH2  578   3.993   1.071   0.834 -0.6991 -0.1355 -0.5701
  212TIP3    H1  579   4.035   1.021   0.904 -2.2685 -1.0878 -0.2672
  212TIP3    H2  580   4.064   1.101   0.778  0.7118  1.5926  2.0423
  213TIP3   OH2  581   7.634   2.711   0.844  0.1664  0.4578 -0.3077
  213TIP3    H1  582   7.697   2.674   0.782 -0.5983  0.5092 -1.1231
  213TIP3    H2  583   7.584   2.636   0.875 -0.3988  0.6139 -0.8354
  214TIP3   OH2  584   1.180   2.438   2.578 -0.2921 -0.1647  0.4392
  214TIP3    H1  585   1.201   2.454   2.487  1.7783 -0.4310  0.8455
  214TIP3    H2  586   1.180   2.524   2.619 -0.9686 -0.0722  0.2595
  215TIP3   OH2  587   3.985   5.839   5.236  0.1209 -0.1422  0.2087
  215TIP3    H1  588   4.063   5.783   5.233  0.0479 -0.1809 -0.9217
  215TIP3    H2  589   4.016   5.925   5.206 -0.0954  0.0482  0.5270
  216TIP3   OH2  590   0.506   2.136   0.018  0.1200  0.3176 -0.5973
  216TIP3    H1  591   0.587   2.178  -0.012  0.3989 -0.4776 -0.9540
  216TIP3    H2  592   0.484   2.183   0.099 -0.4340  2.2233 -1.8072
  217TIP3   OH2  593   0.250   0.324   1.185  0.3453 -0.2122  0.0125
  217TIP3    H1  594   0.306   0.378   1.241  0.2714  0.3097 -0.4213
  217TIP3    H2  595   0.304   0.248   1.164  2.2480  1.9173 -3.3073
  218TIP3   OH2  596   2.474   1.946   1.823 -0.2568 -0.0804  0.1572
  218TIP3    H1  597   2.542   1.879   1.824 -0.8184 -0.6590  1.0275
  218TIP3    H2  598   2.422   1.927   1.745 -0.6230 -0.8965  0.5837
  219TIP3   OH2  599   1.421   1.946   2.991 -0.3400  0.1555 -0.4113
  219TIP3    H1  600   1.466   1.870   2.955 -1.0471  0.3879 -1.7943
  219TIP3    H2  601   1.355   1.969   2.926 -1.4778  0.7297  0.9084
  220TIP3   OH2  602   2.316   2.096   0.867  0.2108 -0.1242  0.3762
  220TIP3    H1  603   2.231   2.054   0.854 -0.4330  1.4694 -0.6944
  220TIP3    H2  604   2.377   2.045   0.813  0.1429 -1.8351  1.8661
  221TIP3   OH2  605   0.070   2.433   0.867 -0.3820  0.4489 -0.3112
  221TIP3    H1  606   0.051   2.527   0.860 -0.1930  0.3603 -2.4325
  221TIP3    H2  607   0.158   2.424   0.830 -0.2826 -0.5294  0.1585
  222TIP3   OH2  608   1.244   1.261   1.992 -0.3773 -0.1794 -0.3250
  222TIP3    H1  609   1.185   1.198   2.034 -0.1372 -1.4054 -1.7544
  222TIP3    H2  610   1.193   1.298   1.920 -0.2100  0.5728 -0.0597
  223TIP3   OH2  611   0.857   1.455   0.905 -0.2600  0.2363  0.4801
  223TIP3    H1  612   0.899   1.531   0.945 -0.7781  0.2002  1.0919
  223TIP3    H2  613   0.930   1.395   0.888  0.1418  0.8294  0.0683
  224TIP3   OH2  614   2.058   0.149   2.988  0.2376 -0.8518  1.1554
  224TIP3    H1  615   1.996   0.220   3.006  0.0677 -0.9365  0.9051
  224TIP3    H2  616   2.120   0.186   2.925 -0.3561 -1.1936  0.3580
  225TIP3   OH2  617   1.274   2.103   2.758  0.1458 -0.6665  0.0897
  225TIP3    H1  618   1.339   2.148   2.704  1.5654 -2.4997  0.2145
  225TIP3    H2  619   1.202   2.165   2.766  0.8866  0.5122 -2.0171
  226TIP3   OH2  620   1.723   1.921   2.297  0.1259  0.8193  0.7626
  226TIP3    H1  621   1.812   1.887   2.307 -0.0548  0.5102  1.3824
  226TIP3    H2  622   1.713   1.934   2.203 -0.2136 -2.0530  0.3479
  227TIP3   OH2  623   2.303   0.374   2.947  0.3632 -0.3688  0.3454
  227TIP3    H1  624   2.276   0.444   3.007  3.4276  0.3992  0.9310
  227TIP3    H2  625   2.336   0.305   3.005  0.1586 -1.0529 -0.3426
  228TIP3   OH2  626   3.026   2.303   2.618 -0.3895 -0.3754  0.7567
  228TIP3    H1  627   3.098   2.269   2.564 -0.3135 -0.2442  0.7763
  228TIP3    H2  628   2.989   2.374   2.567 -0.5563 -0.4959  0.7121
  229TIP3   OH2  629   8.523   6.922   3.250 -0.7536 -0.6351  0.5088
  229TIP3    H1  630   8.531   6.984   3.322 -0.7338 -0.5698  0.4506
  229TIP3    H2  631   8.430   6.899   3.249 -0.8188 -0.3660  0.3301
  230TIP3   OH2  632   2.820   2.650   1.390 -0.2950  0.1674 -0.0625
  230TIP3    H1  633   2.764   2.725   1.411  0.7389  1.1972 -0.9043
  230TIP3    H2  634   2.820   2.597   1.469 -0.0993  1.6644  0.9600
  231TIP3   OH2  635   4.105   1.101   2.985  0.0509 -0.4437 -0.2076
  231TIP3    H1  636   4.038   1.085   2.919 -0.9625  0.6126  0.5195
  231TIP3    H2  637   4.151   1.018   2.995 -0.4637 -0.8826 -1.4913
  232TIP3   OH2  638   2.864   2.527   1.668 -0.1937  0.6749 -0.4911
  232TIP3    H1  639   2.817   2.555   1.746 -1.7710 -0.8734 -0.8652
  232TIP3    H2  640   2.955   2.518   1.697 -0.9365 -0.8505  1.4259
  233TIP3   OH2  641   8.298   7.439   1.925  0.2518 -0.0011  0.4375
  233TIP3    H1  642   8.212   7.464   1.890  0.9193 -0.0300 -1.3146
  233TIP3    H2  643   8.343   7.522   1.939 -0.7846  0.1001  3.3375
  234TIP3   OH2  644   2.794   3.273   1.594  0.3707  0.0765  0.5307
  234TIP3    H1  645   2.784   3.179   1.582 -0.2511  0.2513 -0.3452
  234TIP3    H2  646   2.875   3.295   1.548 -0.1345  0.1705 -0.3109
  235TIP3   OH2  647   2.270   1.316   1.558 -0.4254 -0.2616 -0.9461
  235TIP3    H1  648   2.186   1.271   1.572 -1.0051  1.1874  0.4179
  235TIP3    H2  649   2.327   1.248   1.523 -0.6558 -2.6986  3.0520
  236TIP3   OH2  650   2.381   1.578   4.950  0.0277  0.2192 -0.1217
  236TIP3    H1  651   2.367   1.497   4.901  2.1946 -1.6118  2.1612
  236TIP3    H2  652   2.296   1.623   4.946 -0.4014 -0.7269 -3.8490
  237TIP3   OH2  653   1.153   2.335   3.362 -0.4380  0.0620  0.0435
  237TIP3    H1  654   1.146   2.313   3.455 -3.6069  2.3192  0.4240
  237TIP3    H2  655   1.220   2.403   3.359 -0.3157 -0.0248  0.6678
  238TIP3   OH2  656   3.774   2.336   0.947  0.1882 -0.2086  0.3986
  238TIP3    H1  657   3.780   2.334   1.042 -0.5976 -0.2477  0.4563
  238TIP3    H2  658   3.771   2.244   0.921 -0.6848 -0.1905  0.4212
  239TIP3   OH2  659   1.661   1.995   2.042  0.3668 -0.0173 -0.1147
  239TIP3    H1  660   1.568   2.013   2.030  0.1046  1.1625  3.1769
  239TIP3    H2  661   1.700   2.013   1.957 -2.4647 -1.0095 -1.6805
  240TIP3   OH2  662   2.038   1.730   2.727 -0.0316  0.7599  0.2199
  240TIP3    H1  663   1.971   1.663   2.711  0.3255  0.7857 -1.5075
  240TIP3    H2  664   2.040   1.740   2.822 -0.1312 -1.6609  0.5177
  241TIP3   OH2  665   2.278   0.695   2.198  0.1942  0.1499  0.6035
  241TIP3    H1  666   2.254   0.765   2.137 -0.5103 -0.4314  0.1927
  241TIP3    H2  667   2.301   0.740   2.279 -0.2880  0.8578  0.3555
  242TIP3   OH2  668   3.500   4.829   2.932 -0.3122  0.1620  0.2297
  242TIP3    H1  669   3.406   4.835   2.945 -0.4460  0.1968 -0.7776
  242TIP3    H2  670   3.522   4.900   2.872 -0.3837 -2.7876 -3.4280
  243TIP3   OH2  671   1.941   1.198   1.759  0.3806 -0.2136 -0.0680
  243TIP3    H1  672   1.933   1.293   1.748  0.8674  0.5640  5.0369
  243TIP3    H2  673   1.854   1.170   1.785  0.1699 -1.2887 -1.8306
  244TIP3   OH2  674   3.854   7.424   3.980  0.0855 -0.3112  0.2087
  244TIP3    H1  675   3.849   7.336   3.943 -0.8845 -0.1683  0.0044
  244TIP3    H2  676   3.781   7.472   3.940 -1.3704 -0.3284  2.7352
  245TIP3   OH2  677   0.650   1.891   0.326 -0.3442  0.7789 -0.2200
  245TIP3    H1  678   0.570   1.839   0.318 -0.3142  0.7426 -0.2901
  245TIP3    H2  679   0.621   1.981   0.319 -0.4717  0.7966  0.5346
  246TIP3   OH2  680   3.185   2.061   2.511  0.6537  0.4852 -0.0109
  246TIP3    H1  681   3.226   2.024   2.432 -0.4569 -0.5851 -0.0838
  246TIP3    H2  682   3.209   2.000   2.581  1.1805  1.1489  0.3986
  247TIP3   OH2  683   1.892   1.769   4.547  0.0116 -0.4208  0.1336
  247TIP3    H1  684   1.797   1.782   4.540 -0.1705 -0.7926  1.6755
  247TIP3    H2  685   1.903   1.674   4.550  0.4796 -0.3912 -0.6246
  248TIP3   OH2  686   2.748   1.181   2.267 -0.0183  0.5813  0.3903
  248TIP3    H1  687   2.699   1.190   2.349  0.4645  1.0120  0.6327
  248TIP3    H2  688   2.804   1.258   2.264  0.7184  0.0419  0.1556
  249TIP3   OH2  689   8.402   0.746   3.496 -0.2122 -0.1622  0.2485
  249TIP3    H1  690   8.475   0.688   3.476  0.6212  0.5518  1.1276
  249TIP3    H2  691   8.382   0.790   3.413 -0.6326 -1.4588 -0.3359
  250TIP3   OH2  692   8.144   6.636   0.316 -0.2744  0.1901 -0.4011
  250TIP3    H1  693   8.220   6.681   0.278 -0.5353  1.7761  0.8994
  250TIP3    H2  694   8.182   6.559   0.360  0.6814  1.3110  0.7807
  251TIP3   OH2  695   3.678   2.679   1.199  0.3407  0.0710  0.1505
  251TIP3    H1  696   3.696   2.670   1.105 -0.2187 -0.6198  0.1009
  251TIP3    H2  697   3.757   2.719   1.235  1.0060 -0.6722 -0.4421
  252TIP3   OH2  698   1.503   2.803   3.101 -0.2264 -0.1316 -0.1326
  252TIP3    H1  699   1.531   2.892   3.125 -0.1486  0.1285 -1.1656
  252TIP3    H2  700   1.435   2.782   3.165 -2.0382  1.6610 -1.3871
  253TIP3   OH2  701   7.442   7.604   1.562 -0.3914 -0.0782  0.1505
  253TIP3    H1  702   7.427   7.562   1.647 -0.4512 -0.8252 -0.2291
  253TIP3    H2  703   7.441   7.532   1.499 -2.6498  0.7199 -0.7838
  254TIP3   OH2  704   1.334   1.486   1.613  0.3147  0.1643  0.1708
  254TIP3    H1  705   1.241   1.507   1.620 -0.0162 -0.6858 -1.4301
  254TIP3    H2  706   1.364   1.541   1.541  0.5164 -1.3020 -0.8731
  255TIP3   OH2  707   1.275   1.286   4.175  0.2818 -0.1661 -0.1424
  255TIP3    H1  708   1.298   1.232   4.251  1.6364  1.2035  0.4542
  255TIP3    H2  709   1.266   1.375   4.210  0.9945  0.5024 -1.5915
  256TIP3   OH2  710   1.195   1.631   0.869  0.8975 -0.1310 -0.0350
  256TIP3    H1  711   1.190   1.572   0.793 -2.0530 -1.6149  1.2172
  256TIP3    H2  712   1.194   1.719   0.832 -2.6839 -0.7869 -1.7251
  257TIP3   OH2  713   0.223   7.991   3.236 -0.1237  0.0043  0.2099
  257TIP3    H1  714   0.144   7.954   3.274  0.3587  0.0186  1.2523
  257TIP3    H2  715   0.291   7.926   3.253  0.3499  0.5498  0.4445
  258TIP3   OH2  716   8.120   7.668   3.729 -0.1308 -0.6852 -0.2803
  258TIP3    H1  717   8.101   7.593   3.673  2.2338 -1.1019 -0.6039
  258TIP3    H2  718   8.152   7.630   3.811  1.2004 -0.0543 -0.4883
  259TIP3   OH2  719   2.142   0.598   4.559 -0.4149 -0.0961 -0.5092
  259TIP3    H1  720   2.051   0.571   4.576 -0.1420 -0.7149  0.0268
  259TIP3    H2  721   2.190   0.515   4.556  0.2974  0.2846  0.2564
  260TIP3   OH2  722   1.422   1.585   1.883  1.1217 -0.5082 -0.4310
  260TIP3    H1  723   1.387   1.577   1.794  0.0385  0.4085 -0.0912
  260TIP3    H2  724   1.431   1.679   1.897  1.6604 -0.6643  0.2929
  261TIP3   OH2  725   4.541   3.253   2.890 -0.2261  0.2881  0.2195
  261TIP3    H1  726   4.529   3.193   2.964 -0.4201 -0.6221 -0.5404
  261TIP3    H2  727   4.617   3.219   2.843  0.5951  1.5313  0.6342
  262TIP3   OH2  728   2.416   2.421   0.430 -0.4811  0.0941  0.9130
  262TIP3    H1  729   2.367   2.366   0.491 -1.0584  1.3426  1.6010
  262TIP3    H2  730   2.349   2.470   0.383 -0.1206 -1.8301 -1.7267
  263TIP3   OH2  731   3.120   0.874   3.275 -0.3106  0.3871  0.1317
  263TIP3    H1  732   3.123   0.863   3.180  1.3300  2.5895 -0.1250
  263TIP3    H2  733   3.146   0.789   3.310 -0.9007 -0.4332 -1.3878
  264TIP3   OH2  734   5.844   3.769   6.918 -0.2204  0.7518 -0.1157
  264TIP3    H1  735   5.759   3.744   6.954 -0.3057  1.4218  0.1531
  264TIP3    H2  736   5.835   3.758   6.824 -0.0348 -0.9139  0.0401
  265TIP3   OH2  737   0.092   1.827   0.295 -0.7498 -0.3541  0.5080
  265TIP3    H1  738   0.108   1.898   0.357 -0.9841  2.5270 -2.5831
  265TIP3    H2  739   0.177   1.783   0.288  0.0333  1.0663  0.7470
  266TIP3   OH2  740   2.666   1.743   1.837 -0.0046  0.2181  0.4580
  266TIP3    H1  741   2.603   1.697   1.782 -0.3348  1.9221 -0.6370
  266TIP3    H2  742   2.737   1.680   1.850 -1.4999 -1.4177  0.9847
  267TIP3   OH2  743   2.749   1.189   1.991 -0.5870  0.4193 -0.1215
  267TIP3    H1  744   2.694   1.174   2.068  1.1202  0.3173  1.0835
  267TIP3    H2  745   2.702   1.257   1.942 -2.0674 -0.0508  0.5977
  268TIP3   OH2  746   1.794   1.293   2.659  0.1639 -0.4058  0.2424
  268TIP3    H1  747   1.770   1.270   2.749  1.0497 -0.3501  0.5015
  268TIP3    H2  748   1.760   1.382   2.647 -0.3793 -0.5968  0.3577
  269TIP3   OH2  749   2.653   0.719   2.417  0.5366  0.4436 -0.0451
  269TIP3    H1  750   2.707   0.644   2.443  0.5794  0.2985 -0.5572
  269TIP3    H2  751   2.713   0.775   2.367  0.5169  0.8410  0.3788
  270TIP3   OH2  752   2.893   1.192   2.559 -0.3632  0.2201 -0.0931
  270TIP3    H1  753   2.867   1.270   2.509 -0.6676 -0.1054 -0.4517
  270TIP3    H2  754   2.964   1.154   2.508 -1.1744 -0.5298 -0.6932
  271TIP3   OH2  755   2.831   1.343   0.892  0.6891  0.1876 -0.6047
  271TIP3    H1  756   2.745   1.368   0.858  0.9141 -1.2089 -2.2150
  271TIP3    H2  757   2.889   1.414   0.864  0.0736  1.1530  0.5216
  272TIP3   OH2  758   4.076   3.961   0.717 -0.2820 -0.3694 -0.1279
  272TIP3    H1  759   4.062   3.898   0.646 -1.4204 -2.4261  1.8893
  272TIP3    H2  760   4.107   3.908   0.790  1.0774  1.7677  0.8993
  273TIP3   OH2  761   1.890   1.061   1.327 -0.3626 -0.1113 -0.3308
  273TIP3    H1  762   1.867   0.972   1.301 -0.9339 -0.2346  0.5607
  273TIP3    H2  763   1.811   1.095   1.369 -0.2599  0.9452 -0.9936
  274TIP3   OH2  764   2.599   2.775   1.047  0.2909  0.2543  0.4010
  274TIP3    H1  765   2.679   2.722   1.053  0.2879  0.3556  1.3061
  274TIP3    H2  766   2.560   2.748   0.964  2.2109  1.5423 -0.9774
  275TIP3   OH2  767   3.766   6.563   6.796 -0.1158 -0.4824 -0.0140
  275TIP3    H1  768   3.767   6.493   6.730  3.6650 -0.6165  0.0897
  275TIP3    H2  769   3.822   6.632   6.759  1.4375 -0.2260  2.6929
  276TIP3   OH2  770   1.496   3.210   0.905  0.0269  0.5995  0.2471
  276TIP3    H1  771   1.477   3.273   0.835 -1.1003  0.3195  0.2916
  276TIP3    H2  772   1.412   3.196   0.948  0.3878 -0.4816  0.6179
  277TIP3   OH2  773   3.004   0.990   1.206 -0.6143 -0.2434 -0.1321
  277TIP3    H1  774   2.941   1.053   1.171 -0.2187  0.1651 -0.0994
  277TIP3    H2  775   3.042   0.949   1.129 -1.2830 -0.8502 -0.1471
  278TIP3   OH2  776   0.462   2.696   2.288  0.3152 -0.3370  0.8015
  278TIP3    H1  777   0.538   2.703   2.231  0.4393 -0.4868  0.9466
  278TIP3    H2  778   0.388   2.722   2.234  0.4500 -0.3459  0.6144
  279TIP3   OH2  779   2.011   2.630   2.134  0.2900  0.1959 -0.1965
  279TIP3    H1  780   2.069   2.580   2.191  0.2047  0.0738 -0.2171
  279TIP3    H2  781   1.935   2.573   2.122 -0.6106  1.0581  1.2406
  280TIP3   OH2  782   3.963   0.821   3.431 -0.1786  0.2541 -0.0576
  280TIP3    H1  783   3.886   0.858   3.387  0.8810  1.0472 -1.2860
  280TIP3    H2  784   3.938   0.732   3.453 -1.3410  0.4101 -0.7174
  281TIP3   OH2  785   1.643   3.006   0.229 -0.0093 -0.0867 -0.1626
  281TIP3    H1  786   1.683   3.076   0.178  0.5186 -0.1221  0.2031
  281TIP3    H2  787   1.644   3.037   0.319 -2.2629  0.5834 -0.3391
  282TIP3   OH2  788   0.401   3.640   1.449  0.2965 -0.0694 -0.1734
  282TIP3    H1  789   0.493   3.646   1.427  0.1203  0.3311 -0.8121
  282TIP3    H2  790   0.359   3.708   1.396 -0.4121 -0.4926 -0.1575
  283TIP3   OH2  791   0.877   7.167   3.466  0.0013  0.7414  0.3087
  283TIP3    H1  792   0.951   7.227   3.476  1.5226 -1.1614  0.6642
  283TIP3    H2  793   0.861   7.134   3.555 -0.6616  0.4099  0.0711
  284TIP3   OH2  794   3.432   1.056   2.714  0.0629 -0.0877  0.4567
  284TIP3    H1  795   3.349   1.079   2.673  0.8377  1.1161 -0.4436
  284TIP3    H2  796   3.417   1.071   2.808 -0.1095  2.1083  0.1016
  285TIP3   OH2  797   4.963   1.751   1.416 -0.3598 -0.5127 -0.1873
  285TIP3    H1  798   4.892   1.735   1.478 -0.3382 -0.2835 -0.1042
  285TIP3    H2  799   4.935   1.707   1.336 -1.1456  0.5976 -0.5273
  286TIP3   OH2  800   2.643   1.476   0.728  0.3470 -0.9913 -0.1172
  286TIP3    H1  801   2.715   1.511   0.676  0.2308 -0.1965  0.2592
  286TIP3    H2  802   2.603   1.410   0.671  1.1300 -1.1771 -0.4718
  287TIP3   OH2  803   2.775   0.905   2.246 -0.0940 -0.3056  0.6596
  287TIP3    H1  804   2.802   0.995   2.225  1.3135 -1.0206 -0.7181
  287TIP3    H2  805   2.688   0.897   2.209  0.1833  0.1749 -0.1109
  288TIP3   OH2  806   3.414   0.262   1.568  0.2124 -0.1456  0.5438
  288TIP3    H1  807   3.491   0.315   1.548 -1.4665  1.6034 -1.6406
  288TIP3    H2  808   3.355   0.322   1.613 -0.4223 -1.0823  0.9690
  289TIP3   OH2  809   3.569   2.475   0.344 -0.3403  0.2966  0.9498
  289TIP3    H1  810   3.643   2.534   0.333 -0.0231  0.0492  1.7432
  289TIP3    H2  811   3.606   2.398   0.388 -0.6032 -0.8020 -0.7196
  290TIP3   OH2  812   0.009   0.991   6.698 -0.0175 -0.1904  0.3340
  290TIP3    H1  813   0.085   1.002   6.642 -0.8465  1.4114 -0.5028
  290TIP3    H2  814  -0.066   1.000   6.640 -0.8904  1.7573  1.7015
  291TIP3   OH2  815   3.929   3.490   2.478 -0.1029 -0.2911  0.1489
  291TIP3    H1  816   3.855   3.435   2.502 -0.2132  0.4665  1.6502
  291TIP3    H2  817   3.912   3.516   2.388 -1.4812 -0.4223  0.3556
  292TIP3   OH2  818   3.426   3.039   3.397  0.2079  0.4885  1.0217
  292TIP3    H1  819   3.521   3.044   3.402  0.1918  1.9412 -0.0611
  292TIP3    H2  820   3.407   3.014   3.307 -0.4165 -0.9935  1.5371
  293TIP3   OH2  821   4.561   2.165   2.334  0.5092 -0.0754  0.5808
  293TIP3    H1  822   4.532   2.080   2.367 -0.4064 -0.4994 -1.2332
  293TIP3    H2  823   4.599   2.145   2.248 -0.5405  1.4540 -0.2599
  294TIP3   OH2  824   6.985   2.870   0.947 -0.3730  0.1719 -0.0038
  294TIP3    H1  825   6.949   2.956   0.927 -0.5044  0.5596  1.8273
  294TIP3    H2  826   7.080   2.883   0.947 -0.1966 -0.5050 -3.2489
  295TIP3   OH2  827   1.870   1.625   2.388 -0.0941 -0.3233 -0.0762
  295TIP3    H1  828   1.935   1.695   2.391  0.2864 -0.6313 -0.9889
  295TIP3    H2  829   1.841   1.622   2.296  0.2294 -1.6624 -0.1470
  296TIP3   OH2  830   3.754   1.550   2.317 -0.0560  0.0420  0.0134
  296TIP3    H1  831   3.699   1.517   2.245 -0.2602 -0.0862  0.2284
  296TIP3    H2  832   3.833   1.495   2.314  0.1387  0.3457 -0.4107
  297TIP3   OH2  833   4.170   4.992   6.816  0.2601  0.2167  0.1690
  297TIP3    H1  834   4.147   5.022   6.728  0.3770 -0.8536 -0.2394
  297TIP3    H2  835   4.121   4.910   6.827  2.4119 -1.1387 -0.0165
  298TIP3   OH2  836   5.584   3.217   5.987 -0.3675 -0.7095  0.3674
  298TIP3    H1  837   5.625   3.169   5.915  1.1892 -1.4696  1.7278
  298TIP3    H2  838   5.547   3.295   5.946 -1.0272 -1.9769 -1.5354
  299TIP3   OH2  839   5.440   2.190   1.342  0.2317  0.1215  0.3741
  299TIP3    H1  840   5.434   2.094   1.345 -0.8277  0.1115 -1.1376
  299TIP3    H2  841   5.473   2.208   1.253  0.4263  1.1656  0.6568
  300TIP3   OH2  842   2.847   1.181   1.101 -0.3844  0.0697  0.1352
  300TIP3    H1  843   2.790   1.111   1.069 -1.8995  1.5882 -0.5179
  300TIP3    H2  844   2.857   1.240   1.026  1.8559 -0.0209  0.3133
  301TIP3   OH2  845   3.703   1.648   1.564  0.1968  0.1784 -0.1072
  301TIP3    H1  846   3.738   1.723   1.515  1.5556  0.6085  1.4849
  301TIP3    H2  847   3.741   1.571   1.520 -1.0617  0.4019 -1.6327
  302TIP3   OH2  848   2.897   0.924   1.645  0.5944 -0.2212  0.1877
  302TIP3    H1  849   2.965   0.861   1.622  0.4887  0.1225 -1.0815
  302TIP3    H2  850   2.911   0.998   1.586  0.3806  0.7313  1.2982
  303TIP3   OH2  851   3.749   0.203   2.023  0.0211 -0.3022 -0.3043
  303TIP3    H1  852   3.825   0.146   2.027 -0.1062 -0.4340  0.3577
  303TIP3    H2  853   3.719   0.209   2.114 -0.1141  0.6184 -0.4096
  304TIP3   OH2  854   1.558   1.706   3.234 -0.1431  0.1561 -0.4306
  304TIP3    H1  855   1.528   1.721   3.324 -0.1812  0.9188 -0.5677
  304TIP3    H2  856   1.493   1.646   3.197 -0.4737  0.3302 -0.1409
  305TIP3   OH2  857   4.172   2.117   1.871  0.5056 -0.3453  0.6686
  305TIP3    H1  858   4.131   2.053   1.929  2.7862 -1.6119  0.9493
  305TIP3    H2  859   4.252   2.143   1.917  0.1073  1.9870  0.0989
  306TIP3   OH2  860   5.141   0.465   2.094 -0.1429 -0.2842  0.1309
  306TIP3    H1  861   5.101   0.380   2.076 -0.7247  0.0553 -0.2033
  306TIP3    H2  862   5.214   0.471   2.033 -0.6266 -0.1741 -0.4417
  307TIP3   OH2  863   4.671   0.951   2.578 -0.2577 -0.5142  0.6120
  307TIP3    H1  864   4.725   0.896   2.523 -0.3535  0.0777 -0.0845
  307TIP3    H2  865   4.640   0.893   2.647 -0.5578 -1.3821 -0.2443
  308TIP3   OH2  866   0.403   7.832   1.372 -0.4352 -0.3848 -0.0009
  308TIP3    H1  867   0.411   7.923   1.402 -0.0569 -0.2370 -0.5478
  308TIP3    H2  868   0.492   7.797   1.378 -0.8649 -1.2184  1.7662
  309TIP3   OH2  869   3.237   1.641   1.433  0.2259 -0.0523 -0.3184
  309TIP3    H1  870   3.181   1.709   1.469  1.0405  0.8338 -0.7059
  309TIP3    H2  871   3.202   1.624   1.346 -0.0685 -0.2515 -0.1646
  310TIP3   OH2  872   5.497   1.624   0.928  0.1171  0.0660 -0.7192
  310TIP3    H1  873   5.449   1.608   1.009  1.0549  0.4701 -0.0713
  310TIP3    H2  874   5.588   1.637   0.956  0.2568  1.3724 -1.7067
  311TIP3   OH2  875   3.358   0.846   0.804  0.2961 -0.3935  0.6372
  311TIP3    H1  876   3.384   0.937   0.797  0.0861 -0.4566 -1.2398
  311TIP3    H2  877   3.440   0.799   0.822  1.0072 -0.1920 -1.7765
  312TIP3   OH2  878   5.471   4.483   4.965 -0.0267 -0.4310  0.2983
  312TIP3    H1  879   5.382   4.520   4.967 -0.0493 -0.4427 -0.4494
  312TIP3    H2  880   5.527   4.557   4.942  0.0172 -0.6795 -0.4177
  313TIP3   OH2  881   2.473   0.476   1.092 -0.3621  0.5708 -0.0977
  313TIP3    H1  882   2.455   0.568   1.078 -1.0222  0.3831 -0.4683
  313TIP3    H2  883   2.387   0.434   1.093 -0.0138 -0.1842 -0.9634
  314TIP3   OH2  884   3.528   1.276   2.550  0.0563 -0.1731 -0.0893
  314TIP3    H1  885   3.514   1.350   2.610 -0.1717 -0.4002  0.1377
  314TIP3    H2  886   3.504   1.199   2.601 -0.2040 -0.3634 -0.5020
  315TIP3   OH2  887   3.354   1.568   1.005  0.2466 -0.3424 -0.2021
  315TIP3    H1  888   3.285   1.603   1.061  0.6191  0.4924 -0.2420
  315TIP3    H2  889   3.332   1.600   0.918  0.5563 -0.2627 -0.2520
  316TIP3   OH2  890   3.166   0.488   1.442 -0.4325 -0.2903 -0.3170
  316TIP3    H1  891   3.196   0.429   1.512 -1.5196 -0.7793 -0.2513
  316TIP3    H2  892   3.241   0.494   1.383 -0.2900 -1.7565 -0.3269
  317TIP3   OH2  893   1.667   1.552   1.255  0.2483 -0.1531 -1.0438
  317TIP3    H1  894   1.733   1.487   1.233  0.8422  0.5365 -1.3095
  317TIP3    H2  895   1.650   1.598   1.173 -0.0047  0.1779 -0.8107
  318TIP3   OH2  896   4.305   0.722   1.200 -0.1492  0.3992 -0.3297
  318TIP3    H1  897   4.344   0.682   1.277 -1.5475  2.1658  1.3612
  318TIP3    H2  898   4.370   0.709   1.131  1.6855 -0.1636  1.4275
  319TIP3   OH2  899   2.934   2.959   2.176  0.4468 -0.3062  0.5152
  319TIP3    H1  900   3.015   3.011   2.175  0.2976 -0.0639 -1.0001
  319TIP3    H2  901   2.881   2.998   2.245  1.0227  0.5037  0.5081
  320TIP3   OH2  902   1.465   1.077   1.993  0.7142 -0.0846 -0.7296
  320TIP3    H1  903   1.416   1.154   2.023  1.2363 -0.0282 -0.0013
  320TIP3    H2  904   1.556   1.096   2.016  0.8454 -0.9149 -0.5448
  321TIP3   OH2  905   2.380   2.372   0.967 -0.0348 -0.2944 -0.0158
  321TIP3    H1  906   2.373   2.281   0.938  0.4728 -0.5702  0.7085
  321TIP3    H2  907   2.319   2.379   1.041 -0.4631  0.0947 -0.4006
  322TIP3   OH2  908   2.732   1.515   1.525 -0.0423  0.0508 -0.2491
  322TIP3    H1  909   2.726   1.439   1.466 -0.2767 -0.0369 -0.1079
  322TIP3    H2  910   2.797   1.572   1.482  0.6546 -0.5437 -0.0033
  323TIP3   OH2  911   3.461   3.403   1.754  0.4873  0.0776 -0.1016
  323TIP3    H1  912   3.373   3.417   1.787  0.5542 -1.6966  0.8735
  323TIP3    H2  913   3.452   3.408   1.659 -0.6107  0.1001  0.0031
  324TIP3   OH2  914   4.530   2.463   1.343 -0.1261 -0.4478 -0.5476
  324TIP3    H1  915   4.461   2.469   1.410  0.6256 -0.5663  0.2388
  324TIP3    H2  916   4.523   2.374   1.310  0.4098 -0.8439  0.3683
  325TIP3   OH2  917   2.693   1.039   3.944  0.7918 -0.1408 -1.0228
  325TIP3    H1  918   2.623   1.006   3.887  0.3647 -1.0816  0.0372
  325TIP3    H2  919   2.723   1.119   3.901 -0.4907 -0.0861 -1.8351
  326TIP3   OH2  920   6.193   5.193   5.897 -1.2978  0.2630 -0.3577
  326TIP3    H1  921   6.286   5.174   5.884 -1.7610 -1.1630 -1.7347
  326TIP3    H2  922   6.192   5.259   5.967  0.6577 -0.6717  0.6038
  327TIP3   OH2  923   2.348   1.813   4.026  0.0546  0.4657  0.7192
  327TIP3    H1  924   2.412   1.832   3.957  1.2625 -0.2178  1.6294
  327TIP3    H2  925   2.395   1.755   4.087 -1.6195 -0.5382  1.0931
  328TIP3   OH2  926   8.251   0.338   1.498  0.1357  1.0261  0.3598
  328TIP3    H1  927   8.290   0.382   1.422  1.1336  0.8079  0.7423
  328TIP3    H2  928   8.321   0.281   1.531 -0.6935  0.2133  0.7164
  329TIP3   OH2  929   3.957   1.677   2.090 -0.4999 -0.0106  0.1990
  329TIP3    H1  930   3.869   1.690   2.123 -0.4785  0.0173  0.2451
  329TIP3    H2  931   3.962   1.583   2.072 -0.6270  0.0317 -0.0614
  330TIP3   OH2  932   2.848   3.590   0.825  0.1973 -0.3435  0.5170
  330TIP3    H1  933   2.871   3.680   0.846 -1.7562  0.2905  0.0529
  330TIP3    H2  934   2.852   3.543   0.909 -0.2792  0.5187  1.0260
  331TIP3   OH2  935   2.452   1.655   0.144 -0.1668  0.3106  0.1886
  331TIP3    H1  936   2.375   1.698   0.181 -0.0855  0.0238  0.6998
  331TIP3    H2  937   2.466   1.698   0.059 -2.4420 -1.3928 -1.1021
  332TIP3   OH2  938   3.408   2.267   1.658 -0.3214 -0.1927 -0.1747
  332TIP3    H1  939   3.438   2.327   1.726  2.0505 -0.3575 -1.0185
  332TIP3    H2  940   3.340   2.215   1.700 -0.1920  0.9379  1.5042
  333TIP3   OH2  941   5.919   2.396   2.027  0.3638 -0.5974 -0.3052
  333TIP3    H1  942   5.989   2.403   1.962  0.7798 -1.4529  0.0336
  333TIP3    H2  943   5.951   2.445   2.102  1.3660 -2.3777  0.4730
  334TIP3   OH2  944   1.522   0.181   1.190 -0.2696 -0.8499  0.4253
  334TIP3    H1  945   1.514   0.092   1.226 -1.9992 -1.6629 -1.8314
  334TIP3    H2  946   1.572   0.169   1.109 -0.9406  0.1792 -0.1432
  335TIP3   OH2  947   1.486   7.210   3.406  0.2969 -0.5089  0.3909
  335TIP3    H1  948   1.429   7.153   3.354  0.6293 -0.5999  0.1255
  335TIP3    H2  949   1.479   7.176   3.495 -0.5157 -0.1633  0.4652
  336TIP3   OH2  950   2.195   2.317   1.467 -0.1409  0.4737 -0.1162
  336TIP3    H1  951   2.120   2.284   1.515  0.3001  0.6917  0.7419
  336TIP3    H2  952   2.167   2.319   1.376 -1.1065  0.3763  0.1766
  337TIP3   OH2  953   4.568   0.299   4.580  0.0070  0.1774 -0.1930
  337TIP3    H1  954   4.588   0.235   4.512 -0.0645  0.4064 -0.4318
  337TIP3    H2  955   4.583   0.384   4.538  0.6728  0.3054  0.3017
  338TIP3   OH2  956   4.342   1.833   1.890 -0.1951  0.3540 -0.0858
  338TIP3    H1  957   4.402   1.901   1.859 -0.3961  1.2574  1.4577
  338TIP3    H2  958   4.259   1.853   1.847 -0.0576  0.6230 -0.2272
  339TIP3   OH2  959   3.557   2.198   2.259  0.0008  0.2410  0.1039
  339TIP3    H1  960   3.602   2.213   2.342 -0.0811  0.8642  0.0400
  339TIP3    H2  961   3.624   2.160   2.202 -0.1096 -0.7690  0.6440
  340TIP3   OH2  962   4.861   1.106   2.063 -0.5652 -0.6519  0.2381
  340TIP3    H1  963   4.768   1.100   2.087 -0.7164  1.3677  0.2305
  340TIP3    H2  964   4.861   1.111   1.967 -0.4309 -1.0492  0.2187
  341TIP3   OH2  965   1.515   0.768   0.741  0.3273 -0.7843 -0.1160
  341TIP3    H1  966   1.522   0.772   0.837 -0.1366 -0.5989 -0.0877
  341TIP3    H2  967   1.461   0.692   0.724  1.1268 -1.3217 -0.2696
  342TIP3   OH2  968   3.683   1.558   1.218 -0.6804  0.3203 -0.0235
  342TIP3    H1  969   3.618   1.526   1.281  0.2030 -1.4120  0.0189
  342TIP3    H2  970   3.764   1.513   1.241  0.1970  1.3484 -1.0104
  343TIP3   OH2  971   2.791   2.280   1.588  0.3529 -0.1103 -0.1002
  343TIP3    H1  972   2.695   2.279   1.598  0.1004  1.5283 -2.1314
  343TIP3    H2  973   2.819   2.359   1.634  0.5542  0.3365 -0.9894
  344TIP3   OH2  974   0.347   7.920   3.557 -0.5327 -0.1890  0.1317
  344TIP3    H1  975   0.368   8.012   3.573 -0.3776  0.0785 -1.5067
  344TIP3    H2  976   0.424   7.886   3.511  0.1625 -1.6172  2.2397
  345TIP3   OH2  977   3.308   1.041   3.550 -0.1794 -0.8455 -0.0837
  345TIP3    H1  978   3.318   0.950   3.578  1.3745 -0.6521  0.0126
  345TIP3    H2  979   3.215   1.060   3.565 -0.5141 -2.3981 -0.0678
  346TIP3   OH2  980   3.824   0.751   0.360 -0.2753 -1.4038 -0.3591
  346TIP3    H1  981   3.891   0.798   0.310  0.1614  0.3893  1.8540
  346TIP3    H2  982   3.767   0.713   0.293  1.6517 -1.0906 -2.2486
  347TIP3   OH2  983   1.046   7.822   1.806  0.1561  0.2423  1.0469
  347TIP3    H1  984   0.974   7.773   1.767  0.5648 -1.4653  2.3664
  347TIP3    H2  985   1.107   7.838   1.734 -1.4748  1.6043 -0.0481
  348TIP3   OH2  986   4.695   1.895   2.582  0.0686  0.2126  0.1837
  348TIP3    H1  987   4.637   1.961   2.543 -0.0427 -0.1846 -0.3242
  348TIP3    H2  988   4.639   1.820   2.599 -0.1706  0.8883  2.4256
  349TIP3   OH2  989   4.814   3.116   3.206  0.1390  0.6542  0.3145
  349TIP3    H1  990   4.732   3.087   3.247  0.3162 -2.7457 -1.5328
  349TIP3    H2  991   4.883   3.075   3.259  0.5574  1.2823  0.2594
  350TIP3   OH2  992   3.820   2.158   1.550 -0.4539  0.0485 -0.5597
  350TIP3    H1  993   3.792   2.216   1.621 -1.2711 -0.0904 -0.7600
  350TIP3    H2  994   3.739   2.140   1.501 -0.2801 -1.6114 -0.2412
  351TIP3   OH2  995   4.178   3.254   1.251  0.0255 -0.5579 -0.3125
  351TIP3    H1  996   4.262   3.247   1.295  0.6577  4.1700 -0.5756
  351TIP3    H2  997   4.113   3.243   1.321  0.8809 -1.0249  0.4204
  352TIP3   OH2  998   3.774   1.883   1.453  0.3222 -0.2973 -0.0912
  352TIP3    H1  999   3.689   1.913   1.420  0.0975 -1.6038 -0.7178
  352TIP3    H2 1000   3.835   1.952   1.427  0.1885 -1.3416 -3.3960
  353TIP3   OH2 1001   4.783   2.786   1.217 -0.3252 -0.1118 -0.4657
  353TIP3    H1 1002   4.765   2.824   1.303 -1.8882  0.6888 -1.1241
  353TIP3    H2 1003   4.700   2.795   1.170  0.3046 -1.2376 -1.7955
  354TIP3   OH2 1004   5.103   2.743   1.937 -0.1328  0.0882  0.4981
  354TIP3    H1 1005   5.125   2.727   2.029 -0.0291 -2.7970  0.0280
  354TIP3    H2 1006   5.021   2.696   1.924 -2.3829  3.9402  0.1141
  355TIP3   OH2 1007   7.870   3.975   5.600 -0.8066  0.2126 -0.4836
  355TIP3    H1 1008   7.800   3.921   5.635 -1.3726  0.2848 -1.4861
  355TIP3    H2 1009   7.929   3.913   5.557 -1.0775  0.3012 -0.9962
  356TIP3   OH2 1010   4.475   0.849   3.175  0.1141 -0.0096  0.4618
  356TIP3    H1 1011   4.392   0.831   3.132  0.0482 -0.8548  0.9240
  356TIP3    H2 1012   4.490   0.773   3.231  1.3617 -0.0112  0.1387
  357TIP3   OH2 1013   2.727   4.322   2.397 -0.0179 -0.0800  0.2369
  357TIP3    H1 1014   2.641   4.279   2.393  0.1348 -0.2413 -1.9276
  357TIP3    H2 1015   2.789   4.253   2.375  0.5853  0.2969  0.7475
  358TIP3   OH2 1016   4.518   2.034   1.771 -0.0072  0.0912 -0.1903
  358TIP3    H1 1017   4.509   2.117   1.819  0.2385 -1.0991  1.9619
  358TIP3    H2 1018   4.601   1.997   1.801  0.3181 -0.5285 -1.8087
  359TIP3   OH2 1019   3.378   1.631   2.480  0.0555 -0.2645 -0.2291
  359TIP3    H1 1020   3.308   1.592   2.532  0.1574  0.3333  0.3712
  359TIP3    H2 1021   3.431   1.557   2.451 -0.2596 -0.6419  0.1510
  360TIP3   OH2 1022   3.498   0.172   1.137 -0.1819 -0.1891  0.0607
  360TIP3    H1 1023   3.536   0.204   1.055  0.0001 -0.6567 -0.0413
  360TIP3    H2 1024   3.565   0.191   1.203 -0.2031 -0.0827  0.0522
  361TIP3   OH2 1025   2.383   7.770   1.678  0.1192 -0.3746 -0.0596
  361TIP3    H1 1026   2.424   7.854   1.700 -1.1900 -0.1101  1.4611
  361TIP3    H2 1027   2.426   7.707   1.735 -0.0609 -0.4614 -0.0201
  362TIP3   OH2 1028   4.065   2.046   2.155  0.3770  0.2223  0.3152
  362TIP3    H1 1029   4.077   1.952   2.165  2.3296  0.3465 -0.5532
  362TIP3    H2 1030   4.115   2.084   2.228  0.0454  0.6141  0.3422
  363TIP3   OH2 1031   4.584   6.755   6.641 -0.1321 -0.0529 -0.0604
  363TIP3    H1 1032   4.588   6.664   6.672  1.6188  0.0387  0.0481
  363TIP3    H2 1033   4.505   6.791   6.682 -0.3850 -1.2785  0.5596
  364TIP3   OH2 1034   5.267   5.303   6.697 -0.1508 -0.1863  0.2806
  364TIP3    H1 1035   5.274   5.208   6.706 -0.4730 -0.2200  0.1680
  364TIP3    H2 1036   5.259   5.336   6.787  0.8126 -0.2002  0.3755
  365TIP3   OH2 1037   1.317   7.561   1.749 -0.3093 -0.4095 -0.3246
  365TIP3    H1 1038   1.348   7.618   1.820  0.4775  0.2499 -1.1887
  365TIP3    H2 1039   1.283   7.484   1.794  1.3497 -0.5579  0.7304
  366TIP3   OH2 1040   4.694   0.697   2.155  0.0391 -0.2902  0.9188
  366TIP3    H1 1041   4.742   0.748   2.221 -0.8846  1.6594  0.1154
  366TIP3    H2 1042   4.607   0.686   2.192 -0.4628  0.7509  0.0706
  367TIP3   OH2 1043   1.301   4.254   1.150 -0.3845 -0.5915 -0.4149
  367TIP3    H1 1044   1.361   4.232   1.079 -0.8440  0.2504 -1.0718
  367TIP3    H2 1045   1.243   4.178   1.158 -1.7427  0.1979 -2.4284
  368TIP3   OH2 1046   5.503   1.023   0.876 -0.3128  0.3471  0.0033
  368TIP3    H1 1047   5.488   1.115   0.895  1.0838  1.0767 -2.1621
  368TIP3    H2 1048   5.416   0.986   0.864 -0.8528  1.5525  0.1936
  369TIP3   OH2 1049   1.439   7.360   0.610 -0.5246 -0.2832  0.0504
  369TIP3    H1 1050   1.499   7.379   0.538 -2.8077  1.1072 -1.5516
  369TIP3    H2 1051   1.418   7.267   0.600  1.2781 -0.7714  0.5930
  370TIP3   OH2 1052   5.772   2.535   0.736 -0.0045 -0.4524 -0.4744
  370TIP3    H1 1053   5.697   2.479   0.717 -1.3998  0.7065  1.4744
  370TIP3    H2 1054   5.734   2.619   0.761  1.9993  0.6756 -1.0643
  371TIP3   OH2 1055   5.542   4.173   1.757 -0.8109  0.2035 -0.1153
  371TIP3    H1 1056   5.614   4.230   1.728 -0.2781 -0.1560  0.5148
  371TIP3    H2 1057   5.561   4.155   1.849 -0.2208 -2.1279 -0.6591
  372TIP3   OH2 1058   5.278   3.039   2.194  0.2636 -0.1425  0.3255
  372TIP3    H1 1059   5.257   2.986   2.272 -1.4395 -0.4014 -0.2959
  372TIP3    H2 1060   5.256   3.128   2.220  1.2066 -0.0071  0.6767
  373TIP3   OH2 1061   5.011   0.145   0.554  0.8654 -0.1696 -0.5406
  373TIP3    H1 1062   5.041   0.076   0.495 -1.4976 -2.5152  0.9335
  373TIP3    H2 1063   5.054   0.125   0.638 -1.3281 -1.0319  0.4113
  374TIP3   OH2 1064   2.261   7.752   2.237  0.2852  0.3710 -0.3192
  374TIP3    H1 1065   2.310   7.724   2.159  0.4664  1.4540 -0.5989
  374TIP3    H2 1066   2.196   7.814   2.204 -2.4819 -2.3538 -0.2130
  375TIP3   OH2 1067   3.553   2.128   3.262 -0.1360 -0.3702  0.2265
  375TIP3    H1 1068   3.643   2.141   3.233 -0.3652  1.8247  0.3840
  375TIP3    H2 1069   3.538   2.034   3.254  2.3036 -0.8130  0.6355
  376TIP3   OH2 1070   6.432   4.903   6.854 -0.1617  0.1883  0.1648
  376TIP3    H1 1071   6.354   4.959   6.862 -0.0832  0.9122 -3.2274
  376TIP3    H2 1072   6.398   4.819   6.824  0.3545  0.5720 -1.5324
  377TIP3   OH2 1073   3.409   1.609   0.563  0.2920 -0.2311 -0.3400
  377TIP3    H1 1074   3.482   1.629   0.504 -0.3470 -0.1058 -1.1013
  377TIP3    H2 1075   3.416   1.673   0.634  1.0287 -0.3385 -0.3180
  378TIP3   OH2 1076   2.043   0.981   0.473  0.4368  0.1844 -0.1718
  378TIP3    H1 1077   2.120   0.926   0.462 -0.4232 -1.6509  2.4210
  378TIP3    H2 1078   2.063   1.036   0.548 -0.6144 -0.0546  0.2996
  379TIP3   OH2 1079   2.717   4.242   1.291  0.0097  0.1117  0.1081
  379TIP3    H1 1080   2.724   4.256   1.197  1.8655  0.1682  0.2404
  379TIP3    H2 1081   2.636   4.193   1.302 -0.2377  0.1409 -1.5145
  380TIP3   OH2 1082   1.557   1.449   0.633 -0.0737 -0.0895 -0.5158
  380TIP3    H1 1083   1.492   1.511   0.601 -0.3196  0.6652  1.3320
  380TIP3    H2 1084   1.624   1.447   0.566  0.2609  2.7111 -0.3244
  381TIP3   OH2 1085   1.841   6.713   2.910 -0.2514 -0.2472  0.0615
  381TIP3    H1 1086   1.757   6.756   2.918 -0.0658  0.1073  0.1004
  381TIP3    H2 1087   1.896   6.754   2.977 -0.2271 -0.8926  0.4395
  382TIP3   OH2 1088   1.084   1.193   1.047 -0.0321 -0.0014  1.1302
  382TIP3    H1 1089   1.179   1.187   1.051  0.1148  1.9940  1.1506
  382TIP3    H2 1090   1.067   1.264   0.986 -1.5398 -1.0522  0.3128
  383TIP3   OH2 1091   5.404   7.424   5.267  0.6531  0.5282  0.3220
  383TIP3    H1 1092   5.370   7.385   5.347  2.2439 -0.5155  0.5079
  383TIP3    H2 1093   5.489   7.383   5.254  0.2609  0.3678 -2.1293
  384TIP3   OH2 1094   2.289   6.525   1.201 -0.2472 -0.7286  0.4235
  384TIP3    H1 1095   2.204   6.563   1.223  0.5057  0.8131  0.7345
  384TIP3    H2 1096   2.342   6.599   1.173  2.0062 -1.1254  3.3556
  385TIP3   OH2 1097   7.467   4.180   6.473  0.2157 -0.6385 -0.2211
  385TIP3    H1 1098   7.377   4.196   6.503  0.2265 -3.3991  1.4717
  385TIP3    H2 1099   7.456   4.143   6.385 -0.3858 -1.9077  0.3733
  386TIP3   OH2 1100   3.750   2.724   2.558 -0.2307 -0.4077 -0.0571
  386TIP3    H1 1101   3.780   2.752   2.471 -0.6812 -0.9855 -0.4000
  386TIP3    H2 1102   3.707   2.801   2.594  0.4377  0.0087 -0.1202
  387TIP3   OH2 1103   3.328   1.504   3.563  0.2494 -0.1853 -0.4607
  387TIP3    H1 1104   3.303   1.528   3.473 -1.4636  2.2495  0.5973
  387TIP3    H2 1105   3.418   1.535   3.572 -0.1267  1.0766 -0.8567
  388TIP3   OH2 1106   5.584   4.187   6.444 -0.4239  0.9820  0.2185
  388TIP3    H1 1107   5.638   4.265   6.434 -0.3453  1.0383  1.0578
  388TIP3    H2 1108   5.514   4.198   6.379  1.3544  0.2046 -1.8849
  389TIP3   OH2 1109   5.088   1.984   3.461 -0.1832 -0.3755  0.5149
  389TIP3    H1 1110   5.058   2.071   3.489  1.6401  0.1531  0.8664
  389TIP3    H2 1111   5.018   1.925   3.490 -1.4240  0.9588  0.3049
  390TIP3   OH2 1112   2.448   2.536   3.420 -0.0661 -1.0740  0.0047
  390TIP3    H1 1113   2.510   2.467   3.443  1.3097  0.9600  2.6273
  390TIP3    H2 1114   2.496   2.617   3.435 -2.5046  0.5108 -0.5191
  391TIP3   OH2 1115   8.110   3.756   6.907  0.2041 -0.5407  0.3373
  391TIP3    H1 1116   8.080   3.811   6.834  0.5464 -0.2945  0.3781
  391TIP3    H2 1117   8.188   3.713   6.874  1.6005  1.2206  1.2647
  392TIP3   OH2 1118   3.598   2.335   2.812  0.2937 -0.4383 -0.2467
  392TIP3    H1 1119   3.587   2.388   2.890 -0.4192  0.1594 -0.7514
  392TIP3    H2 1120   3.632   2.395   2.746  2.0080 -1.1821 -0.1000
  393TIP3   OH2 1121   4.374   0.682   1.518 -0.6062  0.4462  0.0688
  393TIP3    H1 1122   4.446   0.664   1.579 -1.4962  0.8657  1.2731
  393TIP3    H2 1123   4.349   0.773   1.535 -0.5682  0.7128 -1.2533
  394TIP3   OH2 1124   3.266   5.910   6.383 -0.9607  0.2663 -0.1245
  394TIP3    H1 1125   3.305   5.896   6.296 -0.4028  0.6783  0.0639
  394TIP3    H2 1126   3.290   6.000   6.406 -0.1864 -0.2092  0.9348
  395TIP3   OH2 1127   3.868   1.464   3.175  0.4442  0.1309 -0.2550
  395TIP3    H1 1128   3.875   1.420   3.260 -1.4640  0.2407 -0.0178
  395TIP3    H2 1129   3.822   1.401   3.120  0.7513  0.4787 -0.9120
  396TIP3   OH2 1130   3.189   1.487   1.653 -0.3785  0.1489 -0.1546
  396TIP3    H1 1131   3.207   1.525   1.567  1.0041 -0.6454 -0.2361
  396TIP3    H2 1132   3.207   1.558   1.715 -1.6937  0.8209 -0.5307
  397TIP3   OH2 1133   2.478   0.917   3.838  0.4528  0.2181 -0.3502
  397TIP3    H1 1134   2.415   0.985   3.862  0.0090 -0.3918  0.2273
  397TIP3    H2 1135   2.484   0.924   3.742 -2.9501 -1.8152 -0.7929
  398TIP3   OH2 1136   2.108   1.564   3.741  0.1246 -0.3652  0.2014
  398TIP3    H1 1137   2.130   1.537   3.830 -1.5768 -0.6190  0.5548
  398TIP3    H2 1138   2.122   1.486   3.687 -0.5622 -0.7122  0.5260
  399TIP3   OH2 1139   3.399   7.331   3.168 -0.1583 -0.4170 -0.3156
  399TIP3    H1 1140   3.333   7.360   3.105 -2.0505  0.2523  1.9126
  399TIP3    H2 1141   3.396   7.235   3.163 -1.2106 -0.3885 -0.3299
  400TIP3   OH2 1142   6.170   2.102   3.701 -0.1085  0.6082  0.2761
  400TIP3    H1 1143   6.197   2.012   3.719  0.6673  0.6943 -0.3831
  400TIP3    H2 1144   6.078   2.105   3.724 -0.7263 -0.9699 -1.8541
  401TIP3   OH2 1145   2.800   0.272   1.702 -0.3271  0.5635  0.1579
  401TIP3    H1 1146   2.731   0.318   1.655  0.4292  1.0157 -0.5390
  401TIP3    H2 1147   2.798   0.183   1.668 -0.9309  0.4235  0.5515
  402TIP3   OH2 1148   4.088   3.648   2.632 -0.1531  0.3553 -0.0265
  402TIP3    H1 1149   4.178   3.621   2.653 -0.1365  1.2244  1.0378
  402TIP3    H2 1150   4.048   3.568   2.597  0.5171 -0.5271  1.1421
  403TIP3   OH2 1151   2.405   1.415   2.233  0.0749 -0.4402 -0.0358
  403TIP3    H1 1152   2.478   1.458   2.277  0.7978 -1.1749 -0.4979
  403TIP3    H2 1153   2.398   1.460   2.149 -1.9519  1.6413  1.1694
  404TIP3   OH2 1154   2.368   2.145   2.800  0.5099  0.1378 -0.4189
  404TIP3    H1 1155   2.419   2.091   2.740 -0.4940 -1.9956  0.6173
  404TIP3    H2 1156   2.293   2.090   2.825 -0.6141  2.0480  0.5498
  405TIP3   OH2 1157   2.041   7.717   3.796  0.0275  0.3213  0.6480
  405TIP3    H1 1158   2.112   7.667   3.755 -0.2078  0.9419 -0.5286
  405TIP3    H2 1159   2.055   7.807   3.767 -1.8316  0.2842 -0.4233
  406TIP3   OH2 1160   4.007   5.018   0.968  0.3922 -0.0145 -0.5178
  406TIP3    H1 1161   4.047   4.934   0.947  0.6037  0.0022 -0.1814
  406TIP3    H2 1162   4.080   5.080   0.967  1.1385 -0.6301  4.1819
  407TIP3   OH2 1163   5.679   4.492   1.232  0.7497 -0.3500 -0.1474
  407TIP3    H1 1164   5.744   4.432   1.269  1.5080 -0.6779 -1.9289
  407TIP3    H2 1165   5.671   4.465   1.141 -1.9585 -0.3427  0.0487
  408TIP3   OH2 1166   8.151   7.318   2.310 -0.1278 -0.1653  0.3553
  408TIP3    H1 1167   8.157   7.283   2.221 -2.0671 -2.3426  1.0208
  408TIP3    H2 1168   8.099   7.398   2.300  0.8505  0.3557 -0.6533
  409TIP3   OH2 1169   5.920   0.481   1.495 -0.1528  0.3631  0.2160
  409TIP3    H1 1170   5.860   0.412   1.467 -0.0574  0.6310 -0.6622
  409TIP3    H2 1171   6.004   0.437   1.507  0.6260  0.7911 -3.1245
  410TIP3   OH2 1172   3.005   6.957   0.997 -0.1885  0.2660 -0.0160
  410TIP3    H1 1173   2.993   6.902   1.075 -0.6784  1.7539  0.9936
  410TIP3    H2 1174   3.095   6.988   1.004  0.5883 -1.5895 -1.3964
  411TIP3   OH2 1175   5.203   1.787   0.775 -0.2245 -0.3281  0.3434
  411TIP3    H1 1176   5.299   1.791   0.773 -0.2422 -0.0976 -0.0670
  411TIP3    H2 1177   5.180   1.812   0.865  0.1118 -0.6363  0.5172
  412TIP3   OH2 1178   0.892   6.363   1.856  0.0117 -0.0840 -0.0227
  412TIP3    H1 1179   0.924   6.302   1.789  1.1547 -0.2645  0.6657
  412TIP3    H2 1180   0.797   6.360   1.848  0.1005 -1.0587 -0.7955
  413TIP3   OH2 1181   3.871   1.986   3.468  0.3175 -0.0592 -0.5173
  413TIP3    H1 1182   3.872   1.916   3.403  0.1444 -1.0852  0.5861
  413TIP3    H2 1183   3.947   1.969   3.523 -0.7318 -0.3968  0.8403
  414TIP3   OH2 1184   2.044   7.111   2.318 -0.0752 -0.4041  0.5128
  414TIP3    H1 1185   2.007   7.187   2.364  0.3365  0.2554 -0.2315
  414TIP3    H2 1186   2.083   7.058   2.387  0.7305  0.6878  0.9035
  415TIP3   OH2 1187   1.744   0.144   0.301  0.3756 -0.2256 -0.0446
  415TIP3    H1 1188   1.821   0.137   0.245  0.0260  1.5001 -0.7469
  415TIP3    H2 1189   1.761   0.219   0.357  0.1175 -1.1187  1.2663
  416TIP3   OH2 1190   2.384   3.401   0.101  0.2576  0.2815  0.1445
  416TIP3    H1 1191   2.338   3.359   0.028 -1.7761  0.0667  1.4985
  416TIP3    H2 1192   2.354   3.353   0.179  1.1030  1.5584  1.2757
  417TIP3   OH2 1193   3.287   3.481   0.943  0.2636 -0.3050  0.0330
  417TIP3    H1 1194   3.288   3.504   0.850  1.7972  0.3330  0.1833
  417TIP3    H2 1195   3.302   3.564   0.988  0.4785 -0.7564  0.8041
  418TIP3   OH2 1196   3.478   0.594   3.607  0.2086 -0.2645 -0.2645
  418TIP3    H1 1197   3.462   0.527   3.541  0.8807  1.0464 -1.8065
  418TIP3    H2 1198   3.435   0.672   3.572  0.7615  0.5030  0.7412
  419TIP3   OH2 1199   2.696   0.859   0.479 -0.0523 -0.2295 -0.1890
  419TIP3    H1 1200   2.743   0.797   0.534  0.5269  2.5611  2.6262
  419TIP3    H2 1201   2.763   0.899   0.425  0.3709  1.4211  1.5127
  420TIP3   OH2 1202   4.538   2.150   3.189  0.0502 -0.0258  0.1180
  420TIP3    H1 1203   4.525   2.235   3.232  0.4256 -0.8460  1.9239
  420TIP3    H2 1204   4.580   2.096   3.256  1.2656 -1.1642 -1.5389
  421TIP3   OH2 1205   5.164   4.352   2.016  0.1213 -0.5266  0.5677
  421TIP3    H1 1206   5.150   4.312   2.102 -1.3826  0.1978  0.6643
  421TIP3    H2 1207   5.123   4.438   2.023 -0.1332 -0.5281 -0.9397
  422TIP3   OH2 1208   3.334   2.296   2.411 -0.4424 -0.5178  0.0024
  422TIP3    H1 1209   3.284   2.218   2.436 -0.9401 -1.2066 -2.9688
  422TIP3    H2 1210   3.404   2.262   2.355  0.2806  1.0094 -0.0385
  423TIP3   OH2 1211   3.417   0.253   0.101  0.0725 -0.3093  0.3514
  423TIP3    H1 1212   3.476   0.203   0.044  0.2865  1.2588 -0.8464
  423TIP3    H2 1213   3.343   0.274   0.045 -0.3824  0.0253  1.0757
  424TIP3   OH2 1214   5.236   1.343   1.641 -0.0146  0.5401 -0.8279
  424TIP3    H1 1215   5.245   1.283   1.716  0.3048  1.6714  0.0501
  424TIP3    H2 1216   5.246   1.430   1.679  2.9678  1.0461 -2.6297
  425TIP3   OH2 1217   4.775   0.571   0.190  0.3300  0.1910  0.2850
  425TIP3    H1 1218   4.740   0.631   0.125  0.0596 -1.7515 -1.4073
  425TIP3    H2 1219   4.854   0.534   0.150 -1.0731 -2.7228  0.0599
  426TIP3   OH2 1220   5.690   3.309   4.656 -0.2958  0.0380  0.1317
  426TIP3    H1 1221   5.770   3.260   4.674 -1.1066 -1.4210 -0.2112
  426TIP3    H2 1222   5.648   3.319   4.742 -0.8970 -1.2330 -0.0005
  427TIP3   OH2 1223   4.624   0.496   1.106  0.2880  0.7727  0.5664
  427TIP3    H1 1224   4.671   0.427   1.154  2.1731  1.0715 -0.7944
  427TIP3    H2 1225   4.538   0.458   1.087  1.0135 -0.8890  0.5517
  428TIP3   OH2 1226   1.890   7.803   1.608 -0.2567  0.2468  0.5003
  428TIP3    H1 1227   1.983   7.824   1.612 -0.4566  1.1656  0.4975
  428TIP3    H2 1228   1.875   7.747   1.684  0.3874 -0.2702  0.2518
  429TIP3   OH2 1229   3.468   1.474   1.436 -0.1573  0.3149 -0.0086
  429TIP3    H1 1230   3.501   1.442   1.520 -0.8571 -0.5056 -0.0403
  429TIP3    H2 1231   3.404   1.541   1.459 -1.8052 -1.2787  0.1910
  430TIP3   OH2 1232   2.289   0.539   2.720  0.3726 -0.1175  0.2321
  430TIP3    H1 1233   2.298   0.470   2.786 -1.4361 -1.0225 -0.4453
  430TIP3    H2 1234   2.196   0.560   2.718  0.6394  1.0946 -0.8497
  431TIP3   OH2 1235   4.754   1.271   0.224 -0.6535  0.7266 -0.3159
  431TIP3    H1 1236   4.722   1.198   0.276  1.0897  0.6333  0.6848
  431TIP3    H2 1237   4.835   1.298   0.269 -0.2380  1.9836 -1.7885
  432TIP3   OH2 1238   3.814   0.559   0.566 -0.0534 -0.0115  0.1117
  432TIP3    H1 1239   3.781   0.509   0.491  0.4397 -0.7430  0.3784
  432TIP3    H2 1240   3.860   0.633   0.526  0.1641 -0.3691 -0.3058
  433TIP3   OH2 1241   5.799   2.960   1.504  0.4840 -0.5972  0.7026
  433TIP3    H1 1242   5.735   2.895   1.534  0.1235 -1.0410 -0.9906
  433TIP3    H2 1243   5.879   2.910   1.489  0.5842 -0.4204  0.6483
  434TIP3   OH2 1244   1.251   2.708   1.400  0.7370 -0.0710  0.0241
  434TIP3    H1 1245   1.301   2.728   1.321  1.9046  0.9624  0.9976
  434TIP3    H2 1246   1.175   2.659   1.369  0.1527  2.0160 -1.9644
  435TIP3   OH2 1247   2.747   6.496   2.325 -0.7698 -0.1721  0.3507
  435TIP3    H1 1248   2.775   6.515   2.236 -1.2728 -0.5850  0.1000
  435TIP3    H2 1249   2.749   6.581   2.370  2.3639 -0.4286  0.7808
  436TIP3   OH2 1250   7.091   3.619   4.874 -0.4821 -0.1187  0.3765
  436TIP3    H1 1251   7.034   3.695   4.863 -0.2416  0.0862  0.5285
  436TIP3    H2 1252   7.037   3.554   4.920 -1.3038 -0.7587 -1.4475
  437TIP3   OH2 1253   3.872   0.800   1.091  0.2393 -0.2830  0.7024
  437TIP3    H1 1254   3.837   0.796   1.002 -0.0405  0.9928  0.7470
  437TIP3    H2 1255   3.798   0.831   1.144  0.9301  0.7121  1.0859
  438TIP3   OH2 1256   0.438   7.853   0.450  0.5948  0.0652 -0.1366
  438TIP3    H1 1257   0.488   7.773   0.467 -0.2996 -0.5285 -0.2914
  438TIP3    H2 1258   0.481   7.892   0.374  0.8466 -0.4286 -0.2491
  439TIP3   OH2 1259   2.696   0.711   1.991 -0.2196 -0.2336 -0.3497
  439TIP3    H1 1260   2.692   0.766   1.912 -3.0329 -2.7190 -2.0562
  439TIP3    H2 1261   2.785   0.676   1.991 -0.0255  0.1575 -2.1940
  440TIP3   OH2 1262   1.287   7.028   3.278 -0.0380  0.0547 -0.5723
  440TIP3    H1 1263   1.273   6.937   3.304 -1.9886  1.2357  2.7883
  440TIP3    H2 1264   1.305   7.023   3.184 -0.2373 -3.7604 -0.5013
  441TIP3   OH2 1265   1.286   1.697   2.723  0.3923  0.1050  0.0875
  441TIP3    H1 1266   1.293   1.642   2.645 -0.5919  0.1252 -0.0183
  441TIP3    H2 1267   1.376   1.729   2.738  0.6842 -0.3254 -0.7168
  442TIP3   OH2 1268   1.646   2.564   1.073  0.1002  0.1753 -0.0919
  442TIP3    H1 1269   1.699   2.485   1.084  1.3132  0.7840 -1.4314
  442TIP3    H2 1270   1.568   2.534   1.027  1.3065  0.0121 -2.1075
  443TIP3   OH2 1271   3.119   2.467   1.761  0.2939 -0.4126 -0.3813
  443TIP3    H1 1272   3.067   2.398   1.804  1.6915 -1.6967 -0.7193
  443TIP3    H2 1273   3.196   2.477   1.818  0.3190  0.5446 -0.5870
  444TIP3   OH2 1274   3.720   0.993   2.706  0.1277  0.1313  0.0386
  444TIP3    H1 1275   3.628   1.012   2.726  0.3058 -1.2506  2.4621
  444TIP3    H2 1276   3.717   0.931   2.633 -0.9749 -1.2773  1.2341
  445TIP3   OH2 1277   2.889   1.726   2.450  0.2847 -1.0036  0.3668
  445TIP3    H1 1278   2.970   1.722   2.500  0.2568 -1.2143  0.3963
  445TIP3    H2 1279   2.918   1.746   2.360  0.4486 -1.9757  0.1901
  446TIP3   OH2 1280   7.147   0.612   2.902 -0.2706  0.1704 -0.1100
  446TIP3    H1 1281   7.233   0.653   2.892  0.2741 -1.0115 -0.3207
  446TIP3    H2 1282   7.104   0.663   2.970  0.2336  1.3654 -0.6684
  447TIP3   OH2 1283   2.939   2.809   1.048 -0.3640  0.8312  0.3240
  447TIP3    H1 1284   2.889   2.782   0.971 -1.5534 -0.5966  1.5661
  447TIP3    H2 1285   3.030   2.812   1.017 -0.7498 -0.2859 -0.9969
  448TIP3   OH2 1286   4.872   2.360   1.093  0.3496 -0.6696  0.1417
  448TIP3    H1 1287   4.943   2.297   1.095  1.9714  0.9187 -3.0598
  448TIP3    H2 1288   4.793   2.306   1.083  1.3036 -2.3431  1.4300
  449TIP3   OH2 1289   2.085   4.714   2.133 -0.5788  0.0360 -0.4615
  449TIP3    H1 1290   2.042   4.799   2.118  0.9946  0.5454 -2.2416
  449TIP3    H2 1291   2.095   4.676   2.046 -2.2869 -2.5358  0.3935
  450TIP3   OH2 1292   3.436   4.042   1.512  0.2380  0.1318  0.1135
  450TIP3    H1 1293   3.343   4.019   1.506 -0.1583  1.3310  1.3171
  450TIP3    H2 1294   3.465   4.004   1.595  0.7828 -0.1216 -0.1955
  451TIP3   OH2 1295   4.591   6.294   0.954  0.0127  0.0773  0.2099
  451TIP3    H1 1296   4.569   6.352   1.027  1.1575 -0.2845  0.8622
  451TIP3    H2 1297   4.541   6.214   0.970 -0.2128  0.2284  0.2591
  452TIP3   OH2 1298   4.847   2.246   0.781  0.1837  0.1152  0.1124
  452TIP3    H1 1299   4.770   2.206   0.740 -0.8535  1.3651  0.8193
  452TIP3    H2 1300   4.819   2.334   0.805  0.4266 -0.8345  4.3362
  453TIP3   OH2 1301   4.763   1.498   3.205  0.1298  0.7030  0.0900
  453TIP3    H1 1302   4.722   1.578   3.235  0.2430  1.2255 -1.1164
  453TIP3    H2 1303   4.848   1.526   3.170  0.4653 -0.0284  0.3078
  454TIP3   OH2 1304   3.007   2.413   1.343  0.1728  0.0106  0.2170
  454TIP3    H1 1305   2.957   2.435   1.422 -0.5671 -0.7311 -0.0464
  454TIP3    H2 1306   3.092   2.384   1.377  0.0839  0.3121  0.7096
  455TIP3   OH2 1307   4.504   0.466   2.782 -0.7024 -0.2004  0.0045
  455TIP3    H1 1308   4.420   0.442   2.743 -1.4368  0.1667  1.3264
  455TIP3    H2 1309   4.506   0.561   2.778 -0.8219 -0.1546  0.9246
  456TIP3   OH2 1310   3.397   0.519   1.294 -0.3090 -0.2039 -0.1799
  456TIP3    H1 1311   3.414   0.545   1.203  2.6264  0.0715  0.4185
  456TIP3    H2 1312   3.386   0.424   1.291 -0.4664 -0.1650 -0.8549
  457TIP3   OH2 1313   4.807   0.691   1.393  0.5894  0.1189 -0.5111
  457TIP3    H1 1314   4.786   0.784   1.392  1.1961  0.2532 -1.0457
  457TIP3    H2 1315   4.815   0.669   1.486 -1.0055  0.2686 -0.3391
  458TIP3   OH2 1316   1.834   0.918   0.901 -0.2250 -0.1701 -0.1709
  458TIP3    H1 1317   1.812   0.946   0.812  1.2289  1.2951 -0.0764
  458TIP3    H2 1318   1.877   0.833   0.890 -1.5570 -0.7824 -0.7231
  459TIP3   OH2 1319   4.163   0.423   3.463  0.1866 -0.0188 -0.4686
  459TIP3    H1 1320   4.103   0.488   3.499  0.1249  0.0597 -0.7114
  459TIP3    H2 1321   4.250   0.459   3.479  0.2346 -0.8519  1.2847
  460TIP3   OH2 1322   4.482   5.024   5.554 -0.3491  0.2938 -0.1334
  460TIP3    H1 1323   4.492   4.936   5.592  2.3802 -0.0810 -1.6026
  460TIP3    H2 1324   4.413   5.065   5.606  0.1882 -1.7805  2.3030
  461TIP3   OH2 1325   2.711   3.798   0.974  0.0567 -0.4574 -0.2205
  461TIP3    H1 1326   2.636   3.849   1.004 -0.8683 -1.3345 -0.9992
  461TIP3    H2 1327   2.710   3.719   1.029 -0.4510 -1.1258 -1.1654
  462TIP3   OH2 1328   2.089   1.978   0.805 -0.2434 -0.1056  0.4709
  462TIP3    H1 1329   2.115   1.894   0.768  0.0965  0.1175  0.1989
  462TIP3    H2 1330   2.028   2.015   0.741 -0.7379 -0.3406  0.8017
  463TIP3   OH2 1331   0.858   7.333   1.827 -0.1968  0.2584 -0.1792
  463TIP3    H1 1332   0.886   7.318   1.918  0.3103  0.5559 -0.2803
  463TIP3    H2 1333   0.877   7.426   1.812  0.6847 -0.0295 -0.9157
  464TIP3   OH2 1334   4.539   0.375   3.853  0.4529 -0.4393 -0.3427
  464TIP3    H1 1335   4.470   0.333   3.802  0.2759 -0.1096 -0.3734
  464TIP3    H2 1336   4.498   0.394   3.938  0.7509 -1.0054 -0.0704
  465TIP3   OH2 1337   5.140   2.297   0.766  0.7732 -0.4013  0.7521
  465TIP3    H1 1338   5.057   2.251   0.774  0.2947  0.3750  0.3161
  465TIP3    H2 1339   5.183   2.283   0.850 -0.1238 -0.1686  1.2557
  466TIP3   OH2 1340   4.148   2.976   1.266  0.0144 -0.3791 -0.1783
  466TIP3    H1 1341   4.131   3.050   1.208  0.1822 -1.1106 -1.1746
  466TIP3    H2 1342   4.140   3.012   1.355 -0.2990  0.7316 -0.6547
  467TIP3   OH2 1343   3.557   2.116   1.499  0.4456 -0.1307 -0.2770
  467TIP3    H1 1344   3.504   2.037   1.485 -0.4427  0.4160 -0.0240
  467TIP3    H2 1345   3.504   2.170   1.557  0.4647  1.2627 -1.5448
  468TIP3   OH2 1346   6.282   3.321   2.311  0.6593  0.4425  0.1224
  468TIP3    H1 1347   6.225   3.393   2.339 -2.1708 -1.6542  0.0256
  468TIP3    H2 1348   6.317   3.285   2.392  3.1905  2.6959  0.1105
  469TIP3   OH2 1349   4.167   2.446   3.750 -0.1839 -0.7898 -0.1424
  469TIP3    H1 1350   4.111   2.521   3.769  1.3069 -0.1217  1.7403
  469TIP3    H2 1351   4.107   2.380   3.716 -2.0793  0.0113  1.5173
  470TIP3   OH2 1352   3.259   2.093   4.664 -0.0978  0.3375 -0.2115
  470TIP3    H1 1353   3.256   2.037   4.742 -0.3533  1.7057  0.7891
  470TIP3    H2 1354   3.227   2.178   4.695  0.3925  1.0687 -1.6727
  471TIP3   OH2 1355   4.349   1.847   3.745  0.1205  0.6699  0.2881
  471TIP3    H1 1356   4.344   1.819   3.836 -0.0141  1.8489  0.6540
  471TIP3    H2 1357   4.416   1.792   3.706 -1.2657 -1.2832  0.5665
  472TIP3   OH2 1358   5.072   0.729   2.063 -0.0345  0.1753 -0.7997
  472TIP3    H1 1359   5.157   0.766   2.042  0.8431 -0.0274  2.1856
  472TIP3    H2 1360   5.084   0.634   2.054 -0.0221  0.1629 -0.6552
  473TIP3   OH2 1361   6.152   0.185   1.161  0.2686  0.2360 -0.3826
  473TIP3    H1 1362   6.204   0.107   1.148  1.0988  0.6322  0.4955
  473TIP3    H2 1363   6.206   0.257   1.128  0.7043  0.7622  1.4037
  474TIP3   OH2 1364   4.441   3.367   1.137 -0.5268  0.0093  0.0751
  474TIP3    H1 1365   4.497   3.309   1.085 -0.0388  0.1072  0.4836
  474TIP3    H2 1366   4.420   3.316   1.215 -0.9830 -0.0131 -0.0590
  475TIP3   OH2 1367   6.413   2.171   3.282 -0.4334 -0.7546  0.1338
  475TIP3    H1 1368   6.505   2.178   3.308 -0.3183 -1.6930  0.0209
  475TIP3    H2 1369   6.367   2.230   3.341  0.1030 -1.1694  0.9804
  476TIP3   OH2 1370   0.229   4.277   6.080 -0.9063 -0.0584 -0.5233
  476TIP3    H1 1371   0.159   4.301   6.020 -1.1392  0.5615 -0.0198
  476TIP3    H2 1372   0.191   4.211   6.138 -1.6874  1.6629  0.9700
  477TIP3   OH2 1373   1.858   7.367   1.180 -0.0318  0.2919  0.0949
  477TIP3    H1 1374   1.827   7.452   1.210 -0.9157  0.0898 -0.2110
  477TIP3    H2 1375   1.836   7.365   1.087 -0.0954 -0.3047  0.1177
  478TIP3   OH2 1376   5.669   2.287   1.935 -0.2422  0.3353  0.5187
  478TIP3    H1 1377   5.598   2.321   1.990  0.3521  4.3472 -1.0400
  478TIP3    H2 1378   5.749   2.315   1.980  0.2764  0.1115 -0.2619
  479TIP3   OH2 1379   4.974   0.071   1.825  0.9220  0.4934 -0.5020
  479TIP3    H1 1380   5.067   0.081   1.804  1.0206 -0.7796 -0.6959
  479TIP3    H2 1381   4.947  -0.007   1.778  0.9925 -2.1077  3.4990
  480TIP3   OH2 1382   7.251   0.838   2.591 -0.5761 -0.0569  0.2912
  480TIP3    H1 1383   7.330   0.788   2.570 -0.8378 -0.6697  0.7376
  480TIP3    H2 1384   7.227   0.881   2.509 -0.6941 -1.1610 -0.2555
  481TIP3   OH2 1385   3.524   2.919   2.605 -0.2894  0.0006  0.2824
  481TIP3    H1 1386   3.463   2.965   2.547 -1.5236 -0.3421  1.2898
  481TIP3    H2 1387   3.468   2.870   2.665  0.9952 -1.8790 -0.0101
  482TIP3   OH2 1388   3.898   2.972   3.147 -0.4204 -0.5140 -0.6294
  482TIP3    H1 1389   3.916   3.035   3.077  0.7662  1.8888  1.7610
  482TIP3    H2 1390   3.984   2.942   3.175 -0.8362 -0.4896  0.6920
  483TIP3   OH2 1391   3.297   0.285   0.861  0.4140 -0.5050 -0.2270
  483TIP3    H1 1392   3.319   0.362   0.809 -0.8246  0.2768  0.3679
  483TIP3    H2 1393   3.375   0.267   0.913  0.2075  1.2642  0.7182
  484TIP3   OH2 1394   4.225   3.318   2.057  0.2338  0.3598  0.2487
  484TIP3    H1 1395   4.247   3.350   2.145 -1.6119  0.4084  0.7026
  484TIP3    H2 1396   4.130   3.327   2.051  0.3219  0.1806 -1.6925
  485TIP3   OH2 1397   4.225   2.327   0.819 -0.5092  0.3149  0.2305
  485TIP3    H1 1398   4.280   2.305   0.895 -0.0818  2.0883  0.4446
  485TIP3    H2 1399   4.272   2.290   0.745 -1.2926 -2.0718  0.8801
  486TIP3   OH2 1400   7.741   4.288   1.216 -0.0016  0.0458  0.5752
  486TIP3    H1 1401   7.722   4.223   1.283 -1.2014  0.8418  1.0178
  486TIP3    H2 1402   7.837   4.295   1.217  0.3037 -3.1241 -0.8731
  487TIP3   OH2 1403   5.574   2.321   0.768  0.5788 -0.4524  0.2199
  487TIP3    H1 1404   5.507   2.254   0.780  1.7971 -1.4601  1.5540
  487TIP3    H2 1405   5.527   2.404   0.776 -0.8739 -1.1319 -1.0483
  488TIP3   OH2 1406   7.498   4.134   0.273  0.2410 -0.2590  0.0747
  488TIP3    H1 1407   7.565   4.120   0.206 -0.8190  0.8049 -1.2429
  488TIP3    H2 1408   7.431   4.188   0.229  0.1243  1.5375  2.3682
  489TIP3   OH2 1409   5.212   2.665   2.165  0.5955 -0.3244 -0.5054
  489TIP3    H1 1410   5.292   2.663   2.218  0.6507 -0.6478 -0.6009
  489TIP3    H2 1411   5.148   2.710   2.220  0.4366 -1.3275  0.1398
  490TIP3   OH2 1412   3.139   3.944   2.703 -0.1139  0.1043  0.5819
  490TIP3    H1 1413   3.146   3.873   2.767 -1.6455  0.6629  1.3825
  490TIP3    H2 1414   3.130   4.023   2.755  1.9393  0.9725 -0.3109
  491TIP3   OH2 1415   3.699   0.877   0.580  0.1101  0.1368  0.3238
  491TIP3    H1 1416   3.750   0.845   0.505 -0.4420 -1.0185  0.4260
  491TIP3    H2 1417   3.693   0.971   0.566  0.7659  0.0454 -0.6299
  492TIP3   OH2 1418   3.932   3.625   3.038  0.0577  0.2725 -0.1617
  492TIP3    H1 1419   3.885   3.543   3.053  1.1469 -0.4093 -0.4106
  492TIP3    H2 1420   4.014   3.598   2.995 -0.4912  1.6805 -2.1101
  493TIP3   OH2 1421   0.183   5.799   6.439  0.1479 -0.0323 -0.5882
  493TIP3    H1 1422   0.172   5.870   6.376  0.1200 -1.3019 -2.0251
  493TIP3    H2 1423   0.093   5.770   6.458  0.2384 -0.7387 -1.2243
  494TIP3   OH2 1424   4.387   0.992   0.644 -0.5208 -0.0039 -0.2506
  494TIP3    H1 1425   4.483   0.988   0.647 -0.5268  0.0323  0.0817
  494TIP3    H2 1426   4.358   0.912   0.687 -0.6376  0.3309  0.3007
  495TIP3   OH2 1427   6.229   2.942   0.889 -0.8924 -0.5719 -0.0994
  495TIP3    H1 1428   6.293   2.878   0.856 -1.5021 -1.1229 -0.2250
  495TIP3    H2 1429   6.278   2.992   0.954  0.1071  0.0266 -1.2872
  496TIP3   OH2 1430   5.795   0.960   1.358 -0.2542  0.4043 -0.6435
  496TIP3    H1 1431   5.763   0.971   1.269  0.1241 -0.6692 -0.9259
  496TIP3    H2 1432   5.755   0.878   1.388 -0.0949  0.5709  0.0468
  497TIP3   OH2 1433   5.162   3.954   2.351 -0.0571  0.0652 -0.0096
  497TIP3    H1 1434   5.247   3.913   2.340 -0.7378 -1.6111  0.9554
  497TIP3    H2 1435   5.171   4.009   2.428  0.8250  1.7256 -1.2534
  498TIP3   OH2 1436   4.376   4.337   0.667 -0.8846  0.3138  0.0983
  498TIP3    H1 1437   4.336   4.421   0.647 -0.2583  0.6075  0.0578
  498TIP3    H2 1438   4.303   4.279   0.688 -1.4923  0.3057 -1.9240
  499TIP3   OH2 1439   4.729   4.221   2.159  0.1221 -0.4830 -0.2179
  499TIP3    H1 1440   4.787   4.153   2.192  1.0950 -0.3256 -1.5610
  499TIP3    H2 1441   4.643   4.178   2.151  0.6897 -1.5200 -0.9047
  500TIP3   OH2 1442   3.148   0.376   1.101 -0.1552  0.4640  0.5526
  500TIP3    H1 1443   3.184   0.363   1.013 -1.2424  1.4681 -0.0620
  500TIP3    H2 1444   3.071   0.319   1.103 -0.7391  1.2453  0.4682
  501TIP3   OH2 1445   4.668   0.939   0.639  0.1504  0.4496 -0.0726
  501TIP3    H1 1446   4.740   0.998   0.664  0.4018  0.4280 -0.7450
  501TIP3    H2 1447   4.692   0.855   0.677 -1.5513  1.3817  3.2935
  502TIP3   OH2 1448   2.934   0.988   1.905  0.7008 -0.4649  0.5695
  502TIP3    H1 1449   2.877   1.056   1.941  2.1225  0.5192  1.0103
  502TIP3    H2 1450   2.899   0.972   1.817 -0.4792 -0.1492  0.9661
  503TIP3   OH2 1451   5.232   1.689   1.375  0.0563  0.0202  0.0688
  503TIP3    H1 1452   5.269   1.663   1.459  0.1337  1.0508  0.3624
  503TIP3    H2 1453   5.140   1.709   1.394 -0.1741 -0.7122 -0.2851
  504TIP3   OH2 1454   6.323   1.073   1.139  0.2039  0.2482  0.3996
  504TIP3    H1 1455   6.367   1.137   1.193 -0.3316 -2.0073  3.6422
  504TIP3    H2 1456   6.254   1.122   1.093  0.2663  2.0933  2.2439
  505TIP3   OH2 1457   5.537   2.289   1.090  0.2570  0.4618 -0.0537
  505TIP3    H1 1458   5.509   2.380   1.096 -2.2932 -0.3007  0.2877
  505TIP3    H2 1459   5.502   2.259   1.006 -0.7704 -0.7736  0.7977
  506TIP3   OH2 1460   4.364   1.272   2.072  0.0519  0.3730  0.4768
  506TIP3    H1 1461   4.331   1.325   2.145 -0.2187 -0.1678  0.7490
  506TIP3    H2 1462   4.327   1.314   1.994  0.6416  1.1722  0.6189
  507TIP3   OH2 1463   1.152   6.056   5.005  0.3098 -0.3530  0.2663
  507TIP3    H1 1464   1.203   5.991   5.053  0.5998  0.8386  1.6023
  507TIP3    H2 1465   1.214   6.126   4.984 -0.0272 -0.4336 -1.0412
  508TIP3   OH2 1466   6.341   2.388   2.127  1.1617 -0.0676  0.1852
  508TIP3    H1 1467   6.389   2.338   2.061  2.0421  1.2364 -0.1836
  508TIP3    H2 1468   6.274   2.435   2.077  1.0887  0.0350  0.3776
  509TIP3   OH2 1469   3.737   2.236   2.455  0.2140  0.4673  0.1655
  509TIP3    H1 1470   3.828   2.213   2.471  0.1575  0.9953  1.2972
  509TIP3    H2 1471   3.732   2.330   2.472 -0.6047  0.3796  0.4505
  510TIP3   OH2 1472   3.613   0.893   1.621  0.0199  0.2614 -0.2226
  510TIP3    H1 1473   3.560   0.827   1.576  2.0608 -1.0586 -0.7428
  510TIP3    H2 1474   3.571   0.904   1.706 -1.4252 -0.3254 -0.8446
  511TIP3   OH2 1475   5.056   7.919   1.478  0.5275 -0.0038  0.0260
  511TIP3    H1 1476   5.042   7.826   1.461 -0.8858  0.0249  0.9683
  511TIP3    H2 1477   4.971   7.960   1.462  0.7854  0.9261  0.9499
  512TIP3   OH2 1478   4.004   3.790   1.410  0.2481  0.5632 -0.1191
  512TIP3    H1 1479   3.960   3.805   1.327 -0.1623 -0.0091 -0.0062
  512TIP3    H2 1480   4.067   3.721   1.391  0.6302  0.9071 -0.1166
  513TIP3   OH2 1481   6.416   5.516   6.599 -0.2523  0.4108 -0.5031
  513TIP3    H1 1482   6.495   5.536   6.548 -0.1297 -1.9606 -1.3020
  513TIP3    H2 1483   6.372   5.447   6.550 -0.4207 -1.5446  2.2623
  514TIP3   OH2 1484   5.506   1.065   1.322  0.2343  0.2959 -0.0165
  514TIP3    H1 1485   5.560   1.061   1.401 -0.7168  2.0076  0.7634
  514TIP3    H2 1486   5.450   0.987   1.327  1.0617 -0.2788  0.3328
  515TIP3   OH2 1487   3.500   1.340   1.075  0.8036 -0.0978 -0.2690
  515TIP3    H1 1488   3.424   1.281   1.067  0.5856  0.0847  0.3553
  515TIP3    H2 1489   3.461   1.428   1.075  0.9793 -0.0187  0.4407
  516TIP3   OH2 1490   5.440   0.177   0.732  0.1843 -0.0157  0.7498
  516TIP3    H1 1491   5.481   0.246   0.680 -1.1367  0.9630  0.9781
  516TIP3    H2 1492   5.496   0.101   0.719  0.3486  0.4401 -1.4315
  517TIP3   OH2 1493   1.588   1.783   2.769 -0.2212 -0.4163 -0.9000
  517TIP3    H1 1494   1.631   1.760   2.852 -1.8116 -3.0221 -0.7521
  517TIP3    H2 1495   1.617   1.872   2.751  1.3326 -0.3534  1.7050
  518TIP3   OH2 1496   5.356   1.641   1.644 -0.2774 -0.3212 -0.2615
  518TIP3    H1 1497   5.440   1.609   1.677  0.9100 -0.6709 -3.4546
  518TIP3    H2 1498   5.335   1.716   1.701  1.4149 -1.1346  1.5050
  519TIP3   OH2 1499   4.014   2.349   1.894 -0.0933  0.1868 -0.4022
  519TIP3    H1 1500   4.058   2.407   1.833 -0.8561  0.2402 -0.9114
  519TIP3    H2 1501   4.042   2.261   1.868  0.4087  0.2707 -0.1556
  520TIP3   OH2 1502   4.177   1.443   1.211  0.4780 -0.0818  0.0469
  520TIP3    H1 1503   4.233   1.508   1.254  1.4220 -1.0275  0.2751
  520TIP3    H2 1504   4.176   1.469   1.119 -0.8338  1.4484  0.4846
  521TIP3   OH2 1505   3.831   2.232   2.114  0.3837 -0.0285 -0.9112
  521TIP3    H1 1506   3.916   2.204   2.149 -0.8639 -0.2498  2.0597
  521TIP3    H2 1507   3.822   2.323   2.143 -0.5908 -0.1422 -0.8539
  522TIP3   OH2 1508   6.646   1.702   2.962 -0.3127 -0.2017 -0.3645
  522TIP3    H1 1509   6.564   1.680   3.007 -0.4229 -1.2084 -1.0239
  522TIP3    H2 1510   6.633   1.792   2.932 -1.3600 -0.4796 -0.8087
  523TIP3   OH2 1511   4.084   1.439   0.912 -0.6159 -0.2474  0.4168
  523TIP3    H1 1512   4.073   1.350   0.880 -0.0552 -0.1547 -0.0517
  523TIP3    H2 1513   3.996   1.476   0.914 -1.0009 -1.2087  1.7888
  524TIP3   OH2 1514   6.186   3.556   0.626  0.0948  0.7406 -0.0657
  524TIP3    H1 1515   6.165   3.624   0.562  0.7442  1.8159  0.8312
  524TIP3    H2 1516   6.101   3.531   0.663 -0.2743  0.1266 -1.3257
  525TIP3   OH2 1517   5.518   0.909   1.593  0.6481 -0.4172 -0.2429
  525TIP3    H1 1518   5.520   0.817   1.618  2.2778 -0.3724 -0.1236
  525TIP3    H2 1519   5.606   0.941   1.613  0.2156  1.0702 -0.6361
  526TIP3   OH2 1520   5.459   0.174   1.025  0.1375  0.1271  0.6316
  526TIP3    H1 1521   5.538   0.128   1.052 -0.4035 -0.2886  1.5431
  526TIP3    H2 1522   5.471   0.191   0.932 -0.1996 -3.0179 -0.0492
  527TIP3   OH2 1523   3.949   1.273   1.846  0.0893  0.3424  0.3548
  527TIP3    H1 1524   3.960   1.347   1.787 -0.5617  0.0513 -0.1375
  527TIP3    H2 1525   3.873   1.226   1.811  0.6160 -0.6605  0.5495
  528TIP3   OH2 1526   3.544   3.738   3.138 -0.1817 -0.7976  0.2228
  528TIP3    H1 1527   3.473   3.681   3.167  2.1260 -3.0753  1.5659
  528TIP3    H2 1528   3.536   3.816   3.193 -1.3130 -1.2659  0.7262
  529TIP3   OH2 1529   5.186   0.577   0.903 -0.1427 -0.1225  0.3106
  529TIP3    H1 1530   5.167   0.644   0.969 -0.8026  1.2891 -1.2659
  529TIP3    H2 1531   5.251   0.618   0.845  1.8730 -2.0392  1.1315
  530TIP3   OH2 1532   3.605   3.761   0.479  0.5656 -0.6452  0.4909
  530TIP3    H1 1533   3.526   3.726   0.520  1.6351 -1.5789  1.7857
  530TIP3    H2 1534   3.671   3.692   0.491  1.5905  0.1433 -0.5323
  531TIP3   OH2 1535   3.965   2.718   0.701 -0.3044  0.1875  0.6128
  531TIP3    H1 1536   3.979   2.643   0.758  1.3333  1.3639  1.8132
  531TIP3    H2 1537   4.000   2.792   0.750 -1.6695  1.7103 -0.6484
  532TIP3   OH2 1538   5.517   4.089   2.030  0.1333 -0.0164  0.2963
  532TIP3    H1 1539   5.586   4.022   2.028  0.9194  0.8091 -0.7052
  532TIP3    H2 1540   5.453   4.060   1.965 -0.2394 -0.5373  0.8908
  533TIP3   OH2 1541   5.786   3.251   1.973 -0.1627 -0.2606 -0.5507
  533TIP3    H1 1542   5.708   3.215   1.932 -0.1087 -0.5882 -0.3743
  533TIP3    H2 1543   5.858   3.200   1.937 -0.0142  0.1694 -0.8565
  534TIP3   OH2 1544   4.326   2.179   0.595 -0.4512  0.0046  0.0283
  534TIP3    H1 1545   4.296   2.182   0.504 -1.2726  0.4503  0.3115
  534TIP3    H2 1546   4.311   2.088   0.622  0.4470 -0.3064 -0.4947
  535TIP3   OH2 1547   6.502   1.685   0.656  0.2210 -0.3547  0.1682
  535TIP3    H1 1548   6.597   1.682   0.652  0.2352  0.2646  0.1007
  535TIP3    H2 1549   6.475   1.722   0.573 -0.0428  0.2189  0.5057
  536TIP3   OH2 1550   3.812   3.043   0.773 -0.1246  0.5334  0.6227
  536TIP3    H1 1551   3.879   2.997   0.824 -0.9665  1.1920  2.3777
  536TIP3    H2 1552   3.731   2.996   0.792 -0.4650  0.8668  0.0068
  537TIP3   OH2 1553   7.580   4.987   6.385  0.1618  0.0847 -0.2125
  537TIP3    H1 1554   7.537   4.902   6.391 -0.6836  0.5261  0.0616
  537TIP3    H2 1555   7.617   4.989   6.297  0.0523 -0.4976 -0.2747
  538TIP3   OH2 1556   6.758   4.751   6.199 -0.6048 -0.1089  0.0276
  538TIP3    H1 1557   6.829   4.687   6.199  0.5488  1.0802  2.6638
  538TIP3    H2 1558   6.783   4.814   6.267 -2.6060  2.1242 -1.2265
  539TIP3   OH2 1559   6.083   2.427   0.862 -0.4223  0.1413 -0.8093
  539TIP3    H1 1560   6.111   2.503   0.913 -1.5912 -0.3132  0.5485
  539TIP3    H2 1561   6.148   2.419   0.793  0.4375  1.5936 -0.1859
  540TIP3   OH2 1562   2.385   1.999   0.627  0.3363 -0.0400  0.3510
  540TIP3    H1 1563   2.339   2.080   0.607  1.6682  0.3491 -1.2629
  540TIP3    H2 1564   2.365   1.942   0.553 -1.1796 -1.4647  1.8149
  541TIP3   OH2 1565   5.616   0.922   0.620 -0.4705  0.1454  0.4045
  541TIP3    H1 1566   5.580   0.962   0.541 -0.6584  0.6869  0.7574
  541TIP3    H2 1567   5.589   0.981   0.691  1.3893  0.7575  0.6435
  542TIP3   OH2 1568   5.149   4.392   3.270  0.1883  0.3404  0.3961
  542TIP3    H1 1569   5.112   4.465   3.318  0.3357  0.7713 -0.1424
  542TIP3    H2 1570   5.202   4.432   3.201 -0.7752 -0.2602 -0.7209
  543TIP3   OH2 1571   4.022   4.043   3.556  0.3519  0.0618 -0.1410
  543TIP3    H1 1572   4.084   4.116   3.565  0.7294 -0.1250 -1.1474
  543TIP3    H2 1573   4.057   3.991   3.483 -0.8807 -0.1571 -0.5868
  544TIP3   OH2 1574   3.401   1.677   2.947 -0.3148  0.0200  0.3610
  544TIP3    H1 1575   3.480   1.707   2.992 -0.5569  0.7602  0.2945
  544TIP3    H2 1576   3.343   1.753   2.945  0.1442  0.3436 -2.2341
  545TIP3   OH2 1577   5.473   1.847   0.765  0.5642 -0.0971  0.6088
  545TIP3    H1 1578   5.540   1.833   0.698 -0.1716 -0.4982 -0.0487
  545TIP3    H2 1579   5.486   1.776   0.827 -0.7987 -1.5912 -0.7927
  546TIP3   OH2 1580   5.526   0.795   2.264  0.0062  0.4458  0.7918
  546TIP3    H1 1581   5.579   0.716   2.256 -1.8979 -0.9818  1.9236
  546TIP3    H2 1582   5.526   0.833   2.176  1.4328 -0.4838  0.3763
  547TIP3   OH2 1583   5.023   2.490   2.651 -0.6866 -0.9869  0.2727
  547TIP3    H1 1584   4.957   2.465   2.587  0.5911 -0.1648 -1.3850
  547TIP3    H2 1585   5.015   2.585   2.659  0.8526 -0.7742 -0.5683
  548TIP3   OH2 1586   3.829   4.979   3.625  0.0219  0.1198  0.3584
  548TIP3    H1 1587   3.844   4.887   3.647  0.2500 -0.4007 -1.9137
  548TIP3    H2 1588   3.876   5.027   3.694  2.1100 -1.4767  0.0946
  549TIP3   OH2 1589   6.212   3.528   1.452  0.3008 -0.4383  0.6666
  549TIP3    H1 1590   6.147   3.458   1.457 -0.6544  0.2737 -1.2973
  549TIP3    H2 1591   6.165   3.606   1.479  0.6849 -0.1441  0.4932
  550TIP3   OH2 1592   4.314   3.232   1.667  0.1853  0.6069  0.4721
  550TIP3    H1 1593   4.269   3.316   1.669  0.6146  0.8856 -0.8963
  550TIP3    H2 1594   4.404   3.253   1.692  0.6499  0.8174 -1.2884
  551TIP3   OH2 1595   4.570   0.218   1.014 -0.2533  0.0843 -0.8802
  551TIP3    H1 1596   4.486   0.264   1.020 -0.2530  0.1993 -1.7681
  551TIP3    H2 1597   4.546   0.125   1.013 -0.3940  0.1252 -1.4683
  552TIP3   OH2 1598   4.117   7.974   2.396  0.3206 -0.5936 -0.5777
  552TIP3    H1 1599   4.207   7.971   2.428  0.4894  0.1122 -0.9779
  552TIP3    H2 1600   4.072   7.906   2.446  0.4471  0.8561  1.5868
  553TIP3   OH2 1601   5.744   2.010   1.542  0.3359 -0.0829 -0.2228
  553TIP3    H1 1602   5.649   2.023   1.545  0.0857 -1.2645 -1.8779
  553TIP3    H2 1603   5.778   2.092   1.507 -0.0938  0.3185  0.2985
  554TIP3   OH2 1604   1.754   3.798   1.400  0.2283  0.1359 -0.1229
  554TIP3    H1 1605   1.703   3.733   1.352  2.2174  0.4080 -2.7327
  554TIP3    H2 1606   1.693   3.870   1.415 -0.9572 -0.7639 -0.5266
  555TIP3   OH2 1607   4.366   2.861   1.407  0.0831 -0.3093  0.3318
  555TIP3    H1 1608   4.292   2.875   1.347 -0.4075 -0.6008  0.8719
  555TIP3    H2 1609   4.417   2.792   1.366 -0.4763 -0.7978  0.4546
  556TIP3   OH2 1610   4.894   1.622   1.169  0.2125 -0.1300  0.4508
  556TIP3    H1 1611   4.936   1.540   1.194 -0.0284  0.4994  3.0718
  556TIP3    H2 1612   4.807   1.597   1.140  0.9380 -1.0128 -1.0635
  557TIP3   OH2 1613   2.133   1.184   0.622  0.0328  0.3562  0.1757
  557TIP3    H1 1614   2.228   1.183   0.632  0.0130 -0.0148  0.3291
  557TIP3    H2 1615   2.114   1.269   0.584  0.3691  0.7049  0.7757
  558TIP3   OH2 1616   3.658   3.885   1.874 -0.9878 -0.0813 -0.0131
  558TIP3    H1 1617   3.642   3.791   1.878 -1.1987 -0.0347  0.3169
  558TIP3    H2 1618   3.573   3.923   1.851 -1.2067  0.1193  1.1014
  559TIP3   OH2 1619   2.701   5.242   1.163  0.2713  0.2694 -0.1690
  559TIP3    H1 1620   2.674   5.151   1.163  0.0563  0.3113 -1.9196
  559TIP3    H2 1621   2.740   5.256   1.076  0.4418  1.7978  0.1261
  560TIP3   OH2 1622   6.453   3.791   2.030 -0.5014  0.0890 -0.0840
  560TIP3    H1 1623   6.525   3.747   1.984 -0.5721 -0.3966  0.2740
  560TIP3    H2 1624   6.463   3.766   2.121 -1.6350 -0.6680 -0.1593
  561TIP3   OH2 1625   2.945   1.833   3.296  0.2497 -0.1241 -0.4120
  561TIP3    H1 1626   2.957   1.913   3.347 -0.3885  0.3301 -0.9817
  561TIP3    H2 1627   2.955   1.861   3.205 -2.2762 -0.2576 -0.7549
  562TIP3   OH2 1628   5.592   0.979   2.003 -0.1266  0.0337  0.1948
  562TIP3    H1 1629   5.643   1.002   2.080 -0.7989 -0.3698  0.7667
  562TIP3    H2 1630   5.518   1.041   2.003  0.1007  0.3123 -0.3659
  563TIP3   OH2 1631   6.148   0.811   2.372 -0.2462 -0.3994  0.1489
  563TIP3    H1 1632   6.122   0.880   2.311  0.6204  0.5996  0.8913
  563TIP3    H2 1633   6.149   0.853   2.458 -1.1486 -1.7163  0.8326
  564TIP3   OH2 1634   6.458   4.159   3.709 -0.1027  0.6907  0.0743
  564TIP3    H1 1635   6.413   4.242   3.695 -0.4903  0.3533 -0.7070
  564TIP3    H2 1636   6.408   4.115   3.776  0.4414  1.3372  0.9137
  565TIP3   OH2 1637   3.255   2.200   1.045 -0.0696  0.3684 -0.3444
  565TIP3    H1 1638   3.287   2.156   0.967 -0.5795  1.0469 -0.9504
  565TIP3    H2 1639   3.271   2.293   1.028 -0.8113  0.5737  0.0542
  566TIP3   OH2 1640   0.586   4.606   5.501  0.5774 -0.6334 -0.0735
  566TIP3    H1 1641   0.634   4.568   5.427  1.1259 -0.2434  0.0707
  566TIP3    H2 1642   0.592   4.541   5.570  2.6967  0.2688  0.6302
  567TIP3   OH2 1643   5.706   2.687   2.216  0.5105  0.1718  0.3134
  567TIP3    H1 1644   5.764   2.671   2.290 -0.5514  0.4711  1.2192
  567TIP3    H2 1645   5.632   2.735   2.253  0.3565  1.0480 -1.0883
  568TIP3   OH2 1646   6.445   3.587   1.578 -0.2113 -1.0610  0.0462
  568TIP3    H1 1647   6.374   3.569   1.516  0.4744  0.2361 -1.1362
  568TIP3    H2 1648   6.457   3.504   1.626 -1.9990 -1.5150 -0.2569
  569TIP3   OH2 1649   4.007   2.408   2.795 -0.5326 -0.0929  0.5243
  569TIP3    H1 1650   4.091   2.414   2.749 -0.9956  1.3954 -0.1695
  569TIP3    H2 1651   3.949   2.364   2.733 -1.0459  1.5520 -0.2232
  570TIP3   OH2 1652   6.113   3.112   0.359  0.3662  0.2227 -0.1840
  570TIP3    H1 1653   6.153   3.199   0.370  1.9609 -0.2681 -1.9439
  570TIP3    H2 1654   6.028   3.130   0.318  0.1074  1.0337  0.6736
  571TIP3   OH2 1655   4.548   2.881   1.856 -0.1658 -0.2603  0.2606
  571TIP3    H1 1656   4.536   2.872   1.950 -0.4739  0.7383  0.3262
  571TIP3    H2 1657   4.524   2.796   1.820 -3.0388  0.2453  0.8282
  572TIP3   OH2 1658   6.811   2.087   0.437  0.0542  0.1188  0.4922
  572TIP3    H1 1659   6.747   2.029   0.478  0.8401 -1.2345 -0.1325
  572TIP3    H2 1660   6.761   2.164   0.412 -0.7971  0.1935  2.3252
  573TIP3   OH2 1661   3.667   2.033   2.721 -0.3707 -0.0484  0.1766
  573TIP3    H1 1662   3.617   2.113   2.739  1.3779  1.0501  0.2247
  573TIP3    H2 1663   3.626   1.996   2.643  1.3848  3.1226 -2.3497
  574TIP3   OH2 1664   8.324   2.161   1.787  0.3306 -0.4480  0.3726
  574TIP3    H1 1665   8.371   2.078   1.786 -1.3097 -1.4029 -0.6706
  574TIP3    H2 1666   8.254   2.150   1.722  0.3954  1.9374 -0.1429
  575TIP3   OH2 1667   3.341   6.384   4.387 -0.8869  0.2031  0.4865
  575TIP3    H1 1668   3.388   6.458   4.424 -1.7484  0.4937  1.0187
  575TIP3    H2 1669   3.278   6.424   4.326 -0.1188 -0.2095 -0.6022
  576TIP3   OH2 1670   5.055   0.436   3.363  0.4124 -0.2025  0.0968
  576TIP3    H1 1671   4.984   0.457   3.303  0.0696  1.0584  0.9296
  576TIP3    H2 1672   5.135   0.459   3.315  0.1146  1.4064  0.3323
  577TIP3   OH2 1673   5.235   7.743   0.409  0.4482 -0.1342  0.4182
  577TIP3    H1 1674   5.297   7.759   0.480  1.1677  1.0421 -0.4537
  577TIP3    H2 1675   5.149   7.743   0.451  0.9931 -1.1549  1.5447
  578TIP3   OH2 1676   5.399   1.322   1.236 -0.2518  0.0580 -0.3619
  578TIP3    H1 1677   5.438   1.243   1.273  0.6949  1.2260  1.1436
  578TIP3    H2 1678   5.305   1.312   1.254 -0.3174 -1.3627 -1.4064
  579TIP3   OH2 1679   4.989   1.519   2.360  0.2112  0.3526  0.5070
  579TIP3    H1 1680   4.954   1.509   2.272  1.1173  2.4202 -0.1192
  579TIP3    H2 1681   5.068   1.466   2.362 -0.3525 -0.4909  0.3936
  580TIP3   OH2 1682   6.917   2.111   1.406 -0.1967 -0.2068 -0.3822
  580TIP3    H1 1683   6.976   2.056   1.354 -1.7499 -1.5275 -0.7894
  580TIP3    H2 1684   6.898   2.059   1.484 -1.8124 -0.3376 -0.8467
  581TIP3   OH2 1685   5.999   0.929   1.568 -0.2161 -0.0757  0.1719
  581TIP3    H1 1686   5.926   0.976   1.527  0.7218 -0.1165 -1.5849
  581TIP3    H2 1687   6.070   0.934   1.505  0.6393 -1.8929  0.9319
  582TIP3   OH2 1688   5.859   4.086   1.334  0.1976  0.4942  0.1229
  582TIP3    H1 1689   5.866   4.042   1.249 -2.0144  0.1445  0.0929
  582TIP3    H2 1690   5.926   4.045   1.388  0.9029 -0.0382 -1.1256
  583TIP3   OH2 1691   2.434   0.040   0.396 -0.0977 -0.5254 -0.3718
  583TIP3    H1 1692   2.523   0.011   0.380  0.6341  0.8906  1.0034
  583TIP3    H2 1693   2.422   0.033   0.490 -1.7637 -1.5858 -0.6405
  584TIP3   OH2 1694   3.218   0.502   0.221 -0.1958  0.0736 -0.1158
  584TIP3    H1 1695   3.276   0.573   0.194 -0.5804  0.2688 -0.4371
  584TIP3    H2 1696   3.163   0.541   0.289 -1.5051  0.5650 -1.4256
  585TIP3   OH2 1697   4.029   2.478   0.883  0.0502 -0.0532  0.1989
  585TIP3    H1 1698   3.954   2.422   0.902  0.3175 -0.5168 -0.1130
  585TIP3    H2 1699   4.098   2.418   0.855 -0.2874  0.5939 -2.1595
  586TIP3   OH2 1700   5.925   3.875   0.803 -0.3150 -0.1509  0.7003
  586TIP3    H1 1701   5.869   3.818   0.752 -0.1489  1.6154 -1.5935
  586TIP3    H2 1702   6.000   3.821   0.827 -1.0293 -1.3749  0.1852
  587TIP3   OH2 1703   6.212   2.706   2.082  0.1238 -0.0030 -0.0696
  587TIP3    H1 1704   6.196   2.800   2.084 -2.6359 -0.4332  0.1669
  587TIP3    H2 1705   6.165   2.674   2.005  2.0650 -1.0447 -0.8636
  588TIP3   OH2 1706   6.831   0.255   1.976  0.2654 -0.0834 -0.2706
  588TIP3    H1 1707   6.812   0.191   2.044  0.1129  0.7970  0.5157
  588TIP3    H2 1708   6.868   0.330   2.023 -2.1883  1.5492 -0.8624
  589TIP3   OH2 1709   6.305   4.036   1.481  0.2421 -0.1674 -0.3635
  589TIP3    H1 1710   6.358   4.089   1.421 -0.2826 -0.0087 -0.6842
  589TIP3    H2 1711   6.347   4.048   1.566  0.4179  0.3764 -0.5234
  590TIP3   OH2 1712   4.659   3.487   2.145 -0.0557  0.1327  0.5372
  590TIP3    H1 1713   4.643   3.394   2.132  0.4758  0.1452 -0.2689
  590TIP3    H2 1714   4.634   3.528   2.062 -1.4135  0.8607  1.2914
  591TIP3   OH2 1715   7.403   2.126   1.439  0.0436 -0.0406 -0.7412
  591TIP3    H1 1716   7.405   2.119   1.344  0.3245  2.0567 -0.9154
  591TIP3    H2 1717   7.315   2.099   1.463 -0.5375  0.9014 -1.7528
  592TIP3   OH2 1718   6.598   1.410   0.931 -0.5317 -0.3997  0.5438
  592TIP3    H1 1719   6.507   1.408   0.902 -0.1238  2.6699 -1.1625
  592TIP3    H2 1720   6.649   1.411   0.849  1.0489 -1.6582  1.4706
  593TIP3   OH2 1721   6.636   5.973   6.157 -0.0483  0.1792 -0.0073
  593TIP3    H1 1722   6.545   5.988   6.181 -0.3058  1.5773 -1.7074
  593TIP3    H2 1723   6.646   6.017   6.072  1.9231 -0.8609 -0.3560
  594TIP3   OH2 1724   7.717   4.421   6.859 -0.3985  0.0297  0.3093
  594TIP3    H1 1725   7.756   4.334   6.863  0.0602  0.0927 -1.9109
  594TIP3    H2 1726   7.631   4.407   6.819  0.3195  0.7705 -1.5478
  595TIP3   OH2 1727   3.531   1.878   2.532 -0.0617  0.2777  0.2647
  595TIP3    H1 1728   3.599   1.881   2.465 -0.8243  3.6178 -0.4595
  595TIP3    H2 1729   3.482   1.798   2.514 -0.2384  1.1059 -3.1851
  596TIP3   OH2 1730   6.040   2.087   0.486 -0.0106 -0.2045  0.5901
  596TIP3    H1 1731   6.135   2.078   0.479  0.1003  1.4007 -0.4084
  596TIP3    H2 1732   6.025   2.181   0.476 -1.5705 -0.1977  2.5635
  597TIP3   OH2 1733   6.233   5.101   6.590 -0.4433  0.3787  0.2494
  597TIP3    H1 1734   6.245   5.117   6.683 -1.3371  1.3800  0.1890
  597TIP3    H2 1735   6.175   5.024   6.586 -0.2601  0.2257  0.5080
  598TIP3   OH2 1736   5.435   1.445   1.919  0.1092  0.0052 -0.3857
  598TIP3    H1 1737   5.436   1.357   1.957 -0.2713 -0.1439 -0.7104
  598TIP3    H2 1738   5.359   1.487   1.959 -0.2284 -0.1155 -0.8850
  599TIP3   OH2 1739   4.899   3.704   1.523 -0.1155 -0.5059  0.1308
  599TIP3    H1 1740   4.876   3.768   1.456 -1.6477 -0.3815  0.7726
  599TIP3    H2 1741   4.938   3.756   1.594  0.4242 -0.5114 -0.1564
  600TIP3   OH2 1742   3.989   4.516   2.359 -0.0333  0.0649 -0.1778
  600TIP3    H1 1743   4.063   4.547   2.307  0.1557 -0.6440 -0.3354
  600TIP3    H2 1744   3.934   4.468   2.297  0.6573 -1.5800  0.4394
  601TIP3   OH2 1745   5.009   1.212   3.077 -0.1016  0.5633  0.2083
  601TIP3    H1 1746   4.960   1.132   3.058 -1.8126  1.5543  0.3054
  601TIP3    H2 1747   5.031   1.248   2.991 -0.3612  0.5911  0.1520
  602TIP3   OH2 1748   5.196   2.986   1.926 -0.3763  0.5096  0.1085
  602TIP3    H1 1749   5.218   2.997   2.019 -0.1396  2.4167 -0.1418
  602TIP3    H2 1750   5.152   2.902   1.922 -0.5523  0.4759  1.9925
  603TIP3   OH2 1751   5.365   1.355   0.365 -0.0239 -0.4509 -0.4546
  603TIP3    H1 1752   5.322   1.352   0.280 -1.0258  0.1162  0.0218
  603TIP3    H2 1753   5.371   1.449   0.385 -1.2283 -0.6240  0.8068
  604TIP3   OH2 1754   7.869   4.336   6.281 -0.2975 -0.1991  0.1844
  604TIP3    H1 1755   7.801   4.400   6.260 -1.5450 -1.4707  0.2243
  604TIP3    H2 1756   7.950   4.387   6.285 -1.0495  1.1466 -1.1007
  605TIP3   OH2 1757   4.773   4.897   3.134 -0.8346 -0.2375  0.0870
  605TIP3    H1 1758   4.705   4.964   3.141  0.1672  0.6172  1.7461
  605TIP3    H2 1759   4.727   4.815   3.153 -1.6833  0.1700 -0.1671
  606TIP3   OH2 1760   4.583   2.810   2.953 -0.4874  0.0522 -0.2978
  606TIP3    H1 1761   4.509   2.761   2.989  1.6012 -2.8234  0.1514
  606TIP3    H2 1762   4.558   2.825   2.861 -2.0718  0.0698  0.1088
  607TIP3   OH2 1763   3.789   5.796   2.558 -0.2645  0.7084 -0.0340
  607TIP3    H1 1764   3.852   5.732   2.593  0.7197  0.3794 -2.3639
  607TIP3    H2 1765   3.767   5.850   2.634  0.5902 -0.9850  1.4864
  608TIP3   OH2 1766   6.003   2.873   1.740 -0.0371 -0.3685  0.3043
  608TIP3    H1 1767   6.057   2.907   1.668 -0.4178 -0.2586  0.0690
  608TIP3    H2 1768   5.935   2.822   1.696  1.2602 -2.5234  0.6888
  609TIP3   OH2 1769   5.858   4.646   2.031 -0.3511  0.1648 -0.2046
  609TIP3    H1 1770   5.903   4.577   1.982  1.4560  1.1880 -0.0468
  609TIP3    H2 1771   5.929   4.699   2.067 -1.6253 -0.0865  2.8476
  610TIP3   OH2 1772   4.267   3.508   0.818 -0.2718  0.0148 -0.1748
  610TIP3    H1 1773   4.323   3.453   0.765  0.2497  0.8918 -0.5358
  610TIP3    H2 1774   4.307   3.595   0.814 -1.9015  0.7600 -0.8375
  611TIP3   OH2 1775   4.283   1.438   1.872  0.2144  0.1502  0.2704
  611TIP3    H1 1776   4.288   1.393   1.787  0.7772  0.7441 -0.0203
  611TIP3    H2 1777   4.280   1.531   1.849  0.4755  0.3149  0.9076
  612TIP3   OH2 1778   3.560   4.129   1.283 -0.7134  0.2886  0.2960
  612TIP3    H1 1779   3.557   4.097   1.373 -0.1537 -0.5514  0.0202
  612TIP3    H2 1780   3.498   4.202   1.282 -0.5350  0.4639  1.4210
  613TIP3   OH2 1781   6.098   5.022   1.567  0.2458  0.1470  0.0578
  613TIP3    H1 1782   6.167   4.958   1.551 -0.4861 -0.6979  0.1823
  613TIP3    H2 1783   6.039   5.014   1.492 -0.3670 -0.0365  0.5453
  614TIP3   OH2 1784   4.718   0.931   3.605  0.4076  0.1188 -0.0577
  614TIP3    H1 1785   4.661   1.003   3.632  0.9536  0.4578  0.1938
  614TIP3    H2 1786   4.716   0.934   3.509  1.7653  1.5495 -0.0668
  615TIP3   OH2 1787   3.929   7.854   2.853  0.0724  0.2643  0.3974
  615TIP3    H1 1788   3.871   7.796   2.902 -0.7510 -0.0303 -0.8986
  615TIP3    H2 1789   4.014   7.844   2.895 -0.5501 -0.1922  1.5771
  616TIP3   OH2 1790   4.324   2.638   3.342  0.4096  0.3287 -0.3695
  616TIP3    H1 1791   4.393   2.678   3.289 -0.3020  0.2483 -1.3739
  616TIP3    H2 1792   4.362   2.631   3.429  1.9159 -0.3253 -1.0570
  617TIP3   OH2 1793   4.119   3.414   1.552 -0.0424  0.6338 -0.2804
  617TIP3    H1 1794   4.085   3.461   1.629  0.1434 -0.1505  0.2864
  617TIP3    H2 1795   4.132   3.483   1.487 -2.1614  1.0445 -0.3319
  618TIP3   OH2 1796   6.326   1.069   0.417 -0.2540 -0.0076  0.0013
  618TIP3    H1 1797   6.398   1.101   0.472  0.4271  0.7360 -1.2961
  618TIP3    H2 1798   6.315   0.978   0.443  0.8185  0.0103  0.5708
  619TIP3   OH2 1799   6.401   4.960   1.841  0.2929 -0.5929 -0.2090
  619TIP3    H1 1800   6.416   5.038   1.788 -3.8687 -0.5112 -1.4465
  619TIP3    H2 1801   6.486   4.916   1.845  1.3539  0.8728 -4.5664
  620TIP3   OH2 1802   6.998   4.247   5.557  0.4098 -0.3379  0.0896
  620TIP3    H1 1803   6.907   4.266   5.535  0.7710 -0.5595 -1.6953
  620TIP3    H2 1804   7.030   4.327   5.599  0.0960  0.6711 -1.5385
  621TIP3   OH2 1805   6.434   3.516   0.733  0.0297 -0.2394  0.6922
  621TIP3    H1 1806   6.430   3.513   0.829  0.4774 -1.5189  0.6773
  621TIP3    H2 1807   6.343   3.531   0.706 -0.3263 -1.2734  1.2751
  622TIP3   OH2 1808   4.544   1.706   0.630 -0.3025  0.0928 -0.1167
  622TIP3    H1 1809   4.543   1.795   0.597 -1.2182  0.1023 -0.0714
  622TIP3    H2 1810   4.625   1.668   0.595 -0.4748  0.5916 -1.0513
  623TIP3   OH2 1811   5.620   0.145   6.853  0.3529  0.3393 -0.4454
  623TIP3    H1 1812   5.673   0.066   6.842  0.9674  0.5767  0.7078
  623TIP3    H2 1813   5.645   0.179   6.939 -2.1537  0.1066  0.3978
  624TIP3   OH2 1814   7.680   2.976   1.409 -0.2449  0.0443 -0.4406
  624TIP3    H1 1815   7.658   3.065   1.437 -1.6042 -0.5421  0.3724
  624TIP3    H2 1816   7.742   2.989   1.337 -1.2466  1.6752 -1.0434
  625TIP3   OH2 1817   6.523   3.398   3.449  0.0873 -0.2548  0.0194
  625TIP3    H1 1818   6.500   3.312   3.413 -0.6217 -0.7225  1.5410
  625TIP3    H2 1819   6.594   3.380   3.510  0.9949  0.4702 -0.8127
  626TIP3   OH2 1820   6.886   3.806   2.191  0.0861 -0.1673 -0.1982
  626TIP3    H1 1821   6.948   3.733   2.197  1.1052  0.6005 -1.1809
  626TIP3    H2 1822   6.836   3.789   2.112 -0.1788 -0.1734 -0.0311
  627TIP3   OH2 1823   5.917   2.845   1.007 -0.6859 -0.5987  0.3139
  627TIP3    H1 1824   5.976   2.839   0.932  0.3546 -0.3544  1.1070
  627TIP3    H2 1825   5.830   2.857   0.968 -0.2992 -1.5680 -0.8645
  628TIP3   OH2 1826   5.858   3.267   0.657  0.1745 -0.0200 -0.0343
  628TIP3    H1 1827   5.940   3.232   0.690 -0.5118 -1.3635  0.2846
  628TIP3    H2 1828   5.884   3.334   0.593  1.4934  0.8115  1.3488
  629TIP3   OH2 1829   0.098   4.247   0.808  0.7498 -0.3294  0.6076
  629TIP3    H1 1830   0.106   4.337   0.778 -0.6826 -0.5408 -0.4326
  629TIP3    H2 1831   0.050   4.252   0.890 -0.4712 -0.2584 -0.1120
  630TIP3   OH2 1832   8.419   3.716   0.897 -0.6527 -0.3416 -0.1477
  630TIP3    H1 1833   8.511   3.716   0.868 -0.0369 -0.9017  1.7284
  630TIP3    H2 1834   8.394   3.808   0.896  0.3375 -0.0553  0.5186
  631TIP3   OH2 1835   6.276   1.978   0.217 -0.0735 -0.0361 -0.1292
  631TIP3    H1 1836   6.199   2.035   0.211  1.1016  1.4993 -1.0018
  631TIP3    H2 1837   6.349   2.038   0.230  1.2217 -1.3361 -1.2424
  632TIP3   OH2 1838   7.938   3.936   0.263 -0.3712 -0.0176 -0.1232
  632TIP3    H1 1839   7.887   3.870   0.311  2.4519 -2.8781 -0.8756
  632TIP3    H2 1840   7.993   3.977   0.330  0.1658 -0.6892 -0.1477
  633TIP3   OH2 1841   8.047   4.109   1.291  0.4544 -0.0258  0.3269
  633TIP3    H1 1842   8.016   4.193   1.325 -0.7528 -0.0631 -0.6564
  633TIP3    H2 1843   8.121   4.087   1.347  0.5532  1.5142  0.8274
  634TIP3   OH2 1844   8.306   1.367   0.148  0.2817  0.1532  0.3125
  634TIP3    H1 1845   8.284   1.405   0.232  0.0446  0.5287  0.0835
  634TIP3    H2 1846   8.290   1.437   0.085 -1.5403 -0.7417 -0.2687
  635TIP3   OH2 1847   0.263   4.544   0.335  0.4293 -0.0916 -0.1165
  635TIP3    H1 1848   0.275   4.464   0.285 -1.3232 -0.4513 -0.0020
  635TIP3    H2 1849   0.241   4.610   0.270 -2.7078 -0.7501  0.2110
  636TIP3   OH2 1850   0.756   3.209   0.085 -0.3007  0.4447  0.5573
  636TIP3    H1 1851   0.780   3.186   0.175  0.3368  0.3056  0.3595
  636TIP3    H2 1852   0.766   3.127   0.036 -3.3077 -0.1433  0.8658
  637TIP3   OH2 1853   2.959   3.370   0.685  0.4910  0.0356 -0.3313
  637TIP3    H1 1854   2.905   3.436   0.729  0.1942  0.2992 -1.0785
  637TIP3    H2 1855   2.918   3.359   0.599  1.3324 -0.1351 -0.7182
  638TIP3   OH2 1856   6.213   1.568   1.920 -1.0864 -0.7322 -0.1098
  638TIP3    H1 1857   6.191   1.600   1.833 -1.0433  0.1808  0.2081
  638TIP3    H2 1858   6.134   1.584   1.972 -0.8379 -0.5411  0.2103
  639TIP3   OH2 1859   8.191   3.013   3.537 -0.5421  0.2403  0.5390
  639TIP3    H1 1860   8.192   2.958   3.616  1.5470  0.7244  0.8864
  639TIP3    H2 1861   8.220   3.099   3.568  0.3269  0.4262 -0.7650
  640TIP3   OH2 1862   6.258   3.056   2.535  0.9325  0.0038 -0.1853
  640TIP3    H1 1863   6.321   3.127   2.545  0.6067  0.1047  1.2060
  640TIP3    H2 1864   6.289   2.988   2.595  0.7737 -0.6932 -0.8887
  641TIP3   OH2 1865   0.263   4.071   0.026 -0.0705 -0.0038 -0.0983
  641TIP3    H1 1866   0.290   4.029   0.107 -1.2487  1.0255  0.8510
  641TIP3    H2 1867   0.192   4.016  -0.008  0.6853 -0.6501 -0.6467
  642TIP3   OH2 1868   4.502   1.269   3.316  0.0216  0.0918  0.7128
  642TIP3    H1 1869   4.598   1.267   3.309  0.0759  0.3518  1.2964
  642TIP3    H2 1870   4.471   1.280   3.227  0.5648  0.7264  0.6028
  643TIP3   OH2 1871   7.073   1.265   2.350 -0.3022  0.3575  0.7287
  643TIP3    H1 1872   7.081   1.228   2.438 -0.3477  0.2542  0.6901
  643TIP3    H2 1873   7.001   1.216   2.310  0.6374 -0.5648  0.1561
  644TIP3   OH2 1874   7.282   1.298   3.523  0.5642 -0.3509 -0.5404
  644TIP3    H1 1875   7.258   1.350   3.446 -0.2539  4.2609  2.6135
  644TIP3    H2 1876   7.199   1.261   3.553  0.0539  1.7430  0.7379
  645TIP3   OH2 1877   5.869   1.196   4.050 -0.3346 -0.1314  0.1737
  645TIP3    H1 1878   5.942   1.252   4.073 -0.9018  0.4281  0.6270
  645TIP3    H2 1879   5.792   1.239   4.088 -0.7704 -1.2198  0.5565
  646TIP3   OH2 1880   8.225   4.976   5.311  0.3626 -0.0243  0.5058
  646TIP3    H1 1881   8.286   4.975   5.237 -1.3871 -2.1572 -0.9702
  646TIP3    H2 1882   8.170   5.052   5.296  0.8337  0.2764  0.2993
  647TIP3   OH2 1883   5.284   2.033   3.288 -0.2411 -0.0626 -0.3638
  647TIP3    H1 1884   5.220   2.005   3.353  0.3830  1.3789  0.8839
  647TIP3    H2 1885   5.252   2.118   3.258  2.1621  1.6909  1.8276
  648TIP3   OH2 1886   3.458   7.196   0.972 -0.0945 -0.3352  1.1879
  648TIP3    H1 1887   3.396   7.269   0.963  0.7183  0.0755 -1.4542
  648TIP3    H2 1888   3.527   7.231   1.028  0.1556  0.8813  0.1559
  649TIP3   OH2 1889   0.504   5.110   1.218 -0.0189  0.0016  0.3557
  649TIP3    H1 1890   0.520   5.042   1.152  0.4248  0.6955 -0.2677
  649TIP3    H2 1891   0.580   5.106   1.275 -0.0146 -0.0594  0.3457
  650TIP3   OH2 1892   8.337   4.041   1.621 -0.2001 -0.0544 -0.8533
  650TIP3    H1 1893   8.377   4.087   1.547  2.6166 -0.8745  0.0977
  650TIP3    H2 1894   8.289   4.108   1.668  0.4999  1.0841 -1.7452
  651TIP3   OH2 1895   6.621   3.790   1.431  0.1213  0.4375  1.2561
  651TIP3    H1 1896   6.551   3.736   1.467 -0.7242 -0.3827 -1.5078
  651TIP3    H2 1897   6.575   3.860   1.384  1.1519  0.5200  0.3636
  652TIP3   OH2 1898   2.706   5.831   0.350  0.4365 -0.1822  0.3984
  652TIP3    H1 1899   2.676   5.909   0.303  0.5807 -0.7576 -0.6621
  652TIP3    H2 1900   2.789   5.808   0.308  1.0215 -0.1861  1.5359
  653TIP3   OH2 1901   6.792   3.981   0.153  0.2468  0.3549  0.5353
  653TIP3    H1 1902   6.707   3.993   0.112 -0.3690 -1.2745  1.2945
  653TIP3    H2 1903   6.815   3.890   0.135  2.4501  1.1301 -0.7926
  654TIP3   OH2 1904   6.076   1.515   1.074  0.0832 -0.5421 -0.1518
  654TIP3    H1 1905   6.068   1.586   1.138 -0.1623 -0.9558  0.2772
  654TIP3    H2 1906   6.044   1.554   0.992  0.1519 -0.0926  0.0322
  655TIP3   OH2 1907   2.156   6.881   6.552 -0.3275 -0.0578  0.4044
  655TIP3    H1 1908   2.128   6.909   6.465 -0.5915  1.1367  0.8691
  655TIP3    H2 1909   2.236   6.831   6.536 -0.9693 -0.7721 -0.6209
  656TIP3   OH2 1910   8.011   3.425   0.580  0.0229 -0.0614  0.3433
  656TIP3    H1 1911   7.919   3.450   0.589  0.1917  0.1156  1.5726
  656TIP3    H2 1912   8.053   3.501   0.540 -0.2930 -0.0207  0.0838
  657TIP3   OH2 1913   2.392   3.695   0.314 -0.1029 -0.3865 -0.2175
  657TIP3    H1 1914   2.418   3.747   0.390 -2.9002  0.7127  0.0405
  657TIP3    H2 1915   2.461   3.710   0.250  2.0207 -0.8941  1.8719
  658TIP3   OH2 1916   1.993   3.721   2.322 -0.4160 -0.3092  0.4405
  658TIP3    H1 1917   2.085   3.703   2.302 -0.6436 -2.3954  1.1131
  658TIP3    H2 1918   1.944   3.670   2.258 -1.1084  0.9075 -0.0067
  659TIP3   OH2 1919   7.487   2.209   0.548 -0.1723 -0.1785  0.3632
  659TIP3    H1 1920   7.522   2.293   0.517 -0.0428  0.0418  1.1004
  659TIP3    H2 1921   7.527   2.197   0.634 -0.5086 -0.8053  0.4326
  660TIP3   OH2 1922   8.102   2.269   0.919 -0.2647 -0.1835 -0.1715
  660TIP3    H1 1923   8.055   2.313   0.848 -0.5695  1.0094  0.7550
  660TIP3    H2 1924   8.189   2.252   0.883 -0.3416  0.6297 -0.7555
  661TIP3   OH2 1925   0.191   1.250   0.924  0.3813  0.3836  0.0619
  661TIP3    H1 1926   0.201   1.213   0.836  1.2509 -0.1561  0.3794
  661TIP3    H2 1927   0.178   1.174   0.981 -1.7201  0.8145  0.2149
  662TIP3   OH2 1928   0.674   3.098   2.259 -0.4890  0.1550  0.2240
  662TIP3    H1 1929   0.664   3.029   2.193  0.7287 -0.8470  1.0516
  662TIP3    H2 1930   0.593   3.094   2.311  0.0319 -1.4131  0.9492
  663TIP3   OH2 1931   8.083   3.048   0.735 -0.2246 -0.1173  0.2149
  663TIP3    H1 1932   8.140   2.972   0.722 -0.4758 -0.3667  0.5520
  663TIP3    H2 1933   8.017   3.017   0.797  0.1945  0.6418  1.0532
  664TIP3   OH2 1934   3.912   7.313   6.551  0.3006  0.2159  0.0196
  664TIP3    H1 1935   3.877   7.249   6.489 -0.2566  1.9661 -1.5342
  664TIP3    H2 1936   3.849   7.312   6.623 -1.0879  0.7798 -1.1368
  665TIP3   OH2 1937   8.284   1.475   4.247  0.3502  0.4811 -0.1565
  665TIP3    H1 1938   8.214   1.422   4.284  0.0739  0.5641 -0.5633
  665TIP3    H2 1939   8.289   1.551   4.305  2.5772 -1.2681  2.0519
  666TIP3   OH2 1940   1.364   4.232   2.649 -0.4285 -0.1477 -0.5846
  666TIP3    H1 1941   1.401   4.186   2.724 -2.2272  0.7494  0.8983
  666TIP3    H2 1942   1.401   4.321   2.655  0.7872 -0.5453 -1.7934
  667TIP3   OH2 1943   2.076   3.503   3.929  0.2268  0.2696 -0.2189
  667TIP3    H1 1944   2.161   3.540   3.954  0.7864  0.8330 -2.8247
  667TIP3    H2 1945   2.083   3.410   3.949  1.2158  0.4364  0.2205
  668TIP3   OH2 1946   8.219   2.469   3.567  0.0385  0.0486 -0.1071
  668TIP3    H1 1947   8.169   2.427   3.497 -1.1257 -0.4621  1.0070
  668TIP3    H2 1948   8.153   2.517   3.617  0.9799  1.0544  0.1809
  669TIP3   OH2 1949   7.787   4.069   3.056 -0.4007 -0.4503 -0.7691
  669TIP3    H1 1950   7.817   4.109   2.975  0.1864  0.4476 -0.1220
  669TIP3    H2 1951   7.693   4.084   3.058 -0.0698  1.6399 -0.1439
  670TIP3   OH2 1952   1.705   3.446   0.849  0.1948 -0.3688  0.0056
  670TIP3    H1 1953   1.775   3.511   0.852  0.5507 -0.7808  0.8646
  670TIP3    H2 1954   1.686   3.427   0.941 -1.9909  0.7362 -0.1655
  671TIP3   OH2 1955   0.303   4.462   4.161  0.0382  0.1269  0.2089
  671TIP3    H1 1956   0.325   4.408   4.236 -2.0095 -1.1310 -0.0782
  671TIP3    H2 1957   0.254   4.536   4.198 -1.5994 -0.8621  0.0647
  672TIP3   OH2 1958   7.513   4.223   1.937  0.4998 -0.7351  0.1910
  672TIP3    H1 1959   7.425   4.203   1.903  0.4206 -0.7479  0.4064
  672TIP3    H2 1960   7.528   4.314   1.911 -0.5126  0.0166  2.1269
  673TIP3   OH2 1961   1.511   2.795   0.490  0.1074  0.4919 -0.5492
  673TIP3    H1 1962   1.559   2.876   0.474 -0.1496  0.8975  0.6238
  673TIP3    H2 1963   1.441   2.821   0.550  1.2057 -0.9613  1.4230
  674TIP3   OH2 1964   8.124   2.858   4.340  0.2202  0.1880  0.2452
  674TIP3    H1 1965   8.218   2.842   4.346  0.3240  0.9383  0.6007
  674TIP3    H2 1966   8.116   2.951   4.322 -0.4376 -0.0016 -0.5116
  675TIP3   OH2 1967   0.737   3.055   4.639 -0.3077  0.4189 -0.2844
  675TIP3    H1 1968   0.682   2.980   4.615  0.6425 -1.2029  2.3844
  675TIP3    H2 1969   0.826   3.026   4.620 -0.0306  1.3483 -0.3994
  676TIP3   OH2 1970   3.383   6.699   6.040 -0.2840 -1.0441 -0.5150
  676TIP3    H1 1971   3.393   6.794   6.030  0.0497 -0.8176  1.6650
  676TIP3    H2 1972   3.461   6.662   6.001  0.8032 -0.2553  0.8706
  677TIP3   OH2 1973   0.939   4.298   6.519  0.1142  0.1287  0.0503
  677TIP3    H1 1974   1.002   4.271   6.452  0.3437  0.3518  0.1752
  677TIP3    H2 1975   0.922   4.390   6.500  0.9675  0.4744  0.9229
  678TIP3   OH2 1976   3.676   4.414   6.905 -0.2267 -0.1786 -0.0699
  678TIP3    H1 1977   3.611   4.481   6.884 -1.0725 -0.7820  0.5906
  678TIP3    H2 1978   3.662   4.395   6.998  2.1712  1.0469  0.5710
  679TIP3   OH2 1979   0.592   3.552   3.002 -0.0611  0.0464  0.1580
  679TIP3    H1 1980   0.546   3.480   2.958  0.2622 -1.0127  1.5235
  679TIP3    H2 1981   0.528   3.587   3.064 -0.1188  0.7446 -0.2933
  680TIP3   OH2 1982   0.207   1.902   1.890 -0.7254 -0.2914  0.1152
  680TIP3    H1 1983   0.257   1.830   1.853  0.8681  2.2770 -3.0397
  680TIP3    H2 1984   0.118   1.891   1.855 -0.8059 -1.3909  0.6646
  681TIP3   OH2 1985   7.170   7.887   1.333  0.4911  0.0025 -0.0956
  681TIP3    H1 1986   7.215   7.850   1.256  0.0755 -0.2395 -0.2236
  681TIP3    H2 1987   7.083   7.847   1.331  0.8991 -0.9598  1.2210
  682TIP3   OH2 1988   6.866   2.712   0.530  0.4445  0.2396  0.2183
  682TIP3    H1 1989   6.950   2.750   0.504  0.0719 -0.0596 -1.5007
  682TIP3    H2 1990   6.821   2.696   0.447 -1.1399  0.0088  1.1095
  683TIP3   OH2 1991   0.458   3.086   1.657  0.1984 -0.1759 -0.0159
  683TIP3    H1 1992   0.368   3.117   1.644 -0.2826 -1.5055  0.0971
  683TIP3    H2 1993   0.486   3.128   1.738 -0.5093 -0.1821  0.2324
  684TIP3   OH2 1994   2.885   3.097   2.774  0.3655  0.4548 -0.1337
  684TIP3    H1 1995   2.970   3.137   2.755  0.6474  0.5849  1.3141
  684TIP3    H2 1996   2.903   3.033   2.842 -0.4673 -0.5584 -0.8498
  685TIP3   OH2 1997   0.502   2.753   1.896 -0.2938  0.1984  0.2765
  685TIP3    H1 1998   0.510   2.793   1.810 -0.9873  0.0162  0.1214
  685TIP3    H2 1999   0.417   2.709   1.894  0.1206 -0.6345  0.7129
  686TIP3   OH2 2000   6.763   0.466   6.898 -0.2336  0.0385 -0.3838
  686TIP3    H1 2001   6.694   0.403   6.920  1.4212 -1.6869 -0.0542
  686TIP3    H2 2002   6.807   0.483   6.981  1.1541 -0.5979 -0.9743
  687TIP3   OH2 2003   1.007   4.028   1.966 -0.9911 -0.3917  0.2525
  687TIP3    H1 2004   0.950   4.104   1.972 -0.4610  0.0576 -0.2794
  687TIP3    H2 2005   1.076   4.044   2.030 -0.4147 -0.0068 -0.4469
  688TIP3   OH2 2006   1.630   3.053   0.507 -0.4867  0.0492  0.2598
  688TIP3    H1 2007   1.675   3.102   0.576 -2.3441  1.0064  0.8392
  688TIP3    H2 2008   1.575   3.118   0.463  1.5864 -0.2686 -2.9852
  689TIP3   OH2 2009   2.063   6.068   6.932 -0.1524  0.2891  0.3235
  689TIP3    H1 2010   1.991   6.129   6.948  0.5408  1.2777 -0.3575
  689TIP3    H2 2011   2.108   6.102   6.855  1.0003 -0.3757  0.6912
  690TIP3   OH2 2012   8.425   2.721   1.116 -1.0173  0.2957  0.0976
  690TIP3    H1 2013   8.510   2.716   1.160 -1.3189  0.8619  0.7583
  690TIP3    H2 2014   8.441   2.777   1.040 -0.5435 -0.5117 -0.3983
  691TIP3   OH2 2015   7.898   2.526   0.430  0.5305  0.0717  0.1970
  691TIP3    H1 2016   7.860   2.438   0.432  0.7052 -0.0070  0.0778
  691TIP3    H2 2017   7.932   2.535   0.341  0.6325  0.2103  0.2508
  692TIP3   OH2 2018   1.621   3.378   1.883 -0.0604  0.2700  0.2453
  692TIP3    H1 2019   1.608   3.294   1.926 -0.0485 -1.5498 -3.1559
  692TIP3    H2 2020   1.693   3.418   1.931  1.0842 -2.4353  0.8936
  693TIP3   OH2 2021   7.698   2.708   1.495  0.1462  0.1207  0.9278
  693TIP3    H1 2022   7.665   2.797   1.481 -0.4609 -0.0490  1.2557
  693TIP3    H2 2023   7.700   2.669   1.407 -0.0940  0.2830  0.8501
  694TIP3   OH2 2024   0.935   3.604   2.124  0.1715 -0.1761 -0.2024
  694TIP3    H1 2025   0.898   3.675   2.071  0.9312  0.0985 -0.3667
  694TIP3    H2 2026   0.991   3.556   2.063  0.6829 -0.1425  0.2391
  695TIP3   OH2 2027   0.233   2.454   1.484 -0.1145 -0.4467 -0.0854
  695TIP3    H1 2028   0.221   2.546   1.506  0.7890 -0.6420  1.2457
  695TIP3    H2 2029   0.144   2.420   1.474 -0.4590  0.4476 -0.0892
  696TIP3   OH2 2030   0.356   1.995   1.474 -0.0337 -0.1235 -0.1280
  696TIP3    H1 2031   0.335   1.903   1.489  0.6048 -0.0639  1.2382
  696TIP3    H2 2032   0.352   2.006   1.379  0.0742 -1.6086 -0.3152
  697TIP3   OH2 2033   0.614   4.234   1.022 -0.7678  0.2750 -0.5223
  697TIP3    H1 2034   0.527   4.252   0.985  0.0377 -0.7282 -3.0358
  697TIP3    H2 2035   0.610   4.142   1.049 -1.2394  0.9077  1.6910
  698TIP3   OH2 2036   0.561   1.497   5.849 -0.3967 -0.2503 -0.2538
  698TIP3    H1 2037   0.530   1.490   5.939 -1.4734  0.0160 -0.5999
  698TIP3    H2 2038   0.494   1.454   5.796 -0.2411  0.4197 -1.0220
  699TIP3   OH2 2039   1.704   3.684   2.603  0.2230 -0.1086  0.1591
  699TIP3    H1 2040   1.686   3.619   2.670 -0.0918 -2.4909 -2.1384
  699TIP3    H2 2041   1.683   3.768   2.643 -1.3949 -1.6057  2.4939
  700TIP3   OH2 2042   7.961   3.123   2.861 -0.0363  0.0034  0.8809
  700TIP3    H1 2043   8.007   3.166   2.789 -1.0728  0.5790  0.5557
  700TIP3    H2 2044   8.012   3.044   2.878  1.3528  0.8759  0.8590
  701TIP3   OH2 2045   3.371   4.349   1.353  0.0331 -0.3863 -0.2340
  701TIP3    H1 2046   3.320   4.430   1.364  0.0703 -0.7408  2.7554
  701TIP3    H2 2047   3.306   4.280   1.348  0.0700 -0.3629 -1.2215
  702TIP3   OH2 2048   1.566   2.183   0.388 -0.4809  0.1804 -0.2105
  702TIP3    H1 2049   1.572   2.210   0.297  0.8350  0.6864  0.0244
  702TIP3    H2 2050   1.512   2.103   0.386 -1.0105  0.5621 -1.3408
  703TIP3   OH2 2051   4.119   4.563   0.613 -0.0360 -0.1339 -0.1771
  703TIP3    H1 2052   4.177   4.639   0.612  1.1723 -0.9388  2.4889
  703TIP3    H2 2053   4.055   4.580   0.545 -0.5893  3.8946  1.2046
  704TIP3   OH2 2054   3.185   4.790   2.336 -0.1658 -0.4287 -0.5671
  704TIP3    H1 2055   3.157   4.769   2.425  0.1161 -3.1700 -1.0835
  704TIP3    H2 2056   3.281   4.790   2.340 -0.1547  0.0425 -0.7477
  705TIP3   OH2 2057   8.129   0.268   6.753  0.2372 -0.1764  0.1668
  705TIP3    H1 2058   8.055   0.254   6.694  0.4457 -1.3144  0.1598
  705TIP3    H2 2059   8.195   0.204   6.725  1.7868  1.7680 -0.7358
  706TIP3   OH2 2060   3.437   2.751   0.967 -0.3634  0.3378 -0.1754
  706TIP3    H1 2061   3.498   2.684   0.936 -0.7245 -0.3420  0.5631
  706TIP3    H2 2062   3.364   2.748   0.904 -0.7625 -0.5430  0.3195
  707TIP3   OH2 2063   3.162   1.771   0.326  0.4289  0.1360 -0.0616
  707TIP3    H1 2064   3.256   1.755   0.334  1.1868  5.2105  3.7746
  707TIP3    H2 2065   3.155   1.843   0.263 -0.8116  0.0705 -0.0089
  708TIP3   OH2 2066   2.092   2.325   0.260  0.1628  0.1610  0.5550
  708TIP3    H1 2067   2.004   2.300   0.285 -0.7584  3.2056  0.5432
  708TIP3    H2 2068   2.116   2.395   0.320  2.1842  0.1004 -0.1207
  709TIP3   OH2 2069   2.823   2.195   0.112 -0.0833  0.1081  1.2991
  709TIP3    H1 2070   2.875   2.273   0.091 -0.4339  0.7471  2.7814
  709TIP3    H2 2071   2.733   2.219   0.090  0.0642 -0.5756 -0.1074
  710TIP3   OH2 2072   2.079   2.810   3.022  0.4852 -0.0241  0.0612
  710TIP3    H1 2073   2.095   2.790   3.114  0.0795 -2.3830 -0.3313
  710TIP3    H2 2074   2.138   2.751   2.975 -1.0712 -0.5908 -1.2167
  711TIP3   OH2 2075   2.697   3.240   2.623  0.6835  0.4787  0.2878
  711TIP3    H1 2076   2.676   3.174   2.558  2.4909  2.2529 -2.1845
  711TIP3    H2 2077   2.769   3.202   2.673  1.5671  0.4581 -0.9744
  712TIP3   OH2 2078   1.778   3.231   0.698 -0.0923 -0.1668 -0.4433
  712TIP3    H1 2079   1.873   3.245   0.694 -0.0763 -0.5443 -1.4691
  712TIP3    H2 2080   1.744   3.310   0.741  0.8179 -0.6358  1.1642
  713TIP3   OH2 2081   3.075   0.671   0.388  0.2825 -0.2124 -0.0450
  713TIP3    H1 2082   3.116   0.697   0.470  0.5397 -0.4174 -0.1092
  713TIP3    H2 2083   3.033   0.587   0.407  0.0448 -0.0902 -0.0284
  714TIP3   OH2 2084   1.783   2.414   0.570  0.0645  0.3517 -0.1522
  714TIP3    H1 2085   1.719   2.459   0.516 -2.2928 -2.0154  0.5756
  714TIP3    H2 2086   1.764   2.443   0.659  3.3328  3.5152 -0.3447
  715TIP3   OH2 2087   0.514   3.643   3.978 -0.1661 -0.7271 -0.1078
  715TIP3    H1 2088   0.601   3.644   4.018 -0.9091 -2.7910  1.6935
  715TIP3    H2 2089   0.457   3.612   4.048 -2.1452 -0.7358 -1.6953
  716TIP3   OH2 2090   8.177   0.894   5.909 -0.6242 -0.5627  0.7511
  716TIP3    H1 2091   8.209   0.845   5.834  0.4110  0.4136  0.5277
  716TIP3    H2 2092   8.112   0.954   5.873 -1.4762 -1.3757  0.9328
  717TIP3   OH2 2093   1.624   3.923   0.539  0.4196  0.0382 -0.2481
  717TIP3    H1 2094   1.718   3.910   0.533  0.4501  0.1453  0.0164
  717TIP3    H2 2095   1.590   3.839   0.569  0.4874  0.1731  0.2068
  718TIP3   OH2 2096   3.689   7.317   6.743  0.3474  0.4707 -0.2029
  718TIP3    H1 2097   3.629   7.387   6.715 -0.2826 -0.9125 -2.4719
  718TIP3    H2 2098   3.633   7.257   6.792  0.7709  1.2493  1.2551
  719TIP3   OH2 2099   2.186   4.476   0.244  0.5289 -0.3510  0.7167
  719TIP3    H1 2100   2.100   4.434   0.234 -0.3048  1.0465  1.8156
  719TIP3    H2 2101   2.222   4.478   0.156 -2.1311  2.2844 -0.4174
  720TIP3   OH2 2102   2.492   5.528   2.682  0.2748  0.1413 -0.1231
  720TIP3    H1 2103   2.407   5.539   2.724  0.4492 -0.7791  0.4761
  720TIP3    H2 2104   2.532   5.615   2.686 -1.0760  0.8372 -1.3836
  721TIP3   OH2 2105   5.649   6.986   5.200 -0.0940 -0.5803  0.7758
  721TIP3    H1 2106   5.742   6.977   5.180 -0.8963 -4.3182 -1.6203
  721TIP3    H2 2107   5.611   7.021   5.119 -0.7653  1.4058  1.9094
  722TIP3   OH2 2108   1.551   5.466   2.465 -1.0635  0.1017  0.1026
  722TIP3    H1 2109   1.579   5.418   2.387 -1.7617  1.2282 -0.8545
  722TIP3    H2 2110   1.465   5.501   2.442 -1.4522  0.1081  1.5253
  723TIP3   OH2 2111   4.247   5.264   6.478  0.4212 -0.4927 -0.0614
  723TIP3    H1 2112   4.240   5.359   6.470 -0.1375 -0.4904  0.3843
  723TIP3    H2 2113   4.279   5.235   6.392  0.2423  0.0613 -0.3211
  724TIP3   OH2 2114   2.173   1.467   1.787 -0.2832  0.9560 -0.0534
  724TIP3    H1 2115   2.081   1.482   1.768  0.3956  2.9110 -1.9388
  724TIP3    H2 2116   2.206   1.419   1.711  0.2768  0.3106  0.5853
  725TIP3   OH2 2117   8.317   4.977   2.109 -1.0059  0.3308  0.1722
  725TIP3    H1 2118   8.266   4.896   2.100 -2.0692  0.7731  1.9249
  725TIP3    H2 2119   8.330   4.986   2.204  0.4666  1.3833 -0.1220
  726TIP3   OH2 2120   1.433   4.333   3.761 -0.0749  0.6098  0.1738
  726TIP3    H1 2121   1.519   4.331   3.802  1.5515 -0.2761 -3.0837
  726TIP3    H2 2122   1.408   4.241   3.752  0.3086  0.7011 -2.1237
  727TIP3   OH2 2123   0.919   3.490   1.335  0.4602 -0.2382 -0.3552
  727TIP3    H1 2124   0.952   3.512   1.422  1.5469 -0.1087 -0.7898
  727TIP3    H2 2125   0.825   3.508   1.340  0.5680  0.0839  0.6885
  728TIP3   OH2 2126   5.770   6.634   5.468 -0.2066  0.4076  0.4060
  728TIP3    H1 2127   5.862   6.638   5.442 -0.7568 -0.2298 -1.6969
  728TIP3    H2 2128   5.743   6.545   5.446 -1.3019  0.5501  1.1405
  729TIP3   OH2 2129   2.971   4.277   0.668  0.6262  0.1208 -0.9941
  729TIP3    H1 2130   3.044   4.217   0.654 -1.0564 -3.2830  3.8699
  729TIP3    H2 2131   3.010   4.353   0.710  2.1086  0.7063 -3.3303
  730TIP3   OH2 2132   2.599   4.211   0.815  0.0131 -0.0443 -0.5289
  730TIP3    H1 2133   2.659   4.162   0.759 -0.5655  0.0245 -1.2282
  730TIP3    H2 2134   2.534   4.246   0.754 -2.9841 -3.3184  0.5849
  731TIP3   OH2 2135   2.447   4.823   1.168  0.0136 -0.0445  0.2613
  731TIP3    H1 2136   2.359   4.792   1.146 -0.3148  0.4700  0.8332
  731TIP3    H2 2137   2.490   4.747   1.209  0.2929 -0.7025 -1.2262
  732TIP3   OH2 2138   5.755   7.601   6.146 -0.0885  0.5177  0.0440
  732TIP3    H1 2139   5.850   7.616   6.147  0.2538 -1.5732  1.6753
  732TIP3    H2 2140   5.742   7.539   6.075 -0.2954  1.1016 -0.4325
  733TIP3   OH2 2141   7.441   2.414   3.301  0.3480 -0.4869 -0.5046
  733TIP3    H1 2142   7.454   2.366   3.383  1.0385 -0.0529 -0.3557
  733TIP3    H2 2143   7.489   2.496   3.314 -1.0377  0.3593 -0.6421
  734TIP3   OH2 2144   8.502   4.888   1.281  0.0275  0.5259  0.3255
  734TIP3    H1 2145   8.421   4.887   1.230  0.9878  1.1235 -1.2460
  734TIP3    H2 2146   8.514   4.979   1.307  1.2476  0.8170 -1.1931
  735TIP3   OH2 2147   1.260   2.967   1.766  0.2478 -0.3087  0.0809
  735TIP3    H1 2148   1.254   2.888   1.820 -0.4980 -0.5048 -0.2825
  735TIP3    H2 2149   1.353   2.989   1.766  0.5555 -1.5821 -0.3945
  736TIP3   OH2 2150   0.372   3.906   0.965  0.2552 -0.0938  0.0977
  736TIP3    H1 2151   0.416   3.894   0.881 -0.1294 -0.8178 -0.0028
  736TIP3    H2 2152   0.289   3.860   0.955  0.6878 -1.1688  1.2628
  737TIP3   OH2 2153   6.170   0.960   6.407 -0.5350  0.0791 -0.1043
  737TIP3    H1 2154   6.135   0.871   6.416  0.0800 -0.1333  0.1789
  737TIP3    H2 2155   6.107   1.015   6.454  0.9076 -0.6277  2.7867
  738TIP3   OH2 2156   7.182   4.003   1.224  0.0538 -0.0531  0.0528
  738TIP3    H1 2157   7.194   3.908   1.222 -0.0999 -0.0396 -2.2831
  738TIP3    H2 2158   7.157   4.021   1.315  0.3805 -2.1983  0.6094
  739TIP3   OH2 2159   1.232   1.014   3.715 -0.3670  0.0973 -0.0750
  739TIP3    H1 2160   1.189   1.063   3.646 -1.0907 -0.6573 -0.1712
  739TIP3    H2 2161   1.246   1.077   3.786 -0.1755  0.7203 -0.6704
  740TIP3   OH2 2162   7.984   0.027   6.155 -1.0421  0.5459 -0.2584
  740TIP3    H1 2163   7.901   0.031   6.202 -1.7903  0.1978 -1.5293
  740TIP3    H2 2164   7.963   0.057   6.066 -0.3461 -2.0377 -1.3254
  741TIP3   OH2 2165   1.660   2.700   2.167  0.0794  0.2039 -0.1103
  741TIP3    H1 2166   1.573   2.691   2.206  0.7726 -0.9619  1.2520
  741TIP3    H2 2167   1.645   2.695   2.073 -1.3750  0.4971  0.0947
  742TIP3   OH2 2168   1.580   3.580   3.295 -0.6825 -0.2029 -0.2754
  742TIP3    H1 2169   1.641   3.534   3.237 -2.6830  0.0746 -2.6727
  742TIP3    H2 2170   1.624   3.663   3.315  1.6553 -1.8452  1.7040
  743TIP3   OH2 2171   3.719   5.617   0.524  0.0493  0.2770 -0.1244
  743TIP3    H1 2172   3.795   5.560   0.524  0.5182  0.8888  0.7046
  743TIP3    H2 2173   3.660   5.579   0.458  0.8334 -0.4993 -0.3865
  744TIP3   OH2 2174   8.064   4.829   1.538 -0.5432  0.1898  0.5876
  744TIP3    H1 2175   8.140   4.865   1.492 -0.4065 -0.7062  0.1034
  744TIP3    H2 2176   7.989   4.869   1.495 -0.3457  3.1120  2.7323
  745TIP3   OH2 2177   0.429   4.275   1.255 -0.0762 -0.3630  0.0133
  745TIP3    H1 2178   0.521   4.280   1.230 -0.8319  0.4116 -2.7749
  745TIP3    H2 2179   0.410   4.362   1.290 -0.2737  0.1881 -1.4240
  746TIP3   OH2 2180   3.114   4.750   1.020 -0.3443 -0.2905  0.3629
  746TIP3    H1 2181   3.173   4.675   1.022  0.4046  0.2468 -1.0978
  746TIP3    H2 2182   3.155   4.814   1.079 -1.0474 -1.0682  1.7026
  747TIP3   OH2 2183   2.956   1.703   1.499 -0.0183  0.1471 -0.1645
  747TIP3    H1 2184   2.975   1.771   1.564  0.3953 -0.1583  0.0345
  747TIP3    H2 2185   2.948   1.751   1.417  0.3481  0.4358 -0.0384
  748TIP3   OH2 2186   1.440   3.224   0.421 -0.7166 -0.2429  0.2069
  748TIP3    H1 2187   1.470   3.280   0.349 -1.1680  0.1262  0.3023
  748TIP3    H2 2188   1.401   3.285   0.484  1.3651 -0.3298  1.6424
  749TIP3   OH2 2189   0.231   0.805   1.653  0.2148 -0.1047 -0.2409
  749TIP3    H1 2190   0.217   0.895   1.680 -0.4020 -0.5695  0.9789
  749TIP3    H2 2191   0.150   0.759   1.674  0.9705 -1.2245  0.3137
  750TIP3   OH2 2192   1.940   1.237   0.356  0.0455  0.2787  0.3912
  750TIP3    H1 2193   1.988   1.168   0.402  0.9136 -0.1320 -1.0896
  750TIP3    H2 2194   1.871   1.191   0.309  1.0103  0.3324 -1.1001
  751TIP3   OH2 2195   0.519   3.258   2.894  0.9113 -0.4539  0.0509
  751TIP3    H1 2196   0.551   3.220   2.813  0.4847  1.6842 -1.1495
  751TIP3    H2 2197   0.597   3.270   2.948  1.6618  1.2492 -1.3847
  752TIP3   OH2 2198   1.803   3.577   1.194  0.2121  0.0759  0.0379
  752TIP3    H1 2199   1.738   3.516   1.157  0.7991  0.0145 -0.9060
  752TIP3    H2 2200   1.834   3.533   1.273  0.1780 -0.5719 -0.3035
  753TIP3   OH2 2201   2.479   4.391   4.149 -0.2855  0.4023  0.9265
  753TIP3    H1 2202   2.495   4.336   4.226  0.2445 -0.3612  0.2820
  753TIP3    H2 2203   2.481   4.480   4.183  2.2231  0.2045  1.4511
  754TIP3   OH2 2204   0.262   0.743   0.377  0.3157  0.0048  0.0743
  754TIP3    H1 2205   0.213   0.663   0.358 -0.3817 -0.0656  2.1286
  754TIP3    H2 2206   0.195   0.809   0.395  0.9024  0.9235 -0.9474
  755TIP3   OH2 2207   4.195   5.685   0.868  0.3571 -0.2223 -0.4393
  755TIP3    H1 2208   4.208   5.592   0.888  0.7121 -0.4875 -1.8914
  755TIP3    H2 2209   4.210   5.729   0.952 -0.3817 -1.5138  0.4006
  756TIP3   OH2 2210   3.858   3.441   1.359  0.0991  0.4352 -0.0021
  756TIP3    H1 2211   3.949   3.424   1.384  0.1436  0.3665 -0.2095
  756TIP3    H2 2212   3.864   3.513   1.296 -0.1113  1.4244  1.0793
  757TIP3   OH2 2213   1.156   3.218   1.814 -0.5048  0.1345  0.3347
  757TIP3    H1 2214   1.238   3.260   1.788 -0.5180  0.6190  1.0736
  757TIP3    H2 2215   1.169   3.125   1.793 -0.1223  0.3622 -0.4221
  758TIP3   OH2 2216   0.139   3.761   2.637  0.0538 -0.1398 -0.4391
  758TIP3    H1 2217   0.232   3.757   2.659  0.3095  0.2497 -1.4410
  758TIP3    H2 2218   0.094   3.732   2.717  1.0884 -1.9254 -0.4786
  759TIP3   OH2 2219   1.261   3.971   0.535 -0.2714 -0.0022  0.0096
  759TIP3    H1 2220   1.277   3.939   0.447 -0.3974 -2.5103  0.8704
  759TIP3    H2 2221   1.320   3.920   0.591 -0.6244  1.1331  1.4679
  760TIP3   OH2 2222   1.960   3.410   1.788  0.6377 -0.5906 -0.1449
  760TIP3    H1 2223   1.924   3.437   1.873 -0.3075 -0.7200 -0.5011
  760TIP3    H2 2224   1.944   3.484   1.730 -0.6105 -1.3147 -0.7430
  761TIP3   OH2 2225   5.314   5.863   5.446  0.1832  0.2288 -0.0922
  761TIP3    H1 2226   5.282   5.834   5.361  0.8126 -0.6743 -0.0231
  761TIP3    H2 2227   5.408   5.877   5.433  0.7618 -2.3615  1.0900
  762TIP3   OH2 2228   5.277   7.236   4.816 -0.2510 -0.2932 -0.3010
  762TIP3    H1 2229   5.310   7.323   4.793 -1.0357  0.2792  0.7048
  762TIP3    H2 2230   5.201   7.224   4.760 -1.6380  0.7339  1.3166
  763TIP3   OH2 2231   3.474   5.566   3.558  0.0200 -0.5280  1.0968
  763TIP3    H1 2232   3.385   5.597   3.543  0.5237  0.3190 -0.1775
  763TIP3    H2 2233   3.470   5.472   3.541 -0.1519 -0.1321 -1.2546
  764TIP3   OH2 2234   0.015   1.245   6.025  0.1620  0.0360 -0.3995
  764TIP3    H1 2235   0.011   1.176   6.091  0.4951 -0.3493 -0.7808
  764TIP3    H2 2236   0.101   1.234   5.983 -0.5394 -0.5034 -1.7306
  765TIP3   OH2 2237   4.711   4.867   0.121  1.0413  0.6170  0.1388
  765TIP3    H1 2238   4.756   4.940   0.164 -0.6676  2.0431 -0.4527
  765TIP3    H2 2239   4.634   4.907   0.080 -0.0594 -1.5637  0.0270
  766TIP3   OH2 2240   0.692   3.428   1.550  0.2886 -0.3699  0.2928
  766TIP3    H1 2241   0.749   3.499   1.578  0.5047 -0.9411  1.3039
  766TIP3    H2 2242   0.630   3.417   1.622 -0.7775 -0.1118 -0.5657
  767TIP3   OH2 2243   1.846   6.872   6.788  0.0552 -0.2392 -0.8412
  767TIP3    H1 2244   1.754   6.894   6.797  0.2860  0.6939 -0.6659
  767TIP3    H2 2245   1.892   6.949   6.821  0.8930 -0.9557 -0.2930
  768TIP3   OH2 2246   3.191   3.492   1.919 -0.0683  0.7896  0.1318
  768TIP3    H1 2247   3.148   3.498   1.834 -1.3277 -0.0902  0.6876
  768TIP3    H2 2248   3.201   3.582   1.948 -2.9453  0.9523  0.6802
  769TIP3   OH2 2249   1.413   3.277   1.719 -0.4639 -0.1303 -0.4199
  769TIP3    H1 2250   1.454   3.327   1.789 -1.7805  0.4054 -0.0353
  769TIP3    H2 2251   1.468   3.199   1.711  0.5161  0.4760  0.2281
  770TIP3   OH2 2252   1.981   4.704   0.860 -0.1466  0.6525 -0.5701
  770TIP3    H1 2253   1.918   4.640   0.893 -1.3434  1.8766 -0.4632
  770TIP3    H2 2254   2.065   4.658   0.864 -1.0652 -1.1182 -1.0544
  771TIP3   OH2 2255   0.257   1.779   0.623 -0.5076 -0.5784 -0.2655
  771TIP3    H1 2256   0.286   1.775   0.714 -0.0761  2.0122 -0.2511
  771TIP3    H2 2257   0.325   1.732   0.574  0.9250  0.7113  0.4126
  772TIP3   OH2 2258   1.955   4.751   3.411 -0.3171  0.0768  0.1145
  772TIP3    H1 2259   2.028   4.693   3.433  0.1953  1.1312  1.2799
  772TIP3    H2 2260   1.950   4.812   3.485 -0.9338  1.4235 -1.0102
  773TIP3   OH2 2261   1.859   6.250   1.934  0.1441 -0.4560 -0.5182
  773TIP3    H1 2262   1.845   6.264   2.028 -1.2911 -0.4200 -0.7286
  773TIP3    H2 2263   1.786   6.196   1.907  1.9494 -2.6417 -1.1263
  774TIP3   OH2 2264   0.820   1.086   2.190 -0.4733  0.3014  0.2810
  774TIP3    H1 2265   0.775   1.012   2.149  1.3818  0.3703 -1.9803
  774TIP3    H2 2266   0.824   1.153   2.122 -0.4496  1.7705  1.7003
  775TIP3   OH2 2267   1.070   1.154   6.652 -0.5121  0.0151 -0.6387
  775TIP3    H1 2268   1.036   1.119   6.734 -0.4701  2.0246  0.2780
  775TIP3    H2 2269   1.156   1.189   6.676 -1.4928  2.7352 -0.9784
  776TIP3   OH2 2270   1.682   2.252   2.146  0.0494 -0.2834  0.1744
  776TIP3    H1 2271   1.772   2.262   2.179  1.4493 -1.0376 -3.1884
  776TIP3    H2 2272   1.680   2.163   2.110 -1.7948  0.0462 -0.5747
  777TIP3   OH2 2273   3.313   3.126   1.996 -0.0572 -0.1899 -0.3233
  777TIP3    H1 2274   3.242   3.181   1.965 -2.5324 -2.3437  1.3127
  777TIP3    H2 2275   3.348   3.084   1.918 -1.9699 -0.6798 -0.9308
  778TIP3   OH2 2276   5.442   7.849   6.493 -0.3107 -0.6384  0.4536
  778TIP3    H1 2277   5.511   7.803   6.445  0.2463 -0.7444  1.3316
  778TIP3    H2 2278   5.363   7.834   6.442  0.0494 -1.7507  0.2073
  779TIP3   OH2 2279   1.828   2.282   0.288  0.0520  0.0335 -0.1090
  779TIP3    H1 2280   1.748   2.275   0.235 -0.6963  0.7824  0.8774
  779TIP3    H2 2281   1.807   2.235   0.369  0.6556  0.1387  0.1117
  780TIP3   OH2 2282   5.563   0.419   2.481  0.0209  0.5518 -0.0057
  780TIP3    H1 2283   5.553   0.367   2.401 -1.0064 -1.1834  1.2104
  780TIP3    H2 2284   5.531   0.506   2.456  0.3713  0.2324 -1.6673
  781TIP3   OH2 2285   2.556   3.796   0.546 -0.4632  0.6420  0.3627
  781TIP3    H1 2286   2.521   3.882   0.567 -0.3654  0.3770  1.6906
  781TIP3    H2 2287   2.614   3.810   0.472 -0.5816  1.6832  0.4666
  782TIP3   OH2 2288   1.802   5.167   1.507  0.3414  0.2380  0.1676
  782TIP3    H1 2289   1.814   5.257   1.537 -1.3550  0.2826  0.7975
  782TIP3    H2 2290   1.784   5.175   1.414  2.3266  0.3696 -0.2138
  783TIP3   OH2 2291  -0.018   3.509   2.626  0.1531 -0.0005 -0.6520
  783TIP3    H1 2292   0.052   3.572   2.607 -0.2780  0.5609 -0.3943
  783TIP3    H2 2293  -0.014   3.497   2.721 -0.5585  0.5730 -0.5477
  784TIP3   OH2 2294   0.272   4.980   2.867 -0.0518  0.1540  0.2010
  784TIP3    H1 2295   0.220   5.039   2.921  1.0714  0.1589  1.2866
  784TIP3    H2 2296   0.207   4.934   2.813 -1.1267  0.5870  1.1117
  785TIP3   OH2 2297   1.865   3.380   1.373  0.1553  0.1470  0.0196
  785TIP3    H1 2298   1.827   3.293   1.383 -0.9939  0.6883  0.5360
  785TIP3    H2 2299   1.859   3.420   1.460  1.8539  0.2903  0.0893
  786TIP3   OH2 2300   6.770   0.424   6.599 -0.1131 -0.3926  0.2004
  786TIP3    H1 2301   6.844   0.363   6.594 -0.2460 -0.5933  0.6462
  786TIP3    H2 2302   6.754   0.435   6.693 -0.0848  0.3366  0.1240
  787TIP3   OH2 2303   1.395   2.578   3.025  0.3353 -0.1206  0.3391
  787TIP3    H1 2304   1.446   2.656   3.002  0.2537 -0.0891  0.2649
  787TIP3    H2 2305   1.308   2.612   3.045 -0.4356 -0.4590 -2.2371
  788TIP3   OH2 2306   3.255   4.022   2.081  0.4115 -0.3028 -0.1860
  788TIP3    H1 2307   3.211   3.993   2.002  1.0591  0.9808 -1.0334
  788TIP3    H2 2308   3.211   4.104   2.104  1.0769 -0.0114  0.0569
  789TIP3   OH2 2309   1.694   3.146   2.663  0.1587 -0.4966  0.2008
  789TIP3    H1 2310   1.670   3.096   2.740 -2.2504 -0.4748 -0.4949
  789TIP3    H2 2311   1.760   3.092   2.618  0.3733 -1.2393  1.4034
  790TIP3   OH2 2312   1.073   2.926   1.541 -0.2621  0.0797 -0.7719
  790TIP3    H1 2313   1.124   2.961   1.467  0.2949  2.0233  0.4964
  790TIP3    H2 2314   1.135   2.921   1.613 -1.3798  0.5800  0.2457
  791TIP3   OH2 2315   4.202   5.640   6.863 -0.4930 -0.1938  0.6648
  791TIP3    H1 2316   4.152   5.561   6.886 -1.0999  0.2157  0.7674
  791TIP3    H2 2317   4.163   5.669   6.780  0.6297 -0.7665 -0.0711
  792TIP3   OH2 2318   4.388   4.734   3.352 -0.1911  0.2937 -0.1960
  792TIP3    H1 2319   4.376   4.820   3.393 -1.2295 -0.0136  0.1415
  792TIP3    H2 2320   4.447   4.688   3.411  0.0958  0.6502 -0.1997
  793TIP3   OH2 2321   1.192   0.886   1.753  0.3577 -0.0473  0.1312
  793TIP3    H1 2322   1.238   0.917   1.832 -1.5763  0.4982  1.0762
  793TIP3    H2 2323   1.149   0.805   1.781  1.9997 -1.3915 -1.1834
  794TIP3   OH2 2324   2.429   1.172   0.658  0.2846 -0.6176 -0.2071
  794TIP3    H1 2325   2.463   1.234   0.594 -3.6837  0.8556 -1.0196
  794TIP3    H2 2326   2.447   1.213   0.743 -3.0006  2.1252 -0.7542
  795TIP3   OH2 2327   0.966   2.959   0.532 -0.5148  0.0583 -0.6735
  795TIP3    H1 2328   0.905   2.902   0.486 -0.6924  0.7166 -1.2453
  795TIP3    H2 2329   1.053   2.925   0.508 -0.6355 -0.4691 -0.3727
  796TIP3   OH2 2330   3.678   3.218   1.252 -0.3267 -0.1626  0.5425
  796TIP3    H1 2331   3.596   3.264   1.240  0.3715  0.0740 -3.9053
  796TIP3    H2 2332   3.734   3.281   1.298 -1.4083  1.0586  0.2075
  797TIP3   OH2 2333   1.398   2.043   2.062 -0.3161 -0.1493 -0.4109
  797TIP3    H1 2334   1.335   1.984   2.103  1.3730 -1.4393  0.3861
  797TIP3    H2 2335   1.362   2.131   2.077 -2.7316 -0.9329 -1.4051
  798TIP3   OH2 2336   2.006   2.993   0.907  0.0147 -0.3101 -0.3008
  798TIP3    H1 2337   2.031   2.922   0.849  0.2611 -0.0477 -0.5189
  798TIP3    H2 2338   2.085   3.047   0.915  0.0498 -0.4566  0.4457
  799TIP3   OH2 2339   2.559   1.339   0.472  0.3001  0.4801  0.5105
  799TIP3    H1 2340   2.510   1.386   0.405 -0.6220 -1.1963 -0.0233
  799TIP3    H2 2341   2.616   1.280   0.422  1.2859  0.8737  1.1684
  800TIP3   OH2 2342   0.759   3.024   3.135 -0.2629 -0.7734 -0.2900
  800TIP3    H1 2343   0.692   2.956   3.132 -0.2493 -0.7582 -1.0654
  800TIP3    H2 2344   0.776   3.037   3.228 -1.2118 -0.9039 -0.0905
  801TIP3   OH2 2345   2.270   2.299   4.485  0.6490 -0.3954  0.4309
  801TIP3    H1 2346   2.190   2.323   4.531  0.4876  0.0878 -0.1087
  801TIP3    H2 2347   2.283   2.206   4.506  1.2791  0.1396  2.5263
  802TIP3   OH2 2348   1.544   1.312   2.495  0.1259  0.6643  0.4652
  802TIP3    H1 2349   1.547   1.318   2.399  0.7900 -2.1927  0.2846
  802TIP3    H2 2350   1.590   1.391   2.525  0.8482  1.0376 -1.5763
  803TIP3   OH2 2351   1.762   2.326   2.918  0.6870 -0.0762 -0.3238
  803TIP3    H1 2352   1.852   2.300   2.939  0.2894 -1.2841 -0.0963
  803TIP3    H2 2353   1.761   2.421   2.932  2.5276  0.3150 -2.5068
  804TIP3   OH2 2354   1.336   2.302   1.480 -0.1230 -0.9178 -0.4095
  804TIP3    H1 2355   1.431   2.309   1.489 -0.3828 -0.0197  2.0590
  804TIP3    H2 2356   1.323   2.267   1.392  2.3970  1.4490 -1.8034
  805TIP3   OH2 2357   1.172   2.732   2.649 -0.1219  0.1704  0.6986
  805TIP3    H1 2358   1.107   2.799   2.626 -1.0052 -1.2240 -0.9586
  805TIP3    H2 2359   1.252   2.782   2.668 -1.3467  1.8327  1.6584
  806TIP3   OH2 2360   6.251   0.043   6.731  0.3149 -0.3002  0.0082
  806TIP3    H1 2361   6.242   0.109   6.800  1.1694  0.6966 -0.8226
  806TIP3    H2 2362   6.295  -0.030   6.774  0.8496  0.3196  0.5251
  807TIP3   OH2 2363   2.250   3.669   2.276 -0.5185  0.0195  0.3735
  807TIP3    H1 2364   2.282   3.598   2.333  0.5839 -0.7595 -1.1884
  807TIP3    H2 2365   2.329   3.718   2.254 -0.7123 -0.5762 -1.7026
  808TIP3   OH2 2366   8.399   4.250   2.822  0.2518 -0.4902  0.7181
  808TIP3    H1 2367   8.371   4.214   2.738  1.0394  1.2075 -0.2921
  808TIP3    H2 2368   8.338   4.322   2.839  0.9699  0.0852  0.8915
  809TIP3   OH2 2369   2.831   4.645   3.796 -0.1828 -0.8648  0.2349
  809TIP3    H1 2370   2.801   4.689   3.875 -0.2242 -0.9166  0.2483
  809TIP3    H2 2371   2.858   4.558   3.826  1.8927 -0.1267  0.5697
  810TIP3   OH2 2372   3.896   6.933   2.154  0.1494 -0.7393  0.2291
  810TIP3    H1 2373   3.864   7.015   2.192  1.8201 -0.0937  0.2870
  810TIP3    H2 2374   3.863   6.934   2.064  2.1340  1.1739 -0.5174
  811TIP3   OH2 2375   2.859   4.790   1.207 -0.1243  0.0615  0.4011
  811TIP3    H1 2376   2.800   4.847   1.158  1.1876  0.2051 -1.0600
  811TIP3    H2 2377   2.946   4.829   1.195  0.5843 -1.4167  0.5673
  812TIP3   OH2 2378   1.713   4.529   0.312  0.3524  0.1934  0.1873
  812TIP3    H1 2379   1.781   4.466   0.334 -0.2309 -0.2697  0.6558
  812TIP3    H2 2380   1.761   4.610   0.295  0.9882 -0.0267  0.9057
  813TIP3   OH2 2381   2.055   3.308   0.657 -0.1380  0.0561  0.0094
  813TIP3    H1 2382   2.121   3.338   0.720 -0.5530  0.5572  0.2027
  813TIP3    H2 2383   2.080   3.217   0.639  2.4876  1.1987 -2.3594
  814TIP3   OH2 2384   1.913   3.945   0.677 -0.0726  0.2542  0.4536
  814TIP3    H1 2385   1.958   3.884   0.737  1.5709 -0.1176 -1.1142
  814TIP3    H2 2386   1.861   4.001   0.735 -2.3817 -3.2079  1.9054
  815TIP3   OH2 2387   2.965   2.855   0.390  0.3476  0.0934 -0.5201
  815TIP3    H1 2388   2.872   2.833   0.388  0.5584 -0.8220 -1.1502
  815TIP3    H2 2389   2.986   2.865   0.483 -0.7606  2.0807 -0.4673
  816TIP3   OH2 2390   3.010   3.102   0.797  0.4242 -0.6600 -0.1763
  816TIP3    H1 2391   3.003   3.182   0.744  0.0116 -1.8598 -2.0002
  816TIP3    H2 2392   2.959   3.121   0.875 -0.3729  0.5626 -0.9653
  817TIP3   OH2 2393   8.069   1.584   6.281  0.1071 -0.3506  0.4959
  817TIP3    H1 2394   8.116   1.553   6.359  1.3666  1.7920  0.6174
  817TIP3    H2 2395   8.038   1.671   6.304 -0.1485  0.0082 -1.1444
  818TIP3   OH2 2396   3.820   2.684   1.894 -0.6069  0.1652 -0.3890
  818TIP3    H1 2397   3.863   2.767   1.872  0.4868 -0.5761 -1.1022
  818TIP3    H2 2398   3.885   2.637   1.946 -1.3686 -0.0962  0.3371
  819TIP3   OH2 2399   2.987   2.144   1.166  0.1742  0.0841 -0.3352
  819TIP3    H1 2400   3.067   2.166   1.118  1.2596 -0.0644  1.3684
  819TIP3    H2 2401   2.969   2.222   1.218 -0.3024 -0.2066 -0.0652
  820TIP3   OH2 2402   3.337   4.117   2.540 -0.2418 -0.3967  0.6319
  820TIP3    H1 2403   3.427   4.121   2.571  0.0950 -1.0852 -0.2216
  820TIP3    H2 2404   3.294   4.055   2.599 -0.2207  0.1219  1.1924
  821TIP3   OH2 2405   3.224   1.281   3.754 -0.2967  0.1351  0.2608
  821TIP3    H1 2406   3.202   1.372   3.775  2.5044  0.3728  2.5570
  821TIP3    H2 2407   3.315   1.285   3.725 -0.7827 -1.7116 -1.6737
  822TIP3   OH2 2408   1.833   3.858   1.963 -1.2230 -0.0611  0.8438
  822TIP3    H1 2409   1.908   3.827   1.912 -0.7148 -1.6179  2.5165
  822TIP3    H2 2410   1.757   3.827   1.913 -0.7546 -0.1553  0.1739
  823TIP3   OH2 2411   2.847   2.744   2.668  0.2554  0.1564 -0.3077
  823TIP3    H1 2412   2.776   2.773   2.724  0.5521  2.4777 -1.0922
  823TIP3    H2 2413   2.926   2.782   2.706  0.6869  0.2418 -1.2588
  824TIP3   OH2 2414   4.743   7.401   6.472  1.0057 -0.6333  0.1559
  824TIP3    H1 2415   4.696   7.441   6.399  0.5708 -1.6774 -0.1434
  824TIP3    H2 2416   4.826   7.448   6.477  0.5770  0.1653 -0.3153
  825TIP3   OH2 2417   2.211   3.106   1.211 -0.7539  0.7473 -0.0835
  825TIP3    H1 2418   2.192   3.135   1.122 -1.4507  0.4961 -0.0184
  825TIP3    H2 2419   2.169   3.020   1.218 -1.5728  1.2095  0.8172
  826TIP3   OH2 2420   0.469   1.027   6.811 -0.5272 -0.7793  0.0487
  826TIP3    H1 2421   0.476   0.939   6.850 -0.5967 -0.8270 -0.0467
  826TIP3    H2 2422   0.388   1.024   6.760  0.1340 -1.0675 -1.0026
  827TIP3   OH2 2423   2.499   3.320   4.213 -0.2032 -0.1500  0.2595
  827TIP3    H1 2424   2.527   3.371   4.137 -0.0748 -0.6959 -0.0605
  827TIP3    H2 2425   2.562   3.248   4.218 -0.9262 -0.7937  0.1561
  828TIP3   OH2 2426   8.200   4.833   3.524 -0.1230 -0.2184  0.1169
  828TIP3    H1 2427   8.288   4.859   3.496 -0.7410  0.7423 -0.9676
  828TIP3    H2 2428   8.192   4.868   3.612  1.0806 -1.4886  0.7502
  829TIP3   OH2 2429   1.831   6.270   4.370 -0.4250 -0.3138  0.1809
  829TIP3    H1 2430   1.808   6.317   4.290 -0.4811  0.5730  0.7123
  829TIP3    H2 2431   1.808   6.179   4.352 -0.2015 -0.1619 -0.9045
  830TIP3   OH2 2432   2.300   3.315   2.514  0.0122 -0.5981  0.0652
  830TIP3    H1 2433   2.238   3.370   2.563 -0.0004 -2.1749  1.8682
  830TIP3    H2 2434   2.244   3.252   2.468  0.2281 -1.4403  0.9576
  831TIP3   OH2 2435   2.196   7.574   3.339  0.0927 -0.1968  0.1852
  831TIP3    H1 2436   2.123   7.636   3.333 -0.6862 -1.1897 -0.7333
  831TIP3    H2 2437   2.272   7.622   3.305 -0.2263  0.6744  0.6877
  832TIP3   OH2 2438   0.079   3.243   3.032  0.3231  0.3720  0.0199
  832TIP3    H1 2439   0.106   3.178   2.968 -0.4959 -1.3356  1.3761
  832TIP3    H2 2440   0.160   3.268   3.077  0.7217  0.7132 -0.8796
  833TIP3   OH2 2441   1.279   3.572   1.655  0.5434 -0.3419  0.1330
  833TIP3    H1 2442   1.184   3.582   1.667  0.6627  0.7172  0.2538
  833TIP3    H2 2443   1.297   3.482   1.681 -0.5000 -0.6929 -0.3261
  834TIP3   OH2 2444   2.589   4.376   3.113 -0.1814 -0.0882  0.8547
  834TIP3    H1 2445   2.520   4.432   3.076 -0.9213 -1.3222  0.3492
  834TIP3    H2 2446   2.664   4.388   3.054 -0.8223 -0.7687 -0.1050
  835TIP3   OH2 2447   0.952   4.885   0.876 -0.7909  0.1228  0.6341
  835TIP3    H1 2448   0.963   4.966   0.926  1.0075  0.2450  0.0818
  835TIP3    H2 2449   1.041   4.854   0.862 -1.4011 -1.1722 -0.4575
  836TIP3   OH2 2450   0.981   4.244   1.118  0.0503 -0.0489 -0.2508
  836TIP3    H1 2451   0.983   4.193   1.037 -0.4226 -0.8183  0.2054
  836TIP3    H2 2452   1.036   4.320   1.101  2.5871 -1.8386 -0.2194
  837TIP3   OH2 2453   3.216   3.648   2.798  0.5568  0.0370 -0.0522
  837TIP3    H1 2454   3.296   3.687   2.834 -1.0734  1.3253  2.3733
  837TIP3    H2 2455   3.247   3.588   2.731  3.4668  1.6403 -0.2473
  838TIP3   OH2 2456   0.483   0.860   6.594  0.4232 -0.0172 -0.5957
  838TIP3    H1 2457   0.505   0.785   6.648  0.2441 -1.0838 -1.9767
  838TIP3    H2 2458   0.501   0.936   6.649 -0.8912 -1.1023  1.3568
  839TIP3   OH2 2459   2.427   2.732   0.595 -0.1280  0.3201  1.0348
  839TIP3    H1 2460   2.476   2.814   0.582  1.1831 -0.4837  0.7622
  839TIP3    H2 2461   2.338   2.752   0.567  0.9032  0.7580 -2.1250
  840TIP3   OH2 2462   0.845   3.117   2.489 -0.0974  0.2853  0.7076
  840TIP3    H1 2463   0.891   3.195   2.458  0.6794  0.0380  1.1956
  840TIP3    H2 2464   0.801   3.083   2.412 -1.6771  2.0337  0.8197
  841TIP3   OH2 2465   7.273   3.910   0.182 -0.3413  0.0843 -0.0156
  841TIP3    H1 2466   7.204   3.903   0.115  0.9345  0.1016 -1.3645
  841TIP3    H2 2467   7.287   4.004   0.192 -0.6859  0.0879  0.4472
  842TIP3   OH2 2468   2.752   3.003   1.802  0.6758 -0.4736  0.1546
  842TIP3    H1 2469   2.754   3.094   1.831  0.8278  0.8874 -3.8808
  842TIP3    H2 2470   2.659   2.982   1.795  0.6449 -0.1960 -0.2503
  843TIP3   OH2 2471   1.578   1.443   0.170 -0.4148  0.2750  0.1894
  843TIP3    H1 2472   1.492   1.431   0.210 -0.1011 -1.8562  0.2758
  843TIP3    H2 2473   1.582   1.376   0.102  0.5237  1.4668 -0.9778
  844TIP3   OH2 2474   3.991   6.946   5.702 -0.0688  0.3131  0.4324
  844TIP3    H1 2475   3.907   6.927   5.745 -0.2611 -2.3432 -0.9803
  844TIP3    H2 2476   4.016   7.033   5.734 -3.3510  1.1512  0.8791
  845TIP3   OH2 2477   2.842   4.800   2.504  0.6882  0.9319 -0.1979
  845TIP3    H1 2478   2.849   4.804   2.408 -0.4410 -0.1690 -0.3443
  845TIP3    H2 2479   2.759   4.844   2.523  1.0140  1.3350  0.2990
  846TIP3   OH2 2480   1.690   2.585   1.395 -0.3365  0.3687 -0.3304
  846TIP3    H1 2481   1.749   2.632   1.454  0.9173 -0.3371 -1.0082
  846TIP3    H2 2482   1.728   2.597   1.308 -1.4731  0.3360 -0.8411
  847TIP3   OH2 2483   1.614   4.009   1.635 -0.0222 -0.1570 -0.1942
  847TIP3    H1 2484   1.635   4.039   1.724 -0.2132 -0.2622 -0.1118
  847TIP3    H2 2485   1.666   4.065   1.578  1.0904 -0.9414  0.0319
  848TIP3   OH2 2486   2.456   3.075   2.942 -0.2173 -0.4350  0.4263
  848TIP3    H1 2487   2.451   3.040   2.853  0.5830  1.1487 -0.2586
  848TIP3    H2 2488   2.434   3.168   2.932 -0.1872 -0.2622  1.8945
  849TIP3   OH2 2489   1.870   4.923   3.005  0.3167  0.4424  0.5321
  849TIP3    H1 2490   1.836   4.866   3.073 -1.1405  1.1756  0.4421
  849TIP3    H2 2491   1.797   4.934   2.944  0.4997  2.5717  0.6673
  850TIP3   OH2 2492   5.795   2.718   2.835  0.0104  0.0278 -0.1221
  850TIP3    H1 2493   5.810   2.813   2.831 -0.5373  0.1898  1.3425
  850TIP3    H2 2494   5.786   2.691   2.743  1.3886  1.1888 -0.6087
  851TIP3   OH2 2495   4.693   6.006   2.062  0.4237 -0.0953  0.0141
  851TIP3    H1 2496   4.735   5.958   1.991  0.2123  0.2390 -0.3352
  851TIP3    H2 2497   4.711   5.953   2.140  0.7121 -0.4258 -0.2745
  852TIP3   OH2 2498   2.410   2.372   2.540 -0.5789 -0.5779 -0.0576
  852TIP3    H1 2499   2.442   2.461   2.528  2.1548 -1.5342 -0.3616
  852TIP3    H2 2500   2.442   2.346   2.626 -2.2073 -0.9354  0.4556
  853TIP3   OH2 2501   4.080   5.541   1.934  0.4440  0.0943 -0.1065
  853TIP3    H1 2502   4.165   5.507   1.905  0.6274  0.2371  0.2626
  853TIP3    H2 2503   4.093   5.635   1.944  0.2549  0.1088  0.0070
  854TIP3   OH2 2504   2.765   4.438   1.866 -0.2879 -0.6391  0.7987
  854TIP3    H1 2505   2.807   4.395   1.791 -1.1388  0.1923 -0.1663
  854TIP3    H2 2506   2.838   4.467   1.921  0.4497  1.1799 -1.0713
  855TIP3   OH2 2507   5.189   7.227   6.169 -0.2086 -0.5295 -0.2953
  855TIP3    H1 2508   5.249   7.301   6.166 -1.4333  0.5965  1.6759
  855TIP3    H2 2509   5.123   7.247   6.102  0.0368 -0.3483 -0.4826
  856TIP3   OH2 2510   3.200   7.324   6.265  0.4995 -0.0577 -0.4359
  856TIP3    H1 2511   3.269   7.345   6.202  0.3267 -0.5055 -0.7777
  856TIP3    H2 2512   3.244   7.272   6.333  0.5438 -0.1455 -0.5330
  857TIP3   OH2 2513   3.004   4.594   1.906  0.2295 -0.1484  0.0479
  857TIP3    H1 2514   3.080   4.554   1.864  0.4411  0.9511 -0.6396
  857TIP3    H2 2515   3.035   4.619   1.993  0.8495  0.9147 -0.4780
  858TIP3   OH2 2516   2.994   6.018   0.381 -0.4928  0.6452 -0.3189
  858TIP3    H1 2517   2.923   6.050   0.436  0.4730  0.4648  1.0535
  858TIP3    H2 2518   3.072   6.023   0.436  0.2790 -0.7646 -1.2466
  859TIP3   OH2 2519   4.447   2.664   1.197 -0.7095  0.0081 -0.0704
  859TIP3    H1 2520   4.503   2.588   1.216 -0.6342  0.4425  1.5341
  859TIP3    H2 2521   4.364   2.626   1.168 -0.5290 -0.6889  0.3137
  860TIP3   OH2 2522   2.475   5.747   0.923  0.0084  0.0047 -0.1520
  860TIP3    H1 2523   2.459   5.733   0.830 -1.3594  2.0597 -0.2750
  860TIP3    H2 2524   2.390   5.735   0.964 -0.0154  2.0160  0.4297
  861TIP3   OH2 2525   0.254   3.774   1.712 -0.5953  0.3543  0.6555
  861TIP3    H1 2526   0.208   3.690   1.713 -1.8349  1.0299  0.5194
  861TIP3    H2 2527   0.329   3.758   1.654  1.2048 -1.6817  3.4293
  862TIP3   OH2 2528   2.628   3.899   1.616 -0.0448  0.0489 -0.2646
  862TIP3    H1 2529   2.668   3.918   1.531  0.3228  0.2421 -0.0515
  862TIP3    H2 2530   2.671   3.960   1.676  1.6176 -1.8913  0.5523
  863TIP3   OH2 2531   0.356   1.204   6.355 -0.1381  0.1981 -0.1480
  863TIP3    H1 2532   0.341   1.134   6.292  0.7552 -0.8774  0.8204
  863TIP3    H2 2533   0.435   1.249   6.324 -0.0401  0.0396 -0.1284
  864TIP3   OH2 2534   3.456   1.880   3.244  0.1607 -0.1719  0.4362
  864TIP3    H1 2535   3.385   1.872   3.181  0.4099  3.3316 -0.3589
  864TIP3    H2 2536   3.412   1.898   3.327  0.0473  1.3225  0.0704
  865TIP3   OH2 2537   3.293   1.406   0.406  0.1150  0.3186 -0.0506
  865TIP3    H1 2538   3.343   1.478   0.446  1.7510 -0.5009 -0.5638
  865TIP3    H2 2539   3.330   1.327   0.445 -1.6708 -0.2522  0.4972
  866TIP3   OH2 2540   2.195   5.619   1.285 -0.0771 -0.3000 -0.1745
  866TIP3    H1 2541   2.288   5.627   1.307 -0.0976 -1.0745  0.2183
  866TIP3    H2 2542   2.157   5.573   1.360 -1.1005  1.4900  0.4329
  867TIP3   OH2 2543   2.874   2.785   1.911  0.0298  0.7384 -0.4107
  867TIP3    H1 2544   2.843   2.848   1.846 -0.2708 -0.7089 -1.7201
  867TIP3    H2 2545   2.887   2.836   1.990 -0.8402  2.3168 -1.2592
  868TIP3   OH2 2546   3.291   2.780   0.750  0.6865 -0.1246  0.3271
  868TIP3    H1 2547   3.243   2.749   0.674 -1.0447  0.5312  1.1273
  868TIP3    H2 2548   3.374   2.813   0.715 -0.0943  0.1935 -1.2610
  869TIP3   OH2 2549   4.476   6.135   6.815 -0.3229  0.0488 -0.0564
  869TIP3    H1 2550   4.552   6.168   6.768 -1.0553  0.2097 -1.1571
  869TIP3    H2 2551   4.444   6.063   6.761 -0.2787 -0.7502  0.9814
  870TIP3   OH2 2552   3.315   4.705   2.051  0.0862 -0.1572  0.2747
  870TIP3    H1 2553   3.284   4.621   2.016 -1.6803  0.6243 -0.1076
  870TIP3    H2 2554   3.256   4.723   2.124  0.3358  0.8554  0.2257
  871TIP3   OH2 2555   2.619   4.787   0.851  0.4018 -0.0066 -0.4802
  871TIP3    H1 2556   2.714   4.800   0.850  0.2305  1.3867 -3.6195
  871TIP3    H2 2557   2.608   4.692   0.845  1.5875 -0.0492 -2.0848
  872TIP3   OH2 2558   2.457   4.899   0.637 -0.1238 -0.8287 -0.2437
  872TIP3    H1 2559   2.541   4.914   0.681 -0.6026  1.2510  0.0167
  872TIP3    H2 2560   2.396   4.880   0.709 -0.8681  2.3945  0.0474
  873TIP3   OH2 2561   3.582   4.321   1.977  0.7384 -0.5164  0.0932
  873TIP3    H1 2562   3.610   4.264   2.048 -0.2881 -0.1287  0.8232
  873TIP3    H2 2563   3.636   4.399   1.985  1.0656 -0.7410  0.0561
  874TIP3   OH2 2564   4.043   5.815   6.004  0.1573 -0.1542 -0.3894
  874TIP3    H1 2565   4.108   5.854   5.945  0.1880  0.0368 -0.2274
  874TIP3    H2 2566   4.092   5.752   6.056  0.2921  0.2686  0.0041
  875TIP3   OH2 2567   3.051   3.794   1.008 -0.0596 -0.3072 -0.1337
  875TIP3    H1 2568   3.031   3.887   1.005 -0.4832 -0.3344  1.4279
  875TIP3    H2 2569   3.143   3.791   1.036 -0.9141 -0.3921  2.8480
  876TIP3   OH2 2570   2.578   4.641   1.837  0.5155 -0.1296  0.2362
  876TIP3    H1 2571   2.650   4.578   1.844  0.8737  0.1583 -0.8091
  876TIP3    H2 2572   2.531   4.616   1.758 -0.6502 -0.4277  1.0274
  877TIP3   OH2 2573   7.840   1.470   5.743 -0.3417 -0.4330  0.4153
  877TIP3    H1 2574   7.873   1.530   5.810  0.1242 -0.7252  0.4486
  877TIP3    H2 2575   7.784   1.524   5.688 -0.7422 -0.1959  1.0551
  878TIP3   OH2 2576   8.010   0.560   6.437  0.0766 -0.1732  0.2830
  878TIP3    H1 2577   7.947   0.612   6.388  1.5677 -0.9453 -2.5730
  878TIP3    H2 2578   7.964   0.479   6.458 -0.0113 -0.6071 -1.5180
  879TIP3   OH2 2579   4.608   6.649   1.401  0.4105  0.2691  0.5708
  879TIP3    H1 2580   4.513   6.641   1.400  0.2968  1.5862 -0.3756
  879TIP3    H2 2581   4.640   6.560   1.416 -0.8854 -0.7125 -2.2989
  880TIP3   OH2 2582   3.778   4.241   2.877 -0.6584  0.8461  0.3840
  880TIP3    H1 2583   3.798   4.180   2.948 -1.9955 -1.2834 -1.0375
  880TIP3    H2 2584   3.711   4.299   2.914 -0.1568  0.8094  1.3814
  881TIP3   OH2 2585   5.049   2.911   1.159  0.0528 -0.1246  0.0694
  881TIP3    H1 2586   5.038   3.003   1.136  0.2072  0.3168  1.6670
  881TIP3    H2 2587   4.968   2.887   1.204  1.0020 -0.0302  1.9058
  882TIP3   OH2 2588   5.096   2.288   0.492  0.0767  0.3044  0.5339
  882TIP3    H1 2589   5.116   2.300   0.584  1.3543  1.2996  0.1434
  882TIP3    H2 2590   5.056   2.372   0.465  3.9076  1.7839 -0.8842
  883TIP3   OH2 2591   7.339   0.677   6.025  0.3172  0.4094 -0.3383
  883TIP3    H1 2592   7.301   0.760   6.054  1.1807  1.0517 -1.0384
  883TIP3    H2 2593   7.330   0.678   5.930 -0.0291 -0.4837 -0.3226
  884TIP3   OH2 2594   1.731   4.039   0.119 -0.0825  0.3680 -0.4050
  884TIP3    H1 2595   1.663   4.073   0.177 -1.8199  0.1603 -2.2358
  884TIP3    H2 2596   1.777   4.117   0.088  0.3582  0.5330  0.6561
  885TIP3   OH2 2597   0.967   2.883   0.126  0.2027  0.2166  0.5053
  885TIP3    H1 2598   0.978   2.921   0.039 -3.1246 -0.8785 -0.4788
  885TIP3    H2 2599   0.983   2.790   0.114 -0.0173  0.0945  1.1203
  886TIP3   OH2 2600   2.254   3.132   0.365 -0.3836 -0.0264  0.3139
  886TIP3    H1 2601   2.323   3.104   0.305 -0.3289 -0.0303  0.3790
  886TIP3    H2 2602   2.214   3.207   0.322 -1.3174 -0.9309 -0.4332
  887TIP3   OH2 2603   3.252   4.138   0.834 -0.9855  0.2529 -0.0161
  887TIP3    H1 2604   3.344   4.152   0.855 -0.8408 -0.4130 -0.2086
  887TIP3    H2 2605   3.252   4.112   0.742 -1.1493 -2.0490  0.5960
  888TIP3   OH2 2606   4.503   4.392   0.909 -0.3854 -0.2475  0.1225
  888TIP3    H1 2607   4.506   4.328   0.837 -0.2786 -0.6144  0.4478
  888TIP3    H2 2608   4.429   4.448   0.888 -1.1714 -1.1747  0.4087
  889TIP3   OH2 2609   6.316   6.307   6.089 -0.1908 -0.0145 -0.0475
  889TIP3    H1 2610   6.284   6.298   6.000  0.4144  2.6626 -0.5843
  889TIP3    H2 2611   6.243   6.344   6.138  0.0568  0.2192  0.1495
  890TIP3   OH2 2612   3.121   2.152   0.595 -0.4534 -0.1207 -0.6736
  890TIP3    H1 2613   3.060   2.086   0.566 -1.0430  0.4799 -0.8141
  890TIP3    H2 2614   3.069   2.211   0.650  0.4212 -0.7025  0.8425
  891TIP3   OH2 2615   2.004   4.256   0.552 -0.4656  0.0871  0.3064
  891TIP3    H1 2616   1.930   4.268   0.493  0.0081 -0.1052 -0.3334
  891TIP3    H2 2617   1.997   4.166   0.582  0.1323 -0.2855 -0.6312
  892TIP3   OH2 2618   3.223   4.226   1.707  0.1186  0.1171 -0.2060
  892TIP3    H1 2619   3.314   4.252   1.715  0.1172 -0.1391  0.6514
  892TIP3    H2 2620   3.210   4.210   1.613  1.5218 -1.9442 -0.0777
  893TIP3   OH2 2621   8.415   0.743   6.758 -0.5235  0.9108  0.0082
  893TIP3    H1 2622   8.448   0.811   6.700 -0.8816  0.1508 -1.1069
  893TIP3    H2 2623   8.358   0.690   6.703 -0.5155 -0.0927  0.9384
  894TIP3   OH2 2624   0.798   5.007   0.682  0.0653  0.0464 -0.1592
  894TIP3    H1 2625   0.834   4.958   0.756 -0.8063 -0.9653 -0.3886
  894TIP3    H2 2626   0.869   5.011   0.619  0.1891 -0.8289 -0.0852
  895TIP3   OH2 2627   0.308   4.906   1.481 -0.4884 -0.1078 -0.2596
  895TIP3    H1 2628   0.284   4.997   1.464  2.2118  0.9857  1.4970
  895TIP3    H2 2629   0.300   4.863   1.396 -0.5598  2.0712 -1.3944
  896TIP3   OH2 2630   4.200   4.213   1.865 -0.5697 -0.2119  0.0641
  896TIP3    H1 2631   4.132   4.229   1.800 -0.5367  0.2067  0.1299
  896TIP3    H2 2632   4.279   4.196   1.813 -1.0130 -2.0511 -0.0285
  897TIP3   OH2 2633   3.663   4.591   1.870  0.4438  0.2233  0.3556
  897TIP3    H1 2634   3.629   4.676   1.842  0.6154  1.0428  2.5956
  897TIP3    H2 2635   3.747   4.582   1.825  0.1893  0.9940 -0.2769
  898TIP3   OH2 2636   2.094   0.910   6.761 -0.0654 -0.0615 -0.1097
  898TIP3    H1 2637   2.172   0.962   6.779  0.3731 -0.4302 -0.9294
  898TIP3    H2 2638   2.113   0.824   6.797  0.6534 -0.6828 -1.9321
  899TIP3   OH2 2639   8.081   0.776   6.914  0.0921 -0.4061 -0.0841
  899TIP3    H1 2640   8.147   0.727   6.865  2.2247  0.5575  1.7287
  899TIP3    H2 2641   8.053   0.715   6.983  0.3946 -0.2292  0.2021
  900TIP3   OH2 2642   5.117   6.012   1.729 -0.0316  0.1868  0.2555
  900TIP3    H1 2643   5.211   6.031   1.736  0.1845  0.1102 -2.0775
  900TIP3    H2 2644   5.090   5.992   1.819  2.3090 -0.4097  0.8670
  901TIP3   OH2 2645   2.753   4.326   1.049  0.1673 -0.5188 -0.2073
  901TIP3    H1 2646   2.697   4.285   0.984 -0.3449  0.1566 -0.1912
  901TIP3    H2 2647   2.751   4.419   1.028  1.6112 -0.5254 -0.4648
  902TIP3   OH2 2648   3.881   4.428   2.690  0.5464  0.2440  0.4336
  902TIP3    H1 2649   3.866   4.388   2.776  0.0125 -1.6072 -0.4773
  902TIP3    H2 2650   3.804   4.403   2.639 -0.0042  2.8763 -0.0617
  903TIP3   OH2 2651   4.045   5.979   1.354 -0.4548  0.0946  0.2204
  903TIP3    H1 2652   4.008   5.907   1.406  0.1094 -1.1194 -1.0339
  903TIP3    H2 2653   4.139   5.973   1.367 -0.4510  1.1604  0.7911
  904TIP3   OH2 2654   3.115   2.486   2.278  0.0069 -0.2630 -0.1844
  904TIP3    H1 2655   3.154   2.407   2.314 -0.4612 -0.0667  0.7713
  904TIP3    H2 2656   3.179   2.518   2.214  2.9552  1.8028  3.5792
  905TIP3   OH2 2657   4.214   1.286   3.132 -0.2348 -0.0946  0.3665
  905TIP3    H1 2658   4.160   1.215   3.098  0.0278 -0.2674  0.3123
  905TIP3    H2 2659   4.181   1.301   3.221  0.6055 -1.1953  0.8742
  906TIP3   OH2 2660   4.470   4.729   0.920 -0.7293  0.4947  0.0118
  906TIP3    H1 2661   4.401   4.783   0.882  2.4655  2.7561 -2.9656
  906TIP3    H2 2662   4.547   4.787   0.921  1.2761 -2.1034  2.6022
  907TIP3   OH2 2663   6.917   0.538   5.746 -0.4696 -0.3102 -0.4168
  907TIP3    H1 2664   6.860   0.606   5.710 -0.3275  0.9986  1.7848
  907TIP3    H2 2665   7.002   0.580   5.754 -0.6529 -0.3586  2.0641
  908TIP3   OH2 2666   3.492   4.399   2.274 -0.2424 -0.2163 -0.6677
  908TIP3    H1 2667   3.413   4.356   2.307  0.0011 -0.1021  0.0750
  908TIP3    H2 2668   3.459   4.473   2.223 -0.6247 -0.3871 -0.6735
  909TIP3   OH2 2669   2.881   1.424   2.387 -0.0177  0.5791  0.2172
  909TIP3    H1 2670   2.877   1.444   2.293  1.9267 -0.9476 -0.2369
  909TIP3    H2 2671   2.844   1.500   2.430 -1.3943  1.0857 -1.8292
  910TIP3   OH2 2672   3.642   5.859  -0.008 -0.0936  0.3745 -0.0606
  910TIP3    H1 2673   3.694   5.780   0.006  0.6691  0.3993 -2.4112
  910TIP3    H2 2674   3.577   5.858   0.061  1.3007 -1.1369  1.2754
  911TIP3   OH2 2675   5.245   6.983   6.121  0.1821  0.5536 -0.7652
  911TIP3    H1 2676   5.224   7.076   6.129  0.0565  0.4306  0.4409
  911TIP3    H2 2677   5.163   6.938   6.143  0.4891  0.1465 -0.4471
  912TIP3   OH2 2678   2.959   3.988   2.174  0.0937 -0.2160 -0.4190
  912TIP3    H1 2679   3.017   4.047   2.223  0.9061 -2.0500  0.9008
  912TIP3    H2 2680   2.889   4.044   2.143  0.0979  1.2277  1.9987
  913TIP3   OH2 2681   2.665   5.524   0.874 -0.4783 -0.0924  0.1348
  913TIP3    H1 2682   2.608   5.458   0.913  1.2315  0.4278  3.7224
  913TIP3    H2 2683   2.615   5.605   0.880 -0.4036 -0.0963  0.7925
  914TIP3   OH2 2684   5.114   6.269   6.197  0.4605  0.5355 -0.0396
  914TIP3    H1 2685   5.150   6.298   6.281 -2.3163  1.2668  0.9713
  914TIP3    H2 2686   5.086   6.179   6.212 -0.8737  0.9609  0.1360
  915TIP3   OH2 2687   2.139   0.736   1.101  0.4165 -0.8271 -0.2784
  915TIP3    H1 2688   2.221   0.691   1.121 -0.3649 -1.6553  1.1088
  915TIP3    H2 2689   2.106   0.765   1.185 -1.0614 -1.0939 -0.7512
  916TIP3   OH2 2690   3.152   4.212   1.441 -0.0618  0.6135 -0.5325
  916TIP3    H1 2691   3.108   4.295   1.458 -0.9668 -0.0031  0.1806
  916TIP3    H2 2692   3.083   4.156   1.405  0.3474 -0.0973 -0.2100
  917TIP3   OH2 2693   4.557   5.570   2.448  0.4715  0.4036 -0.2355
  917TIP3    H1 2694   4.536   5.485   2.488 -2.3716  1.0363 -0.3145
  917TIP3    H2 2695   4.598   5.547   2.365  1.1060 -0.8791  0.4081
  918TIP3   OH2 2696   4.294   2.036   1.333 -0.3459  0.0906 -0.4785
  918TIP3    H1 2697   4.246   2.062   1.411  0.0940 -0.7643  0.0794
  918TIP3    H2 2698   4.344   2.113   1.309  1.6556 -0.4761  1.6959
  919TIP3   OH2 2699   4.349   2.500   1.578  0.1161  0.1294 -0.3101
  919TIP3    H1 2700   4.307   2.469   1.659  0.7531  3.1105  1.2426
  919TIP3    H2 2701   4.278   2.501   1.514 -0.6045 -1.4576  0.4248
  920TIP3   OH2 2702   1.339   2.778   1.963 -0.2332  0.0474 -0.3454
  920TIP3    H1 2703   1.298   2.709   2.015 -0.2138  0.4192  0.1612
  920TIP3    H2 2704   1.340   2.855   2.020  1.1444  0.0533 -0.3625
  921TIP3   OH2 2705   4.631   3.011   2.303  0.0053 -1.0404 -0.4240
  921TIP3    H1 2706   4.617   2.920   2.331  0.8669 -1.5112 -1.4702
  921TIP3    H2 2707   4.589   3.064   2.370  0.4870 -2.1915  0.7984
  922TIP3   OH2 2708   4.984   2.810   2.305  0.8652 -0.5412  0.6168
  922TIP3    H1 2709   4.929   2.888   2.298 -1.2116 -1.7009  3.1404
  922TIP3    H2 2710   5.039   2.827   2.382  1.2310 -1.0859  0.4769
  923TIP3   OH2 2711   0.661   1.259   6.826 -0.4054 -0.1800 -0.1246
  923TIP3    H1 2712   0.626   1.286   6.741 -0.9285 -0.0847  0.1251
  923TIP3    H2 2713   0.619   1.175   6.844 -0.3094 -0.1891  0.0575
  924TIP3   OH2 2714   3.462   6.184   1.060 -0.3410 -0.5090  0.3098
  924TIP3    H1 2715   3.491   6.123   0.992 -1.1136 -1.6273  0.9651
  924TIP3    H2 2716   3.410   6.130   1.120 -0.1623  0.5873  1.4684
  925TIP3   OH2 2717   3.691   6.214   2.389  0.3933 -0.0565 -0.0649
  925TIP3    H1 2718   3.601   6.211   2.421 -0.6000  1.6192 -2.5234
  925TIP3    H2 2719   3.689   6.161   2.309  1.7144 -0.3524  0.0873
  926TIP3   OH2 2720   4.041   2.907   0.950 -0.6850  0.5583 -0.1209
  926TIP3    H1 2721   4.119   2.963   0.950  0.4118 -0.9318  1.6457
  926TIP3    H2 2722   3.978   2.953   1.005  0.2815 -0.0251  1.4784
  927TIP3   OH2 2723   3.819   3.034   1.063 -0.7063 -0.0988 -0.3512
  927TIP3    H1 2724   3.734   3.024   1.020 -1.3724  0.8716  0.6938
  927TIP3    H2 2725   3.798   3.074   1.147  0.7401 -0.3859  0.1635
  928TIP3   OH2 2726   1.904   4.299   0.151  0.3367 -0.7623  0.3092
  928TIP3    H1 2727   1.895   4.381   0.102  0.7752 -0.3170  0.9709
  928TIP3    H2 2728   1.991   4.266   0.126 -0.3816 -1.7068 -0.9832
  929TIP3   OH2 2729   2.531   5.636   0.115 -0.0775 -0.2555 -0.8028
  929TIP3    H1 2730   2.590   5.562   0.102  1.4042  0.4644  1.5571
  929TIP3    H2 2731   2.453   5.597   0.154 -0.0242 -0.7966 -1.2229
  930TIP3   OH2 2732   6.410   4.909   5.657 -0.4202 -0.0408 -0.6624
  930TIP3    H1 2733   6.320   4.926   5.686  0.1358 -0.1794  1.2272
  930TIP3    H2 2734   6.402   4.840   5.591 -1.4786 -1.9261  1.3877
  931TIP3   OH2 2735   1.965   4.613   2.371 -0.0410  0.0552 -0.0063
  931TIP3    H1 2736   1.999   4.670   2.301 -0.1206 -1.2438 -1.1321
  931TIP3    H2 2737   2.043   4.567   2.403 -0.3497 -1.0329 -0.8158
  932TIP3   OH2 2738   4.824   1.332   1.399 -0.1886  0.1544  0.0584
  932TIP3    H1 2739   4.907   1.372   1.425 -0.6681  1.2000  0.0093
  932TIP3    H2 2740   4.780   1.312   1.482 -0.6899  1.3187  0.0862
  933TIP3   OH2 2741   3.804   4.280   0.940  0.1898 -0.0188 -0.2115
  933TIP3    H1 2742   3.749   4.273   1.018 -0.7872 -0.6839 -0.9440
  933TIP3    H2 2743   3.849   4.364   0.950  0.4799 -0.3264  1.3146
  934TIP3   OH2 2744   3.179   3.140   1.338  0.5684 -0.1924  0.2809
  934TIP3    H1 2745   3.105   3.089   1.305 -1.3371  2.6308 -0.0476
  934TIP3    H2 2746   3.228   3.164   1.259  1.5277 -1.5295  0.4445
  935TIP3   OH2 2747   2.248   2.112   0.360  0.5437 -0.2218 -0.2671
  935TIP3    H1 2748   2.177   2.049   0.353  1.5720 -1.3591 -0.5571
  935TIP3    H2 2749   2.206   2.197   0.344 -0.7072 -0.8894 -0.6132
  936TIP3   OH2 2750   3.231   4.798   0.269 -0.1448  0.0276 -0.0061
  936TIP3    H1 2751   3.207   4.890   0.278  0.1880  0.0296  0.9727
  936TIP3    H2 2752   3.184   4.754   0.341  0.3501 -0.4292  0.0449
  937TIP3   OH2 2753   3.177   3.143   2.241  0.4793 -0.2275 -0.5562
  937TIP3    H1 2754   3.138   3.230   2.229 -1.1520 -1.0989 -1.8319
  937TIP3    H2 2755   3.244   3.137   2.173 -1.5078 -1.1068 -2.4949
  938TIP3   OH2 2756   3.531   5.576   1.636  0.3779  0.4764 -0.2896
  938TIP3    H1 2757   3.605   5.561   1.578  0.3764 -1.3906  0.1500
  938TIP3    H2 2758   3.454   5.573   1.578  0.4356 -0.6025 -0.3208
  939TIP3   OH2 2759   6.774   5.651   2.963  0.2643  0.3413  0.0818
  939TIP3    H1 2760   6.786   5.735   3.007  0.8610 -0.0099  0.5941
  939TIP3    H2 2761   6.774   5.587   3.034  1.6678 -0.2798 -0.4589
  940TIP3   OH2 2762   4.960   6.228   0.720 -0.3755  0.7276  0.4319
  940TIP3    H1 2763   4.866   6.231   0.705 -0.3676  2.0419  0.5879
  940TIP3    H2 2764   4.970   6.241   0.815 -0.0285  0.9797  0.3638
  941TIP3   OH2 2765   4.150   4.492   0.881 -1.0551  0.3306 -0.1124
  941TIP3    H1 2766   4.145   4.399   0.859 -1.1555  0.5431 -1.0302
  941TIP3    H2 2767   4.111   4.536   0.805  0.2841  1.1965 -0.3067
  942TIP3   OH2 2768   2.312   4.029   2.202  0.0294  0.3789  0.2959
  942TIP3    H1 2769   2.240   4.049   2.142 -0.1269  0.4818  0.5154
  942TIP3    H2 2770   2.384   4.001   2.145 -0.4026 -0.3781  0.1079
  943TIP3   OH2 2771   0.990   5.260   0.749  0.3789 -0.6668 -0.3696
  943TIP3    H1 2772   0.988   5.345   0.794  1.2304 -0.4149 -0.8003
  943TIP3    H2 2773   0.899   5.230   0.750 -0.2687  1.1852 -1.9908
  944TIP3   OH2 2774   3.738   4.903   0.241  0.4038  0.5441  0.1220
  944TIP3    H1 2775   3.684   4.954   0.301 -0.7844  0.6443 -0.9974
  944TIP3    H2 2776   3.820   4.952   0.235 -0.7894  2.4904 -1.0910
  945TIP3   OH2 2777   5.312   1.386   6.778  0.6469  0.1740  0.3115
  945TIP3    H1 2778   5.226   1.425   6.762  1.1904  0.7586 -1.2726
  945TIP3    H2 2779   5.313   1.367   6.872 -1.8616 -1.3866  0.0788
  946TIP3   OH2 2780   0.650   3.169   6.770  0.2428  0.5840 -0.1158
  946TIP3    H1 2781   0.729   3.116   6.781  0.3148  0.5820 -0.6462
  946TIP3    H2 2782   0.581   3.106   6.751  0.3605  0.6950 -0.9105
  947TIP3   OH2 2783   2.420   3.683   3.291 -0.4952 -0.1766  0.1447
  947TIP3    H1 2784   2.480   3.743   3.246 -0.7816 -1.2381 -1.6858
  947TIP3    H2 2785   2.346   3.674   3.231 -1.1078 -1.2614  1.0468
  948TIP3   OH2 2786   2.495   3.762   2.183 -0.4842 -0.4896 -0.0229
  948TIP3    H1 2787   2.529   3.833   2.129 -2.0024  0.4088  0.1701
  948TIP3    H2 2788   2.488   3.687   2.124  2.0714 -0.8109  0.0033
  949TIP3   OH2 2789   3.448   3.725   1.707 -0.1329 -0.0264  0.3039
  949TIP3    H1 2790   3.481   3.686   1.788 -0.6827 -2.7513 -0.7155
  949TIP3    H2 2791   3.518   3.711   1.643 -0.0915  1.2326  0.0619
  950TIP3   OH2 2792   4.509   5.223   1.678 -0.0717 -0.1704 -0.4665
  950TIP3    H1 2793   4.440   5.195   1.737  0.1279 -1.0565 -0.6381
  950TIP3    H2 2794   4.580   5.160   1.694  0.8987  1.0470  0.0992
  951TIP3   OH2 2795   2.886   4.692   3.388  0.3232 -0.4369  0.1984
  951TIP3    H1 2796   2.932   4.622   3.435  0.6405 -0.6872 -0.4898
  951TIP3    H2 2797   2.794   4.678   3.410  0.4753 -0.4919  0.8322
  952TIP3   OH2 2798   4.594   3.934   1.164 -0.0429 -0.0480 -0.2238
  952TIP3    H1 2799   4.575   4.024   1.139  0.2391  0.1450  0.2388
  952TIP3    H2 2800   4.565   3.881   1.090 -2.3749  0.2346  0.4303
  953TIP3   OH2 2801   0.255   1.956   5.628 -0.3842  0.4875  0.2977
  953TIP3    H1 2802   0.248   1.862   5.611  1.8385  0.1625  1.1608
  953TIP3    H2 2803   0.216   1.968   5.714  0.9640  0.0804  0.9715
  954TIP3   OH2 2804   4.270   5.676   6.058  0.3469 -0.1480  0.1026
  954TIP3    H1 2805   4.282   5.590   6.098 -0.5323 -0.9981 -1.4120
  954TIP3    H2 2806   4.359   5.710   6.046  0.7071 -0.9953  0.3493
  955TIP3   OH2 2807   4.145   5.795   1.775  0.2756  0.2474 -0.2004
  955TIP3    H1 2808   4.212   5.835   1.830 -0.7466  1.1448  0.3889
  955TIP3    H2 2809   4.064   5.840   1.797 -0.2250  0.3705 -2.1602
  956TIP3   OH2 2810   4.590   1.891   1.112 -0.0701  0.2002  0.6196
  956TIP3    H1 2811   4.611   1.823   1.047  0.8090  0.6466  0.4317
  956TIP3    H2 2812   4.495   1.889   1.118 -0.0839 -0.7316  0.2645
  957TIP3   OH2 2813   3.476   4.451   0.375 -0.1053  0.9447 -0.1469
  957TIP3    H1 2814   3.497   4.411   0.459 -0.3819 -2.5994 -1.6597
  957TIP3    H2 2815   3.539   4.522   0.366  0.3167  1.0164  2.7718
  958TIP3   OH2 2816   3.505   1.424   2.137 -0.5971 -0.4519  0.2167
  958TIP3    H1 2817   3.484   1.332   2.124  1.0884 -1.0459  1.5092
  958TIP3    H2 2818   3.486   1.466   2.053  0.8617 -2.3921 -1.1135
  959TIP3   OH2 2819   3.139   3.998   1.837  0.1979  0.4122 -0.4075
  959TIP3    H1 2820   3.158   4.074   1.783 -0.0536 -0.2212 -1.4068
  959TIP3    H2 2821   3.161   3.923   1.782 -0.9870 -0.2601  0.0069
  960TIP3   OH2 2822   4.066   3.159   1.478  0.0502 -0.4919 -0.4558
  960TIP3    H1 2823   3.994   3.129   1.534  1.2501 -0.0672  1.3535
  960TIP3    H2 2824   4.092   3.243   1.515  0.0468  0.4219 -2.4510
  961TIP3   OH2 2825   1.804   1.561   6.482 -0.3014 -0.2876  0.5858
  961TIP3    H1 2826   1.785   1.587   6.572 -1.6914 -0.0711  0.2458
  961TIP3    H2 2827   1.770   1.633   6.429  0.9757 -0.1684 -0.1008
  962TIP3   OH2 2828   5.682   1.566   1.122 -0.1476  0.1314 -0.4499
  962TIP3    H1 2829   5.614   1.551   1.187  1.2731  1.0434  1.2923
  962TIP3    H2 2830   5.750   1.502   1.143  0.7062  1.0189 -0.4619
  963TIP3   OH2 2831   3.899   1.205   2.813 -0.1070 -0.3851 -0.2703
  963TIP3    H1 2832   3.847   1.146   2.758  0.4504 -0.9121 -0.2260
  963TIP3    H2 2833   3.833   1.258   2.859 -0.5895  1.0235 -2.4658
  964TIP3   OH2 2834   2.818   3.378   2.419  0.1144 -0.2418  0.1776
  964TIP3    H1 2835   2.765   3.390   2.498 -3.2762  1.6263 -2.2970
  964TIP3    H2 2836   2.788   3.295   2.382  1.9076 -1.2621  0.9375
  965TIP3   OH2 2837   0.189   0.598   6.710 -0.2837  0.2407  0.1038
  965TIP3    H1 2838   0.111   0.543   6.711  2.9152 -4.7412 -3.2313
  965TIP3    H2 2839   0.181   0.649   6.629 -0.3157  0.1210  0.0318
  966TIP3   OH2 2840   6.937   1.655   2.820  0.0264 -0.1683 -0.4682
  966TIP3    H1 2841   6.940   1.644   2.725 -0.1732  1.8037 -0.7189
  966TIP3    H2 2842   6.844   1.663   2.840  0.0711 -0.5325 -0.1092
  967TIP3   OH2 2843   5.075   5.207   1.415  0.5578 -0.4983 -0.0131
  967TIP3    H1 2844   5.115   5.247   1.337  2.2484  0.0981  1.1300
  967TIP3    H2 2845   4.981   5.225   1.405  0.7525 -0.4054 -1.8939
  968TIP3   OH2 2846   4.214   4.307   2.897  0.0765 -0.5176 -0.1712
  968TIP3    H1 2847   4.235   4.396   2.868  1.5474 -0.8560 -0.1768
  968TIP3    H2 2848   4.184   4.263   2.818 -0.1927 -0.1791 -0.2640
  969TIP3   OH2 2849   8.408   0.011   6.193 -0.0196  0.3233  0.0771
  969TIP3    H1 2850   8.465   0.061   6.251 -0.0960  0.3639  0.1179
  969TIP3    H2 2851   8.323   0.056   6.198 -0.4981 -0.6829  1.2752
  970TIP3   OH2 2852   1.565   4.514   1.738 -0.2125  0.1251  0.1257
  970TIP3    H1 2853   1.516   4.494   1.658 -1.0067 -1.3552  0.9590
  970TIP3    H2 2854   1.503   4.496   1.809  0.2320  2.1868  1.0553
  971TIP3   OH2 2855   4.490   4.739   1.773  0.3674 -0.0891  0.3174
  971TIP3    H1 2856   4.418   4.746   1.710 -0.4697 -0.5707  1.2099
  971TIP3    H2 2857   4.466   4.800   1.843  1.1709  0.2594  0.2853
  972TIP3   OH2 2858   4.059   6.347   0.248  0.8988  0.4300 -0.9160
  972TIP3    H1 2859   4.011   6.367   0.329  0.1302  1.7371 -1.6841
  972TIP3    H2 2860   3.995   6.357   0.178  1.1492 -2.2824 -1.5960
  973TIP3   OH2 2861   4.374   4.923   1.971  0.1003 -0.3377  0.0036
  973TIP3    H1 2862   4.363   5.016   1.955 -1.7142 -0.2716  1.5094
  973TIP3    H2 2863   4.429   4.919   2.050  0.7848 -0.5633 -0.4783
  974TIP3   OH2 2864   4.234   6.144   5.825 -0.0964  0.6528  0.5133
  974TIP3    H1 2865   4.170   6.141   5.895 -2.3744  2.8052 -1.3671
  974TIP3    H2 2866   4.244   6.053   5.797 -1.2037  0.1219  1.8215
  975TIP3   OH2 2867   8.497   0.923   6.319  0.1346 -0.2508  0.2918
  975TIP3    H1 2868   8.421   0.973   6.350 -0.0702 -1.0521  1.1211
  975TIP3    H2 2869   8.479   0.907   6.227 -0.6513 -0.3102  0.4480
  976TIP3   OH2 2870   1.514   3.388   2.249  0.0534 -0.2239 -0.0921
  976TIP3    H1 2871   1.538   3.359   2.337  3.3645 -0.3588 -0.9817
  976TIP3    H2 2872   1.496   3.481   2.258  0.1741 -0.2831  0.7693
  977TIP3   OH2 2873   7.633   1.286   4.904 -0.2268 -0.2387 -0.3146
  977TIP3    H1 2874   7.620   1.203   4.858  0.2711  0.6199 -2.0443
  977TIP3    H2 2875   7.575   1.348   4.859  0.0568  0.5463  0.3932
  978TIP3   OH2 2876   2.377   5.030   1.660 -0.0642  0.7946  0.0156
  978TIP3    H1 2877   2.410   4.971   1.727 -0.1544  0.3260 -0.3494
  978TIP3    H2 2878   2.442   5.100   1.656  2.1770 -1.3114 -2.3515
  979TIP3   OH2 2879   3.943   3.328   2.023 -0.9218 -0.0768 -0.4129
  979TIP3    H1 2880   3.938   3.415   2.064  1.7690 -0.1743  0.2571
  979TIP3    H2 2881   3.859   3.287   2.042 -1.6283  1.7914  0.6402
  980TIP3   OH2 2882   3.597   4.508   0.706 -0.3083  0.4424  0.3558
  980TIP3    H1 2883   3.639   4.593   0.698  1.5767 -0.5175 -0.2838
  980TIP3    H2 2884   3.578   4.499   0.799  1.6229  0.5952  0.7988
  981TIP3   OH2 2885   5.167   3.871   1.614  0.0474 -0.0691  0.2721
  981TIP3    H1 2886   5.082   3.897   1.651  0.9688  1.5944  1.2396
  981TIP3    H2 2887   5.217   3.839   1.689  1.4484  2.0503  0.2816
  982TIP3   OH2 2888   5.391   1.923   1.409 -0.4076  0.0091 -0.1110
  982TIP3    H1 2889   5.470   1.872   1.428 -0.0751  0.6004  0.0832
  982TIP3    H2 2890   5.322   1.857   1.401  0.5017 -0.6969 -2.4913
  983TIP3   OH2 2891   5.097   5.335   1.970  0.0630  0.3227 -0.3121
  983TIP3    H1 2892   5.131   5.382   2.046 -1.2326 -2.7337  2.2894
  983TIP3    H2 2893   5.170   5.281   1.941 -0.5146 -1.3598  1.2245
  984TIP3   OH2 2894   7.684   0.118   1.532 -0.0967  0.2279 -0.6406
  984TIP3    H1 2895   7.729   0.202   1.537  1.2786 -0.5669  0.8875
  984TIP3    H2 2896   7.595   0.137   1.563 -0.0613  1.2844 -1.1566
  985TIP3   OH2 2897   3.878   5.079   5.373  0.1208 -0.4082  0.4990
  985TIP3    H1 2898   3.967   5.067   5.406 -0.2463 -1.4945  1.1036
  985TIP3    H2 2899   3.837   5.138   5.436  0.7090  0.8867 -0.3174
  986TIP3   OH2 2900   3.823   5.537   1.867 -1.0335  0.2226  0.3029
  986TIP3    H1 2901   3.784   5.604   1.924 -0.8366  1.1722 -0.6719
  986TIP3    H2 2902   3.915   5.536   1.892 -1.0165  0.3832  0.2452
  987TIP3   OH2 2903   2.771   1.670   1.068  0.6366  0.2773 -0.0980
  987TIP3    H1 2904   2.787   1.726   0.992  0.8756 -0.6226 -0.7138
  987TIP3    H2 2905   2.822   1.591   1.051 -0.6583 -0.6352  0.1899
  988TIP3   OH2 2906   4.934   4.601   1.556 -0.2269 -0.9520 -0.1273
  988TIP3    H1 2907   4.940   4.590   1.462  1.2404  0.3450 -0.2181
  988TIP3    H2 2908   5.021   4.578   1.589 -0.1556  0.4192  0.6946
  989TIP3   OH2 2909   3.285   3.056   0.902 -0.0877  0.4694  0.1908
  989TIP3    H1 2910   3.196   3.075   0.870 -0.0713  0.4391  0.1272
  989TIP3    H2 2911   3.304   2.968   0.869 -0.1294  0.3772  0.4152
  990TIP3   OH2 2912   3.459   3.589   0.676 -0.3630  0.1200 -0.4358
  990TIP3    H1 2913   3.541   3.543   0.655 -0.0301  0.7383 -0.4919
  990TIP3    H2 2914   3.390   3.529   0.646  0.0020 -1.5686  1.9493
  991TIP3   OH2 2915   3.849   1.566   3.663 -0.4579 -0.2277 -0.1507
  991TIP3    H1 2916   3.945   1.567   3.656 -0.3923 -1.9030  0.1688
  991TIP3    H2 2917   3.832   1.517   3.744 -1.5574  1.4931  0.6853
  992TIP3   OH2 2918   2.586   3.756   3.999 -0.6734 -0.0267 -0.2376
  992TIP3    H1 2919   2.659   3.712   3.957  0.6696  1.6657  0.2739
  992TIP3    H2 2920   2.510   3.702   3.977  0.3928 -0.6710 -2.5380
  993TIP3   OH2 2921   2.860   2.360   2.155  0.2895  0.3610  0.7602
  993TIP3    H1 2922   2.930   2.418   2.184  0.1012  0.5689  0.8104
  993TIP3    H2 2923   2.818   2.331   2.236  1.6091 -1.4124  0.8292
  994TIP3   OH2 2924   2.915   2.235   3.731 -0.4613  0.0607  0.5623
  994TIP3    H1 2925   2.947   2.151   3.764 -0.7452 -0.0018  0.6773
  994TIP3    H2 2926   2.857   2.212   3.658 -0.4921  0.1619  0.5540
  995TIP3   OH2 2927   0.251   1.118   5.949 -0.2839  0.2939 -0.0667
  995TIP3    H1 2928   0.206   1.036   5.930 -0.5004  0.1505  1.0631
  995TIP3    H2 2929   0.338   1.091   5.978  0.2272  0.5349 -1.3339
  996TIP3   OH2 2930   2.265   4.740   0.246  0.6200  0.4331  0.3480
  996TIP3    H1 2931   2.240   4.648   0.243  1.6663  0.1240  0.8985
  996TIP3    H2 2932   2.338   4.744   0.309  0.2643  1.7092  0.6997
  997TIP3   OH2 2933   2.385   4.932   2.641  0.2916  0.3431 -0.2734
  997TIP3    H1 2934   2.441   4.936   2.564 -1.2324 -0.8279 -1.4737
  997TIP3    H2 2935   2.394   4.842   2.672 -2.6361 -0.5342 -1.8162
  998TIP3   OH2 2936   8.322   1.802   6.343  0.3603  0.0319 -0.1505
  998TIP3    H1 2937   8.343   1.894   6.359  0.6144 -0.1147  0.3656
  998TIP3    H2 2938   8.407   1.760   6.329  0.1786  0.0661 -1.4303
  999TIP3   OH2 2939   5.257   6.471   3.970 -0.1548 -0.6472  0.1156
  999TIP3    H1 2940   5.169   6.456   4.004 -0.5476 -0.1608 -0.6909
  999TIP3    H2 2941   5.293   6.383   3.957 -0.2541 -0.8411  1.1185
 1000TIP3   OH2 2942   3.305   2.182   3.923 -0.5810  0.8075  0.2123
 1000TIP3    H1 2943   3.228   2.173   3.979 -0.0781  1.0842  0.9532
 1000TIP3    H2 2944   3.378   2.186   3.984  0.0954 -0.2617 -0.5226
 1001TIP3   OH2 2945   5.212   4.565   3.683  0.0337  0.2589 -0.4299
 1001TIP3    H1 2946   5.306   4.554   3.692  0.0891  0.7306 -0.4481
 1001TIP3    H2 2947   5.200   4.657   3.660 -0.3206 -0.1579 -1.9897
 1002TIP3   OH2 2948   4.970   3.267   1.465 -0.1526 -0.0851 -0.7886
 1002TIP3    H1 2949   4.953   3.273   1.371  0.6844 -1.1998 -1.0316
 1002TIP3    H2 2950   4.883   3.269   1.506 -0.4601  1.8740 -1.4712
 1003TIP3   OH2 2951   4.068   4.364   1.530  0.3494  0.9261 -0.5694
 1003TIP3    H1 2952   4.004   4.294   1.534  0.4594  0.8762  0.3227
 1003TIP3    H2 2953   4.075   4.384   1.436  0.8312 -0.7166 -0.9055
 1004TIP3   OH2 2954   8.276   1.039   6.511  0.3280  0.4249 -0.4589
 1004TIP3    H1 2955   8.207   1.026   6.576  0.7912  0.2099 -0.0094
 1004TIP3    H2 2956   8.272   1.132   6.491 -0.0545  0.4255 -0.3933
 1005TIP3   OH2 2957   7.316   0.227   5.862  0.1697 -0.5340  0.3524
 1005TIP3    H1 2958   7.266   0.235   5.943  0.1552  0.8876  0.2208
 1005TIP3    H2 2959   7.303   0.311   5.818  1.9202 -0.4948 -0.1085
 1006TIP3   OH2 2960   4.226   2.818   1.662  0.2302 -0.3864  0.2341
 1006TIP3    H1 2961   4.294   2.827   1.595 -0.8395 -0.4569 -0.8918
 1006TIP3    H2 2962   4.144   2.826   1.613 -0.6397 -3.7569  1.0621
 1007TIP3   OH2 2963   3.354   2.545   1.899  0.4233  0.3955  0.0395
 1007TIP3    H1 2964   3.365   2.482   1.970 -1.6658  0.2539  0.2669
 1007TIP3    H2 2965   3.373   2.630   1.939  0.8819  0.1474  0.3458
 1008TIP3   OH2 2966   2.678   5.153   0.603 -0.2757 -0.1029 -0.4459
 1008TIP3    H1 2967   2.585   5.135   0.591 -0.4092  0.5511 -0.4035
 1008TIP3    H2 2968   2.721   5.110   0.529 -0.6278 -0.2875 -0.5399
 1009TIP3   OH2 2969   1.040   6.739   0.187  0.0137 -0.0061 -0.1227
 1009TIP3    H1 2970   1.035   6.700   0.099 -1.4415  1.3164 -0.6619
 1009TIP3    H2 2971   1.065   6.830   0.171 -2.2121  0.7771  0.6672
 1010TIP3   OH2 2972   3.017   4.408   2.703  0.5194  0.5018 -0.2602
 1010TIP3    H1 2973   2.932   4.414   2.659  0.3486  0.3147  0.0419
 1010TIP3    H2 2974   3.034   4.497   2.735  0.4812  0.5609 -0.4066
 1011TIP3   OH2 2975   3.586   1.598   3.527 -0.0659  0.3668 -0.4776
 1011TIP3    H1 2976   3.595   1.625   3.436 -1.0009  1.6590 -0.2067
 1011TIP3    H2 2977   3.669   1.621   3.567  0.0552  0.5436 -0.8301
 1012TIP3   OH2 2978   4.239   5.940   2.063  0.3236 -0.1795 -0.1940
 1012TIP3    H1 2979   4.154   5.896   2.070  1.1326 -1.4826  1.6044
 1012TIP3    H2 2980   4.271   5.947   2.153  2.2851 -0.0278 -0.8702
 1013TIP3   OH2 2981   4.382   3.668   1.507  0.1011  0.7938  0.1797
 1013TIP3    H1 2982   4.387   3.753   1.464  0.3868 -0.4938 -2.4268
 1013TIP3    H2 2983   4.471   3.652   1.538  0.1332  1.2898  0.3411
 1014TIP3   OH2 2984   3.824   5.206   1.888 -0.0027 -0.2873  0.1689
 1014TIP3    H1 2985   3.774   5.126   1.877  0.7524 -0.9926  1.6783
 1014TIP3    H2 2986   3.760   5.276   1.876 -1.1507 -1.1576  1.0500
 1015TIP3   OH2 2987   5.254   4.075   1.221 -0.0199 -0.3410  0.8326
 1015TIP3    H1 2988   5.270   4.169   1.209  1.6841 -0.5624  1.1366
 1015TIP3    H2 2989   5.289   4.036   1.141 -2.3531 -0.5749 -0.0836
 1016TIP3   OH2 2990   3.785   3.211   2.535  0.0122  0.1741 -0.1832
 1016TIP3    H1 2991   3.867   3.161   2.535 -0.1709 -0.1279  0.0551
 1016TIP3    H2 2992   3.775   3.240   2.625  0.3116  0.9684 -0.3985
 1017TIP3   OH2 2993   4.596   3.207   2.089 -0.0381 -0.0306  0.2287
 1017TIP3    H1 2994   4.506   3.218   2.120 -0.2799 -0.3362 -0.3722
 1017TIP3    H2 2995   4.617   3.115   2.109 -0.3730 -0.3782 -0.9725
 1018TIP3   OH2 2996   4.107   0.630   1.593 -0.4996 -0.5999 -0.3776
 1018TIP3    H1 2997   4.122   0.710   1.642 -0.1972 -0.8439 -0.0748
 1018TIP3    H2 2998   4.191   0.586   1.591 -1.2623 -2.2250  1.7990
 1019TIP3   OH2 2999   2.165   4.112   0.841 -0.1723 -0.1665  0.0094
 1019TIP3    H1 3000   2.172   4.180   0.908  0.1694  1.2682 -1.4380
 1019TIP3    H2 3001   2.073   4.085   0.844 -0.4392  0.7495  0.2411
 1020TIP3   OH2 3002   2.849   1.537   1.837 -0.2242  0.3331  0.2191
 1020TIP3    H1 3003   2.777   1.477   1.813 -1.2649  1.9829 -0.8999
 1020TIP3    H2 3004   2.913   1.526   1.767  0.2162 -0.4510  0.7306
 1021TIP3   OH2 3005   4.080   2.198   1.451 -0.9895 -0.6703  0.2378
 1021TIP3    H1 3006   3.989   2.202   1.480 -0.7011  1.7218  0.9382
 1021TIP3    H2 3007   4.132   2.196   1.531 -0.3989 -1.0234 -0.1456
 1022TIP3   OH2 3008   5.227   0.169   0.036  0.0135 -0.5167  0.5933
 1022TIP3    H1 3009   5.259   0.257   0.017  0.7042 -0.4077  2.1605
 1022TIP3    H2 3010   5.300   0.111   0.012 -1.0633 -0.8453 -2.0895
 1023TIP3   OH2 3011   4.120   2.532   1.739  0.4827  0.5190 -0.0616
 1023TIP3    H1 3012   4.066   2.549   1.662  0.2876  1.9933  0.4016
 1023TIP3    H2 3013   4.160   2.616   1.759  0.3025  0.2091  1.6242
 1024TIP3   OH2 3014   4.174   4.202   0.813  0.4650  0.0745 -0.6957
 1024TIP3    H1 3015   4.165   4.170   0.902  2.1770 -2.0041 -1.2409
 1024TIP3    H2 3016   4.132   4.135   0.759  0.8848  0.5206 -1.5875
 1025TIP3   OH2 3017   3.994   3.036   2.496  0.0062 -0.4526  0.1449
 1025TIP3    H1 3018   4.080   3.000   2.519  0.8759  0.1827 -1.9829
 1025TIP3    H2 3019   3.990   3.030   2.401 -2.9216 -1.7987  0.2908
 1026TIP3   OH2 3020   3.780   3.971   1.528 -0.0629 -0.2401  0.0424
 1026TIP3    H1 3021   3.844   3.933   1.467  0.8673  0.5321  0.5130
 1026TIP3    H2 3022   3.720   3.900   1.548 -0.1343 -0.6068 -1.4694
 1027TIP3   OH2 3023   4.414   7.962   6.601  0.6378  0.3608 -0.1778
 1027TIP3    H1 3024   4.428   7.894   6.535  0.9396 -0.2772  0.5250
 1027TIP3    H2 3025   4.488   7.952   6.661  0.8104  1.4678 -0.1952
 1028TIP3   OH2 3026   2.283   3.426   0.792  0.2324 -0.2486 -0.0956
 1028TIP3    H1 3027   2.250   3.513   0.816  0.5716 -0.5392  1.4802
 1028TIP3    H2 3028   2.361   3.444   0.739  0.9618  0.4248  1.1797
 1029TIP3   OH2 3029   0.344   1.881   6.157  0.0334  0.4751 -0.5196
 1029TIP3    H1 3030   0.324   1.930   6.236 -1.0430 -2.6483  1.2077
 1029TIP3    H2 3031   0.259   1.860   6.119  0.5130  0.9274 -1.9120
 1030TIP3   OH2 3032   4.513   1.119   3.725  0.3855 -0.0316 -0.3794
 1030TIP3    H1 3033   4.451   1.126   3.798  1.3730 -0.4131  0.5199
 1030TIP3    H2 3034   4.460   1.091   3.651 -0.5750 -0.0317  0.2965
 1031TIP3   OH2 3035   1.627   5.769   1.544  0.8558  0.1416 -0.2624
 1031TIP3    H1 3036   1.596   5.723   1.466  2.4681 -2.3787  0.5474
 1031TIP3    H2 3037   1.588   5.857   1.536 -0.0631 -0.4575 -3.2172
 1032TIP3   OH2 3038   2.250   4.605   1.925  0.1788  1.1891 -0.1353
 1032TIP3    H1 3039   2.344   4.607   1.907  0.0341  0.9539 -0.9373
 1032TIP3    H2 3040   2.226   4.512   1.921  0.2543  1.0719  1.9047
 1033TIP3   OH2 3041   3.299   5.675   0.817  0.0692 -0.6439 -0.1710
 1033TIP3    H1 3042   3.248   5.669   0.736  0.6002 -0.8915 -0.4934
 1033TIP3    H2 3043   3.263   5.607   0.874  0.2931 -1.0825 -0.5450
 1034TIP3   OH2 3044   2.291   2.857   1.062 -0.0179 -0.3667 -0.4381
 1034TIP3    H1 3045   2.271   2.796   0.991  0.7080 -0.3885 -0.6280
 1034TIP3    H2 3046   2.329   2.933   1.018  1.0070 -0.6281 -0.0312
 1035TIP3   OH2 3047   3.783   5.810   1.481 -0.3372 -0.2779 -0.4649
 1035TIP3    H1 3048   3.750   5.723   1.503 -2.5083 -0.3736 -3.6411
 1035TIP3    H2 3049   3.707   5.868   1.492 -0.5271  0.2085 -3.7962
 1036TIP3   OH2 3050   2.001   3.492   0.444  0.0297  0.2151  0.8832
 1036TIP3    H1 3051   2.069   3.483   0.376 -0.9441 -0.8658  0.0324
 1036TIP3    H2 3052   2.028   3.431   0.513 -0.7269 -1.1731 -0.0185
 1037TIP3   OH2 3053   4.152   5.427   1.640  0.0968  0.7810 -0.2242
 1037TIP3    H1 3054   4.102   5.379   1.574 -0.3018 -0.2601  0.8284
 1037TIP3    H2 3055   4.127   5.519   1.628 -1.9273  0.2906  0.1874
 1038TIP3   OH2 3056   6.129   1.518   6.170 -0.4006  0.6395  0.0016
 1038TIP3    H1 3057   6.125   1.483   6.081  0.0607  0.7710 -0.0683
 1038TIP3    H2 3058   6.041   1.552   6.186 -1.1222 -1.3359  0.3912
 1039TIP3   OH2 3059   3.655   3.273   0.706 -0.0071 -0.1144  0.4058
 1039TIP3    H1 3060   3.685   3.183   0.690 -1.0586 -0.4782  0.4475
 1039TIP3    H2 3061   3.620   3.271   0.795  1.6525  0.7950  1.0977
 1040TIP3   OH2 3062   2.021   0.090   0.238  0.3521  0.3541  0.2451
 1040TIP3    H1 3063   2.066   0.128   0.163  0.8329  0.3988  0.5483
 1040TIP3    H2 3064   2.062   0.131   0.314  1.8932 -1.8060  0.6339
 1041TIP3   OH2 3065   4.788   4.810   0.887  0.1294  0.2623  0.0921
 1041TIP3    H1 3066   4.826   4.841   0.805 -2.3563 -1.4911 -1.8363
 1041TIP3    H2 3067   4.733   4.882   0.917 -1.5953 -0.2933 -1.6250
 1042TIP3   OH2 3068   5.434   1.508   0.692 -0.7515 -0.1944 -0.5395
 1042TIP3    H1 3069   5.459   1.529   0.781 -0.8700  0.1175 -0.5820
 1042TIP3    H2 3070   5.380   1.429   0.700  1.2456 -1.5852 -0.5572
 1043TIP3   OH2 3071   2.967   1.577   0.860 -0.0077 -0.2887  0.2419
 1043TIP3    H1 3072   3.053   1.558   0.823 -0.7761 -1.4669 -0.9551
 1043TIP3    H2 3073   2.943   1.662   0.823  0.4286 -0.1641  0.2390
 1044TIP3   OH2 3074   2.429   3.008   0.173 -0.3358  0.8419  0.3039
 1044TIP3    H1 3075   2.363   2.952   0.133 -0.3695 -0.2370  1.8323
 1044TIP3    H2 3076   2.471   3.052   0.099 -0.7918 -0.6605 -0.8737
 1045TIP3   OH2 3077   3.967   2.286   3.583 -0.0796 -0.4495  0.0392
 1045TIP3    H1 3078   3.878   2.256   3.569  0.3901 -1.0985 -1.5574
 1045TIP3    H2 3079   4.011   2.273   3.500  1.5143 -0.1300  0.8083
 1046TIP3   OH2 3080   5.084   3.493   1.285 -0.4246 -0.2668 -0.4747
 1046TIP3    H1 3081   5.042   3.558   1.341 -0.3168  0.0924 -0.8070
 1046TIP3    H2 3082   5.158   3.460   1.336 -0.5566 -0.2232 -0.2556
 1047TIP3   OH2 3083   7.620   1.101   6.337  0.5531  0.2325  0.1625
 1047TIP3    H1 3084   7.645   1.062   6.421  0.2675  0.1870  0.2267
 1047TIP3    H2 3085   7.555   1.168   6.361  1.3346  1.0249  0.0960
 1048TIP3   OH2 3086   3.376   1.166   0.562  0.0821  0.7873  0.0754
 1048TIP3    H1 3087   3.390   1.157   0.656 -1.3134  0.9479  0.2972
 1048TIP3    H2 3088   3.453   1.125   0.523  0.0873 -0.3583  1.2663
 1049TIP3   OH2 3089   0.557   7.973   0.212 -0.2686 -0.0126  0.0647
 1049TIP3    H1 3090   0.584   7.961   0.121 -1.1984  0.3580 -0.2620
 1049TIP3    H2 3091   0.595   8.057   0.237  1.2162 -0.7714  0.4961
 1050TIP3   OH2 3092   7.541   2.218   5.838 -0.6382  0.3422 -0.2046
 1050TIP3    H1 3093   7.477   2.195   5.770  0.3421  0.2216 -1.0973
 1050TIP3    H2 3094   7.617   2.162   5.820 -1.0576 -1.0638  2.1291
 1051TIP3   OH2 3095   8.046   1.233   5.303 -0.2672 -0.0544  0.5382
 1051TIP3    H1 3096   8.031   1.192   5.218  0.7674 -1.4823  1.0274
 1051TIP3    H2 3097   8.034   1.163   5.367 -0.2834  0.8274  1.5234
 1052TIP3   OH2 3098   3.415   1.783   0.260 -0.3026  0.0372  0.4404
 1052TIP3    H1 3099   3.435   1.800   0.352 -0.7237  1.0732  0.3371
 1052TIP3    H2 3100   3.474   1.840   0.211 -0.2438 -0.3423  0.0624
 1053TIP3   OH2 3101   3.273   1.058   3.898 -0.3101 -0.2199 -0.5518
 1053TIP3    H1 3102   3.256   1.134   3.842 -0.8588  0.6390  0.7664
 1053TIP3    H2 3103   3.328   1.091   3.969  1.1064 -1.4921 -1.0171
 1054TIP3   OH2 3104   5.982   6.771   5.874  0.0554  0.7398  0.4932
 1054TIP3    H1 3105   5.989   6.866   5.864 -0.0416  0.7436  0.4680
 1054TIP3    H2 3106   5.986   6.757   5.969 -2.1180  0.9418  0.6401
 1055TIP3   OH2 3107   2.133   2.826   1.281 -0.3327  0.3275 -0.0784
 1055TIP3    H1 3108   2.188   2.801   1.207 -2.7706 -1.3055 -1.4123
 1055TIP3    H2 3109   2.166   2.773   1.355 -1.3399 -2.1616 -1.3420
 1056TIP3   OH2 3110   4.389   6.118   1.005  0.0730 -0.0104 -0.1225
 1056TIP3    H1 3111   4.297   6.117   0.978 -0.6340  1.1434  2.1602
 1056TIP3    H2 3112   4.394   6.054   1.076  1.4493 -1.4147 -1.4324
 1057TIP3   OH2 3113   5.094   4.601   1.197  0.7573 -0.0020  0.4108
 1057TIP3    H1 3114   5.080   4.564   1.110  1.3587 -0.1222  0.3643
 1057TIP3    H2 3115   5.012   4.586   1.243  0.8156 -0.9246  0.2211
 1058TIP3   OH2 3116   5.504   4.787   0.890 -0.0073  0.5537 -0.4446
 1058TIP3    H1 3117   5.518   4.738   0.809  0.3946  2.2378 -1.4097
 1058TIP3    H2 3118   5.484   4.719   0.955 -1.3559 -0.7419 -2.1528
 1059TIP3   OH2 3119   3.820   4.234   1.567  0.0698  0.3177  0.5287
 1059TIP3    H1 3120   3.742   4.289   1.564 -0.1016  0.0726  0.5626
 1059TIP3    H2 3121   3.788   4.145   1.563  0.3913  0.2314 -0.4904
 1060TIP3   OH2 3122   2.964   5.250   1.266 -0.0980  0.4047  0.1148
 1060TIP3    H1 3123   2.895   5.238   1.201  0.3889  0.1859 -0.3688
 1060TIP3    H2 3124   2.958   5.343   1.290  0.8590  0.9305 -1.5668
 1061TIP3   OH2 3125   3.824   1.202   5.471  0.2815 -0.4782  1.1710
 1061TIP3    H1 3126   3.775   1.282   5.451  2.0019  0.3010 -0.0291
 1061TIP3    H2 3127   3.823   1.152   5.389  0.8025 -0.8357  1.3868
 1062TIP3   OH2 3128   4.278   5.175   0.355 -0.6020  0.4041 -0.1172
 1062TIP3    H1 3129   4.232   5.096   0.383 -0.6977  0.1824 -0.8878
 1062TIP3    H2 3130   4.257   5.183   0.262 -2.3107  2.5144  0.4359
 1063TIP3   OH2 3131   4.383   4.520   2.867  0.3982  0.5864  0.0725
 1063TIP3    H1 3132   4.341   4.582   2.926 -1.0361  0.3975 -0.7275
 1063TIP3    H2 3133   4.438   4.467   2.924 -0.8486  0.4914  1.2314
 1064TIP3   OH2 3134   3.742   4.781   2.411 -0.6334 -0.2799  0.1962
 1064TIP3    H1 3135   3.749   4.875   2.423 -1.7801 -0.3785  1.7546
 1064TIP3    H2 3136   3.795   4.743   2.482  0.4831 -0.8270 -0.8903
 1065TIP3   OH2 3137   2.952   5.077   0.072  0.2552 -0.3959 -0.1701
 1065TIP3    H1 3138   2.981   4.988   0.053 -0.8445 -0.3003 -2.4362
 1065TIP3    H2 3139   2.934   5.116  -0.014 -2.2071  1.0083  0.9104
 1066TIP3   OH2 3140   4.924   0.495   3.132  0.3001 -0.3404  0.5806
 1066TIP3    H1 3141   4.926   0.487   3.037 -1.0816 -1.3810  0.6106
 1066TIP3    H2 3142   4.836   0.465   3.156  0.3627  0.6610  2.1153
 1067TIP3   OH2 3143   3.000   3.339   1.443 -0.1536  0.1016  0.1297
 1067TIP3    H1 3144   3.055   3.275   1.398  1.2972  1.0269  0.5295
 1067TIP3    H2 3145   2.990   3.410   1.379 -1.6510 -0.4457 -0.2674
 1068TIP3   OH2 3146   4.188   2.558   1.079 -0.2714 -0.2631  0.4652
 1068TIP3    H1 3147   4.185   2.652   1.063  0.1733 -0.5252 -1.2259
 1068TIP3    H2 3148   4.126   2.521   1.016  1.7112 -1.3329 -0.8985
 1069TIP3   OH2 3149   4.864   1.939   0.991 -0.2105 -0.1478 -0.6114
 1069TIP3    H1 3150   4.788   1.914   1.044  1.8338 -0.0106  2.4995
 1069TIP3    H2 3151   4.858   2.035   0.985  1.0005  0.1302  1.8010
 1070TIP3   OH2 3152   4.113   2.654   2.412  0.5774 -0.3730  0.2483
 1070TIP3    H1 3153   4.139   2.651   2.320 -0.9555  0.1464 -0.2219
 1070TIP3    H2 3154   4.029   2.699   2.412  0.0885 -1.2265  1.8014
 1071TIP3   OH2 3155   5.135   6.314   0.451  0.2970  0.0284  0.4178
 1071TIP3    H1 3156   5.185   6.269   0.383  0.0106 -0.4586  0.5299
 1071TIP3    H2 3157   5.160   6.271   0.532  1.4599  1.3208  0.7637
 1072TIP3   OH2 3158   3.592   2.532   1.790 -0.6833 -0.2578 -0.3742
 1072TIP3    H1 3159   3.651   2.600   1.821  0.1250 -1.6475  1.2213
 1072TIP3    H2 3160   3.513   2.543   1.843 -1.7200  1.2907 -2.1718
 1073TIP3   OH2 3161   5.497   2.514   1.815  0.1691  0.0053 -0.6266
 1073TIP3    H1 3162   5.514   2.442   1.754 -0.3791 -0.2416 -0.4915
 1073TIP3    H2 3163   5.442   2.575   1.766  0.9239  0.5030 -0.8563
 1074TIP3   OH2 3164   2.963   5.126   1.527 -0.0945 -0.2430 -0.2626
 1074TIP3    H1 3165   2.989   5.206   1.572  0.9774 -0.6624 -0.1218
 1074TIP3    H2 3166   2.932   5.155   1.441  1.8314  0.2016 -0.8371
 1075TIP3   OH2 3167   5.498   7.621   6.000  0.9006  0.9557 -0.0148
 1075TIP3    H1 3168   5.550   7.541   5.987 -0.0062  0.5438 -1.2215
 1075TIP3    H2 3169   5.534   7.660   6.079  1.5985 -0.4649  0.3949
 1076TIP3   OH2 3170   5.705   3.001   1.242 -0.1056 -0.4576 -0.0607
 1076TIP3    H1 3171   5.612   2.981   1.230 -0.1012  0.2363 -1.3452
 1076TIP3    H2 3172   5.719   2.995   1.336 -1.2885 -1.2997  0.0666
 1077TIP3   OH2 3173   4.232   0.885   1.677 -0.1378 -0.2585  0.4993
 1077TIP3    H1 3174   4.178   0.963   1.669 -0.2156 -0.0395  2.7821
 1077TIP3    H2 3175   4.321   0.919   1.691 -0.0732 -0.5667  0.8546
 1078TIP3   OH2 3176   3.354   0.556   6.291  0.2148  0.4211 -0.1020
 1078TIP3    H1 3177   3.276   0.604   6.263 -0.3027 -0.7644 -0.7250
 1078TIP3    H2 3178   3.356   0.567   6.386 -1.4841 -0.6725  0.0840
 1079TIP3   OH2 3179   0.322   7.830   6.968 -0.4454 -0.7533 -0.3352
 1079TIP3    H1 3180   0.309   7.862   6.879 -0.4400 -1.0895 -0.4582
 1079TIP3    H2 3181   0.410   7.793   6.967  0.3290  1.0497  0.3541
 1080TIP3   OH2 3182   4.174   3.769   1.641  0.6403  0.3624  0.0062
 1080TIP3    H1 3183   4.157   3.822   1.563 -0.8708  0.4269  0.3649
 1080TIP3    H2 3184   4.259   3.729   1.624  0.5106  0.6786 -1.5136
 1081TIP3   OH2 3185   4.644   4.255   2.514 -0.5829  0.3701 -0.4445
 1081TIP3    H1 3186   4.664   4.325   2.452 -0.5532  1.5798  0.8916
 1081TIP3    H2 3187   4.569   4.288   2.564 -0.9461 -0.8141 -0.1916
 1082TIP3   OH2 3188   0.398   1.369   6.901  0.4273  0.2033 -0.4152
 1082TIP3    H1 3189   0.427   1.278   6.896 -0.7008 -0.2431  0.7583
 1082TIP3    H2 3190   0.401   1.389   6.995  0.0520  1.1670 -0.6056
 1083TIP3   OH2 3191   4.748   4.805   1.680 -0.2090 -0.1956 -0.3274
 1083TIP3    H1 3192   4.664   4.774   1.714 -0.2813  0.2128 -0.1251
 1083TIP3    H2 3193   4.793   4.726   1.650  1.6421 -1.1583  4.5067
 1084TIP3   OH2 3194   7.374   0.165   2.305 -0.2737 -0.3244  0.3522
 1084TIP3    H1 3195   7.422   0.119   2.374  1.3519  0.0436 -0.5130
 1084TIP3    H2 3196   7.382   0.107   2.229 -2.0684 -0.7344  0.4522
 1085TIP3   OH2 3197   3.991   4.847   1.781  0.2134 -0.0581  0.5752
 1085TIP3    H1 3198   3.910   4.886   1.813 -0.2971 -0.8310  0.2289
 1085TIP3    H2 3199   3.979   4.753   1.794  0.3362 -0.3163 -1.1399
 1086TIP3   OH2 3200   2.742   4.538   0.755 -0.0912  0.2459  0.1126
 1086TIP3    H1 3201   2.761   4.534   0.849  2.4116  0.8644 -0.3333
 1086TIP3    H2 3202   2.810   4.485   0.714 -1.1711 -0.0295 -1.3695
 1087TIP3   OH2 3203   3.979   4.706   1.225 -0.2179 -0.2463  0.3013
 1087TIP3    H1 3204   3.908   4.656   1.264  0.6207 -0.8655  1.0767
 1087TIP3    H2 3205   3.987   4.784   1.280  1.7080 -1.6610  2.1182
 1088TIP3   OH2 3206   2.804   3.525   1.940  0.4037  0.4719 -0.0076
 1088TIP3    H1 3207   2.805   3.552   2.031 -1.7897  1.5489 -0.2641
 1088TIP3    H2 3208   2.837   3.600   1.892 -0.0778  0.5438 -0.2326
 1089TIP3   OH2 3209   3.178   5.796   1.922 -0.2824  0.2237  0.0507
 1089TIP3    H1 3210   3.169   5.848   2.002 -0.8423 -1.0404  0.8430
 1089TIP3    H2 3211   3.090   5.792   1.886 -0.0933  0.4951 -0.4375
 1090TIP3   OH2 3212   4.481   6.271   0.115  0.1061 -0.1455  0.3222
 1090TIP3    H1 3213   4.507   6.179   0.105 -1.0512 -0.4572  0.0834
 1090TIP3    H2 3214   4.423   6.271   0.191  0.0044  0.3704  0.2443
 1091TIP3   OH2 3215   6.363   5.647   1.949  0.7112 -0.1499 -0.1904
 1091TIP3    H1 3216   6.302   5.619   1.880 -0.4089 -1.1001  1.1726
 1091TIP3    H2 3217   6.402   5.728   1.914 -1.4553  0.5853 -1.0117
 1092TIP3   OH2 3218   4.806   5.076   2.731 -0.0335 -0.1990 -0.3416
 1092TIP3    H1 3219   4.864   5.139   2.774 -0.0568 -1.4754  1.6120
 1092TIP3    H2 3220   4.719   5.097   2.765 -0.6957  1.3517 -2.8511
 1093TIP3   OH2 3221   5.444   6.023   2.209  0.2979  0.2515 -0.1552
 1093TIP3    H1 3222   5.352   6.048   2.219  0.4515  0.7703 -0.0492
 1093TIP3    H2 3223   5.493   6.092   2.252  0.6600 -1.1097  1.6656
 1094TIP3   OH2 3224   5.070   2.650   3.251 -0.1981  0.3929 -0.0658
 1094TIP3    H1 3225   5.119   2.732   3.253  0.1475  0.2560 -1.7466
 1094TIP3    H2 3226   5.104   2.603   3.175 -1.3830 -0.6855  0.0394
 1095TIP3   OH2 3227   5.194   5.623   2.507  0.1223 -0.0213  0.4302
 1095TIP3    H1 3228   5.160   5.691   2.566 -0.5993  0.6429 -0.7292
 1095TIP3    H2 3229   5.118   5.567   2.489  0.3095 -0.1536  0.0392
 1096TIP3   OH2 3230   5.702   4.446   2.742  0.3936  0.0204 -0.3668
 1096TIP3    H1 3231   5.644   4.502   2.691 -0.5080 -1.5097 -1.0463
 1096TIP3    H2 3232   5.764   4.507   2.782 -0.3762  1.4744 -1.3253
 1097TIP3   OH2 3233   5.161   4.370   2.305  0.2213 -0.4658  0.0620
 1097TIP3    H1 3234   5.196   4.455   2.330  0.6662 -0.7438  0.3974
 1097TIP3    H2 3235   5.110   4.342   2.382 -0.1727 -0.3727 -0.1609
 1098TIP3   OH2 3236   4.971   4.766   1.877 -0.1487 -0.5715  0.3406
 1098TIP3    H1 3237   4.986   4.770   1.783 -0.7752  0.0239  0.2595
 1098TIP3    H2 3238   4.887   4.811   1.890  0.3916  0.2021  1.2847
 1099TIP3   OH2 3239   4.793   4.987   2.011  0.4506 -0.1154  0.0204
 1099TIP3    H1 3240   4.847   4.990   2.089 -0.7259  0.1317  0.8431
 1099TIP3    H2 3241   4.833   5.050   1.951  1.4854 -0.4695  0.3367
 1100TIP3   OH2 3242   2.682   5.375   1.395 -0.0723  0.2399  0.2344
 1100TIP3    H1 3243   2.765   5.423   1.397 -0.0233  0.2019 -0.8711
 1100TIP3    H2 3244   2.693   5.309   1.327 -0.6076 -0.5071  0.8671
 1101TIP3   OH2 3245   5.611   4.200   3.104  0.0725 -0.1447 -0.0280
 1101TIP3    H1 3246   5.628   4.284   3.146  1.6109 -0.0380 -0.8526
 1101TIP3    H2 3247   5.516   4.188   3.113 -0.3762  2.2755 -1.0295
 1102TIP3   OH2 3248   3.681   0.267   1.329  0.1069  0.2218  0.0316
 1102TIP3    H1 3249   3.764   0.235   1.295  0.6244  1.0041  0.5291
 1102TIP3    H2 3250   3.698   0.359   1.350 -0.9265  0.4247 -0.0053
 1103TIP3   OH2 3251   4.387   5.770   2.296 -0.5132 -0.2289  0.4135
 1103TIP3    H1 3252   4.393   5.747   2.203  2.0340 -0.1562  0.5147
 1103TIP3    H2 3253   4.338   5.699   2.335  2.1538 -2.5344 -0.2845
 1104TIP3   OH2 3254   2.888   3.706   1.732  0.1076 -0.0618 -0.0516
 1104TIP3    H1 3255   2.865   3.751   1.650  0.4420  0.0698 -0.0728
 1104TIP3    H2 3256   2.978   3.732   1.749  0.4287 -1.0076 -0.2593
 1105TIP3   OH2 3257   2.413   5.386   0.388  0.3569  0.0666  0.1071
 1105TIP3    H1 3258   2.474   5.458   0.405  0.1419 -0.0715  1.5236
 1105TIP3    H2 3259   2.443   5.315   0.445 -0.8760 -0.1379  0.5197
 1106TIP3   OH2 3260   6.674   3.928   1.050  0.7856 -0.9440  0.0957
 1106TIP3    H1 3261   6.647   3.847   1.005  3.2637 -1.3625 -0.6778
 1106TIP3    H2 3262   6.703   3.986   0.979  1.6502 -0.3915  0.9010
 1107TIP3   OH2 3263   0.549   7.702   6.494 -0.3188  0.1588  0.5233
 1107TIP3    H1 3264   0.562   7.609   6.476  1.1070  0.6301 -0.9932
 1107TIP3    H2 3265   0.539   7.743   6.408  1.4269  1.7376  1.0248
 1108TIP3   OH2 3266   1.810   1.918   1.754 -0.2186  0.2660 -0.6341
 1108TIP3    H1 3267   1.893   1.870   1.747 -0.2241 -0.2831  2.4612
 1108TIP3    H2 3268   1.743   1.856   1.725  0.1989 -0.1433 -0.7291
 1109TIP3   OH2 3269   2.707   3.280   1.859 -0.4658  1.0040  0.1945
 1109TIP3    H1 3270   2.740   3.364   1.891  3.6589  0.6155 -2.6671
 1109TIP3    H2 3271   2.697   3.292   1.765  0.2382 -1.7265 -0.2705
 1110TIP3   OH2 3272   5.577   3.461   1.870  0.1200  0.3890 -0.0476
 1110TIP3    H1 3273   5.665   3.499   1.869  0.5747 -0.6488 -0.8243
 1110TIP3    H2 3274   5.570   3.413   1.787 -0.3289 -1.3981  0.9755
 1111TIP3   OH2 3275   4.936   5.119   1.100  0.3773  0.3678  0.6447
 1111TIP3    H1 3276   4.971   5.031   1.088 -0.4497 -0.0482  1.2004
 1111TIP3    H2 3277   4.866   5.108   1.165 -0.3758  1.2724 -0.0053
 1112TIP3   OH2 3278   2.083   5.244   1.428  0.2047  0.0267 -0.0125
 1112TIP3    H1 3279   2.024   5.256   1.502 -2.0622 -0.6951 -1.6701
 1112TIP3    H2 3280   2.122   5.158   1.443  0.0972  0.0722  0.5558
 1113TIP3   OH2 3281   4.167   2.149   0.376  0.1787  0.0966 -0.0584
 1113TIP3    H1 3282   4.179   2.092   0.300 -0.6533  0.6475 -0.6078
 1113TIP3    H2 3283   4.078   2.182   0.368 -0.0217 -0.0594  1.3171
 1114TIP3   OH2 3284   2.889   4.068   1.010  0.4104  0.0194  0.5989
 1114TIP3    H1 3285   2.901   4.161   0.992  1.6153 -0.3205 -0.3629
 1114TIP3    H2 3286   2.802   4.048   0.974  0.9647  0.3347 -0.9324
 1115TIP3   OH2 3287   5.845   2.993   2.772  1.0252 -0.4968 -0.5460
 1115TIP3    H1 3288   5.781   3.058   2.799  1.4815 -0.5882  0.8259
 1115TIP3    H2 3289   5.868   3.016   2.682  0.2068  0.4394 -0.5147
 1116TIP3   OH2 3290   6.225   2.422   0.345 -0.4896 -0.3133 -0.3805
 1116TIP3    H1 3291   6.240   2.459   0.258 -0.8354 -0.5540 -0.5465
 1116TIP3    H2 3292   6.135   2.389   0.341 -2.1401  3.5691  1.4593
 1117TIP3   OH2 3293   5.835   6.582   0.669  0.3042  0.5344  0.2460
 1117TIP3    H1 3294   5.751   6.585   0.714 -0.1176  1.9859 -0.6312
 1117TIP3    H2 3295   5.887   6.519   0.720 -1.6034 -1.0776  0.2307
 1118TIP3   OH2 3296   3.627   5.375   1.815 -0.0964 -0.2262  0.3128
 1118TIP3    H1 3297   3.583   5.412   1.739 -1.1700 -1.2558  0.4163
 1118TIP3    H2 3298   3.698   5.436   1.834 -0.7557  0.8373 -0.5836
 1119TIP3   OH2 3299   1.934   5.404   0.240 -0.0279  0.1367  0.3031
 1119TIP3    H1 3300   1.877   5.479   0.255  0.3029 -0.0386  2.5953
 1119TIP3    H2 3301   2.020   5.433   0.271  0.4348 -0.6726 -0.2131
 1120TIP3   OH2 3302   5.946   3.496   2.053  0.3182  0.3225  0.2676
 1120TIP3    H1 3303   5.993   3.417   2.081 -0.2354 -0.2174 -0.2849
 1120TIP3    H2 3304   5.854   3.468   2.048 -0.0150  1.2585  0.9810
 1121TIP3   OH2 3305   5.930   3.881   6.560 -0.6822  0.4353  0.0395
 1121TIP3    H1 3306   5.959   3.833   6.483 -1.2435 -0.6741  0.5043
 1121TIP3    H2 3307   5.835   3.889   6.549 -0.7166  0.5772  0.4353
 1122TIP3   OH2 3308   8.384   4.496   4.665 -0.1096 -0.1361  0.4511
 1122TIP3    H1 3309   8.459   4.439   4.678 -0.3691 -0.3722  0.9366
 1122TIP3    H2 3310   8.383   4.553   4.742 -0.5129 -0.2312  0.5165
 1123TIP3   OH2 3311   4.237   5.009   2.520  0.2024  0.4011 -0.1389
 1123TIP3    H1 3312   4.154   4.969   2.547 -0.3299  2.8873  2.0310
 1123TIP3    H2 3313   4.216   5.052   2.437 -1.1878  2.4747  1.2345
 1124TIP3   OH2 3314   3.696   5.321   0.908 -0.3366 -0.4092  0.3822
 1124TIP3    H1 3315   3.651   5.260   0.851 -2.1561 -0.9737  2.3693
 1124TIP3    H2 3316   3.629   5.385   0.933  1.0340  1.2301 -0.0275
 1125TIP3   OH2 3317   4.011   3.249   0.822  0.0211  0.7170  0.6533
 1125TIP3    H1 3318   4.029   3.328   0.770 -1.3224  0.8848  0.4156
 1125TIP3    H2 3319   3.933   3.211   0.781 -0.2925  0.1464  1.7616
 1126TIP3   OH2 3320   3.407   5.294   1.930  0.4631  0.0712  0.6881
 1126TIP3    H1 3321   3.500   5.300   1.908  0.4554 -0.3890  0.5370
 1126TIP3    H2 3322   3.369   5.375   1.896  0.4368 -0.6742 -1.0708
 1127TIP3   OH2 3323   4.986   4.860   2.268 -0.7711  0.0285 -0.2114
 1127TIP3    H1 3324   5.037   4.800   2.213 -0.0106  0.8779 -0.4328
 1127TIP3    H2 3325   4.976   4.813   2.351 -0.2121 -0.4227 -0.3949
 1128TIP3   OH2 3326   4.974   4.687   3.052 -0.5427  0.2125  0.0151
 1128TIP3    H1 3327   5.051   4.720   3.098 -1.1479 -1.6623  2.4401
 1128TIP3    H2 3328   5.007   4.614   2.999 -0.7613 -1.0491  1.6037
 1129TIP3   OH2 3329   5.383   5.817   1.768 -0.2429  0.0627  0.3411
 1129TIP3    H1 3330   5.376   5.912   1.757  1.0946 -0.0445 -1.5630
 1129TIP3    H2 3331   5.396   5.805   1.862 -0.3292  1.7652  0.5859
 1130TIP3   OH2 3332   3.872   5.161   2.845  0.1527  0.0166  0.7841
 1130TIP3    H1 3333   3.916   5.114   2.774 -1.3525 -1.0073  0.5081
 1130TIP3    H2 3334   3.877   5.101   2.920  0.5824  0.5477  1.1856
 1131TIP3   OH2 3335   3.774   4.660   2.172  0.2153  0.6564  0.1527
 1131TIP3    H1 3336   3.780   4.654   2.267 -0.3279  1.9769  0.2774
 1131TIP3    H2 3337   3.794   4.572   2.141  2.6687  0.7356  1.3709
 1132TIP3   OH2 3338   4.013   2.189   2.487  0.4090  0.1485 -0.0606
 1132TIP3    H1 3339   4.093   2.177   2.436  0.5320  0.7400 -0.0174
 1132TIP3    H2 3340   4.015   2.119   2.552  0.7545 -0.0008 -0.2304
 1133TIP3   OH2 3341   5.510   4.601   1.597  0.0448  0.7194  0.8006
 1133TIP3    H1 3342   5.476   4.689   1.614 -0.0972  1.0728 -1.3008
 1133TIP3    H2 3343   5.604   4.610   1.608  0.0574  1.1871  0.3149
 1134TIP3   OH2 3344   5.236   2.979   1.655 -0.3714 -0.1761  0.4405
 1134TIP3    H1 3345   5.239   2.979   1.751  2.6130 -0.5771  0.3925
 1134TIP3    H2 3346   5.224   3.071   1.631  0.5574  0.1519  1.2024
 1135TIP3   OH2 3347   3.436   2.035   1.993  0.5298 -0.4537 -0.0819
 1135TIP3    H1 3348   3.524   2.063   1.968  0.4350 -0.4149 -0.3705
 1135TIP3    H2 3349   3.378   2.078   1.931  0.3976 -1.4330 -0.6383
 1136TIP3   OH2 3350   5.604   0.710   0.089  0.0336 -0.1315 -0.5318
 1136TIP3    H1 3351   5.578   0.787   0.141  0.9146 -0.6177  0.6772
 1136TIP3    H2 3352   5.536   0.646   0.105 -0.2587  0.1008 -0.8469
 1137TIP3   OH2 3353   4.729   3.207   4.293  0.7602  0.0113  0.7649
 1137TIP3    H1 3354   4.692   3.175   4.211  0.7429 -1.0187  1.1639
 1137TIP3    H2 3355   4.653   3.234   4.345  0.4753 -2.4719  1.7399
 1138TIP3   OH2 3356   4.620   3.524   1.875  0.3315  0.4157 -0.3452
 1138TIP3    H1 3357   4.696   3.468   1.890 -0.8382 -1.2937 -0.5986
 1138TIP3    H2 3358   4.620   3.540   1.780 -0.0508 -0.2182 -0.4534
 1139TIP3   OH2 3359   3.344   4.734   1.491  0.2400  0.0786  0.2511
 1139TIP3    H1 3360   3.319   4.826   1.494  1.5731  0.5199 -1.1298
 1139TIP3    H2 3361   3.308   4.702   1.408 -0.0709 -0.6037  0.6443
 1140TIP3   OH2 3362   4.052   1.710   1.802 -0.1139  0.3396  0.6800
 1140TIP3    H1 3363   4.011   1.791   1.771 -0.6910  0.3495  1.4535
 1140TIP3    H2 3364   4.014   1.695   1.888 -0.1419 -0.8457  0.4762
 1141TIP3   OH2 3365   0.205   0.544   6.397 -0.1556 -0.1053  0.0904
 1141TIP3    H1 3366   0.197   0.629   6.440 -1.8784 -0.9335  1.4732
 1141TIP3    H2 3367   0.286   0.507   6.433  1.2332  1.3965 -1.3939
 1142TIP3   OH2 3368   1.053   1.896   6.512  0.4261  0.2357 -0.1956
 1142TIP3    H1 3369   1.005   1.945   6.445  0.2649  0.6216  0.2056
 1142TIP3    H2 3370   1.072   1.960   6.580  0.9177 -0.0726 -0.0416
 1143TIP3   OH2 3371   3.667   3.587   0.908  0.1891  0.2027 -0.1353
 1143TIP3    H1 3372   3.585   3.633   0.888  0.4284  0.4810 -0.4841
 1143TIP3    H2 3373   3.640   3.498   0.931 -0.1671  0.1240 -0.8341
 1144TIP3   OH2 3374   6.169   4.403   2.551  0.3386 -0.1391 -0.1077
 1144TIP3    H1 3375   6.230   4.430   2.620 -0.5905 -0.0746  0.7107
 1144TIP3    H2 3376   6.205   4.439   2.471  1.3807 -0.1157  0.3663
 1145TIP3   OH2 3377   5.158   5.276   1.144  0.0499  0.8999  0.0483
 1145TIP3    H1 3378   5.078   5.224   1.138  1.1226 -0.8477  0.5963
 1145TIP3    H2 3379   5.134   5.361   1.107 -1.7911  0.0990 -0.6534
 1146TIP3   OH2 3380   5.002   6.493   1.361  0.1200 -0.2060  0.5730
 1146TIP3    H1 3381   4.958   6.430   1.418 -0.2644 -0.2095  0.2702
 1146TIP3    H2 3382   5.046   6.439   1.296  0.5094 -0.1989  0.8307
 1147TIP3   OH2 3383   4.777   4.803   2.670 -0.5107  0.4216 -0.6642
 1147TIP3    H1 3384   4.779   4.890   2.711  0.9517 -0.2909  0.8196
 1147TIP3    H2 3385   4.777   4.742   2.743  1.5216 -0.8800 -1.7077
 1148TIP3   OH2 3386   5.345   3.531   1.977  0.2699  0.2744 -0.4553
 1148TIP3    H1 3387   5.324   3.438   1.966  2.4846 -0.3008 -0.1377
 1148TIP3    H2 3388   5.410   3.549   1.908 -0.1330  1.5936 -0.5138
 1149TIP3   OH2 3389   6.798   6.006   1.223 -0.4722 -0.1277  0.2382
 1149TIP3    H1 3390   6.730   5.969   1.279 -0.7981 -0.2609 -0.2312
 1149TIP3    H2 3391   6.763   6.091   1.197  0.6609  0.8876  2.0096
 1150TIP3   OH2 3392   2.718   0.922   6.259  0.7866  0.0024  0.3771
 1150TIP3    H1 3393   2.624   0.933   6.266  0.8398 -0.3389  1.6680
 1150TIP3    H2 3394   2.733   0.830   6.283  1.2910 -0.3721 -1.3059
 1151TIP3   OH2 3395   6.953   6.036   1.594 -0.7481 -0.0607  0.3798
 1151TIP3    H1 3396   6.927   6.061   1.682 -0.0944  0.9154  0.2955
 1151TIP3    H2 3397   6.928   6.110   1.539 -0.1798 -0.2171 -0.0966
 1152TIP3   OH2 3398   5.321   4.591   3.129  0.0362 -0.3172  0.2385
 1152TIP3    H1 3399   5.348   4.602   3.220  0.0667  3.4761 -0.1272
 1152TIP3    H2 3400   5.404   4.583   3.080  0.0809 -0.5903  0.3594
 1153TIP3   OH2 3401   4.505   5.333   2.121 -0.2567  0.6585  0.6278
 1153TIP3    H1 3402   4.528   5.247   2.156 -1.2837 -0.1100 -0.5436
 1153TIP3    H2 3403   4.562   5.395   2.168  2.0319 -0.8628 -0.1024
 1154TIP3   OH2 3404   5.466   3.735   0.673 -0.1053  0.3189  0.7932
 1154TIP3    H1 3405   5.377   3.703   0.691 -0.0553 -0.1941  0.1611
 1154TIP3    H2 3406   5.468   3.823   0.710 -0.5007 -0.1192  1.8768
 1155TIP3   OH2 3407   5.688   1.255   0.578  0.1429  0.6370  0.0995
 1155TIP3    H1 3408   5.594   1.238   0.577  0.1893  0.3793  0.1345
 1155TIP3    H2 3409   5.709   1.272   0.670  0.0792  0.9795  0.0497
 1156TIP3   OH2 3410   3.788   5.878   0.596 -0.2543 -0.3605  0.2767
 1156TIP3    H1 3411   3.833   5.841   0.672 -0.0561 -0.0577  0.3105
 1156TIP3    H2 3412   3.751   5.803   0.550 -0.0033 -0.5824  0.4359
 1157TIP3   OH2 3413   4.005   5.286   1.408 -0.3567 -0.2062  0.0406
 1157TIP3    H1 3414   3.968   5.332   1.332 -0.8900 -2.2504 -1.0033
 1157TIP3    H2 3415   3.930   5.242   1.448 -0.1611  1.3013  2.0969
 1158TIP3   OH2 3416   6.986   5.645   0.725 -0.4329  0.1453  0.1710
 1158TIP3    H1 3417   7.051   5.692   0.673 -0.8918 -0.4449 -0.9386
 1158TIP3    H2 3418   7.036   5.611   0.800  0.5404 -0.2865 -0.6583
 1159TIP3   OH2 3419   4.023   1.551   0.037  0.0563 -0.2117 -0.3143
 1159TIP3    H1 3420   3.961   1.512   0.099 -0.4356  0.1577 -0.5673
 1159TIP3    H2 3421   3.968   1.584  -0.034  0.4889  0.5931 -0.2863
 1160TIP3   OH2 3422   5.632   4.507   0.424 -0.3387  0.1521  0.1339
 1160TIP3    H1 3423   5.600   4.551   0.345 -0.7853 -0.6130 -0.1227
 1160TIP3    H2 3424   5.715   4.551   0.444 -1.5333  2.1815  0.8125
 1161TIP3   OH2 3425   4.661   5.544   2.947 -0.1075 -0.2010 -0.0185
 1161TIP3    H1 3426   4.589   5.534   2.885  0.3303 -1.0625 -0.4121
 1161TIP3    H2 3427   4.653   5.469   3.006 -1.0415  1.0955  1.5318
 1162TIP3   OH2 3428   5.634   7.067   6.753  0.2107  0.2892 -0.6879
 1162TIP3    H1 3429   5.623   6.979   6.788 -0.8162  0.3910 -0.7472
 1162TIP3    H2 3430   5.726   7.088   6.771  0.3423 -0.6019 -0.2548
 1163TIP3   OH2 3431   2.935   5.849   1.815  0.3162 -0.2347  0.1871
 1163TIP3    H1 3432   2.930   5.941   1.840  1.3384 -0.1752  0.1745
 1163TIP3    H2 3433   2.843   5.821   1.807  0.0043  0.5962  0.8474
 1164TIP3   OH2 3434   4.466   0.592   6.442 -0.1360 -0.5816  1.0023
 1164TIP3    H1 3435   4.530   0.596   6.513  0.1678  1.5277  0.6501
 1164TIP3    H2 3436   4.480   0.673   6.392 -2.6246 -0.3850  0.5448
 1165TIP3   OH2 3437   5.876   2.255   0.851  0.0429  0.0002 -0.2045
 1165TIP3    H1 3438   5.951   2.309   0.878  0.8194 -0.6537 -1.0149
 1165TIP3    H2 3439   5.803   2.317   0.846 -0.2414  0.0819  3.6751
 1166TIP3   OH2 3440   2.174   1.971   5.955 -0.6271 -0.3285  1.0405
 1166TIP3    H1 3441   2.146   2.025   6.029 -1.5860 -1.8910  1.8564
 1166TIP3    H2 3442   2.098   1.915   5.936 -0.0487 -0.6250 -0.4914
 1167TIP3   OH2 3443   1.052   4.233   2.919  0.0098  0.2803 -0.1490
 1167TIP3    H1 3444   0.964   4.270   2.919 -0.3915 -0.6821  0.1801
 1167TIP3    H2 3445   1.081   4.238   3.010  0.3327  0.6638 -0.2670
 1168TIP3   OH2 3446   5.493   4.935   1.668  0.3222  0.3941 -0.1003
 1168TIP3    H1 3447   5.497   5.031   1.669  1.7247  0.3524  0.2028
 1168TIP3    H2 3448   5.515   4.909   1.757  0.2874 -0.2110 -0.2640
 1169TIP3   OH2 3449   5.392   3.506   0.971  0.4991  0.5591 -0.0863
 1169TIP3    H1 3450   5.436   3.517   0.887  0.9254 -1.6198 -0.1693
 1169TIP3    H2 3451   5.462   3.491   1.034  0.0161 -0.7600  0.1509
 1170TIP3   OH2 3452   3.240   0.713   5.408 -0.1363 -0.1467 -0.2382
 1170TIP3    H1 3453   3.230   0.773   5.483 -1.5402 -1.2528  0.4821
 1170TIP3    H2 3454   3.182   0.749   5.341 -2.2482 -1.5597  0.7694
 1171TIP3   OH2 3455   4.690   3.247   1.548  0.1557  0.8119 -0.3569
 1171TIP3    H1 3456   4.629   3.184   1.510  0.2376  0.1221  0.6343
 1171TIP3    H2 3457   4.671   3.246   1.642 -0.1376  2.6018 -0.3880
 1172TIP3   OH2 3458   2.802   3.045   3.992  0.1067  0.1096  0.9288
 1172TIP3    H1 3459   2.894   3.069   3.981 -0.1888  0.5385 -0.6708
 1172TIP3    H2 3460   2.786   2.977   3.928 -0.2518 -1.2294  2.4073
 1173TIP3   OH2 3461   4.999   1.449   6.516  0.2961  0.2530 -0.3940
 1173TIP3    H1 3462   4.995   1.411   6.604 -0.5796  1.3361  0.0394
 1173TIP3    H2 3463   4.926   1.512   6.513 -0.7096 -0.9404 -2.4428
 1174TIP3   OH2 3464   2.247   2.694   2.423 -0.1912  0.3800 -0.0215
 1174TIP3    H1 3465   2.341   2.696   2.408  0.2428 -0.3941  2.4819
 1174TIP3    H2 3466   2.222   2.786   2.431 -0.1005  0.7300 -3.1448
 1175TIP3   OH2 3467   2.659   1.755   0.318  0.4767  0.0922 -0.3150
 1175TIP3    H1 3468   2.609   1.717   0.246  0.5600 -2.1295  0.7539
 1175TIP3    H2 3469   2.636   1.848   0.317 -0.2162 -0.0651 -2.6205
 1176TIP3   OH2 3470   6.075   3.019   1.207  0.1820  0.2935  0.1452
 1176TIP3    H1 3471   6.069   3.109   1.173 -0.2813  0.0399 -0.4717
 1176TIP3    H2 3472   6.027   2.967   1.142  1.8868 -0.6388 -0.3778
 1177TIP3   OH2 3473   3.172   1.729   6.162  0.1735 -0.2347  0.3669
 1177TIP3    H1 3474   3.149   1.749   6.071  1.4781 -1.5996 -0.2923
 1177TIP3    H2 3475   3.093   1.747   6.212 -1.5744 -2.4673 -1.4797
 1178TIP3   OH2 3476   4.008   2.562   2.069  0.2171  0.1378 -0.5922
 1178TIP3    H1 3477   4.079   2.553   2.132  0.2931 -0.2701 -0.7327
 1178TIP3    H2 3478   4.020   2.488   2.009 -0.0694  0.3132 -0.8690
 1179TIP3   OH2 3479   4.446   5.770   0.123 -0.3094 -0.1590 -0.1560
 1179TIP3    H1 3480   4.442   5.674   0.124 -1.6106 -0.1254 -1.1648
 1179TIP3    H2 3481   4.361   5.798   0.156 -0.2558  0.6507 -0.7068
 1180TIP3   OH2 3482   4.471   4.940   1.260  0.0889 -0.4743 -0.3516
 1180TIP3    H1 3483   4.400   4.877   1.271 -1.5976  1.3549 -0.3804
 1180TIP3    H2 3484   4.437   5.021   1.299  0.9360  1.2756 -3.1178
 1181TIP3   OH2 3485   5.638   3.979   1.503 -0.6513 -0.6098 -0.1240
 1181TIP3    H1 3486   5.560   4.033   1.514 -0.7880 -0.7930 -0.1888
 1181TIP3    H2 3487   5.700   4.012   1.569 -0.3878  0.2413 -0.7793
 1182TIP3   OH2 3488   4.255   5.490   2.175  0.0425  0.3702 -0.2462
 1182TIP3    H1 3489   4.319   5.419   2.179 -0.3067  0.0355 -0.4175
 1182TIP3    H2 3490   4.281   5.542   2.100  0.2888  0.4066 -0.1343
 1183TIP3   OH2 3491   2.918   5.997   3.175  0.0779 -0.8395  0.6901
 1183TIP3    H1 3492   2.979   6.067   3.152  2.4500 -2.4282  1.9676
 1183TIP3    H2 3493   2.883   5.968   3.091  1.0412  0.1224 -0.0675
 1184TIP3   OH2 3494   3.321   4.833   1.238  0.4955  0.4600 -0.4258
 1184TIP3    H1 3495   3.235   4.864   1.265  0.4468  1.6389 -1.8567
 1184TIP3    H2 3496   3.378   4.910   1.245  1.8582 -0.7321  2.2196
 1185TIP3   OH2 3497   2.791   3.246   1.286  0.3147  0.2502  0.2133
 1185TIP3    H1 3498   2.729   3.253   1.359  1.3197  0.3710  1.0644
 1185TIP3    H2 3499   2.840   3.165   1.304  1.0309  0.6439  0.0444
 1186TIP3   OH2 3500   5.864   7.454   0.877  0.3050 -0.1069  0.2970
 1186TIP3    H1 3501   5.873   7.518   0.947  3.1053  2.9270 -2.6866
 1186TIP3    H2 3502   5.948   7.409   0.874  0.3788  0.0770 -1.3047
 1187TIP3   OH2 3503   3.877   2.248   6.786  0.4244 -0.3020 -0.4169
 1187TIP3    H1 3504   3.962   2.271   6.824  0.1287 -0.5892  0.4327
 1187TIP3    H2 3505   3.814   2.275   6.852 -0.0871 -0.9979 -0.6191
 1188TIP3   OH2 3506   4.252   1.975   0.852 -0.5871  0.3295 -0.0694
 1188TIP3    H1 3507   4.266   1.918   0.776 -0.9069 -0.6955  0.6340
 1188TIP3    H2 3508   4.170   2.020   0.834 -0.9246 -0.2954 -0.1037
 1189TIP3   OH2 3509   7.347   5.038   6.844 -0.5544  0.7775 -0.2116
 1189TIP3    H1 3510   7.254   5.017   6.846 -0.9739  2.5945  0.3622
 1189TIP3    H2 3511   7.367   5.052   6.751 -0.5515 -0.8317 -0.4660
 1190TIP3   OH2 3512   3.635   2.565   0.883  0.3270 -0.8706 -0.0106
 1190TIP3    H1 3513   3.650   2.588   0.792  0.3051  0.1896  0.2537
 1190TIP3    H2 3514   3.682   2.482   0.894  0.6704 -0.7959 -0.8754
 1191TIP3   OH2 3515   3.870   2.653   0.455 -0.0648 -0.0630 -0.2260
 1191TIP3    H1 3516   3.891   2.696   0.538  0.6368  0.5900 -0.7209
 1191TIP3    H2 3517   3.955   2.642   0.412 -0.4618  0.0403 -1.0546
 1192TIP3   OH2 3518   4.610   5.318   3.095 -0.2262  0.4890  0.2359
 1192TIP3    H1 3519   4.689   5.289   3.048 -0.9213  0.0746 -0.7065
 1192TIP3    H2 3520   4.550   5.243   3.089 -1.0800  1.1778  0.0236
 1193TIP3   OH2 3521   1.255   7.559   1.486  0.4735  0.4200  0.0768
 1193TIP3    H1 3522   1.270   7.577   1.579  0.8108  0.2167  0.0633
 1193TIP3    H2 3523   1.198   7.482   1.485 -0.9479  1.4492  0.1348
 1194TIP3   OH2 3524   4.315   1.892   1.112 -0.0993  0.0720  0.4475
 1194TIP3    H1 3525   4.274   1.943   1.042  1.5053  0.2875 -0.3627
 1194TIP3    H2 3526   4.295   1.940   1.192  0.7783  1.6236 -0.2266
 1195TIP3   OH2 3527   3.652   2.529   1.503  0.5965 -0.1101  0.5966
 1195TIP3    H1 3528   3.661   2.624   1.490 -0.5415 -0.0291  0.3392
 1195TIP3    H2 3529   3.613   2.521   1.591 -2.1436 -0.1869 -0.5578
 1196TIP3   OH2 3530   4.504   3.834   2.407  0.0105  0.5340 -0.6831
 1196TIP3    H1 3531   4.434   3.896   2.430  0.9547  1.5413 -0.4940
 1196TIP3    H2 3532   4.585   3.883   2.420  0.7179 -0.1616 -2.3050
 1197TIP3   OH2 3533   6.224   1.275   2.152  0.4246 -0.4524 -0.3008
 1197TIP3    H1 3534   6.268   1.300   2.071  0.6670 -0.2951 -0.1224
 1197TIP3    H2 3535   6.295   1.246   2.210  0.4238  0.9637  0.4192
 1198TIP3   OH2 3536   1.166   7.187   6.855 -0.0093  0.1425  0.0828
 1198TIP3    H1 3537   1.187   7.206   6.946  0.4163  0.8516 -0.1619
 1198TIP3    H2 3538   1.215   7.107   6.835 -1.5145 -1.0442  0.9990
 1199TIP3   OH2 3539   5.866   5.091   0.173 -0.2631 -0.2506  0.0844
 1199TIP3    H1 3540   5.793   5.132   0.219  0.4358 -0.4391  1.3645
 1199TIP3    H2 3541   5.934   5.080   0.239  1.2875  0.7820 -1.3113
 1200TIP3   OH2 3542   7.628   1.668   0.959 -0.1027 -0.2171 -0.4319
 1200TIP3    H1 3543   7.690   1.725   1.004  1.3105 -0.8871 -1.4915
 1200TIP3    H2 3544   7.635   1.584   1.005 -1.5212  0.1755  0.5510
 1201TIP3   OH2 3545   2.138   4.328   1.031  0.5578  0.0469 -0.0676
 1201TIP3    H1 3546   2.118   4.358   1.120 -0.5231 -1.8125  0.3280
 1201TIP3    H2 3547   2.175   4.405   0.988  0.9429  1.0128  1.9418
 1202TIP3   OH2 3548   6.700   4.575   1.251 -0.2384 -0.0866 -0.0473
 1202TIP3    H1 3549   6.700   4.647   1.188 -1.1421  0.0389  0.0796
 1202TIP3    H2 3550   6.733   4.500   1.202  0.8025  0.4358 -0.1505
 1203TIP3   OH2 3551   6.713   6.248   0.214  0.6355  0.4758  0.1676
 1203TIP3    H1 3552   6.779   6.178   0.217 -0.0223 -0.2413 -1.6396
 1203TIP3    H2 3553   6.755   6.318   0.165  0.8183  0.8643  0.8673
 1204TIP3   OH2 3554   8.406   1.498   1.830 -0.5374 -0.4867 -0.2045
 1204TIP3    H1 3555   8.378   1.494   1.921  0.1481  0.8558  0.0791
 1204TIP3    H2 3556   8.365   1.578   1.796 -0.2278 -0.6091 -0.8781
 1205TIP3   OH2 3557   0.581   3.918   1.619 -0.8226 -0.4709  0.3405
 1205TIP3    H1 3558   0.537   3.940   1.537  0.0746  1.0758  0.2603
 1205TIP3    H2 3559   0.574   3.996   1.673  2.2927  0.0677  0.0935
 1206TIP3   OH2 3560   1.544   5.284   6.022 -0.0236  0.5758  0.7117
 1206TIP3    H1 3561   1.490   5.241   5.955 -0.7570  1.2050  0.8889
 1206TIP3    H2 3562   1.589   5.212   6.066 -2.6674 -0.1949  2.2366
 1207TIP3   OH2 3563   8.039   3.024   0.112  0.2340 -0.1969  0.2555
 1207TIP3    H1 3564   7.943   3.020   0.121  0.2132 -0.4514 -0.0625
 1207TIP3    H2 3565   8.071   3.032   0.202 -0.0230 -1.6373  0.4907
 1208TIP3   OH2 3566   5.996   3.971   2.006 -0.7458 -0.1743 -0.1341
 1208TIP3    H1 3567   6.077   3.996   2.051 -0.9148 -1.8041  1.1373
 1208TIP3    H2 3568   6.006   3.878   1.989 -2.1003 -0.2601 -0.5293
 1209TIP3   OH2 3569   5.946   0.802   6.716  0.0268 -0.4669 -0.3484
 1209TIP3    H1 3570   5.872   0.753   6.681  0.5464 -1.8187  0.4044
 1209TIP3    H2 3571   6.023   0.761   6.675  0.4737 -0.3867  0.3999
 1210TIP3   OH2 3572   5.719   4.831   1.086 -0.0098  0.4406  0.0325
 1210TIP3    H1 3573   5.703   4.884   1.008 -0.5823  0.1519 -0.0481
 1210TIP3    H2 3574   5.632   4.810   1.120  0.2488  1.6826  1.5225
 1211TIP3   OH2 3575   5.186   4.556   1.718  0.3777 -0.6755 -0.1158
 1211TIP3    H1 3576   5.241   4.630   1.693  0.8606 -0.6293  1.0681
 1211TIP3    H2 3577   5.248   4.483   1.729  0.1617 -0.6988  0.9227
 1212TIP3   OH2 3578   6.698   4.977   1.532  0.0319 -0.1205 -0.1018
 1212TIP3    H1 3579   6.717   4.884   1.526 -0.2096 -0.2469  1.0271
 1212TIP3    H2 3580   6.723   5.002   1.621  1.8965  1.3164 -1.0000
 1213TIP3   OH2 3581   5.692   4.023   2.860  0.0513 -0.0175 -0.6556
 1213TIP3    H1 3582   5.676   4.098   2.918  0.5953 -0.0060 -0.5246
 1213TIP3    H2 3583   5.718   4.063   2.777  1.4133 -0.0885 -0.2626
 1214TIP3   OH2 3584   5.352   1.640   0.462 -0.2031 -0.2575 -0.5695
 1214TIP3    H1 3585   5.385   1.636   0.552 -0.0905  0.1431 -0.5940
 1214TIP3    H2 3586   5.402   1.710   0.421  0.2812 -0.9458 -1.1680
 1215TIP3   OH2 3587   8.487   5.515   6.671 -0.2048  0.2565  0.2532
 1215TIP3    H1 3588   8.406   5.549   6.632  0.2375  1.9467  0.7538
 1215TIP3    H2 3589   8.542   5.491   6.597 -0.4819  0.7888 -0.1278
 1216TIP3   OH2 3590   7.361   3.899   1.488 -0.3903  0.1774  0.4600
 1216TIP3    H1 3591   7.312   3.980   1.501 -0.8618  0.2899 -1.9379
 1216TIP3    H2 3592   7.443   3.913   1.536 -0.0862  2.4426 -0.6573
 1217TIP3   OH2 3593   4.573   1.475   0.267 -0.7254  0.1522 -0.0193
 1217TIP3    H1 3594   4.585   1.462   0.361  1.3059  1.2712 -0.1004
 1217TIP3    H2 3595   4.635   1.415   0.226 -0.1530  1.1166 -0.5979
 1218TIP3   OH2 3596   1.458   7.434   6.443  0.4985 -0.2123 -0.4020
 1218TIP3    H1 3597   1.526   7.387   6.490 -0.0596  0.8561  1.5450
 1218TIP3    H2 3598   1.381   7.377   6.449  0.2748  0.1835  0.4752
 1219TIP3   OH2 3599   6.945   3.084   1.324  0.2892  0.8038 -0.4281
 1219TIP3    H1 3600   6.875   3.024   1.348 -0.4686  2.4871  1.7969
 1219TIP3    H2 3601   7.013   3.028   1.287  0.5266 -1.7834  3.5732
 1220TIP3   OH2 3602   5.949   5.381   1.766 -0.5352  0.1263  0.1118
 1220TIP3    H1 3603   5.874   5.433   1.739 -0.1204  0.6741  0.0248
 1220TIP3    H2 3604   5.913   5.293   1.780 -1.2863  0.4916  0.5313
 1221TIP3   OH2 3605   5.545   2.035   2.246 -0.3904  0.1314  0.2170
 1221TIP3    H1 3606   5.583   2.041   2.333 -0.7002 -0.0702  0.3677
 1221TIP3    H2 3607   5.493   2.115   2.237  0.9932  0.9738 -0.4404
 1222TIP3   OH2 3608   6.944   3.603   0.185  0.1135 -0.1682 -0.3824
 1222TIP3    H1 3609   6.902   3.632   0.104  0.4003  0.2154 -0.3979
 1222TIP3    H2 3610   7.038   3.612   0.167  0.1642  0.3535  0.1520
 1223TIP3   OH2 3611   5.415   2.298   2.205  0.0567  0.0129  0.4571
 1223TIP3    H1 3612   5.448   2.378   2.165 -0.1171  0.8927  2.0027
 1223TIP3    H2 3613   5.323   2.317   2.224  0.2260 -0.2469  1.5770
 1224TIP3   OH2 3614   8.310   2.576   3.015  0.1872  0.0683 -0.2764
 1224TIP3    H1 3615   8.279   2.545   2.930 -1.7717  0.3758  0.3152
 1224TIP3    H2 3616   8.291   2.505   3.076 -0.6453  0.8185  0.3496
 1225TIP3   OH2 3617   8.259   3.782   1.581  0.1896 -0.1330 -0.6610
 1225TIP3    H1 3618   8.296   3.782   1.493  0.0331  0.6473 -0.7245
 1225TIP3    H2 3619   8.284   3.867   1.618  1.1691 -0.8768  0.4293
 1226TIP3   OH2 3620   8.206   5.010   1.372 -0.0110 -0.1562  0.5548
 1226TIP3    H1 3621   8.275   5.074   1.392 -0.8952  1.0578 -0.2421
 1226TIP3    H2 3622   8.136   5.061   1.333 -1.7064 -1.2502  2.0522
 1227TIP3   OH2 3623   7.010   2.399   0.372 -0.1048 -0.1385  0.0912
 1227TIP3    H1 3624   7.032   2.458   0.444  1.8135 -1.4697  0.6001
 1227TIP3    H2 3625   7.081   2.410   0.309 -1.2449  0.2429 -1.1644
 1228TIP3   OH2 3626   7.049   4.927   2.124 -0.1457 -0.1175  0.2470
 1228TIP3    H1 3627   6.963   4.889   2.107 -0.8767  1.8757 -0.6935
 1228TIP3    H2 3628   7.034   5.021   2.124  2.0496  0.2638  0.0610
 1229TIP3   OH2 3629   5.949   4.208   1.893  0.1681  0.6248  0.0554
 1229TIP3    H1 3630   5.954   4.114   1.911  1.6137  0.5342 -0.7904
 1229TIP3    H2 3631   6.019   4.247   1.944  1.0220  0.9674 -1.3456
 1230TIP3   OH2 3632   5.311   5.131   0.989  0.1993 -0.0924 -0.0245
 1230TIP3    H1 3633   5.250   5.131   0.915 -0.8028 -2.4056  0.7556
 1230TIP3    H2 3634   5.265   5.176   1.059  0.4460  0.4992 -0.2359
 1231TIP3   OH2 3635   6.536   2.037   0.572  0.1315  0.0880 -0.7126
 1231TIP3    H1 3636   6.549   2.066   0.662 -2.2696  0.2420 -0.3646
 1231TIP3    H2 3637   6.516   1.944   0.579 -3.2754  0.7499 -0.7109
 1232TIP3   OH2 3638   6.306   3.849   0.475 -0.3855  0.2465 -0.4049
 1232TIP3    H1 3639   6.400   3.833   0.476 -0.4555 -0.3524 -2.3385
 1232TIP3    H2 3640   6.294   3.924   0.534  0.9463 -1.3853  2.0027
 1233TIP3   OH2 3641   6.756   2.734   1.949 -0.5582  0.4494  0.4371
 1233TIP3    H1 3642   6.778   2.791   2.023 -1.2185 -0.6482  1.5001
 1233TIP3    H2 3643   6.796   2.650   1.970  0.2057  0.4273 -1.0085
 1234TIP3   OH2 3644   0.263   2.856   4.379 -0.0862  0.0540 -0.1725
 1234TIP3    H1 3645   0.203   2.832   4.308  0.6119  0.8925 -1.0596
 1234TIP3    H2 3646   0.232   2.942   4.408 -1.9856 -1.4130  2.3458
 1235TIP3   OH2 3647   7.745   5.319   0.094  0.3543  0.7608 -0.4180
 1235TIP3    H1 3648   7.654   5.349   0.097  0.2387  0.3551  0.3612
 1235TIP3    H2 3649   7.742   5.240   0.041 -0.2250 -0.8218  1.9078
 1236TIP3   OH2 3650   7.329   3.702   1.967  0.2600 -0.4915  0.1296
 1236TIP3    H1 3651   7.363   3.759   1.898 -0.8151 -2.7142 -2.3118
 1236TIP3    H2 3652   7.272   3.640   1.921 -1.6400 -1.1329  3.2219
 1237TIP3   OH2 3653   2.166   7.412   6.813  0.3506 -0.0636 -0.5092
 1237TIP3    H1 3654   2.129   7.397   6.725 -1.2871 -0.2224  0.1837
 1237TIP3    H2 3655   2.093   7.395   6.872  1.3040  0.5677  0.8624
 1238TIP3   OH2 3656   7.855   3.466   0.278  0.1770 -0.2851  0.3757
 1238TIP3    H1 3657   7.911   3.452   0.202  0.8856 -0.2288  0.8849
 1238TIP3    H2 3658   7.852   3.561   0.289 -0.3036 -0.2715  0.1389
 1239TIP3   OH2 3659   7.424   3.791   3.046  0.2765 -0.3531  0.0985
 1239TIP3    H1 3660   7.423   3.793   2.950  0.7615  0.9576  0.1161
 1239TIP3    H2 3661   7.393   3.878   3.072  0.1300 -0.7127  1.1325
 1240TIP3   OH2 3662   2.594   7.660   6.043  0.2418 -0.6233 -0.0112
 1240TIP3    H1 3663   2.552   7.708   6.114 -1.3606 -1.7821 -0.1504
 1240TIP3    H2 3664   2.655   7.600   6.087  1.9543  1.2267  0.1781
 1241TIP3   OH2 3665   7.381   6.269   3.168  0.0670 -0.1116 -0.2311
 1241TIP3    H1 3666   7.363   6.361   3.188 -0.9896  0.3022 -2.7974
 1241TIP3    H2 3667   7.471   6.268   3.136  0.2506 -0.0443  0.2908
 1242TIP3   OH2 3668   0.691   4.065   4.341 -0.1155  0.4535 -0.3316
 1242TIP3    H1 3669   0.627   4.107   4.399 -0.3945  1.2961 -1.2335
 1242TIP3    H2 3670   0.775   4.089   4.379 -0.3168 -0.3551  0.6537
 1243TIP3   OH2 3671   0.236   4.724   2.190 -0.3920 -0.5178  0.1326
 1243TIP3    H1 3672   0.247   4.637   2.230  0.1398 -0.1474  0.7915
 1243TIP3    H2 3673   0.316   4.771   2.213 -0.5922  0.0804 -0.3999
 1244TIP3   OH2 3674   7.897   4.574   1.431 -0.3002  0.9323  0.0716
 1244TIP3    H1 3675   7.839   4.597   1.504  0.7134  1.4190  0.7313
 1244TIP3    H2 3676   7.884   4.645   1.368 -3.1795 -0.8350 -1.4424
 1245TIP3   OH2 3677   1.473   3.700   0.990 -0.0663 -0.1889 -0.2412
 1245TIP3    H1 3678   1.564   3.729   1.000  0.5179 -1.7207 -1.0397
 1245TIP3    H2 3679   1.447   3.671   1.078 -0.1318  1.2010  0.2126
 1246TIP3   OH2 3680   1.482   7.093   6.342  0.3151 -0.0456  0.2178
 1246TIP3    H1 3681   1.558   7.060   6.390 -0.1540  0.6141  1.4605
 1246TIP3    H2 3682   1.419   7.115   6.411  0.1190  2.1781 -0.6521
 1247TIP3   OH2 3683   1.639   4.641   1.372 -0.5413 -0.0320  0.7864
 1247TIP3    H1 3684   1.593   4.565   1.408  0.4931 -0.4340  1.2890
 1247TIP3    H2 3685   1.683   4.680   1.447  0.7345 -0.2251  0.1564
 1248TIP3   OH2 3686   5.396   3.981   0.986 -0.3618 -0.6640  0.1868
 1248TIP3    H1 3687   5.478   3.971   1.034 -1.1703 -0.0442  1.7380
 1248TIP3    H2 3688   5.423   3.997   0.895  1.2267 -0.3344  0.7006
 1249TIP3   OH2 3689   0.481   1.993   1.721  0.4805  0.1125 -0.7030
 1249TIP3    H1 3690   0.444   2.033   1.642 -0.2341  0.5264 -0.1562
 1249TIP3    H2 3691   0.505   1.905   1.693 -2.8798 -0.9203 -0.5425
 1250TIP3   OH2 3692   7.662   0.685   6.101  0.2010  0.0809  0.1025
 1250TIP3    H1 3693   7.590   0.627   6.129 -0.1634 -0.2582 -1.5042
 1250TIP3    H2 3694   7.621   0.771   6.094  0.9155  0.7489  3.2496
 1251TIP3   OH2 3695   7.333   4.523   1.135 -0.1951 -0.3781  0.2915
 1251TIP3    H1 3696   7.340   4.545   1.042  1.1884 -1.2075  0.1863
 1251TIP3    H2 3697   7.298   4.434   1.136  0.8764 -0.8017  0.5265
 1252TIP3   OH2 3698   2.401   3.912   2.433 -0.1819 -0.2340 -0.1227
 1252TIP3    H1 3699   2.345   3.942   2.361 -1.2556  0.2980  0.9191
 1252TIP3    H2 3700   2.364   3.828   2.459  0.1998 -0.4214 -0.1847
 1253TIP3   OH2 3701   7.900   3.153   0.490 -0.4044 -0.1183  0.7014
 1253TIP3    H1 3702   7.936   3.241   0.489  1.2404 -0.7609  0.6889
 1253TIP3    H2 3703   7.851   3.147   0.572 -2.8659  1.6768 -0.5855
 1254TIP3   OH2 3704   7.857   3.466   3.250 -0.7066  0.0994 -0.4153
 1254TIP3    H1 3705   7.873   3.486   3.157 -1.0190 -1.8756 -0.9160
 1254TIP3    H2 3706   7.901   3.382   3.264 -1.5492 -0.1217  0.9604
 1255TIP3   OH2 3707   1.470   4.074   1.353  0.7026  0.2691 -0.3558
 1255TIP3    H1 3708   1.421   4.147   1.392  2.7850  0.4809  1.9869
 1255TIP3    H2 3709   1.443   3.997   1.404  0.7354 -0.0838 -0.8714
 1256TIP3   OH2 3710   1.518   6.000   1.608 -0.5376  0.1063  0.0354
 1256TIP3    H1 3711   1.591   6.057   1.632 -0.2004  0.0212 -0.7650
 1256TIP3    H2 3712   1.463   5.998   1.686  0.5113 -0.1447  0.7843
 1257TIP3   OH2 3713   0.406   6.502   0.771  0.4740  0.3174  0.0651
 1257TIP3    H1 3714   0.454   6.573   0.729  0.9565  0.0271  0.1258
 1257TIP3    H2 3715   0.385   6.535   0.858 -0.3320  0.8346 -0.3158
 1258TIP3   OH2 3716   0.657   5.899   0.605  0.3136  0.1360  0.2240
 1258TIP3    H1 3717   0.579   5.847   0.627  1.0281 -1.1547 -0.2549
 1258TIP3    H2 3718   0.632   5.990   0.625 -1.0422 -0.3576  0.8054
 1259TIP3   OH2 3719   7.665   4.058   1.397  0.2068  0.3216  0.7144
 1259TIP3    H1 3720   7.662   4.034   1.490  1.5816 -0.0056  0.6878
 1259TIP3    H2 3721   7.721   3.992   1.357  0.0928  0.7953 -0.2468
 1260TIP3   OH2 3722   0.741   4.802   2.618  0.0007  1.0500 -0.3887
 1260TIP3    H1 3723   0.653   4.766   2.606 -0.8270  2.7926  0.2868
 1260TIP3    H2 3724   0.774   4.815   2.529 -0.4839  0.5454 -0.6426
 1261TIP3   OH2 3725   0.668   3.664   1.330 -0.1867 -0.1687  0.2726
 1261TIP3    H1 3726   0.634   3.731   1.270  0.1507  0.5038  0.8167
 1261TIP3    H2 3727   0.725   3.713   1.389 -0.6045 -0.8002  1.2084
 1262TIP3   OH2 3728   7.672   5.197   2.225 -0.3507  0.1952  0.4414
 1262TIP3    H1 3729   7.610   5.234   2.162 -0.1903  0.0434  0.1933
 1262TIP3    H2 3730   7.751   5.180   2.174 -0.7480 -1.3941  0.3260
 1263TIP3   OH2 3731   7.482   1.827   0.351  0.5222  0.4464  0.2569
 1263TIP3    H1 3732   7.450   1.908   0.310 -0.5848 -0.1565 -0.0900
 1263TIP3    H2 3733   7.536   1.857   0.425 -0.5493  1.4974  0.6310
 1264TIP3   OH2 3734   0.183   4.874   0.487  0.1355 -0.2583  0.0748
 1264TIP3    H1 3735   0.204   4.828   0.568 -2.1776 -0.8655  0.3612
 1264TIP3    H2 3736   0.138   4.954   0.516  0.5972  0.2439 -0.5678
 1265TIP3   OH2 3737   0.204   3.951   2.440  0.3139  0.1120 -0.4186
 1265TIP3    H1 3738   0.130   3.899   2.469  0.2875  1.0262  1.2775
 1265TIP3    H2 3739   0.275   3.888   2.428 -0.6331 -0.7229 -1.7312
 1266TIP3   OH2 3740   1.469   1.689   1.467 -0.0962 -0.3392  0.5498
 1266TIP3    H1 3741   1.542   1.678   1.405  0.1485 -1.3183  1.0029
 1266TIP3    H2 3742   1.457   1.783   1.473  1.7987 -0.1214  1.2321
 1267TIP3   OH2 3743   1.357   6.224   1.093 -0.0041 -0.0280 -0.2979
 1267TIP3    H1 3744   1.413   6.270   1.030  0.2030  0.4102  0.1968
 1267TIP3    H2 3745   1.276   6.274   1.094 -0.0675 -0.1307 -0.3367
 1268TIP3   OH2 3746   1.058   3.585   4.439 -0.3024 -0.0537 -0.6272
 1268TIP3    H1 3747   1.116   3.585   4.515 -0.7487  0.8338 -0.2725
 1268TIP3    H2 3748   1.090   3.515   4.383  0.1541 -0.5823  0.2935
 1269TIP3   OH2 3749   5.414   1.268   6.554 -0.1823 -0.0974  0.1529
 1269TIP3    H1 3750   5.351   1.294   6.621 -0.1607 -1.4238  0.6979
 1269TIP3    H2 3751   5.485   1.332   6.562 -2.6744  3.2022 -2.3902
 1270TIP3   OH2 3752   1.332   4.931   2.400  0.5067  0.2326  0.4997
 1270TIP3    H1 3753   1.395   4.897   2.463 -0.0046 -0.3470  0.7033
 1270TIP3    H2 3754   1.318   5.022   2.426  0.7808  0.1781  0.8340
 1271TIP3   OH2 3755   4.609   7.968   6.798  0.0811  0.0461  0.4838
 1271TIP3    H1 3756   4.598   7.996   6.888 -0.4012 -1.2818  0.8498
 1271TIP3    H2 3757   4.696   7.928   6.796  0.3032  0.5469  0.2408
 1272TIP3   OH2 3758   8.410   5.629   2.815  0.1119  0.0347  0.0189
 1272TIP3    H1 3759   8.341   5.694   2.802 -1.4111 -0.9748  2.5911
 1272TIP3    H2 3760   8.459   5.661   2.891 -0.2108 -1.4418  0.8570
 1273TIP3   OH2 3761   0.488   4.035   1.378 -0.0072  0.3732 -0.4606
 1273TIP3    H1 3762   0.474   4.124   1.346  0.1447  0.4630 -0.2769
 1273TIP3    H2 3763   0.524   3.988   1.303 -0.4900  0.3562 -0.6866
 1274TIP3   OH2 3764   1.729   4.160   1.399 -0.2053  0.0103 -0.3416
 1274TIP3    H1 3765   1.641   4.123   1.396 -0.1652  0.0140 -1.7921
 1274TIP3    H2 3766   1.723   4.240   1.347 -0.1672  1.8278  2.3431
 1275TIP3   OH2 3767   1.076   5.863   1.855 -0.1515  0.5827 -0.1768
 1275TIP3    H1 3768   1.130   5.882   1.931 -2.3921  0.0923  1.6224
 1275TIP3    H2 3769   1.056   5.770   1.863 -1.6230  0.8534 -0.5298
 1276TIP3   OH2 3770   3.039   7.606   6.919  0.3199 -0.1724 -0.2504
 1276TIP3    H1 3771   2.972   7.581   6.855  1.7715 -0.9748 -1.4800
 1276TIP3    H2 3772   3.096   7.530   6.925  0.5325  0.1120  1.5959
 1277TIP3   OH2 3773   7.884   2.171   3.473 -0.0378 -0.3234  0.1769
 1277TIP3    H1 3774   7.927   2.163   3.388  1.1000 -1.0816  0.8055
 1277TIP3    H2 3775   7.803   2.122   3.464 -0.3308  0.3237 -0.7406
 1278TIP3   OH2 3776   0.854   3.568   2.891 -0.2741  0.0631  0.5432
 1278TIP3    H1 3777   0.778   3.524   2.930 -0.2315  0.3586  0.9532
 1278TIP3    H2 3778   0.929   3.514   2.917 -0.3111 -0.0864  0.3480
 1279TIP3   OH2 3779   2.113   4.339   3.761  0.1581 -0.0283  0.1596
 1279TIP3    H1 3780   2.104   4.250   3.726 -0.8374 -0.4736  1.5103
 1279TIP3    H2 3781   2.168   4.328   3.839  1.1071  0.7368 -0.3906
 1280TIP3   OH2 3782   4.061   7.946   5.571 -0.3880  0.2293 -0.9178
 1280TIP3    H1 3783   4.062   8.032   5.613 -0.9705 -0.4262  0.5109
 1280TIP3    H2 3784   3.991   7.952   5.506 -1.9911  0.1530  0.7555
 1281TIP3   OH2 3785   1.927   4.805   1.278 -0.3779  0.2845 -0.2665
 1281TIP3    H1 3786   1.933   4.710   1.262  0.1494 -0.1632  2.3727
 1281TIP3    H2 3787   1.858   4.834   1.220  0.1551 -1.5445 -1.8881
 1282TIP3   OH2 3788   8.276   1.805   4.584 -0.3242 -0.1839  0.5169
 1282TIP3    H1 3789   8.249   1.751   4.509  1.7091  0.8579 -1.0149
 1282TIP3    H2 3790   8.198   1.808   4.639 -1.8665 -1.0483 -1.5088
 1283TIP3   OH2 3791  -0.019   3.173   2.667  0.9254 -0.2146  0.2428
 1283TIP3    H1 3792  -0.011   3.110   2.739 -0.5691  0.7633  1.2898
 1283TIP3    H2 3793   0.071   3.201   2.650  1.2006  0.2564  2.3874
 1284TIP3   OH2 3794   2.183   3.260   1.770  0.3923 -0.3652 -0.2838
 1284TIP3    H1 3795   2.100   3.298   1.801  0.1832 -0.2661 -0.9531
 1284TIP3    H2 3796   2.236   3.336   1.748  0.6420 -0.4315  0.0847
 1285TIP3   OH2 3797   3.310   5.988   0.801  0.3907  0.1699 -0.6441
 1285TIP3    H1 3798   3.323   5.927   0.874  1.0206  0.5362 -0.4475
 1285TIP3    H2 3799   3.230   6.035   0.824 -0.2024 -0.7009 -0.8829
 1286TIP3   OH2 3800   4.832   7.968   4.581  0.4475  0.1938 -0.4057
 1286TIP3    H1 3801   4.742   7.983   4.553  0.4654  1.2092  0.0383
 1286TIP3    H2 3802   4.885   8.015   4.517  0.6018  0.5128 -0.0481
 1287TIP3   OH2 3803   4.270   5.780   1.127  0.4463 -0.4937 -0.5858
 1287TIP3    H1 3804   4.354   5.815   1.155 -0.1139 -0.7209  1.4480
 1287TIP3    H2 3805   4.207   5.848   1.149 -0.1528 -1.1485 -0.2702
 1288TIP3   OH2 3806   6.358   1.042   5.675 -0.1325 -0.4025  0.0151
 1288TIP3    H1 3807   6.317   1.089   5.602  0.1659  1.9546  1.3196
 1288TIP3    H2 3808   6.288   0.988   5.711 -1.2774  1.2278  0.2783
 1289TIP3   OH2 3809   7.882   1.259   6.534  0.3489 -0.6058 -0.3495
 1289TIP3    H1 3810   7.922   1.315   6.601 -1.2173 -1.2847  1.2158
 1289TIP3    H2 3811   7.950   1.248   6.468  1.2075  1.8720  0.0717
 1290TIP3   OH2 3812   1.104   5.915   2.447 -0.6853  0.5283 -0.8415
 1290TIP3    H1 3813   1.063   5.880   2.367 -0.1040 -0.8667 -0.5371
 1290TIP3    H2 3814   1.188   5.951   2.418 -0.1902 -0.5591 -0.7506
 1291TIP3   OH2 3815   6.378   3.081   1.821  0.4689  0.1627 -0.4701
 1291TIP3    H1 3816   6.329   3.128   1.753 -1.3938 -0.2587  0.5424
 1291TIP3    H2 3817   6.347   2.990   1.814 -0.3337  0.2758  1.4442
 1292TIP3   OH2 3818   6.973   2.369   3.948  0.3147 -0.1659  0.7018
 1292TIP3    H1 3819   7.047   2.338   4.000  0.1149 -1.2726  0.3422
 1292TIP3    H2 3820   7.012   2.415   3.874  0.6160  0.2772  1.1340
 1293TIP3   OH2 3821   1.256   5.195   0.315  0.3021 -0.2921 -0.0410
 1293TIP3    H1 3822   1.208   5.230   0.240  1.2827  1.4844  0.1331
 1293TIP3    H2 3823   1.240   5.258   0.385  0.0980 -1.4880  0.9965
 1294TIP3   OH2 3824   1.471   3.650   2.221 -0.4271  0.1516  0.2074
 1294TIP3    H1 3825   1.411   3.661   2.296  0.5797  2.1945  0.7402
 1294TIP3    H2 3826   1.555   3.683   2.253  0.0695  0.8104 -1.7451
 1295TIP3   OH2 3827   2.724   4.803   0.552  0.3522  0.4554  0.5933
 1295TIP3    H1 3828   2.762   4.830   0.636  2.1044 -0.1469  0.0097
 1295TIP3    H2 3829   2.722   4.708   0.556 -1.0578  0.4743  0.5837
 1296TIP3   OH2 3830   2.421   3.056   4.003 -0.1371  0.1874  0.2598
 1296TIP3    H1 3831   2.475   3.076   4.079 -0.3869  2.6559 -0.1902
 1296TIP3    H2 3832   2.396   2.964   4.016  1.1827  0.0707  2.2858
 1297TIP3   OH2 3833   0.464   1.598   6.387  0.2041  0.1390  0.7843
 1297TIP3    H1 3834   0.440   1.592   6.480  0.0238 -0.5627  0.6970
 1297TIP3    H2 3835   0.441   1.512   6.351 -1.9524  1.1611 -0.4195
 1298TIP3   OH2 3836   2.743   4.587   2.316  0.1540 -0.6638 -0.1849
 1298TIP3    H1 3837   2.747   4.637   2.397  0.8464  0.1741 -0.7170
 1298TIP3    H2 3838   2.762   4.497   2.342 -2.8468 -1.0178  1.0532
 1299TIP3   OH2 3839   1.842   2.819   0.367 -0.3601 -0.1347  0.1377
 1299TIP3    H1 3840   1.772   2.881   0.345  0.9241  0.8025 -1.4260
 1299TIP3    H2 3841   1.922   2.866   0.347  0.7033 -1.4931  1.1535
 1300TIP3   OH2 3842   4.110   4.443   1.207 -0.0159  0.4646  0.4468
 1300TIP3    H1 3843   4.021   4.477   1.219 -0.5911 -0.2473 -1.5624
 1300TIP3    H2 3844   4.123   4.444   1.112  1.6142 -0.7284  0.6421
 1301TIP3   OH2 3845   2.176   6.539   1.618  0.3151 -0.3962  0.0797
 1301TIP3    H1 3846   2.238   6.508   1.552 -1.1120 -0.9631 -1.0450
 1301TIP3    H2 3847   2.150   6.460   1.665  1.7544  0.0867  1.7254
 1302TIP3   OH2 3848   8.202   0.382   6.443 -0.2356  0.0233  0.0056
 1302TIP3    H1 3849   8.142   0.456   6.438  0.0519  0.2250 -0.5263
 1302TIP3    H2 3850   8.156   0.312   6.396  0.2143  0.3681 -0.9654
 1303TIP3   OH2 3851   5.975   2.792   4.306  0.3444 -0.0164  0.3355
 1303TIP3    H1 3852   5.906   2.848   4.342 -1.4650 -0.4920 -2.3123
 1303TIP3    H2 3853   6.054   2.847   4.309 -1.3077  2.6105 -1.8636
 1304TIP3   OH2 3854   1.173   5.329   0.565 -0.4276 -0.0675 -0.2168
 1304TIP3    H1 3855   1.226   5.401   0.600  0.6147 -1.1720  0.5163
 1304TIP3    H2 3856   1.118   5.302   0.640 -0.2535 -0.5525 -0.2650
 1305TIP3   OH2 3857   8.284   2.887   2.457 -0.1241  0.1871  0.8524
 1305TIP3    H1 3858   8.314   2.830   2.386 -2.1700  0.3252 -0.1550
 1305TIP3    H2 3859   8.277   2.974   2.417  0.2162  0.5696  1.6282
 1306TIP3   OH2 3860   3.701   7.256   6.212  0.7151 -0.4216  0.1154
 1306TIP3    H1 3861   3.740   7.283   6.129  1.0878  0.0925  0.4519
 1306TIP3    H2 3862   3.715   7.331   6.270 -0.6005 -0.2988  0.2969
 1307TIP3   OH2 3863   6.287   0.865   4.275 -0.0379  0.3562  0.4053
 1307TIP3    H1 3864   6.376   0.830   4.273 -0.4245 -0.6009 -0.2465
 1307TIP3    H2 3865   6.274   0.904   4.189  0.0861  1.3486  0.8348
 1308TIP3   OH2 3866   2.586   4.193   1.918  0.1904  0.2047  0.0040
 1308TIP3    H1 3867   2.655   4.254   1.893  1.9343 -1.2717  1.0566
 1308TIP3    H2 3868   2.525   4.194   1.844  1.3199  1.5390 -0.9446
 1309TIP3   OH2 3869   2.200   4.714   1.168 -0.0888  0.2766  0.2035
 1309TIP3    H1 3870   2.193   4.691   1.261  0.1752  0.2963  0.2271
 1309TIP3    H2 3871   2.146   4.792   1.158  0.8206  0.9569  0.5729
 1310TIP3   OH2 3872   0.773   0.927   5.947 -0.1081  0.5255  0.1026
 1310TIP3    H1 3873   0.753   0.852   6.003 -1.3209  0.5309 -0.3068
 1310TIP3    H2 3874   0.687   0.959   5.919  0.3767  2.2118  0.4663
 1311TIP3   OH2 3875   2.068   4.459   1.624 -0.1195 -0.1603  0.6067
 1311TIP3    H1 3876   2.123   4.439   1.700  0.3198  1.2934  0.6808
 1311TIP3    H2 3877   1.987   4.409   1.639 -0.0010  0.0352  1.9842
 1312TIP3   OH2 3878   0.718   5.356   2.487  0.0427 -0.1179  0.1341
 1312TIP3    H1 3879   0.742   5.264   2.475 -0.2209 -0.0523 -1.0173
 1312TIP3    H2 3880   0.623   5.354   2.499  0.1707 -0.0835  1.1447
 1313TIP3   OH2 3881   8.014   3.539   2.310  0.3394  0.3189 -0.8350
 1313TIP3    H1 3882   7.989   3.465   2.255 -1.5670  1.5353 -1.6354
 1313TIP3    H2 3883   8.101   3.564   2.278  1.0258 -1.5840 -0.5173
 1314TIP3   OH2 3884   1.889   4.650   3.168 -0.4649  0.0356 -0.2750
 1314TIP3    H1 3885   1.820   4.594   3.205  0.6687 -1.3555 -0.2364
 1314TIP3    H2 3886   1.930   4.692   3.243 -1.5837  1.2567 -0.3304
 1315TIP3   OH2 3887   0.079   4.173   2.265 -0.1187  0.0051 -0.4580
 1315TIP3    H1 3888   0.027   4.092   2.265 -2.5173  1.4739 -0.3347
 1315TIP3    H2 3889   0.170   4.144   2.268 -0.8936 -2.7008 -1.7367
 1316TIP3   OH2 3890   8.147   1.436   5.503 -0.1681  0.7795 -0.7779
 1316TIP3    H1 3891   8.095   1.357   5.488 -0.1592  0.4972  0.6136
 1316TIP3    H2 3892   8.223   1.427   5.446  0.4516 -0.8045  0.2851
 1317TIP3   OH2 3893   1.894   2.680   1.577 -0.9596  0.0986  0.2769
 1317TIP3    H1 3894   1.924   2.589   1.584  0.7009  0.6348  0.3467
 1317TIP3    H2 3895   1.888   2.711   1.667 -1.2945  0.1335  0.2436
 1318TIP3   OH2 3896   0.116   4.458   1.747 -0.2675  0.7736  0.6113
 1318TIP3    H1 3897   0.082   4.437   1.834 -0.3697  0.4004  0.4796
 1318TIP3    H2 3898   0.172   4.534   1.762 -1.9581  2.0350  0.6761
 1319TIP3   OH2 3899   5.426   7.576   5.707  0.0700 -0.2615  0.3443
 1319TIP3    H1 3900   5.475   7.611   5.782  0.4488 -1.2056  0.5436
 1319TIP3    H2 3901   5.487   7.517   5.664 -0.6654 -0.9256  0.1965
 1320TIP3   OH2 3902   1.046   3.814   0.549 -0.3634  0.0601 -0.1351
 1320TIP3    H1 3903   1.121   3.873   0.562  0.2578 -0.7444 -0.0284
 1320TIP3    H2 3904   1.051   3.788   0.457 -0.4772 -0.0359 -0.1142
 1321TIP3   OH2 3905   2.394   4.996   0.159  0.5083 -0.0224  0.0123
 1321TIP3    H1 3906   2.389   4.933   0.231  0.8976 -1.3058 -1.0734
 1321TIP3    H2 3907   2.391   4.943   0.080  0.1757  1.3726 -0.9345
 1322TIP3   OH2 3908   1.325   4.586   0.924  0.3597  0.4181  0.0004
 1322TIP3    H1 3909   1.295   4.656   0.866 -0.5316 -1.7596 -2.1921
 1322TIP3    H2 3910   1.249   4.566   0.979 -0.2027 -0.6371 -1.1590
 1323TIP3   OH2 3911   2.709   4.644   0.277 -0.0930  0.2935 -0.0533
 1323TIP3    H1 3912   2.787   4.640   0.220 -0.9926  0.2662 -1.3031
 1323TIP3    H2 3913   2.642   4.597   0.229 -0.6245 -0.5310  1.4732
 1324TIP3   OH2 3914   0.719   4.581   0.392  0.3553 -0.0145 -0.3058
 1324TIP3    H1 3915   0.690   4.646   0.328  1.2026  0.1316 -0.5524
 1324TIP3    H2 3916   0.765   4.515   0.340  0.0297 -0.5006  0.0153
 1325TIP3   OH2 3917   3.714   4.633   0.338 -0.3409 -0.1738 -0.7917
 1325TIP3    H1 3918   3.788   4.596   0.387 -1.8937 -2.2095  0.0575
 1325TIP3    H2 3919   3.754   4.698   0.280  2.1402 -1.3337 -0.4359
 1326TIP3   OH2 3920   8.259   3.548   2.010 -0.0825 -0.0186 -0.4062
 1326TIP3    H1 3921   8.303   3.482   2.063  0.7390  0.9156  0.0885
 1326TIP3    H2 3922   8.318   3.563   1.936 -0.8330 -0.7118 -1.1575
 1327TIP3   OH2 3923   1.378   3.909   3.115 -0.2964  0.2292 -0.5432
 1327TIP3    H1 3924   1.402   3.876   3.202  0.0876  0.5251 -0.5297
 1327TIP3    H2 3925   1.319   3.844   3.079 -0.5418  0.1595 -0.0109
 1328TIP3   OH2 3926   5.401   7.611   6.699 -0.0527  0.3953 -0.1793
 1328TIP3    H1 3927   5.418   7.660   6.619 -1.6798  1.8272  0.3123
 1328TIP3    H2 3928   5.433   7.668   6.769 -0.4352  0.0167  0.3025
 1329TIP3   OH2 3929   3.494   3.448   1.458 -0.4732 -0.2357 -0.0912
 1329TIP3    H1 3930   3.527   3.514   1.398 -1.9317 -0.4580 -1.1717
 1329TIP3    H2 3931   3.400   3.445   1.442 -0.6086 -1.7003  0.8044
 1330TIP3   OH2 3932   0.746   6.649   1.034  0.0133 -0.4479  0.0496
 1330TIP3    H1 3933   0.675   6.595   1.068  0.3116 -1.2440 -0.5612
 1330TIP3    H2 3934   0.775   6.603   0.954  0.8350  0.1575 -0.0118
 1331TIP3   OH2 3935   1.338   5.527   1.094 -0.2499  0.6898  0.3698
 1331TIP3    H1 3936   1.415   5.524   1.037  0.3131  0.7835  1.1136
 1331TIP3    H2 3937   1.308   5.618   1.091  0.9101  1.1355  1.6893
 1332TIP3   OH2 3938   3.201   5.996   3.122 -0.5270 -0.4005  0.9600
 1332TIP3    H1 3939   3.269   5.994   3.055 -1.1801 -0.2643  0.2829
 1332TIP3    H2 3940   3.145   5.921   3.103 -1.8320  0.7570  0.1538
 1333TIP3   OH2 3941   6.181   0.153   6.424 -0.5339 -0.1047  0.0357
 1333TIP3    H1 3942   6.149   0.073   6.382 -0.3184  0.3989 -1.1172
 1333TIP3    H2 3943   6.180   0.134   6.517 -2.1256 -0.8521 -0.1270
 1334TIP3   OH2 3944   3.819   7.975   6.898 -0.1330  0.0590  0.6551
 1334TIP3    H1 3945   3.863   8.030   6.833 -0.1765 -0.4083  0.2264
 1334TIP3    H2 3946   3.888   7.950   6.959  0.4307 -1.5008 -0.5754
 1335TIP3   OH2 3947   1.081   2.429   1.913  0.1132 -0.0221  0.2541
 1335TIP3    H1 3948   1.122   2.429   1.826  0.5514  2.1193  0.4235
 1335TIP3    H2 3949   0.988   2.444   1.896 -0.2118 -2.1982  0.0228
 1336TIP3   OH2 3950   1.470   4.093   0.983 -0.9028 -0.0809 -0.3101
 1336TIP3    H1 3951   1.538   4.046   1.031 -0.8843  0.9260  0.6879
 1336TIP3    H2 3952   1.411   4.025   0.951  1.0627 -1.0430 -1.9823
 1337TIP3   OH2 3953   7.853   0.803   3.805  0.5473 -0.3861 -0.2274
 1337TIP3    H1 3954   7.840   0.853   3.886 -0.6530  1.0233 -1.2496
 1337TIP3    H2 3955   7.861   0.870   3.737 -0.4338 -1.5758 -1.5441
 1338TIP3   OH2 3956   6.157   0.634   6.704  0.0409  0.0998 -0.3060
 1338TIP3    H1 3957   6.197   0.552   6.674  0.9352  0.5910 -0.4462
 1338TIP3    H2 3958   6.221   0.702   6.683 -0.2065  0.6995  0.8541
 1339TIP3   OH2 3959   3.591   0.810   6.614 -0.2038 -0.0726 -0.2129
 1339TIP3    H1 3960   3.605   0.864   6.536 -0.1391  1.8725  1.0963
 1339TIP3    H2 3961   3.519   0.752   6.591  0.2402  0.0343 -1.9272
 1340TIP3   OH2 3962   1.056   4.054   2.343  0.2829  0.0767 -0.4317
 1340TIP3    H1 3963   1.147   4.079   2.328  1.2065 -1.3934  2.4037
 1340TIP3    H2 3964   1.035   4.088   2.430 -1.7188 -0.0785 -0.8275
 1341TIP3   OH2 3965   2.334   4.404   2.980  0.2491 -0.0122  0.0643
 1341TIP3    H1 3966   2.347   4.313   3.006 -2.0782 -0.4347 -0.1325
 1341TIP3    H2 3967   2.266   4.436   3.038 -0.6481  0.8746 -1.4410
 1342TIP3   OH2 3968   1.516   3.677   1.300  0.7627 -0.0211  0.3669
 1342TIP3    H1 3969   1.480   3.722   1.376  0.3608  0.9046 -0.3646
 1342TIP3    H2 3970   1.484   3.587   1.307 -0.8386  0.5393  0.2735
 1343TIP3   OH2 3971   1.661   3.789   2.353  0.4608  0.1752 -0.2555
 1343TIP3    H1 3972   1.722   3.861   2.339  0.0905  0.7277  0.9714
 1343TIP3    H2 3973   1.668   3.768   2.446  0.2087 -1.0514 -0.5011
 1344TIP3   OH2 3974   2.029   2.092   1.065 -0.1805  0.1707 -0.0881
 1344TIP3    H1 3975   1.963   2.108   0.997 -0.4813 -1.4777 -0.2038
 1344TIP3    H2 3976   2.098   2.044   1.020 -0.7366 -1.6138  0.9460
 1345TIP3   OH2 3977   1.031   4.538   1.127  0.1807  0.5276 -0.1027
 1345TIP3    H1 3978   1.041   4.633   1.135  1.9076  0.6885 -3.1096
 1345TIP3    H2 3979   0.992   4.526   1.041  1.7446 -1.5428 -0.5635
 1346TIP3   OH2 3980   1.031   5.551   1.322  0.7668  0.1139 -0.5979
 1346TIP3    H1 3981   1.039   5.492   1.247 -1.3860 -1.8570  0.6458
 1346TIP3    H2 3982   1.121   5.573   1.344  1.5691 -1.5682 -2.0148
 1347TIP3   OH2 3983   0.907   1.608   6.884  0.0896 -0.6191 -0.7765
 1347TIP3    H1 3984   0.919   1.551   6.808 -2.0790  1.0677 -2.4382
 1347TIP3    H2 3985   0.814   1.600   6.905  0.5147 -0.4745  1.2597
 1348TIP3   OH2 3986   2.788   7.293   0.065  0.0294  0.6455 -0.3531
 1348TIP3    H1 3987   2.879   7.266   0.054 -0.4410 -2.2685  2.1705
 1348TIP3    H2 3988   2.741   7.247  -0.005  0.3624  1.5350 -1.1740
 1349TIP3   OH2 3989   1.543   4.105   0.338 -0.0733 -0.0112 -0.0439
 1349TIP3    H1 3990   1.509   4.172   0.397 -0.2817  0.1851 -0.3800
 1349TIP3    H2 3991   1.571   4.033   0.395  0.5499  0.5386  0.3420
 1350TIP3   OH2 3992   1.502   3.793   0.010  0.3470  0.6686 -0.5388
 1350TIP3    H1 3993   1.538   3.731  -0.053  0.7128  0.7045 -0.3651
 1350TIP3    H2 3994   1.579   3.831   0.053  0.0919  0.4388  0.1280
 1351TIP3   OH2 3995   0.877   4.794   1.366 -0.6018  0.1563 -0.2143
 1351TIP3    H1 3996   0.914   4.767   1.282 -0.1807 -3.1497  0.9324
 1351TIP3    H2 3997   0.952   4.804   1.423 -1.0923 -1.2194  0.7006
 1352TIP3   OH2 3998   5.972   5.448   0.339  0.0903 -0.2543  0.2156
 1352TIP3    H1 3999   5.947   5.540   0.349 -0.2266 -0.2576 -0.4872
 1352TIP3    H2 4000   5.888   5.402   0.326  0.2972 -0.5483 -0.0880
 1353TIP3   OH2 4001   2.554   4.914   1.818  0.4191  0.6035 -0.1465
 1353TIP3    H1 4002   2.638   4.935   1.776 -0.3079 -1.0970 -2.5107
 1353TIP3    H2 4003   2.559   4.820   1.835 -1.4800  0.2453 -1.4492
 1354TIP3   OH2 4004   7.719   0.569   3.456 -0.1898  0.1196 -0.0293
 1354TIP3    H1 4005   7.668   0.538   3.382 -1.6287  1.1616  0.4909
 1354TIP3    H2 4006   7.754   0.490   3.497  0.0422 -0.5008 -1.3925
 1355TIP3   OH2 4007   2.651   6.944   2.674  0.2062  0.4095  0.4341
 1355TIP3    H1 4008   2.597   7.017   2.645 -0.3543 -0.1848 -0.0309
 1355TIP3    H2 4009   2.588   6.878   2.704  0.6898 -0.0568  0.4396
 1356TIP3   OH2 4010   8.466   4.414   0.125 -0.4205  0.6256 -1.0304
 1356TIP3    H1 4011   8.558   4.439   0.122  0.2748 -1.5417  0.3561
 1356TIP3    H2 4012   8.432   4.435   0.038  1.6695  0.4477 -1.9208
 1357TIP3   OH2 4013   6.565   1.801   5.800  0.2802  0.0549 -0.1243
 1357TIP3    H1 4014   6.620   1.844   5.734  1.4546 -0.5466  0.4401
 1357TIP3    H2 4015   6.565   1.863   5.874  2.7084 -1.2248  1.0385
 1358TIP3   OH2 4016   5.336   2.834   6.077  0.1967  0.2268  0.1871
 1358TIP3    H1 4017   5.246   2.857   6.102 -0.1433  0.6876 -1.4087
 1358TIP3    H2 4018   5.390   2.878   6.143 -0.8085 -2.1810  2.7051
 1359TIP3   OH2 4019   3.005   7.979   0.936 -0.2375 -0.0714  0.5640
 1359TIP3    H1 4020   2.987   7.915   1.006  0.1811 -1.4240 -0.5523
 1359TIP3    H2 4021   3.094   7.959   0.907 -0.5679  0.1874 -0.6553
 1360TIP3   OH2 4022   0.131   4.061   1.891 -0.4835 -0.9342  0.5534
 1360TIP3    H1 4023   0.100   4.148   1.915  0.3572 -0.7644  1.0518
 1360TIP3    H2 4024   0.053   4.005   1.895 -1.2754  0.0140 -0.9562
 1361TIP3   OH2 4025   7.139   1.403   5.304  0.1715  0.5848  0.2222
 1361TIP3    H1 4026   7.088   1.329   5.336 -0.2625  1.5944  1.9419
 1361TIP3    H2 4027   7.141   1.391   5.209  0.6433 -1.9454  0.5058
 1362TIP3   OH2 4028   0.393   4.600   1.944 -0.0776  0.0184 -0.0527
 1362TIP3    H1 4029   0.484   4.608   1.974 -0.0205 -2.6722  0.6931
 1362TIP3    H2 4030   0.350   4.550   2.014 -2.0486  0.9584 -0.5727
 1363TIP3   OH2 4031   0.700   5.026   1.394  0.1327  0.1179 -0.0610
 1363TIP3    H1 4032   0.673   5.010   1.484 -0.5009  0.4536 -0.1919
 1363TIP3    H2 4033   0.740   4.943   1.366 -2.7647 -1.1830 -0.5950
 1364TIP3   OH2 4034   3.098   4.474   0.811  0.5199  0.3792 -0.3045
 1364TIP3    H1 4035   3.175   4.454   0.758 -0.6279  0.6497 -2.1198
 1364TIP3    H2 4036   3.119   4.558   0.852  0.8735  0.8620 -1.4449
 1365TIP3   OH2 4037   7.502   1.824   5.649  0.3138  0.3236  0.0474
 1365TIP3    H1 4038   7.524   1.747   5.701 -2.6674  0.0056  0.9426
 1365TIP3    H2 4039   7.585   1.870   5.638  1.6122 -1.4087  2.1157
 1366TIP3   OH2 4040   7.807   3.694   3.389  0.4031 -0.3267 -0.0029
 1366TIP3    H1 4041   7.729   3.711   3.336 -0.1941 -0.0832  0.9458
 1366TIP3    H2 4042   7.837   3.607   3.360  1.2290  0.6190 -2.1183
 1367TIP3   OH2 4043   3.330   4.422   0.685  0.5086  0.0364  0.1394
 1367TIP3    H1 4044   3.424   4.407   0.696  0.5286 -0.0482 -0.1375
 1367TIP3    H2 4045   3.299   4.346   0.636  0.0045 -0.7057  1.5751
 1368TIP3   OH2 4046   1.118   4.812   2.532 -0.5045 -0.2518 -0.1698
 1368TIP3    H1 4047   1.207   4.844   2.517 -0.3637 -0.4184  0.2996
 1368TIP3    H2 4048   1.128   4.718   2.543 -0.8038 -0.3381 -0.6178
 1369TIP3   OH2 4049   2.782   6.083   6.842  0.3278 -0.0797 -0.2661
 1369TIP3    H1 4050   2.732   6.007   6.870  2.9983 -1.9759 -0.5158
 1369TIP3    H2 4051   2.872   6.065   6.870  1.3564  2.1065 -1.9927
 1370TIP3   OH2 4052   7.260   0.064   4.768  0.3370 -0.1391  0.1741
 1370TIP3    H1 4053   7.186   0.124   4.758  0.7730  0.2141 -1.0877
 1370TIP3    H2 4054   7.250   0.001   4.697  1.7811  0.5079 -0.6295
 1371TIP3   OH2 4055   7.562   0.885   5.030 -0.7434 -0.5968  0.1525
 1371TIP3    H1 4056   7.607   0.923   5.106  0.5827  0.5226 -1.1586
 1371TIP3    H2 4057   7.469   0.901   5.047 -0.3627  1.0789  0.7961
 1372TIP3   OH2 4058   5.850   0.208   6.423  0.1319  0.4713  0.4936
 1372TIP3    H1 4059   5.755   0.209   6.413  0.0976  0.9495  0.8411
 1372TIP3    H2 4060   5.873   0.115   6.419 -0.2841  0.3907 -0.1666
 1373TIP3   OH2 4061   2.268   6.015   1.445 -0.3514  0.4387 -0.5311
 1373TIP3    H1 4062   2.335   5.957   1.482 -2.4755 -1.2498  0.7350
 1373TIP3    H2 4063   2.248   5.978   1.359 -0.4232  0.3476 -0.4745
 1374TIP3   OH2 4064   6.133   1.131   5.454 -0.2272  0.7169 -0.2902
 1374TIP3    H1 4065   6.044   1.112   5.484 -0.7701  1.4817 -1.3831
 1374TIP3    H2 4066   6.124   1.209   5.400  1.2109  1.1579  0.0814
 1375TIP3   OH2 4067   8.474   5.485   2.243 -0.1635 -0.5395 -0.0271
 1375TIP3    H1 4068   8.540   5.438   2.294 -1.4040 -1.6185  0.6168
 1375TIP3    H2 4069   8.423   5.415   2.201 -0.2492  0.3049 -1.3391
 1376TIP3   OH2 4070   5.945   3.499   6.693 -0.4535  0.5942  0.0785
 1376TIP3    H1 4071   5.993   3.450   6.626  1.1851 -1.8160  2.8508
 1376TIP3    H2 4072   6.008   3.562   6.726  0.5003 -1.6727  2.7975
 1377TIP3   OH2 4073   0.237   2.941   1.366 -0.0453 -0.3422 -0.3369
 1377TIP3    H1 4074   0.193   2.886   1.431 -0.8628  1.0227  0.2678
 1377TIP3    H2 4075   0.294   2.998   1.418  0.6438 -0.4539 -0.9540
 1378TIP3   OH2 4076   1.048   4.643   1.825  0.4140 -0.1018 -0.0475
 1378TIP3    H1 4077   1.035   4.561   1.777 -0.2180  0.2570 -0.4924
 1378TIP3    H2 4078   0.971   4.695   1.805  1.9893  1.5981 -1.7697
 1379TIP3   OH2 4079   0.021   5.563   3.386  1.4912 -0.1901  0.1335
 1379TIP3    H1 4080   0.060   5.507   3.319  0.2828  0.1638 -0.8971
 1379TIP3    H2 4081   0.003   5.505   3.459  0.5401 -1.0976 -0.8081
 1380TIP3   OH2 4082   1.199   3.592   2.313  0.1486 -0.0570  0.0751
 1380TIP3    H1 4083   1.138   3.651   2.358  2.3364  1.7517  0.7629
 1380TIP3    H2 4084   1.223   3.639   2.233  0.3943 -0.9044 -0.3570
 1381TIP3   OH2 4085   7.808   0.693   6.780  0.2194  0.0542  0.0748
 1381TIP3    H1 4086   7.793   0.764   6.843 -0.7010 -0.2820  0.2439
 1381TIP3    H2 4087   7.788   0.733   6.695 -0.0797  0.0637  0.1484
 1382TIP3   OH2 4088   3.187   2.743   1.635 -0.3209 -0.0613  0.6607
 1382TIP3    H1 4089   3.190   2.674   1.701 -1.0002 -0.2689  0.4845
 1382TIP3    H2 4090   3.131   2.810   1.675 -1.0391 -0.3498  0.1467
 1383TIP3   OH2 4091   2.105   5.778   0.759  0.3257  0.8648 -0.2790
 1383TIP3    H1 4092   2.126   5.871   0.753  0.8495  0.7575 -0.1317
 1383TIP3    H2 4093   2.129   5.754   0.849  0.0752  0.6176 -0.2783
 1384TIP3   OH2 4094   0.066   2.938   2.346  0.2267 -0.2777 -0.3338
 1384TIP3    H1 4095   0.092   2.917   2.436  1.8082  0.2305 -0.6582
 1384TIP3    H2 4096   0.005   2.868   2.322  0.3177 -0.7902  0.8904
 1385TIP3   OH2 4097   0.055   3.097   2.131 -0.5839 -0.1593 -0.4564
 1385TIP3    H1 4098   0.050   3.033   2.202 -1.8970  0.9296  0.4695
 1385TIP3    H2 4099   0.070   3.045   2.052 -1.0898 -1.5619  0.3527
 1386TIP3   OH2 4100   1.443   5.180   0.105  0.1177  0.4779  0.0722
 1386TIP3    H1 4101   1.368   5.198   0.048 -0.0344 -1.2529 -0.3014
 1386TIP3    H2 4102   1.509   5.244   0.079 -0.2517  0.2501 -1.5027
 1387TIP3   OH2 4103   7.485   3.923   1.102  0.3493 -0.0235  0.0818
 1387TIP3    H1 4104   7.405   3.958   1.142  1.2179  0.0563  1.8007
 1387TIP3    H2 4105   7.529   4.001   1.068 -0.1001 -0.0183 -0.4928
 1388TIP3   OH2 4106   0.940   4.485   1.606  0.0237  0.1952  0.0012
 1388TIP3    H1 4107   0.994   4.425   1.555 -0.1669  1.7395 -2.0683
 1388TIP3    H2 4108   0.889   4.428   1.663  2.2493 -1.4165  0.4644
 1389TIP3   OH2 4109   1.902   7.050   1.617 -0.3255  0.2407  0.2494
 1389TIP3    H1 4110   1.908   6.963   1.656 -0.2975  0.7700  1.4438
 1389TIP3    H2 4111   1.952   7.106   1.676  0.7238  0.8431 -1.2013
 1390TIP3   OH2 4112   2.184   4.336   1.855  0.2622 -0.9848 -0.5162
 1390TIP3    H1 4113   2.136   4.256   1.879  0.6568 -0.6131  1.6477
 1390TIP3    H2 4114   2.265   4.304   1.815 -0.2612 -1.6537 -1.0534
 1391TIP3   OH2 4115   1.561   4.904   1.377 -0.4033  0.4767  0.0123
 1391TIP3    H1 4116   1.590   4.815   1.356 -2.2609 -0.0214 -0.4804
 1391TIP3    H2 4117   1.615   4.929   1.453 -1.1520 -1.7822  1.3530
 1392TIP3   OH2 4118   0.515   4.321   3.483  0.6293  0.6204  0.0727
 1392TIP3    H1 4119   0.474   4.391   3.432 -1.5870 -0.4342  0.3618
 1392TIP3    H2 4120   0.513   4.354   3.573  0.2578  0.4956  0.1105
 1393TIP3   OH2 4121   0.562   3.854   1.162  0.2695 -0.3106 -0.7378
 1393TIP3    H1 4122   0.634   3.888   1.109  0.2231  0.9447 -0.0149
 1393TIP3    H2 4123   0.484   3.867   1.107  0.0085  2.3966  0.1882
 1394TIP3   OH2 4124   8.135   2.070   3.191 -0.2380 -0.0363  0.2080
 1394TIP3    H1 4125   8.057   2.038   3.146 -1.1752  1.7116  0.5785
 1394TIP3    H2 4126   8.124   2.041   3.282 -0.6054  0.4575  0.3237
 1395TIP3   OH2 4127   8.374   2.095   6.818 -1.1373 -0.2612  0.1924
 1395TIP3    H1 4128   8.328   2.065   6.897 -1.3303 -1.0454 -0.2132
 1395TIP3    H2 4129   8.464   2.112   6.848 -1.2494 -0.3966  0.6140
 1396TIP3   OH2 4130   1.878   5.561   1.057  0.0974  0.1156 -0.9608
 1396TIP3    H1 4131   1.910   5.498   1.122  1.0952  1.3714 -0.2084
 1396TIP3    H2 4132   1.890   5.646   1.099 -2.4486  0.7489 -1.4460
 1397TIP3   OH2 4133   6.497   1.192   6.110 -0.7955 -0.0054  0.0637
 1397TIP3    H1 4134   6.511   1.219   6.019  0.7383 -1.0314 -0.0259
 1397TIP3    H2 4135   6.457   1.268   6.152 -0.2261  0.9687 -1.1355
 1398TIP3   OH2 4136   7.387   2.649   4.961 -0.0095 -0.2583  0.2679
 1398TIP3    H1 4137   7.315   2.605   5.007  0.7273 -0.8905  0.8257
 1398TIP3    H2 4138   7.465   2.630   5.013  0.6065  0.2454 -0.4469
 1399TIP3   OH2 4139   0.937   2.230   6.143 -0.1860 -0.0123  0.0550
 1399TIP3    H1 4140   0.852   2.254   6.180  0.0287 -1.2911  1.3998
 1399TIP3    H2 4141   0.992   2.211   6.219  0.9569 -0.3773 -0.8506
 1400TIP3   OH2 4142   8.452   0.588   3.750 -0.1949  0.0591 -0.1715
 1400TIP3    H1 4143   8.487   0.607   3.663  1.3972 -1.1455  0.1647
 1400TIP3    H2 4144   8.488   0.657   3.806 -1.0511  0.7149 -0.4240
 1401TIP3   OH2 4145   7.518   0.934   5.353  0.1467 -0.2477  0.0760
 1401TIP3    H1 4146   7.442   0.966   5.303  0.5571  0.9412  0.2009
 1401TIP3    H2 4147   7.591   0.986   5.321  0.5715 -0.1040  1.2824
 1402TIP3   OH2 4148   6.962   1.172   4.755  0.3143 -0.4760  0.1638
 1402TIP3    H1 4149   6.916   1.233   4.813  0.0822 -0.1362 -0.3792
 1402TIP3    H2 4150   7.048   1.213   4.742  0.0547 -0.1247 -0.4336
 1403TIP3   OH2 4151   2.422   5.912   0.511  0.0802 -0.3712 -0.0363
 1403TIP3    H1 4152   2.500   5.966   0.525 -0.2819  0.0254  0.4883
 1403TIP3    H2 4153   2.388   5.941   0.426 -1.3991  1.8706  1.2626
 1404TIP3   OH2 4154   2.117   2.689   0.204  0.1707  0.3962 -0.2796
 1404TIP3    H1 4155   2.029   2.651   0.203  0.0476  0.6847 -1.9427
 1404TIP3    H2 4156   2.167   2.636   0.142  0.6377  1.4668 -0.8302
 1405TIP3   OH2 4157   4.749   7.773   6.396 -0.2604 -0.3214 -0.1278
 1405TIP3    H1 4158   4.791   7.760   6.481 -0.2440 -0.6062 -0.1787
 1405TIP3    H2 4159   4.822   7.782   6.334 -0.2387  2.1146  0.2039
 1406TIP3   OH2 4160   1.920   7.310   2.447  0.6322 -0.5554 -0.1601
 1406TIP3    H1 4161   1.966   7.333   2.528 -1.2900 -0.8569  1.0542
 1406TIP3    H2 4162   1.829   7.335   2.463  0.6743  1.9914 -3.2908
 1407TIP3   OH2 4163   3.103   7.161   1.962 -0.1591  0.0790  0.1666
 1407TIP3    H1 4164   3.150   7.174   1.880 -0.9036 -0.9839 -0.4497
 1407TIP3    H2 4165   3.017   7.200   1.947 -1.6522 -3.4313 -0.9510
 1408TIP3   OH2 4166   6.884   0.252   5.385  0.0301  1.0074  0.1276
 1408TIP3    H1 4167   6.946   0.270   5.455 -0.2361 -1.3314  0.9948
 1408TIP3    H2 4168   6.823   0.189   5.422  0.0435 -0.4827 -2.2800
 1409TIP3   OH2 4169   1.564   6.387   1.989  0.2692  0.1139 -0.1973
 1409TIP3    H1 4170   1.622   6.462   1.989  1.3346 -0.6749 -2.0716
 1409TIP3    H2 4171   1.570   6.352   1.900 -0.9131 -1.6332  0.3811
 1410TIP3   OH2 4172   8.103   0.231   5.735 -0.2406  0.0152 -0.3415
 1410TIP3    H1 4173   8.120   0.138   5.718 -1.8884 -0.2833 -0.5025
 1410TIP3    H2 4174   8.187   0.274   5.723  0.1460 -1.2030 -2.1710
 1411TIP3   OH2 4175   2.741   6.975   3.782 -0.6108 -0.2784 -0.3658
 1411TIP3    H1 4176   2.746   6.928   3.865 -0.7524  0.5442  0.1139
 1411TIP3    H2 4177   2.648   6.975   3.760 -0.5407 -0.7319 -0.6618
 1412TIP3   OH2 4178   7.876   3.900   1.332 -0.0452 -0.7609  0.1796
 1412TIP3    H1 4179   7.872   3.845   1.254 -0.2101 -1.0762  0.4124
 1412TIP3    H2 4180   7.951   3.958   1.316  2.5794 -3.6222  1.6362
 1413TIP3   OH2 4181   1.132   4.984   2.861 -0.1673  0.5848  0.4627
 1413TIP3    H1 4182   1.060   5.015   2.917 -1.2960 -0.5253 -0.3302
 1413TIP3    H2 4183   1.202   5.047   2.874  0.1577 -0.4614  4.3154
 1414TIP3   OH2 4184   7.603   0.216   6.554  0.5561 -0.0951 -0.2896
 1414TIP3    H1 4185   7.559   0.138   6.586  0.5265 -0.9196 -2.2613
 1414TIP3    H2 4186   7.570   0.287   6.609 -1.8673 -0.9714 -0.5760
 1415TIP3   OH2 4187   0.732   4.295   1.723 -0.4544 -0.7278 -0.3530
 1415TIP3    H1 4188   0.728   4.247   1.641 -0.6949 -3.3828  1.1706
 1415TIP3    H2 4189   0.662   4.259   1.776  0.6363 -0.1036  1.5672
 1416TIP3   OH2 4190   0.073   4.396   1.472  0.4002  0.0853 -0.3607
 1416TIP3    H1 4191   0.070   4.416   1.565 -0.8640  0.6205 -0.5018
 1416TIP3    H2 4192   0.016   4.461   1.432  0.4087 -0.5554 -1.4403
 1417TIP3   OH2 4193   2.510   4.249   1.666 -0.5939 -0.1321 -0.5656
 1417TIP3    H1 4194   2.498   4.333   1.621  1.4312 -0.1433 -1.1966
 1417TIP3    H2 4195   2.586   4.210   1.623 -1.7352 -2.4726 -0.5240
 1418TIP3   OH2 4196   5.919   0.813   6.220 -0.2835 -0.2599  1.1132
 1418TIP3    H1 4197   5.986   0.783   6.281  0.6214 -1.1510 -0.3021
 1418TIP3    H2 4198   5.966   0.831   6.139 -1.3339  1.8144  0.9225
 1419TIP3   OH2 4199   7.847   2.167   1.694 -0.1155 -0.2479  0.0857
 1419TIP3    H1 4200   7.888   2.081   1.708 -0.0812 -0.3770 -0.8082
 1419TIP3    H2 4201   7.756   2.147   1.673 -0.3913 -0.0049  0.9982
 1420TIP3   OH2 4202   7.133   3.755   0.415 -0.5732  0.0980  0.0673
 1420TIP3    H1 4203   7.217   3.794   0.437  0.3713 -1.1028 -1.3743
 1420TIP3    H2 4204   7.154   3.674   0.370 -2.4823  0.6181 -1.8658
 1421TIP3   OH2 4205   7.905   6.873   1.918 -0.0541 -0.2747  0.3815
 1421TIP3    H1 4206   7.904   6.969   1.928  0.7787 -0.2120 -0.1001
 1421TIP3    H2 4207   7.953   6.858   1.837 -2.5517 -0.9918 -1.0103
 1422TIP3   OH2 4208   8.457   3.732   2.402  0.1035  0.4934  0.2221
 1422TIP3    H1 4209   8.369   3.724   2.364  0.3805  2.0438 -0.7682
 1422TIP3    H2 4210   8.516   3.711   2.330  0.5785  0.5128  0.6063
 1423TIP3   OH2 4211   0.167   4.477   1.144 -0.7018  0.0543  0.0720
 1423TIP3    H1 4212   0.249   4.466   1.096 -0.3870  1.2953  0.3141
 1423TIP3    H2 4213   0.127   4.390   1.142  0.8957 -0.7132  0.4673
 1424TIP3   OH2 4214   7.752   2.222   3.771  0.0126 -0.0281 -0.0028
 1424TIP3    H1 4215   7.704   2.271   3.838 -2.1963 -2.7693  0.5038
 1424TIP3    H2 4216   7.710   2.247   3.688 -0.1402  0.0464  0.0968
 1425TIP3   OH2 4217   1.479   6.019   2.464 -0.2334  0.1700  0.3156
 1425TIP3    H1 4218   1.557   6.048   2.417  0.4266 -2.3126 -0.1871
 1425TIP3    H2 4219   1.507   5.941   2.513 -2.5481 -1.2548 -0.5113
 1426TIP3   OH2 4220   2.127   4.717   0.576 -0.5330  0.1230 -0.6389
 1426TIP3    H1 4221   2.185   4.763   0.636 -0.0675 -0.5941 -0.5367
 1426TIP3    H2 4222   2.185   4.677   0.512 -0.8593 -1.2443 -0.0864
 1427TIP3   OH2 4223   1.728   4.499   2.188  0.0481  0.6759  0.2978
 1427TIP3    H1 4224   1.789   4.530   2.255  0.8147  0.6245 -0.3634
 1427TIP3    H2 4225   1.696   4.579   2.146 -0.4416  0.7089  0.7197
 1428TIP3   OH2 4226   3.754   7.951   5.761  0.0984  0.4350  0.2909
 1428TIP3    H1 4227   3.833   7.957   5.707 -0.7795 -0.5910 -1.1513
 1428TIP3    H2 4228   3.780   7.896   5.835  1.0300  1.0000  0.3894
 1429TIP3   OH2 4229   2.334   3.679   1.319  0.4572 -0.1608  0.7855
 1429TIP3    H1 4230   2.390   3.708   1.391  1.4536 -0.8215  0.2913
 1429TIP3    H2 4231   2.252   3.653   1.361  0.0236  2.0899  1.3839
 1430TIP3   OH2 4232   0.728   5.297   1.227  0.4155  0.2367  0.2340
 1430TIP3    H1 4233   0.689   5.285   1.313  1.5004 -0.2418  0.6723
 1430TIP3    H2 4234   0.760   5.387   1.227  0.8277  0.0921  0.5097
 1431TIP3   OH2 4235   1.894   3.995   2.326  0.4219 -0.6234 -0.6112
 1431TIP3    H1 4236   1.924   3.909   2.295  2.2266 -0.1567 -0.2107
 1431TIP3    H2 4237   1.970   4.033   2.369 -0.9601  0.3288  1.0488
 1432TIP3   OH2 4238   4.367   6.538   6.449 -0.3848 -0.1677  0.1395
 1432TIP3    H1 4239   4.421   6.500   6.518 -0.3213 -2.5854 -1.1689
 1432TIP3    H2 4240   4.283   6.555   6.491  0.4792  0.9051  1.4597
 1433TIP3   OH2 4241   2.483   4.780   0.386 -0.5599  0.0442 -0.5002
 1433TIP3    H1 4242   2.563   4.738   0.356 -1.3463 -1.8233 -0.0754
 1433TIP3    H2 4243   2.508   4.825   0.467 -0.0315 -0.8929 -0.1316
 1434TIP3   OH2 4244   5.091   7.457   5.334 -0.4615  0.2045  0.2643
 1434TIP3    H1 4245   5.022   7.391   5.345 -0.8462  0.7674  1.3047
 1434TIP3    H2 4246   5.130   7.465   5.421 -0.9881  1.9756  0.3588
 1435TIP3   OH2 4247   0.646   1.694   6.709 -0.5942 -0.1100 -0.0143
 1435TIP3    H1 4248   0.670   1.786   6.719  2.0992 -0.7587 -0.0700
 1435TIP3    H2 4249   0.652   1.657   6.797  1.1259 -0.8292 -0.4022
 1436TIP3   OH2 4250   0.921   5.058   3.035  0.1533  0.3921  0.1832
 1436TIP3    H1 4251   0.968   5.119   3.093 -0.3979  0.7403  0.2717
 1436TIP3    H2 4252   0.838   5.102   3.018 -0.0066 -0.0764 -0.2327
 1437TIP3   OH2 4253   6.258   0.414   6.580 -0.4531 -0.0252 -0.5893
 1437TIP3    H1 4254   6.351   0.392   6.580 -0.1949  1.0296 -0.3673
 1437TIP3    H2 4255   6.232   0.412   6.488 -0.8686 -2.9629 -0.4407
 1438TIP3   OH2 4256   2.063   5.025   1.222 -0.1558  0.1340  0.0467
 1438TIP3    H1 4257   2.000   4.963   1.258  1.9855 -2.7391 -0.8859
 1438TIP3    H2 4258   2.137   5.022   1.283 -0.5815  2.9408  0.7755
 1439TIP3   OH2 4259   2.082   5.301   0.589 -0.1488  0.3540 -0.0469
 1439TIP3    H1 4260   2.068   5.345   0.505 -1.0873  1.1123  0.4974
 1439TIP3    H2 4261   1.996   5.264   0.610 -0.4459  1.9495  1.5925
 1440TIP3   OH2 4262   4.034   7.217   0.159  0.1845  0.1956 -0.0713
 1440TIP3    H1 4263   3.944   7.218   0.127  0.3777  0.2300 -0.6298
 1440TIP3    H2 4264   4.084   7.261   0.090  0.5239  0.7893  0.5476
 1441TIP3   OH2 4265   2.242   5.154   0.797  0.3916  0.3775 -0.0889
 1441TIP3    H1 4266   2.163   5.102   0.782  0.4328 -0.0222  1.0375
 1441TIP3    H2 4267   2.253   5.205   0.717 -1.4690  1.0157  0.0332
 1442TIP3   OH2 4268   5.087   7.488   3.521 -0.1923 -0.1769 -0.3206
 1442TIP3    H1 4269   4.996   7.518   3.528  0.4162  1.3167  1.8558
 1442TIP3    H2 4270   5.098   7.425   3.592  0.7278  0.3563  0.0212
 1443TIP3   OH2 4271   0.388   1.578   6.652 -0.0279  0.1884 -0.9224
 1443TIP3    H1 4272   0.463   1.634   6.670  0.1380  0.4400 -2.3899
 1443TIP3    H2 4273   0.346   1.566   6.738  0.4181  1.8440 -0.4660
 1444TIP3   OH2 4274   5.606   1.474   6.134  0.6372  0.6609 -0.1901
 1444TIP3    H1 4275   5.590   1.460   6.227  0.3238  2.9210  0.1141
 1444TIP3    H2 4276   5.525   1.447   6.091  1.6044 -2.6942 -0.0828
 1445TIP3   OH2 4277   3.048   3.387   2.122  0.2682  0.1658 -0.0101
 1445TIP3    H1 4278   3.012   3.438   2.195 -0.7996 -1.4345  0.6299
 1445TIP3    H2 4279   3.069   3.451   2.055 -0.6331  1.4775  0.9403
 1446TIP3   OH2 4280   1.214   5.762   0.145  0.5257 -0.0695  0.0003
 1446TIP3    H1 4281   1.224   5.773   0.050  0.9124 -0.6038 -0.0257
 1446TIP3    H2 4282   1.304   5.754   0.177  0.3794 -0.2903  0.3614
 1447TIP3   OH2 4283   6.748   1.842   5.613  0.1287  0.0466 -0.0357
 1447TIP3    H1 4284   6.832   1.807   5.640  0.5073  1.1383  0.2359
 1447TIP3    H2 4285   6.761   1.937   5.612 -1.2112  0.2461  0.4178
 1448TIP3   OH2 4286   1.223   4.524   0.212  0.1176  0.8014 -0.4396
 1448TIP3    H1 4287   1.290   4.543   0.277 -1.0222 -0.1125  1.0459
 1448TIP3    H2 4288   1.180   4.445   0.245 -0.6554  0.4848 -2.1733
 1449TIP3   OH2 4289   3.977   6.190   0.705 -0.0673 -0.5615  0.0482
 1449TIP3    H1 4290   4.072   6.195   0.702 -0.0740 -0.0865  0.7306
 1449TIP3    H2 4291   3.955   6.189   0.798 -0.7389 -0.5137 -0.1043
 1450TIP3   OH2 4292   1.617   3.930   1.157  0.2682  0.5431  0.1560
 1450TIP3    H1 4293   1.563   3.969   1.226 -2.6595  2.5650 -3.0803
 1450TIP3    H2 4294   1.601   3.835   1.165 -0.9325  0.8461  1.5451
 1451TIP3   OH2 4295   2.904   6.109   1.216 -0.3116 -0.1996 -0.3433
 1451TIP3    H1 4296   2.864   6.196   1.224 -2.0649 -0.9827 -0.3925
 1451TIP3    H2 4297   2.984   6.124   1.167 -0.2040  1.5135  0.3213
 1452TIP3   OH2 4298   8.243   0.457   2.525 -0.0289 -0.1000  0.0259
 1452TIP3    H1 4299   8.263   0.550   2.537  1.2865 -0.1595 -1.4185
 1452TIP3    H2 4300   8.300   0.412   2.587 -0.0787  0.0248  0.1625
 1453TIP3   OH2 4301   0.500   4.723   1.186 -0.1700 -0.7066 -0.2409
 1453TIP3    H1 4302   0.521   4.685   1.271 -0.9283 -1.6664 -0.4741
 1453TIP3    H2 4303   0.408   4.746   1.192  0.3766  1.5350  0.0457
 1454TIP3   OH2 4304   7.882   0.428   5.895 -0.1897 -0.3360 -0.2715
 1454TIP3    H1 4305   7.903   0.520   5.879  0.0107  0.1140  2.4260
 1454TIP3    H2 4306   7.953   0.380   5.852  0.6945  0.8361 -0.1369
 1455TIP3   OH2 4307   0.022   2.015   6.442 -0.3416 -0.7954  0.3151
 1455TIP3    H1 4308   0.066   1.956   6.504  1.2414 -0.1208 -0.1276
 1455TIP3    H2 4309   0.094   2.062   6.400 -1.6008  2.1206  1.3118
 1456TIP3   OH2 4310   4.513   5.889   1.875  0.1338 -0.0772  0.0129
 1456TIP3    H1 4311   4.594   5.908   1.827  0.4612 -1.5261 -0.0254
 1456TIP3    H2 4312   4.536   5.904   1.967  0.5198 -0.6970  0.0224
 1457TIP3   OH2 4313   0.927   0.926   5.710  0.3284  0.4453 -0.4044
 1457TIP3    H1 4314   0.913   0.934   5.805 -0.3312 -0.3318 -0.4380
 1457TIP3    H2 4315   0.999   0.986   5.692  0.8146  0.2019  0.6817
 1458TIP3   OH2 4316   7.625   1.274   6.654  0.4277  0.7132 -0.0521
 1458TIP3    H1 4317   7.653   1.280   6.745 -0.1965  2.0413  0.0724
 1458TIP3    H2 4318   7.701   1.238   6.608  0.7636  0.0857  0.9786
 1459TIP3   OH2 4319   3.938   2.957   6.394  0.2845 -0.2095 -0.1562
 1459TIP3    H1 4320   3.899   3.032   6.439  1.0002  0.4539 -0.6341
 1459TIP3    H2 4321   3.865   2.896   6.382 -0.1384  0.0730  0.9178
 1460TIP3   OH2 4322   0.619   5.281   0.135  0.0820  0.4775 -0.3238
 1460TIP3    H1 4323   0.655   5.240   0.214  0.3685  0.7238 -0.3232
 1460TIP3    H2 4324   0.545   5.226   0.111  1.4400 -0.9762 -1.2461
 1461TIP3   OH2 4325   5.188   6.964   4.474 -0.1376  0.4137  0.3258
 1461TIP3    H1 4326   5.253   6.989   4.409  0.5750 -1.4924  0.2757
 1461TIP3    H2 4327   5.144   6.888   4.435 -0.7814  0.2374  1.3883
 1462TIP3   OH2 4328   7.123   4.312   5.071  0.0328  0.4976 -0.0788
 1462TIP3    H1 4329   7.161   4.225   5.061  0.2357  0.6726 -0.8743
 1462TIP3    H2 4330   7.057   4.302   5.140 -0.1896 -0.3617 -0.4131
 1463TIP3   OH2 4331   1.393   1.700   6.675  0.2767 -0.2529 -0.6153
 1463TIP3    H1 4332   1.304   1.678   6.702  0.2755 -0.2614 -0.6259
 1463TIP3    H2 4333   1.446   1.625   6.702  0.1404 -0.6242 -1.3654
 1464TIP3   OH2 4334   0.354   0.501   4.397 -0.0759 -0.2777  0.7375
 1464TIP3    H1 4335   0.412   0.522   4.324  0.4099 -0.1979  1.1388
 1464TIP3    H2 4336   0.304   0.425   4.368 -0.6712  0.4351 -0.0954
 1465TIP3   OH2 4337   8.088   1.885   5.867  0.2633 -0.2270 -0.0725
 1465TIP3    H1 4338   8.023   1.862   5.801 -1.1433 -0.4991  1.3824
 1465TIP3    H2 4339   8.084   1.980   5.873  0.8885 -0.1460 -0.8663
 1466TIP3   OH2 4340   6.122   7.300   0.879  0.4495 -0.0646 -0.5055
 1466TIP3    H1 4341   6.138   7.286   0.972 -0.2025 -0.0860 -0.3927
 1466TIP3    H2 4342   6.162   7.224   0.836 -0.6393 -0.8767 -0.1148
 1467TIP3   OH2 4343   0.210   1.908   5.200 -1.5042 -0.0515 -0.2161
 1467TIP3    H1 4344   0.117   1.909   5.224 -1.6406 -1.2397 -0.7125
 1467TIP3    H2 4345   0.221   1.831   5.145  0.7435 -2.7802  3.7785
 1468TIP3   OH2 4346   2.142   1.987   6.405  0.3008 -0.2555  0.4652
 1468TIP3    H1 4347   2.112   1.899   6.426  0.8270 -0.5343  0.0663
 1468TIP3    H2 4348   2.228   1.994   6.447 -0.3813  0.5972  1.7548
 1469TIP3   OH2 4349   0.383   2.194   3.488 -0.1184 -0.6752 -0.3993
 1469TIP3    H1 4350   0.294   2.227   3.480  0.0004 -0.3190 -0.2780
 1469TIP3    H2 4351   0.373   2.099   3.495 -0.5056 -0.6118 -0.0713
 1470TIP3   OH2 4352   4.898   5.593   2.112 -0.3028  0.4039 -0.4283
 1470TIP3    H1 4353   4.857   5.626   2.032  0.1494  0.7908 -0.5015
 1470TIP3    H2 4354   4.987   5.569   2.086  0.1571  1.4220  0.1605
 1471TIP3   OH2 4355   1.627   1.246   3.496 -0.0967 -0.4274 -0.2547
 1471TIP3    H1 4356   1.543   1.276   3.532 -0.0850  0.9356 -1.3447
 1471TIP3    H2 4357   1.640   1.160   3.536 -1.6371 -0.3225  0.5271
 1472TIP3   OH2 4358   5.643   2.272   5.276  0.1125  0.3756  0.5105
 1472TIP3    H1 4359   5.608   2.232   5.197 -1.0336  0.8583  0.7633
 1472TIP3    H2 4360   5.726   2.227   5.291  1.4171  1.8241 -2.1879
 1473TIP3   OH2 4361   6.620   1.874   3.447  0.0581  0.5207 -0.0840
 1473TIP3    H1 4362   6.570   1.953   3.465 -0.1623  0.4171 -0.2383
 1473TIP3    H2 4363   6.553   1.808   3.426  0.2301  0.2560  0.2017
 1474TIP3   OH2 4364   7.818   0.113   4.908 -0.1665 -0.1846 -0.2394
 1474TIP3    H1 4365   7.727   0.086   4.893 -0.1344  0.2072 -1.2198
 1474TIP3    H2 4366   7.840   0.077   4.994 -1.2238 -0.3490 -0.0256
 1475TIP3   OH2 4367   8.430   5.174   1.362 -0.4555 -0.1485  0.1085
 1475TIP3    H1 4368   8.395   5.254   1.324 -1.5403 -0.4819  0.3637
 1475TIP3    H2 4369   8.496   5.203   1.425  0.9580  0.4302 -1.6001
 1476TIP3   OH2 4370   5.569   1.507   4.972 -0.3367 -0.1108  0.4456
 1476TIP3    H1 4371   5.615   1.430   5.006 -0.3389  0.3484  1.5234
 1476TIP3    H2 4372   5.477   1.492   4.996 -0.3961  0.0409  0.3090
 1477TIP3   OH2 4373   0.041   2.114   5.528 -0.3851 -0.0720  0.8895
 1477TIP3    H1 4374   0.105   2.090   5.595  1.1092  0.1772 -0.4272
 1477TIP3    H2 4375   0.022   2.031   5.483  0.2691  0.1461  0.2067
 1478TIP3   OH2 4376   2.092   4.401   1.310  0.0630 -0.6477 -0.0339
 1478TIP3    H1 4377   2.011   4.445   1.285  0.2648 -0.5967 -0.6029
 1478TIP3    H2 4378   2.083   4.386   1.404  0.0968  0.7989  0.2049
 1479TIP3   OH2 4379   1.542   5.626   1.296 -0.3600  0.6507  0.5151
 1479TIP3    H1 4380   1.547   5.697   1.232  1.0490  0.0594 -0.0646
 1479TIP3    H2 4381   1.604   5.560   1.264  0.9622  0.6691  2.8727
 1480TIP3   OH2 4382   2.982   6.766   1.214  0.4112  0.6908  0.4112
 1480TIP3    H1 4383   2.903   6.720   1.242  1.5625 -1.3669  0.3696
 1480TIP3    H2 4384   3.011   6.719   1.136  0.7149  2.5269 -0.6157
 1481TIP3   OH2 4385   1.125   4.870   1.479  0.7500  0.1319  0.3783
 1481TIP3    H1 4386   1.196   4.806   1.489 -0.0397 -0.9680 -0.8565
 1481TIP3    H2 4387   1.165   4.942   1.429  0.9046 -0.6576 -0.6557
 1482TIP3   OH2 4388   0.964   3.867   6.790 -0.2001 -0.1070 -0.0129
 1482TIP3    H1 4389   1.026   3.809   6.834 -0.0148  0.1227  0.0298
 1482TIP3    H2 4390   0.996   3.955   6.809 -1.1118  0.0464  0.8629
 1483TIP3   OH2 4391   4.884   6.492   2.344 -0.0955  0.1453  0.1146
 1483TIP3    H1 4392   4.855   6.401   2.352  0.2690  0.0445  0.2764
 1483TIP3    H2 4393   4.802   6.542   2.338 -0.2828 -0.2829 -1.0604
 1484TIP3   OH2 4394   0.343   0.870   4.616  0.8378 -0.0150  0.0249
 1484TIP3    H1 4395   0.437   0.852   4.605  1.2846  2.2611 -0.1531
 1484TIP3    H2 4396   0.312   0.890   4.528  0.7038  1.5041  0.4022
 1485TIP3   OH2 4397   3.791   4.767   0.734 -0.1076  0.5091 -0.2226
 1485TIP3    H1 4398   3.883   4.764   0.707  0.3021  0.4566  1.1692
 1485TIP3    H2 4399   3.764   4.856   0.713  0.4616  0.7405 -0.0029
 1486TIP3   OH2 4400   1.721   5.283   1.229 -0.2377  0.0608  0.2618
 1486TIP3    H1 4401   1.811   5.280   1.199 -0.1265 -1.2028  0.7012
 1486TIP3    H2 4402   1.718   5.358   1.288  0.5895 -0.0379  0.4333
 1487TIP3   OH2 4403   8.412   3.994   0.910  0.0829 -0.0334  0.1563
 1487TIP3    H1 4404   8.498   4.023   0.881 -0.2574  0.9350  0.1266
 1487TIP3    H2 4405   8.361   4.074   0.920 -0.3911 -0.4853  1.5418
 1488TIP3   OH2 4406   3.216   5.408   0.232 -0.2600  0.3319 -0.1215
 1488TIP3    H1 4407   3.300   5.438   0.266  0.6855 -2.3262 -0.0129
 1488TIP3    H2 4408   3.166   5.382   0.309 -0.2972 -0.2550 -0.3388
 1489TIP3   OH2 4409   0.171   2.105   6.833 -0.0882 -0.6931  0.2797
 1489TIP3    H1 4410   0.249   2.071   6.876 -0.8826 -0.5476  1.8706
 1489TIP3    H2 4411   0.148   2.039   6.768  0.8662 -1.1356  0.3918
 1490TIP3   OH2 4412   7.998   0.835   4.977 -0.1659 -0.6774  0.2058
 1490TIP3    H1 4413   7.954   0.913   4.943  1.0190  1.0076  2.4214
 1490TIP3    H2 4414   8.036   0.793   4.900 -2.5728 -0.2351 -1.2835
 1491TIP3   OH2 4415   7.359   1.093   5.916  0.1622 -0.1795 -0.5683
 1491TIP3    H1 4416   7.313   1.135   5.989 -2.5748 -2.3411 -0.9862
 1491TIP3    H2 4417   7.387   1.008   5.952 -0.8081 -1.0649 -1.8874
 1492TIP3   OH2 4418   3.071   6.310   0.587  0.0023  0.5692  0.3514
 1492TIP3    H1 4419   3.102   6.248   0.653 -1.7542 -1.1290 -0.3673
 1492TIP3    H2 4420   3.136   6.380   0.587  0.3934  0.2698  3.4002
 1493TIP3   OH2 4421   7.877   0.784   3.486 -0.2194 -0.3613  0.4971
 1493TIP3    H1 4422   7.807   0.719   3.492 -1.1877  0.6808  0.6879
 1493TIP3    H2 4423   7.954   0.739   3.522 -1.3453 -0.7573  2.5374
 1494TIP3   OH2 4424   4.211   5.185   0.672  0.2401 -0.0111  0.5493
 1494TIP3    H1 4425   4.197   5.268   0.627 -1.2794 -1.7181 -2.2249
 1494TIP3    H2 4426   4.196   5.205   0.765 -1.9188  2.4019 -0.2830
 1495TIP3   OH2 4427   2.307   6.285   0.372  0.1036  0.1117 -0.2689
 1495TIP3    H1 4428   2.360   6.364   0.363 -0.4418  0.5412  0.2748
 1495TIP3    H2 4429   2.225   6.315   0.412 -0.1719 -0.7010 -0.2101
 1496TIP3   OH2 4430   1.485   4.845   0.333 -0.5750  0.4773  0.3579
 1496TIP3    H1 4431   1.536   4.906   0.278 -0.0593 -2.5897 -2.7691
 1496TIP3    H2 4432   1.396   4.851   0.299 -0.7626  0.3250  0.8206
 1497TIP3   OH2 4433   2.034   4.973   0.794 -0.1134  0.0940 -0.2507
 1497TIP3    H1 4434   2.028   4.879   0.815  0.6839 -0.1193 -0.9417
 1497TIP3    H2 4435   1.970   5.014   0.851 -0.1225 -0.8210  0.4178
 1498TIP3   OH2 4436   8.313   1.768   6.812  0.7146  0.1361 -0.2516
 1498TIP3    H1 4437   8.358   1.692   6.847 -0.2202 -0.3948 -0.1928
 1498TIP3    H2 4438   8.253   1.795   6.882 -0.4297 -0.3208 -1.0305
 1499TIP3   OH2 4439   6.896   2.030   4.840 -0.4329 -0.0890  0.6491
 1499TIP3    H1 4440   6.920   2.092   4.910 -0.7229  0.4755  0.2523
 1499TIP3    H2 4441   6.935   1.947   4.867  1.3387  0.6414  0.3982
 1500TIP3   OH2 4442   3.139   0.822   5.950  0.3128  0.8735 -0.2793
 1500TIP3    H1 4443   3.173   0.799   5.864 -2.2119  0.7025 -1.2569
 1500TIP3    H2 4444   3.090   0.903   5.936 -1.0694  0.2402  0.7522
 1501TIP3   OH2 4445   1.668   4.110   1.886  0.0542 -0.0254 -0.0714
 1501TIP3    H1 4446   1.670   4.170   1.961 -0.5801 -0.3770  0.2279
 1501TIP3    H2 4447   1.730   4.041   1.909 -0.8618 -0.6494  0.5716
 1502TIP3   OH2 4448   1.156   6.757   0.526 -0.3047  0.2718 -0.0487
 1502TIP3    H1 4449   1.066   6.776   0.550 -1.1860 -0.4995 -2.5844
 1502TIP3    H2 4450   1.186   6.838   0.483 -0.0264  0.2872  0.1758
 1503TIP3   OH2 4451   6.340   2.338   5.994 -0.0443  0.0824 -0.1069
 1503TIP3    H1 4452   6.432   2.330   5.968 -0.1971 -0.9021 -0.3635
 1503TIP3    H2 4453   6.317   2.252   6.028 -1.2416 -0.0790 -1.2756
 1504TIP3   OH2 4454   8.392   0.174   5.908  0.2809  0.1330 -0.2764
 1504TIP3    H1 4455   8.398   0.269   5.900 -1.7934  0.3276  0.1999
 1504TIP3    H2 4456   8.360   0.160   5.997  1.1731 -1.0530 -0.1266
 1505TIP3   OH2 4457   5.100   7.917   5.418  0.6744 -0.0318  0.5026
 1505TIP3    H1 4458   5.010   7.931   5.449  0.1777 -0.9660 -0.4870
 1505TIP3    H2 4459   5.144   7.873   5.491  0.2957  0.3191  0.9453
 1506TIP3   OH2 4460   4.339   5.901   0.665 -0.1074 -0.2982 -0.1444
 1506TIP3    H1 4461   4.311   5.839   0.733  1.8442  0.7067  1.6213
 1506TIP3    H2 4462   4.434   5.890   0.660  0.0514  1.3210 -1.0724
 1507TIP3   OH2 4463   1.816   3.016   6.801  0.0501 -0.1073 -0.9749
 1507TIP3    H1 4464   1.721   3.020   6.787 -0.0970  0.0912  0.0086
 1507TIP3    H2 4465   1.841   2.929   6.772 -0.1832  0.3572 -2.6392
 1508TIP3   OH2 4466   0.347   1.428   5.689 -0.9737  0.1469 -0.0258
 1508TIP3    H1 4467   0.411   1.427   5.618  0.0869  1.3990  0.8917
 1508TIP3    H2 4468   0.283   1.362   5.664  1.0330 -1.6226 -0.6335
 1509TIP3   OH2 4469   1.614   4.376   1.188  0.3306 -0.2091 -0.3721
 1509TIP3    H1 4470   1.541   4.315   1.177 -0.7016  0.9743 -0.1184
 1509TIP3    H2 4471   1.604   4.439   1.116  0.6038  0.4407  0.1505
 1510TIP3   OH2 4472   6.447   1.031   6.816 -0.2708 -0.7474  0.0751
 1510TIP3    H1 4473   6.363   1.012   6.773 -0.6271  0.3496  0.2729
 1510TIP3    H2 4474   6.503   1.063   6.745 -1.2134  2.1744  0.5512
 1511TIP3   OH2 4475   0.464   2.769   5.783 -0.6957 -0.1530  0.0628
 1511TIP3    H1 4476   0.377   2.809   5.789  0.0419  1.2463  1.9167
 1511TIP3    H2 4477   0.469   2.711   5.859 -0.0129 -0.2362 -0.0421
 1512TIP3   OH2 4478   4.257   5.204   0.088  0.2034 -0.0039 -0.3562
 1512TIP3    H1 4479   4.295   5.292   0.094  0.3191 -0.0843  0.0592
 1512TIP3    H2 4480   4.282   5.174   0.001 -0.6293  0.7445 -0.8610
 1513TIP3   OH2 4481   0.115   0.926   5.807  0.4779 -0.1726 -0.2027
 1513TIP3    H1 4482   0.060   0.935   5.729 -1.3273 -0.3907  1.0049
 1513TIP3    H2 4483   0.195   0.884   5.775 -0.3366 -0.5080 -1.8807
 1514TIP3   OH2 4484   7.340   1.859   6.099 -0.4237  0.0954  0.1119
 1514TIP3    H1 4485   7.309   1.773   6.126  0.6646  0.4530  2.6586
 1514TIP3    H2 4486   7.277   1.888   6.033 -2.7001 -1.2394  1.6241
 1515TIP3   OH2 4487   3.055   4.837   0.049 -0.8017  0.5023  0.4294
 1515TIP3    H1 4488   3.142   4.818   0.085 -0.2055 -0.5178 -1.5020
 1515TIP3    H2 4489   3.005   4.757   0.065 -0.9479  0.5577  0.2436
 1516TIP3   OH2 4490   7.875   2.055   6.654 -0.0100  0.1291  0.1449
 1516TIP3    H1 4491   7.957   2.097   6.626 -0.0987  0.4717  0.3923
 1516TIP3    H2 4492   7.883   1.965   6.625  0.5597  0.1029  0.3756
 1517TIP3   OH2 4493   3.634   0.219   0.909  0.0832  0.6545 -0.2686
 1517TIP3    H1 4494   3.665   0.308   0.894 -0.9427  0.7046 -2.2554
 1517TIP3    H2 4495   3.600   0.191   0.824  1.4000 -2.0486  0.0549
 1518TIP3   OH2 4496   1.146   2.525   6.843 -0.3275  0.1425 -0.2359
 1518TIP3    H1 4497   1.090   2.521   6.765 -1.6530 -1.4214  0.7793
 1518TIP3    H2 4498   1.135   2.440   6.885  0.7750  0.7849  1.3963
 1519TIP3   OH2 4499   2.255   2.239   3.412  0.2330  0.2700 -0.7272
 1519TIP3    H1 4500   2.334   2.279   3.449  0.3679 -0.5999 -0.0494
 1519TIP3    H2 4501   2.189   2.249   3.480  0.0012  0.2126 -0.9455
 1520TIP3   OH2 4502   1.849   1.750   6.141 -0.0618 -0.1547  0.5017
 1520TIP3    H1 4503   1.804   1.780   6.220 -2.3388 -1.2681 -0.3367
 1520TIP3    H2 4504   1.884   1.664   6.164  0.7342  0.2565  0.8268
 1521TIP3   OH2 4505   7.220   2.308   4.923 -0.1470  0.4803  0.2643
 1521TIP3    H1 4506   7.253   2.372   4.986  1.3638  1.0973 -1.1393
 1521TIP3    H2 4507   7.125   2.316   4.929  0.0072  2.8396  0.1443
 1522TIP3   OH2 4508   0.902   1.115   5.410 -0.1283 -0.1535 -0.0475
 1522TIP3    H1 4509   0.905   1.094   5.316 -0.3730 -0.4145  0.0048
 1522TIP3    H2 4510   0.993   1.106   5.439  0.5942  3.1816 -0.9821
 1523TIP3   OH2 4511   3.140   4.605   2.858  0.2034  0.4229 -0.0990
 1523TIP3    H1 4512   3.171   4.679   2.910  1.8800 -1.5554  1.8333
 1523TIP3    H2 4513   3.190   4.530   2.891 -2.1073 -1.7524 -1.3390
 1524TIP3   OH2 4514   0.898   1.560   6.042  0.5031 -1.0582 -0.5065
 1524TIP3    H1 4515   0.820   1.614   6.054  0.2124 -1.2977 -1.2742
 1524TIP3    H2 4516   0.871   1.471   6.066  0.8651 -0.9417  0.3520
 1525TIP3   OH2 4517   0.730   1.032   6.241  0.2284 -0.5507  0.8498
 1525TIP3    H1 4518   0.671   0.977   6.292  1.1766 -1.4924  0.9348
 1525TIP3    H2 4519   0.770   0.973   6.177  0.3776  0.2704  0.1781
 1526TIP3   OH2 4520   3.183   5.932   0.021  0.5558  0.1158  0.6481
 1526TIP3    H1 4521   3.266   5.924   0.067  1.6847 -1.1892 -1.5251
 1526TIP3    H2 4522   3.155   5.842   0.005 -1.0850  0.5439  1.0184
 1527TIP3   OH2 4523   1.564   2.531   0.429  0.6263  0.6738 -0.5994
 1527TIP3    H1 4524   1.533   2.526   0.338  0.4583  0.2754 -0.5242
 1527TIP3    H2 4525   1.579   2.624   0.445 -0.3590  0.8509 -0.6999
 1528TIP3   OH2 4526   0.600   4.435   3.042  0.2821  0.7782  0.0376
 1528TIP3    H1 4527   0.510   4.438   3.009  0.2311  0.4902  0.1481
 1528TIP3    H2 4528   0.654   4.434   2.964  0.1824  0.7131 -0.0310
 1529TIP3   OH2 4529   7.742   0.437   3.200 -0.0515 -0.2570 -0.5466
 1529TIP3    H1 4530   7.809   0.476   3.144 -0.8546  1.2162 -0.4940
 1529TIP3    H2 4531   7.788   0.416   3.281  0.2188  1.3726 -0.2568
 1530TIP3   OH2 4532   6.171   4.717   0.488 -0.2827  0.3816  0.1160
 1530TIP3    H1 4533   6.230   4.646   0.514 -1.3583  0.0625  1.7766
 1530TIP3    H2 4534   6.197   4.791   0.543 -0.6989  0.5838  0.0427
 1531TIP3   OH2 4535   7.517   1.177   4.510 -0.4591  0.0354  0.1767
 1531TIP3    H1 4536   7.518   1.258   4.562 -1.6023 -0.2725  0.6881
 1531TIP3    H2 4537   7.430   1.140   4.525 -0.2303 -0.8774 -0.7044
 1532TIP3   OH2 4538   2.508   1.824   5.586  0.3240  0.2342 -0.6567
 1532TIP3    H1 4539   2.589   1.798   5.629  0.4976 -0.6291 -1.4934
 1532TIP3    H2 4540   2.443   1.762   5.618  0.2329  0.2362 -0.8399
 1533TIP3   OH2 4541   4.863   4.845   1.135  0.2735 -0.1136  0.3507
 1533TIP3    H1 4542   4.853   4.784   1.062 -0.6185  0.0310  0.3462
 1533TIP3    H2 4543   4.779   4.842   1.180  0.2393  1.1005  0.3679
 1534TIP3   OH2 4544   4.633   5.426   1.533  0.3279 -0.2546  0.8193
 1534TIP3    H1 4545   4.724   5.395   1.536  0.1395 -0.8510  0.2976
 1534TIP3    H2 4546   4.582   5.355   1.571 -0.1807 -0.8989 -1.0159
 1535TIP3   OH2 4547   1.543   0.946   5.360 -0.2960  0.4392  0.7803
 1535TIP3    H1 4548   1.478   0.952   5.430 -0.0189 -1.9642  1.3038
 1535TIP3    H2 4549   1.625   0.923   5.404  0.2025  0.3342 -0.1802
 1536TIP3   OH2 4550   1.129   5.520   0.213 -0.2435 -0.1424 -0.0746
 1536TIP3    H1 4551   1.121   5.615   0.205 -1.4391 -0.2999 -0.9121
 1536TIP3    H2 4552   1.215   5.506   0.252 -0.0858  1.2843  0.1165
 1537TIP3   OH2 4553   8.291   0.489   3.943 -0.2320 -0.6430  0.0506
 1537TIP3    H1 4554   8.351   0.534   3.884  1.0339 -1.1664  0.9371
 1537TIP3    H2 4555   8.205   0.526   3.922  0.3874  0.0853 -1.2345
 1538TIP3   OH2 4556   6.423   7.834   5.204 -0.2005 -0.0896  0.5135
 1538TIP3    H1 4557   6.480   7.909   5.222 -1.6908  0.9650  0.9192
 1538TIP3    H2 4558   6.410   7.836   5.109  0.3346 -0.2674  0.4339
 1539TIP3   OH2 4559   1.834   3.297   5.369  0.4108  0.2738 -0.2690
 1539TIP3    H1 4560   1.869   3.285   5.458 -0.8119 -0.7290  0.0809
 1539TIP3    H2 4561   1.889   3.365   5.332  3.1084 -1.5885  0.1126
 1540TIP3   OH2 4562   1.493   5.573   2.031  0.2314 -0.2106  0.2439
 1540TIP3    H1 4563   1.517   5.653   2.077 -1.3527 -0.3408  1.3408
 1540TIP3    H2 4564   1.532   5.583   1.944 -1.6464  2.6786 -0.3482
 1541TIP3   OH2 4565   8.358   5.716   0.849 -0.9211 -0.2561 -0.1250
 1541TIP3    H1 4566   8.305   5.794   0.832  0.3037  0.2949 -1.5655
 1541TIP3    H2 4567   8.427   5.745   0.908  0.8930  0.3518 -2.4712
 1542TIP3   OH2 4568   0.168   5.660   2.093  0.2038 -0.0221 -0.5792
 1542TIP3    H1 4569   0.158   5.565   2.085 -4.5943  0.3321  0.0727
 1542TIP3    H2 4570   0.174   5.676   2.187 -1.6925  0.4710 -0.5156
 1543TIP3   OH2 4571   0.040   7.652   1.966 -0.5423  0.0498  0.1239
 1543TIP3    H1 4572   0.116   7.695   2.004 -0.1398 -1.8998  1.5973
 1543TIP3    H2 4573   0.046   7.671   1.872  2.1230 -0.6215  0.1214
 1544TIP3   OH2 4574   0.498   3.476   6.421  0.2371 -0.0199 -0.5471
 1544TIP3    H1 4575   0.490   3.538   6.493 -0.0768 -1.0898  0.3615
 1544TIP3    H2 4576   0.579   3.428   6.439  0.8693  0.6130 -1.6390
 1545TIP3   OH2 4577   2.491   5.275   4.616  0.8428 -0.1590 -0.0657
 1545TIP3    H1 4578   2.464   5.252   4.705 -1.3866 -1.6899 -1.0682
 1545TIP3    H2 4579   2.507   5.369   4.619 -0.2251 -0.0058  1.7157
 1546TIP3   OH2 4580   0.140   2.702   5.562  0.1026  0.2109  0.4537
 1546TIP3    H1 4581   0.126   2.609   5.545  2.4831 -0.2819  1.0959
 1546TIP3    H2 4582   0.158   2.706   5.656  0.3778  1.2865  0.3512
 1547TIP3   OH2 4583   0.564   1.648   5.224 -0.6788  0.1076  0.4534
 1547TIP3    H1 4584   0.473   1.620   5.234 -0.8293 -0.1274 -1.4275
 1547TIP3    H2 4585   0.560   1.744   5.226 -0.7192  0.0950  2.2175
 1548TIP3   OH2 4586   2.647   6.304   1.637  0.0651  0.7285 -0.3197
 1548TIP3    H1 4587   2.582   6.246   1.597  0.9571  0.0533 -0.7961
 1548TIP3    H2 4588   2.644   6.282   1.730  0.7764 -0.4814 -0.5669
 1549TIP3   OH2 4589   7.921   0.247   4.663  0.2460 -0.3904 -0.4775
 1549TIP3    H1 4590   7.826   0.258   4.657  0.4256  1.3922 -0.2816
 1549TIP3    H2 4591   7.934   0.197   4.743 -0.5591 -1.2134 -0.8441
 1550TIP3   OH2 4592   1.530   5.456   0.079  0.4699  0.4939  0.2684
 1550TIP3    H1 4593   1.571   5.514   0.143 -2.0265  2.7973 -0.1511
 1550TIP3    H2 4594   1.514   5.512   0.003  1.0674 -1.5812 -1.4380
 1551TIP3   OH2 4595   2.684   0.737   6.637  0.7157 -0.5198  0.5892
 1551TIP3    H1 4596   2.710   0.724   6.546 -1.9269  0.1811 -0.2942
 1551TIP3    H2 4597   2.738   0.811   6.666 -0.2403  0.9531 -1.2321
 1552TIP3   OH2 4598   2.455   4.085   6.453  0.8328 -0.0545  0.3184
 1552TIP3    H1 4599   2.513   4.036   6.511 -1.2239 -0.0066  2.5103
 1552TIP3    H2 4600   2.369   4.044   6.465  0.1146  0.7407 -1.8084
 1553TIP3   OH2 4601   3.073   4.698   0.470 -0.1159  0.6699  0.0695
 1553TIP3    H1 4602   3.033   4.779   0.501  1.0764  1.2041  0.2383
 1553TIP3    H2 4603   3.143   4.680   0.533 -1.5773 -1.5157  1.1029
 1554TIP3   OH2 4604   0.192   2.291   6.633  0.6017  0.2747 -0.0316
 1554TIP3    H1 4605   0.155   2.221   6.688  0.0481  0.2708 -0.4005
 1554TIP3    H2 4606   0.175   2.262   6.543  1.1331  0.4796 -0.1977
 1555TIP3   OH2 4607   2.225   5.965   1.168 -0.1621  0.0068  0.0790
 1555TIP3    H1 4608   2.269   6.045   1.138  0.2554 -0.2887 -0.1100
 1555TIP3    H2 4609   2.132   5.986   1.163 -0.0910  0.0478 -1.1991
 1556TIP3   OH2 4610   3.271   6.491   0.600  0.1153  0.1749  0.1048
 1556TIP3    H1 4611   3.350   6.509   0.652  0.6585 -1.6958 -0.0270
 1556TIP3    H2 4612   3.279   6.548   0.523  0.7748  0.8146  0.6407
 1557TIP3   OH2 4613   1.136   2.283   6.538 -0.1596  0.4430 -0.1916
 1557TIP3    H1 4614   1.072   2.354   6.543 -0.3732  0.1474  1.5531
 1557TIP3    H2 4615   1.107   2.219   6.604  0.5194 -0.8656 -1.1215
 1558TIP3   OH2 4616   1.654   4.573   0.744 -0.0502 -0.6143  0.8115
 1558TIP3    H1 4617   1.585   4.582   0.678 -0.4442  0.4769  1.3665
 1558TIP3    H2 4618   1.734   4.562   0.693 -0.1283  1.7876  0.1177
 1559TIP3   OH2 4619   2.989   5.066   2.880 -0.0959 -0.0157 -0.1782
 1559TIP3    H1 4620   2.958   5.130   2.816  1.4757 -0.1701 -1.1214
 1559TIP3    H2 4621   2.924   4.996   2.877 -0.6071  0.4804 -0.8163
 1560TIP3   OH2 4622   4.611   6.062   2.914  0.3184  0.0930  0.2841
 1560TIP3    H1 4623   4.587   6.105   2.996  1.9287  0.8099  0.4074
 1560TIP3    H2 4624   4.647   5.978   2.940 -3.2527 -1.5975  0.0147
 1561TIP3   OH2 4625   0.695   2.684   6.811 -0.1191 -0.2905  0.3415
 1561TIP3    H1 4626   0.679   2.606   6.758  1.5138 -1.1324  1.0501
 1561TIP3    H2 4627   0.734   2.747   6.750  0.5224 -0.7829  0.2387
 1562TIP3   OH2 4628   1.446   5.101   0.606 -0.1357 -0.2787 -0.4020
 1562TIP3    H1 4629   1.485   5.147   0.680 -0.2626 -2.6073  1.1419
 1562TIP3    H2 4630   1.355   5.084   0.633  0.0186 -1.7623 -0.7704
 1563TIP3   OH2 4631   2.775   4.265   2.106  0.6199  1.0768  0.0783
 1563TIP3    H1 4632   2.723   4.267   2.186  1.6646  0.9835  0.7771
 1563TIP3    H2 4633   2.716   4.230   2.039 -0.0622  0.5147  0.9654
 1564TIP3   OH2 4634   0.957   5.827   1.302  0.3950  0.0054 -0.3314
 1564TIP3    H1 4635   0.946   5.843   1.396  0.3442 -0.8013 -0.1915
 1564TIP3    H2 4636   0.999   5.741   1.298 -1.2430 -0.7950 -1.0840
 1565TIP3   OH2 4637   1.147   1.407   6.895 -0.1612  0.0774 -0.5830
 1565TIP3    H1 4638   1.176   1.430   6.806  1.0595  0.9381  0.0216
 1565TIP3    H2 4639   1.211   1.449   6.952 -1.0350 -0.3411  0.7154
 1566TIP3   OH2 4640   1.779   5.231   0.613  0.0238 -0.1675  0.5368
 1566TIP3    H1 4641   1.686   5.254   0.614  0.8052  3.3192 -0.5972
 1566TIP3    H2 4642   1.814   5.267   0.694  0.6206 -0.5091  0.4412
 1567TIP3   OH2 4643   8.019   1.387   6.723  0.2948  0.0402  0.0620
 1567TIP3    H1 4644   8.027   1.316   6.787  0.8349  0.0865  0.0446
 1567TIP3    H2 4645   8.109   1.412   6.703  0.2627 -1.9545 -2.9293
 1568TIP3   OH2 4646   3.741   1.365   6.248  0.2286 -0.3366  0.0619
 1568TIP3    H1 4647   3.647   1.355   6.232  0.2357  0.5055 -0.5925
 1568TIP3    H2 4648   3.765   1.443   6.198  1.6695 -1.6369 -1.3113
 1569TIP3   OH2 4649   0.775   5.186   6.440 -0.8100 -0.4352 -0.0780
 1569TIP3    H1 4650   0.743   5.161   6.527 -2.8215  0.3195 -0.5668
 1569TIP3    H2 4651   0.713   5.145   6.379  1.2331 -1.9145 -1.2304
 1570TIP3   OH2 4652   3.190   4.434   0.396  0.1028 -0.2261 -0.3191
 1570TIP3    H1 4653   3.150   4.519   0.410  0.3692 -0.0099 -0.8690
 1570TIP3    H2 4654   3.283   4.453   0.382  0.5227 -0.7741  1.5893
 1571TIP3   OH2 4655   7.024   1.348   6.053 -0.1595 -0.1253 -0.0431
 1571TIP3    H1 4656   7.066   1.374   5.971 -0.1106  1.1092  0.3606
 1571TIP3    H2 4657   6.933   1.330   6.029 -0.3269  0.9526 -0.2522
 1572TIP3   OH2 4658   5.384   7.147   6.889 -0.0325  0.2042  0.2413
 1572TIP3    H1 4659   5.471   7.119   6.861 -0.2466  0.5535 -0.7938
 1572TIP3    H2 4660   5.334   7.156   6.807 -0.7434  1.0052  0.7557
 1573TIP3   OH2 4661   2.660   4.998   1.101 -0.1177  0.3826  0.1945
 1573TIP3    H1 4662   2.640   5.029   1.013  2.8078 -0.9505 -1.0121
 1573TIP3    H2 4663   2.591   4.934   1.121 -0.0106 -0.3435 -1.7103
 1574TIP3   OH2 4664   8.219   1.161   6.062 -0.1417  0.0218 -0.0361
 1574TIP3    H1 4665   8.226   1.079   6.014  0.3439 -0.2573  0.4949
 1574TIP3    H2 4666   8.302   1.206   6.046  0.7597 -0.8752  1.9616
 1575TIP3   OH2 4667   2.999   7.218   0.424  0.7736 -0.2327 -0.0575
 1575TIP3    H1 4668   3.011   7.210   0.519  0.5460  0.5211  0.0428
 1575TIP3    H2 4669   3.005   7.129   0.391 -1.7367 -0.8218  0.9701
 1576TIP3   OH2 4670   4.984   7.527   6.523 -0.1614  0.2690  0.1861
 1576TIP3    H1 4671   5.004   7.538   6.616 -0.1793 -0.0213  0.2236
 1576TIP3    H2 4672   4.975   7.616   6.490  1.0448  0.4046  0.2028
 1577TIP3   OH2 4673   2.067   4.860   0.070 -0.5212  0.8455 -0.2804
 1577TIP3    H1 4674   1.992   4.835   0.123  0.4470 -2.9418 -0.5958
 1577TIP3    H2 4675   2.143   4.829   0.119  0.3700 -3.1089 -3.9201
 1578TIP3   OH2 4676   2.874   5.840   1.061  0.0413  0.0804 -0.1219
 1578TIP3    H1 4677   2.792   5.879   1.030 -0.4103 -1.6080 -1.1370
 1578TIP3    H2 4678   2.873   5.854   1.156 -1.3188  0.2967 -0.1571
 1579TIP3   OH2 4679   3.174   6.327   0.998 -0.6197 -0.2282  0.1895
 1579TIP3    H1 4680   3.142   6.319   1.088 -1.6352 -0.5063 -0.1892
 1579TIP3    H2 4681   3.258   6.281   0.998 -0.1623  0.5690  1.2167
 1580TIP3   OH2 4682   3.019   4.959   0.580 -0.0791  0.7567 -0.2500
 1580TIP3    H1 4683   3.104   5.002   0.572 -0.2096  0.9494 -0.6081
 1580TIP3    H2 4684   2.966   4.996   0.509  0.1384 -0.7949 -1.2388
 1581TIP3   OH2 4685   4.356   2.648   5.821  0.1887 -0.2941 -0.0260
 1581TIP3    H1 4686   4.340   2.595   5.743  1.5275  1.1772 -1.3255
 1581TIP3    H2 4687   4.270   2.685   5.843 -0.0112  0.0088 -1.3281
 1582TIP3   OH2 4688   1.383   1.922   4.562  0.5010 -0.1809 -0.1433
 1582TIP3    H1 4689   1.450   1.857   4.540 -1.4387 -2.0684 -0.5913
 1582TIP3    H2 4690   1.365   1.966   4.479  1.7206  0.9015  0.1346
 1583TIP3   OH2 4691   3.932   7.905   1.296  0.0549 -0.1032 -0.7398
 1583TIP3    H1 4692   4.005   7.941   1.346  1.5026  0.2377 -3.0448
 1583TIP3    H2 4693   3.945   7.937   1.207 -3.7545  1.2587 -0.9308
 1584TIP3   OH2 4694   3.300   4.679   0.630 -0.1663  0.1188 -0.2505
 1584TIP3    H1 4695   3.386   4.707   0.600 -0.2204  0.5455 -0.0095
 1584TIP3    H2 4696   3.309   4.584   0.641  0.0218  0.0428 -1.0332
 1585TIP3   OH2 4697   6.434   2.094   3.551  0.3345  0.7678 -0.3633
 1585TIP3    H1 4698   6.363   2.116   3.611  0.3452  0.6397 -0.3044
 1585TIP3    H2 4699   6.507   2.151   3.578  1.3509 -1.4327  1.7125
 1586TIP3   OH2 4700   5.013   7.339   6.786 -0.7100 -0.5635 -0.2451
 1586TIP3    H1 4701   5.058   7.423   6.786 -0.4979 -0.6762  0.6131
 1586TIP3    H2 4702   5.073   7.278   6.743 -0.2864 -0.5886  0.3902
 1587TIP3   OH2 4703   1.778   6.090   1.345  0.3027  0.0562 -0.1527
 1587TIP3    H1 4704   1.746   6.099   1.434  0.1924 -0.5530 -0.1289
 1587TIP3    H2 4705   1.718   6.143   1.292  0.4077  0.4686  0.1352
 1588TIP3   OH2 4706   6.634   1.046   5.659  0.2977  0.5775 -0.0021
 1588TIP3    H1 4707   6.542   1.023   5.659  0.3772  0.2765 -0.5964
 1588TIP3    H2 4708   6.636   1.139   5.634  0.2245  0.3303 -0.9391
 1589TIP3   OH2 4709   4.481   6.371   1.397  0.7434 -0.0652 -0.6612
 1589TIP3    H1 4710   4.492   6.277   1.410 -0.4503 -0.5144 -2.6568
 1589TIP3    H2 4711   4.425   6.400   1.469  1.4699 -0.7761  0.2031
 1590TIP3   OH2 4712   4.126   5.701   1.500  0.3227 -0.0434 -0.5884
 1590TIP3    H1 4713   4.220   5.684   1.494  0.7405  1.8126  0.2598
 1590TIP3    H2 4714   4.113   5.731   1.590 -0.9678  0.3840 -0.9076
 1591TIP3   OH2 4715   7.770   1.009   3.983  0.3336 -0.2193  0.7434
 1591TIP3    H1 4716   7.693   1.052   3.946 -0.2393 -0.4024  1.7209
 1591TIP3    H2 4717   7.821   1.081   4.021 -0.0583 -0.2619  1.3569
 1592TIP3   OH2 4718   1.723   4.496   3.309 -0.2187  0.2320 -0.1738
 1592TIP3    H1 4719   1.733   4.407   3.343  2.3387  0.3433 -0.5421
 1592TIP3    H2 4720   1.697   4.548   3.385 -1.1128 -0.7035  0.1711
 1593TIP3   OH2 4721   2.781   1.001   6.682  0.7861 -0.2558  0.1487
 1593TIP3    H1 4722   2.761   1.088   6.648  2.6511 -0.4430 -1.5181
 1593TIP3    H2 4723   2.743   1.000   6.770  0.9230  2.2958  0.2669
 1594TIP3   OH2 4724   2.518   5.270   1.587 -0.2299 -0.2653 -0.0683
 1594TIP3    H1 4725   2.570   5.300   1.513 -2.0388 -1.4475 -1.8835
 1594TIP3    H2 4726   2.434   5.314   1.576 -0.6079 -0.6855  1.0933
 1595TIP3   OH2 4727   6.475   4.127   5.154  0.1486 -0.7271 -0.1983
 1595TIP3    H1 4728   6.449   4.035   5.163  1.6701 -1.1751 -0.1400
 1595TIP3    H2 4729   6.399   4.177   5.181 -0.4554 -1.9899  0.4466
 1596TIP3   OH2 4730   3.232   5.579   1.609  0.2802 -0.4411  0.2067
 1596TIP3    H1 4731   3.149   5.614   1.641  0.0942 -0.7388  0.0561
 1596TIP3    H2 4732   3.210   5.541   1.524  0.5795 -0.4804  0.1483
 1597TIP3   OH2 4733   3.756   4.298   0.610  0.0101  0.4470 -0.2322
 1597TIP3    H1 4734   3.801   4.248   0.677  1.3850  2.0969  0.1169
 1597TIP3    H2 4735   3.684   4.341   0.655 -0.4147 -0.2316 -0.2721
 1598TIP3   OH2 4736   1.354   4.799   1.221 -0.5207 -0.6124  0.0446
 1598TIP3    H1 4737   1.345   4.707   1.247 -0.7878  0.2722  3.2081
 1598TIP3    H2 4738   1.433   4.829   1.264  0.3985  0.2962 -2.1791
 1599TIP3   OH2 4739   2.150   6.047   0.671 -0.1141  0.2421 -0.5285
 1599TIP3    H1 4740   2.234   6.068   0.628 -0.3384  0.4133 -0.8851
 1599TIP3    H2 4741   2.087   6.043   0.599 -0.8850  2.5212 -0.0244
 1600TIP3   OH2 4742   2.907   5.327   0.708  0.4581  0.4952  0.0645
 1600TIP3    H1 4743   2.957   5.372   0.640  1.4762  0.5791  0.8625
 1600TIP3    H2 4744   2.841   5.277   0.660  0.6066  1.2525 -0.9360
 1601TIP3   OH2 4745   4.028   5.627   0.429 -0.7107 -0.2129  0.2762
 1601TIP3    H1 4746   4.083   5.552   0.454 -0.3700  0.5492  1.8519
 1601TIP3    H2 4747   3.960   5.589   0.374  1.2468 -1.2134 -1.5589
 1602TIP3   OH2 4748   3.215   2.212   0.331 -0.0385  0.0178  0.1154
 1602TIP3    H1 4749   3.229   2.187   0.422  1.7064 -1.8365 -0.6010
 1602TIP3    H2 4750   3.279   2.282   0.315  0.2929 -0.2953  0.0678
 1603TIP3   OH2 4751   5.834   7.388   5.270 -0.1934 -0.1804  0.0475
 1603TIP3    H1 4752   5.896   7.450   5.308  0.5890 -0.5375 -0.6485
 1603TIP3    H2 4753   5.806   7.429   5.188  0.6163 -0.9259 -0.6009
 1604TIP3   OH2 4754   8.362   1.158   5.474  0.1874 -0.9437 -0.1528
 1604TIP3    H1 4755   8.439   1.151   5.418  0.4577 -0.8290  0.2077
 1604TIP3    H2 4756   8.288   1.162   5.413  0.4689 -1.0060 -0.4965
 1605TIP3   OH2 4757   2.542   7.989   6.922  0.4631 -0.0664  0.6241
 1605TIP3    H1 4758   2.617   7.978   6.862 -0.4945  1.0191 -0.7975
 1605TIP3    H2 4759   2.559   8.071   6.967  0.3378 -0.0391  0.6218
 1606TIP3   OH2 4760   1.704   3.236   0.096 -0.2432  0.4112  0.1193
 1606TIP3    H1 4761   1.659   3.232   0.011  0.5533  1.1364 -0.3521
 1606TIP3    H2 4762   1.792   3.267   0.074  0.7261 -1.7239  0.9405
 1607TIP3   OH2 4763   1.373   4.345   0.776 -0.1681  0.3765 -0.1009
 1607TIP3    H1 4764   1.311   4.305   0.837  0.8354 -0.0293  0.6625
 1607TIP3    H2 4765   1.379   4.436   0.805 -1.9874  0.9644 -1.4658
 1608TIP3   OH2 4766   5.024   5.139   0.498  0.4339  0.2228 -0.7415
 1608TIP3    H1 4767   5.095   5.130   0.435  0.7954  1.2786 -0.4908
 1608TIP3    H2 4768   4.987   5.226   0.481  1.4384  1.1107  1.4353
 1609TIP3   OH2 4769   4.269   7.808   4.874  0.5054  0.4764 -0.1286
 1609TIP3    H1 4770   4.327   7.801   4.799 -0.7441 -0.8159 -1.0019
 1609TIP3    H2 4771   4.190   7.850   4.840 -0.4507 -0.9912  0.2209
 1610TIP3   OH2 4772   2.383   4.171   2.571 -0.2801 -0.0210 -0.0044
 1610TIP3    H1 4773   2.399   4.083   2.536 -2.0142  0.1801 -1.4287
 1610TIP3    H2 4774   2.378   4.227   2.493 -1.3920  0.9531  0.7399
 1611TIP3   OH2 4775   0.086   0.349   4.998 -0.4421  0.1866  0.1890
 1611TIP3    H1 4776   0.129   0.432   5.017 -0.7373 -0.0445  1.9475
 1611TIP3    H2 4777   0.016   0.343   5.063 -0.8359 -1.1239 -0.3437
 1612TIP3   OH2 4778   4.320   5.444   0.446 -0.2169  0.0902 -0.1751
 1612TIP3    H1 4779   4.293   5.355   0.423  1.6997 -0.2323 -1.2787
 1612TIP3    H2 4780   4.360   5.478   0.366  1.0908  1.1358  0.9039
 1613TIP3   OH2 4781   3.651   4.749   1.122 -0.1953  0.2243  0.0368
 1613TIP3    H1 4782   3.631   4.791   1.205 -1.8118 -0.2251 -0.1121
 1613TIP3    H2 4783   3.700   4.815   1.073 -0.8660  1.1655  0.6186
 1614TIP3   OH2 4784   0.254   2.612   6.257 -0.0617  0.0749  0.1099
 1614TIP3    H1 4785   0.185   2.676   6.274  0.8895  1.3662 -0.8250
 1614TIP3    H2 4786   0.266   2.567   6.341 -1.5212  0.3476  0.4711
 1615TIP3   OH2 4787   0.394   2.187   5.967  0.2459  0.0266  0.0437
 1615TIP3    H1 4788   0.398   2.215   5.876  0.0960  1.7777  0.5698
 1615TIP3    H2 4789   0.312   2.138   5.974  0.0386  0.2829 -0.6436
 1616TIP3   OH2 4790   0.054   1.172   5.262 -0.2808 -0.0327  0.6066
 1616TIP3    H1 4791   0.111   1.096   5.258 -1.9733 -1.2915  0.1558
 1616TIP3    H2 4792   0.070   1.219   5.180  1.3112  0.5125  1.2183
 1617TIP3   OH2 4793   3.254   4.190   0.530  0.0704 -0.0097  0.4644
 1617TIP3    H1 4794   3.324   4.124   0.525  0.0570 -0.0440  0.7200
 1617TIP3    H2 4795   3.236   4.212   0.439 -1.3845 -1.9080  0.2635
 1618TIP3   OH2 4796   4.154   5.562   0.107  0.7236 -0.0316 -0.1481
 1618TIP3    H1 4797   4.247   5.561   0.130  0.5358 -0.3239  0.6119
 1618TIP3    H2 4798   4.124   5.649   0.134  0.1896 -0.8536  2.0294
 1619TIP3   OH2 4799   4.830   3.886   1.343  0.4400 -0.3585  0.4936
 1619TIP3    H1 4800   4.752   3.878   1.287  1.0154 -2.1004 -0.0914
 1619TIP3    H2 4801   4.864   3.973   1.324  0.6490 -0.9240 -1.9525
 1620TIP3   OH2 4802   2.823   2.292   5.324  0.5384 -0.0385 -0.2352
 1620TIP3    H1 4803   2.859   2.359   5.266 -0.6832  1.1989  0.3957
 1620TIP3    H2 4804   2.761   2.339   5.379  0.3795 -1.5228  0.8917
 1621TIP3   OH2 4805   1.881   2.756   6.337 -0.5320 -0.3124 -0.5084
 1621TIP3    H1 4806   1.901   2.747   6.430 -2.3936 -0.8724 -0.1317
 1621TIP3    H2 4807   1.810   2.821   6.334 -1.6861 -1.5814 -1.3586
 1622TIP3   OH2 4808   7.197   0.355   0.034  0.1084 -0.1574  0.3729
 1622TIP3    H1 4809   7.281   0.364   0.079 -0.2660 -0.3309  1.1109
 1622TIP3    H2 4810   7.220   0.321  -0.053  0.9733  1.6238 -0.1361
 1623TIP3   OH2 4811   2.878   3.751   6.068 -0.7250  0.6653  0.5694
 1623TIP3    H1 4812   2.883   3.658   6.090  0.1707  0.7999  0.9706
 1623TIP3    H2 4813   2.851   3.753   5.976 -0.2388 -0.0038  0.4094
 1624TIP3   OH2 4814   5.860   6.788   0.230  0.2530  0.4270 -0.3302
 1624TIP3    H1 4815   5.952   6.808   0.215  0.3291  2.1296  2.1883
 1624TIP3    H2 4816   5.844   6.810   0.322 -2.0772 -2.1414 -0.0294
 1625TIP3   OH2 4817   4.072   2.875   5.501 -0.7513  0.0666 -0.1109
 1625TIP3    H1 4818   4.067   2.970   5.502 -0.0150  0.1049  0.4239
 1625TIP3    H2 4819   4.160   2.856   5.469 -1.2711 -0.4503 -1.2573
 1626TIP3   OH2 4820   0.085   1.887   6.678 -0.0737  0.4002 -0.1294
 1626TIP3    H1 4821  -0.004   1.900   6.710 -0.0927  0.7419 -0.3128
 1626TIP3    H2 4822   0.092   1.793   6.663 -0.7413  0.4931 -1.0768
 1627TIP3   OH2 4823   6.352   5.335   0.501  0.2876 -0.1518  0.2327
 1627TIP3    H1 4824   6.292   5.299   0.435  0.9260  1.1180 -1.0850
 1627TIP3    H2 4825   6.360   5.267   0.567 -1.5026 -0.8921 -0.2899
 1628TIP3   OH2 4826   6.755   4.775  -0.015 -0.0715  0.6496  0.1990
 1628TIP3    H1 4827   6.674   4.730  -0.040  0.4461 -1.4470  2.1893
 1628TIP3    H2 4828   6.771   4.748   0.075  3.1465  0.5866 -0.3477
 1629TIP3   OH2 4829   4.538   2.395   5.564 -0.0460 -0.3540 -0.3675
 1629TIP3    H1 4830   4.586   2.464   5.609  0.1596  0.1425 -1.3303
 1629TIP3    H2 4831   4.453   2.434   5.543  0.8915  0.3949 -2.9313
 1630TIP3   OH2 4832   5.776   4.883   0.372 -0.6131  0.0398 -0.4056
 1630TIP3    H1 4833   5.797   4.868   0.280 -0.9146 -1.1003 -0.2930
 1630TIP3    H2 4834   5.682   4.899   0.373 -0.5915  0.1587 -0.3146
 1631TIP3   OH2 4835   3.168   5.053   0.271  0.0117  0.6012 -0.2361
 1631TIP3    H1 4836   3.159   5.083   0.361 -0.6536  0.7224 -0.3398
 1631TIP3    H2 4837   3.165   5.133   0.219 -1.7281  0.3691 -0.5118
 1632TIP3   OH2 4838   2.943   6.850   1.472  0.3081 -0.0147  0.3568
 1632TIP3    H1 4839   2.992   6.933   1.473 -0.4273  0.4341 -0.0714
 1632TIP3    H2 4840   2.944   6.823   1.381  0.2466 -0.2929  0.4404
 1633TIP3   OH2 4841   2.719   1.717   5.727  0.5900 -0.2369 -0.3415
 1633TIP3    H1 4842   2.663   1.645   5.756 -0.1664  0.6275  0.3715
 1633TIP3    H2 4843   2.808   1.688   5.747  0.1949 -0.3769  1.2739
 1634TIP3   OH2 4844   5.819   5.845   1.723 -0.8798  0.5123  0.5467
 1634TIP3    H1 4845   5.772   5.786   1.782 -1.3218  0.5425  0.2295
 1634TIP3    H2 4846   5.807   5.807   1.636  1.5714 -0.7284  0.6995
 1635TIP3   OH2 4847   5.538   6.030   3.350 -0.0562  0.3158 -0.0416
 1635TIP3    H1 4848   5.537   6.086   3.428  0.1022 -0.1551  0.3019
 1635TIP3    H2 4849   5.538   6.091   3.277 -1.4179  0.7505  0.3178
 1636TIP3   OH2 4850   4.356   5.702   2.018 -0.2090 -0.1040 -0.4264
 1636TIP3    H1 4851   4.341   5.789   1.981 -0.5319 -0.9077 -2.2069
 1636TIP3    H2 4852   4.389   5.650   1.945 -1.3282 -1.8450  0.2861
 1637TIP3   OH2 4853   8.496   2.621   5.812  0.1871 -0.1492 -0.1872
 1637TIP3    H1 4854   8.400   2.621   5.808  0.2172  0.5285 -0.9515
 1637TIP3    H2 4855   8.516   2.575   5.894 -0.8501  1.8487  1.2597
 1638TIP3   OH2 4856   5.620   6.683   5.679  0.3598 -1.1152 -0.2425
 1638TIP3    H1 4857   5.531   6.663   5.649  0.4299  0.3431 -1.4927
 1638TIP3    H2 4858   5.676   6.667   5.603  0.9297 -0.2527 -0.0165
 1639TIP3   OH2 4859   1.939   3.266   6.794  0.1652  0.4013  0.3963
 1639TIP3    H1 4860   1.904   3.178   6.782  1.2812  0.0965 -0.7196
 1639TIP3    H2 4861   1.865   3.318   6.823 -0.9819 -0.4630 -0.9406
 1640TIP3   OH2 4862   5.609   7.415   1.738  0.5241  0.4406  0.0994
 1640TIP3    H1 4863   5.606   7.373   1.652  1.3636  0.9735 -0.1951
 1640TIP3    H2 4864   5.545   7.486   1.733  0.6567  0.5430 -0.1207
 1641TIP3   OH2 4865   4.780   4.944   0.593  0.0546 -0.2778 -0.8028
 1641TIP3    H1 4866   4.807   4.989   0.512 -3.0707  1.6527 -0.8400
 1641TIP3    H2 4867   4.808   5.003   0.663  0.0023 -0.4701 -0.6217
 1642TIP3   OH2 4868   3.457   6.202   0.581  0.8090  0.3125 -0.2803
 1642TIP3    H1 4869   3.486   6.147   0.654 -0.5905 -0.4325 -0.2698
 1642TIP3    H2 4870   3.404   6.144   0.527  0.0299  1.4285 -0.7302
 1643TIP3   OH2 4871   2.470   5.559   1.366 -0.0445  0.0432  0.2179
 1643TIP3    H1 4872   2.429   5.521   1.444 -0.6269  1.7893  0.8010
 1643TIP3    H2 4873   2.548   5.507   1.351 -0.4788 -0.9558  1.3603
 1644TIP3   OH2 4874   2.051   5.812   0.279  0.2734 -0.4871  0.1584
 1644TIP3    H1 4875   2.125   5.788   0.224  2.6320  0.7675  2.6566
 1644TIP3    H2 4876   2.086   5.812   0.368 -2.7599  0.0753  1.4341
 1645TIP3   OH2 4877   4.380   4.879   2.992 -0.8333 -0.1509 -0.0835
 1645TIP3    H1 4878   4.358   4.877   2.899 -1.6083 -2.3499  0.0954
 1645TIP3    H2 4879   4.316   4.820   3.032  0.2409 -0.1592  1.6709
 1646TIP3   OH2 4880   5.686   7.744   0.187  0.3690  0.0254  0.4338
 1646TIP3    H1 4881   5.667   7.708   0.274  0.7032 -0.7867  0.1784
 1646TIP3    H2 4882   5.780   7.763   0.189  0.8892 -2.2033 -0.5126
 1647TIP3   OH2 4883   5.499   4.929   0.408 -0.3767  0.1394 -0.6120
 1647TIP3    H1 4884   5.487   4.998   0.342  1.4963  0.2962 -0.8145
 1647TIP3    H2 4885   5.453   4.853   0.371 -1.1250  0.8294 -1.1200
 1648TIP3   OH2 4886   4.328   6.758   0.869 -0.5963  0.3761  0.3002
 1648TIP3    H1 4887   4.240   6.790   0.890 -1.7346 -3.1934  1.1901
 1648TIP3    H2 4888   4.379   6.776   0.949 -1.4020 -0.6635  1.0552
 1649TIP3   OH2 4889   3.004   1.813   6.353  0.3657  0.1560 -0.4106
 1649TIP3    H1 4890   3.000   1.823   6.448 -0.9509 -0.8638 -0.3383
 1649TIP3    H2 4891   2.932   1.867   6.320  1.0176  0.7593 -0.8530
 1650TIP3   OH2 4892   1.847   5.634   1.652 -0.3577 -0.0070 -0.4296
 1650TIP3    H1 4893   1.863   5.704   1.715  1.1256  0.7593 -1.6294
 1650TIP3    H2 4894   1.775   5.666   1.598 -2.8390 -1.4014  1.9093
 1651TIP3   OH2 4895   3.942   1.988   5.937  0.4074 -0.4507  0.2733
 1651TIP3    H1 4896   3.888   1.946   5.870 -0.1768  0.9326 -0.1297
 1651TIP3    H2 4897   3.906   1.957   6.020 -0.4656 -0.2052 -0.0108
 1652TIP3   OH2 4898   2.583   3.953   5.935  0.4455  0.2288  0.1050
 1652TIP3    H1 4899   2.628   3.998   6.006 -1.0083  0.2146  1.0494
 1652TIP3    H2 4900   2.497   3.933   5.970  0.8864 -2.8629 -0.4703
 1653TIP3   OH2 4901   6.728   6.414   2.433 -0.2128 -0.0388  0.2462
 1653TIP3    H1 4902   6.786   6.449   2.365 -0.0218 -0.5399  0.1512
 1653TIP3    H2 4903   6.676   6.348   2.388 -1.6236  1.1589  0.0668
 1654TIP3   OH2 4904   8.215   1.266   0.405  0.1088 -0.3013 -0.2529
 1654TIP3    H1 4905   8.166   1.345   0.382  1.1425  0.0581 -1.2714
 1654TIP3    H2 4906   8.157   1.218   0.464 -0.8925  0.7863 -0.3373
 1655TIP3   OH2 4907   3.879   5.910   1.765  0.3398 -0.0127 -0.0792
 1655TIP3    H1 4908   3.822   5.987   1.770 -0.2174 -0.3955 -0.5089
 1655TIP3    H2 4909   3.869   5.877   1.676  2.9041  1.1699 -0.8492
 1656TIP3   OH2 4910   4.356   4.863   2.713 -0.3277  0.0660 -0.1192
 1656TIP3    H1 4911   4.419   4.819   2.654 -0.1797  1.2035 -0.8257
 1656TIP3    H2 4912   4.301   4.914   2.654 -0.5900  0.7102  0.6826
 1657TIP3   OH2 4913   7.674   0.232   2.609 -0.0013 -0.3211 -0.1151
 1657TIP3    H1 4914   7.680   0.137   2.598 -1.4395 -0.2042 -2.1476
 1657TIP3    H2 4915   7.724   0.268   2.536 -2.0318  0.4708 -1.1496
 1658TIP3   OH2 4916   6.975   5.510   0.460  0.0421 -0.6068 -0.1003
 1658TIP3    H1 4917   7.058   5.464   0.452 -0.1270 -0.5126 -3.1001
 1658TIP3    H2 4918   6.980   5.556   0.544  2.5587 -1.4436  0.2391
 1659TIP3   OH2 4919   3.097   4.976   1.256 -0.4442 -0.0337 -0.4808
 1659TIP3    H1 4920   3.090   5.071   1.243 -1.3348 -0.0479 -0.1555
 1659TIP3    H2 4921   3.044   4.959   1.333  0.4168 -0.6892 -0.0327
 1660TIP3   OH2 4922   5.104   5.134   0.767  0.3238  0.1226 -0.4140
 1660TIP3    H1 4923   5.062   5.101   0.687  0.0468 -1.8718  0.5225
 1660TIP3    H2 4924   5.032   5.168   0.820  0.1817 -0.9139  0.0735
 1661TIP3   OH2 4925   3.219   5.276   1.703 -0.7291 -0.0495  0.0062
 1661TIP3    H1 4926   3.243   5.359   1.663 -0.7289  0.1261  0.3718
 1661TIP3    H2 4927   3.276   5.268   1.778 -0.9189 -0.2490  0.1292
 1662TIP3   OH2 4928   1.295   1.923   5.246  0.3990  0.1207  0.0425
 1662TIP3    H1 4929   1.318   1.850   5.304  2.5634  0.5880 -0.2039
 1662TIP3    H2 4930   1.229   1.972   5.295  0.2961 -0.9529  1.0052
 1663TIP3   OH2 4931   4.374   5.454   1.906 -0.3220 -0.2304 -0.2716
 1663TIP3    H1 4932   4.419   5.417   1.982  0.3457  1.6790  0.3125
 1663TIP3    H2 4933   4.444   5.489   1.851 -0.6993 -2.7390 -2.4569
 1664TIP3   OH2 4934   3.010   1.383   6.594 -0.0405  0.0477  0.0691
 1664TIP3    H1 4935   3.010   1.380   6.499  0.3919  0.8411  0.0325
 1664TIP3    H2 4936   3.055   1.303   6.621  2.6651  1.3149 -0.4863
 1665TIP3   OH2 4937   4.895   6.907   1.789  0.3401 -0.4257 -0.1414
 1665TIP3    H1 4938   4.871   6.888   1.879  0.3550  0.7245  0.1096
 1665TIP3    H2 4939   4.874   6.827   1.741  0.1312 -0.9632  0.8390
 1666TIP3   OH2 4940   4.958   1.084   6.066  0.2791  0.0889 -0.4180
 1666TIP3    H1 4941   4.987   1.153   6.006  0.1132 -0.9682 -1.7381
 1666TIP3    H2 4942   5.034   1.027   6.076 -0.8841 -2.0065 -2.9064
 1667TIP3   OH2 4943   6.803   5.585   1.795 -0.3324 -0.8753  0.6381
 1667TIP3    H1 4944   6.810   5.650   1.725 -0.1014 -0.2859  1.2070
 1667TIP3    H2 4945   6.737   5.523   1.763 -0.0704 -0.7386 -0.1986
 1668TIP3   OH2 4946   3.255   5.104   0.578 -0.1297  0.1688  0.2035
 1668TIP3    H1 4947   3.296   5.191   0.578 -2.1676  1.1590  0.4488
 1668TIP3    H2 4948   3.297   5.058   0.650 -0.2162  1.5296  1.1339
 1669TIP3   OH2 4949   4.674   5.351   0.570 -0.3325 -0.0711 -0.0338
 1669TIP3    H1 4950   4.721   5.368   0.488 -1.5169  0.4659 -0.6055
 1669TIP3    H2 4951   4.642   5.262   0.560 -0.3461 -0.0604 -0.0949
 1670TIP3   OH2 4952   5.718   5.309   0.348 -0.4183 -0.3864 -0.1784
 1670TIP3    H1 4953   5.649   5.244   0.352 -0.7804  0.0420  0.7455
 1670TIP3    H2 4954   5.697   5.371   0.419 -1.1795  1.7982 -2.2375
 1671TIP3   OH2 4955   1.635   1.873   5.956 -0.1942 -0.2371  0.6498
 1671TIP3    H1 4956   1.583   1.814   6.010 -0.3766 -0.8312 -0.1592
 1671TIP3    H2 4957   1.725   1.840   5.964 -0.4171 -1.1880 -0.4920
 1672TIP3   OH2 4958   4.976   5.797   1.653  0.5705 -0.5631  0.0209
 1672TIP3    H1 4959   5.034   5.873   1.656  0.8847 -0.7903 -0.3541
 1672TIP3    H2 4960   4.987   5.762   1.565 -0.2860 -0.4913 -0.1171
 1673TIP3   OH2 4961   3.203   1.609   6.616 -0.4002 -0.0975  0.0134
 1673TIP3    H1 4962   3.161   1.524   6.598 -2.5493  1.0233 -0.4001
 1673TIP3    H2 4963   3.210   1.612   6.711  0.7335 -1.2281 -0.0248
 1674TIP3   OH2 4964   4.440   4.660   2.249  0.0782  0.0154 -0.4188
 1674TIP3    H1 4965   4.480   4.625   2.169 -0.1192  0.0716 -0.5415
 1674TIP3    H2 4966   4.462   4.753   2.248  1.0455 -0.2054  0.1699
 1675TIP3   OH2 4967   6.733   5.280   1.485 -0.2352 -0.0897 -0.0891
 1675TIP3    H1 4968   6.822   5.289   1.451  0.1282 -0.0398  0.8822
 1675TIP3    H2 4969   6.724   5.186   1.503  0.3016  0.1751  1.6540
 1676TIP3   OH2 4970   1.613   2.357   1.500  0.1271  0.4770  0.0198
 1676TIP3    H1 4971   1.604   2.442   1.457 -0.9795  1.5111  2.2472
 1676TIP3    H2 4972   1.696   2.362   1.547  0.3459  0.1110 -0.3284
 1677TIP3   OH2 4973   1.777   6.173   1.617 -0.0792 -0.0323 -0.4456
 1677TIP3    H1 4974   1.858   6.126   1.636  1.0107  1.2849 -1.6787
 1677TIP3    H2 4975   1.796   6.264   1.640 -2.2576 -0.1871  2.2050
 1678TIP3   OH2 4976   1.005   7.534   0.485 -0.0065 -0.3222  0.1695
 1678TIP3    H1 4977   1.028   7.621   0.453 -0.7933 -0.5220 -0.9559
 1678TIP3    H2 4978   1.063   7.520   0.560 -0.6328  1.6291  1.0554
 1679TIP3   OH2 4979   7.474   1.754   6.323 -0.0567  0.1063 -0.0982
 1679TIP3    H1 4980   7.517   1.674   6.291  2.4580  1.8586 -1.3296
 1679TIP3    H2 4981   7.448   1.799   6.243  0.4570  1.4926  0.5083
 1680TIP3   OH2 4982   7.380   3.978   2.348  0.0490  0.0896  0.6658
 1680TIP3    H1 4983   7.374   3.894   2.303 -0.2842  0.4865 -0.0302
 1680TIP3    H2 4984   7.406   4.040   2.281 -2.7708  1.1237  0.4590
 1681TIP3   OH2 4985   0.615   5.909   0.104  0.3157  0.1306  0.1632
 1681TIP3    H1 4986   0.605   5.997   0.140 -0.6407  0.5885 -1.2228
 1681TIP3    H2 4987   0.600   5.851   0.179 -0.6774  1.1012  0.7274
 1682TIP3   OH2 4988   3.017   5.657   0.462  0.7697  0.4524 -0.0325
 1682TIP3    H1 4989   2.949   5.633   0.524  1.3797 -0.1505  0.4012
 1682TIP3    H2 4990   3.027   5.752   0.473 -2.3691  1.1620 -2.4831
 1683TIP3   OH2 4991   8.370   3.974   2.182  0.1578 -0.1048  0.4174
 1683TIP3    H1 4992   8.317   3.904   2.220  2.5598 -0.5176  3.2332
 1683TIP3    H2 4993   8.405   3.936   2.101 -0.3352 -1.3778  0.7882
 1684TIP3   OH2 4994   1.263   8.005   3.257 -0.0903  0.3072  0.1705
 1684TIP3    H1 4995   1.306   7.920   3.265  1.0756  0.8518 -0.2290
 1684TIP3    H2 4996   1.289   8.053   3.335 -0.1538  0.5598  0.0366
 1685TIP3   OH2 4997   8.437   6.262   2.292 -0.3736 -0.0388  0.7173
 1685TIP3    H1 4998   8.471   6.193   2.235 -1.1559  0.2341 -0.0791
 1685TIP3    H2 4999   8.496   6.336   2.279 -1.4235  0.5301 -0.8774
 1686TIP3   OH2 5000   2.828   0.459   0.906  0.4682  0.0029  0.5475
 1686TIP3    H1 5001   2.868   0.381   0.944 -0.2476 -0.8864 -0.5089
 1686TIP3    H2 5002   2.819   0.520   0.980  1.9693 -0.5162  1.1695
 1687TIP3   OH2 5003   1.525   6.329   1.671 -0.0784  0.1185 -0.0986
 1687TIP3    H1 5004   1.569   6.413   1.652  0.2900 -0.3009 -1.1710
 1687TIP3    H2 5005   1.530   6.281   1.588 -1.3860 -0.4726  0.1584
 1688TIP3   OH2 5006   8.386   5.924   0.154 -0.7821  0.2176  0.3624
 1688TIP3    H1 5007   8.456   5.934   0.090  0.0831 -2.2184  0.8798
 1688TIP3    H2 5008   8.311   5.969   0.115 -0.0868 -0.6317 -2.0357
 1689TIP3   OH2 5009   0.069   3.586   0.567 -0.1435  0.1274 -0.8254
 1689TIP3    H1 5010   0.003   3.654   0.573 -0.8166 -0.6132  0.3084
 1689TIP3    H2 5011   0.094   3.585   0.475 -0.8848  1.1792 -1.0464
 1690TIP3   OH2 5012   0.991   6.256   2.500  0.4368 -0.7140 -0.2990
 1690TIP3    H1 5013   1.041   6.337   2.503 -0.6818  0.0598 -1.8272
 1690TIP3    H2 5014   1.029   6.207   2.427  0.9672 -1.4955  0.4817
 1691TIP3   OH2 5015   2.847   5.930   2.865  0.0531  0.2904  0.1983
 1691TIP3    H1 5016   2.895   5.975   2.796  0.5104  0.2852  0.5161
 1691TIP3    H2 5017   2.814   5.851   2.823  1.4074 -0.3474  0.3275
 1692TIP3   OH2 5018   0.505   6.106   0.270  0.1715  0.0135 -0.0387
 1692TIP3    H1 5019   0.449   6.154   0.331 -0.2487  0.4664 -0.7594
 1692TIP3    H2 5020   0.461   6.117   0.185  1.6024  0.7953 -0.7033
 1693TIP3   OH2 5021   8.301   5.908   1.477 -0.0134 -0.0697  0.0592
 1693TIP3    H1 5022   8.358   5.985   1.468  0.2659 -0.1210  1.2793
 1693TIP3    H2 5023   8.285   5.901   1.571 -0.6503 -1.0691 -0.1164
 1694TIP3   OH2 5024   7.847   4.844   0.057 -0.3106 -0.0521 -0.3293
 1694TIP3    H1 5025   7.927   4.848   0.109  0.2690  1.7625 -1.3278
 1694TIP3    H2 5026   7.817   4.754   0.068  2.5509 -1.1543 -0.9531
 1695TIP3   OH2 5027   2.770   7.249   3.985  0.0999  0.1884  0.1180
 1695TIP3    H1 5028   2.750   7.189   3.913 -2.0900  0.6510  0.3228
 1695TIP3    H2 5029   2.704   7.230   4.051  0.9371  1.0936  1.2249
 1696TIP3   OH2 5030   7.341   0.709   0.064  0.4459  0.0468  0.0209
 1696TIP3    H1 5031   7.291   0.761   0.001 -0.7796  1.1428  1.8737
 1696TIP3    H2 5032   7.375   0.636   0.012 -4.1126 -1.4431 -1.0685
 1697TIP3   OH2 5033   4.114   6.231   1.024  0.1056 -0.2428  0.0057
 1697TIP3    H1 5034   4.123   6.251   1.118  1.0889 -0.0526 -0.1224
 1697TIP3    H2 5035   4.133   6.313   0.980 -0.8855 -0.1996 -0.3497
 1698TIP3   OH2 5036   2.453   7.063   0.954  0.3495  0.0608 -0.5031
 1698TIP3    H1 5037   2.498   6.987   0.917  2.1350  0.8198  0.0233
 1698TIP3    H2 5038   2.373   7.027   0.993  1.1726 -1.5608 -0.2562
 1699TIP3   OH2 5039   1.655   4.535   2.871 -0.0910 -0.0226 -0.0345
 1699TIP3    H1 5040   1.649   4.575   2.958 -1.2420  1.3037 -0.7054
 1699TIP3    H2 5041   1.603   4.454   2.879 -1.2080  0.6971  0.1943
 1700TIP3   OH2 5042   2.808   6.285   0.480  0.1620 -0.5550 -0.3865
 1700TIP3    H1 5043   2.885   6.288   0.535 -0.4412  0.5340  0.4124
 1700TIP3    H2 5044   2.841   6.299   0.391  0.8969 -0.3177 -0.0749
 1701TIP3   OH2 5045   4.611   6.795   6.381 -0.5933 -0.5735 -0.3042
 1701TIP3    H1 5046   4.568   6.881   6.376  1.6030  0.5827  0.0176
 1701TIP3    H2 5047   4.612   6.774   6.474  0.9474  0.1833 -0.1241
 1702TIP3   OH2 5048   3.511   7.147   2.910 -0.9531 -0.7716 -0.2715
 1702TIP3    H1 5049   3.516   7.054   2.929 -0.5798 -1.1204 -1.9472
 1702TIP3    H2 5050   3.418   7.166   2.906 -1.0281 -0.9240  0.7469
 1703TIP3   OH2 5051   1.353   6.023   1.847  0.4331 -0.3023 -0.6061
 1703TIP3    H1 5052   1.264   6.048   1.868  0.5600 -0.4476  0.1099
 1703TIP3    H2 5053   1.405   6.051   1.923  0.6157 -2.4974  0.1230
 1704TIP3   OH2 5054   0.770   5.843   1.918  0.1712 -0.3855 -0.2986
 1704TIP3    H1 5055   0.678   5.854   1.942  0.3527  0.7648 -0.0867
 1704TIP3    H2 5056   0.781   5.896   1.839  0.7859 -0.0493  0.0066
 1705TIP3   OH2 5057   1.541   5.286   2.684 -0.3673 -0.0300  0.1524
 1705TIP3    H1 5058   1.549   5.355   2.618  2.4333 -0.1187  0.3333
 1705TIP3    H2 5059   1.566   5.328   2.766  1.1028 -1.1525  0.3090
 1706TIP3   OH2 5060   7.924   1.815   6.319  0.1511 -0.2662  0.6049
 1706TIP3    H1 5061   7.926   1.859   6.404  0.7699  0.4817  0.2128
 1706TIP3    H2 5062   7.850   1.854   6.273  1.2785  1.0822 -0.1068
 1707TIP3   OH2 5063   7.747   2.052   6.054 -0.3797  0.4009  0.4925
 1707TIP3    H1 5064   7.798   2.133   6.066  2.2752 -0.8308 -1.7688
 1707TIP3    H2 5065   7.737   2.016   6.142  0.3377  2.0397  1.2725
 1708TIP3   OH2 5066   1.875   5.641   0.693  0.3832  0.2569  0.4156
 1708TIP3    H1 5067   1.931   5.718   0.703 -0.8129  0.9559  1.9532
 1708TIP3    H2 5068   1.920   5.572   0.742  1.5220 -0.0649 -1.0742
 1709TIP3   OH2 5069   6.901   3.252   6.768 -0.0837 -0.6266  0.1347
 1709TIP3    H1 5070   6.981   3.238   6.717 -0.5097 -1.2514 -0.3722
 1709TIP3    H2 5071   6.857   3.325   6.723  0.4245  0.0338  0.6956
 1710TIP3   OH2 5072   0.109   1.632   6.583 -0.0443  0.1061  0.1750
 1710TIP3    H1 5073   0.089   1.625   6.490 -1.8419  0.7763  0.4949
 1710TIP3    H2 5074   0.201   1.607   6.590  0.5137  1.4705 -1.9839
 1711TIP3   OH2 5075   3.928   5.760   0.834 -0.3338  0.3887  0.4131
 1711TIP3    H1 5076   3.942   5.800   0.920 -0.9031  2.9822 -0.6417
 1711TIP3    H2 5077   4.013   5.723   0.811 -0.3511 -0.9579  2.3704
 1712TIP3   OH2 5078   8.091   0.847   4.478 -0.3278 -0.0249 -0.1376
 1712TIP3    H1 5079   8.010   0.847   4.426 -1.4567 -0.8593  1.6037
 1712TIP3    H2 5080   8.149   0.786   4.432 -1.0384 -0.1793 -0.8358
 1713TIP3   OH2 5081   2.477   6.240   0.754  0.2798  0.0137  0.2941
 1713TIP3    H1 5082   2.502   6.226   0.845  1.6116  0.8572  0.0665
 1713TIP3    H2 5083   2.455   6.333   0.750 -0.0446 -0.0834 -0.1940
 1714TIP3   OH2 5084   2.863   6.993   0.765 -0.0076  0.9748 -0.1897
 1714TIP3    H1 5085   2.938   6.981   0.708  0.3327 -2.2205  0.8212
 1714TIP3    H2 5086   2.900   7.002   0.853 -0.7839 -1.6020  0.4485
 1715TIP3   OH2 5087   8.066   3.307   6.903 -0.1256 -1.1317  0.1505
 1715TIP3    H1 5088   7.984   3.326   6.857  0.6338 -1.7601 -1.5106
 1715TIP3    H2 5089   8.039   3.260   6.982 -1.6043  1.8687  1.5155
 1716TIP3   OH2 5090   2.428   7.365   2.229  0.2329  0.2488 -0.4444
 1716TIP3    H1 5091   2.489   7.397   2.162  1.4837  1.0338  1.0330
 1716TIP3    H2 5092   2.405   7.443   2.279  2.8408 -0.9516  2.8271
 1717TIP3   OH2 5093   0.186   1.655   6.070  0.2832  0.5217  0.0369
 1717TIP3    H1 5094   0.279   1.675   6.065 -0.0426  2.0973  0.0207
 1717TIP3    H2 5095   0.168   1.603   5.991  1.4202 -1.0249  0.7721
 1718TIP3   OH2 5096   1.815   5.289   2.129  0.8319 -0.1528  0.2506
 1718TIP3    H1 5097   1.737   5.323   2.172  0.5798 -0.9563  0.4347
 1718TIP3    H2 5098   1.887   5.315   2.187  0.7549  0.9131 -0.1090
 1719TIP3   OH2 5099   8.234   2.040   5.655  1.0142  0.3923 -0.2282
 1719TIP3    H1 5100   8.187   1.958   5.669  0.7130  0.6087  0.0342
 1719TIP3    H2 5101   8.246   2.045   5.560  2.6748 -0.8630 -0.1230
 1720TIP3   OH2 5102   4.047   6.803   0.920 -0.7860 -0.5998 -0.2930
 1720TIP3    H1 5103   3.979   6.747   0.956  1.9444 -2.0349  2.9621
 1720TIP3    H2 5104   4.032   6.889   0.960 -0.3001 -1.1061  1.0183
 1721TIP3   OH2 5105   2.944   1.134   5.660 -0.5640 -0.8494 -0.1811
 1721TIP3    H1 5106   2.952   1.227   5.644  0.8742 -1.1829 -1.5096
 1721TIP3    H2 5107   2.852   1.114   5.645 -0.6467  0.1534 -0.9772
 1722TIP3   OH2 5108   1.806   5.154   0.277  0.0074  0.0117 -0.2666
 1722TIP3    H1 5109   1.854   5.236   0.283  1.7114 -1.0177  0.7597
 1722TIP3    H2 5110   1.720   5.173   0.314  0.5490  1.2147  0.3843
 1723TIP3   OH2 5111   2.292   7.768   0.619  0.4851 -0.1373  0.4283
 1723TIP3    H1 5112   2.204   7.805   0.616  0.8959  0.7672 -1.6585
 1723TIP3    H2 5113   2.330   7.802   0.700 -0.6790  0.4526  0.7373
 1724TIP3   OH2 5114   2.088   5.451   0.828 -0.4187 -0.5155  0.0758
 1724TIP3    H1 5115   2.094   5.424   0.737  0.6352 -2.1921  0.6269
 1724TIP3    H2 5116   2.168   5.420   0.869  0.5646  2.8941  0.9400
 1725TIP3   OH2 5117   2.678   5.962   0.921  0.4061 -0.3142  0.6739
 1725TIP3    H1 5118   2.602   5.904   0.909  0.9757 -0.7822 -0.8544
 1725TIP3    H2 5119   2.641   6.050   0.916  0.0966 -0.5259 -1.2961
 1726TIP3   OH2 5120   8.313   2.573   5.383 -0.3415  0.4095 -0.5378
 1726TIP3    H1 5121   8.268   2.656   5.371  0.4598  0.7450 -1.2180
 1726TIP3    H2 5122   8.396   2.582   5.335 -0.7033 -1.1542 -1.4997
 1727TIP3   OH2 5123   2.628   6.091   0.573  0.1866  0.4135 -0.6248
 1727TIP3    H1 5124   2.690   6.158   0.544  0.4767  0.5909  0.3754
 1727TIP3    H2 5125   2.552   6.140   0.604  0.2507  0.2754 -0.2350
 1728TIP3   OH2 5126   3.602   7.513   0.258 -0.3259 -0.3119  0.8231
 1728TIP3    H1 5127   3.518   7.514   0.212 -0.6640  2.8387  1.4389
 1728TIP3    H2 5128   3.579   7.493   0.349 -0.5391  1.7080  1.2170
 1729TIP3   OH2 5129   3.143   5.439   0.940 -0.5614  0.2393  0.2533
 1729TIP3    H1 5130   3.124   5.367   0.879  0.3696  1.2744 -1.2779
 1729TIP3    H2 5131   3.057   5.474   0.963 -0.9775 -0.8434  0.3770
 1730TIP3   OH2 5132   0.427   5.918   0.816 -0.1740  0.0073 -0.4981
 1730TIP3    H1 5133   0.404   6.001   0.774 -1.0637 -0.5741 -1.1692
 1730TIP3    H2 5134   0.385   5.851   0.763 -0.5178 -0.8029  0.7633
 1731TIP3   OH2 5135   4.781   5.636   0.270  0.4915  0.0372 -0.4533
 1731TIP3    H1 5136   4.781   5.659   0.178 -0.6451  1.2400 -0.1563
 1731TIP3    H2 5137   4.704   5.581   0.282 -0.0115  0.8292  0.0026
 1732TIP3   OH2 5138   3.261   7.655   0.830 -0.4344 -0.4726  0.1093
 1732TIP3    H1 5139   3.236   7.737   0.788 -1.8176 -0.3297  1.1951
 1732TIP3    H2 5140   3.312   7.608   0.763 -1.4583  0.3379 -1.2487
 1733TIP3   OH2 5141   0.187   3.060   6.174  0.1009 -0.3699  0.0933
 1733TIP3    H1 5142   0.132   2.981   6.172 -0.9782  0.3857 -0.1829
 1733TIP3    H2 5143   0.185   3.088   6.265 -0.6768  0.1430 -0.0769
 1734TIP3   OH2 5144   4.196   7.824   2.139  0.3554 -0.3711  0.2622
 1734TIP3    H1 5145   4.124   7.773   2.102  1.2606 -0.7149 -1.0515
 1734TIP3    H2 5146   4.158   7.867   2.216 -0.7461 -2.0011  0.6378
 1735TIP3   OH2 5147   3.005   7.374   0.927 -0.3218  0.2165  0.4411
 1735TIP3    H1 5148   2.976   7.366   0.836  0.4321  2.4999 -0.0295
 1735TIP3    H2 5149   2.951   7.312   0.975 -2.6693  0.9907 -1.1461
 1736TIP3   OH2 5150   7.156   3.809   4.371 -0.0847  0.3540 -0.2112
 1736TIP3    H1 5151   7.091   3.739   4.381 -1.1057  1.2328 -0.6558
 1736TIP3    H2 5152   7.181   3.806   4.279  1.0612 -0.4547  0.1110
 1737TIP3   OH2 5153   2.717   5.841   0.674 -0.0411 -0.0895 -0.1823
 1737TIP3    H1 5154   2.719   5.894   0.754 -1.7689 -1.5641  0.8841
 1737TIP3    H2 5155   2.683   5.899   0.607  0.0864  0.7652  0.4846
 1738TIP3   OH2 5156   8.436   2.037   1.035 -0.2058  0.0620 -0.2986
 1738TIP3    H1 5157   8.460   1.945   1.039  1.6078  0.5032 -0.4164
 1738TIP3    H2 5158   8.520   2.084   1.035 -1.1123  1.7652  1.3246
 1739TIP3   OH2 5159   3.354   5.298   1.150 -0.3543  0.2654  0.2129
 1739TIP3    H1 5160   3.289   5.339   1.092  0.1560 -2.4040 -2.3571
 1739TIP3    H2 5161   3.435   5.345   1.131 -0.6315  0.8110  0.3518
 1740TIP3   OH2 5162   1.560   7.505   3.508 -0.2328 -0.4113  0.2105
 1740TIP3    H1 5163   1.629   7.560   3.471 -1.9514  1.6376 -0.0086
 1740TIP3    H2 5164   1.593   7.481   3.595  1.3311 -0.5768 -0.4090
 1741TIP3   OH2 5165   2.875   4.619   0.046 -0.3769  0.1700  0.2007
 1741TIP3    H1 5166   2.839   4.671  -0.026  2.8349 -0.3626 -1.8717
 1741TIP3    H2 5167   2.871   4.529   0.015 -0.4444 -0.2517  1.3928
 1742TIP3   OH2 5168   6.751   0.226   1.020 -0.8208 -0.4544 -0.2366
 1742TIP3    H1 5169   6.827   0.193   1.068 -0.6024 -0.1933 -0.3979
 1742TIP3    H2 5170   6.789   0.285   0.954 -1.2054  0.1388  0.0743
 1743TIP3   OH2 5171   3.966   7.864   0.106 -0.4835  0.3996 -0.3874
 1743TIP3    H1 5172   3.948   7.958   0.102  1.4057  0.7787 -0.1023
 1743TIP3    H2 5173   4.033   7.850   0.039 -0.3888 -0.6544 -0.0764
 1744TIP3   OH2 5174   2.824   6.372   1.429 -0.3258  0.1203 -0.4489
 1744TIP3    H1 5175   2.765   6.334   1.495 -1.5281  3.2095  0.3140
 1744TIP3    H2 5176   2.865   6.446   1.474 -0.6642  1.8668 -2.9645
 1745TIP3   OH2 5177   0.060   6.503   1.865 -0.8230 -0.1470 -0.2599
 1745TIP3    H1 5178   0.100   6.561   1.930 -1.1372  0.2818 -0.4417
 1745TIP3    H2 5179   0.116   6.512   1.788 -0.3770 -0.7552 -0.0079
 1746TIP3   OH2 5180   5.515   1.997   6.479  0.2500 -0.3807 -0.4407
 1746TIP3    H1 5181   5.440   2.047   6.446  0.5980  0.6722  0.3381
 1746TIP3    H2 5182   5.477   1.937   6.542  0.1358  0.6106  0.4458
 1747TIP3   OH2 5183   7.391   1.269   6.517 -0.1009  0.0066 -0.3281
 1747TIP3    H1 5184   7.366   1.361   6.522 -0.3460 -0.1418  1.4835
 1747TIP3    H2 5185   7.469   1.262   6.573 -0.1617 -0.9084 -0.3470
 1748TIP3   OH2 5186   7.689   2.221   6.879 -0.7652 -0.1655  0.4606
 1748TIP3    H1 5187   7.699   2.139   6.927  1.3647 -0.2139 -0.0097
 1748TIP3    H2 5188   7.633   2.198   6.805 -0.5821 -1.0929  0.6015
 1749TIP3   OH2 5189   5.708   0.310   3.345  0.0292 -0.7237 -0.0299
 1749TIP3    H1 5190   5.688   0.402   3.327 -0.9525 -1.2053 -1.5420
 1749TIP3    H2 5191   5.803   0.306   3.347  0.0809  0.4107  0.5395
 1750TIP3   OH2 5192   1.916   6.797   1.755 -0.3356  0.5507 -0.2378
 1750TIP3    H1 5193   1.991   6.766   1.806  0.2627 -0.0335 -1.4522
 1750TIP3    H2 5194   1.840   6.761   1.799  0.1951 -0.2075  0.0745
 1751TIP3   OH2 5195   3.798   4.900   1.429 -0.0932 -0.7421  0.2224
 1751TIP3    H1 5196   3.792   4.955   1.507  0.2871 -1.0667  0.4808
 1751TIP3    H2 5197   3.866   4.941   1.375 -1.2964  0.2596 -0.5682
 1752TIP3   OH2 5198   5.797   2.065   6.606 -0.6541  0.1402  0.1689
 1752TIP3    H1 5199   5.728   2.124   6.575 -2.2650 -0.1490  3.0788
 1752TIP3    H2 5200   5.751   1.984   6.627  0.3844  0.2597  3.0451
 1753TIP3   OH2 5201   3.154   7.200   1.672 -0.1532 -0.7637  0.1033
 1753TIP3    H1 5202   3.208   7.267   1.630  1.3400 -0.9779  1.6284
 1753TIP3    H2 5203   3.104   7.161   1.600  0.4813  0.5804 -1.0929
 1754TIP3   OH2 5204   2.521   1.255   6.237 -0.0535 -0.9852 -0.2653
 1754TIP3    H1 5205   2.560   1.316   6.300  0.5851 -2.0550  0.3917
 1754TIP3    H2 5206   2.448   1.215   6.284  0.1587 -1.4716 -0.3444
 1755TIP3   OH2 5207   0.658   6.976   0.447  0.1337 -0.1146  0.2189
 1755TIP3    H1 5208   0.589   7.041   0.433  1.0311  0.6531 -0.7316
 1755TIP3    H2 5209   0.618   6.893   0.424 -0.8653  0.1567  0.9308
 1756TIP3   OH2 5210   0.192   2.693   6.913  0.1927  0.0036  0.7763
 1756TIP3    H1 5211   0.224   2.609   6.881 -0.3353  0.3017 -0.5613
 1756TIP3    H2 5212   0.271   2.746   6.926  0.4896 -0.5245  1.1669
 1757TIP3   OH2 5213   1.105   5.787   0.579  0.4807  0.2261  0.2945
 1757TIP3    H1 5214   1.110   5.850   0.508  2.7877  1.0980  1.1964
 1757TIP3    H2 5215   1.069   5.836   0.653 -1.5214 -0.5742 -0.1020
 1758TIP3   OH2 5216   4.785   6.310   1.455  0.1460  0.0360  0.1577
 1758TIP3    H1 5217   4.709   6.346   1.501  0.6582  1.8373 -0.3327
 1758TIP3    H2 5218   4.814   6.237   1.510 -1.4585 -0.1643  0.7541
 1759TIP3   OH2 5219   7.397   3.973   6.249  0.0268  0.0768  0.6215
 1759TIP3    H1 5220   7.452   3.948   6.174  1.0500  2.4602  0.5438
 1759TIP3    H2 5221   7.329   3.906   6.251  0.9247 -0.9689 -1.4257
 1760TIP3   OH2 5222   0.278   4.699   5.044 -0.8762  0.9296 -0.0817
 1760TIP3    H1 5223   0.210   4.702   4.976  0.0794 -0.0640 -1.1058
 1760TIP3    H2 5224   0.247   4.634   5.106  0.4878 -1.7249 -2.0811
 1761TIP3   OH2 5225   4.146   6.832   0.375 -0.0051  0.0316 -0.0739
 1761TIP3    H1 5226   4.111   6.804   0.290  0.3602  0.9616 -0.5281
 1761TIP3    H2 5227   4.172   6.750   0.417  0.3468 -0.3906 -1.0892
 1762TIP3   OH2 5228   5.015   6.525   1.779 -0.1563  0.2132  0.1819
 1762TIP3    H1 5229   5.109   6.513   1.766 -0.1607 -0.3498  0.6384
 1762TIP3    H2 5230   5.004   6.529   1.874 -0.2206  3.4577  0.0895
 1763TIP3   OH2 5231   6.817   6.598   0.204  0.1294  0.2213  0.1867
 1763TIP3    H1 5232   6.826   6.662   0.275  2.5152  1.9936 -1.6507
 1763TIP3    H2 5233   6.734   6.621   0.161  0.5270  1.5049  0.0963
 1764TIP3   OH2 5234   1.531   5.197   0.379 -0.1158 -0.0418 -0.0887
 1764TIP3    H1 5235   1.443   5.189   0.343 -0.1232  0.6737 -0.2332
 1764TIP3    H2 5236   1.523   5.163   0.468 -0.7440  0.8234  0.2008
 1765TIP3   OH2 5237   3.718   7.761   0.230 -0.2642 -0.3254 -0.2932
 1765TIP3    H1 5238   3.705   7.666   0.228 -1.7540 -0.1259 -0.6625
 1765TIP3    H2 5239   3.803   7.775   0.187 -0.6429 -1.3882 -1.4135
 1766TIP3   OH2 5240   1.797   6.564   1.058  0.0525  0.2490  0.2655
 1766TIP3    H1 5241   1.761   6.488   1.010  0.6406  0.2498 -0.1828
 1766TIP3    H2 5242   1.851   6.609   0.993 -0.3531  1.0971  0.5133
 1767TIP3   OH2 5243   6.015   7.299   0.427  0.0718  0.2536 -0.0198
 1767TIP3    H1 5244   6.014   7.248   0.508  1.3274 -0.4255 -0.4204
 1767TIP3    H2 5245   6.014   7.234   0.357 -1.0935  0.8446 -0.5697
 1768TIP3   OH2 5246   2.436   0.836   6.607 -0.0496 -0.3149  0.1409
 1768TIP3    H1 5247   2.520   0.793   6.621  0.7565  1.3006  0.3553
 1768TIP3    H2 5248   2.403   0.854   6.695  1.2594  2.6238  0.0626
 1769TIP3   OH2 5249   6.592   1.101   6.578 -0.0841 -0.0395  0.2087
 1769TIP3    H1 5250   6.543   1.074   6.501  2.8292 -1.4559 -1.2565
 1769TIP3    H2 5251   6.622   1.190   6.558 -1.4907  0.5795  0.8306
 1770TIP3   OH2 5252   0.751   2.000   6.610  0.3111  0.0483  0.1694
 1770TIP3    H1 5253   0.799   2.048   6.678 -0.8117 -1.1072  1.8192
 1770TIP3    H2 5254   0.671   2.051   6.597 -0.1246 -0.4758  0.7467
 1771TIP3   OH2 5255   7.583   2.043   6.653  0.0614 -0.3171  0.8399
 1771TIP3    H1 5256   7.544   1.957   6.666 -0.3675 -0.0887  1.0464
 1771TIP3    H2 5257   7.677   2.028   6.665  0.0287 -0.8347  0.4764
 1772TIP3   OH2 5258   3.990   6.853   0.668 -0.7457  0.2981 -0.7594
 1772TIP3    H1 5259   4.021   6.770   0.633  0.5241  0.5201 -0.1683
 1772TIP3    H2 5260   3.988   6.839   0.763  1.4653  1.5976 -0.4904
 1773TIP3   OH2 5261   5.383   6.147   1.234  0.1636  0.8516  0.4997
 1773TIP3    H1 5262   5.407   6.226   1.281  1.3340  0.6523  0.2444
 1773TIP3    H2 5263   5.288   6.139   1.248 -0.4316  3.6061 -1.4450
 1774TIP3   OH2 5264   0.225   4.298   6.906 -0.7284 -0.4781  0.3779
 1774TIP3    H1 5265   0.250   4.284   6.998 -1.0300  1.0971  0.7238
 1774TIP3    H2 5266   0.308   4.320   6.862 -0.6336 -0.9078  0.3416
 1775TIP3   OH2 5267   4.035   7.516   1.120  0.4891 -0.1787 -0.1674
 1775TIP3    H1 5268   4.030   7.536   1.214 -2.6334 -0.1455 -0.2931
 1775TIP3    H2 5269   4.126   7.489   1.106  1.1429  0.3533  2.7540
 1776TIP3   OH2 5270   3.181   6.505   1.932 -0.4028  0.0437 -0.2852
 1776TIP3    H1 5271   3.227   6.426   1.960 -1.6866  0.0256  1.9088
 1776TIP3    H2 5272   3.242   6.576   1.951 -0.0442 -0.2521 -0.3300
 1777TIP3   OH2 5273   2.166   4.805   6.932 -0.0397  0.1162 -0.3746
 1777TIP3    H1 5274   2.112   4.758   6.995  0.4003  0.3599  0.1913
 1777TIP3    H2 5275   2.203   4.737   6.876 -0.9743 -0.0490 -0.8038
 1778TIP3   OH2 5276   4.841   6.400   0.284 -0.1893 -0.2025 -0.7467
 1778TIP3    H1 5277   4.791   6.327   0.322  1.0883 -0.5712  0.2545
 1778TIP3    H2 5278   4.919   6.358   0.246  0.2179  0.5701 -0.7660
 1779TIP3   OH2 5279   7.659   1.818   0.056  0.3247  0.1951 -0.1060
 1779TIP3    H1 5280   7.659   1.910   0.028  0.2174  0.1348 -0.3053
 1779TIP3    H2 5281   7.704   1.772  -0.015  2.0956  0.3611  0.8952
 1780TIP3   OH2 5282   3.918   7.067   0.981  0.1762 -0.3206  0.9799
 1780TIP3    H1 5283   3.862   7.104   1.049 -2.6381  0.1596 -1.4479
 1780TIP3    H2 5284   3.975   7.138   0.955 -1.2113  0.6058  0.3853
 1781TIP3   OH2 5285   8.340   0.986   6.902  0.2265 -0.4552 -0.5798
 1781TIP3    H1 5286   8.302   0.899   6.909 -1.2831  0.2197 -0.3450
 1781TIP3    H2 5287   8.420   0.973   6.851  0.0867 -1.9930 -0.4280
 1782TIP3   OH2 5288   7.712   3.671   6.680 -0.2342  0.4127  0.3380
 1782TIP3    H1 5289   7.621   3.649   6.696  0.0804  0.6414  2.5716
 1782TIP3    H2 5290   7.748   3.596   6.634 -1.3516 -0.0139  0.1613
 1783TIP3   OH2 5291   7.101   7.511   3.981 -0.1353 -0.0926 -0.2166
 1783TIP3    H1 5292   7.171   7.570   3.954 -0.7829 -0.0839 -1.9546
 1783TIP3    H2 5293   7.056   7.559   4.051  0.4083  0.7292 -0.4134
 1784TIP3   OH2 5294   8.024   1.931   1.596 -0.0098  0.6130  0.1731
 1784TIP3    H1 5295   7.966   1.920   1.671 -0.2147 -0.3652 -0.1179
 1784TIP3    H2 5296   8.096   1.870   1.613 -0.2353  0.1223 -0.5901
 1785TIP3   OH2 5297   0.734   7.041   6.422  0.5530 -0.0514  0.4974
 1785TIP3    H1 5298   0.763   6.972   6.481  0.9106 -1.5424 -1.3857
 1785TIP3    H2 5299   0.768   7.015   6.336 -2.3161  0.6506 -0.8855
 1786TIP3   OH2 5300   6.459   6.014   3.081  0.4662  0.0462 -0.7553
 1786TIP3    H1 5301   6.375   5.982   3.113  0.3729  1.3822  0.4056
 1786TIP3    H2 5302   6.438   6.096   3.037  1.3770  1.4098  1.2719
 1787TIP3   OH2 5303   0.277   6.888   5.485 -0.3217  0.1420  0.3849
 1787TIP3    H1 5304   0.195   6.839   5.491 -1.6245  2.2803  0.8706
 1787TIP3    H2 5305   0.343   6.830   5.521 -1.7869 -1.2953  0.7950
 1788TIP3   OH2 5306   0.435   7.284   3.588  0.3563  0.1881  0.1691
 1788TIP3    H1 5307   0.479   7.218   3.642 -2.8023 -0.7047  1.7597
 1788TIP3    H2 5308   0.450   7.366   3.633 -0.0078 -0.1740  0.9551
 1789TIP3   OH2 5309   1.490   0.274   4.045  0.0113 -0.2107 -0.1752
 1789TIP3    H1 5310   1.515   0.359   4.081 -2.4440  0.9878 -1.1853
 1789TIP3    H2 5311   1.459   0.224   4.121 -0.5157  0.5531  0.1182
 1790TIP3   OH2 5312   4.158   1.150   6.447  0.2454 -0.2022  0.2503
 1790TIP3    H1 5313   4.081   1.155   6.504 -0.9636  0.8649 -1.4194
 1790TIP3    H2 5314   4.164   1.236   6.407  0.7651 -1.0571 -1.6020
 1791TIP3   OH2 5315   1.245   1.502   5.264 -0.2930  0.4026  0.2534
 1791TIP3    H1 5316   1.296   1.580   5.242  0.7453 -0.5869 -0.9693
 1791TIP3    H2 5317   1.310   1.433   5.275 -1.2511 -0.5113  0.3345
 1792TIP3   OH2 5318   3.059   0.820   4.721 -0.1817 -0.7769  0.1340
 1792TIP3    H1 5319   3.091   0.742   4.677 -1.4852 -0.7906 -0.8320
 1792TIP3    H2 5320   3.029   0.878   4.651 -2.2984 -0.8077  0.9430
 1793TIP3   OH2 5321   1.603   0.483   4.232  0.6179 -0.2105  0.0238
 1793TIP3    H1 5322   1.558   0.516   4.310  0.2047 -0.3788 -0.1433
 1793TIP3    H2 5323   1.648   0.404   4.262  0.6121 -0.1717  0.1355
 1794TIP3   OH2 5324   6.946   7.750   3.151 -0.1886 -0.4544 -0.2922
 1794TIP3    H1 5325   6.907   7.680   3.203 -0.1960  1.8944  3.0596
 1794TIP3    H2 5326   6.932   7.723   3.060  0.6148 -5.1558  0.8537
 1795TIP3   OH2 5327   6.107   5.355   6.117  0.2097  0.1482 -0.7781
 1795TIP3    H1 5328   6.090   5.444   6.147 -0.5142 -0.4813  0.7212
 1795TIP3    H2 5329   6.029   5.332   6.066  0.0478  0.1018 -0.5124
 1796TIP3   OH2 5330   1.306   1.954   4.984 -0.2021  0.0284  0.5992
 1796TIP3    H1 5331   1.224   2.003   4.978  0.7756  1.8318  1.5443
 1796TIP3    H2 5332   1.306   1.919   5.073  0.6808  1.2113  1.0800
 1797TIP3   OH2 5333   7.227   7.473   4.472 -0.4938  0.4940  0.4032
 1797TIP3    H1 5334   7.235   7.380   4.451 -0.9886  0.8417 -1.4087
 1797TIP3    H2 5335   7.313   7.497   4.508 -0.1561 -0.5163  0.2825
 1798TIP3   OH2 5336   6.806   6.864   4.735 -0.5326 -0.3591 -0.3073
 1798TIP3    H1 5337   6.834   6.953   4.757 -1.3095 -0.0790 -0.4633
 1798TIP3    H2 5338   6.883   6.824   4.695 -0.9051  1.0127 -2.4735
 1799TIP3   OH2 5339   7.806   7.732   2.991 -0.2226 -0.5566 -0.1765
 1799TIP3    H1 5340   7.817   7.757   3.082 -0.2114 -0.3419 -0.2365
 1799TIP3    H2 5341   7.825   7.812   2.942  2.7766 -1.4130 -0.5203
 1800TIP3   OH2 5342   6.570   6.768   4.832 -0.3454 -0.0044 -0.3485
 1800TIP3    H1 5343   6.553   6.750   4.739  0.0483  0.9127 -0.6046
 1800TIP3    H2 5344   6.662   6.794   4.835  0.4062 -2.5725  0.6824
 1801TIP3   OH2 5345   1.388   2.281   3.010  0.5791 -0.0097  0.6626
 1801TIP3    H1 5346   1.395   2.375   3.026 -1.5627  0.3057 -0.1231
 1801TIP3    H2 5347   1.307   2.255   3.054  0.3515 -1.1847 -0.4132
 1802TIP3   OH2 5348   7.546   7.108   4.289 -0.2117  0.2048 -0.2934
 1802TIP3    H1 5349   7.598   7.178   4.250 -0.1159  1.1478  1.4858
 1802TIP3    H2 5350   7.603   7.032   4.289 -0.4383 -0.0170 -2.5814
 1803TIP3   OH2 5351   1.253   0.399   3.174  0.1122  0.1792  0.0705
 1803TIP3    H1 5352   1.164   0.428   3.193 -0.0324 -0.0866 -0.2009
 1803TIP3    H2 5353   1.278   0.345   3.249  0.6286  1.5436  0.8989
 1804TIP3   OH2 5354   2.624   1.180   5.619 -0.4710  0.5363  0.2591
 1804TIP3    H1 5355   2.537   1.177   5.580  0.3182  0.3408 -1.5664
 1804TIP3    H2 5356   2.679   1.218   5.550  0.8277  0.9282  1.4898
 1805TIP3   OH2 5357   4.111   1.061   3.756  0.0604 -0.0014  0.3991
 1805TIP3    H1 5358   4.168   1.057   3.833  0.4298  0.5414  0.1648
 1805TIP3    H2 5359   4.136   0.985   3.703  0.0882 -0.1471  0.6207
 1806TIP3   OH2 5360   0.214   7.513   5.153 -0.4501  0.0863  0.4313
 1806TIP3    H1 5361   0.231   7.469   5.070  1.0718 -1.3919  1.4903
 1806TIP3    H2 5362   0.178   7.598   5.128  1.9958  0.5505 -1.8246
 1807TIP3   OH2 5363   2.009   4.721   3.782 -0.1739 -0.1743  0.1871
 1807TIP3    H1 5364   1.950   4.748   3.711 -1.8818 -1.6154  1.0043
 1807TIP3    H2 5365   2.004   4.793   3.846 -1.0634 -0.2632  0.2328
 1808TIP3   OH2 5366   2.075   0.113   3.263 -0.4532  0.0235  0.1569
 1808TIP3    H1 5367   2.016   0.178   3.302  1.6515  2.6982 -0.9892
 1808TIP3    H2 5368   2.076   0.134   3.170  1.2621 -0.8379 -0.0390
 1809TIP3   OH2 5369   2.149   1.000   4.160 -0.0898  0.0539 -0.0348
 1809TIP3    H1 5370   2.062   0.969   4.132 -0.2977 -0.9978  1.6674
 1809TIP3    H2 5371   2.196   1.016   4.078 -1.4441 -0.6655 -0.9840
 1810TIP3   OH2 5372   2.315   0.372   4.511 -0.3125  0.6125 -0.6947
 1810TIP3    H1 5373   2.402   0.381   4.550  0.0165 -1.3110 -0.9265
 1810TIP3    H2 5374   2.329   0.380   4.417  0.1640 -2.8289 -1.0119
 1811TIP3   OH2 5375   2.144   0.331   2.525 -0.0116 -0.1150  0.2139
 1811TIP3    H1 5376   2.145   0.304   2.433  1.8169  0.5280  0.0300
 1811TIP3    H2 5377   2.128   0.425   2.522 -0.4686 -0.1817  0.5755
 1812TIP3   OH2 5378   0.231   5.575   4.626 -0.4242  0.0676 -0.6182
 1812TIP3    H1 5379   0.171   5.599   4.556 -0.4169  2.6860  0.1875
 1812TIP3    H2 5380   0.307   5.633   4.614  0.1305 -0.3318  0.7777
 1813TIP3   OH2 5381   0.007   7.193   4.532 -0.3768  0.3409 -0.0838
 1813TIP3    H1 5382  -0.042   7.269   4.564  1.8701  0.8289  2.4071
 1813TIP3    H2 5383   0.083   7.230   4.487 -1.6891 -0.4240 -3.0733
 1814TIP3   OH2 5384   0.229   7.684   2.331 -0.2655 -0.3385  0.1455
 1814TIP3    H1 5385   0.197   7.594   2.326 -0.5809 -0.1328 -2.1091
 1814TIP3    H2 5386   0.324   7.675   2.344  0.0175 -1.0464 -2.1604
 1815TIP3   OH2 5387   6.421   6.945   4.293 -0.2105  0.2623 -0.0155
 1815TIP3    H1 5388   6.421   7.001   4.215  1.3944  1.1195  0.5748
 1815TIP3    H2 5389   6.464   6.865   4.264 -0.6698  0.1249 -0.3203
 1816TIP3   OH2 5390   6.833   8.004   1.299 -0.4605  0.1968  0.4733
 1816TIP3    H1 5391   6.838   7.938   1.230 -0.4345  0.6523  0.0362
 1816TIP3    H2 5392   6.840   7.955   1.381  2.9730 -0.0513  0.1167
 1817TIP3   OH2 5393   1.481   1.673   5.125 -0.4042 -0.0045  0.0033
 1817TIP3    H1 5394   1.467   1.695   5.033 -1.6687  1.2507  0.4781
 1817TIP3    H2 5395   1.562   1.621   5.125  0.6477  1.5623 -1.5859
 1818TIP3   OH2 5396   1.608   1.211   3.196  0.2436 -0.3068  0.0649
 1818TIP3    H1 5397   1.670   1.236   3.264 -0.1417 -2.0692  1.0970
 1818TIP3    H2 5398   1.522   1.226   3.236  0.0161 -0.2556 -0.4470
 1819TIP3   OH2 5399   2.102   0.704   4.115 -0.0360  0.2936  0.1009
 1819TIP3    H1 5400   2.154   0.688   4.036 -0.1153  1.4739 -0.2067
 1819TIP3    H2 5401   2.167   0.723   4.183 -0.0500  1.5766 -0.2378
 1820TIP3   OH2 5402   8.406   7.579   4.336  0.5739 -0.0497  0.3487
 1820TIP3    H1 5403   8.437   7.563   4.426 -0.4897  1.2022  0.9474
 1820TIP3    H2 5404   8.314   7.553   4.338 -0.0540  2.1157  0.2294
 1821TIP3   OH2 5405   1.458   4.749   2.011  0.0041  0.3160 -0.1442
 1821TIP3    H1 5406   1.422   4.833   2.040  1.3721  1.4665 -1.6638
 1821TIP3    H2 5407   1.413   4.684   2.065 -1.4390  1.9774  0.7276
 1822TIP3   OH2 5408   1.105   6.487   3.574  0.8534 -0.1101  0.2942
 1822TIP3    H1 5409   1.131   6.416   3.631 -0.1180  1.1764  2.3987
 1822TIP3    H2 5410   1.120   6.566   3.626 -2.8028  0.9283 -0.0986
 1823TIP3   OH2 5411   2.440   1.544   2.940 -0.0334  0.6617 -0.2323
 1823TIP3    H1 5412   2.370   1.486   2.911  1.9995 -0.8895 -2.2013
 1823TIP3    H2 5413   2.416   1.630   2.907 -1.6907  0.4198  0.3104
 1824TIP3   OH2 5414   3.172   1.244   4.722  0.0906  0.6084  0.1649
 1824TIP3    H1 5415   3.181   1.325   4.772  1.0488 -0.1663  1.2633
 1824TIP3    H2 5416   3.102   1.196   4.768 -0.9284  1.0912 -0.8698
 1825TIP3   OH2 5417   7.498   7.581   3.829 -0.1438  0.6132  0.2578
 1825TIP3    H1 5418   7.446   7.653   3.792  2.3172  2.5489  0.4709
 1825TIP3    H2 5419   7.554   7.552   3.758 -0.5244 -0.5635  0.4229
 1826TIP3   OH2 5420   6.786   7.807   3.764  0.2211 -0.2507  0.0347
 1826TIP3    H1 5421   6.802   7.894   3.729  1.8598  0.4602  2.4195
 1826TIP3    H2 5422   6.871   7.763   3.760  0.0430 -0.7619  1.3981
 1827TIP3   OH2 5423   3.615   1.507   4.375  0.0577  0.4472 -0.1854
 1827TIP3    H1 5424   3.522   1.484   4.382  0.5520 -1.3240  1.0259
 1827TIP3    H2 5425   3.644   1.515   4.466  1.7880 -2.1187 -0.4496
 1828TIP3   OH2 5426   2.393   1.984   2.530  0.0964 -0.1291 -0.5948
 1828TIP3    H1 5427   2.358   1.896   2.544 -0.1864 -0.2300 -1.8867
 1828TIP3    H2 5428   2.471   1.970   2.475  1.3591  0.2274  1.0618
 1829TIP3   OH2 5429   0.890   5.803   4.087  0.0981 -0.2145  0.4179
 1829TIP3    H1 5430   0.917   5.731   4.144  0.1783 -0.0421  0.6011
 1829TIP3    H2 5431   0.796   5.791   4.075  0.0572 -0.1754  0.6996
 1830TIP3   OH2 5432   7.813   6.119   3.990  0.1789  0.2592 -0.1011
 1830TIP3    H1 5433   7.779   6.037   4.023  2.5856 -1.2339 -1.1849
 1830TIP3    H2 5434   7.761   6.137   3.912  0.1083 -0.6269 -0.2643
 1831TIP3   OH2 5435   2.214   6.009   2.681  0.7524  0.5786  0.8097
 1831TIP3    H1 5436   2.174   5.922   2.674  0.2402  0.9534 -1.0765
 1831TIP3    H2 5437   2.171   6.049   2.758  0.1955 -0.4110  1.0237
 1832TIP3   OH2 5438   0.114   5.652   3.760  0.0338 -0.3477  0.4276
 1832TIP3    H1 5439   0.076   5.571   3.726  0.7989 -0.0690 -1.1291
 1832TIP3    H2 5440   0.083   5.720   3.700 -0.3406  0.4716  1.5410
 1833TIP3   OH2 5441   1.191   5.637   4.106  0.4217  0.1322 -0.0425
 1833TIP3    H1 5442   1.200   5.541   4.108  2.0641  0.2622 -0.8614
 1833TIP3    H2 5443   1.119   5.655   4.167  0.1441 -1.6189  0.1766
 1834TIP3   OH2 5444   6.892   7.486   4.713  0.3473 -0.1044  0.2879
 1834TIP3    H1 5445   6.875   7.581   4.710  0.7885 -0.0164  0.4751
 1834TIP3    H2 5446   6.984   7.478   4.688  0.6031 -0.3908  1.2863
 1835TIP3   OH2 5447   2.945   1.384   2.792 -0.4809  1.0045 -0.0974
 1835TIP3    H1 5448   2.902   1.468   2.779 -1.5230  0.1373 -2.5307
 1835TIP3    H2 5449   2.911   1.328   2.723  1.1456 -1.0677  0.6994
 1836TIP3   OH2 5450   0.197   7.945   2.931 -0.5523 -0.0348  0.4709
 1836TIP3    H1 5451   0.180   7.966   3.023  3.1796 -0.0286  1.2109
 1836TIP3    H2 5452   0.223   7.853   2.931  4.3462  1.2500  0.1610
 1837TIP3   OH2 5453   8.271   7.305   2.973  0.2301 -0.0845  0.0299
 1837TIP3    H1 5454   8.355   7.259   2.969  0.0397 -0.4244 -0.1429
 1837TIP3    H2 5455   8.228   7.282   2.891 -1.4356 -2.6194  1.5565
 1838TIP3   OH2 5456   1.000   7.751   2.818 -0.3669 -0.3999  0.0828
 1838TIP3    H1 5457   1.006   7.688   2.746  0.3810  0.3537 -0.5389
 1838TIP3    H2 5458   1.091   7.772   2.838 -0.5979  0.1098  0.6041
 1839TIP3   OH2 5459   4.107   2.472   4.784  0.8336  0.8873  0.2262
 1839TIP3    H1 5460   4.061   2.389   4.800  3.2650 -0.4084  0.7277
 1839TIP3    H2 5461   4.041   2.529   4.745 -0.8515 -1.3342 -0.2675
 1840TIP3   OH2 5462   2.916   2.060   2.471  0.3535  0.4517 -0.7413
 1840TIP3    H1 5463   2.995   2.089   2.517 -0.5509  0.7523  0.6177
 1840TIP3    H2 5464   2.950   2.008   2.398  1.8802  2.0799 -1.2369
 1841TIP3   OH2 5465   6.429   6.621   2.939 -0.2240  0.4745  0.1014
 1841TIP3    H1 5466   6.347   6.616   2.990  0.5071  1.5704  1.4339
 1841TIP3    H2 5467   6.404   6.667   2.859 -1.3199 -0.9438 -0.3834
 1842TIP3   OH2 5468   4.257   0.265   4.168  0.3594  0.1434  0.2478
 1842TIP3    H1 5469   4.268   0.198   4.101  0.0501  0.7336 -0.4013
 1842TIP3    H2 5470   4.345   0.280   4.202  0.5442 -0.0337 -0.1506
 1843TIP3   OH2 5471   0.999   7.556   3.157 -0.3388  0.0212  0.3066
 1843TIP3    H1 5472   0.996   7.475   3.208  0.5134  0.5277  1.1550
 1843TIP3    H2 5473   0.936   7.614   3.200  0.4188  0.4669  0.8334
 1844TIP3   OH2 5474   4.323   0.649   3.920  0.0215  0.0374  0.4846
 1844TIP3    H1 5475   4.404   0.611   3.954 -0.6850 -2.9500 -0.9707
 1844TIP3    H2 5476   4.343   0.672   3.829 -0.6312 -0.4098  0.2178
 1845TIP3   OH2 5477   0.749   6.875   2.744 -0.1484 -0.2066 -0.0818
 1845TIP3    H1 5478   0.806   6.914   2.677  0.1154 -0.6780 -0.1378
 1845TIP3    H2 5479   0.806   6.813   2.790 -0.5095 -0.3798  0.1336
 1846TIP3   OH2 5480   1.312   6.323   4.365  0.0348  0.6018  0.0303
 1846TIP3    H1 5481   1.344   6.404   4.325  0.3022  0.3050 -0.3661
 1846TIP3    H2 5482   1.234   6.301   4.314  0.5134  0.0935 -0.4903
 1847TIP3   OH2 5483   2.703   1.184   5.990  0.1870 -0.5427 -0.1882
 1847TIP3    H1 5484   2.656   1.203   6.071  0.6798 -0.9041  0.1835
 1847TIP3    H2 5485   2.680   1.093   5.971  2.2065 -1.3349  0.9991
 1848TIP3   OH2 5486   3.010   1.191   3.180 -0.2724 -0.4473 -0.0414
 1848TIP3    H1 5487   3.102   1.190   3.155 -0.3664 -1.4393 -0.3938
 1848TIP3    H2 5488   2.999   1.271   3.230  0.4068  0.5085 -1.3937
 1849TIP3   OH2 5489   7.003   7.159   2.469 -0.6051 -0.7572  0.4273
 1849TIP3    H1 5490   6.925   7.213   2.476  0.1800  0.5282 -0.3420
 1849TIP3    H2 5491   7.066   7.201   2.528  1.0379  1.0983 -2.4970
 1850TIP3   OH2 5492   2.299   0.915   3.317  0.1708  0.2744  0.3078
 1850TIP3    H1 5493   2.343   0.899   3.233 -0.8479 -0.4921 -0.0829
 1850TIP3    H2 5494   2.370   0.939   3.377  1.0292 -0.1805 -0.5210
 1851TIP3   OH2 5495   1.097   7.346   4.785 -0.1532 -0.1206 -0.0226
 1851TIP3    H1 5496   1.099   7.389   4.870  0.3113 -1.5430  0.7141
 1851TIP3    H2 5497   1.103   7.253   4.806 -3.6653 -0.7412 -1.4230
 1852TIP3   OH2 5498   1.246   6.531   2.185  0.2248 -0.1411  0.4999
 1852TIP3    H1 5499   1.189   6.490   2.121 -0.5351 -0.0869  1.1358
 1852TIP3    H2 5500   1.280   6.609   2.140 -0.2375 -0.1472  0.1345
 1853TIP3   OH2 5501   7.866   6.384   2.121 -0.4319  0.1240  0.2082
 1853TIP3    H1 5502   7.845   6.381   2.214 -2.0212 -0.1868 -0.1571
 1853TIP3    H2 5503   7.834   6.469   2.091 -0.0830  0.1535 -0.0922
 1854TIP3   OH2 5504   2.561   0.694   5.140  0.1663  0.5952  0.4119
 1854TIP3    H1 5505   2.614   0.748   5.082  0.5798 -1.0009 -0.7272
 1854TIP3    H2 5506   2.583   0.604   5.116 -0.4993 -0.0906  2.2855
 1855TIP3   OH2 5507   1.928   1.796   3.695 -0.1644 -0.3927 -0.0605
 1855TIP3    H1 5508   1.937   1.835   3.782 -1.5623  0.3226 -0.2233
 1855TIP3    H2 5509   1.945   1.702   3.709  2.0326  0.0734  0.5361
 1856TIP3   OH2 5510   3.206   3.947   0.347  0.3000 -0.1510  0.3586
 1856TIP3    H1 5511   3.286   3.985   0.385  1.7490 -2.4649 -0.2848
 1856TIP3    H2 5512   3.200   3.860   0.386 -2.2821  0.2234  0.8717
 1857TIP3   OH2 5513   0.418   6.974   4.095  0.6965 -0.3655 -0.0132
 1857TIP3    H1 5514   0.500   7.000   4.055 -0.2864 -1.1751 -2.7126
 1857TIP3    H2 5515   0.375   7.056   4.119  1.4640  0.1339 -0.3280
 1858TIP3   OH2 5516   3.487   2.149   4.145 -0.0505  0.6179 -0.2647
 1858TIP3    H1 5517   3.543   2.075   4.124  0.2415  1.5249 -2.9116
 1858TIP3    H2 5518   3.409   2.110   4.184 -0.2301 -1.1974 -2.3154
 1859TIP3   OH2 5519   3.036   1.355   3.413  0.0226 -0.3258 -0.7247
 1859TIP3    H1 5520   2.979   1.431   3.423  0.4867 -0.1844  0.9314
 1859TIP3    H2 5521   3.112   1.388   3.365  1.6946  1.0570  2.7263
 1860TIP3   OH2 5522   8.266   6.458   1.516 -0.0338 -0.5867 -0.7375
 1860TIP3    H1 5523   8.335   6.406   1.556 -0.4177 -0.0303  0.7054
 1860TIP3    H2 5524   8.186   6.409   1.533 -0.4705  0.6814  1.1251
 1861TIP3   OH2 5525   3.141   0.586   2.809  0.3024  0.1763 -0.8823
 1861TIP3    H1 5526   3.073   0.522   2.830  1.2629 -0.5756  0.0022
 1861TIP3    H2 5527   3.216   0.533   2.782  0.4085  1.0128 -2.2405
 1862TIP3   OH2 5528   8.458   7.390   2.737 -0.3185 -0.6348  0.1248
 1862TIP3    H1 5529   8.390   7.323   2.741 -2.2178  1.2982  0.7015
 1862TIP3    H2 5530   8.424   7.455   2.676  1.0914  0.2881  0.3083
 1863TIP3   OH2 5531   1.478   2.278   2.353  0.9231 -0.2489  0.0800
 1863TIP3    H1 5532   1.547   2.282   2.286 -1.3033  1.7329 -2.2234
 1863TIP3    H2 5533   1.511   2.334   2.423  3.1866 -2.1414  0.5847
 1864TIP3   OH2 5534   0.478   6.919   4.727 -0.2929  0.3229  0.2424
 1864TIP3    H1 5535   0.481   6.919   4.823 -0.4401 -1.7183  0.2717
 1864TIP3    H2 5536   0.525   6.839   4.702  0.3258  1.1817 -1.4147
 1865TIP3   OH2 5537   3.676   0.762   4.511  0.2539  0.3936  0.3423
 1865TIP3    H1 5538   3.619   0.827   4.552  0.4314  2.0732 -1.9581
 1865TIP3    H2 5539   3.649   0.761   4.419  1.7280 -1.2152 -0.1038
 1866TIP3   OH2 5540   1.959   5.441   4.448  0.2873 -0.3758  0.1397
 1866TIP3    H1 5541   1.940   5.385   4.373  0.5759 -0.4665  0.1330
 1866TIP3    H2 5542   1.940   5.385   4.524 -0.1075 -0.2489  0.1375
 1867TIP3   OH2 5543   2.479   0.428   4.014  0.2707  0.4492  0.1091
 1867TIP3    H1 5544   2.528   0.509   3.998  1.6282 -0.8059 -2.4644
 1867TIP3    H2 5545   2.404   0.433   3.954  1.0542 -0.7425 -0.9922
 1868TIP3   OH2 5546   0.096   6.765   2.519  0.1357 -0.2816 -0.8486
 1868TIP3    H1 5547   0.134   6.831   2.462  0.2975 -0.8210 -1.3742
 1868TIP3    H2 5548   0.006   6.753   2.486 -0.0607  0.0483 -0.4327
 1869TIP3   OH2 5549   4.053   0.818   2.675  0.2630  0.7794  0.0219
 1869TIP3    H1 5550   4.141   0.780   2.664 -0.3176 -0.1214 -1.8183
 1869TIP3    H2 5551   4.064   0.910   2.654  0.4282  0.2955 -2.1922
 1870TIP3   OH2 5552   0.995   7.075   3.104  0.2192  0.0352 -0.0250
 1870TIP3    H1 5553   0.906   7.043   3.087  0.9263 -0.7931 -2.2351
 1870TIP3    H2 5554   1.046   7.049   3.027  2.0211  1.9032  0.4857
 1871TIP3   OH2 5555   5.325   0.411   3.529 -0.1602 -0.0164 -0.0059
 1871TIP3    H1 5556   5.374   0.442   3.453 -0.3951  1.2308  0.3391
 1871TIP3    H2 5557   5.234   0.409   3.500 -0.0140 -1.5826 -0.4034
 1872TIP3   OH2 5558   0.735   7.608   3.366 -0.5587 -0.4473 -0.1560
 1872TIP3    H1 5559   0.728   7.672   3.437  2.8472 -1.4889  1.2436
 1872TIP3    H2 5560   0.706   7.526   3.406  2.5484 -1.2873  0.4816
 1873TIP3   OH2 5561   7.377   5.043   3.187  0.1333  0.5586  0.6104
 1873TIP3    H1 5562   7.315   5.103   3.229 -3.2542 -2.0155 -0.4373
 1873TIP3    H2 5563   7.347   5.039   3.096  2.1937 -0.3497 -0.0480
 1874TIP3   OH2 5564   3.050   0.772   3.734 -0.0861 -0.3342  0.2098
 1874TIP3    H1 5565   2.978   0.822   3.697  0.4859  1.0903  0.9328
 1874TIP3    H2 5566   3.047   0.792   3.828  1.5048  0.1236  0.1880
 1875TIP3   OH2 5567   2.640   1.449   3.123  0.2931 -0.7088  0.1440
 1875TIP3    H1 5568   2.579   1.511   3.082  1.7147  1.6134  1.4319
 1875TIP3    H2 5569   2.607   1.363   3.097 -0.9789  0.5818 -2.8200
 1876TIP3   OH2 5570   1.580   6.501   3.905 -0.3003  0.1727  0.1972
 1876TIP3    H1 5571   1.571   6.441   3.831  2.9746 -1.6011  1.1547
 1876TIP3    H2 5572   1.525   6.462   3.974  1.4454 -1.5538  0.6594
 1877TIP3   OH2 5573   1.198   5.464   3.851  0.3481 -0.6553  0.6098
 1877TIP3    H1 5574   1.269   5.421   3.804  0.9678 -1.0082  1.8530
 1877TIP3    H2 5575   1.203   5.429   3.940 -0.4687  0.4137  1.0876
 1878TIP3   OH2 5576   8.513   5.530   5.516  0.5887  0.2320  0.0573
 1878TIP3    H1 5577   8.490   5.572   5.433  0.9698  1.0145  0.3381
 1878TIP3    H2 5578   8.460   5.575   5.581 -1.0832 -1.6285  0.0208
 1879TIP3   OH2 5579   7.143   7.857   2.221 -0.3031  0.5791  0.1182
 1879TIP3    H1 5580   7.239   7.868   2.227 -0.2373  1.0402 -1.5097
 1879TIP3    H2 5581   7.109   7.941   2.251 -0.1927  0.4023  0.7358
 1880TIP3   OH2 5582   4.448   0.660   2.249 -0.5509 -0.0844  0.1120
 1880TIP3    H1 5583   4.376   0.620   2.201 -1.2255  0.0403  1.0172
 1880TIP3    H2 5584   4.409   0.736   2.292  0.4325  0.8067 -0.5468
 1881TIP3   OH2 5585   0.764   7.671   5.243 -0.1197  0.3432 -0.2613
 1881TIP3    H1 5586   0.678   7.638   5.270 -0.5889  1.1851 -0.7234
 1881TIP3    H2 5587   0.754   7.766   5.239  0.6582  0.4042 -0.9058
 1882TIP3   OH2 5588   0.242   5.646   2.386  0.3745 -0.0702 -0.5556
 1882TIP3    H1 5589   0.181   5.608   2.450  1.2824  0.1997  0.4914
 1882TIP3    H2 5590   0.314   5.584   2.382 -0.7827 -1.3084 -3.1707
 1883TIP3   OH2 5591   2.915   0.103   2.475 -0.5328  0.6546 -0.4812
 1883TIP3    H1 5592   2.864   0.082   2.397 -1.1523  0.7098 -0.0974
 1883TIP3    H2 5593   3.006   0.091   2.449 -0.8507 -3.2562 -0.1263
 1884TIP3   OH2 5594   7.291   7.468   3.061 -0.5710 -0.7630  0.9329
 1884TIP3    H1 5595   7.291   7.456   3.156 -1.3370 -1.1637  0.8848
 1884TIP3    H2 5596   7.336   7.391   3.027  0.5342 -0.1784  1.0081
 1885TIP3   OH2 5597   0.181   6.942   4.680  0.9022 -0.2411 -0.4385
 1885TIP3    H1 5598   0.254   6.934   4.742 -0.3770  0.2644  1.1585
 1885TIP3    H2 5599   0.138   7.024   4.704  0.7438  0.2924 -2.4141
 1886TIP3   OH2 5600   2.604   1.394   1.888  0.7829 -0.3754  0.1905
 1886TIP3    H1 5601   2.542   1.466   1.878  1.3812 -0.0699 -1.6009
 1886TIP3    H2 5602   2.553   1.315   1.872  0.8004 -0.1357 -1.0909
 1887TIP3   OH2 5603   2.456   0.747   4.521  0.8611  0.2625  0.0768
 1887TIP3    H1 5604   2.519   0.809   4.483 -1.0670  2.1332 -0.1848
 1887TIP3    H2 5605   2.490   0.729   4.609  1.6029  1.4772  0.0497
 1888TIP3   OH2 5606   3.186   0.234   4.108  1.0225 -0.1807  0.0265
 1888TIP3    H1 5607   3.230   0.319   4.099  0.6093  0.2891  2.2314
 1888TIP3    H2 5608   3.207   0.206   4.197  0.1773 -1.8433 -0.2918
 1889TIP3   OH2 5609   2.630   0.221   4.112  0.7132 -0.4604 -0.0041
 1889TIP3    H1 5610   2.582   0.300   4.087  1.1251  0.0398  0.7460
 1889TIP3    H2 5611   2.638   0.171   4.031  1.5356  0.8588 -0.7628
 1890TIP3   OH2 5612   3.599   2.463   3.623  0.1734  0.0055 -0.2318
 1890TIP3    H1 5613   3.595   2.451   3.718  0.0102  1.7306 -0.0023
 1890TIP3    H2 5614   3.648   2.387   3.591 -1.1533 -1.4202  1.0556
 1891TIP3   OH2 5615   3.371   7.673   2.565 -0.0208  0.1526 -0.6490
 1891TIP3    H1 5616   3.430   7.608   2.526 -0.6970 -0.7046 -0.2571
 1891TIP3    H2 5617   3.385   7.753   2.513  0.3695 -0.4753 -1.5183
 1892TIP3   OH2 5618   3.055   0.953   4.478 -0.1637 -0.4542  0.1372
 1892TIP3    H1 5619   3.143   0.974   4.448  0.3839 -1.5214  0.9527
 1892TIP3    H2 5620   3.028   0.879   4.424 -0.4239 -0.3529  0.1281
 1893TIP3   OH2 5621   0.573   0.480   3.364  0.5633  0.0970 -0.0019
 1893TIP3    H1 5622   0.574   0.434   3.280 -2.5064 -1.0016  0.4938
 1893TIP3    H2 5623   0.572   0.411   3.430 -2.2346  0.8169  0.7990
 1894TIP3   OH2 5624   4.097   0.164   4.353  0.3621 -0.3314  0.0853
 1894TIP3    H1 5625   4.137   0.201   4.274 -0.4817  2.1728  0.7753
 1894TIP3    H2 5626   4.015   0.125   4.322  0.4989 -0.2227 -0.4227
 1895TIP3   OH2 5627   1.599   2.815   4.340 -0.1911  0.7643  0.7027
 1895TIP3    H1 5628   1.565   2.841   4.255 -0.0950 -2.4460 -0.3789
 1895TIP3    H2 5629   1.694   2.818   4.330 -0.1736 -0.3686  0.4085
 1896TIP3   OH2 5630   0.743   6.464   5.236 -0.1008 -0.0232 -0.1561
 1896TIP3    H1 5631   0.818   6.495   5.286 -1.5173  2.1308  0.7507
 1896TIP3    H2 5632   0.698   6.404   5.295  1.2078 -1.8054 -0.9307
 1897TIP3   OH2 5633   8.412   7.863   2.328  0.6316 -0.5268  0.0778
 1897TIP3    H1 5634   8.483   7.898   2.274  1.2377 -1.1398  0.4735
 1897TIP3    H2 5635   8.453   7.845   2.413  0.2343 -1.8073  0.0037
 1898TIP3   OH2 5636   2.118   1.725   3.056  0.8171 -0.1667  0.5825
 1898TIP3    H1 5637   2.104   1.750   3.148  0.6743  0.9167  0.2778
 1898TIP3    H2 5638   2.120   1.630   3.057  0.5334 -0.1708  1.6761
 1899TIP3   OH2 5639   1.639   6.580   2.331 -0.7138  0.1421  0.9667
 1899TIP3    H1 5640   1.717   6.535   2.364 -0.7269  0.6771  1.7348
 1899TIP3    H2 5641   1.601   6.519   2.268  1.5317  0.7452 -1.0789
 1900TIP3   OH2 5642   1.006   1.179   3.193 -0.2879 -0.0001  0.0175
 1900TIP3    H1 5643   0.930   1.214   3.240  0.2471 -0.2091  1.0466
 1900TIP3    H2 5644   0.975   1.168   3.103 -1.4020  0.1675  0.3707
 1901TIP3   OH2 5645   0.785  -0.024   4.972 -0.4632 -0.2870  0.2120
 1901TIP3    H1 5646   0.755   0.064   4.948 -1.4354 -0.5771  0.3406
 1901TIP3    H2 5647   0.861  -0.009   5.028 -1.0434  0.4977  0.8062
 1902TIP3   OH2 5648   8.163   7.710   3.300 -0.0268  0.0907  0.2006
 1902TIP3    H1 5649   8.104   7.650   3.346  0.8452  1.0011  2.6177
 1902TIP3    H2 5650   8.217   7.653   3.246  1.1879 -1.4582  2.9123
 1903TIP3   OH2 5651   7.819   5.146   3.962 -0.8635  0.3437 -0.1145
 1903TIP3    H1 5652   7.859   5.226   3.927  0.6606 -0.8261 -1.1272
 1903TIP3    H2 5653   7.768   5.175   4.038  1.3196  2.0168  0.7694
 1904TIP3   OH2 5654   1.550   5.975   4.524  0.5312  0.5012 -0.7644
 1904TIP3    H1 5655   1.483   5.922   4.568 -0.2911  0.3644 -2.1511
 1904TIP3    H2 5656   1.623   5.978   4.586  1.0336 -3.1668 -1.0679
 1905TIP3   OH2 5657   1.314   0.922   0.659 -0.0178 -0.2645  1.1242
 1905TIP3    H1 5658   1.318   0.929   0.563 -0.8125 -0.3764  1.0795
 1905TIP3    H2 5659   1.400   0.889   0.684 -0.5182 -2.3252  0.2542
 1906TIP3   OH2 5660   2.763   7.642   4.878 -0.0040 -0.1266 -0.4329
 1906TIP3    H1 5661   2.766   7.611   4.787 -1.2230 -0.7158 -0.2848
 1906TIP3    H2 5662   2.734   7.733   4.872  0.5871  0.0472 -0.6761
 1907TIP3   OH2 5663   1.695   7.189   2.073 -0.2939 -0.2630 -0.4344
 1907TIP3    H1 5664   1.763   7.123   2.086 -0.9804 -1.2441 -1.5921
 1907TIP3    H2 5665   1.741   7.266   2.041  0.5209 -0.1993  0.8886
 1908TIP3   OH2 5666   1.039   0.194   4.168 -0.3655  0.2952 -0.1182
 1908TIP3    H1 5667   1.117   0.180   4.220 -0.9297  0.0401  0.6572
 1908TIP3    H2 5668   1.006   0.107   4.147 -0.1314  0.3923 -0.9198
 1909TIP3   OH2 5669   6.018   7.905   5.120  1.0890 -0.3588  0.3529
 1909TIP3    H1 5670   6.037   7.850   5.045  1.0846 -1.9109  1.4719
 1909TIP3    H2 5671   5.939   7.866   5.159  0.7547  0.7759  0.8341
 1910TIP3   OH2 5672   5.488   0.510   5.428  0.3017 -0.1496  0.5218
 1910TIP3    H1 5673   5.562   0.569   5.442  0.0420  0.1732  0.5405
 1910TIP3    H2 5674   5.487   0.495   5.333  0.9734 -0.9180  0.6332
 1911TIP3   OH2 5675   0.926   0.266   2.408 -0.3350 -0.5204  0.5119
 1911TIP3    H1 5676   0.851   0.312   2.444  1.6202  1.4016  2.2870
 1911TIP3    H2 5677   1.001   0.302   2.456  1.9531 -0.7667 -2.7419
 1912TIP3   OH2 5678   8.079   7.885   3.109 -0.0610 -0.4796 -0.1548
 1912TIP3    H1 5679   8.107   7.829   3.182 -0.9970  0.1904  0.7237
 1912TIP3    H2 5680   7.986   7.866   3.099  0.0480 -0.5166 -1.1394
 1913TIP3   OH2 5681   2.901   0.437   4.405  0.4439  0.5048  0.0695
 1913TIP3    H1 5682   2.809   0.430   4.383  0.0938 -2.7091  2.1980
 1913TIP3    H2 5683   2.944   0.460   4.323 -1.9262 -0.7763 -1.5964
 1914TIP3   OH2 5684   0.105   7.563   4.518  0.4336 -0.5869  0.2109
 1914TIP3    H1 5685   0.168   7.491   4.517  1.3956  0.2223  1.4849
 1914TIP3    H2 5686   0.067   7.561   4.606  1.0801  0.9801  0.5332
 1915TIP3   OH2 5687   4.136   1.582   3.654  0.1618  0.0953 -0.0300
 1915TIP3    H1 5688   4.155   1.508   3.711 -2.2755 -1.1309 -0.7275
 1915TIP3    H2 5689   4.198   1.573   3.582 -0.0605 -1.2399 -0.0658
 1916TIP3   OH2 5690   5.754   0.556   4.340  0.9536  0.5657 -0.0442
 1916TIP3    H1 5691   5.770   0.577   4.432 -0.5774  0.6510  0.2082
 1916TIP3    H2 5692   5.733   0.462   4.340 -1.4992  1.0867  0.0283
 1917TIP3   OH2 5693   6.124   7.653   4.775  0.1987 -0.3425  0.4312
 1917TIP3    H1 5694   6.183   7.667   4.849  0.0482 -0.5966  0.5978
 1917TIP3    H2 5695   6.173   7.686   4.699  0.5783 -0.6082  0.5611
 1918TIP3   OH2 5696   4.118   1.257   3.408 -0.0606 -0.0659 -0.1989
 1918TIP3    H1 5697   4.039   1.309   3.393  1.3539  1.8547 -1.2440
 1918TIP3    H2 5698   4.162   1.300   3.481  0.0924 -1.0744  0.3168
 1919TIP3   OH2 5699   4.188   0.986   3.367 -0.2921 -0.3826 -0.1369
 1919TIP3    H1 5700   4.103   0.947   3.383 -0.8705  0.4436 -1.1533
 1919TIP3    H2 5701   4.176   1.079   3.385  0.7145 -0.4564  0.9271
 1920TIP3   OH2 5702   3.777   0.490   2.545  0.4441 -0.4851 -0.0089
 1920TIP3    H1 5703   3.832   0.558   2.584 -0.7322 -1.4119  3.4165
 1920TIP3    H2 5704   3.837   0.417   2.528  0.6860 -0.6902  1.6727
 1921TIP3   OH2 5705   1.020   7.775   3.438  0.2086 -0.9169  0.6475
 1921TIP3    H1 5706   1.004   7.757   3.531  0.6101 -1.5175  0.6020
 1921TIP3    H2 5707   1.107   7.738   3.422 -0.1382 -1.3845 -0.1307
 1922TIP3   OH2 5708   3.516   0.411   1.839  0.2810 -0.2355 -0.3252
 1922TIP3    H1 5709   3.505   0.316   1.849 -0.8674 -0.0379  0.4250
 1922TIP3    H2 5710   3.513   0.426   1.745 -0.2889 -0.8622 -0.4091
 1923TIP3   OH2 5711   2.112   1.308   4.899 -0.1606  0.3440  0.3997
 1923TIP3    H1 5712   2.092   1.397   4.929 -0.4773 -0.4815  2.8301
 1923TIP3    H2 5713   2.142   1.263   4.978  1.7741 -1.2192 -1.1714
 1924TIP3   OH2 5714   7.883   7.436   3.871  0.1268 -0.2930 -0.3877
 1924TIP3    H1 5715   7.828   7.512   3.891 -2.3641 -1.6675 -1.8842
 1924TIP3    H2 5716   7.918   7.410   3.956 -2.0228  0.2478  0.7014
 1925TIP3   OH2 5717   0.395   7.138   5.474 -0.1209  0.0044  0.0059
 1925TIP3    H1 5718   0.477   7.103   5.510 -0.6052  0.1676  1.3013
 1925TIP3    H2 5719   0.331   7.069   5.489 -0.8268  0.9546  1.5171
 1926TIP3   OH2 5720   7.552   6.989   3.052 -0.2256  0.1072 -0.0770
 1926TIP3    H1 5721   7.609   6.966   2.979 -0.7043  2.5665 -1.2873
 1926TIP3    H2 5722   7.609   7.033   3.115  0.2752 -2.3968  1.2820
 1927TIP3   OH2 5723   0.787   7.417   2.242  0.4373 -0.5667 -0.4356
 1927TIP3    H1 5724   0.854   7.395   2.177  1.6658  1.7636 -0.0214
 1927TIP3    H2 5725   0.810   7.506   2.271 -0.9710 -0.9711  2.0632
 1928TIP3   OH2 5726   7.710   6.906   4.384  0.5598 -0.0193 -0.0443
 1928TIP3    H1 5727   7.689   6.844   4.454  0.2068  0.6569  0.4646
 1928TIP3    H2 5728   7.805   6.915   4.386  0.4276  1.2828  1.4870
 1929TIP3   OH2 5729   0.965   1.310   4.154  0.1451 -0.6478 -0.1881
 1929TIP3    H1 5730   1.051   1.273   4.176  0.0600 -2.0046 -1.9903
 1929TIP3    H2 5731   0.925   1.244   4.098 -1.2849  0.8573 -0.9637
 1930TIP3   OH2 5732   3.464   1.114   0.811  0.1226  0.6291 -0.5116
 1930TIP3    H1 5733   3.560   1.109   0.820  0.1168  0.3602 -0.6077
 1930TIP3    H2 5734   3.433   1.141   0.898  0.1849 -0.4982 -0.1363
 1931TIP3   OH2 5735   5.200   0.543   4.515 -0.0132  0.4529 -0.4792
 1931TIP3    H1 5736   5.116   0.527   4.558 -0.4901  1.2617 -1.0849
 1931TIP3    H2 5737   5.200   0.637   4.497  0.6608  0.3149 -1.2462
 1932TIP3   OH2 5738   3.954   0.302   5.504  0.0928 -0.5812 -0.1191
 1932TIP3    H1 5739   3.888   0.233   5.511 -1.8066  1.2536  0.8445
 1932TIP3    H2 5740   3.908   0.381   5.534  1.8226  1.3404 -2.4074
 1933TIP3   OH2 5741   4.042   0.320   2.210  0.8782 -0.0394  0.5820
 1933TIP3    H1 5742   3.968   0.329   2.150  0.6756 -0.2275  0.8006
 1933TIP3    H2 5743   4.009   0.352   2.294  0.8425 -0.7097  0.8299
 1934TIP3   OH2 5744   3.849   1.633   4.543 -0.3608 -0.7573 -0.1215
 1934TIP3    H1 5745   3.861   1.722   4.576 -0.8195 -0.7167 -0.0550
 1934TIP3    H2 5746   3.935   1.607   4.510 -0.3649 -0.0742 -0.6811
 1935TIP3   OH2 5747   2.602   0.676   3.916 -0.4505 -0.4825 -0.1654
 1935TIP3    H1 5748   2.664   0.669   3.844  1.1662 -1.5839  1.2810
 1935TIP3    H2 5749   2.548   0.752   3.895 -0.7634 -1.4575 -3.0571
 1936TIP3   OH2 5750   2.467   2.536   2.883  0.2915 -0.2240  0.4613
 1936TIP3    H1 5751   2.438   2.575   2.965  0.1671 -2.1533  1.3603
 1936TIP3    H2 5752   2.532   2.597   2.849 -2.3433  2.5054  0.0650
 1937TIP3   OH2 5753   6.970   7.068   3.479  0.3305 -0.3304  0.4315
 1937TIP3    H1 5754   6.937   7.081   3.568 -0.2917  1.5837 -0.0557
 1937TIP3    H2 5755   6.992   7.156   3.448 -0.4727 -0.8444 -1.6935
 1938TIP3   OH2 5756   7.053   7.735   3.781  0.3991  0.1351 -0.3772
 1938TIP3    H1 5757   7.060   7.641   3.796  0.8988 -0.1813 -2.3929
 1938TIP3    H2 5758   7.143   7.767   3.789  0.4089  0.2405 -0.8776
 1939TIP3   OH2 5759   0.167   7.562   2.657  0.2306  0.3687  0.3559
 1939TIP3    H1 5760   0.219   7.604   2.726 -0.1755  1.0303  0.2672
 1939TIP3    H2 5761   0.110   7.501   2.704  1.8777 -1.1911  0.3487
 1940TIP3   OH2 5762   3.000   0.531   4.188  0.4721 -0.0752 -0.0039
 1940TIP3    H1 5763   2.964   0.506   4.103  0.2124  0.0517  0.0700
 1940TIP3    H2 5764   3.079   0.581   4.166  1.5219 -1.7542 -0.1328
 1941TIP3   OH2 5765   4.163   2.123   3.708  0.1826 -0.2844  0.1645
 1941TIP3    H1 5766   4.086   2.171   3.677 -0.6936 -1.1095  1.0359
 1941TIP3    H2 5767   4.159   2.040   3.662  1.2942  0.1689 -0.7803
 1942TIP3   OH2 5768   1.425   7.705   4.162 -0.4723  0.3280 -0.1056
 1942TIP3    H1 5769   1.521   7.708   4.171 -0.5718  1.4462  0.7324
 1942TIP3    H2 5770   1.401   7.618   4.194  0.4335 -0.7083 -2.1903
 1943TIP3   OH2 5771   1.641   0.065   3.683  0.2922 -0.0244  0.3652
 1943TIP3    H1 5772   1.550   0.049   3.711  0.1580  0.5804  0.2893
 1943TIP3    H2 5773   1.640   0.047   3.589  0.3027 -0.2490  0.4094
 1944TIP3   OH2 5774   1.547   6.700   2.816  0.0157 -0.5457  0.2175
 1944TIP3    H1 5775   1.459   6.709   2.778 -0.4402  0.3575  1.4421
 1944TIP3    H2 5776   1.583   6.622   2.774 -0.4970  0.3422 -1.9799
 1945TIP3   OH2 5777   3.676   0.250   2.284 -0.1605  0.0939 -0.5426
 1945TIP3    H1 5778   3.583   0.250   2.304 -0.0761 -0.7742 -0.1281
 1945TIP3    H2 5779   3.713   0.320   2.338 -0.3847 -0.3473  0.1809
 1946TIP3   OH2 5780   4.233   1.013   5.275 -0.0506  0.2175 -0.0058
 1946TIP3    H1 5781   4.325   0.996   5.295 -0.3567 -0.5604  0.7503
 1946TIP3    H2 5782   4.198   1.052   5.355  0.0455  2.1798 -0.8889
 1947TIP3   OH2 5783   1.109   5.047   5.374  0.6633  0.5699 -0.1481
 1947TIP3    H1 5784   1.092   5.126   5.323 -0.4853 -0.0714 -0.7735
 1947TIP3    H2 5785   1.103   4.976   5.310 -1.6177 -0.3182  1.0169
 1948TIP3   OH2 5786   3.723   1.055   0.850  0.2413  0.3723 -0.0733
 1948TIP3    H1 5787   3.811   1.093   0.852  0.0958  0.7061  3.3421
 1948TIP3    H2 5788   3.737   0.962   0.866  0.0209  0.3492 -0.0136
 1949TIP3   OH2 5789   2.650   1.040   3.244 -0.1436  0.4231 -1.2228
 1949TIP3    H1 5790   2.592   1.011   3.314 -2.1031  1.4998 -2.3480
 1949TIP3    H2 5791   2.730   1.067   3.289 -0.8651 -0.1853  0.4631
 1950TIP3   OH2 5792   5.097   1.413   4.079 -0.6169  0.3889  0.2605
 1950TIP3    H1 5793   5.060   1.461   4.004  0.5868  1.4676  0.3430
 1950TIP3    H2 5794   5.056   1.454   4.156  0.1849  1.0976  0.3163
 1951TIP3   OH2 5795   4.431   0.369   5.091  0.0934  0.0286  0.1884
 1951TIP3    H1 5796   4.492   0.417   5.146  0.8653 -1.9509  1.0917
 1951TIP3    H2 5797   4.446   0.404   5.003  0.0055  2.0431  0.9498
 1952TIP3   OH2 5798   3.171   1.762   4.459  0.1851  0.4352  0.4928
 1952TIP3    H1 5799   3.233   1.702   4.499  0.4142  0.0904 -0.3615
 1952TIP3    H2 5800   3.222   1.840   4.438  0.3578  0.1215 -0.2817
 1953TIP3   OH2 5801   0.244   6.774   2.971  0.2537  0.8639  0.1774
 1953TIP3    H1 5802   0.228   6.751   3.062 -0.0906  0.9134  0.1289
 1953TIP3    H2 5803   0.308   6.845   2.975  0.5784  0.5616  0.3626
 1954TIP3   OH2 5804   0.884   6.796   4.086  0.6082 -0.0654 -0.1579
 1954TIP3    H1 5805   0.817   6.730   4.105 -0.3111  0.4935 -1.3803
 1954TIP3    H2 5806   0.884   6.852   4.163  0.9778 -1.1302  0.6364
 1955TIP3   OH2 5807   1.533   3.084   3.175  0.0500 -0.4158 -0.3082
 1955TIP3    H1 5808   1.575   3.090   3.261  1.2051 -0.6038 -0.8468
 1955TIP3    H2 5809   1.507   3.174   3.154  0.4257 -0.2536 -0.0795
 1956TIP3   OH2 5810   2.180   1.402   3.995  0.3695 -0.0675  0.3804
 1956TIP3    H1 5811   2.188   1.320   3.946 -1.8384 -0.1758  0.1526
 1956TIP3    H2 5812   2.253   1.400   4.057 -0.7755 -3.1488  1.7394
 1957TIP3   OH2 5813   3.345   2.936   2.871 -0.3701 -0.4303  0.0131
 1957TIP3    H1 5814   3.322   2.967   2.784 -1.3827 -0.3881  0.2860
 1957TIP3    H2 5815   3.387   2.851   2.857 -2.8653 -1.6344 -0.3513
 1958TIP3   OH2 5816   1.930   0.880   2.969  0.7892 -0.0437 -0.1036
 1958TIP3    H1 5817   2.001   0.903   3.028 -1.0523  1.2667  1.6586
 1958TIP3    H2 5818   1.942   0.937   2.893  1.4614  0.3534  0.2987
 1959TIP3   OH2 5819   5.449   1.503   3.492 -0.3733 -0.3713  0.6558
 1959TIP3    H1 5820   5.360   1.472   3.477 -0.9849  1.3667  0.5221
 1959TIP3    H2 5821   5.444   1.598   3.477  1.0829  0.0293  2.5044
 1960TIP3   OH2 5822   3.550   0.123   1.840 -0.2539 -0.0365  0.1010
 1960TIP3    H1 5823   3.635   0.138   1.883  0.2116  0.2388 -0.9152
 1960TIP3    H2 5824   3.571   0.115   1.747 -1.3767  0.2569 -0.1789
 1961TIP3   OH2 5825   1.912   0.190   4.500  0.1481 -0.6171  0.3774
 1961TIP3    H1 5826   1.939   0.208   4.590 -1.3367 -1.3165  0.9734
 1961TIP3    H2 5827   1.982   0.134   4.465  0.2464 -1.1424  1.4035
 1962TIP3   OH2 5828   1.397   2.084   3.262  0.8444  0.3375  0.0147
 1962TIP3    H1 5829   1.316   2.134   3.257  2.4563  2.8386 -2.1971
 1962TIP3    H2 5830   1.400   2.036   3.179  1.8806  0.6862 -0.1507
 1963TIP3   OH2 5831   1.785   2.209   4.465 -0.3931  0.3430 -0.2537
 1963TIP3    H1 5832   1.762   2.212   4.558  0.3892  2.1249 -0.1001
 1963TIP3    H2 5833   1.709   2.244   4.420 -1.7568 -2.7758 -0.5178
 1964TIP3   OH2 5834   1.858   3.650   4.376  0.3296 -0.4312  0.0503
 1964TIP3    H1 5835   1.795   3.617   4.312 -0.2945  0.7251  0.0666
 1964TIP3    H2 5836   1.884   3.572   4.426 -3.0797 -0.5035  1.8006
 1965TIP3   OH2 5837   6.240   2.138   5.515 -0.1829  0.4581  0.3067
 1965TIP3    H1 5838   6.239   2.192   5.436 -2.4378 -0.0667 -0.0389
 1965TIP3    H2 5839   6.148   2.122   5.535  0.4222 -2.7823  0.7661
 1966TIP3   OH2 5840   2.598   1.143   2.511 -0.0591  0.3417  0.5809
 1966TIP3    H1 5841   2.575   1.188   2.592 -0.5218  0.6492  0.2775
 1966TIP3    H2 5842   2.657   1.073   2.539  0.9310  1.3189  1.0338
 1967TIP3   OH2 5843   1.655   7.348   2.502 -0.1325  0.0052 -0.1026
 1967TIP3    H1 5844   1.617   7.261   2.494 -0.1453  0.0059 -0.0540
 1967TIP3    H2 5845   1.652   7.367   2.596 -1.3265  0.5974 -0.2552
 1968TIP3   OH2 5846   6.030   0.004   2.217 -0.3916  0.1763  0.4374
 1968TIP3    H1 5847   5.967  -0.068   2.214 -2.0970  1.6691 -0.6524
 1968TIP3    H2 5848   5.980   0.079   2.248  0.6927  1.5270 -0.9479
 1969TIP3   OH2 5849   4.157   0.910   2.167 -0.6246 -0.6384  0.0663
 1969TIP3    H1 5850   4.075   0.949   2.199  0.4820  0.2550  1.8907
 1969TIP3    H2 5851   4.130   0.852   2.096 -2.5184  2.1302 -1.5902
 1970TIP3   OH2 5852   2.638   1.821   2.431  0.8117 -0.0674 -0.6290
 1970TIP3    H1 5853   2.583   1.750   2.396  0.6022  0.3731 -1.2069
 1970TIP3    H2 5854   2.726   1.783   2.437  0.5048 -0.6805  0.0105
 1971TIP3   OH2 5855   2.414   2.776   5.071 -0.6255  0.1983 -0.2154
 1971TIP3    H1 5856   2.321   2.796   5.085 -0.2253  1.6621  0.5153
 1971TIP3    H2 5857   2.418   2.681   5.067 -2.3085  0.1452 -1.3282
 1972TIP3   OH2 5858   6.670   5.938   3.259 -0.1784 -0.2164 -0.0829
 1972TIP3    H1 5859   6.623   5.856   3.269  0.2263 -0.7092 -2.1196
 1972TIP3    H2 5860   6.605   5.999   3.225  0.0364 -0.2364 -0.5276
 1973TIP3   OH2 5861   1.126   7.249   3.853 -0.2622 -0.1656  0.2755
 1973TIP3    H1 5862   1.207   7.298   3.842  0.5674 -1.1872  1.6752
 1973TIP3    H2 5863   1.066   7.286   3.788  0.9071  1.4721  0.1098
 1974TIP3   OH2 5864   1.140   5.747   3.025  0.1139 -0.3972 -0.1197
 1974TIP3    H1 5865   1.098   5.817   2.974  0.2630  1.7690  2.5804
 1974TIP3    H2 5866   1.068   5.707   3.073  0.4804  0.1743  0.9119
 1975TIP3   OH2 5867   3.116   1.513   3.909 -0.3911  0.2774  0.6380
 1975TIP3    H1 5868   3.062   1.558   3.844 -0.5451 -2.5985 -1.2880
 1975TIP3    H2 5869   3.055   1.495   3.981 -1.2798 -0.2235 -0.2176
 1976TIP3   OH2 5870   5.070   1.715   4.325  0.6939 -0.0538 -0.4399
 1976TIP3    H1 5871   5.002   1.668   4.276  0.2704 -0.6165  0.6655
 1976TIP3    H2 5872   5.150   1.665   4.309  0.7532  0.3187 -1.3333
 1977TIP3   OH2 5873   5.877   0.387   2.052  0.1367 -0.0068 -0.3036
 1977TIP3    H1 5874   5.913   0.463   2.098 -0.7004 -0.1377  0.5816
 1977TIP3    H2 5875   5.892   0.314   2.112 -1.5488 -0.0728  0.0672
 1978TIP3   OH2 5876   2.522   0.914   2.093 -0.2529  0.7836 -0.0009
 1978TIP3    H1 5877   2.558   0.861   2.022  0.0149  1.8894 -0.6895
 1978TIP3    H2 5878   2.428   0.896   2.091 -0.3930  1.6068 -1.3060
 1979TIP3   OH2 5879   4.560   0.581   4.060 -0.4503  0.0934  0.0736
 1979TIP3    H1 5880   4.562   0.566   4.154  0.2603 -1.4768 -0.1708
 1979TIP3    H2 5881   4.653   0.585   4.034 -0.6044  3.1417 -0.1906
 1980TIP3   OH2 5882   2.806   6.077   2.598  0.2255  0.2074  0.1226
 1980TIP3    H1 5883   2.755   6.023   2.538 -0.5096  1.1319 -0.0797
 1980TIP3    H2 5884   2.895   6.077   2.561 -0.2817  0.9836 -1.0937
 1981TIP3   OH2 5885   5.540   1.313   2.368 -0.3132 -0.2140 -0.5921
 1981TIP3    H1 5886   5.621   1.364   2.379 -0.1404 -0.7899  0.9429
 1981TIP3    H2 5887   5.479   1.374   2.325  1.6201 -0.4841 -3.9398
 1982TIP3   OH2 5888   5.656   0.653   3.896  0.3985  0.1433  0.0885
 1982TIP3    H1 5889   5.691   0.674   3.982  1.4097 -0.3518 -0.1993
 1982TIP3    H2 5890   5.671   0.559   3.886 -2.2899 -0.3731  0.5411
 1983TIP3   OH2 5891   7.096   1.023   3.787 -0.2616  0.7417 -0.3722
 1983TIP3    H1 5892   7.184   0.988   3.776 -0.2448  0.9655 -0.9596
 1983TIP3    H2 5893   7.102   1.114   3.758 -0.8978  0.4950 -1.3220
 1984TIP3   OH2 5894   3.907   0.678   4.036  1.0217 -0.0139  0.8576
 1984TIP3    H1 5895   3.942   0.742   4.098 -0.0759 -0.6129  2.1236
 1984TIP3    H2 5896   3.973   0.609   4.033  0.9431 -0.1271  1.5939
 1985TIP3   OH2 5897   3.114   7.025   3.288 -0.2872 -0.3032 -0.3670
 1985TIP3    H1 5898   3.138   6.941   3.251 -0.8833 -0.6691  0.0649
 1985TIP3    H2 5899   3.143   7.020   3.379 -1.9197 -0.7226  0.1407
 1986TIP3   OH2 5900   5.075   6.193   2.989 -0.2003 -0.4222  0.3808
 1986TIP3    H1 5901   5.134   6.265   2.965  1.0942 -1.4174  0.4839
 1986TIP3    H2 5902   5.133   6.118   2.998 -1.3747 -1.2082  1.4820
 1987TIP3   OH2 5903   6.524   1.117   2.941 -0.4598 -0.7774 -0.3571
 1987TIP3    H1 5904   6.568   1.179   2.999  1.0175  0.7283 -2.9952
 1987TIP3    H2 5905   6.435   1.152   2.934 -0.2787 -0.2407 -0.0558
 1988TIP3   OH2 5906   7.929   7.830   1.467  0.0157  0.2663  0.0530
 1988TIP3    H1 5907   7.994   7.776   1.511  0.5970  0.9403  0.0263
 1988TIP3    H2 5908   7.957   7.832   1.375  1.2825  2.4266  0.4300
 1989TIP3   OH2 5909   6.202   0.064   0.887 -0.6493 -0.0089  0.9101
 1989TIP3    H1 5910   6.162   0.133   0.940 -1.0290 -1.0507  2.0059
 1989TIP3    H2 5911   6.290   0.053   0.924 -0.7909 -0.4889  1.1214
 1990TIP3   OH2 5912   1.614   2.453   3.224 -0.2562  0.1908 -0.0690
 1990TIP3    H1 5913   1.591   2.371   3.181 -0.8867  1.0631 -1.4405
 1990TIP3    H2 5914   1.644   2.510   3.153  0.6959  0.9732  0.9360
 1991TIP3   OH2 5915   5.378   2.142   3.851 -0.1605 -0.2148  0.0364
 1991TIP3    H1 5916   5.384   2.210   3.917 -1.6223 -0.4799  0.4628
 1991TIP3    H2 5917   5.430   2.069   3.886  0.1513  0.1246  0.2746
 1992TIP3   OH2 5918   4.307   3.074   3.909  0.9584  0.2363 -0.2147
 1992TIP3    H1 5919   4.224   3.030   3.926 -0.1194  2.3823  0.3719
 1992TIP3    H2 5920   4.316   3.075   3.814  0.4762 -0.3328 -0.2644
 1993TIP3   OH2 5921   4.536   3.361   3.867  0.3407 -0.0854 -0.0673
 1993TIP3    H1 5922   4.615   3.393   3.823 -0.3861  1.1255 -0.4816
 1993TIP3    H2 5923   4.484   3.321   3.797  0.3269 -0.3870  0.1140
 1994TIP3   OH2 5924   0.733   6.863   1.650 -0.1086  0.3733  0.2118
 1994TIP3    H1 5925   0.638   6.860   1.640 -0.0338 -1.7198  0.0601
 1994TIP3    H2 5926   0.747   6.873   1.744 -0.4667  0.4281  0.2619
 1995TIP3   OH2 5927   3.389   0.435   4.158 -0.4394 -0.8469  0.2681
 1995TIP3    H1 5928   3.339   0.517   4.162 -1.3437 -1.3660 -0.1038
 1995TIP3    H2 5929   3.436   0.439   4.075 -1.4529 -1.2324 -0.3439
 1996TIP3   OH2 5930   2.245   0.456   2.067  0.1530  0.0240  0.4953
 1996TIP3    H1 5931   2.183   0.506   2.015 -1.0352 -2.0189 -0.1324
 1996TIP3    H2 5932   2.290   0.521   2.120 -1.0604  1.7742 -0.5677
 1997TIP3   OH2 5933   2.779   1.745   4.535 -0.4590  0.1650 -0.4205
 1997TIP3    H1 5934   2.788   1.763   4.628 -1.1834 -1.5198 -0.0053
 1997TIP3    H2 5935   2.718   1.811   4.503  3.0996  3.5169 -0.6414
 1998TIP3   OH2 5936   3.699   2.208   3.511  0.6840  0.6404  0.2381
 1998TIP3    H1 5937   3.614   2.211   3.467 -1.0871  0.3642  3.4639
 1998TIP3    H2 5938   3.739   2.127   3.481 -0.2717  0.6533 -1.1355
 1999TIP3   OH2 5939   5.654   1.918   1.976 -0.3878  0.5445  0.5308
 1999TIP3    H1 5940   5.646   1.980   1.904 -2.3177 -0.8633 -0.5354
 1999TIP3    H2 5941   5.630   1.968   2.054  0.6216  1.7894  0.0650
 2000TIP3   OH2 5942   3.429   1.712   2.197 -0.4779  0.6822 -0.0161
 2000TIP3    H1 5943   3.503   1.748   2.147 -0.3774  1.0796  0.4110
 2000TIP3    H2 5944   3.466   1.636   2.242  0.3629  2.3455  2.2224
 2001TIP3   OH2 5945   3.204   1.125   2.547 -0.3028 -0.1086 -0.6365
 2001TIP3    H1 5946   3.182   1.157   2.460 -1.4874  0.6340 -0.0719
 2001TIP3    H2 5947   3.206   1.029   2.538 -0.2988 -0.0292 -1.4989
 2002TIP3   OH2 5948   6.647   1.427   3.650 -0.2854  0.4481 -0.1214
 2002TIP3    H1 5949   6.645   1.433   3.554 -1.1584 -2.3264 -0.3344
 2002TIP3    H2 5950   6.739   1.420   3.672 -0.1515 -0.3352 -0.8939
 2003TIP3   OH2 5951   3.044   0.310   4.927  0.3554 -0.5055  0.2147
 2003TIP3    H1 5952   2.993   0.365   4.868  2.4391  3.4089  1.8645
 2003TIP3    H2 5953   3.120   0.283   4.876 -0.5880 -1.7862 -0.5463
 2004TIP3   OH2 5954   2.715   0.754   0.917 -0.3549  0.0266 -0.0877
 2004TIP3    H1 5955   2.700   0.845   0.943  1.3214  0.7246 -1.4120
 2004TIP3    H2 5956   2.802   0.734   0.951 -0.0932 -0.5733 -1.0942
 2005TIP3   OH2 5957   7.721   7.418   2.203  0.1320  0.7632 -0.1059
 2005TIP3    H1 5958   7.787   7.454   2.263 -0.0500  0.5579  0.2163
 2005TIP3    H2 5959   7.643   7.408   2.257 -0.4069  1.7786 -0.6877
 2006TIP3   OH2 5960   2.577   6.109   4.323  0.5083 -0.2849 -0.2675
 2006TIP3    H1 5961   2.593   6.075   4.412  0.4374  2.0588  0.6796
 2006TIP3    H2 5962   2.530   6.191   4.337  0.1341 -0.0875 -2.5187
 2007TIP3   OH2 5963   2.955   2.983   3.237 -0.4128 -0.5058 -0.1185
 2007TIP3    H1 5964   2.871   2.941   3.220 -0.6158 -0.7634  1.4452
 2007TIP3    H2 5965   3.005   2.917   3.285 -0.1185  0.4386  0.8885
 2008TIP3   OH2 5966   4.312   0.948   3.909 -0.2131  0.2124 -0.5349
 2008TIP3    H1 5967   4.361   1.008   3.966  1.2415 -1.0516 -0.4110
 2008TIP3    H2 5968   4.280   0.880   3.968 -1.7977  0.8051 -0.6907
 2009TIP3   OH2 5969   1.624   7.727   3.779 -0.5131 -0.3510  0.2585
 2009TIP3    H1 5970   1.668   7.643   3.765  0.9479  0.2276  1.1952
 2009TIP3    H2 5971   1.679   7.791   3.734  0.8932  0.6915  3.2717
 2010TIP3   OH2 5972   7.615   1.461   3.166  0.0412  0.4510  0.1104
 2010TIP3    H1 5973   7.533   1.506   3.187 -1.2293 -1.4237 -0.6909
 2010TIP3    H2 5974   7.674   1.484   3.238 -1.3516  1.4083  0.9786
 2011TIP3   OH2 5975   6.017   0.429   0.987 -0.1918  0.2986 -0.0958
 2011TIP3    H1 5976   6.011   0.433   1.083  1.2170 -1.3254  0.0786
 2011TIP3    H2 5977   5.941   0.377   0.960 -0.4235  0.5027  0.1650
 2012TIP3   OH2 5978   3.511   7.387   3.571  0.0049  0.0394 -0.2861
 2012TIP3    H1 5979   3.435   7.423   3.524 -1.5394 -1.6070  0.8794
 2012TIP3    H2 5980   3.535   7.456   3.633 -0.4112  0.6622 -0.8041
 2013TIP3   OH2 5981   4.656   1.613   3.990  0.8931 -0.5054  0.1306
 2013TIP3    H1 5982   4.664   1.669   4.067  0.4471 -1.2507  0.7272
 2013TIP3    H2 5983   4.562   1.600   3.979  0.9979 -1.2382  0.0709
 2014TIP3   OH2 5984   4.890   0.049   3.709 -0.1069  0.5543 -0.0302
 2014TIP3    H1 5985   4.810   0.024   3.662  0.2437  1.2196 -0.9948
 2014TIP3    H2 5986   4.883   0.144   3.719  0.8046  0.6779 -0.5638
 2015TIP3   OH2 5987   8.259   7.626   4.630 -0.1168  0.6414  0.6408
 2015TIP3    H1 5988   8.199   7.699   4.644 -0.8366 -0.1214  1.5408
 2015TIP3    H2 5989   8.216   7.573   4.563  0.1365  0.7266  0.4078
 2016TIP3   OH2 5990   4.337   2.768   3.591  0.1747 -0.7249  0.1622
 2016TIP3    H1 5991   4.257   2.816   3.611  1.4331  1.2318  0.5514
 2016TIP3    H2 5992   4.365   2.731   3.676  0.6066  0.0379  0.3583
 2017TIP3   OH2 5993   0.482   4.132   4.569 -0.0871  0.2288 -0.1965
 2017TIP3    H1 5994   0.535   4.211   4.569  1.8397 -1.0045  0.9371
 2017TIP3    H2 5995   0.441   4.130   4.655 -0.3752  0.1358 -0.3320
 2018TIP3   OH2 5996   1.188   6.175   2.936  0.0906 -0.0292  0.0107
 2018TIP3    H1 5997   1.220   6.253   2.889 -1.1160  0.9476  0.7828
 2018TIP3    H2 5998   1.182   6.203   3.027 -0.5446 -0.9758  0.2648
 2019TIP3   OH2 5999   6.314   0.704   3.274 -0.4315  0.5869 -0.1871
 2019TIP3    H1 6000   6.253   0.777   3.288 -1.8895 -0.4928 -0.8273
 2019TIP3    H2 6001   6.326   0.666   3.361 -2.1610 -0.3480 -0.3278
 2020TIP3   OH2 6002   6.943   0.785   4.519 -0.0522  0.2794 -0.3797
 2020TIP3    H1 6003   6.967   0.867   4.562 -0.4132  0.5170 -0.6254
 2020TIP3    H2 6004   6.992   0.786   4.436  2.0787 -1.0278  0.8055
 2021TIP3   OH2 6005   5.020   1.537   3.480  0.3555  0.5671 -0.2388
 2021TIP3    H1 6006   5.028   1.509   3.389 -0.7192 -0.5302 -0.0134
 2021TIP3    H2 6007   5.047   1.460   3.531 -1.8216  0.1764  0.3839
 2022TIP3   OH2 6008   3.854   0.070   3.481  0.7175  0.0522 -0.1599
 2022TIP3    H1 6009   3.824   0.012   3.410 -0.5815  1.1577 -0.5391
 2022TIP3    H2 6010   3.864   0.012   3.556  0.9395 -0.9286 -0.9301
 2023TIP3   OH2 6011   4.403   1.441   3.737 -0.3436 -0.1794 -0.1451
 2023TIP3    H1 6012   4.396   1.462   3.643 -1.7141  0.3525  0.0642
 2023TIP3    H2 6013   4.426   1.348   3.738 -1.5032 -0.5028 -1.0195
 2024TIP3   OH2 6014   3.136   0.412   5.698  0.1676 -0.0035 -0.2217
 2024TIP3    H1 6015   3.159   0.365   5.778  0.5711  0.8204  0.1595
 2024TIP3    H2 6016   3.180   0.497   5.707  0.2219  0.0917 -1.3207
 2025TIP3   OH2 6017   3.144   1.221   2.922 -0.0154 -0.1255  0.0829
 2025TIP3    H1 6018   3.105   1.136   2.900  0.1483  0.1017 -1.1053
 2025TIP3    H2 6019   3.075   1.285   2.903 -0.5051 -0.0703  1.9806
 2026TIP3   OH2 6020   1.175   7.231   3.533  0.0483 -0.6422  0.2973
 2026TIP3    H1 6021   1.135   7.318   3.533 -1.1299 -1.1830  1.3007
 2026TIP3    H2 6022   1.198   7.216   3.441 -0.1708  0.5266  0.0404
 2027TIP3   OH2 6023   3.458   0.649   2.409  0.6202  0.2977  0.0285
 2027TIP3    H1 6024   3.374   0.693   2.405  1.4080  1.8764  0.5994
 2027TIP3    H2 6025   3.475   0.622   2.318 -0.5387 -0.1366 -0.0635
 2028TIP3   OH2 6026   3.394   2.389   2.122  0.5240  0.0426 -0.4615
 2028TIP3    H1 6027   3.389   2.449   2.197 -2.0936 -0.2609 -0.3505
 2028TIP3    H2 6028   3.458   2.324   2.149  0.2137  0.3904  1.2055
 2029TIP3   OH2 6029   1.717   6.845   3.306 -0.4602 -0.2442 -0.1795
 2029TIP3    H1 6030   1.662   6.792   3.248  1.3832 -2.3057 -0.1312
 2029TIP3    H2 6031   1.662   6.861   3.383 -1.2696 -1.6092 -0.4437
 2030TIP3   OH2 6032   4.336   0.252   3.710  0.4892  0.2176 -0.3286
 2030TIP3    H1 6033   4.278   0.194   3.759 -0.0111  1.5160  0.6485
 2030TIP3    H2 6034   4.384   0.194   3.652  2.1694 -1.5887  2.7175
 2031TIP3   OH2 6035   5.500   1.553   2.670 -0.2846 -0.2337  0.4754
 2031TIP3    H1 6036   5.533   1.609   2.599 -1.2263 -0.0008  0.2217
 2031TIP3    H2 6037   5.580   1.517   2.710  0.2174 -1.3873 -1.5123
 2032TIP3   OH2 6038   4.931   1.555   3.914  0.2180 -0.5333  0.6367
 2032TIP3    H1 6039   4.840   1.581   3.926  0.0819 -1.2904  1.2773
 2032TIP3    H2 6040   4.981   1.632   3.941 -0.2328  0.1319 -0.3801
 2033TIP3   OH2 6041   8.288   1.550   2.088  0.0017  0.2418  0.1204
 2033TIP3    H1 6042   8.367   1.588   2.126  0.2456  0.3277 -0.4567
 2033TIP3    H2 6043   8.287   1.460   2.120 -0.0352  0.4397  0.6843
 2034TIP3   OH2 6044   7.054   5.833   2.668  0.0124  0.0783  0.8399
 2034TIP3    H1 6045   7.131   5.877   2.705  0.8833 -2.0311  1.6047
 2034TIP3    H2 6046   6.980   5.883   2.702  0.9826  1.5717  0.8533
 2035TIP3   OH2 6047   1.317   1.105   4.996  1.1923 -0.1995 -0.5156
 2035TIP3    H1 6048   1.395   1.136   5.042  0.1413  1.3181  0.2834
 2035TIP3    H2 6049   1.262   1.183   4.986 -0.1931 -1.2314 -1.1383
 2036TIP3   OH2 6050   3.587   1.266   3.951  0.0935 -0.0355 -0.2200
 2036TIP3    H1 6051   3.525   1.236   4.019  0.2157 -0.2413 -0.1977
 2036TIP3    H2 6052   3.549   1.233   3.869 -0.4660  0.8877 -0.3335
 2037TIP3   OH2 6053   5.249   1.448   2.625  0.0909 -0.0343 -0.4201
 2037TIP3    H1 6054   5.336   1.488   2.624  1.1825 -2.3262  0.9787
 2037TIP3    H2 6055   5.224   1.442   2.532 -0.6162  4.7999 -0.7182
 2038TIP3   OH2 6056   4.953   0.609   4.663  0.5285  0.2474  0.7758
 2038TIP3    H1 6057   5.001   0.691   4.653  0.5097  0.2134  0.3942
 2038TIP3    H2 6058   4.890   0.627   4.733  1.6323  0.0413  1.8421
 2039TIP3   OH2 6059   2.943   1.691   4.313 -0.3564  0.4415  0.2757
 2039TIP3    H1 6060   2.871   1.680   4.374 -0.5223  0.0148  0.0030
 2039TIP3    H2 6061   3.019   1.710   4.368 -0.1729 -1.5086  0.7270
 2040TIP3   OH2 6062   0.745   7.204   2.470  0.2921 -0.1126  0.1279
 2040TIP3    H1 6063   0.672   7.183   2.529  0.5006 -0.3664  0.2982
 2040TIP3    H2 6064   0.746   7.300   2.466 -1.4244 -0.1369 -1.5974
 2041TIP3   OH2 6065   3.656   1.323   3.027 -0.0228 -0.5520 -0.0232
 2041TIP3    H1 6066   3.592   1.324   3.099 -0.6978  0.4735 -0.6335
 2041TIP3    H2 6067   3.607   1.351   2.950  1.0878 -0.0380 -0.5600
 2042TIP3   OH2 6068   1.792   7.880   4.381 -0.4050 -0.0880  0.0678
 2042TIP3    H1 6069   1.809   7.818   4.452 -1.0973 -1.0803 -0.6184
 2042TIP3    H2 6070   1.754   7.827   4.311 -2.3366  1.3328 -0.0219
 2043TIP3   OH2 6071   2.011   1.225   3.115  0.1401 -0.0335  0.7875
 2043TIP3    H1 6072   2.032   1.171   3.191 -0.6921  0.3440  1.2931
 2043TIP3    H2 6073   1.928   1.191   3.083  0.1654  0.2342  0.4310
 2044TIP3   OH2 6074   1.124   1.918   3.488 -0.1754  0.3123  0.1232
 2044TIP3    H1 6075   1.136   2.013   3.498 -0.7400  0.4463 -0.4296
 2044TIP3    H2 6076   1.194   1.879   3.541 -0.0153  1.0364  0.4516
 2045TIP3   OH2 6077   1.860   7.901   1.961  0.8498  0.4626  0.0888
 2045TIP3    H1 6078   1.777   7.946   1.952  0.7389  0.4853  1.2167
 2045TIP3    H2 6079   1.862   7.839   1.888 -1.1329 -1.0922  1.3280
 2046TIP3   OH2 6080   3.251   2.312   3.665  0.3787 -0.1233 -0.5253
 2046TIP3    H1 6081   3.166   2.296   3.705 -0.1422 -0.2686 -1.6766
 2046TIP3    H2 6082   3.314   2.279   3.729 -0.4432 -0.4469  0.1269
 2047TIP3   OH2 6083   3.720   7.154   2.662  0.6039  0.6286 -0.0873
 2047TIP3    H1 6084   3.790   7.152   2.728 -0.1556  1.5077  0.7597
 2047TIP3    H2 6085   3.647   7.197   2.706 -0.8238 -1.1742 -0.6438
 2048TIP3   OH2 6086   4.343   1.719   3.362 -0.2189  0.1993  0.5023
 2048TIP3    H1 6087   4.384   1.741   3.279 -0.1281 -0.9534  0.2286
 2048TIP3    H2 6088   4.296   1.798   3.388 -0.9033  0.3027 -1.0370
 2049TIP3   OH2 6089   2.597   0.733   3.435 -0.0714 -0.4442  0.4927
 2049TIP3    H1 6090   2.612   0.797   3.505 -0.8957  2.0855 -1.5799
 2049TIP3    H2 6091   2.533   0.672   3.473  0.4251  0.1618  2.3728
 2050TIP3   OH2 6092   4.684   6.977   3.311  0.1581 -0.2633 -0.2324
 2050TIP3    H1 6093   4.602   7.011   3.275  0.4768  0.2851 -0.4365
 2050TIP3    H2 6094   4.738   6.959   3.234  0.6225  0.3620 -0.0479
 2051TIP3   OH2 6095   2.340   2.084   3.195  0.1857 -0.3370  0.2208
 2051TIP3    H1 6096   2.323   2.099   3.288 -0.4436 -0.3418  0.1131
 2051TIP3    H2 6097   2.431   2.109   3.183  0.3699 -0.6569  0.9055
 2052TIP3   OH2 6098   3.382   0.531   0.686  0.3331  0.3703 -0.3869
 2052TIP3    H1 6099   3.422   0.486   0.611 -1.2105 -0.9933 -0.4204
 2052TIP3    H2 6100   3.341   0.608   0.649 -0.4436 -0.3134 -0.9527
 2053TIP3   OH2 6101   4.878   0.692   3.478  0.0050 -0.6946  0.3792
 2053TIP3    H1 6102   4.833   0.638   3.413 -2.5325  0.0014  1.4868
 2053TIP3    H2 6103   4.812   0.756   3.505  1.6858  0.3701  2.0732
 2054TIP3   OH2 6104   5.459   0.253   2.247  0.6157  0.5157 -0.8455
 2054TIP3    H1 6105   5.454   0.237   2.152  0.0458  0.6992 -0.8506
 2054TIP3    H2 6106   5.405   0.331   2.261  1.9317  1.4033 -0.5729
 2055TIP3   OH2 6107   3.865   0.208   0.581  0.3129 -0.1140 -0.1865
 2055TIP3    H1 6108   3.775   0.229   0.606  0.9250  1.3523  0.8856
 2055TIP3    H2 6109   3.872   0.242   0.491  0.0700  0.6209  0.0645
 2056TIP3   OH2 6110   1.245   6.420   1.664  0.7692 -0.7633 -0.0399
 2056TIP3    H1 6111   1.331   6.377   1.659  1.7639  0.8715  2.0444
 2056TIP3    H2 6112   1.240   6.452   1.754 -1.3331  0.5861 -0.6079
 2057TIP3   OH2 6113   4.531   0.766   4.564  0.0210 -0.1331  0.0996
 2057TIP3    H1 6114   4.492   0.797   4.482 -0.6777 -0.4211  0.3203
 2057TIP3    H2 6115   4.458   0.764   4.626  0.2754 -1.2578  0.3598
 2058TIP3   OH2 6116   5.320   3.674   4.025 -0.1075  0.1686  0.5094
 2058TIP3    H1 6117   5.322   3.732   4.101  0.3739  0.1773  0.4886
 2058TIP3    H2 6118   5.409   3.675   3.991 -0.6104  1.1893 -0.8324
 2059TIP3   OH2 6119   5.324   0.954   2.369 -0.6005 -0.1572 -0.6997
 2059TIP3    H1 6120   5.250   0.913   2.324 -0.3183  0.1811 -1.4750
 2059TIP3    H2 6121   5.401   0.917   2.326 -0.3249 -0.0757 -0.2772
 2060TIP3   OH2 6122   1.832   1.411   3.551 -0.2056 -0.4677 -0.0424
 2060TIP3    H1 6123   1.843   1.389   3.644  0.9551 -2.2775 -0.5758
 2060TIP3    H2 6124   1.754   1.362   3.525 -2.4958  2.6129  0.7254
 2061TIP3   OH2 6125   7.906   4.947   0.466 -0.2326 -0.6071  0.0551
 2061TIP3    H1 6126   7.874   4.996   0.390 -4.2730 -0.4782  1.7027
 2061TIP3    H2 6127   7.874   4.858   0.453 -1.2233 -0.5109  1.7162
 2062TIP3   OH2 6128   2.547   7.005   5.284  0.1476  0.4414 -0.0964
 2062TIP3    H1 6129   2.515   6.948   5.354 -2.7225 -0.4318 -2.0109
 2062TIP3    H2 6130   2.567   6.945   5.212  0.1666  1.5769 -1.0459
 2063TIP3   OH2 6131   2.533   7.286   3.673  0.5886  0.0325 -0.2090
 2063TIP3    H1 6132   2.475   7.247   3.739 -2.0008  3.2033 -0.4344
 2063TIP3    H2 6133   2.483   7.280   3.591  2.2445 -0.6161 -1.1957
 2064TIP3   OH2 6134   3.425   1.836   5.488 -0.1133  0.2322 -0.0580
 2064TIP3    H1 6135   3.473   1.761   5.524  1.1052  0.5801 -0.9280
 2064TIP3    H2 6136   3.473   1.912   5.520 -0.6385  0.6118 -0.1717
 2065TIP3   OH2 6137   5.526   0.046   4.337  0.0418  0.1326 -0.2430
 2065TIP3    H1 6138   5.495   0.117   4.280  0.6453  0.8374  0.2843
 2065TIP3    H2 6139   5.480   0.060   4.420  0.8582  0.4748  0.1608
 2066TIP3   OH2 6140   2.714   7.919   6.687  0.1822  0.3504  0.1159
 2066TIP3    H1 6141   2.725   7.923   6.592 -0.6116  0.1639  0.0139
 2066TIP3    H2 6142   2.801   7.894   6.720  0.3243 -0.1019 -0.5938
 2067TIP3   OH2 6143   3.944   7.963   3.229 -0.1007  0.1636  0.0213
 2067TIP3    H1 6144   3.988   7.967   3.314  0.8569  0.7395 -0.4858
 2067TIP3    H2 6145   3.946   8.053   3.196 -1.1139  0.0859 -0.2936
 2068TIP3   OH2 6146   1.183   7.270   5.265  0.2276 -0.3037 -0.0958
 2068TIP3    H1 6147   1.228   7.201   5.315 -1.0795  0.5496  2.3207
 2068TIP3    H2 6148   1.251   7.335   5.249  0.3103  0.1993  2.0896
 2069TIP3   OH2 6149   8.232   7.055   3.163  0.5091  0.4262  0.4992
 2069TIP3    H1 6150   8.258   7.040   3.254  0.1451  2.1022  0.8978
 2069TIP3    H2 6151   8.291   7.125   3.133  1.0788 -0.5755 -0.7764
 2070TIP3   OH2 6152   3.359   0.422   3.399 -0.1147  0.9251  0.2444
 2070TIP3    H1 6153   3.408   0.348   3.364  2.0137  1.9284  1.0408
 2070TIP3    H2 6154   3.314   0.459   3.323 -1.2047 -1.1578 -0.1563
 2071TIP3   OH2 6155   3.313   1.915   2.702 -0.0662  0.0867  0.4037
 2071TIP3    H1 6156   3.332   1.989   2.759 -0.4857 -0.4289  1.2185
 2071TIP3    H2 6157   3.393   1.905   2.649  0.4701  0.3291  1.1544
 2072TIP3   OH2 6158   4.684   1.763   4.219 -0.6655 -0.4858 -0.4633
 2072TIP3    H1 6159   4.680   1.752   4.314 -2.1410 -0.9134 -0.5696
 2072TIP3    H2 6160   4.754   1.828   4.206 -0.0812 -0.8271  0.8698
 2073TIP3   OH2 6161   4.819   1.345   4.615 -0.9615 -0.1100 -0.1204
 2073TIP3    H1 6162   4.798   1.327   4.523 -2.3185 -1.9597  0.5184
 2073TIP3    H2 6163   4.817   1.259   4.657  1.6597  0.4584  1.2648
 2074TIP3   OH2 6164   3.257   0.190   3.225  0.3184  0.3888  0.5999
 2074TIP3    H1 6165   3.211   0.106   3.221 -0.8388  1.0180  0.4402
 2074TIP3    H2 6166   3.349   0.167   3.212  0.7052 -1.3884  5.3964
 2075TIP3   OH2 6167   3.055   2.126   5.301 -0.3572  0.8567 -0.6140
 2075TIP3    H1 6168   3.106   2.199   5.337 -0.1248  0.8755 -0.9792
 2075TIP3    H2 6169   2.964   2.151   5.316 -0.2845  1.2974 -0.8785
 2076TIP3   OH2 6170   1.019   7.628   4.138 -0.2798  0.2966  0.5269
 2076TIP3    H1 6171   1.019   7.674   4.054 -1.0745 -0.2813  0.2004
 2076TIP3    H2 6172   1.037   7.695   4.203  0.7915  0.6744 -0.1483
 2077TIP3   OH2 6173   6.875   3.253   4.318  0.3966  0.0769 -0.2751
 2077TIP3    H1 6174   6.935   3.224   4.387 -0.0254  0.1439  0.1255
 2077TIP3    H2 6175   6.910   3.215   4.238  1.6276  1.0698 -0.2197
 2078TIP3   OH2 6176   3.216   7.002   3.592  0.3725  0.4671  0.0771
 2078TIP3    H1 6177   3.124   7.027   3.586  0.6665  1.5505  0.0105
 2078TIP3    H2 6178   3.254   7.062   3.656  0.8548 -0.5094  0.7207
 2079TIP3   OH2 6179   6.593   0.868   3.775 -0.2722  0.0742 -0.1258
 2079TIP3    H1 6180   6.550   0.940   3.730  0.8098  0.6425 -0.2459
 2079TIP3    H2 6181   6.609   0.803   3.706 -0.0857  0.2614 -0.2599
 2080TIP3   OH2 6182   3.572   0.320   3.667  0.1164  0.0627  0.2807
 2080TIP3    H1 6183   3.612   0.394   3.712 -0.4368  0.7165 -0.3010
 2080TIP3    H2 6184   3.540   0.263   3.738  2.0630 -0.4757  0.7458
 2081TIP3   OH2 6185   5.725   0.657   3.632  0.2066 -0.1954  0.1776
 2081TIP3    H1 6186   5.678   0.574   3.635 -0.6014  0.1576 -1.5798
 2081TIP3    H2 6187   5.724   0.689   3.722 -2.0970 -0.6620  0.3469
 2082TIP3   OH2 6188   6.397   0.757   3.942 -0.0834 -0.4314  0.6999
 2082TIP3    H1 6189   6.447   0.733   4.020  2.0218 -2.7186 -1.2527
 2082TIP3    H2 6190   6.459   0.806   3.888 -1.5716  1.2996  0.5193
 2083TIP3   OH2 6191   1.593   5.819   3.303 -0.2407 -0.4173 -0.4098
 2083TIP3    H1 6192   1.548   5.826   3.219 -0.5141  1.5718 -0.1248
 2083TIP3    H2 6193   1.522   5.817   3.368  0.0228  0.5011 -0.0899
 2084TIP3   OH2 6194   1.329   7.922   6.149 -0.1334  0.1963 -0.1680
 2084TIP3    H1 6195   1.386   7.877   6.087 -0.0585  1.0703 -0.7347
 2084TIP3    H2 6196   1.286   7.991   6.098  3.5100  4.0653  1.7458
 2085TIP3   OH2 6197   2.662   7.709   2.714  0.1750 -0.0749  0.1102
 2085TIP3    H1 6198   2.715   7.754   2.780  0.5489 -0.4798  0.0923
 2085TIP3    H2 6199   2.689   7.617   2.721  0.3129 -0.0999 -0.6858
 2086TIP3   OH2 6200   0.802   7.984   4.072 -0.3513  0.7553  0.3271
 2086TIP3    H1 6201   0.779   7.986   3.979 -0.3459  0.7436  0.3256
 2086TIP3    H2 6202   0.723   7.954   4.117 -0.0792 -0.1056  0.2430
 2087TIP3   OH2 6203   3.313   1.987   0.862 -0.1163 -0.8713 -0.5791
 2087TIP3    H1 6204   3.230   1.949   0.831  0.1636 -1.3249 -0.7675
 2087TIP3    H2 6205   3.380   1.924   0.835  0.4571  0.2560 -1.8098
 2088TIP3   OH2 6206   0.902   1.996   3.302  0.6540 -0.3981  0.0041
 2088TIP3    H1 6207   0.962   1.954   3.241  0.2851  0.0083 -0.6434
 2088TIP3    H2 6208   0.940   1.979   3.389  1.0555 -1.1749 -0.3146
 2089TIP3   OH2 6209   6.754   2.204   3.979 -0.8491  0.0386  0.3969
 2089TIP3    H1 6210   6.783   2.169   4.063  0.0661 -1.4736 -0.5131
 2089TIP3    H2 6211   6.826   2.260   3.950 -0.0209 -1.4406 -0.5195
 2090TIP3   OH2 6212   6.033   1.216   2.969 -0.9219 -0.2021 -0.3938
 2090TIP3    H1 6213   5.990   1.287   3.017 -1.2665 -0.4224 -0.3733
 2090TIP3    H2 6214   5.998   1.136   3.008  2.0004 -0.4499  1.9016
 2091TIP3   OH2 6215   4.207   1.463   4.875 -0.6330  0.5871 -0.0852
 2091TIP3    H1 6216   4.269   1.426   4.938 -2.5053 -0.5395  1.1365
 2091TIP3    H2 6217   4.135   1.496   4.929 -1.9265  0.2856 -1.5891
 2092TIP3   OH2 6218   4.839   0.728   1.918 -0.0349  0.1140 -0.0275
 2092TIP3    H1 6219   4.919   0.764   1.955  0.7249 -2.0999  0.5736
 2092TIP3    H2 6220   4.785   0.706   1.994  0.6642 -2.4924 -0.2181
 2093TIP3   OH2 6221   5.915   1.726   3.599 -0.0111  0.0990 -0.0345
 2093TIP3    H1 6222   5.915   1.809   3.646 -0.1618  0.1587 -0.1416
 2093TIP3    H2 6223   5.987   1.735   3.536  1.3940 -0.6776  1.4193
 2094TIP3   OH2 6224   3.665   0.856   3.776  0.9963 -0.1680 -0.2609
 2094TIP3    H1 6225   3.718   0.926   3.737  1.1995 -0.3833 -0.3704
 2094TIP3    H2 6226   3.603   0.832   3.707 -0.4436  1.3266  0.4743
 2095TIP3   OH2 6227   4.531   3.155   4.085 -0.2213  0.5164 -0.5148
 2095TIP3    H1 6228   4.443   3.130   4.058 -0.2840  1.4173 -1.1548
 2095TIP3    H2 6229   4.566   3.205   4.011  0.2636  1.4452  0.3237
 2096TIP3   OH2 6230   5.520   0.415   4.551  0.0189 -0.1838  0.1342
 2096TIP3    H1 6231   5.589   0.475   4.579  0.4909 -0.2208 -0.9197
 2096TIP3    H2 6232   5.534   0.406   4.457 -1.4071 -0.2103 -0.0827
 2097TIP3   OH2 6233   4.706   0.894   3.355  0.8829 -0.0701  0.3167
 2097TIP3    H1 6234   4.629   0.899   3.298  0.3769  1.7507  1.1188
 2097TIP3    H2 6235   4.781   0.891   3.296  0.3116  0.7147 -0.4498
 2098TIP3   OH2 6236   4.123   0.039   2.470 -0.4267  0.4006  0.3025
 2098TIP3    H1 6237   4.119  -0.043   2.422  1.7271  1.4400 -1.7415
 2098TIP3    H2 6238   4.210   0.039   2.510  0.0455  2.2101 -0.6915
 2099TIP3   OH2 6239   5.726   0.504   1.844 -0.6482  0.0411 -0.3308
 2099TIP3    H1 6240   5.762   0.438   1.902 -0.0149  0.3609 -0.3535
 2099TIP3    H2 6241   5.766   0.586   1.873 -0.5350  0.2414 -1.0419
 2100TIP3   OH2 6242   3.294   7.206   3.804 -0.4366  0.3099 -1.0160
 2100TIP3    H1 6243   3.331   7.293   3.820 -0.3540 -0.1774  1.7066
 2100TIP3    H2 6244   3.202   7.214   3.830  0.0063 -0.8481  1.0760
 2101TIP3   OH2 6245   5.547   0.963   3.857  0.2076  0.4757  0.0322
 2101TIP3    H1 6246   5.501   0.881   3.876  0.6050 -0.3788 -2.5237
 2101TIP3    H2 6247   5.511   0.992   3.773  0.5965  2.5471  0.5640
 2102TIP3   OH2 6248   2.593   7.408   2.779  0.1924  0.4483  0.3120
 2102TIP3    H1 6249   2.505   7.379   2.805  0.2025 -1.2053 -1.3971
 2102TIP3    H2 6250   2.651   7.366   2.842  0.1180 -2.5204 -1.5186
 2103TIP3   OH2 6251   4.078   2.076   2.805  0.6169  0.0762  0.5400
 2103TIP3    H1 6252   4.072   2.031   2.890  0.1339 -0.2034  0.3602
 2103TIP3    H2 6253   4.043   2.164   2.823  0.2756 -0.0648  0.5720
 2104TIP3   OH2 6254   2.920   7.779   3.478  1.0337  0.1688  0.7626
 2104TIP3    H1 6255   2.863   7.703   3.467 -0.6310  1.2995  1.3753
 2104TIP3    H2 6256   2.955   7.796   3.390 -1.1013  0.6188 -0.0264
 2105TIP3   OH2 6257   5.948   0.153   4.685  0.1901  0.2605  0.4970
 2105TIP3    H1 6258   5.907   0.139   4.599 -0.0773  1.1634  0.4668
 2105TIP3    H2 6259   5.904   0.091   4.743 -0.0119  0.0193  0.0907
 2106TIP3   OH2 6260   8.121   5.507   3.254 -0.2311 -0.3821  0.0663
 2106TIP3    H1 6261   8.122   5.519   3.349  0.6676 -0.7683  0.1055
 2106TIP3    H2 6262   8.058   5.437   3.239  1.8921 -2.4527  0.6273
 2107TIP3   OH2 6263   4.403   2.452   3.587 -0.4128  0.0487  0.4742
 2107TIP3    H1 6264   4.320   2.428   3.627 -1.6754  1.0045 -1.5168
 2107TIP3    H2 6265   4.445   2.509   3.651 -1.7317  0.3935  1.0487
 2108TIP3   OH2 6266   2.480   1.368   3.351 -0.0182 -0.0017  0.1461
 2108TIP3    H1 6267   2.527   1.362   3.268  0.8514  0.6394  0.5845
 2108TIP3    H2 6268   2.388   1.358   3.327  0.2298  0.1735 -0.9013
 2109TIP3   OH2 6269   2.537   1.606   4.167 -0.0814 -0.1151  0.3696
 2109TIP3    H1 6270   2.522   1.513   4.150  0.1816 -0.1244  0.1654
 2109TIP3    H2 6271   2.601   1.631   4.100 -0.5200  0.3273  0.1176
 2110TIP3   OH2 6272   3.149   2.496   3.317  0.5328  0.3501 -0.0405
 2110TIP3    H1 6273   3.215   2.539   3.372 -1.0700  0.5740  1.7516
 2110TIP3    H2 6274   3.183   2.407   3.305  1.5458  0.6955  0.2097
 2111TIP3   OH2 6275   4.233   0.096   3.924 -0.0516 -0.7882 -0.1039
 2111TIP3    H1 6276   4.145   0.101   3.963 -0.2552 -1.0380 -0.5309
 2111TIP3    H2 6277   4.255   0.003   3.926 -0.6861 -1.0065 -1.9446
 2112TIP3   OH2 6278   4.049   3.157   3.858  0.2333 -0.4761 -0.0292
 2112TIP3    H1 6279   3.988   3.197   3.797 -0.1650 -0.3357  0.4535
 2112TIP3    H2 6280   4.135   3.188   3.830 -0.1400  1.4881  0.9035
 2113TIP3   OH2 6281   3.211   1.438   3.218  0.1619 -0.0548  0.3038
 2113TIP3    H1 6282   3.230   1.528   3.243 -0.0871  0.2350 -0.5217
 2113TIP3    H2 6283   3.158   1.446   3.138  2.5019 -0.9690 -1.3996
 2114TIP3   OH2 6284   4.708   2.478   2.871  0.3147  0.2817  0.4458
 2114TIP3    H1 6285   4.667   2.490   2.957  0.7323  0.6804  0.5872
 2114TIP3    H2 6286   4.791   2.435   2.890  0.8595  1.2889  0.3208
 2115TIP3   OH2 6287   5.433   1.991   3.621 -0.2382 -0.8373  0.4612
 2115TIP3    H1 6288   5.353   1.943   3.641  0.0620 -1.5192  0.0614
 2115TIP3    H2 6289   5.451   2.042   3.700 -2.5875  1.4895 -0.4740
 2116TIP3   OH2 6290   3.180   1.491   2.646  0.4002  0.1518  0.2406
 2116TIP3    H1 6291   3.202   1.465   2.735  1.1474 -2.1379 -0.5536
 2116TIP3    H2 6292   3.116   1.424   2.617  1.0048  0.2107 -1.2983
 2117TIP3   OH2 6293   2.396   1.510   4.371 -0.2617  0.7488  0.1636
 2117TIP3    H1 6294   2.437   1.566   4.304  0.2973  1.4925  1.1137
 2117TIP3    H2 6295   2.470   1.471   4.418 -0.6492  0.8964  0.8975
 2118TIP3   OH2 6296   4.369   1.531   4.273  0.4063  0.1286 -0.4605
 2118TIP3    H1 6297   4.312   1.517   4.197 -0.6383  0.6569  0.2249
 2118TIP3    H2 6298   4.316   1.581   4.334  0.8090 -1.3863  1.1580
 2119TIP3   OH2 6299   3.942   2.385   3.083  0.2651  0.7162 -0.0256
 2119TIP3    H1 6300   4.007   2.337   3.031  0.2472 -0.3788  0.9286
 2119TIP3    H2 6301   3.941   2.473   3.046 -0.5650 -0.3291 -2.5877
 2120TIP3   OH2 6302   4.425   0.110   3.461  0.2515 -0.1797 -0.2808
 2120TIP3    H1 6303   4.456   0.066   3.382  0.5929 -2.4915  1.1100
 2120TIP3    H2 6304   4.331   0.120   3.448  0.3282 -0.4334 -1.0402
 2121TIP3   OH2 6305   3.296   7.964   3.526 -0.0403 -0.0812  0.3826
 2121TIP3    H1 6306   3.262   7.986   3.613 -0.1541 -1.0230  0.5827
 2121TIP3    H2 6307   3.275   7.871   3.515 -0.9370  0.2869 -1.0862
 2122TIP3   OH2 6308   6.338   1.083   1.952 -0.6484 -0.5427  0.1186
 2122TIP3    H1 6309   6.379   1.169   1.944 -1.4030 -0.2576 -0.7627
 2122TIP3    H2 6310   6.373   1.047   2.033  0.6171  0.0857 -0.1451
 2123TIP3   OH2 6311   1.286   7.851   2.820  0.5323 -0.0017  0.3689
 2123TIP3    H1 6312   1.334   7.782   2.866  0.8241  0.4855  0.7966
 2123TIP3    H2 6313   1.323   7.850   2.732 -0.6035 -1.4959 -0.1189
 2124TIP3   OH2 6314   5.329   1.145   2.853  0.0653 -0.2596 -1.2685
 2124TIP3    H1 6315   5.244   1.189   2.843  1.1023  2.3693  0.8086
 2124TIP3    H2 6316   5.377   1.169   2.773  0.1937  1.4845 -0.6991
 2125TIP3   OH2 6317   8.176   0.901   0.781 -0.3645  0.4365  0.8016
 2125TIP3    H1 6318   8.201   0.931   0.868 -2.5822  0.6767  1.3882
 2125TIP3    H2 6319   8.147   0.810   0.794 -1.4157  0.7108  0.4596
 2126TIP3   OH2 6320   5.344   1.810   2.259  0.3693  0.0359  0.7374
 2126TIP3    H1 6321   5.264   1.796   2.309 -0.1375  1.1165  0.2651
 2126TIP3    H2 6322   5.367   1.901   2.276  0.7255  0.1332 -0.2161
 2127TIP3   OH2 6323   5.313   0.845   2.969  0.4146  0.2941 -0.8946
 2127TIP3    H1 6324   5.345   0.935   2.965 -1.6649  1.1307  0.1624
 2127TIP3    H2 6325   5.280   0.828   2.880 -0.1590  0.9662 -0.8179
 2128TIP3   OH2 6326   5.821   1.640   2.284  0.3509  0.0118 -0.0258
 2128TIP3    H1 6327   5.847   1.709   2.345  0.1335  0.3333 -0.2899
 2128TIP3    H2 6328   5.738   1.672   2.247  0.9646  0.2544 -1.1894
 2129TIP3   OH2 6329   4.500   2.825   2.115 -0.4057  0.1856 -0.0008
 2129TIP3    H1 6330   4.410   2.853   2.133 -0.2194  1.0967 -0.5048
 2129TIP3    H2 6331   4.538   2.813   2.202 -0.3992  1.7782  0.2293
 2130TIP3   OH2 6332   3.331   6.174   3.307 -0.5728 -0.0481 -0.0940
 2130TIP3    H1 6333   3.370   6.198   3.223 -1.8007  3.5758  0.2645
 2130TIP3    H2 6334   3.258   6.118   3.284  1.3989 -2.2589 -1.1413
 2131TIP3   OH2 6335   1.680   7.185   1.360  0.3053 -0.8950 -0.4365
 2131TIP3    H1 6336   1.745   7.217   1.421  0.2818  0.0701 -0.9083
 2131TIP3    H2 6337   1.705   7.223   1.276 -0.5052 -1.0128 -0.7356
 2132TIP3   OH2 6338   7.183   1.321   4.405  0.3533 -0.2591 -0.1928
 2132TIP3    H1 6339   7.217   1.281   4.325  2.2960 -1.9695  1.4426
 2132TIP3    H2 6340   7.156   1.409   4.379  0.7136 -0.8859 -2.7640
 2133TIP3   OH2 6341   6.033   2.345   2.390  0.0857 -0.3102 -0.1356
 2133TIP3    H1 6342   5.940   2.325   2.396 -0.1374  1.1889  1.9678
 2133TIP3    H2 6343   6.037   2.429   2.344  0.2632  0.4780  1.2840
 2134TIP3   OH2 6344   1.775   4.116   6.666 -0.9725 -0.2014 -0.2051
 2134TIP3    H1 6345   1.686   4.105   6.701 -1.0189  1.6073  0.2982
 2134TIP3    H2 6346   1.762   4.134   6.573 -1.1270 -0.2937 -0.2015
 2135TIP3   OH2 6347   4.421   2.574   3.013 -0.1128 -0.1627 -0.4018
 2135TIP3    H1 6348   4.501   2.576   3.066  0.0773 -0.8002 -0.6658
 2135TIP3    H2 6349   4.430   2.497   2.958 -0.9306 -0.2558 -0.4110
 2136TIP3   OH2 6350   1.373   1.228   1.521 -0.3745  0.2101  0.5270
 2136TIP3    H1 6351   1.358   1.317   1.554 -0.2063  0.9349 -1.2718
 2136TIP3    H2 6352   1.427   1.240   1.443  1.6262 -1.6661  1.5807
 2137TIP3   OH2 6353   0.660   7.958   3.831  0.0835  0.3985 -0.0262
 2137TIP3    H1 6354   0.582   7.908   3.856  0.4919 -0.8037 -1.0656
 2137TIP3    H2 6355   0.630   8.013   3.759  0.7703 -1.9434 -2.1599
 2138TIP3   OH2 6356   3.772   6.895   1.899  0.0538 -0.3412 -0.6040
 2138TIP3    H1 6357   3.825   6.831   1.851  1.6516 -0.4171  1.1874
 2138TIP3    H2 6358   3.685   6.854   1.906  0.8098 -1.9320 -0.2711
 2139TIP3   OH2 6359   0.496   1.155   2.941  0.4473 -0.0529  0.4872
 2139TIP3    H1 6360   0.534   1.209   3.010  0.7980 -0.6322  0.7482
 2139TIP3    H2 6361   0.478   1.217   2.869  0.2564  0.5136  1.0215
 2140TIP3   OH2 6362   7.000   1.558   1.425 -0.0586  0.0123 -0.0666
 2140TIP3    H1 6363   6.985   1.578   1.517 -3.9277 -1.1005 -0.3677
 2140TIP3    H2 6364   6.966   1.633   1.377 -0.8871 -0.7255 -0.6671
 2141TIP3   OH2 6365   6.382   1.012   3.216  0.6859  0.4610 -0.2650
 2141TIP3    H1 6366   6.369   0.991   3.308  1.1106 -2.5106 -0.8014
 2141TIP3    H2 6367   6.300   0.987   3.173  0.6795  1.3164 -0.7587
 2142TIP3   OH2 6368   5.282   1.154   3.147 -0.2780  0.0374  0.2783
 2142TIP3    H1 6369   5.191   1.131   3.165 -0.6024  0.2548 -1.0513
 2142TIP3    H2 6370   5.287   1.162   3.052  1.4118 -1.0944  0.2480
 2143TIP3   OH2 6371   8.031   0.146   3.581 -0.2081 -0.6357 -0.3349
 2143TIP3    H1 6372   8.073   0.125   3.665 -0.5864 -0.9972 -0.2325
 2143TIP3    H2 6373   8.099   0.133   3.516  0.0994 -0.3193 -0.0794
 2144TIP3   OH2 6374   5.723   0.121   1.181  0.0857 -1.1244 -0.1348
 2144TIP3    H1 6375   5.665   0.145   1.253 -0.8827  0.3156 -1.3499
 2144TIP3    H2 6376   5.803   0.172   1.196  0.0611 -1.1826  0.1861
 2145TIP3   OH2 6377   5.016   2.534   3.816 -0.4710  0.1146  0.6109
 2145TIP3    H1 6378   4.999   2.561   3.726 -1.7733 -2.4517  0.0354
 2145TIP3    H2 6379   5.087   2.471   3.809  0.0180  0.5631  1.4860
 2146TIP3   OH2 6380   7.349   1.517   1.473  0.2246  0.3065  0.1254
 2146TIP3    H1 6381   7.309   1.585   1.419  1.9456  0.7816 -0.5662
 2146TIP3    H2 6382   7.340   1.549   1.563  0.4686  1.1448 -0.1530
 2147TIP3   OH2 6383   7.127   1.561   1.048 -0.0236  0.7748  0.2695
 2147TIP3    H1 6384   7.097   1.515   0.970 -0.1494 -0.9513  1.2973
 2147TIP3    H2 6385   7.049   1.601   1.085  0.1915  2.3869 -0.9801
 2148TIP3   OH2 6386   6.900   0.421   3.420 -0.1240 -0.1328 -0.4442
 2148TIP3    H1 6387   6.921   0.362   3.492  1.3622  0.3540 -0.4574
 2148TIP3    H2 6388   6.951   0.387   3.346 -0.9202 -0.0793 -1.0319
 2149TIP3   OH2 6389   5.747   2.300   2.391 -0.1755 -1.1045 -0.4134
 2149TIP3    H1 6390   5.666   2.318   2.343 -0.4833 -1.5564 -0.0653
 2149TIP3    H2 6391   5.728   2.222   2.442  0.5606 -1.3498 -0.5102
 2150TIP3   OH2 6392   0.654   0.869   3.768  0.2562 -0.0947 -0.4766
 2150TIP3    H1 6393   0.705   0.790   3.787 -0.1766 -0.4785 -0.9011
 2150TIP3    H2 6394   0.718   0.940   3.771  0.5916 -0.4204  0.2222
 2151TIP3   OH2 6395   3.298   7.813   3.789  0.9861 -0.5707  0.3766
 2151TIP3    H1 6396   3.270   7.733   3.833  1.1780 -0.2761  1.0239
 2151TIP3    H2 6397   3.274   7.798   3.697  0.4336 -1.1051  0.5989
 2152TIP3   OH2 6398   0.117   0.588   3.527  0.7524  0.0974  0.6116
 2152TIP3    H1 6399   0.206   0.592   3.563  0.8485 -0.7672  0.4869
 2152TIP3    H2 6400   0.104   0.495   3.506  0.1493  0.3599 -0.2013
 2153TIP3   OH2 6401   4.912   2.047   2.455 -0.2608 -0.0603 -0.1905
 2153TIP3    H1 6402   4.989   2.043   2.513 -0.5775  0.0085  0.2359
 2153TIP3    H2 6403   4.853   1.980   2.490 -0.2274 -0.3836 -0.7593
 2154TIP3   OH2 6404   4.324   0.200   2.156  0.3506  0.5211  0.3205
 2154TIP3    H1 6405   4.229   0.211   2.145  0.4608  1.3311  0.0908
 2154TIP3    H2 6406   4.338   0.207   2.251  0.1405  0.0535  0.3855
 2155TIP3   OH2 6407   5.455   0.958   5.422  0.1732  0.7338  0.3333
 2155TIP3    H1 6408   5.385   1.005   5.468  0.0681 -0.0400  0.9877
 2155TIP3    H2 6409   5.535   0.985   5.467  0.0790  0.0424  0.9236
 2156TIP3   OH2 6410   3.732   2.724   3.812  0.9068  0.4171  0.5198
 2156TIP3    H1 6411   3.645   2.711   3.775  0.5840  0.1486  1.3507
 2156TIP3    H2 6412   3.777   2.781   3.750 -0.0758  1.0602  0.3997
 2157TIP3   OH2 6413   6.465   2.274   4.616 -0.7584 -0.4348  0.2527
 2157TIP3    H1 6414   6.478   2.229   4.532  0.6804  2.0171 -0.9079
 2157TIP3    H2 6415   6.372   2.262   4.636 -2.1799  2.5224 -3.8992
 2158TIP3   OH2 6416   5.472   1.762   3.418 -0.0314 -0.0651 -0.0989
 2158TIP3    H1 6417   5.446   1.831   3.479  1.1825 -0.9251  1.4454
 2158TIP3    H2 6418   5.550   1.796   3.374 -0.4421  0.2311 -0.6091
 2159TIP3   OH2 6419   6.885   0.423   4.572 -0.2903 -0.4240 -0.6295
 2159TIP3    H1 6420   6.805   0.450   4.526 -1.9108 -1.4216  1.4696
 2159TIP3    H2 6421   6.882   0.472   4.654  1.1227 -0.6804 -0.4182
 2160TIP3   OH2 6422   5.063   1.646   2.708  0.1445 -0.0763  0.3659
 2160TIP3    H1 6423   5.113   1.569   2.679 -0.8194 -0.5364 -0.1001
 2160TIP3    H2 6424   4.971   1.619   2.700 -0.1970  1.1020  0.2475
 2161TIP3   OH2 6425   7.990   0.046   3.259  0.0624  0.1419  0.4064
 2161TIP3    H1 6426   7.917  -0.006   3.293 -0.0879 -0.1114 -0.2940
 2161TIP3    H2 6427   8.068  -0.008   3.277 -0.0808 -0.2757 -0.2073
 2162TIP3   OH2 6428   7.628   0.678   2.679  0.2549  0.3150 -0.1904
 2162TIP3    H1 6429   7.609   0.733   2.755 -1.0721  0.0256 -0.2985
 2162TIP3    H2 6430   7.543   0.662   2.639  0.8375 -0.3125 -1.2088
 2163TIP3   OH2 6431   2.045   2.416   5.758 -0.2874 -0.0205 -0.0241
 2163TIP3    H1 6432   2.018   2.326   5.769 -0.8007  0.1247 -0.1184
 2163TIP3    H2 6433   1.989   2.466   5.817 -1.4034  0.4827 -1.4939
 2164TIP3   OH2 6434   2.058   1.145   4.581  0.0854 -0.1374 -0.4803
 2164TIP3    H1 6435   2.104   1.229   4.582 -0.9700  0.4583 -0.2821
 2164TIP3    H2 6436   2.018   1.139   4.667 -1.2620 -0.0310 -1.0848
 2165TIP3   OH2 6437   4.465   2.904   2.733 -0.2407  0.5184  0.5240
 2165TIP3    H1 6438   4.474   2.980   2.675  0.1702  0.6176  0.7135
 2165TIP3    H2 6439   4.393   2.928   2.792 -1.7935 -0.2951 -1.0258
 2166TIP3   OH2 6440   6.795   1.271   3.153  0.0714  0.5492 -0.1718
 2166TIP3    H1 6441   6.828   1.357   3.179  0.6529  0.2679  0.0235
 2166TIP3    H2 6442   6.870   1.227   3.113  0.4617 -0.7953  1.9476
 2167TIP3   OH2 6443   7.197   0.325   3.719  0.2985  0.0935 -0.2711
 2167TIP3    H1 6444   7.168   0.307   3.809  1.6899  1.1332  0.3998
 2167TIP3    H2 6445   7.144   0.267   3.665 -0.0142 -1.1112  1.2941
 2168TIP3   OH2 6446   6.722   0.966   3.398 -0.4951  0.3536  0.4864
 2168TIP3    H1 6447   6.761   0.927   3.320 -0.8908  3.4224 -1.3157
 2168TIP3    H2 6448   6.776   0.934   3.470  1.7295 -0.1415 -1.3488
 2169TIP3   OH2 6449   5.189   1.922   2.889 -0.5340 -0.4527 -0.7569
 2169TIP3    H1 6450   5.259   1.974   2.929 -0.9575  1.2281 -2.1333
 2169TIP3    H2 6451   5.226   1.834   2.881  1.4594  0.4234 -1.5378
 2170TIP3   OH2 6452   3.827   1.771   2.715  0.5013 -0.3382 -0.0228
 2170TIP3    H1 6453   3.761   1.840   2.705 -1.5247 -2.2724 -0.5786
 2170TIP3    H2 6454   3.848   1.771   2.808 -1.1166 -0.3994  0.3541
 2171TIP3   OH2 6455   3.685   0.129   1.567 -0.3076 -0.2340 -0.2160
 2171TIP3    H1 6456   3.669   0.038   1.543  0.1983  0.0768 -1.8067
 2171TIP3    H2 6457   3.666   0.178   1.487 -1.5095  1.1495  0.9113
 2172TIP3   OH2 6458   6.171   2.931   3.678  0.5969 -0.7271 -0.0444
 2172TIP3    H1 6459   6.175   2.835   3.681 -2.0090 -0.8758 -0.1823
 2172TIP3    H2 6460   6.238   2.955   3.613 -0.7719 -2.6505 -2.2599
 2173TIP3   OH2 6461   5.187   2.236   4.115  0.4556  0.3284 -0.1626
 2173TIP3    H1 6462   5.222   2.296   4.049  0.1041 -1.2908 -1.8782
 2173TIP3    H2 6463   5.261   2.219   4.174  0.7681  1.8254 -0.1047
 2174TIP3   OH2 6464   5.665   7.998   3.262 -0.4611 -0.1647 -0.2476
 2174TIP3    H1 6465   5.746   7.950   3.278 -0.5260  0.2404  1.3223
 2174TIP3    H2 6466   5.693   8.078   3.217 -0.2394 -1.0964 -1.8043
 2175TIP3   OH2 6467   3.576   7.509   2.443  0.5930 -0.5289  0.3751
 2175TIP3    H1 6468   3.584   7.414   2.450 -0.2372 -0.7042 -0.9976
 2175TIP3    H2 6469   3.632   7.533   2.369 -0.7844 -0.1803 -0.5532
 2176TIP3   OH2 6470   5.267   0.854   2.699  0.1723 -0.1033 -0.8356
 2176TIP3    H1 6471   5.272   0.944   2.667  2.0358  0.0504 -0.1294
 2176TIP3    H2 6472   5.221   0.807   2.629  2.1011  0.7297 -2.6990
 2177TIP3   OH2 6473   2.798   7.149   1.384  0.2753 -0.1745  0.6357
 2177TIP3    H1 6474   2.744   7.227   1.380  0.8262  0.1153 -1.4194
 2177TIP3    H2 6475   2.747   7.087   1.437 -1.1115  0.8142  0.4711
 2178TIP3   OH2 6476   4.895   2.114   3.816 -0.3306 -0.0792  0.6440
 2178TIP3    H1 6477   4.894   2.030   3.862  1.1686 -0.2831  0.3197
 2178TIP3    H2 6478   4.859   2.093   3.729 -0.1914 -0.3371  0.6465
 2179TIP3   OH2 6479   5.270   0.967   1.713  0.2132  0.2408 -0.3836
 2179TIP3    H1 6480   5.251   0.895   1.773  0.3818  2.9696  3.0960
 2179TIP3    H2 6481   5.366   0.971   1.711  0.2046  0.9251  0.1931
 2180TIP3   OH2 6482   6.488   1.017   3.529 -0.4114  0.3991  0.0110
 2180TIP3    H1 6483   6.563   1.006   3.470 -0.4412 -1.5141  0.2904
 2180TIP3    H2 6484   6.510   1.093   3.583  2.1461 -1.1368  1.2456
 2181TIP3   OH2 6485   2.490   7.747   4.482 -0.3576  0.3413  0.1073
 2181TIP3    H1 6486   2.527   7.799   4.554 -1.3431  2.2585 -0.7517
 2181TIP3    H2 6487   2.402   7.723   4.513 -0.2347 -0.0709  0.1377
 2182TIP3   OH2 6488   6.646   1.592   2.253  0.4150 -0.3151  0.2039
 2182TIP3    H1 6489   6.634   1.501   2.280 -0.5839 -0.1340  0.3907
 2182TIP3    H2 6490   6.559   1.621   2.225  0.5095  0.8951  1.1115
 2183TIP3   OH2 6491   3.271   2.346   1.417 -0.2782  0.2911  0.5283
 2183TIP3    H1 6492   3.340   2.386   1.365  0.5716  0.1207  1.5003
 2183TIP3    H2 6493   3.312   2.329   1.502 -1.3933 -0.2023  0.9794
 2184TIP3   OH2 6494   7.536   0.163   1.262  0.8212 -0.4574  0.3308
 2184TIP3    H1 6495   7.591   0.126   1.331  1.0687 -1.9882 -0.6661
 2184TIP3    H2 6496   7.594   0.222   1.214  0.4847  1.0994  1.7886
 2185TIP3   OH2 6497   7.062   1.137   1.975  0.2337 -0.1355 -0.1578
 2185TIP3    H1 6498   7.134   1.114   2.035 -0.6236 -0.9656  0.5854
 2185TIP3    H2 6499   7.037   1.053   1.936 -1.7365 -0.1946  1.1932
 2186TIP3   OH2 6500   6.842   1.915   2.873  0.4265 -0.2882 -0.1804
 2186TIP3    H1 6501   6.913   1.852   2.888  0.0383 -0.9662 -1.1553
 2186TIP3    H2 6502   6.887   1.999   2.860  1.0897 -0.7868 -1.2030
 2187TIP3   OH2 6503   5.970   1.316   2.724 -0.0093 -0.2424 -0.0900
 2187TIP3    H1 6504   5.968   1.270   2.808 -0.9671  0.9270  0.5334
 2187TIP3    H2 6505   6.054   1.362   2.725 -0.2774  0.2422  0.4907
 2188TIP3   OH2 6506   4.676   1.759   3.691 -0.0468  0.1918 -0.0172
 2188TIP3    H1 6507   4.671   1.803   3.775  0.0024 -0.5131  0.3588
 2188TIP3    H2 6508   4.656   1.667   3.710  1.1885 -0.1994 -0.5767
 2189TIP3   OH2 6509   0.500   0.467   4.037  0.2845  0.0265 -0.3511
 2189TIP3    H1 6510   0.462   0.379   4.032  0.9787 -0.1815 -2.0299
 2189TIP3    H2 6511   0.595   0.453   4.031  0.3967  0.9046 -0.6415
 2190TIP3   OH2 6512   3.989   0.355   3.255  0.5438 -0.3741  0.0656
 2190TIP3    H1 6513   3.931   0.389   3.324  0.1845 -2.1432  0.6544
 2190TIP3    H2 6514   4.077   0.377   3.285  0.3870 -1.0904  1.0785
 2191TIP3   OH2 6515   8.424   2.177   1.319  0.4299  0.2643 -0.3977
 2191TIP3    H1 6516   8.518   2.159   1.314 -0.3869 -4.7481 -0.2507
 2191TIP3    H2 6517   8.390   2.152   1.233 -0.9153  1.2475 -0.1755
 2192TIP3   OH2 6518   6.360   0.204   2.365  0.0703 -0.4407  0.2622
 2192TIP3    H1 6519   6.325   0.255   2.438  2.3317  2.3097 -0.5190
 2192TIP3    H2 6520   6.349   0.260   2.288  2.6862 -1.0447 -0.6199
 2193TIP3   OH2 6521   5.938   0.764   1.209  0.4068  0.2013  0.2000
 2193TIP3    H1 6522   5.860   0.758   1.264  0.4350  0.4890  0.2739
 2193TIP3    H2 6523   5.905   0.791   1.123  0.5235  1.2929  0.4886
 2194TIP3   OH2 6524   2.650   7.605   3.057  0.1673  0.3162  0.2325
 2194TIP3    H1 6525   2.652   7.653   3.140  0.1212  1.0592 -0.1952
 2194TIP3    H2 6526   2.698   7.660   2.996 -1.2998  0.6136 -0.6741
 2195TIP3   OH2 6527   0.913   5.863   3.751 -0.1682  0.2671  0.0960
 2195TIP3    H1 6528   0.876   5.786   3.708  2.2129 -0.3780 -0.8919
 2195TIP3    H2 6529   0.993   5.830   3.793 -0.4266  1.7037  1.7632
 2196TIP3   OH2 6530   4.035   6.823   2.926  0.0824 -0.2909  0.0506
 2196TIP3    H1 6531   4.054   6.777   3.008 -0.4259  0.4553  0.5927
 2196TIP3    H2 6532   3.961   6.775   2.889  0.8800 -1.1800 -0.4309
 2197TIP3   OH2 6533   5.265   0.419   2.341  0.2799 -0.2122 -0.2593
 2197TIP3    H1 6534   5.211   0.446   2.266 -1.8026  0.2962  1.3808
 2197TIP3    H2 6535   5.293   0.501   2.380 -0.3655 -0.4507  0.7190
 2198TIP3   OH2 6536   0.031   0.238   3.151  0.5898 -0.0652 -0.1638
 2198TIP3    H1 6537   0.080   0.240   3.069 -1.0482 -1.4611 -1.2175
 2198TIP3    H2 6538   0.010   0.329   3.169 -0.7440  0.0956 -2.3788
 2199TIP3   OH2 6539   5.601   2.351   3.712 -0.3776  0.1795 -0.1786
 2199TIP3    H1 6540   5.568   2.393   3.791  0.2576 -1.8971  1.2374
 2199TIP3    H2 6541   5.525   2.305   3.675 -0.4999  0.5087 -0.3333
 2200TIP3   OH2 6542   5.258   0.942   0.332  0.1232 -0.2973  0.4709
 2200TIP3    H1 6543   5.234   0.852   0.307  2.1111 -0.8217  0.3689
 2200TIP3    H2 6544   5.193   0.997   0.288 -0.8731 -1.6628  0.1999
 2201TIP3   OH2 6545   4.157   1.210   0.056  0.4133 -0.2291 -0.2001
 2201TIP3    H1 6546   4.211   1.289   0.061  0.3247 -0.2846  2.8187
 2201TIP3    H2 6547   4.194   1.160  -0.016  1.9599  1.4783 -0.6473
 2202TIP3   OH2 6548   6.402   0.016   1.184 -0.4034  0.6769 -0.5434
 2202TIP3    H1 6549   6.457   0.092   1.200  1.3713 -0.7078  0.1205
 2202TIP3    H2 6550   6.405  -0.033   1.266 -2.4534  0.4641 -0.5885
 2203TIP3   OH2 6551   4.387   0.445   1.743  0.1224 -0.6563  0.8959
 2203TIP3    H1 6552   4.335   0.472   1.819  0.8870  0.4960  1.0275
 2203TIP3    H2 6553   4.333   0.378   1.700 -0.4272 -1.1562  2.3087
 2204TIP3   OH2 6554   4.816   2.370   3.514 -0.0690  0.2259  0.0133
 2204TIP3    H1 6555   4.805   2.351   3.421  1.1382 -0.2686 -0.0389
 2204TIP3    H2 6556   4.763   2.304   3.559  0.7238 -0.6433 -0.2920
 2205TIP3   OH2 6557   1.461   7.655   1.999  0.0229 -0.2450  0.3010
 2205TIP3    H1 6558   1.414   7.590   2.051  0.9156  0.5218  2.0967
 2205TIP3    H2 6559   1.411   7.736   2.011 -1.0357 -0.5426 -1.8593
 2206TIP3   OH2 6560   5.213   1.368   2.367 -0.3507 -0.4467 -0.3779
 2206TIP3    H1 6561   5.185   1.327   2.285  0.0071 -0.5366 -0.4563
 2206TIP3    H2 6562   5.296   1.411   2.345 -3.1683  4.7771 -1.6696
 2207TIP3   OH2 6563   4.363   1.519   2.491 -0.1407 -0.0809  0.1710
 2207TIP3    H1 6564   4.276   1.538   2.527  0.0112 -0.5199  0.7877
 2207TIP3    H2 6565   4.351   1.521   2.396 -1.5949 -3.4761  0.1939
 2208TIP3   OH2 6566   7.759   1.186   1.751  0.2342  0.2911 -0.1601
 2208TIP3    H1 6567   7.805   1.134   1.685 -1.5227 -1.2683 -0.2023
 2208TIP3    H2 6568   7.666   1.167   1.736 -0.1632 -0.8377  3.3409
 2209TIP3   OH2 6569   3.732   7.824   1.026  0.2954 -0.3130  0.5192
 2209TIP3    H1 6570   3.723   7.770   1.105  3.0511  0.0066  1.1135
 2209TIP3    H2 6571   3.687   7.906   1.047  1.5530  0.0138  2.0299
 2210TIP3   OH2 6572   0.983  -0.004   0.835 -0.2544  0.1118  0.0184
 2210TIP3    H1 6573   1.065   0.014   0.881  0.6298  0.1847 -1.5828
 2210TIP3    H2 6574   0.927   0.071   0.856 -0.2003 -0.2942  1.7195
 2211TIP3   OH2 6575   6.427   2.440   3.906 -0.0554 -0.3558 -0.0403
 2211TIP3    H1 6576   6.465   2.481   3.984 -2.1258 -0.5593  1.1137
 2211TIP3    H2 6577   6.461   2.351   3.908  1.8257  0.3272 -0.7257
 2212TIP3   OH2 6578   2.555   2.095   3.681 -0.2752 -0.2471 -0.2232
 2212TIP3    H1 6579   2.569   2.144   3.762  1.3640  0.4908 -0.9433
 2212TIP3    H2 6580   2.543   2.004   3.710  1.3897 -0.1691  0.7950
 2213TIP3   OH2 6581   6.563   0.570   1.529  0.8081 -0.0650 -0.2412
 2213TIP3    H1 6582   6.513   0.637   1.575  0.2977 -0.0946 -0.7411
 2213TIP3    H2 6583   6.643   0.560   1.580  0.4395  0.2057  0.3986
 2214TIP3   OH2 6584   4.247   0.255   1.609  0.5073 -0.0549  0.0857
 2214TIP3    H1 6585   4.152   0.260   1.609  0.4810 -0.5101 -0.3029
 2214TIP3    H2 6586   4.267   0.163   1.626  0.8790  0.0688  0.3242
 2215TIP3   OH2 6587   6.028   1.168   0.821  0.0339  0.1657 -0.2049
 2215TIP3    H1 6588   5.952   1.131   0.777 -0.1660 -0.0010  0.2762
 2215TIP3    H2 6589   6.080   1.207   0.751  0.3656 -1.2343 -0.7692
 2216TIP3   OH2 6590   8.405   0.694   0.974  0.5207  0.8115 -0.4128
 2216TIP3    H1 6591   8.475   0.671   1.035 -0.4405 -0.1435  0.3503
 2216TIP3    H2 6592   8.403   0.621   0.911 -0.1999  0.5255 -0.0624
 2217TIP3   OH2 6593   5.588   7.717   0.952 -0.5837  0.4072 -0.4280
 2217TIP3    H1 6594   5.638   7.740   1.031  0.1720 -0.0700 -0.7679
 2217TIP3    H2 6595   5.497   7.737   0.976 -0.2361  1.3576  0.1622
 2218TIP3   OH2 6596   5.211   0.431   1.495  1.1791 -0.5542 -0.0367
 2218TIP3    H1 6597   5.262   0.361   1.454  1.4454  0.1647 -0.9301
 2218TIP3    H2 6598   5.122   0.417   1.464  1.0611 -1.0358  0.5057
 2219TIP3   OH2 6599   6.828   1.058   1.377 -0.7248 -0.4105 -0.2992
 2219TIP3    H1 6600   6.746   1.009   1.369 -0.6589 -0.3929 -1.1263
 2219TIP3    H2 6601   6.800   1.149   1.388 -0.8127 -0.2847 -1.4812
 2220TIP3   OH2 6602   5.623   1.533   3.710 -0.5451 -0.0960  0.3704
 2220TIP3    H1 6603   5.583   1.528   3.623 -1.2335 -2.2738  0.7787
 2220TIP3    H2 6604   5.570   1.597   3.757 -0.4929  0.7055 -0.6525
 2221TIP3   OH2 6605   3.305   7.441   4.781 -0.3937  0.0768 -0.5695
 2221TIP3    H1 6606   3.216   7.477   4.787 -0.8126 -0.9372 -0.5893
 2221TIP3    H2 6607   3.295   7.360   4.730  0.5360 -0.0519 -0.5587
 2222TIP3   OH2 6608   6.669   0.755   2.710 -0.1914  0.1695  0.1341
 2222TIP3    H1 6609   6.619   0.675   2.699 -0.0570  0.1662 -0.4610
 2222TIP3    H2 6610   6.758   0.726   2.732 -0.0607  0.1475 -0.4168
 2223TIP3   OH2 6611   4.561   2.166   1.476  0.0278 -0.4191  0.0943
 2223TIP3    H1 6612   4.621   2.117   1.532 -0.0010 -0.3984  0.1440
 2223TIP3    H2 6613   4.604   2.250   1.463 -0.0742 -0.3374  0.2807
 2224TIP3   OH2 6614   7.421   2.870   5.898 -0.2021  0.4095  0.0823
 2224TIP3    H1 6615   7.329   2.896   5.895  0.0700  1.6158  1.8495
 2224TIP3    H2 6616   7.420   2.778   5.872 -1.9582  0.2673  0.5572
 2225TIP3   OH2 6617   5.564   3.198   3.273 -0.3062 -0.4021  0.0981
 2225TIP3    H1 6618   5.482   3.170   3.314 -0.1917  0.3182  0.8223
 2225TIP3    H2 6619   5.541   3.279   3.227  0.3738  0.7395  1.7176
 2226TIP3   OH2 6620   5.650   3.907   6.466  0.6829 -0.2548 -0.2998
 2226TIP3    H1 6621   5.608   3.992   6.452 -1.1943 -1.0803  0.1588
 2226TIP3    H2 6622   5.654   3.868   6.379  1.8930  0.4367 -0.5700
 2227TIP3   OH2 6623   5.090   7.190   2.224  0.5248 -0.5238  0.0533
 2227TIP3    H1 6624   5.079   7.169   2.131  0.2679  0.5253 -0.1570
 2227TIP3    H2 6625   5.106   7.284   2.225 -1.2795 -0.2293  1.2149
 2228TIP3   OH2 6626   6.788   0.518   1.681 -0.6206  0.1598 -0.4822
 2228TIP3    H1 6627   6.866   0.573   1.677 -0.3740 -0.2058 -0.7899
 2228TIP3    H2 6628   6.822   0.429   1.687 -0.9970  0.1908  2.9839
 2229TIP3   OH2 6629   7.187   1.011   2.851  0.5115 -0.6216 -0.1716
 2229TIP3    H1 6630   7.239   1.001   2.930 -1.7629 -2.2591  1.1586
 2229TIP3    H2 6631   7.205   0.932   2.800  2.1154  0.5105 -1.4408
 2230TIP3   OH2 6632   3.105   6.309   1.295 -1.2209 -0.0846  0.2935
 2230TIP3    H1 6633   3.049   6.316   1.372 -0.2968  1.9757  0.8272
 2230TIP3    H2 6634   3.186   6.269   1.326 -0.9032  0.6126  0.3794
 2231TIP3   OH2 6635   6.585   0.697   6.586  0.7390 -0.1214 -0.2523
 2231TIP3    H1 6636   6.655   0.730   6.530  0.3783  1.4513  0.2065
 2231TIP3    H2 6637   6.625   0.692   6.673  0.4876  0.1368 -0.1211
 2232TIP3   OH2 6638   4.976   0.322   3.598 -0.3414  0.3382  0.5573
 2232TIP3    H1 6639   4.920   0.381   3.647 -1.1262 -0.1417  0.2417
 2232TIP3    H2 6640   4.989   0.364   3.514 -0.0256  0.5593  0.7128
 2233TIP3   OH2 6641   5.571   1.084   4.581 -0.3110  0.2265  0.3682
 2233TIP3    H1 6642   5.563   0.996   4.544 -1.2877  0.6440 -0.4243
 2233TIP3    H2 6643   5.541   1.143   4.512 -1.4123  1.0657  1.5188
 2234TIP3   OH2 6644   4.642   7.942   2.398  0.2919 -0.0385 -0.0846
 2234TIP3    H1 6645   4.654   7.848   2.387  3.1635  0.5277 -2.4815
 2234TIP3    H2 6646   4.677   7.961   2.485 -1.1179 -1.2660  0.7767
 2235TIP3   OH2 6647   2.408   6.441   3.192 -0.3462  0.1892 -0.4922
 2235TIP3    H1 6648   2.398   6.505   3.121 -2.5991 -1.5331 -1.8070
 2235TIP3    H2 6649   2.397   6.492   3.272 -1.7723  1.5414 -1.5059
 2236TIP3   OH2 6650   7.580   0.560   3.012 -0.4622  0.1165 -0.6598
 2236TIP3    H1 6651   7.618   0.547   2.925  0.1039  0.8805 -0.5376
 2236TIP3    H2 6652   7.635   0.510   3.071 -2.3546 -2.5082 -1.0402
 2237TIP3   OH2 6653   7.122   1.704   4.600  0.2985  0.0527  0.0084
 2237TIP3    H1 6654   7.148   1.694   4.508 -0.0825 -0.8555 -0.0022
 2237TIP3    H2 6655   7.201   1.682   4.650  0.6651  1.0739 -0.1041
 2238TIP3   OH2 6656   7.332   0.543   2.501 -0.0066  0.3583 -0.2836
 2238TIP3    H1 6657   7.401   0.507   2.446  1.1192  2.0504 -0.0136
 2238TIP3    H2 6658   7.258   0.555   2.441 -0.2163 -1.7908 -0.4957
 2239TIP3   OH2 6659   5.415   2.643   3.358 -0.1461  0.5556 -0.2089
 2239TIP3    H1 6660   5.482   2.710   3.345  0.6544 -0.4410 -1.3092
 2239TIP3    H2 6661   5.464   2.561   3.368 -1.1944 -0.3861 -2.3332
 2240TIP3   OH2 6662   6.451   2.641   2.234 -0.1633  1.0111  0.5855
 2240TIP3    H1 6663   6.375   2.684   2.193  0.5109  0.8891 -0.8054
 2240TIP3    H2 6664   6.426   2.549   2.241  0.6454  0.5985 -1.7651
 2241TIP3   OH2 6665   7.097   0.097   2.066 -0.4442  0.5040  0.2277
 2241TIP3    H1 6666   7.103   0.010   2.107  0.2758  0.5181  0.1591
 2241TIP3    H2 6667   7.063   0.080   1.978 -1.0274  0.3690  0.4783
 2242TIP3   OH2 6668   6.141   0.468   3.224 -0.1343  0.5608  0.8658
 2242TIP3    H1 6669   6.226   0.511   3.231  0.9389 -1.4469  0.6247
 2242TIP3    H2 6670   6.077   0.537   3.241  1.4852  2.4781 -0.5924
 2243TIP3   OH2 6671   4.289   6.751   4.625 -0.3929 -0.1528 -0.3491
 2243TIP3    H1 6672   4.381   6.732   4.607 -0.3204  0.6598 -0.8720
 2243TIP3    H2 6673   4.285   6.764   4.720 -0.1248 -1.0064 -0.2200
 2244TIP3   OH2 6674   5.601   1.720   2.151  0.1906 -0.7072  0.3896
 2244TIP3    H1 6675   5.506   1.729   2.158 -0.1451 -2.4499 -1.3742
 2244TIP3    H2 6676   5.626   1.784   2.085  0.0790 -1.0251  0.0354
 2245TIP3   OH2 6677   2.594   6.548   3.745  0.2038 -0.2788 -0.4343
 2245TIP3    H1 6678   2.659   6.488   3.781  1.4188 -0.2020 -2.4004
 2245TIP3    H2 6679   2.639   6.592   3.673 -1.5374  0.9460 -0.8136
 2246TIP3   OH2 6680   3.437   1.303   3.187  0.2572 -0.0605 -0.8417
 2246TIP3    H1 6681   3.394   1.219   3.199  2.9634 -1.4731 -0.4550
 2246TIP3    H2 6682   3.368   1.368   3.198 -1.6419 -2.1809  0.0958
 2247TIP3   OH2 6683   4.431   0.108   1.910 -0.1330 -0.7767 -0.0100
 2247TIP3    H1 6684   4.510   0.161   1.903 -0.2235 -0.4785  1.0503
 2247TIP3    H2 6685   4.387   0.142   1.989 -1.6074 -0.5432 -0.9230
 2248TIP3   OH2 6686   7.778   2.986   2.574 -0.0458  0.2445  1.2003
 2248TIP3    H1 6687   7.774   3.047   2.648  0.6728  0.3420  1.1704
 2248TIP3    H2 6688   7.692   2.944   2.571 -0.3601  0.8599  1.5651
 2249TIP3   OH2 6689   5.659   2.268   2.705 -0.2246 -0.3597 -0.6133
 2249TIP3    H1 6690   5.587   2.315   2.745 -0.5003 -2.0930  0.9468
 2249TIP3    H2 6691   5.730   2.272   2.770  0.1557 -1.0572 -0.9798
 2250TIP3   OH2 6692   7.921   1.698   3.235 -0.0786 -0.3078  0.6067
 2250TIP3    H1 6693   7.826   1.706   3.227  0.1803  2.4143 -0.2436
 2250TIP3    H2 6694   7.955   1.763   3.173  2.3408 -1.1842  0.9828
 2251TIP3   OH2 6695   7.853   0.351   3.567 -0.1861  0.1414 -0.1933
 2251TIP3    H1 6696   7.868   0.416   3.636 -0.7382  0.1033 -0.0347
 2251TIP3    H2 6697   7.883   0.268   3.605  0.3696  0.2764 -0.3373
 2252TIP3   OH2 6698   6.401   1.560   2.569 -0.5168  0.7441  0.1598
 2252TIP3    H1 6699   6.480   1.588   2.615 -0.0861  0.3118 -0.3042
 2252TIP3    H2 6700   6.328   1.595   2.621 -0.0531 -0.0747  1.3715
 2253TIP3   OH2 6701   7.099   1.202   0.752  0.3080  0.4833 -0.4804
 2253TIP3    H1 6702   7.184   1.203   0.708  1.5226  2.3357  1.8149
 2253TIP3    H2 6703   7.085   1.293   0.779 -1.0560 -0.3303  1.6839
 2254TIP3   OH2 6704   7.999   1.480   1.991 -0.2814 -0.1903  0.2441
 2254TIP3    H1 6705   8.076   1.423   1.997  0.4812  0.7219 -0.7112
 2254TIP3    H2 6706   8.027   1.561   2.033 -1.0162 -0.1530  0.6604
 2255TIP3   OH2 6707   5.979   1.986   0.088  0.3135 -0.1837 -0.0003
 2255TIP3    H1 6708   5.930   1.976   0.169 -1.4916  1.3602 -0.8522
 2255TIP3    H2 6709   6.002   1.897   0.062 -1.8378 -0.9208  0.5649
 2256TIP3   OH2 6710   6.085   2.107   2.894 -0.0232 -0.8999 -0.2849
 2256TIP3    H1 6711   6.081   2.124   2.800 -0.7273 -1.4516 -0.3621
 2256TIP3    H2 6712   5.995   2.085   2.918 -0.0317  0.1488  0.6990
 2257TIP3   OH2 6713   7.495   0.969   2.479 -0.1837  0.2299 -0.0561
 2257TIP3    H1 6714   7.476   0.972   2.573 -1.5785  0.1531 -0.3268
 2257TIP3    H2 6715   7.415   0.935   2.439  0.7324 -0.6688 -1.1854
 2258TIP3   OH2 6716   0.763   0.623   2.729 -0.3437  0.4459 -0.4814
 2258TIP3    H1 6717   0.674   0.604   2.698 -0.8428 -0.0773  1.2413
 2258TIP3    H2 6718   0.785   0.706   2.687 -0.9897 -0.2328 -2.2440
 2259TIP3   OH2 6719   2.391   7.703   2.628  0.5137 -0.1383  0.3359
 2259TIP3    H1 6720   2.395   7.789   2.585  1.4678  0.3048  1.2799
 2259TIP3    H2 6721   2.481   7.686   2.655  0.1443 -0.9760  1.0389
 2260TIP3   OH2 6722   3.049   7.506   0.076  0.5166  0.0020  0.8164
 2260TIP3    H1 6723   2.999   7.425   0.089  0.4057  0.3312  2.5452
 2260TIP3    H2 6724   3.013   7.566   0.141  3.3987  0.1419  2.3626
 2261TIP3   OH2 6725   6.693   2.304   3.298  0.4163  0.2372 -0.8539
 2261TIP3    H1 6726   6.729   2.277   3.214  1.3671 -0.3366 -0.2662
 2261TIP3    H2 6727   6.763   2.288   3.361 -0.4872  0.1038  0.1403
 2262TIP3   OH2 6728   5.632   1.905   4.166 -0.4406  0.2463  0.0199
 2262TIP3    H1 6729   5.633   1.983   4.221 -0.8473  0.0798  0.2664
 2262TIP3    H2 6730   5.724   1.882   4.155 -0.3774  0.0185  1.0041
 2263TIP3   OH2 6731   5.486   4.688   1.145  0.0265  0.2818 -0.6256
 2263TIP3    H1 6732   5.432   4.745   1.199 -0.4073 -0.3572 -0.3868
 2263TIP3    H2 6733   5.531   4.631   1.208  0.7538  0.6099 -0.8391
 2264TIP3   OH2 6734   0.299   7.857   1.695  0.6669  0.3230  0.4107
 2264TIP3    H1 6735   0.261   7.899   1.772 -2.7201  0.3213 -1.1738
 2264TIP3    H2 6736   0.307   7.928   1.631  1.5420 -0.0818  0.0598
 2265TIP3   OH2 6737   6.077   2.957   2.910 -0.0827  0.0422  0.2467
 2265TIP3    H1 6738   5.993   2.961   2.865 -0.8167  0.1805  1.5768
 2265TIP3    H2 6739   6.054   2.927   2.999  1.2034  0.6569  0.7912
 2266TIP3   OH2 6740   5.406   2.487   4.303 -0.4177 -0.0614 -0.2773
 2266TIP3    H1 6741   5.477   2.497   4.366  0.3320  0.4557 -1.1877
 2266TIP3    H2 6742   5.371   2.400   4.320  0.5077 -0.3629  0.1118
 2267TIP3   OH2 6743   7.510   1.593   2.131 -0.4824 -0.0173  0.2233
 2267TIP3    H1 6744   7.495   1.662   2.196  0.2306 -1.1287  1.5941
 2267TIP3    H2 6745   7.430   1.541   2.132 -0.0726 -0.6388  0.9672
 2268TIP3   OH2 6746   7.407   0.750   2.895  0.2470 -0.2094 -0.1284
 2268TIP3    H1 6747   7.468   0.823   2.888  0.3408 -0.3061 -0.3292
 2268TIP3    H2 6748   7.445   0.692   2.962 -0.3280  0.4099  0.7378
 2269TIP3   OH2 6749   0.138   5.022   2.549  0.2097 -0.3139  0.6644
 2269TIP3    H1 6750   0.181   4.939   2.527 -2.2251 -1.6301  0.7453
 2269TIP3    H2 6751   0.087   5.003   2.627 -1.7773  0.7813 -0.3393
 2270TIP3   OH2 6752   7.426   0.751   1.890 -0.3000 -0.3601  0.5778
 2270TIP3    H1 6753   7.461   0.715   1.971  0.4322  0.3974  0.6013
 2270TIP3    H2 6754   7.454   0.842   1.890  0.1666 -0.4955 -0.7864
 2271TIP3   OH2 6755   7.904   1.580   4.221 -0.3486  0.1680 -0.0932
 2271TIP3    H1 6756   7.854   1.591   4.140 -0.4429  0.1495 -0.0385
 2271TIP3    H2 6757   7.914   1.669   4.255  0.0323  0.2167 -0.3287
 2272TIP3   OH2 6758   3.756   1.611   4.109  0.6450  0.0044  0.2863
 2272TIP3    H1 6759   3.671   1.620   4.152  0.8518  0.9951  0.5012
 2272TIP3    H2 6760   3.812   1.675   4.153  1.4788 -0.5690  0.0830
 2273TIP3   OH2 6761   6.613   1.478   3.385  0.6810 -0.3248  0.3275
 2273TIP3    H1 6762   6.699   1.495   3.346  0.1770 -0.4718 -0.8943
 2273TIP3    H2 6763   6.577   1.407   3.331 -0.1705 -0.3172  0.8809
 2274TIP3   OH2 6764   6.614   2.049   0.845  0.2791 -0.4509  0.0360
 2274TIP3    H1 6765   6.552   2.040   0.918  0.1428  0.8688  0.0988
 2274TIP3    H2 6766   6.697   2.072   0.887  0.3370 -0.2700 -0.1734
 2275TIP3   OH2 6767   4.365   7.976   2.486 -0.4444 -0.5894  0.2696
 2275TIP3    H1 6768   4.414   7.936   2.414 -0.8777  0.5096 -0.6535
 2275TIP3    H2 6769   4.431   8.023   2.537 -0.3095 -0.3485 -0.1218
 2276TIP3   OH2 6770   3.510   0.374   4.954 -0.7838  0.5562  0.2104
 2276TIP3    H1 6771   3.474   0.463   4.953 -0.5205  0.6658  0.7472
 2276TIP3    H2 6772   3.524   0.354   5.046 -0.6221  0.0407  0.0779
 2277TIP3   OH2 6773   5.845   0.728   1.644  0.5094 -0.3307 -0.6059
 2277TIP3    H1 6774   5.880   0.642   1.621 -1.6504 -1.5613  0.6347
 2277TIP3    H2 6775   5.875   0.785   1.573 -1.3529 -2.8928 -3.6085
 2278TIP3   OH2 6776   6.504   1.575   0.238  0.2222  0.3508  0.4674
 2278TIP3    H1 6777   6.592   1.586   0.203 -0.4122 -1.1459 -1.6852
 2278TIP3    H2 6778   6.509   1.496   0.293 -0.1024 -0.5566 -0.7994
 2279TIP3   OH2 6779   2.459   1.328   0.888  0.3045 -0.1191 -0.1081
 2279TIP3    H1 6780   2.394   1.335   0.958 -0.6226  0.1773 -0.9856
 2279TIP3    H2 6781   2.509   1.410   0.893  1.5020 -0.9173  1.4216
 2280TIP3   OH2 6782   4.873   2.597   1.906  0.4757  0.3162 -0.4484
 2280TIP3    H1 6783   4.820   2.610   1.828 -1.7847 -2.4704  0.4977
 2280TIP3    H2 6784   4.936   2.529   1.882  1.6170  1.4252 -0.6448
 2281TIP3   OH2 6785   7.637   0.563   2.422  0.3782  0.4779  0.3852
 2281TIP3    H1 6786   7.652   0.603   2.507  0.9574  0.2617  0.3810
 2281TIP3    H2 6787   7.660   0.631   2.359  0.1016  0.5828  0.3932
 2282TIP3   OH2 6788   4.682   5.962   1.638 -0.1936  0.0488 -0.4759
 2282TIP3    H1 6789   4.651   5.925   1.556  0.4222 -0.0567 -0.6582
 2282TIP3    H2 6790   4.758   6.014   1.614 -2.2784  3.2122 -0.5605
 2283TIP3   OH2 6791   5.636   0.717   0.803  0.3574 -0.1289 -0.0489
 2283TIP3    H1 6792   5.560   0.660   0.794 -0.7154  1.2030  0.3101
 2283TIP3    H2 6793   5.617   0.791   0.745 -0.5640  2.2087  3.1081
 2284TIP3   OH2 6794   7.905   1.691   3.696 -0.2956 -0.0415 -0.0476
 2284TIP3    H1 6795   7.836   1.757   3.684 -0.3884 -0.0501  0.4243
 2284TIP3    H2 6796   7.954   1.693   3.615  0.8987  1.9992  0.6852
 2285TIP3   OH2 6797   3.434   6.954   3.451 -0.3696 -0.1572  0.6128
 2285TIP3    H1 6798   3.482   7.028   3.487 -1.2620  1.5528 -1.6384
 2285TIP3    H2 6799   3.352   6.952   3.501 -0.4542  0.5327  0.5021
 2286TIP3   OH2 6800   6.521   3.090   1.522 -0.2269 -0.4582  0.0521
 2286TIP3    H1 6801   6.554   3.168   1.477 -0.1177 -0.6305 -0.1682
 2286TIP3    H2 6802   6.521   3.114   1.614 -1.8086  0.3942 -0.1555
 2287TIP3   OH2 6803  -0.026   1.763   0.672 -0.2101 -0.2055 -0.8823
 2287TIP3    H1 6804   0.065   1.771   0.643  0.4437 -0.4195  0.9988
 2287TIP3    H2 6805  -0.019   1.729   0.761 -2.1725 -0.7989 -0.9440
 2288TIP3   OH2 6806   7.278   0.895   1.073 -0.0338  0.1904  0.1362
 2288TIP3    H1 6807   7.228   0.976   1.063 -1.8082 -0.8802  0.0375
 2288TIP3    H2 6808   7.342   0.897   1.002  0.1539  1.6450  0.3303
 2289TIP3   OH2 6809   6.430   0.698   2.371 -0.4387  0.0109 -0.2418
 2289TIP3    H1 6810   6.350   0.739   2.337 -0.9353  0.2616  1.2199
 2289TIP3    H2 6811   6.400   0.638   2.439  0.5795 -0.2452 -0.0095
 2290TIP3   OH2 6812   5.158   7.822   1.774 -0.3493 -0.4220  0.1859
 2290TIP3    H1 6813   5.207   7.839   1.855  0.4646  2.8014 -0.8973
 2290TIP3    H2 6814   5.216   7.853   1.704 -2.5916  0.4140 -1.3556
 2291TIP3   OH2 6815   0.267   3.485   1.858 -0.1672 -0.2061  0.0488
 2291TIP3    H1 6816   0.314   3.498   1.940 -0.0791  1.2160 -0.2124
 2291TIP3    H2 6817   0.189   3.435   1.883 -0.8472  1.3856  1.2544
 2292TIP3   OH2 6818   8.031   1.484   2.341 -0.0354  0.3217  0.3816
 2292TIP3    H1 6819   7.949   1.497   2.293  0.9994  1.7771 -1.0570
 2292TIP3    H2 6820   8.084   1.428   2.284  0.5802  0.7143  0.5637
 2293TIP3   OH2 6821   8.050   3.991   1.912  0.2501 -0.1807 -0.2170
 2293TIP3    H1 6822   8.029   3.915   1.857  1.3656 -0.0905 -0.7770
 2293TIP3    H2 6823   8.052   3.956   2.001 -1.1634 -0.4123 -0.2582
 2294TIP3   OH2 6824   8.392   3.469   3.856 -0.0807 -0.3355  0.2434
 2294TIP3    H1 6825   8.469   3.457   3.800  1.1506  1.7244  1.4213
 2294TIP3    H2 6826   8.349   3.547   3.821 -1.8270 -1.6460 -0.5903
 2295TIP3   OH2 6827   0.498   0.354   3.101 -0.3945 -0.2348 -0.0603
 2295TIP3    H1 6828   0.407   0.326   3.096 -0.4620 -0.4337  2.1398
 2295TIP3    H2 6829   0.499   0.440   3.059 -1.6878  0.0064  0.3950
 2296TIP3   OH2 6830   4.830   2.849   3.536 -0.3292 -0.2104 -0.3743
 2296TIP3    H1 6831   4.857   2.911   3.603 -2.2309  0.3192 -0.0726
 2296TIP3    H2 6832   4.891   2.776   3.544 -0.0247  0.2243  1.3635
 2297TIP3   OH2 6833   7.832   2.074   0.932 -0.2004  0.1179 -0.5546
 2297TIP3    H1 6834   7.850   2.000   0.875 -0.9509 -0.7351  0.3017
 2297TIP3    H2 6835   7.903   2.135   0.915  1.3829 -1.5446  0.0064
 2298TIP3   OH2 6836   5.867   1.710   1.285 -0.5294 -0.3621 -0.2433
 2298TIP3    H1 6837   5.780   1.695   1.324 -0.5678  2.2843  0.8178
 2298TIP3    H2 6838   5.854   1.696   1.191 -2.5097  1.4442 -0.2864
 2299TIP3   OH2 6839   6.618   0.273   0.293  0.0763  0.4047  0.0455
 2299TIP3    H1 6840   6.654   0.198   0.245 -0.8474 -0.2247  0.3235
 2299TIP3    H2 6841   6.639   0.255   0.385  0.4430  0.8186  0.0434
 2300TIP3   OH2 6842   0.890   1.877   2.325 -0.0862  0.0783 -0.2371
 2300TIP3    H1 6843   0.863   1.896   2.235 -1.3665 -1.3994 -0.1920
 2300TIP3    H2 6844   0.939   1.795   2.318  1.0669  0.7368  0.2128
 2301TIP3   OH2 6845   7.459   2.529   0.933  0.6337  0.1914  0.2146
 2301TIP3    H1 6846   7.429   2.609   0.976  0.6104  0.1219  0.3279
 2301TIP3    H2 6847   7.380   2.492   0.894  0.8927  1.0207 -1.1471
 2302TIP3   OH2 6848   7.267   1.797   4.045 -0.1982 -0.5592  0.1862
 2302TIP3    H1 6849   7.188   1.845   4.019 -0.4590 -1.1143 -0.0544
 2302TIP3    H2 6850   7.316   1.859   4.099  1.1230  1.1864 -2.8887
 2303TIP3   OH2 6851   7.898   1.161   1.473  0.5547  0.2405  0.1606
 2303TIP3    H1 6852   7.881   1.255   1.470  0.4816  0.1944 -0.9029
 2303TIP3    H2 6853   7.817   1.121   1.441  0.2117 -0.2281  1.5841
 2304TIP3   OH2 6854   1.539   6.019   6.801  0.3288  0.1020  0.2097
 2304TIP3    H1 6855   1.583   5.936   6.783 -1.0835 -0.6050 -0.0465
 2304TIP3    H2 6856   1.447   6.001   6.787 -0.4699  0.5821  4.1828
 2305TIP3   OH2 6857   5.404   7.665   0.649 -0.3953  0.1283 -0.4023
 2305TIP3    H1 6858   5.374   7.733   0.708 -1.1942 -1.1456  0.6924
 2305TIP3    H2 6859   5.334   7.599   0.650  1.0184 -1.4130 -0.2639
 2306TIP3   OH2 6860   4.359   6.872   1.660 -0.0140  0.0456 -0.1985
 2306TIP3    H1 6861   4.287   6.808   1.660 -0.3270  0.3814  1.5476
 2306TIP3    H2 6862   4.367   6.898   1.568 -1.6422 -0.5427 -0.5263
 2307TIP3   OH2 6863   7.130   1.122   1.030 -0.0757 -0.1880  0.5352
 2307TIP3    H1 6864   7.109   1.152   0.942  0.7508 -1.4161 -0.0950
 2307TIP3    H2 6865   7.160   1.200   1.076  2.4306 -0.0783 -1.1828
 2308TIP3   OH2 6866   7.935   0.399   2.162 -0.4185 -0.8760 -0.0825
 2308TIP3    H1 6867   7.876   0.379   2.089  0.7312 -1.3116 -0.9210
 2308TIP3    H2 6868   8.021   0.407   2.121 -0.1432  1.4569  0.8772
 2309TIP3   OH2 6869   3.312   1.884   5.244 -0.0974 -0.3412 -0.3963
 2309TIP3    H1 6870   3.367   1.883   5.323  1.8706 -2.1680 -1.7417
 2309TIP3    H2 6871   3.246   1.951   5.262  0.1718 -0.8740  2.8814
 2310TIP3   OH2 6872   6.754   7.973   3.239 -0.6063  0.2077 -0.0214
 2310TIP3    H1 6873   6.800   8.039   3.291 -2.0014 -0.6201  2.3372
 2310TIP3    H2 6874   6.824   7.920   3.201  0.5637  3.1709 -2.2409
 2311TIP3   OH2 6875   7.014   1.210   3.019  0.3755 -0.7106 -0.1689
 2311TIP3    H1 6876   7.013   1.116   3.002 -1.4017 -0.6684 -0.4250
 2311TIP3    H2 6877   6.978   1.249   2.939  4.9798  0.5434 -1.7944
 2312TIP3   OH2 6878   7.538   3.381   0.875  0.4903  0.0430  0.2691
 2312TIP3    H1 6879   7.596   3.372   0.950  1.7203 -0.4083 -0.7288
 2312TIP3    H2 6880   7.473   3.312   0.886  1.9288 -1.4127 -0.1997
 2313TIP3   OH2 6881   0.543   1.320   5.202 -0.0177  0.2673 -0.0234
 2313TIP3    H1 6882   0.530   1.302   5.109  0.3689 -2.3232  0.3807
 2313TIP3    H2 6883   0.638   1.311   5.215  0.0434  1.4525  0.4837
 2314TIP3   OH2 6884   0.895   1.502   4.652  0.3583 -0.7827 -0.2549
 2314TIP3    H1 6885   0.899   1.585   4.606  0.2480 -0.2992  0.6035
 2314TIP3    H2 6886   0.939   1.518   4.736 -2.3851 -0.7300  1.2076
 2315TIP3   OH2 6887   6.613   7.933   4.103  0.4995 -0.3950  0.7502
 2315TIP3    H1 6888   6.568   7.901   4.181  0.3734  0.1913  0.9236
 2315TIP3    H2 6889   6.605   7.863   4.039  0.5296 -0.8450  1.2417
 2316TIP3   OH2 6890   0.705   0.062   4.023  0.3954 -0.4589 -0.2681
 2316TIP3    H1 6891   0.716   0.109   4.105  0.4823 -0.4179 -0.3032
 2316TIP3    H2 6892   0.793   0.036   3.998  0.4530  0.1144 -0.6929
 2317TIP3   OH2 6893   7.269   7.977   3.440 -0.3856  0.0084 -0.1362
 2317TIP3    H1 6894   7.243   7.899   3.391  0.7905 -0.2709 -0.3285
 2317TIP3    H2 6895   7.274   8.046   3.374 -1.1713  0.1907 -0.0087
 2318TIP3   OH2 6896   0.989   1.667   1.020 -0.4861 -0.0869  0.5831
 2318TIP3    H1 6897   1.019   1.729   1.087 -0.5998 -0.1491  0.6931
 2318TIP3    H2 6898   1.067   1.646   0.969 -0.6870  1.1712 -0.2845
 2319TIP3   OH2 6899   1.707   1.779   3.032  0.2531 -0.5102 -0.1574
 2319TIP3    H1 6900   1.788   1.820   3.062 -1.1680  1.6612  0.9246
 2319TIP3    H2 6901   1.654   1.770   3.111 -1.6561  0.8042 -1.2164
 2320TIP3   OH2 6902   0.254   0.145   3.350  0.4278  0.1907  0.2238
 2320TIP3    H1 6903   0.245   0.112   3.261  1.0886  1.1001 -0.1850
 2320TIP3    H2 6904   0.324   0.093   3.388 -0.9186 -1.3020  0.7575
 2321TIP3   OH2 6905   0.824   2.789   4.042  0.0757 -0.2244 -0.6973
 2321TIP3    H1 6906   0.821   2.694   4.044 -0.0433 -0.2536 -2.0944
 2321TIP3    H2 6907   0.732   2.816   4.041  0.1125 -0.1143 -1.1697
 2322TIP3   OH2 6908   1.088   1.176   2.407 -0.0704 -0.1377  0.4137
 2322TIP3    H1 6909   1.051   1.088   2.399  0.0220 -0.1065 -0.3610
 2322TIP3    H2 6910   1.164   1.165   2.464  1.1458 -0.9112 -1.3466
 2323TIP3   OH2 6911   0.988   1.032   1.619 -0.7023  0.8918  0.5212
 2323TIP3    H1 6912   0.913   0.976   1.599 -1.1558  2.5049 -2.4629
 2323TIP3    H2 6913   1.063   0.972   1.614 -1.2620  0.3281 -1.8120
 2324TIP3   OH2 6914   6.864   6.966   2.831 -0.1276  0.4568  0.1914
 2324TIP3    H1 6915   6.940   7.023   2.841  0.5447 -0.1978 -1.0244
 2324TIP3    H2 6916   6.823   6.964   2.917  3.3470 -2.1626  1.9185
 2325TIP3   OH2 6917   1.873   1.971   4.363 -0.0907 -0.4526  0.0027
 2325TIP3    H1 6918   1.828   2.054   4.383  0.8772  0.1028 -0.0988
 2325TIP3    H2 6919   1.866   1.920   4.443 -2.9187 -1.3122 -0.7262
 2326TIP3   OH2 6920   7.569   2.364   1.519 -0.3898  0.3012 -0.1629
 2326TIP3    H1 6921   7.526   2.279   1.511  1.1385 -0.4723 -0.2035
 2326TIP3    H2 6922   7.649   2.347   1.568  1.0514  1.3185 -2.0926
 2327TIP3   OH2 6923   1.670   0.505   3.201  0.2597 -0.1883  0.2262
 2327TIP3    H1 6924   1.719   0.584   3.177 -2.3579  1.1880 -0.8059
 2327TIP3    H2 6925   1.682   0.446   3.126 -1.4756  1.0251 -1.0287
 2328TIP3   OH2 6926   5.922   7.617   4.219 -1.0428 -0.0462  0.6082
 2328TIP3    H1 6927   5.845   7.674   4.217  0.1001  1.6038  1.5225
 2328TIP3    H2 6928   5.973   7.650   4.293  0.4220 -1.2515  0.1531
 2329TIP3   OH2 6929   2.481   2.830   2.221 -0.6292 -0.2709 -0.0196
 2329TIP3    H1 6930   2.556   2.815   2.279 -0.4965  1.0946  0.1748
 2329TIP3    H2 6931   2.495   2.768   2.148 -0.0452 -0.9847  0.6853
 2330TIP3   OH2 6932   1.548   1.198   3.916 -0.0758  0.1992 -0.3537
 2330TIP3    H1 6933   1.453   1.191   3.911 -0.0349 -0.6084  0.0518
 2330TIP3    H2 6934   1.568   1.191   4.009  0.3530  0.7733 -0.3962
 2331TIP3   OH2 6935   7.352   2.211   4.604 -0.0528 -0.7493  0.1584
 2331TIP3    H1 6936   7.332   2.136   4.661  0.9800 -1.0625  0.1105
 2331TIP3    H2 6937   7.444   2.231   4.621 -0.4424  0.8098  0.5068
 2332TIP3   OH2 6938   2.072   1.771   4.751  0.0818 -0.1649 -0.5000
 2332TIP3    H1 6939   1.997   1.794   4.696 -0.1406 -0.2005 -0.2136
 2332TIP3    H2 6940   2.140   1.743   4.689  0.0807  0.4837 -0.8024
 2333TIP3   OH2 6941   1.486   0.428   3.796 -0.2099 -0.3351  0.3302
 2333TIP3    H1 6942   1.545   0.499   3.821  0.6240 -0.4902 -1.0956
 2333TIP3    H2 6943   1.502   0.359   3.860 -0.8978  0.6935  1.6193
 2334TIP3   OH2 6944   5.852   4.501   0.220 -0.0337 -0.6338  0.0083
 2334TIP3    H1 6945   5.856   4.519   0.314 -1.1885 -2.1144  0.3554
 2334TIP3    H2 6946   5.794   4.426   0.212 -2.5399  1.4176 -2.1641
 2335TIP3   OH2 6947   7.193   7.804   3.246  0.3334  0.3362  0.1222
 2335TIP3    H1 6948   7.101   7.799   3.221  0.1587 -1.3589  1.0416
 2335TIP3    H2 6949   7.240   7.776   3.168 -0.0826 -1.9513  0.6604
 2336TIP3   OH2 6950   1.789   2.608   2.576 -0.0029 -0.6324 -0.1618
 2336TIP3    H1 6951   1.823   2.667   2.643  0.7575 -1.6106  0.3274
 2336TIP3    H2 6952   1.847   2.532   2.579 -2.2812 -2.4051  0.7794
 2337TIP3   OH2 6953   1.156   0.222   2.749 -0.7745 -0.3249 -0.3666
 2337TIP3    H1 6954   1.112   0.304   2.772  2.0179  1.3293 -0.5579
 2337TIP3    H2 6955   1.168   0.227   2.654  1.0861  0.0084 -0.1498
 2338TIP3   OH2 6956   6.495   3.167   2.828 -0.9178 -0.3500 -0.1847
 2338TIP3    H1 6957   6.401   3.154   2.842 -0.8957 -0.4400 -0.1185
 2338TIP3    H2 6958   6.511   3.129   2.742 -0.7431 -1.3242  0.2621
 2339TIP3   OH2 6959   8.169   2.155   1.509  0.1350  0.0347  0.0217
 2339TIP3    H1 6960   8.202   2.139   1.420 -2.7723 -0.4719 -1.0058
 2339TIP3    H2 6961   8.125   2.074   1.533 -0.4930  0.7404  1.2836
 2340TIP3   OH2 6962   0.511   0.010   4.661  0.0411 -0.2653 -0.0223
 2340TIP3    H1 6963   0.488   0.082   4.720 -1.3574 -0.2657 -0.5447
 2340TIP3    H2 6964   0.427  -0.018   4.624  0.7351 -1.2574 -0.8627
 2341TIP3   OH2 6965   1.175   0.225   4.408  0.0881 -0.3013 -0.3646
 2341TIP3    H1 6966   1.129   0.147   4.439  1.0496 -0.6803  0.1340
 2341TIP3    H2 6967   1.184   0.280   4.486  0.4352 -0.2130 -0.4669
 2342TIP3   OH2 6968   0.596   2.243   5.286 -0.0206  0.2302 -0.4788
 2342TIP3    H1 6969   0.572   2.189   5.361  1.9749 -0.3755 -0.2692
 2342TIP3    H2 6970   0.521   2.235   5.227 -0.8695 -0.6555  0.6816
 2343TIP3   OH2 6971   1.308   0.916   2.187 -0.2105  0.2882  0.1343
 2343TIP3    H1 6972   1.237   0.974   2.162  0.8727  2.0267  1.0444
 2343TIP3    H2 6973   1.387   0.968   2.173  0.8065 -1.1357  0.4995
 2344TIP3   OH2 6974   8.284   0.362   2.997 -0.1064  0.3572 -0.3017
 2344TIP3    H1 6975   8.218   0.310   3.044 -0.6283 -0.0049 -1.4302
 2344TIP3    H2 6976   8.305   0.433   3.058 -0.6277 -0.2163  0.5702
 2345TIP3   OH2 6977   1.072   1.562   6.456 -0.4976 -0.0943  0.6169
 2345TIP3    H1 6978   1.055   1.475   6.490 -0.6292  0.8702  3.1067
 2345TIP3    H2 6979   1.056   1.621   6.530  0.4817  1.9628 -0.7483
 2346TIP3   OH2 6980   1.671   1.665   3.646  0.3197 -0.0978  0.1824
 2346TIP3    H1 6981   1.663   1.573   3.671  1.9034 -0.1223  0.6785
 2346TIP3    H2 6982   1.762   1.674   3.616 -0.5031  0.7448 -2.2168
 2347TIP3   OH2 6983   5.263   4.621   0.092  0.3028  0.2614 -0.0949
 2347TIP3    H1 6984   5.190   4.627   0.030  0.1359  2.0892  0.2507
 2347TIP3    H2 6985   5.337   4.591   0.039 -0.4862 -0.7922 -0.6187
 2348TIP3   OH2 6986   0.620   1.539   3.743  0.1561  0.4795  0.2161
 2348TIP3    H1 6987   0.615   1.512   3.835 -0.9088 -0.2637 -0.0506
 2348TIP3    H2 6988   0.577   1.625   3.741  1.5283  1.1802  0.6735
 2349TIP3   OH2 6989   0.786   1.479   1.525  0.1015 -0.1347  0.2029
 2349TIP3    H1 6990   0.821   1.566   1.548 -0.4633  0.0076  0.5357
 2349TIP3    H2 6991   0.862   1.430   1.495  1.1764 -0.7949  3.7876
 2350TIP3   OH2 6992   1.269   3.086   2.499  0.2035  0.0216  0.3674
 2350TIP3    H1 6993   1.309   3.172   2.484  0.8961 -0.0153  1.9005
 2350TIP3    H2 6994   1.179   3.106   2.525  0.1562  0.2508  0.0321
 2351TIP3   OH2 6995   1.057   2.690   0.619 -0.2031  0.4972  0.2780
 2351TIP3    H1 6996   0.962   2.680   0.619 -0.2417  0.8454 -0.4008
 2351TIP3    H2 6997   1.073   2.763   0.678 -0.3633  0.4873  0.3341
 2352TIP3   OH2 6998   1.895   0.494   4.699 -0.3065 -0.3478  0.1513
 2352TIP3    H1 6999   1.957   0.502   4.773  0.2055  4.6740 -0.6033
 2352TIP3    H2 7000   1.810   0.482   4.741  0.1343  1.2004  1.5811
 2353TIP3   OH2 7001   1.196   1.988   3.925  0.0585 -0.7684  0.1751
 2353TIP3    H1 7002   1.236   1.927   3.986  3.0072  1.2831  0.3901
 2353TIP3    H2 7003   1.148   2.049   3.980  3.2050  1.4369  0.5950
 2354TIP3   OH2 7004   5.805   7.363   4.678  0.3242  0.1069  0.1665
 2354TIP3    H1 7005   5.787   7.351   4.585  0.0260 -3.2420  0.6105
 2354TIP3    H2 7006   5.727   7.407   4.712  0.5958  1.7147 -1.1792
 2355TIP3   OH2 7007   0.119   7.748   5.060  0.3026  0.3545  0.3724
 2355TIP3    H1 7008   0.140   7.829   5.106 -1.3569  0.6646  0.6408
 2355TIP3    H2 7009   0.032   7.764   5.022  0.5706 -0.7872 -0.7804
 2356TIP3   OH2 7010   1.666   1.407   3.764  0.4349  0.0858 -0.1119
 2356TIP3    H1 7011   1.610   1.351   3.817 -0.9801  1.2786 -0.3169
 2356TIP3    H2 7012   1.753   1.396   3.802 -0.6387  1.3328  2.8906
 2357TIP3   OH2 7013   0.014   1.309   2.560 -0.5483  0.1756 -0.2829
 2357TIP3    H1 7014   0.059   1.365   2.497  1.6049 -0.2453  0.8325
 2357TIP3    H2 7015   0.001   1.365   2.637  0.5644 -0.5087  0.4087
 2358TIP3   OH2 7016   5.380   7.497   4.726  0.5207 -0.3631 -0.0076
 2358TIP3    H1 7017   5.347   7.586   4.729 -1.7091 -1.1824  1.6523
 2358TIP3    H2 7018   5.395   7.474   4.818 -0.1016 -2.0903 -0.3149
 2359TIP3   OH2 7019   1.558   2.060   5.317 -0.3827  0.0264 -0.5219
 2359TIP3    H1 7020   1.491   2.096   5.260  0.7778  1.2542 -1.1449
 2359TIP3    H2 7021   1.578   2.131   5.379 -0.3902 -0.6842  0.3169
 2360TIP3   OH2 7022   8.369   2.100   3.048 -0.3106  0.5049 -0.0911
 2360TIP3    H1 7023   8.287   2.093   3.098  0.0529  1.1066  0.6011
 2360TIP3    H2 7024   8.383   2.194   3.038 -0.6810  0.3906 -1.8478
 2361TIP3   OH2 7025   0.253   0.175   2.138 -0.5479 -0.4677 -0.3537
 2361TIP3    H1 7026   0.215   0.091   2.163  1.5560 -1.0815  0.9428
 2361TIP3    H2 7027   0.312   0.154   2.066  1.6112 -0.5133  1.3618
 2362TIP3   OH2 7028   0.325   1.374   3.432 -0.0658 -0.5871 -0.4347
 2362TIP3    H1 7029   0.339   1.419   3.349  1.0737 -1.4701 -0.7410
 2362TIP3    H2 7030   0.260   1.306   3.411 -1.8390  0.9211  0.0450
 2363TIP3   OH2 7031   1.434   1.738   1.115 -0.4805  0.3053  0.3235
 2363TIP3    H1 7032   1.510   1.789   1.145  0.9016 -0.7528 -1.3031
 2363TIP3    H2 7033   1.469   1.681   1.047 -2.7708 -0.1589 -0.4978
 2364TIP3   OH2 7034   0.342   0.036   3.765  0.2836 -0.2528  0.6662
 2364TIP3    H1 7035   0.386  -0.029   3.821 -0.4694 -0.7313  0.7087
 2364TIP3    H2 7036   0.401   0.112   3.766  0.9742 -0.7830  0.9448
 2365TIP3   OH2 7037   2.727   2.335   2.396 -0.0443 -0.3520  0.2968
 2365TIP3    H1 7038   2.739   2.258   2.451 -1.3797 -0.6657  0.1764
 2365TIP3    H2 7039   2.779   2.403   2.438 -0.2030 -0.8701  1.3633
 2366TIP3   OH2 7040   1.527   1.104   4.638 -0.5253 -0.2290 -0.7517
 2366TIP3    H1 7041   1.602   1.159   4.663  0.0135 -0.9411 -0.7636
 2366TIP3    H2 7042   1.553   1.016   4.665 -1.4459 -0.4493 -0.5929
 2367TIP3   OH2 7043   1.607   0.867   4.744 -0.2383  0.2725  0.7095
 2367TIP3    H1 7044   1.627   0.806   4.674  1.6756  2.3331 -0.5960
 2367TIP3    H2 7045   1.689   0.874   4.794 -0.6277  1.3022  1.2160
 2368TIP3   OH2 7046   1.066   1.910   3.102 -0.2380  0.0711  0.1068
 2368TIP3    H1 7047   1.101   1.999   3.106  0.3605 -0.1836  0.7415
 2368TIP3    H2 7048   1.140   1.856   3.075 -0.2455 -0.4121  1.0152
 2369TIP3   OH2 7049   1.961   2.499   2.942  0.1287 -0.1177  0.0402
 2369TIP3    H1 7050   1.986   2.528   2.854  1.5919 -0.2862  0.3932
 2369TIP3    H2 7051   2.044   2.478   2.985 -0.7396 -2.3672  0.6527
 2370TIP3   OH2 7052   1.379   2.482   3.389 -0.2939  1.0064  0.5300
 2370TIP3    H1 7053   1.445   2.492   3.321  1.8305 -1.6528  2.0873
 2370TIP3    H2 7054   1.402   2.546   3.456  2.1287 -1.3656  2.0706
 2371TIP3   OH2 7055   6.484   7.150   3.830  0.2007 -0.3601 -0.2461
 2371TIP3    H1 7056   6.393   7.135   3.858  0.6839 -0.9936  1.0146
 2371TIP3    H2 7057   6.518   7.062   3.813  1.3642 -0.3275  1.8038
 2372TIP3   OH2 7058   0.096   2.445   5.637  0.1000 -0.0996 -0.2282
 2372TIP3    H1 7059   0.096   2.365   5.689  2.7985  1.3059  2.0501
 2372TIP3    H2 7060   0.038   2.505   5.683  0.1004  0.1364 -0.5266
 2373TIP3   OH2 7061   0.874   2.211   3.728  0.1921  0.7604 -0.4672
 2373TIP3    H1 7062   0.902   2.122   3.750 -0.0885 -0.4191 -4.5245
 2373TIP3    H2 7063   0.787   2.218   3.766  0.8766 -0.0702  1.3315
 2374TIP3   OH2 7064   0.460   2.047   3.801  0.3559  0.5849  0.8785
 2374TIP3    H1 7065   0.442   2.017   3.890 -0.0664 -0.7464  0.3612
 2374TIP3    H2 7066   0.517   1.980   3.764  0.6104  1.1787  0.1711
 2375TIP3   OH2 7067   0.999   1.271   0.568 -0.0420  0.1912 -0.6186
 2375TIP3    H1 7068   1.061   1.218   0.518 -0.4310  1.4019 -2.4181
 2375TIP3    H2 7069   0.913   1.248   0.533 -0.6002 -1.0086  1.4344
 2376TIP3   OH2 7070   0.038   2.105   2.408 -0.3182 -0.6221  0.3988
 2376TIP3    H1 7071   0.065   2.093   2.317  1.5950  0.5661  0.7862
 2376TIP3    H2 7072  -0.051   2.139   2.402  0.2636  0.6763 -1.0807
 2377TIP3   OH2 7073   1.792   0.100   2.449 -0.5260  0.2874  0.3496
 2377TIP3    H1 7074   1.735   0.145   2.511  0.0725  0.5751  0.6961
 2377TIP3    H2 7075   1.875   0.091   2.495 -0.3345 -0.2644 -0.0975
 2378TIP3   OH2 7076   0.994   0.848   2.997 -0.3030  0.1740 -0.3106
 2378TIP3    H1 7077   0.961   0.938   2.996 -0.1526  0.2283 -0.1477
 2378TIP3    H2 7078   1.077   0.852   2.950 -0.9971 -0.1383 -1.6162
 2379TIP3   OH2 7079   1.633   3.451   4.284  0.2488 -0.0146 -0.6595
 2379TIP3    H1 7080   1.669   3.376   4.237  1.9185  0.7612 -0.6654
 2379TIP3    H2 7081   1.625   3.420   4.375  3.0445  0.4538 -0.2012
 2380TIP3   OH2 7082   1.303   0.872   4.055 -0.4634  0.1998 -0.4234
 2380TIP3    H1 7083   1.226   0.928   4.065 -1.9628 -1.8549 -0.0788
 2380TIP3    H2 7084   1.357   0.890   4.132 -0.9398  1.1243 -0.2998
 2381TIP3   OH2 7085   1.017   2.571   2.396  0.1660 -0.2631 -0.7047
 2381TIP3    H1 7086   1.001   2.636   2.328 -2.6073 -0.4075 -0.2583
 2381TIP3    H2 7087   1.063   2.619   2.465  0.9562  0.4342 -1.7101
 2382TIP3   OH2 7088   5.701   3.431   3.532 -0.1338  0.4490 -0.2110
 2382TIP3    H1 7089   5.719   3.486   3.455 -0.5366 -0.0926 -0.7027
 2382TIP3    H2 7090   5.717   3.342   3.501  0.5880  0.2974  0.6012
 2383TIP3   OH2 7091   0.512   3.460   3.570  0.2048  0.0756  0.2667
 2383TIP3    H1 7092   0.595   3.498   3.597 -0.5541  0.5181  2.0387
 2383TIP3    H2 7093   0.449   3.532   3.576 -0.1724 -0.0401 -1.8505
 2384TIP3   OH2 7094   0.226   3.252   2.603 -0.0551 -0.1528  0.0036
 2384TIP3    H1 7095   0.304   3.207   2.568 -0.9423 -0.7850 -1.2006
 2384TIP3    H2 7096   0.211   3.324   2.542 -0.3664  0.0292  0.2953
 2385TIP3   OH2 7097   1.175   2.964   3.885  0.0697 -0.3506 -0.2782
 2385TIP3    H1 7098   1.102   3.005   3.838 -0.5474 -1.0331  0.0597
 2385TIP3    H2 7099   1.192   2.883   3.837  0.6521 -0.1620 -0.3908
 2386TIP3   OH2 7100   1.458   1.991   2.396 -0.6628  0.3492 -0.6446
 2386TIP3    H1 7101   1.466   2.086   2.409 -1.2080  0.1270  1.4508
 2386TIP3    H2 7102   1.547   1.962   2.376 -0.5312  1.3117 -1.5582
 2387TIP3   OH2 7103   8.483   1.083   1.494 -0.1674  0.4582  0.4072
 2387TIP3    H1 7104   8.445   1.133   1.566 -1.4570  0.1749 -0.0494
 2387TIP3    H2 7105   8.569   1.057   1.525  0.3701  2.6004  0.8195
 2388TIP3   OH2 7106   0.468   3.505   2.401 -0.1791  0.2631  0.1131
 2388TIP3    H1 7107   0.514   3.527   2.482 -0.1248  0.5153  0.0152
 2388TIP3    H2 7108   0.531   3.453   2.350 -0.0999  0.3758  0.0967
 2389TIP3   OH2 7109   5.945   7.901   3.530 -0.1259 -0.3954  0.0008
 2389TIP3    H1 7110   5.856   7.867   3.534 -0.3165  0.1242  0.2089
 2389TIP3    H2 7111   5.951   7.962   3.604  0.0549  0.4005 -0.6745
 2390TIP3   OH2 7112   0.398   1.454   0.135  0.2744  0.0457 -0.3850
 2390TIP3    H1 7113   0.303   1.445   0.127  0.4319 -0.9130 -1.3462
 2390TIP3    H2 7114   0.417   1.430   0.226 -0.3493 -0.2689 -0.3372
 2391TIP3   OH2 7115   0.306   2.924   4.108  0.2253  0.1332 -0.6485
 2391TIP3    H1 7116   0.353   2.999   4.145  1.9860 -0.3593 -1.8356
 2391TIP3    H2 7117   0.228   2.963   4.068  0.7225  1.2330 -0.5664
 2392TIP3   OH2 7118   2.130   1.462   4.316  0.6152  0.1025 -0.1550
 2392TIP3    H1 7119   2.220   1.491   4.332  0.7209  0.6488 -1.6923
 2392TIP3    H2 7120   2.139   1.386   4.258  0.1808 -1.1231  1.3603
 2393TIP3   OH2 7121   2.624   2.076   3.281 -0.0995  0.4542 -0.1055
 2393TIP3    H1 7122   2.629   1.984   3.307  1.8925  0.2667 -1.0013
 2393TIP3    H2 7123   2.662   2.078   3.193 -1.6865  1.8867 -0.7747
 2394TIP3   OH2 7124   0.488   2.638   2.960 -0.4327  1.1914 -0.1198
 2394TIP3    H1 7125   0.439   2.596   2.889 -0.3556  1.1775 -0.1647
 2394TIP3    H2 7126   0.451   2.601   3.040  2.6912 -2.4845 -0.1960
 2395TIP3   OH2 7127   0.125   1.127   2.081  0.0472  0.4536  0.6090
 2395TIP3    H1 7128   0.191   1.114   2.149  0.3551 -0.2144  0.1959
 2395TIP3    H2 7129   0.052   1.071   2.107  0.4661 -0.3927  0.0124
 2396TIP3   OH2 7130   8.242   0.449   3.409  0.6858  0.0796 -0.6726
 2396TIP3    H1 7131   8.164   0.409   3.369  0.2627 -0.5263  0.7063
 2396TIP3    H2 7132   8.276   0.508   3.342 -0.6723 -0.0340 -1.4874
 2397TIP3   OH2 7133   0.860   2.212   4.600 -0.5175  0.3319  0.1387
 2397TIP3    H1 7134   0.801   2.138   4.587 -0.3904  0.4653 -1.3051
 2397TIP3    H2 7135   0.916   2.212   4.522  2.4208 -0.7127  2.2068
 2398TIP3   OH2 7136   0.288   2.836   3.040 -0.3011  0.0565 -0.2453
 2398TIP3    H1 7137   0.243   2.911   3.079 -0.5060 -0.0429 -0.2900
 2398TIP3    H2 7138   0.360   2.817   3.100 -1.2814 -0.8052  0.6840
 2399TIP3   OH2 7139   0.054   2.557   3.212  0.1117  0.0078 -0.4629
 2399TIP3    H1 7140  -0.039   2.537   3.201  0.3497 -0.6502 -1.3263
 2399TIP3    H2 7141   0.055   2.646   3.248 -0.8067  1.0163 -2.8460
 2400TIP3   OH2 7142   1.598   2.325   3.875 -0.2238  0.0355  0.0259
 2400TIP3    H1 7143   1.566   2.397   3.821 -1.6372  0.1632  0.9894
 2400TIP3    H2 7144   1.684   2.353   3.905 -0.9552  1.5277  0.7564
 2401TIP3   OH2 7145   8.163   2.337   3.877  0.2562 -0.0880  0.0097
 2401TIP3    H1 7146   8.256   2.351   3.899  0.6571 -0.0254 -1.6438
 2401TIP3    H2 7147   8.129   2.286   3.950  0.6444  3.0666  2.5415
 2402TIP3   OH2 7148   6.000   7.663   3.408  0.1285 -0.1895 -0.0208
 2402TIP3    H1 7149   5.988   7.739   3.465  0.5084 -0.7645  0.8313
 2402TIP3    H2 7150   5.920   7.612   3.418 -0.0344 -0.0139 -0.4229
 2403TIP3   OH2 7151   5.327   6.757   3.486  0.1462  0.8531  0.1007
 2403TIP3    H1 7152   5.260   6.747   3.419  1.2320 -0.7892 -0.7711
 2403TIP3    H2 7153   5.289   6.716   3.564  0.1654 -0.1292 -0.4058
 2404TIP3   OH2 7154   0.482   7.644   5.566  0.1718  0.0374 -0.1696
 2404TIP3    H1 7155   0.430   7.578   5.613 -0.7798  0.6271 -0.3744
 2404TIP3    H2 7156   0.490   7.609   5.477  0.5019 -0.2659 -0.0215
 2405TIP3   OH2 7157   8.087   2.146   3.711 -0.1417  0.1813  0.5545
 2405TIP3    H1 7158   7.997   2.155   3.680 -0.4203  0.3309  1.4062
 2405TIP3    H2 7159   8.105   2.227   3.758  0.9623  0.8137 -0.9035
 2406TIP3   OH2 7160   6.770   7.678   5.075  0.4261 -0.0685  0.1528
 2406TIP3    H1 7161   6.759   7.742   5.145  1.3685  0.1544  0.0977
 2406TIP3    H2 7162   6.824   7.721   5.010  0.4334 -0.6537 -0.2390
 2407TIP3   OH2 7163   0.389   1.135   2.591  0.5008  0.0399 -0.1777
 2407TIP3    H1 7164   0.480   1.119   2.617 -0.0871 -0.1915  1.8621
 2407TIP3    H2 7165   0.363   1.212   2.642 -0.8598 -0.7379  0.3327
 2408TIP3   OH2 7166   1.130   0.813   4.577 -0.3005 -0.5320  0.1593
 2408TIP3    H1 7167   1.216   0.810   4.619 -0.1973 -0.4959 -0.0457
 2408TIP3    H2 7168   1.135   0.748   4.507 -0.6046 -0.8680  0.4493
 2409TIP3   OH2 7169   0.736   0.958   4.451  0.3261 -0.1318  0.1109
 2409TIP3    H1 7170   0.748   0.925   4.362  1.3396 -0.3171  0.3165
 2409TIP3    H2 7171   0.726   1.053   4.441  2.8182  0.1380  0.0041
 2410TIP3   OH2 7172   2.351   1.971   5.268 -0.0163  0.2713  0.5681
 2410TIP3    H1 7173   2.398   1.888   5.279  0.9646  0.8934  1.1605
 2410TIP3    H2 7174   2.419   2.038   5.277 -0.5765  1.0985 -1.2220
 2411TIP3   OH2 7175   1.870   1.631   3.359  0.3157  0.1438  0.1374
 2411TIP3    H1 7176   1.831   1.553   3.398  0.9324 -0.5455 -0.5836
 2411TIP3    H2 7177   1.802   1.698   3.364 -0.4766 -0.6525  0.1153
 2412TIP3   OH2 7178   1.029   0.325   4.914 -0.0154  0.6886 -0.3080
 2412TIP3    H1 7179   1.082   0.278   4.849 -1.1510 -0.1442 -0.6460
 2412TIP3    H2 7180   1.058   0.289   4.998 -1.4244 -1.2293 -0.6055
 2413TIP3   OH2 7181   4.149   5.810   0.200  0.2484  0.2629  0.0546
 2413TIP3    H1 7182   4.079   5.861   0.158  0.1412 -0.1667 -0.2971
 2413TIP3    H2 7183   4.147   5.838   0.291  0.5148  1.2486 -0.2281
 2414TIP3   OH2 7184   1.099   1.548   5.730  0.1645  0.1910  0.0692
 2414TIP3    H1 7185   1.012   1.511   5.720  0.3536 -0.1946 -0.1563
 2414TIP3    H2 7186   1.084   1.637   5.763 -0.3128  0.1750 -0.1098
 2415TIP3   OH2 7187   1.556   1.141   5.146  0.0978  0.9503  0.3156
 2415TIP3    H1 7188   1.631   1.138   5.086 -1.8700 -0.3079 -2.1343
 2415TIP3    H2 7189   1.576   1.075   5.212 -0.0360 -1.2412 -1.7906
 2416TIP3   OH2 7190   0.376   0.895   1.894 -0.0607  0.0571  0.3396
 2416TIP3    H1 7191   0.309   0.861   1.954 -1.3268  1.0516 -0.4965
 2416TIP3    H2 7192   0.341   0.878   1.807  0.6489  0.8446 -0.0992
 2417TIP3   OH2 7193   0.964   3.304   2.360 -0.6265 -0.2005  0.0791
 2417TIP3    H1 7194   0.985   3.350   2.441 -2.3769  1.3051 -0.2790
 2417TIP3    H2 7195   0.901   3.362   2.316 -1.7642 -2.2718 -1.0795
 2418TIP3   OH2 7196   8.308   3.106   1.914  0.0909  0.8035 -0.7023
 2418TIP3    H1 7197   8.347   3.024   1.882 -0.2486  0.8243 -1.1712
 2418TIP3    H2 7198   8.322   3.169   1.844  1.0651  1.3732 -0.0136
 2419TIP3   OH2 7199   1.738   2.849   3.349 -0.7996 -0.3848 -0.2468
 2419TIP3    H1 7200   1.709   2.761   3.323 -1.7028 -0.1130 -0.1975
 2419TIP3    H2 7201   1.783   2.836   3.432 -0.4425 -0.8765 -0.5163
 2420TIP3   OH2 7202   1.017   4.147   3.515 -0.3934 -0.5693  0.0954
 2420TIP3    H1 7203   1.003   4.204   3.591  0.6993  0.7737 -0.7019
 2420TIP3    H2 7204   0.947   4.169   3.455  0.0708 -0.0219 -0.2430
 2421TIP3   OH2 7205   4.880   3.585   6.919  0.2423 -0.0753 -0.0297
 2421TIP3    H1 7206   4.931   3.527   6.975  0.3959  1.5180  1.5098
 2421TIP3    H2 7207   4.792   3.547   6.919  0.1719  0.0533  1.5239
 2422TIP3   OH2 7208   2.095   2.422   3.968 -0.4277 -0.2180 -0.8418
 2422TIP3    H1 7209   2.156   2.369   3.918 -1.6151 -1.9839 -0.4349
 2422TIP3    H2 7210   2.125   2.413   4.059 -0.5535 -0.0920 -0.7875
 2423TIP3   OH2 7211   0.184   3.945   3.626 -0.4859 -0.0720  0.1874
 2423TIP3    H1 7212   0.211   4.018   3.569  2.7641 -0.9690  0.4777
 2423TIP3    H2 7213   0.157   3.876   3.566 -1.0693  0.4511 -0.1555
 2424TIP3   OH2 7214   6.948   7.953   0.130 -0.3427  0.6777  0.3516
 2424TIP3    H1 7215   6.891   7.938   0.054  1.0947  2.1272 -1.0515
 2424TIP3    H2 7216   6.992   8.035   0.111  1.6123 -0.0049  1.7968
 2425TIP3   OH2 7217   8.105   0.022   2.566  0.9071 -0.8209 -0.0958
 2425TIP3    H1 7218   8.185  -0.012   2.606  0.9759 -1.4062 -0.7195
 2425TIP3    H2 7219   8.072   0.085   2.629  1.7773 -0.6938  0.2425
 2426TIP3   OH2 7220   6.398   7.589   3.665  0.1694  0.3826 -0.3500
 2426TIP3    H1 7221   6.448   7.543   3.597  0.4533  1.2354 -0.7416
 2426TIP3    H2 7222   6.311   7.549   3.663 -0.1703  1.1570 -2.0181
 2427TIP3   OH2 7223   1.377   1.131   4.393 -0.1325 -0.4262  0.2107
 2427TIP3    H1 7224   1.301   1.168   4.437 -0.3725 -1.5236  0.7433
 2427TIP3    H2 7225   1.451   1.149   4.452 -0.1063 -0.0476  0.0627
 2428TIP3   OH2 7226   4.457   1.588   4.966 -0.0129 -0.0678 -0.3328
 2428TIP3    H1 7227   4.405   1.668   4.956 -4.3979 -2.1825  3.4601
 2428TIP3    H2 7228   4.477   1.561   4.876 -2.3687  2.8238 -1.8274
 2429TIP3   OH2 7229   0.965   1.942   3.748  0.1410  0.3838 -0.1439
 2429TIP3    H1 7230   1.042   1.947   3.804  1.3206  0.8418 -1.7727
 2429TIP3    H2 7231   0.993   1.891   3.672 -1.6877 -0.9889  0.0665
 2430TIP3   OH2 7232   0.160   2.689   4.082 -0.9647 -0.4100  0.2331
 2430TIP3    H1 7233   0.227   2.755   4.100 -1.6034 -0.1352  1.6607
 2430TIP3    H2 7234   0.154   2.638   4.162 -1.5400 -1.2607 -0.3402
 2431TIP3   OH2 7235   2.799   3.543   5.134  0.1700 -0.2958 -0.0705
 2431TIP3    H1 7236   2.753   3.463   5.106  0.9322 -1.2076  1.2630
 2431TIP3    H2 7237   2.787   3.545   5.229  0.4448  1.0050 -0.0668
 2432TIP3   OH2 7238   2.909   1.188   4.479 -0.7001  0.7878 -0.4475
 2432TIP3    H1 7239   2.951   1.102   4.476  0.4427  1.3389 -0.6219
 2432TIP3    H2 7240   2.869   1.192   4.566 -3.3279 -1.0910 -1.4987
 2433TIP3   OH2 7241   8.193   1.405   3.392  0.3301  0.2563  0.2848
 2433TIP3    H1 7242   8.255   1.336   3.415 -1.0593 -0.5462  1.6492
 2433TIP3    H2 7243   8.148   1.371   3.315  1.2616  0.6603 -0.4544
 2434TIP3   OH2 7244   1.011   7.903   3.200  0.0061  0.4824  0.0760
 2434TIP3    H1 7245   1.099   7.941   3.195 -0.1616  1.0644  1.2109
 2434TIP3    H2 7246   1.006   7.866   3.289 -0.3326 -0.9681 -0.5282
 2435TIP3   OH2 7247   8.394   0.165   1.891  0.2990  0.5819 -0.1436
 2435TIP3    H1 7248   8.432   0.240   1.936 -0.2731  1.0609 -0.4512
 2435TIP3    H2 7249   8.301   0.168   1.913 -0.0904  1.1504 -1.8126
 2436TIP3   OH2 7250   0.152   1.625   1.337  0.0378 -0.0153  0.2739
 2436TIP3    H1 7251   0.131   1.532   1.338 -1.8594  0.3467 -1.8570
 2436TIP3    H2 7252   0.232   1.632   1.285  0.5355 -0.5028  0.9674
 2437TIP3   OH2 7253   7.839   2.368   2.725  0.0257 -0.2378 -0.5881
 2437TIP3    H1 7254   7.796   2.446   2.759  0.2651 -0.3807  0.0663
 2437TIP3    H2 7255   7.799   2.353   2.640  0.6691  1.1461 -1.1382
 2438TIP3   OH2 7256   0.484   4.193   3.814  0.2227  0.1106  0.0655
 2438TIP3    H1 7257   0.401   4.220   3.853  0.1079 -0.0084 -0.0976
 2438TIP3    H2 7258   0.551   4.224   3.876  0.0415 -0.0722  0.3539
 2439TIP3   OH2 7259   2.834   0.680   5.729 -0.5404 -0.4065 -0.2871
 2439TIP3    H1 7260   2.799   0.769   5.728 -0.5358 -0.3566  1.8796
 2439TIP3    H2 7261   2.862   0.665   5.639 -0.7390  1.6974 -0.7415
 2440TIP3   OH2 7262   1.330   1.891   3.677 -0.0847 -0.2225  0.1467
 2440TIP3    H1 7263   1.342   1.807   3.722  3.2695  0.0045 -0.2152
 2440TIP3    H2 7264   1.285   1.946   3.740 -1.7848 -2.1047  0.6102
 2441TIP3   OH2 7265   0.945   2.438   3.206 -0.2387  0.1420 -0.1558
 2441TIP3    H1 7266   0.866   2.383   3.213 -0.1221  0.0861  0.7259
 2441TIP3    H2 7267   1.016   2.382   3.239 -0.2100  1.0283  1.3044
 2442TIP3   OH2 7268   2.984   1.546   5.237 -0.0924  0.0353  0.0041
 2442TIP3    H1 7269   3.030   1.466   5.264  2.0027  0.9330 -0.7881
 2442TIP3    H2 7270   2.969   1.593   5.319  0.1062 -0.4290  0.3129
 2443TIP3   OH2 7271   1.919   4.452   0.940  0.0098  0.8554  0.3644
 2443TIP3    H1 7272   1.979   4.383   0.969 -0.9538  0.1464  0.6775
 2443TIP3    H2 7273   1.856   4.407   0.884 -1.1409  1.3262  1.2711
 2444TIP3   OH2 7274   6.945   2.631   3.239  0.1622 -0.5548 -0.2506
 2444TIP3    H1 7275   7.039   2.612   3.244  0.3634  1.0027  3.8163
 2444TIP3    H2 7276   6.917   2.593   3.156  4.3475 -1.2327 -1.4584
 2445TIP3   OH2 7277   6.973   7.974   4.562  0.0709 -0.1957 -0.2503
 2445TIP3    H1 7278   6.887   8.015   4.566  0.2504  0.1705 -0.1414
 2445TIP3    H2 7279   7.033   8.046   4.547  0.3606 -0.4520 -0.3265
 2446TIP3   OH2 7280   8.341   1.815   3.579 -0.0154 -0.2317 -0.0717
 2446TIP3    H1 7281   8.405   1.764   3.531  1.5250  1.0031  0.6268
 2446TIP3    H2 7282   8.341   1.778   3.667  1.3621  1.1649  0.5336
 2447TIP3   OH2 7283   1.480   2.540   4.106 -0.1027 -0.4751 -0.3957
 2447TIP3    H1 7284   1.500   2.634   4.103 -1.5502 -0.0775  1.4442
 2447TIP3    H2 7285   1.492   2.510   4.016  1.9596  1.1239 -0.7137
 2448TIP3   OH2 7286   2.002   0.180   1.063 -0.2906  0.5451 -0.0136
 2448TIP3    H1 7287   2.030   0.152   1.150 -1.0313  1.4330  0.5123
 2448TIP3    H2 7288   1.948   0.107   1.031 -0.3018  0.3653  0.4090
 2449TIP3   OH2 7289   2.503   0.046   2.105  0.1210  0.3093  0.1600
 2449TIP3    H1 7290   2.471   0.107   2.039  0.3995  1.1362  0.7792
 2449TIP3    H2 7291   2.558   0.099   2.163  2.7051 -1.0782 -0.9334
 2450TIP3   OH2 7292   7.442   7.848   1.404 -0.0291 -0.0696  0.3425
 2450TIP3    H1 7293   7.348   7.848   1.385 -0.0414  1.1219  0.3862
 2450TIP3    H2 7294   7.450   7.794   1.483 -0.6986  0.0439  0.4942
 2451TIP3   OH2 7295   0.577   1.752   1.591 -0.2713  0.7483 -0.3532
 2451TIP3    H1 7296   0.481   1.745   1.587 -0.3191 -1.5090  2.5990
 2451TIP3    H2 7297   0.608   1.675   1.543  0.0153  0.7018 -0.0958
 2452TIP3   OH2 7298   0.244   1.887   1.136 -0.3338  0.1500  0.0581
 2452TIP3    H1 7299   0.175   1.829   1.104  0.4196 -0.0747 -1.2132
 2452TIP3    H2 7300   0.318   1.830   1.154 -0.4468  0.3970  1.3607
 2453TIP3   OH2 7301   3.831   0.334   5.853 -0.0220 -0.5068 -0.2810
 2453TIP3    H1 7302   3.877   0.412   5.822  1.1013 -0.6370  1.0221
 2453TIP3    H2 7303   3.821   0.347   5.947 -2.8030 -0.4223 -0.5326
 2454TIP3   OH2 7304   0.559   2.820   3.997  0.2088  0.3977 -0.3715
 2454TIP3    H1 7305   0.535   2.785   3.912  1.0931  0.5484 -0.6865
 2454TIP3    H2 7306   0.510   2.902   4.005 -1.6226 -0.7224  0.2311
 2455TIP3   OH2 7307   2.040   2.369   4.603  0.0677  0.3410 -0.3082
 2455TIP3    H1 7308   1.999   2.456   4.601  0.7253  0.6725  0.4566
 2455TIP3    H2 7309   1.980   2.313   4.553 -0.1201  1.3313 -1.2220
 2456TIP3   OH2 7310   2.260   2.647   1.906  0.2010  0.7364 -0.5433
 2456TIP3    H1 7311   2.351   2.658   1.934  0.8136 -0.1236 -2.1360
 2456TIP3    H2 7312   2.220   2.733   1.918  1.2099  1.1081  0.2177
 2457TIP3   OH2 7313   1.571   3.108   4.699 -0.6695 -1.1460  0.2254
 2457TIP3    H1 7314   1.589   3.034   4.757  1.5253  0.2809  1.4235
 2457TIP3    H2 7315   1.558   3.182   4.758  1.8798  0.4089 -1.0631
 2458TIP3   OH2 7316   2.659   4.110   3.181  0.6911  0.1222  0.1817
 2458TIP3    H1 7317   2.655   4.204   3.162  0.6393 -0.1756 -1.3697
 2458TIP3    H2 7318   2.609   4.070   3.110 -1.1722 -0.9398  2.0277
 2459TIP3   OH2 7319   5.851   7.939   2.226 -0.1208 -0.2138  0.4642
 2459TIP3    H1 7320   5.900   7.864   2.260  0.2414 -0.3173 -0.2670
 2459TIP3    H2 7321   5.759   7.913   2.233  0.0085 -0.7867  0.0949
 2460TIP3   OH2 7322   2.702   2.094   3.032  0.4358 -0.2416 -0.0576
 2460TIP3    H1 7323   2.679   2.187   3.040  1.1259 -0.0552 -0.2195
 2460TIP3    H2 7324   2.690   2.074   2.939  1.1809 -0.0767 -0.1896
 2461TIP3   OH2 7325   1.324   1.325   6.384  0.0254  0.5533 -0.0952
 2461TIP3    H1 7326   1.403   1.340   6.331 -1.0813 -0.0814 -1.9987
 2461TIP3    H2 7327   1.267   1.399   6.363 -0.0980  0.7486  0.9021
 2462TIP3   OH2 7328   1.143   2.198   3.632 -0.6205 -0.7099 -0.0874
 2462TIP3    H1 7329   1.203   2.220   3.703 -1.4481  1.2823  0.0278
 2462TIP3    H2 7330   1.056   2.212   3.669 -1.0738 -0.3933 -1.2469
 2463TIP3   OH2 7331   1.027   1.236   1.814 -0.0763  0.5374 -0.1006
 2463TIP3    H1 7332   0.940   1.232   1.854 -0.5129  2.2489 -0.8234
 2463TIP3    H2 7333   1.030   1.160   1.756 -0.7820  0.0044  0.5483
 2464TIP3   OH2 7334   4.012   1.461   1.639  0.3180  0.1681  0.0028
 2464TIP3    H1 7335   3.978   1.502   1.560 -1.3609 -0.0144  0.6143
 2464TIP3    H2 7336   4.046   1.535   1.691  1.9885  0.2287 -1.1186
 2465TIP3   OH2 7337   3.746   3.378   1.609 -0.0232  0.2661 -0.0031
 2465TIP3    H1 7338   3.651   3.392   1.616  0.1346  1.4169 -0.0988
 2465TIP3    H2 7339   3.768   3.406   1.520  0.0670 -2.0976 -0.7653
 2466TIP3   OH2 7340   7.725   6.519   2.841  0.2103 -0.1613  0.5020
 2466TIP3    H1 7341   7.730   6.428   2.813 -1.6490  0.0304 -0.5027
 2466TIP3    H2 7342   7.648   6.522   2.899 -0.0579  0.8743  0.0946
 2467TIP3   OH2 7343   3.415   1.092   1.424  0.4001 -0.0279 -0.0474
 2467TIP3    H1 7344   3.394   1.122   1.512  0.6166  0.2757 -0.0984
 2467TIP3    H2 7345   3.350   1.024   1.405 -0.9831  1.3756 -0.4659
 2468TIP3   OH2 7346   0.353   2.187   2.423 -0.3837  0.0345 -0.1610
 2468TIP3    H1 7347   0.263   2.158   2.406 -0.6031  0.7217 -0.1579
 2468TIP3    H2 7348   0.368   2.167   2.515 -0.3435 -0.5794 -0.2949
 2469TIP3   OH2 7349   1.532   0.790   2.653 -0.1692  0.2299 -0.3969
 2469TIP3    H1 7350   1.550   0.860   2.716 -1.6315  0.7047 -0.4713
 2469TIP3    H2 7351   1.510   0.837   2.572 -0.0373 -0.3370 -0.7608
 2470TIP3   OH2 7352   2.888   3.020   5.425 -0.1040 -0.4306  0.1051
 2470TIP3    H1 7353   2.976   2.999   5.457  0.6037 -0.0336 -1.5309
 2470TIP3    H2 7354   2.879   2.969   5.345 -0.8185  0.6150 -0.4898
 2471TIP3   OH2 7355   1.121   0.499   2.960  0.1916 -0.3434 -0.3584
 2471TIP3    H1 7356   1.188   0.487   3.027  0.4392 -0.2723 -0.5906
 2471TIP3    H2 7357   1.079   0.413   2.953 -0.6862 -0.0212  0.7788
 2472TIP3   OH2 7358   8.246   4.637   1.840 -0.2008  0.5963  0.2352
 2472TIP3    H1 7359   8.237   4.705   1.906 -0.2595 -0.3924  1.2543
 2472TIP3    H2 7360   8.236   4.555   1.888  2.6208 -0.2411 -0.4945
 2473TIP3   OH2 7361   1.795   2.905   3.061  0.4517  0.0235 -0.6097
 2473TIP3    H1 7362   1.776   2.924   3.152 -0.7760  0.0440 -0.8720
 2473TIP3    H2 7363   1.888   2.880   3.061  1.1013  2.3336  0.2892
 2474TIP3   OH2 7364   2.627   1.880   2.737 -0.2203  0.1581 -0.3245
 2474TIP3    H1 7365   2.673   1.963   2.750 -0.2878  0.0209  0.8222
 2474TIP3    H2 7366   2.617   1.873   2.642  1.5539  0.4942 -0.5571
 2475TIP3   OH2 7367   1.370   3.907   3.416  0.2409  0.1928 -0.2305
 2475TIP3    H1 7368   1.404   3.831   3.462  0.3335 -0.2652 -1.0568
 2475TIP3    H2 7369   1.275   3.896   3.418  0.2088  0.5290  0.4468
 2476TIP3   OH2 7370   0.101   1.091   2.863  0.4591  1.0728 -0.8921
 2476TIP3    H1 7371   0.162   1.019   2.850 -0.4162  0.5369 -2.2680
 2476TIP3    H2 7372   0.041   1.084   2.788 -1.4894  1.3598  0.6077
 2477TIP3   OH2 7373   1.611   1.225   1.774 -0.0638  0.3886  0.0859
 2477TIP3    H1 7374   1.530   1.175   1.783  0.4092 -0.3196  0.4559
 2477TIP3    H2 7375   1.617   1.244   1.680 -2.6535  3.8288  0.5072
 2478TIP3   OH2 7376   1.584   3.361   2.518 -0.2031  0.5385 -0.4418
 2478TIP3    H1 7377   1.618   3.275   2.542 -0.0742  0.7598  0.1800
 2478TIP3    H2 7378   1.617   3.420   2.586  0.0410  1.1497 -1.0811
 2479TIP3   OH2 7379   2.336   1.294   3.661  0.2968  0.2673 -0.0617
 2479TIP3    H1 7380   2.273   1.261   3.597  1.3012  0.9054 -1.3965
 2479TIP3    H2 7381   2.318   1.243   3.740 -0.4245 -1.0958 -1.0859
 2480TIP3   OH2 7382   7.756   7.591   4.297  0.2037 -0.2188 -0.4949
 2480TIP3    H1 7383   7.814   7.652   4.342 -0.2443 -0.8872  0.9940
 2480TIP3    H2 7384   7.691   7.647   4.254 -1.8284  0.2720  3.0842
 2481TIP3   OH2 7385   0.964   3.418   3.528 -1.0135  0.5634 -0.2100
 2481TIP3    H1 7386   1.020   3.346   3.500 -0.6100  0.4510  0.8939
 2481TIP3    H2 7387   0.876   3.381   3.529 -0.5729 -0.5080  2.3030
 2482TIP3   OH2 7388   4.620   3.324   2.465  0.5573  0.0227 -0.2602
 2482TIP3    H1 7389   4.572   3.408   2.464  1.5626  0.6585  2.1284
 2482TIP3    H2 7390   4.706   3.345   2.429  0.7857  0.0035  0.2724
 2483TIP3   OH2 7391   2.749   2.521   3.324 -0.0614 -0.1165  0.2825
 2483TIP3    H1 7392   2.709   2.584   3.265 -1.1612 -0.2769  0.8215
 2483TIP3    H2 7393   2.776   2.449   3.268  0.2536  0.3875 -0.2060
 2484TIP3   OH2 7394   1.901   1.332   1.241 -0.2467  0.3502  0.2341
 2484TIP3    H1 7395   1.845   1.300   1.170  1.3619  0.7336 -1.2543
 2484TIP3    H2 7396   1.922   1.254   1.292 -0.4187 -0.1370 -0.4353
 2485TIP3   OH2 7397   6.846   7.900   1.556 -0.0410 -0.1197  0.3178
 2485TIP3    H1 7398   6.802   7.959   1.617 -1.1368 -0.2330 -0.3425
 2485TIP3    H2 7399   6.870   7.824   1.609  0.6504  0.5678  0.9961
 2486TIP3   OH2 7400   2.703   2.990   3.540 -0.1157  0.5117  0.6203
 2486TIP3    H1 7401   2.654   3.028   3.467  0.4417 -1.3538 -0.7518
 2486TIP3    H2 7402   2.777   3.051   3.553  0.5984  0.1073 -1.3477
 2487TIP3   OH2 7403   0.517   1.503   2.724 -0.4615 -0.0526  0.0284
 2487TIP3    H1 7404   0.462   1.426   2.741 -0.1876 -0.9324 -2.7803
 2487TIP3    H2 7405   0.606   1.467   2.716  0.0330  0.8994  1.0652
 2488TIP3   OH2 7406   2.414   0.318   2.548  0.6629  0.1394  0.1257
 2488TIP3    H1 7407   2.372   0.403   2.536  0.4169  0.0769  0.5153
 2488TIP3    H2 7408   2.353   0.256   2.508  0.7380  0.1256  0.0337
 2489TIP3   OH2 7409   5.705   7.336   2.550 -0.5791  0.1017  0.0346
 2489TIP3    H1 7410   5.714   7.244   2.575 -0.0981  0.7883  2.5276
 2489TIP3    H2 7411   5.790   7.374   2.568 -0.9766  1.1947 -0.3705
 2490TIP3   OH2 7412   0.270   3.044   3.213 -0.8738 -0.2140  0.0001
 2490TIP3    H1 7413   0.262   3.133   3.178 -1.4667 -0.2022  0.1767
 2490TIP3    H2 7414   0.250   3.052   3.306 -1.4742 -0.6243 -0.0890
 2491TIP3   OH2 7415   0.973   1.929   1.923  0.1312 -0.0392  0.2700
 2491TIP3    H1 7416   0.909   1.924   1.851 -1.6379 -1.2278  1.8576
 2491TIP3    H2 7417   0.969   2.020   1.951 -0.9166 -0.1118  0.3830
 2492TIP3   OH2 7418   0.402   3.158   4.198  0.0091  0.3364 -0.3815
 2492TIP3    H1 7419   0.354   3.194   4.123 -0.3041  0.9143  0.0884
 2492TIP3    H2 7420   0.386   3.221   4.269  1.3643  0.4723 -0.1812
 2493TIP3   OH2 7421   0.818   2.173   4.876 -0.3095  0.5667  0.4501
 2493TIP3    H1 7422   0.834   2.217   4.792  3.1997 -1.1328  0.1233
 2493TIP3    H2 7423   0.808   2.081   4.853 -1.5141  0.3878  1.7028
 2494TIP3   OH2 7424   2.992   3.098   3.726  0.2522  0.0585  0.4320
 2494TIP3    H1 7425   3.021   3.107   3.817 -0.5358 -0.3910  0.7296
 2494TIP3    H2 7426   3.053   3.035   3.688  0.1079 -0.3471  0.8630
 2495TIP3   OH2 7427   0.240   0.264   5.676 -0.4433 -0.4634 -0.6141
 2495TIP3    H1 7428   0.331   0.289   5.689 -0.2866 -2.3460  2.5029
 2495TIP3    H2 7429   0.237   0.229   5.587  1.1953  2.2603 -1.8015
 2496TIP3   OH2 7430   1.185   4.027   3.768 -0.4362  0.7250  0.2241
 2496TIP3    H1 7431   1.139   4.105   3.801  0.2360  0.6604  1.3176
 2496TIP3    H2 7432   1.213   4.052   3.680 -0.7661  1.5043  0.3368
 2497TIP3   OH2 7433   8.216   2.674   5.630 -0.2800  0.3868  0.1022
 2497TIP3    H1 7434   8.178   2.600   5.678  2.9294 -0.7909  0.9391
 2497TIP3    H2 7435   8.271   2.633   5.563 -0.3456  2.0401 -0.9922
 2498TIP3   OH2 7436   2.334   1.969   1.104  0.3371  0.0596  0.1110
 2498TIP3    H1 7437   2.348   2.037   1.039 -0.2534 -0.1442 -0.2355
 2498TIP3    H2 7438   2.415   1.917   1.101  0.1698 -0.1673 -0.7287
 2499TIP3   OH2 7439   1.207   1.853   2.387  0.0226  0.2900  0.2486
 2499TIP3    H1 7440   1.288   1.905   2.390 -1.1543  2.1532  0.2340
 2499TIP3    H2 7441   1.167   1.876   2.304 -1.1979  0.4183  0.8630
 2500TIP3   OH2 7442   4.049   1.721   2.535 -0.0938 -0.1355  0.1257
 2500TIP3    H1 7443   4.089   1.689   2.616  1.3715  1.8414  0.2274
 2500TIP3    H2 7444   3.988   1.789   2.564 -0.9920 -0.7498 -0.2991
 2501TIP3   OH2 7445   2.664   0.647   3.097  0.2214 -0.0529 -0.2018
 2501TIP3    H1 7446   2.718   0.665   3.020  1.5234 -2.1398  0.1638
 2501TIP3    H2 7447   2.705   0.696   3.168  2.0526 -2.0674  0.1957
 2502TIP3   OH2 7448   1.117   1.731   4.340  0.1965 -0.2171  0.6727
 2502TIP3    H1 7449   1.083   1.818   4.360  2.1077 -0.1324  3.8447
 2502TIP3    H2 7450   1.039   1.676   4.334 -0.8688  1.1422  1.6902
 2503TIP3   OH2 7451   0.963   1.702   3.566  0.2005 -0.1009 -0.0732
 2503TIP3    H1 7452   1.010   1.766   3.513  0.2969 -0.6239 -0.6333
 2503TIP3    H2 7453   1.025   1.629   3.574  0.5119  0.3046  1.4664
 2504TIP3   OH2 7454   3.226   3.745   3.077 -0.4821 -0.8329 -0.0793
 2504TIP3    H1 7455   3.229   3.650   3.060  0.4788 -0.9692  0.8129
 2504TIP3    H2 7456   3.195   3.752   3.167 -0.0292 -0.3155  0.0334
 2505TIP3   OH2 7457   2.112   1.712   4.091 -0.5249 -0.3418 -0.2767
 2505TIP3    H1 7458   2.188   1.750   4.047  0.4860  0.1266  1.8418
 2505TIP3    H2 7459   2.123   1.736   4.183 -3.3486 -0.0807  0.0296
 2506TIP3   OH2 7460   0.909   1.487   2.954  0.1109 -0.4036 -0.1939
 2506TIP3    H1 7461   0.890   1.515   2.865 -1.0007  0.3910  0.2826
 2506TIP3    H2 7462   0.848   1.416   2.971  0.8634 -1.0858 -0.3432
 2507TIP3   OH2 7463   1.780   3.137   1.329 -0.2876  0.5708  0.4668
 2507TIP3    H1 7464   1.781   3.130   1.233 -0.9927  0.3060  0.4771
 2507TIP3    H2 7465   1.832   3.062   1.359 -0.2742  0.5123  0.2981
 2508TIP3   OH2 7466   0.948   2.708   1.188 -0.4027  0.8559  0.3528
 2508TIP3    H1 7467   0.893   2.786   1.195 -0.4753  0.8265  0.0873
 2508TIP3    H2 7468   1.021   2.734   1.133 -1.1152  0.3473 -0.8510
 2509TIP3   OH2 7469   3.313   2.841   4.995  0.1945 -0.3511  0.3795
 2509TIP3    H1 7470   3.341   2.753   4.968 -0.7534 -0.1635 -1.3400
 2509TIP3    H2 7471   3.284   2.831   5.085 -0.7792 -2.0313 -0.0901
 2510TIP3   OH2 7472   0.468   1.194   0.828 -0.5396  0.8019 -0.2047
 2510TIP3    H1 7473   0.465   1.112   0.779  1.8051  0.1627  0.6672
 2510TIP3    H2 7474   0.452   1.169   0.919 -0.7770  1.4332 -0.0700
 2511TIP3   OH2 7475   0.660   1.210   4.152  0.1273  1.0022 -0.5086
 2511TIP3    H1 7476   0.724   1.215   4.223  0.6494  1.0340 -0.9822
 2511TIP3    H2 7477   0.712   1.201   4.072 -0.4677  0.2595 -0.8274
 2512TIP3   OH2 7478   1.189   1.366   3.016  0.4669  0.0686  0.4727
 2512TIP3    H1 7479   1.098   1.393   3.025  0.9549  2.4478 -1.2651
 2512TIP3    H2 7480   1.194   1.282   3.061 -2.3625  0.3603  1.3963
 2513TIP3   OH2 7481   3.373   2.621   5.413 -0.1906  0.3667  0.5166
 2513TIP3    H1 7482   3.346   2.698   5.363 -2.4949 -0.7026  0.0144
 2513TIP3    H2 7483   3.375   2.652   5.504  0.9222  1.5219  0.1171
 2514TIP3   OH2 7484   3.499   4.553   3.226  0.2977 -0.2886  0.1093
 2514TIP3    H1 7485   3.420   4.559   3.280  0.3871 -1.8152  0.4481
 2514TIP3    H2 7486   3.569   4.534   3.288  1.0706  1.7961 -0.1009
 2515TIP3   OH2 7487   0.591   7.392   0.682 -0.1050 -0.4866  0.3032
 2515TIP3    H1 7488   0.510   7.344   0.697 -0.2712 -0.4960 -0.5725
 2515TIP3    H2 7489   0.643   7.378   0.761 -1.0600 -0.2777  0.9732
 2516TIP3   OH2 7490   2.835   0.900   3.598 -0.4663 -0.0956 -0.4374
 2516TIP3    H1 7491   2.757   0.944   3.567 -0.3293 -1.0273 -2.1805
 2516TIP3    H2 7492   2.901   0.969   3.604 -0.6941  0.2221 -1.5440
 2517TIP3   OH2 7493   0.946   1.215   4.933  0.5242  0.1913  0.1210
 2517TIP3    H1 7494   1.000   1.151   4.887  0.1253 -0.4163  0.4907
 2517TIP3    H2 7495   0.858   1.199   4.902  0.2771 -0.1019  0.9494
 2518TIP3   OH2 7496   3.318   0.816   3.709  0.4045  0.0505  0.2179
 2518TIP3    H1 7497   3.225   0.794   3.717  0.8266 -1.6208  0.7062
 2518TIP3    H2 7498   3.329   0.894   3.763 -1.0204  1.1764 -1.0752
 2519TIP3   OH2 7499   2.685   2.500   5.461 -0.1727 -0.3587 -0.3784
 2519TIP3    H1 7500   2.618   2.563   5.434 -0.1073 -0.6608 -1.2620
 2519TIP3    H2 7501   2.738   2.548   5.525 -2.0073 -0.5339  1.3489
 2520TIP3   OH2 7502   8.160   8.007   3.936 -0.5807  0.4165 -0.4308
 2520TIP3    H1 7503   8.236   7.949   3.946 -0.0346  0.8306 -1.9975
 2520TIP3    H2 7504   8.102   7.983   4.009 -0.0170 -1.5511 -0.5871
 2521TIP3   OH2 7505   8.177   1.508   4.732  0.2365  0.5018 -0.0391
 2521TIP3    H1 7506   8.258   1.500   4.783 -0.0395  0.5818  0.4055
 2521TIP3    H2 7507   8.153   1.600   4.737  1.0743  0.8318 -1.6386
 2522TIP3   OH2 7508   2.811   1.571   3.483 -0.2156  0.3654  0.0787
 2522TIP3    H1 7509   2.728   1.524   3.471  0.7291 -0.8296 -2.1823
 2522TIP3    H2 7510   2.794   1.659   3.448 -0.6738  0.2623  0.0363
 2523TIP3   OH2 7511   1.311   1.810   4.111  0.6392 -0.3345 -0.0787
 2523TIP3    H1 7512   1.269   1.801   4.197  0.7213 -0.9332 -0.0986
 2523TIP3    H2 7513   1.395   1.765   4.121  1.1293  0.5685 -0.1434
 2524TIP3   OH2 7514   1.828   1.120   5.410 -0.1019 -0.1363  0.2076
 2524TIP3    H1 7515   1.796   1.037   5.445 -0.6930 -0.4701 -1.1055
 2524TIP3    H2 7516   1.795   1.186   5.472 -0.3066 -0.7974  0.8125
 2525TIP3   OH2 7517   2.575   2.245   3.934  0.3469  0.2194 -0.3360
 2525TIP3    H1 7518   2.589   2.230   4.028 -1.7633  1.7328  0.2487
 2525TIP3    H2 7519   2.630   2.320   3.913  0.5389  0.1060 -0.2437
 2526TIP3   OH2 7520   1.477   0.617   4.509 -0.7708  0.2756  1.4606
 2526TIP3    H1 7521   1.569   0.629   4.531 -0.2528  0.2424 -0.5819
 2526TIP3    H2 7522   1.456   0.691   4.452 -1.3628 -0.9103  0.0846
 2527TIP3   OH2 7523   1.814   0.896   3.354  0.4615 -0.1627 -0.6213
 2527TIP3    H1 7524   1.834   0.804   3.340  1.5752 -0.2361  1.4135
 2527TIP3    H2 7525   1.723   0.896   3.386  0.0304 -0.4342 -1.8021
 2528TIP3   OH2 7526   3.472  -0.009   3.316 -0.3035  0.4654  0.3315
 2528TIP3    H1 7527   3.550  -0.038   3.268 -0.2157 -0.6832  1.1503
 2528TIP3    H2 7528   3.498   0.074   3.355  0.0237  0.8136 -0.6021
 2529TIP3   OH2 7529   4.692   0.461   3.334  0.3212 -0.2511  0.1833
 2529TIP3    H1 7530   4.672   0.384   3.282 -1.2690 -0.6107  1.2895
 2529TIP3    H2 7531   4.693   0.430   3.425 -0.8552  1.0951  0.6882
 2530TIP3   OH2 7532   0.251   2.042   3.040 -0.6044  0.4581 -0.3102
 2530TIP3    H1 7533   0.244   2.045   2.945  1.4100  1.5587 -0.4587
 2530TIP3    H2 7534   0.284   1.954   3.059 -2.8731 -0.4481 -0.4618
 2531TIP3   OH2 7535   2.332   2.486   3.696  0.2354 -0.4126 -0.0523
 2531TIP3    H1 7536   2.415   2.461   3.737 -0.2292 -0.9317  0.5807
 2531TIP3    H2 7537   2.358   2.530   3.615  1.1767  0.8991  0.9315
 2532TIP3   OH2 7538   2.184   1.400   4.649  0.3403 -0.1021 -0.1919
 2532TIP3    H1 7539   2.260   1.347   4.626 -0.1337 -1.0988  0.5145
 2532TIP3    H2 7540   2.155   1.366   4.733 -0.0804  1.1663  0.1872
 2533TIP3   OH2 7541   2.201   2.401   5.250 -0.1942 -0.9094 -0.5656
 2533TIP3    H1 7542   2.131   2.456   5.288  1.1637  0.5985 -0.2072
 2533TIP3    H2 7543   2.211   2.329   5.313  0.6403  0.4935  0.9496
 2534TIP3   OH2 7544   7.717   7.225   3.501 -0.1435 -0.3039 -0.1344
 2534TIP3    H1 7545   7.797   7.182   3.472  0.4303 -0.0630  1.0602
 2534TIP3    H2 7546   7.646   7.178   3.455  0.7063 -0.0863 -1.7019
 2535TIP3   OH2 7547   4.097   0.468   4.023 -0.3089  0.3948 -0.0796
 2535TIP3    H1 7548   4.161   0.493   3.957  0.2038  0.9406  0.6225
 2535TIP3    H2 7549   4.141   0.401   4.075 -0.5280  0.3361  0.0305
 2536TIP3   OH2 7550   0.912   1.883   2.842 -0.3369  0.1069  0.5696
 2536TIP3    H1 7551   0.964   1.897   2.921  0.9331  0.4946 -0.3058
 2536TIP3    H2 7552   0.978   1.875   2.772 -1.4543  0.3396 -0.5229
 2537TIP3   OH2 7553   2.163   2.722   4.689  0.2255 -0.0804  0.5115
 2537TIP3    H1 7554   2.196   2.805   4.655  1.7702 -1.4615 -1.4849
 2537TIP3    H2 7555   2.093   2.697   4.629  0.7778 -0.9375  0.2115
 2538TIP3   OH2 7556   1.148   1.473   3.741 -0.2260  0.2055  0.1086
 2538TIP3    H1 7557   1.211   1.543   3.758 -0.1308 -0.0631  0.8786
 2538TIP3    H2 7558   1.074   1.492   3.799 -0.3342 -0.1518  0.0885
 2539TIP3   OH2 7559   2.636   1.424   4.517  0.4229  0.0821 -0.0684
 2539TIP3    H1 7560   2.700   1.495   4.514 -0.0915  0.5308 -0.8287
 2539TIP3    H2 7561   2.666   1.367   4.587 -0.3405  2.1740  2.0377
 2540TIP3   OH2 7562   4.449   3.100   2.525  0.0911 -0.3293  0.4096
 2540TIP3    H1 7563   4.506   3.177   2.515  0.1064 -0.7196 -3.4442
 2540TIP3    H2 7564   4.361   3.134   2.513  0.0133 -0.6788 -0.0450
 2541TIP3   OH2 7565   1.125   3.126   3.388  0.0112 -0.6069 -0.2605
 2541TIP3    H1 7566   1.096   3.107   3.298  0.4591 -3.3972  0.1485
 2541TIP3    H2 7567   1.204   3.178   3.377 -0.4579 -0.1209 -1.4653
 2542TIP3   OH2 7568   2.880   0.868   0.277 -0.2226 -0.0440 -0.6232
 2542TIP3    H1 7569   2.835   0.824   0.205 -0.0387  0.6017 -1.1393
 2542TIP3    H2 7570   2.942   0.803   0.311  1.0574  0.2781 -2.3046
 2543TIP3   OH2 7571   2.069   4.008   4.017  0.5313  0.1188 -0.9577
 2543TIP3    H1 7572   2.103   3.939   3.959  0.4724 -0.0542 -0.7885
 2543TIP3    H2 7573   1.994   3.968   4.060  0.2205  0.4457 -1.1999
 2544TIP3   OH2 7574   2.533   1.998   4.858 -0.3003 -0.2141  0.0325
 2544TIP3    H1 7575   2.577   1.940   4.920  0.4268 -1.6197 -1.7681
 2544TIP3    H2 7576   2.442   1.966   4.856 -0.8096  0.9959  1.7020
 2545TIP3   OH2 7577   3.050   1.877   1.054 -0.3482  0.1527 -0.0622
 2545TIP3    H1 7578   3.052   1.851   0.962 -1.9476 -2.9878  0.7274
 2545TIP3    H2 7579   3.013   1.966   1.053  0.4404  0.4875 -2.4954
 2546TIP3   OH2 7580   3.471   0.978   2.437 -0.0559 -0.2398 -0.2931
 2546TIP3    H1 7581   3.396   0.999   2.493  0.8478  2.9080 -0.1892
 2546TIP3    H2 7582   3.526   0.920   2.491 -2.5812 -3.0121 -0.5642
 2547TIP3   OH2 7583   3.128   3.209   2.600 -0.6764 -0.3123  0.4955
 2547TIP3    H1 7584   3.222   3.223   2.590 -0.4275 -1.1393  1.5471
 2547TIP3    H2 7585   3.088   3.291   2.571  0.4049  0.2863  0.6647
 2548TIP3   OH2 7586   3.619   4.621   2.795  0.4103 -0.0030  0.1618
 2548TIP3    H1 7587   3.563   4.683   2.841  4.1196  2.9864  0.8966
 2548TIP3    H2 7588   3.589   4.626   2.704 -0.2881  1.8388  0.4608
 2549TIP3   OH2 7589   1.806   0.630   1.258 -0.1342  0.2874  0.0753
 2549TIP3    H1 7590   1.854   0.559   1.301  1.6780  0.6741 -1.2617
 2549TIP3    H2 7591   1.714   0.608   1.272  0.4090 -1.6529  0.7757
 2550TIP3   OH2 7592   0.578   2.195   2.213  0.1277  0.2417  0.1864
 2550TIP3    H1 7593   0.531   2.210   2.295  1.1253 -2.3060  1.2751
 2550TIP3    H2 7594   0.522   2.135   2.164  1.4328 -1.5035  0.7907
 2551TIP3   OH2 7595   0.865   1.319   6.198  0.1868  0.1745  0.0138
 2551TIP3    H1 7596   0.922   1.356   6.266 -2.4730  0.8712  1.9359
 2551TIP3    H2 7597   0.851   1.228   6.225 -0.0514  0.1608 -0.1511
 2552TIP3   OH2 7598   0.922   1.923   1.337  0.2150  0.5918  0.2903
 2552TIP3    H1 7599   0.980   1.999   1.335 -1.1150  1.5870 -1.2296
 2552TIP3    H2 7600   0.966   1.860   1.395  0.6857  3.0298  2.6803
 2553TIP3   OH2 7601   2.100   2.447   2.368 -0.3671 -0.9855 -0.2042
 2553TIP3    H1 7602   2.101   2.387   2.443 -0.5346  0.1142  0.7035
 2553TIP3    H2 7603   2.150   2.523   2.398 -4.1823  1.4330  0.5048
 2554TIP3   OH2 7604   2.664   3.741   3.197  1.0038 -0.0145 -0.7495
 2554TIP3    H1 7605   2.667   3.661   3.249 -0.7321 -0.4817 -1.3519
 2554TIP3    H2 7606   2.663   3.812   3.262 -1.1914 -0.5934 -0.1180
 2555TIP3   OH2 7607   3.835   1.154   4.713 -0.3201  0.1042  0.0418
 2555TIP3    H1 7608   3.745   1.138   4.682  0.5537  0.6217 -2.8923
 2555TIP3    H2 7609   3.855   1.243   4.685  1.3599 -0.2682  0.0046
 2556TIP3   OH2 7610   1.399   2.705   1.160 -0.2905  0.1382 -0.7799
 2556TIP3    H1 7611   1.385   2.624   1.112  1.0692 -1.1300  0.9286
 2556TIP3    H2 7612   1.491   2.703   1.185 -0.4659  1.7776  0.0523
 2557TIP3   OH2 7613   3.939   4.571   1.840 -0.7380  0.0579  0.5031
 2557TIP3    H1 7614   4.031   4.571   1.816 -0.7198 -1.2501  0.5297
 2557TIP3    H2 7615   3.920   4.480   1.862 -2.4745 -0.0160 -1.2030
 2558TIP3   OH2 7616   2.364   3.605   3.943 -0.2398 -0.2672 -0.2107
 2558TIP3    H1 7617   2.325   3.619   4.029 -0.7387  1.2708 -0.6766
 2558TIP3    H2 7618   2.382   3.511   3.940 -0.2122 -0.3327  1.5685
 2559TIP3   OH2 7619   0.675   0.477   0.961  0.5854 -0.3741  0.2438
 2559TIP3    H1 7620   0.741   0.431   1.013  0.9376  0.3859  0.4745
 2559TIP3    H2 7621   0.643   0.411   0.899  0.8383 -1.0218  0.7992
 2560TIP3   OH2 7622   0.855   2.682   1.754  0.0188 -0.1505 -0.3339
 2560TIP3    H1 7623   0.798   2.650   1.824  1.8308 -0.4369  1.0292
 2560TIP3    H2 7624   0.865   2.776   1.772 -1.0578  0.1720 -1.3320
 2561TIP3   OH2 7625   5.539   5.095   6.658  0.1328  0.0823 -0.2424
 2561TIP3    H1 7626   5.449   5.065   6.671  0.5095 -0.1421  2.0387
 2561TIP3    H2 7627   5.589   5.014   6.645  0.3541  0.0489  0.7904
 2562TIP3   OH2 7628   1.653   3.855   3.365 -0.2808  0.1046  0.4425
 2562TIP3    H1 7629   1.591   3.917   3.404 -1.2323  1.0578 -2.4207
 2562TIP3    H2 7630   1.720   3.911   3.325 -1.2925 -0.6133 -2.4087
 2563TIP3   OH2 7631   1.152   1.650   2.963 -0.4168 -0.4213 -0.0060
 2563TIP3    H1 7632   1.084   1.583   2.955  0.5512 -1.2911 -1.0685
 2563TIP3    H2 7633   1.192   1.654   2.876  0.7972  0.1816  0.5749
 2564TIP3   OH2 7634   0.627   2.559   2.597  0.6078  0.3583 -0.0828
 2564TIP3    H1 7635   0.533   2.538   2.594  0.4242  0.9519  1.2746
 2564TIP3    H2 7636   0.666   2.499   2.533 -0.5166 -0.8389  0.3188
 2565TIP3   OH2 7637   1.908   1.077   3.526  0.2969 -0.2523 -0.3048
 2565TIP3    H1 7638   1.827   1.103   3.571  0.5754 -1.3786  0.8584
 2565TIP3    H2 7639   1.882   1.004   3.471  0.1144  0.6527 -1.4345
 2566TIP3   OH2 7640   2.918   1.077   6.373 -0.0920  0.3166 -0.7023
 2566TIP3    H1 7641   2.845   1.042   6.321 -0.8557 -0.0009  0.5634
 2566TIP3    H2 7642   2.957   1.000   6.415  0.1137  0.6402 -0.2973
 2567TIP3   OH2 7643   0.915   2.246   2.982  0.2206 -0.3843 -0.2673
 2567TIP3    H1 7644   0.975   2.248   2.907 -0.1746  0.5531 -0.5664
 2567TIP3    H2 7645   0.833   2.211   2.946  0.3037 -0.7921 -0.0642
 2568TIP3   OH2 7646   8.142   7.772   2.469 -0.0985  0.2719 -0.1036
 2568TIP3    H1 7647   8.192   7.820   2.403  1.3434 -0.4674  0.4328
 2568TIP3    H2 7648   8.064   7.826   2.483 -0.4868  0.3810 -2.4748
 2569TIP3   OH2 7649   3.094   0.876   3.986  0.4695 -0.1906  0.7717
 2569TIP3    H1 7650   3.024   0.920   4.033 -1.0746 -0.9157 -0.7765
 2569TIP3    H2 7651   3.148   0.947   3.951 -2.1519  0.5774 -1.9504
 2570TIP3   OH2 7652   7.216   6.926   2.311  0.3242 -0.6318  0.0526
 2570TIP3    H1 7653   7.154   6.998   2.319  0.5244 -0.6613  2.1156
 2570TIP3    H2 7654   7.161   6.848   2.302  0.0706 -0.5322  0.7364
 2571TIP3   OH2 7655   1.759   3.032   0.995  0.1953 -0.4412  0.4985
 2571TIP3    H1 7656   1.712   3.092   0.937  0.5530 -0.1313  0.5304
 2571TIP3    H2 7657   1.849   3.032   0.961  0.6065  0.3777  1.5627
 2572TIP3   OH2 7658   3.130   1.260   6.063  0.4256  0.1580 -0.0913
 2572TIP3    H1 7659   3.047   1.307   6.059 -0.0494 -0.5714  0.9773
 2572TIP3    H2 7660   3.121   1.190   5.999 -0.1596 -0.4954  0.6932
 2573TIP3   OH2 7661   4.256   2.160   2.337 -0.9840 -1.1863 -0.3474
 2573TIP3    H1 7662   4.330   2.101   2.341 -0.8026 -0.8671  1.6123
 2573TIP3    H2 7663   4.292   2.246   2.360 -2.2099 -1.3098  2.2491
 2574TIP3   OH2 7664   2.356   2.491   3.171 -0.3094 -0.0064 -0.5153
 2574TIP3    H1 7665   2.269   2.513   3.206  0.4526  1.8222  0.3543
 2574TIP3    H2 7666   2.415   2.503   3.246  0.4997 -2.8904 -0.6492
 2575TIP3   OH2 7667   1.693   1.339   1.525  0.6059 -0.3277  0.0770
 2575TIP3    H1 7668   1.675   1.263   1.469 -1.0904 -0.1155  0.3322
 2575TIP3    H2 7669   1.676   1.415   1.470  0.9478 -0.1179  0.2551
 2576TIP3   OH2 7670   1.670   0.158   3.244  0.2270 -0.2710  0.4097
 2576TIP3    H1 7671   1.744   0.213   3.269 -0.7198  0.5621  1.4161
 2576TIP3    H2 7672   1.703   0.105   3.172  1.6852  0.3680  0.5940
 2577TIP3   OH2 7673   2.054   1.981   2.634 -0.8651 -0.2565 -0.7025
 2577TIP3    H1 7674   2.009   2.009   2.714  0.1131 -0.1257 -0.1941
 2577TIP3    H2 7675   2.083   1.892   2.653  0.9229  0.3998 -0.2360
 2578TIP3   OH2 7676   2.230   0.153   4.227  0.5106  0.3671 -0.1828
 2578TIP3    H1 7677   2.290   0.214   4.269  1.8403 -0.0378 -1.4564
 2578TIP3    H2 7678   2.157   0.207   4.197  0.6780  1.0069  0.5532
 2579TIP3   OH2 7679   0.359   2.530   3.214 -0.2846  0.2226 -0.4270
 2579TIP3    H1 7680   0.340   2.437   3.218  0.0170 -0.0017 -3.0633
 2579TIP3    H2 7681   0.273   2.572   3.208 -0.4318  0.1398  1.1269
 2580TIP3   OH2 7682   2.409   2.759   4.038 -0.6120 -0.4938  0.3861
 2580TIP3    H1 7683   2.433   2.671   4.066  0.4568  0.0597  1.2800
 2580TIP3    H2 7684   2.313   2.759   4.040 -0.6118 -1.4563  0.9769
 2581TIP3   OH2 7685   7.293   7.970   4.329 -0.1399  0.0272  0.3428
 2581TIP3    H1 7686   7.339   7.977   4.245  0.4400 -1.1876  0.5501
 2581TIP3    H2 7687   7.323   7.887   4.366 -2.1643 -0.5746  0.6998
 2582TIP3   OH2 7688   1.123   1.397   1.366  0.2996  0.1491  0.4723
 2582TIP3    H1 7689   1.096   1.385   1.457  0.1291  1.1900  0.5648
 2582TIP3    H2 7690   1.215   1.372   1.365  0.6196  1.2578  1.1895
 2583TIP3   OH2 7691   3.354   3.447   4.289 -0.3401 -0.2823  0.1529
 2583TIP3    H1 7692   3.312   3.376   4.240 -1.6313 -0.0822  0.9455
 2583TIP3    H2 7693   3.323   3.435   4.379  0.7698  0.2866  0.6164
 2584TIP3   OH2 7694   7.347   2.616   1.770 -0.2442 -0.3431 -0.3451
 2584TIP3    H1 7695   7.307   2.532   1.749  0.8097 -1.4756  1.8931
 2584TIP3    H2 7696   7.439   2.606   1.743  0.1527 -0.3658  0.9486
 2585TIP3   OH2 7697   1.026   1.877   5.097 -0.0870  0.3435 -0.0423
 2585TIP3    H1 7698   1.010   1.971   5.102 -0.6908  0.1831  1.0734
 2585TIP3    H2 7699   0.950   1.841   5.051 -0.3841  0.2622  0.5111
 2586TIP3   OH2 7700   1.768   0.666   2.568  0.4035 -0.0650  0.5412
 2586TIP3    H1 7701   1.691   0.721   2.586 -0.7241 -1.2240 -0.6201
 2586TIP3    H2 7702   1.831   0.726   2.529 -0.3283  0.6722  0.4597
 2587TIP3   OH2 7703   2.530   2.162   4.608 -0.2751  0.6548 -0.3492
 2587TIP3    H1 7704   2.539   2.108   4.686  0.2351  0.6887 -0.3817
 2587TIP3    H2 7705   2.542   2.252   4.640  2.6818  0.4890 -0.8910
 2588TIP3   OH2 7706   0.414   2.141   2.690 -0.5035 -0.0939  0.2574
 2588TIP3    H1 7707   0.505   2.156   2.663 -0.5449 -0.1612  0.0793
 2588TIP3    H2 7708   0.415   2.052   2.726  0.0874  0.8948  2.8128
 2589TIP3   OH2 7709   5.074   0.816   3.129  0.0291  0.0668  0.1203
 2589TIP3    H1 7710   5.084   0.721   3.123  1.2479  0.1166  1.0651
 2589TIP3    H2 7711   5.160   0.850   3.105 -0.0935  0.8877  0.8305
 2590TIP3   OH2 7712   2.749   0.882   4.511  0.0979 -0.3703 -0.2489
 2590TIP3    H1 7713   2.809   0.851   4.444  0.0423  0.7401 -0.8123
 2590TIP3    H2 7714   2.789   0.962   4.545 -0.6942 -0.0235 -0.1118
 2591TIP3   OH2 7715   0.327   6.948   5.213 -0.0095  0.5543  0.1570
 2591TIP3    H1 7716   0.307   6.911   5.299 -1.8718  0.6643 -0.2157
 2591TIP3    H2 7717   0.308   7.042   5.222 -0.0119  0.6024 -0.3249
 2592TIP3   OH2 7718   0.850   0.100   3.440  0.1860 -0.0252 -0.6504
 2592TIP3    H1 7719   0.942   0.129   3.441 -0.3176  1.7328  1.5578
 2592TIP3    H2 7720   0.843   0.042   3.516 -0.5089 -0.1744 -0.8291
 2593TIP3   OH2 7721   2.518   2.136   1.589 -0.0228 -0.1387  0.1505
 2593TIP3    H1 7722   2.529   2.121   1.683  1.1608  0.7300  0.1628
 2593TIP3    H2 7723   2.529   2.049   1.549  1.2077 -0.2317  0.6743
 2594TIP3   OH2 7724   2.883   0.841   4.926  0.2734  0.6782  0.0902
 2594TIP3    H1 7725   2.933   0.803   4.853 -0.1030 -0.6072  0.4939
 2594TIP3    H2 7726   2.870   0.932   4.900  1.0027  0.4901 -0.9999
 2595TIP3   OH2 7727   2.187   2.000   2.986  0.1470 -0.0672 -0.0350
 2595TIP3    H1 7728   2.242   2.022   3.061 -0.6005  0.9074  0.2243
 2595TIP3    H2 7729   2.131   1.929   3.017  0.7330 -0.5620 -0.0799
 2596TIP3   OH2 7730   3.990   1.654   2.926 -0.0367 -0.3553  0.3459
 2596TIP3    H1 7731   4.028   1.621   3.008 -2.1207  1.0786  1.9409
 2596TIP3    H2 7732   4.059   1.641   2.861  2.0903 -0.5050  2.5433
 2597TIP3   OH2 7733   1.126   1.527   6.190  0.4701 -0.3055  0.2135
 2597TIP3    H1 7734   1.055   1.552   6.131  0.2911  0.9788  0.9574
 2597TIP3    H2 7735   1.086   1.525   6.277  1.0672 -0.7774  0.4819
 2598TIP3   OH2 7736   7.862   0.919   4.670 -0.3960 -0.5054  0.1294
 2598TIP3    H1 7737   7.847   0.978   4.595 -0.5208  0.7877  1.1499
 2598TIP3    H2 7738   7.943   0.873   4.648  0.8141  1.5096  0.1799
 2599TIP3   OH2 7739   1.682   2.674   4.675  0.8215 -0.2309  0.4644
 2599TIP3    H1 7740   1.614   2.706   4.734  2.7373  0.9460  2.0961
 2599TIP3    H2 7741   1.733   2.752   4.653  0.8823 -0.8659 -1.7970
 2600TIP3   OH2 7742   3.429   0.645   4.968  0.0531  0.5101 -0.7767
 2600TIP3    H1 7743   3.449   0.720   4.912  2.1332  0.4068 -0.1798
 2600TIP3    H2 7744   3.469   0.665   5.052  0.1846 -1.0392 -0.4537
 2601TIP3   OH2 7745   3.351   1.462   4.363 -0.5385  0.1043 -0.4979
 2601TIP3    H1 7746   3.339   1.481   4.270  0.0218 -1.0580 -0.8153
 2601TIP3    H2 7747   3.269   1.423   4.390 -0.2724 -0.6773 -0.8029
 2602TIP3   OH2 7748   3.404   0.318   4.386  0.3157  0.0770 -0.0018
 2602TIP3    H1 7749   3.498   0.306   4.395  0.0943 -1.5168  0.4924
 2602TIP3    H2 7750   3.393   0.380   4.314  1.7637  1.2966  0.8070
 2603TIP3   OH2 7751   1.468   1.561   4.062 -0.6881 -0.2630 -0.1171
 2603TIP3    H1 7752   1.423   1.553   4.146 -0.9788 -1.4749 -0.3845
 2603TIP3    H2 7753   1.530   1.489   4.060 -1.1678 -0.6651 -1.2409
 2604TIP3   OH2 7754   2.682   2.202   4.188  0.0439 -0.2491  0.1711
 2604TIP3    H1 7755   2.760   2.258   4.179  0.6421 -1.1102 -0.0874
 2604TIP3    H2 7756   2.705   2.121   4.142 -1.2464 -0.2803 -0.4460
 2605TIP3   OH2 7757   7.331   4.566   0.198 -0.6577 -0.3322  0.2868
 2605TIP3    H1 7758   7.309   4.568   0.105 -0.6254 -1.1025  0.2583
 2605TIP3    H2 7759   7.420   4.531   0.201  0.2969  2.0481  0.4524
 2606TIP3   OH2 7760   2.840   0.456   3.931  0.5492 -0.0468  0.2436
 2606TIP3    H1 7761   2.769   0.392   3.937 -1.3902  2.1669  1.5627
 2606TIP3    H2 7762   2.823   0.504   3.850 -0.3773  1.5091  1.3367
 2607TIP3   OH2 7763   3.051   1.285   5.298 -0.0409 -0.1763 -0.7041
 2607TIP3    H1 7764   2.968   1.239   5.311 -1.6700  2.6772 -0.5363
 2607TIP3    H2 7765   3.108   1.221   5.257 -0.9022 -3.5788  3.1029
 2608TIP3   OH2 7766   0.942   1.804   4.617  0.3434 -0.0637  0.1564
 2608TIP3    H1 7767   1.031   1.832   4.639  0.8387 -0.8327 -0.8244
 2608TIP3    H2 7768   0.917   1.861   4.545  1.6031 -2.4825 -2.2882
 2609TIP3   OH2 7769   0.569   2.281   1.222 -0.2399 -0.2232  0.2214
 2609TIP3    H1 7770   0.616   2.200   1.205 -0.1668 -0.0919 -0.2083
 2609TIP3    H2 7771   0.631   2.337   1.269 -1.3491 -1.6357  3.4744
 2610TIP3   OH2 7772   2.796   1.784   0.787  0.1109 -0.4360  0.0964
 2610TIP3    H1 7773   2.788   1.719   0.717  0.6419 -0.0333 -0.3384
 2610TIP3    H2 7774   2.745   1.859   0.756 -0.8468 -0.7878  0.7804
 2611TIP3   OH2 7775   0.385   2.903   2.752 -0.0365 -0.1606 -0.5423
 2611TIP3    H1 7776   0.351   2.875   2.836  0.7205 -1.3740 -0.6273
 2611TIP3    H2 7777   0.479   2.886   2.758  0.2408  1.1485 -1.0806
 2612TIP3   OH2 7778   2.011   1.907   2.371 -0.1050  0.8622 -1.0249
 2612TIP3    H1 7779   2.095   1.872   2.341  0.6681  1.3778  0.4962
 2612TIP3    H2 7780   2.031   1.949   2.455 -2.3441 -1.2169  0.6032
 2613TIP3   OH2 7781   2.452   3.264   2.761  0.4984  0.0597  0.1894
 2613TIP3    H1 7782   2.544   3.285   2.744  0.4308  0.6333  0.5300
 2613TIP3    H2 7783   2.421   3.226   2.679  0.9516  0.1638 -0.0344
 2614TIP3   OH2 7784   4.333   4.533   3.780  0.2161  0.1582 -0.1905
 2614TIP3    H1 7785   4.405   4.593   3.796  0.4390 -0.6702  2.1353
 2614TIP3    H2 7786   4.282   4.574   3.710  1.5449  1.9898 -0.1065
 2615TIP3   OH2 7787   0.504   1.606   4.790  0.0503  0.1588  0.1469
 2615TIP3    H1 7788   0.534   1.539   4.729 -2.8662 -0.5624 -0.6038
 2615TIP3    H2 7789   0.547   1.585   4.873  2.3556 -0.1532 -1.0842
 2616TIP3   OH2 7790   0.437   0.602   1.005 -0.4221  0.4765 -0.0518
 2616TIP3    H1 7791   0.455   0.695   1.018 -0.7344  0.1596  2.9148
 2616TIP3    H2 7792   0.523   0.561   1.001 -0.2337  1.0216 -2.9005
 2617TIP3   OH2 7793   2.209   2.953   2.529 -0.2832  0.2511  0.4615
 2617TIP3    H1 7794   2.179   3.018   2.465 -2.1941 -0.9539  0.0855
 2617TIP3    H2 7795   2.141   2.953   2.597  0.1096 -0.7815  0.8690
 2618TIP3   OH2 7796   1.582   4.879   2.577  0.1844  0.1227 -0.4097
 2618TIP3    H1 7797   1.624   4.831   2.507  1.4082 -0.1276  0.4780
 2618TIP3    H2 7798   1.635   4.958   2.588  0.5200 -0.2597  0.8039
 2619TIP3   OH2 7799   1.171   1.680   4.885 -0.6599  0.3411 -0.0472
 2619TIP3    H1 7800   1.088   1.636   4.903 -0.8405  1.0273  0.8018
 2619TIP3    H2 7801   1.183   1.741   4.958  0.2876  0.6860 -0.4794
 2620TIP3   OH2 7802   3.764   1.143   1.674 -0.6743 -0.1271 -0.3072
 2620TIP3    H1 7803   3.730   1.055   1.656  0.7310 -0.8900  0.5765
 2620TIP3    H2 7804   3.815   1.166   1.597 -1.9023  0.3615 -0.9794
 2621TIP3   OH2 7805   8.378   7.610   1.451  0.3648  0.0434 -0.0283
 2621TIP3    H1 7806   8.443   7.651   1.394  0.2283  0.2073 -0.0687
 2621TIP3    H2 7807   8.420   7.530   1.482  0.8531  0.5043  0.5079
 2622TIP3   OH2 7808   3.429   4.754   3.467  0.0405 -0.6560 -0.1688
 2622TIP3    H1 7809   3.380   4.806   3.403  0.4977  1.6578  1.2849
 2622TIP3    H2 7810   3.517   4.747   3.430 -0.1804 -0.8850 -0.6503
 2623TIP3   OH2 7811   7.773   3.009   3.453  0.1329 -0.3463  0.1874
 2623TIP3    H1 7812   7.752   2.916   3.454 -0.9265 -0.1187  0.4289
 2623TIP3    H2 7813   7.858   3.015   3.410  0.7725 -1.5396  1.2619
 2624TIP3   OH2 7814   2.794   0.885   5.223 -0.5727 -0.5118  0.6127
 2624TIP3    H1 7815   2.852   0.849   5.156 -0.7593 -1.2100  0.8133
 2624TIP3    H2 7816   2.766   0.970   5.189  1.1824  0.1911  0.8755
 2625TIP3   OH2 7817   0.632   2.308   3.535  0.2260  0.2670 -0.0851
 2625TIP3    H1 7818   0.625   2.270   3.622 -0.9055 -0.4376 -0.4710
 2625TIP3    H2 7819   0.555   2.275   3.488  1.0365  0.3180 -1.4705
 2626TIP3   OH2 7820   0.990   0.191   2.132  0.3423  0.2935 -0.3080
 2626TIP3    H1 7821   0.935   0.211   2.208  0.1285  2.5920 -1.0454
 2626TIP3    H2 7822   1.072   0.236   2.150  0.4743  0.4046 -1.2194
 2627TIP3   OH2 7823   0.326   7.602   0.123  0.1196  0.1637  0.6843
 2627TIP3    H1 7824   0.414   7.639   0.123 -0.6823  2.1972 -0.9676
 2627TIP3    H2 7825   0.271   7.671   0.086 -1.8833 -1.7295  0.0069
 2628TIP3   OH2 7826   1.581   3.198   2.067 -0.6392  0.0729 -0.8222
 2628TIP3    H1 7827   1.625   3.161   2.144 -0.7043 -2.2333 -1.8698
 2628TIP3    H2 7828   1.533   3.274   2.102  1.7476  0.9049  0.8622
 2629TIP3   OH2 7829   3.368   1.196   4.120  0.3970 -0.2653  0.3187
 2629TIP3    H1 7830   3.365   1.291   4.126  1.2699 -0.2369  0.4651
 2629TIP3    H2 7831   3.332   1.165   4.203  0.1095 -0.0660  0.2704
 2630TIP3   OH2 7832   1.428   1.304   5.316  0.4714 -0.0271  0.6114
 2630TIP3    H1 7833   1.474   1.317   5.399  3.3362  3.0886 -1.3276
 2630TIP3    H2 7834   1.482   1.241   5.268 -0.6499 -1.0833  0.7201
 2631TIP3   OH2 7835   1.880   2.566   4.267 -0.1352 -0.2190 -0.1023
 2631TIP3    H1 7836   1.971   2.562   4.294 -0.7554 -2.0128  1.8183
 2631TIP3    H2 7837   1.864   2.483   4.223 -1.9533 -1.8277  3.3879
 2632TIP3   OH2 7838   3.085   0.765   5.100 -0.1753 -0.3072 -0.2853
 2632TIP3    H1 7839   3.025   0.766   5.026 -2.1304  1.0308  1.2365
 2632TIP3    H2 7840   3.160   0.715   5.070 -0.9323  0.1695 -3.1425
 2633TIP3   OH2 7841   6.524   7.583   3.039  0.2227  0.1780  0.6264
 2633TIP3    H1 7842   6.429   7.591   3.044  0.1756 -0.6638  1.1829
 2633TIP3    H2 7843   6.557   7.671   3.057 -0.4611  0.5673 -0.0072
 2634TIP3   OH2 7844   3.665   0.938   3.352 -0.1361  0.9313 -0.1362
 2634TIP3    H1 7845   3.679   0.952   3.258 -0.5113 -0.7541 -0.4644
 2634TIP3    H2 7846   3.604   0.864   3.356  0.9698  0.0706  1.4522
 2635TIP3   OH2 7847   7.382   7.679   2.342  0.1702 -0.1503  0.7146
 2635TIP3    H1 7848   7.412   7.662   2.252  0.1332  0.3943  0.5981
 2635TIP3    H2 7849   7.454   7.649   2.397  1.6517  2.6136  0.3798
 2636TIP3   OH2 7850   3.827   2.150   3.242 -0.0769  0.4720  0.6057
 2636TIP3    H1 7851   3.861   2.120   3.327  0.8801  2.4570  0.9461
 2636TIP3    H2 7852   3.897   2.204   3.206 -1.1756  1.0888 -0.6545
 2637TIP3   OH2 7853   2.230   1.670   4.561 -0.4380  0.5593  0.1538
 2637TIP3    H1 7854   2.280   1.646   4.483  0.0648  1.6463  0.1216
 2637TIP3    H2 7855   2.206   1.587   4.602 -0.7814 -0.0134 -1.2026
 2638TIP3   OH2 7856   1.036   3.406   3.033  0.1424  0.0096 -0.7348
 2638TIP3    H1 7857   1.092   3.412   2.955  0.0010  2.3055 -0.7141
 2638TIP3    H2 7858   1.097   3.397   3.106  0.3595 -0.3096 -0.9562
 2639TIP3   OH2 7859   0.409   1.688   1.215  0.6577  0.3967  0.1705
 2639TIP3    H1 7860   0.481   1.649   1.265 -0.7505 -1.4325  0.8440
 2639TIP3    H2 7861   0.389   1.623   1.148 -0.1069  1.0606 -0.2448
 2640TIP3   OH2 7862   1.275   1.227   3.916  0.7284 -0.5450 -0.0761
 2640TIP3    H1 7863   1.234   1.308   3.888  0.0434 -1.0583 -0.5758
 2640TIP3    H2 7864   1.277   1.233   4.012 -0.1326 -0.3328 -0.0699
 2641TIP3   OH2 7865   2.830   4.850   2.865  0.0492 -0.3441  0.3153
 2641TIP3    H1 7866   2.745   4.888   2.888  0.3937  2.0836 -2.0975
 2641TIP3    H2 7867   2.809   4.781   2.802 -0.1618  0.1710 -0.1838
 2642TIP3   OH2 7868   2.411   1.787   2.037 -0.2290  0.2483 -0.0631
 2642TIP3    H1 7869   2.502   1.757   2.041 -0.4474 -0.6848 -1.4797
 2642TIP3    H2 7870   2.415   1.867   1.984 -0.2991 -0.0566 -0.5268
 2643TIP3   OH2 7871   1.921   2.015   2.883  0.6167  0.0512  1.3011
 2643TIP3    H1 7872   2.005   2.023   2.927  0.5717 -0.3818  1.4637
 2643TIP3    H2 7873   1.864   1.970   2.946  0.7060 -1.0440  0.6100
 2644TIP3   OH2 7874   2.868   3.279   3.218  0.4468 -0.0567 -0.3253
 2644TIP3    H1 7875   2.829   3.196   3.192  1.1766 -0.4289 -0.2368
 2644TIP3    H2 7876   2.884   3.269   3.312 -0.5630  0.6310 -0.0662
 2645TIP3   OH2 7877   0.694   1.162   4.857  0.4584  0.0587 -0.6917
 2645TIP3    H1 7878   0.677   1.131   4.768  0.3240  0.7267 -0.9057
 2645TIP3    H2 7879   0.612   1.203   4.884 -0.5014 -2.8234  0.8978
 2646TIP3   OH2 7880   3.091   4.273   1.019  0.3264  0.4883 -0.0550
 2646TIP3    H1 7881   3.145   4.210   0.970 -1.3045  0.3329 -1.6794
 2646TIP3    H2 7882   3.046   4.324   0.952 -0.3472  1.6819  1.2786
 2647TIP3   OH2 7883   1.925   3.764   4.692 -0.1085  0.5142 -0.6341
 2647TIP3    H1 7884   1.927   3.766   4.597  1.9400  1.9805 -0.5946
 2647TIP3    H2 7885   2.000   3.709   4.717 -1.7932 -1.5236  0.1303
 2648TIP3   OH2 7886   3.167   2.836   1.980  0.3778 -1.1201 -0.2897
 2648TIP3    H1 7887   3.167   2.923   1.941  1.3497  0.3447  2.8403
 2648TIP3    H2 7888   3.084   2.798   1.951 -0.7876  1.4287 -0.4796
 2649TIP3   OH2 7889   1.985   1.869   6.777  0.1376 -0.4917 -0.3565
 2649TIP3    H1 7890   1.958   1.954   6.743  3.7380  1.0164  0.4159
 2649TIP3    H2 7891   2.058   1.842   6.721 -0.2555 -2.5713  0.0979
 2650TIP3   OH2 7892   6.044   6.295   6.336  0.0316  0.2689  0.1066
 2650TIP3    H1 7893   6.026   6.208   6.300  0.2898  0.2776 -0.0496
 2650TIP3    H2 7894   6.037   6.354   6.260  0.5780  0.2873  0.0705
 2651TIP3   OH2 7895   2.362   1.209   4.540 -0.2879 -0.3370  0.2735
 2651TIP3    H1 7896   2.451   1.213   4.504 -0.6625  1.1327 -0.5098
 2651TIP3    H2 7897   2.317   1.145   4.484  0.3237 -1.2415  0.8009
 2652TIP3   OH2 7898   1.811   1.610   1.972  0.3648 -0.4323 -0.4737
 2652TIP3    H1 7899   1.758   1.679   1.931  0.3178 -0.3835 -0.3290
 2652TIP3    H2 7900   1.754   1.534   1.974  0.0388 -0.1666  0.3869
 2653TIP3   OH2 7901   3.173   0.495   3.804  0.5536 -0.1242  0.5357
 2653TIP3    H1 7902   3.153   0.575   3.755  1.1546 -1.1671 -1.5045
 2653TIP3    H2 7903   3.089   0.465   3.837  0.2648  1.1274  0.9428
 2654TIP3   OH2 7904   1.553   0.821   1.998  0.6359 -0.2416 -0.3503
 2654TIP3    H1 7905   1.600   0.821   2.081 -0.1613  0.3125  0.1098
 2654TIP3    H2 7906   1.523   0.912   1.987 -0.3307 -0.5878 -0.6236
 2655TIP3   OH2 7907   1.830   0.264   3.722 -0.5891  0.1870 -0.4921
 2655TIP3    H1 7908   1.753   0.229   3.677 -1.1028 -0.2825  0.7341
 2655TIP3    H2 7909   1.822   0.359   3.713 -1.7653  0.1760  0.3700
 2656TIP3   OH2 7910   3.293   1.088   3.268  0.5128  0.0160 -0.5049
 2656TIP3    H1 7911   3.305   1.095   3.362  2.4267  0.2141 -0.7415
 2656TIP3    H2 7912   3.237   1.011   3.257  1.4584 -0.8826  0.7366
 2657TIP3   OH2 7913   1.334   1.228   3.238 -0.1588 -0.2433 -0.2164
 2657TIP3    H1 7914   1.309   1.136   3.240  0.9560 -0.5433  0.0110
 2657TIP3    H2 7915   1.333   1.256   3.329 -0.9063  0.0873 -0.3219
 2658TIP3   OH2 7916   2.773   1.293   3.548 -0.1714  0.3314  0.5241
 2658TIP3    H1 7917   2.863   1.261   3.546 -0.1403  0.5147 -1.1570
 2658TIP3    H2 7918   2.781   1.387   3.560 -0.2145  0.0525  3.0108
 2659TIP3   OH2 7919   2.795   2.176   1.943 -0.2217 -0.0290  0.2307
 2659TIP3    H1 7920   2.821   2.237   2.012 -0.2320  2.7073 -2.1134
 2659TIP3    H2 7921   2.700   2.173   1.947 -0.2066 -0.1829  0.5492
 2660TIP3   OH2 7922   1.026   0.033   4.514 -0.6260 -0.1930  0.0754
 2660TIP3    H1 7923   0.992  -0.057   4.514 -0.3906 -0.2931 -1.3493
 2660TIP3    H2 7924   0.958   0.084   4.559 -0.0072 -1.3316  2.4073
 2661TIP3   OH2 7925   3.078   0.350   3.368 -0.5270 -0.6702 -0.3045
 2661TIP3    H1 7926   3.060   0.340   3.461  1.2332  0.2570  0.1444
 2661TIP3    H2 7927   3.133   0.275   3.346  0.4518  0.0142 -0.2138
 2662TIP3   OH2 7928   1.032   2.905   0.793 -0.3312  0.5489  0.2714
 2662TIP3    H1 7929   1.003   2.943   0.711 -1.0158  0.7999  0.6220
 2662TIP3    H2 7930   0.992   2.961   0.861  0.2089  0.3387  0.7703
 2663TIP3   OH2 7931   2.824   2.692   2.212  0.4161 -0.6526  0.1924
 2663TIP3    H1 7932   2.849   2.688   2.305 -0.1623  0.3232  0.3989
 2663TIP3    H2 7933   2.867   2.772   2.180 -0.8120 -0.0329  0.0591
 2664TIP3   OH2 7934   0.435   7.684   2.714  0.2130  0.2361 -0.1360
 2664TIP3    H1 7935   0.434   7.721   2.802 -2.0341  1.0003 -0.4638
 2664TIP3    H2 7936   0.524   7.699   2.683  1.2212 -0.5746  2.2150
 2665TIP3   OH2 7937   1.438   2.560   3.838  0.0197  0.3044 -0.5171
 2665TIP3    H1 7938   1.416   2.653   3.851  1.2887  0.6320 -0.6442
 2665TIP3    H2 7939   1.498   2.560   3.763 -1.5086 -0.8293 -1.7689
 2666TIP3   OH2 7940   0.690   2.567   1.936 -0.2484 -0.1094 -0.3905
 2666TIP3    H1 7941   0.675   2.532   2.024 -0.5915 -0.5161 -0.6055
 2666TIP3    H2 7942   0.618   2.627   1.921 -0.1476  0.0184 -0.3645
 2667TIP3   OH2 7943   5.411   2.992   4.690  0.1749 -0.1050 -0.0574
 2667TIP3    H1 7944   5.397   3.086   4.675  0.5469 -0.3637 -2.2817
 2667TIP3    H2 7945   5.505   2.979   4.679  0.6985 -0.1852  3.8754
 2668TIP3   OH2 7946   3.323   3.776   5.029  0.1208 -0.6715  0.0491
 2668TIP3    H1 7947   3.382   3.701   5.031  0.6834 -0.2512 -0.7063
 2668TIP3    H2 7948   3.235   3.737   5.025  0.3739 -1.2852  0.3461
 2669TIP3   OH2 7949   3.376   2.502   2.583  0.6321  0.0278  0.2221
 2669TIP3    H1 7950   3.305   2.566   2.573  1.1341  0.6070  0.3411
 2669TIP3    H2 7951   3.348   2.427   2.530 -0.3708 -0.0100  0.7999
 2670TIP3   OH2 7952   4.509   5.001   4.763  0.0807  0.0929  0.3932
 2670TIP3    H1 7953   4.491   5.077   4.708  0.9884  0.3266  0.4149
 2670TIP3    H2 7954   4.504   5.034   4.852 -0.2674 -0.0397  0.4240
 2671TIP3   OH2 7955   1.622   1.942   4.075 -0.2288 -0.9219  0.2674
 2671TIP3    H1 7956   1.551   2.007   4.079  0.3798 -0.3307  1.7401
 2671TIP3    H2 7957   1.611   1.901   3.989 -0.9999  0.7096 -0.4533
 2672TIP3   OH2 7958   4.195   2.936   2.876 -0.0543 -0.2323  0.3668
 2672TIP3    H1 7959   4.144   2.868   2.832 -1.2496  0.8146  0.1120
 2672TIP3    H2 7960   4.131   2.986   2.926  0.9018  0.3412  1.0353
 2673TIP3   OH2 7961   3.690   1.681   3.002  0.0675 -0.4278 -0.8338
 2673TIP3    H1 7962   3.763   1.633   2.963  0.5207  0.9283 -1.6783
 2673TIP3    H2 7963   3.707   1.773   2.980 -1.1764  0.0458  0.1253
 2674TIP3   OH2 7964   3.896   1.935   1.732 -0.5877  0.3691 -0.3007
 2674TIP3    H1 7965   3.838   1.984   1.790 -0.7188  0.1356 -0.2348
 2674TIP3    H2 7966   3.884   1.975   1.646 -0.3965  0.7142 -0.1703
 2675TIP3   OH2 7967   3.255   2.912   4.052  0.0242 -0.1513 -0.0216
 2675TIP3    H1 7968   3.231   2.957   4.134  1.0433 -0.8800  0.6888
 2675TIP3    H2 7969   3.326   2.854   4.077 -1.1356 -2.0103 -0.9796
 2676TIP3   OH2 7970   3.562   4.398   2.968 -0.0854  0.1040  0.5797
 2676TIP3    H1 7971   3.584   4.464   2.902  0.3477 -0.6030  0.0056
 2676TIP3    H2 7972   3.567   4.444   3.051 -1.9148  1.3356  0.0349
 2677TIP3   OH2 7973   4.329   2.001   2.662 -0.2914 -0.1825  0.4119
 2677TIP3    H1 7974   4.410   2.049   2.674  0.2759 -1.0458  0.0600
 2677TIP3    H2 7975   4.265   2.047   2.716  0.3512  0.6948  0.4254
 2678TIP3   OH2 7976   3.460   2.730   3.731 -0.6047 -0.1518  0.1853
 2678TIP3    H1 7977   3.438   2.821   3.750  0.0343  0.0005  0.2001
 2678TIP3    H2 7978   3.406   2.708   3.654  0.3068  0.6942 -0.7118
 2679TIP3   OH2 7979   6.187   1.329   3.981  0.1572 -0.1522 -0.1770
 2679TIP3    H1 7980   6.221   1.273   3.912 -2.9362 -1.3135 -0.8141
 2679TIP3    H2 7981   6.258   1.334   4.045  1.2801 -3.0590 -1.1285
 2680TIP3   OH2 7982   2.324   3.602   3.639 -0.1942  0.1075 -0.2666
 2680TIP3    H1 7983   2.228   3.606   3.639 -0.2668 -1.1871 -1.4683
 2680TIP3    H2 7984   2.349   3.615   3.731 -1.4439  1.8703 -0.1665
 2681TIP3   OH2 7985   2.106   1.796   3.333 -0.2069 -0.0507  0.0750
 2681TIP3    H1 7986   2.119   1.863   3.399  0.2597 -0.3362  0.2754
 2681TIP3    H2 7987   2.035   1.741   3.367 -0.5346  0.2914 -0.0530
 2682TIP3   OH2 7988   5.079   3.539   2.209  0.5810 -0.2429 -0.3065
 2682TIP3    H1 7989   5.116   3.594   2.277  2.1599 -0.5143 -0.9362
 2682TIP3    H2 7990   5.053   3.600   2.140  0.7401 -0.1425 -0.2778
 2683TIP3   OH2 7991   2.367   3.470   2.913  0.2832  0.3626  0.4305
 2683TIP3    H1 7992   2.393   3.404   2.848 -0.2122  1.1866 -0.6298
 2683TIP3    H2 7993   2.446   3.521   2.929 -0.3949  2.3516 -2.1782
 2684TIP3   OH2 7994   3.666   0.793   2.523 -0.6044  0.2065  0.3997
 2684TIP3    H1 7995   3.719   0.796   2.443  0.4099 -1.2323  0.9842
 2684TIP3    H2 7996   3.595   0.733   2.503  1.0110 -2.0723  1.3379
 2685TIP3   OH2 7997   2.515   6.455   2.453  0.0055 -0.3804 -0.2560
 2685TIP3    H1 7998   2.584   6.443   2.387  1.6164 -1.9137  1.6464
 2685TIP3    H2 7999   2.552   6.418   2.533 -2.0192  1.2166  1.4583
 2686TIP3   OH2 8000   5.327   2.138   2.575  0.0349 -0.4644  0.1963
 2686TIP3    H1 8001   5.275   2.098   2.506  0.4485 -2.2594  0.9115
 2686TIP3    H2 8002   5.315   2.232   2.563 -2.4995 -0.8417 -0.3122
 2687TIP3   OH2 8003   4.785   2.531   3.970  0.1488 -0.6185 -0.6261
 2687TIP3    H1 8004   4.857   2.528   3.906  0.3017 -0.7258 -0.4500
 2687TIP3    H2 8005   4.719   2.471   3.935 -0.3056  0.2771 -1.3288
 2688TIP3   OH2 8006   2.238   3.862   3.855 -0.3506 -0.3016  0.4920
 2688TIP3    H1 8007   2.320   3.911   3.849 -0.7247  0.3019  0.2871
 2688TIP3    H2 8008   2.260   3.785   3.907  0.9315 -1.4154 -1.6687
 2689TIP3   OH2 8009   3.832   3.432   4.112 -0.6245  0.2013  0.1563
 2689TIP3    H1 8010   3.775   3.478   4.050  0.5226  1.0719 -0.2695
 2689TIP3    H2 8011   3.894   3.384   4.057 -0.0046  0.4611  0.6173
 2690TIP3   OH2 8012   5.452   2.351   2.985 -0.4512 -0.0141  0.0432
 2690TIP3    H1 8013   5.384   2.288   2.961  0.8097 -1.1259 -0.6685
 2690TIP3    H2 8014   5.512   2.301   3.041  0.1434  0.7701  0.1180
 2691TIP3   OH2 8015   3.504   4.328   3.382  0.9524  0.5672  0.1722
 2691TIP3    H1 8016   3.526   4.242   3.345  0.4919  1.1077 -1.4209
 2691TIP3    H2 8017   3.529   4.321   3.474  0.7155 -1.3476  0.1268
 2692TIP3   OH2 8018   3.658   2.054   3.746 -0.3040  0.5182  0.4661
 2692TIP3    H1 8019   3.591   2.004   3.700  0.9439 -0.1554 -0.6656
 2692TIP3    H2 8020   3.691   2.116   3.681  1.4325 -0.3978  0.4470
 2693TIP3   OH2 8021   3.961   1.340   2.570  0.3895 -0.6393  0.0325
 2693TIP3    H1 8022   3.928   1.429   2.560  0.7133 -0.3751  1.3047
 2693TIP3    H2 8023   3.934   1.313   2.658  0.3376 -1.7814 -0.3177
 2694TIP3   OH2 8024   3.196   2.478   4.217 -0.0456 -0.7669  0.0887
 2694TIP3    H1 8025   3.148   2.516   4.143  0.9023 -0.1790 -0.2481
 2694TIP3    H2 8026   3.129   2.444   4.275 -0.8551 -0.2156 -0.5079
 2695TIP3   OH2 8027   3.751   4.280   2.421 -0.2965 -0.1391 -0.2580
 2695TIP3    H1 8028   3.841   4.247   2.418  0.2271  0.7680  3.2110
 2695TIP3    H2 8029   3.743   4.334   2.342  1.7891 -1.1730 -1.2258
 2696TIP3   OH2 8030   3.030   1.070   2.337  0.5884  0.0504 -0.0121
 2696TIP3    H1 8031   2.964   1.100   2.275  1.5057 -0.6380 -1.3670
 2696TIP3    H2 8032   3.027   0.974   2.331  1.9273  0.0101 -0.3650
 2697TIP3   OH2 8033   3.941   1.772   3.292  0.1268  0.1888 -0.0126
 2697TIP3    H1 8034   3.853   1.736   3.287 -0.0966  0.6479  0.5942
 2697TIP3    H2 8035   3.998   1.700   3.264 -0.2644 -0.8571  1.8005
 2698TIP3   OH2 8036   2.968   1.810   4.071 -0.0532  0.1443 -0.1689
 2698TIP3    H1 8037   2.907   1.754   4.023  1.1882 -2.5038  1.1866
 2698TIP3    H2 8038   2.961   1.780   4.162  1.0295  1.8867  0.5179
 2699TIP3   OH2 8039   3.902   3.315   3.690 -0.1082 -0.0400  0.0652
 2699TIP3    H1 8040   3.929   3.392   3.741 -0.1583  0.3143 -0.4473
 2699TIP3    H2 8041   3.926   3.336   3.600 -0.7733 -0.3273 -0.1821
 2700TIP3   OH2 8042   2.653   3.568   4.429  0.1282 -0.2390  0.4203
 2700TIP3    H1 8043   2.743   3.544   4.406  0.5054  0.9377  0.6478
 2700TIP3    H2 8044   2.639   3.653   4.388 -1.9028 -1.7085 -2.0870
 2701TIP3   OH2 8045   4.044   3.097   2.229 -0.2919 -0.0295  0.3427
 2701TIP3    H1 8046   3.949   3.101   2.218 -0.1222  2.7202 -0.2463
 2701TIP3    H2 8047   4.064   3.167   2.290  1.5560  0.4663 -0.8122
 2702TIP3   OH2 8048   2.970   0.990   2.738  0.5949  0.1855 -0.2010
 2702TIP3    H1 8049   2.891   0.963   2.785 -0.3605  1.2508 -1.1671
 2702TIP3    H2 8050   2.941   1.062   2.682  1.9040 -0.5384 -1.8304
 2703TIP3   OH2 8051   2.514   1.569   2.421 -0.2021 -0.4768 -0.3178
 2703TIP3    H1 8052   2.576   1.521   2.476  0.4160  0.7715  0.0820
 2703TIP3    H2 8053   2.438   1.584   2.478 -0.1801 -0.5174 -0.2775
 2704TIP3   OH2 8054   5.096   1.911   4.973  0.0922  0.5315  0.0832
 2704TIP3    H1 8055   5.109   1.974   4.902  0.0056  0.7200  0.2314
 2704TIP3    H2 8056   5.002   1.890   4.969  0.4198 -0.7481 -0.9240
 2705TIP3   OH2 8057   3.350   3.576   2.595 -0.2356  0.4233 -0.1964
 2705TIP3    H1 8058   3.432   3.545   2.556 -0.4380 -0.3000 -0.0665
 2705TIP3    H2 8059   3.313   3.636   2.530 -0.5947 -0.8094 -1.1630
 2706TIP3   OH2 8060   4.363   4.595   4.512  0.0883  0.2758 -0.1278
 2706TIP3    H1 8061   4.377   4.502   4.493 -0.0561  0.3066 -0.3878
 2706TIP3    H2 8062   4.271   4.610   4.491  0.5570  0.8916 -1.8133
 2707TIP3   OH2 8063   3.071   3.204   1.879  0.5571 -0.1850 -0.0511
 2707TIP3    H1 8064   3.073   3.282   1.824 -1.7700 -0.7434 -0.9794
 2707TIP3    H2 8065   3.031   3.233   1.961  0.8133 -0.1374  0.0578
 2708TIP3   OH2 8066   0.748   4.720   4.844 -0.0092  0.3586  0.0232
 2708TIP3    H1 8067   0.654   4.724   4.861 -0.1657 -2.1227 -0.0450
 2708TIP3    H2 8068   0.754   4.712   4.748  0.2609  0.1930  0.0554
 2709TIP3   OH2 8069   5.703   0.040   2.848  0.2891 -0.1176  0.1858
 2709TIP3    H1 8070   5.713  -0.051   2.875  1.0581  0.0386  0.4204
 2709TIP3    H2 8071   5.711   0.037   2.752 -0.2626 -0.3697  0.1438
 2710TIP3   OH2 8072   1.839   2.531   3.394 -1.0245  0.3970  0.4732
 2710TIP3    H1 8073   1.878   2.461   3.447 -1.5396  0.2994  0.7310
 2710TIP3    H2 8074   1.773   2.487   3.342  0.1263  0.3360 -0.9575
 2711TIP3   OH2 8075   4.762   1.393   1.872 -0.6537 -0.4675 -0.1878
 2711TIP3    H1 8076   4.695   1.461   1.865 -1.2719 -1.0124  0.4370
 2711TIP3    H2 8077   4.740   1.346   1.952 -0.2102 -1.3884 -0.6036
 2712TIP3   OH2 8078   2.284   2.994   5.176  0.1575 -0.8064 -0.5611
 2712TIP3    H1 8079   2.321   3.078   5.151 -1.7147  0.0423 -0.5981
 2712TIP3    H2 8080   2.357   2.933   5.172  1.6125  0.8638 -0.2749
 2713TIP3   OH2 8081   2.348   0.954   5.084 -0.2781  0.0619  0.3890
 2713TIP3    H1 8082   2.386   0.931   5.169 -0.0705 -0.4540  0.1584
 2713TIP3    H2 8083   2.309   1.040   5.098  1.6926  0.9665  0.4041
 2714TIP3   OH2 8084   5.515   2.736   4.217  0.0164  0.4694  0.1105
 2714TIP3    H1 8085   5.477   2.649   4.212 -0.8205  0.8680 -0.6103
 2714TIP3    H2 8086   5.487   2.779   4.136  2.1363  0.7155 -0.5194
 2715TIP3   OH2 8087   3.973   3.507   4.352  0.2938  0.0584  0.4158
 2715TIP3    H1 8088   3.913   3.580   4.338  3.0082  2.2626 -0.1464
 2715TIP3    H2 8089   3.967   3.455   4.272  0.7434  1.4542 -0.5323
 2716TIP3   OH2 8090   3.605   4.844   2.073  0.2459 -0.1026  0.0579
 2716TIP3    H1 8091   3.535   4.780   2.058 -0.5467  0.3074  1.9126
 2716TIP3    H2 8092   3.673   4.795   2.120  1.7160 -0.7791 -2.6625
 2717TIP3   OH2 8093   2.332   3.343   5.279 -0.5036  0.2844  0.1851
 2717TIP3    H1 8094   2.329   3.342   5.183  0.1205 -1.0349  0.1618
 2717TIP3    H2 8095   2.408   3.397   5.300  1.6214 -2.4458 -0.1729
 2718TIP3   OH2 8096   4.232   2.448   2.634 -0.0838 -0.0449  0.3983
 2718TIP3    H1 8097   4.232   2.461   2.539 -0.8662 -2.0073  0.1053
 2718TIP3    H2 8098   4.283   2.522   2.668 -0.4065  1.0939 -1.4763
 2719TIP3   OH2 8099   2.148   4.391   3.219  0.4520 -0.2967  0.6466
 2719TIP3    H1 8100   2.137   4.461   3.284 -0.8764  0.4555 -0.3556
 2719TIP3    H2 8101   2.099   4.317   3.255  0.6478 -0.2413  1.0285
 2720TIP3   OH2 8102   4.650   3.461   5.480 -0.2441 -0.0468  1.0033
 2720TIP3    H1 8103   4.579   3.503   5.431  0.7467  0.4235 -0.0680
 2720TIP3    H2 8104   4.612   3.380   5.513 -0.9852 -0.3244 -0.4764
 2721TIP3   OH2 8105   4.772   3.458   3.763 -0.1423  0.5036 -0.2404
 2721TIP3    H1 8106   4.768   3.503   3.679 -0.8281  3.6932  1.4450
 2721TIP3    H2 8107   4.859   3.479   3.797 -0.0034 -0.4980  0.0419
 2722TIP3   OH2 8108   3.633   2.484   2.505 -0.2807  0.1611  0.0331
 2722TIP3    H1 8109   3.674   2.564   2.536 -1.4245  0.5908  0.4613
 2722TIP3    H2 8110   3.552   2.477   2.555 -0.5992 -0.8189 -0.5983
 2723TIP3   OH2 8111   4.069   2.071   4.732  0.0929  0.8543  0.0063
 2723TIP3    H1 8112   4.158   2.084   4.700  1.0274 -3.3188  0.5852
 2723TIP3    H2 8113   4.018   2.051   4.653 -0.6290  4.2197 -0.4543
 2724TIP3   OH2 8114   4.075   2.279   4.157 -0.8279  0.7735  0.0697
 2724TIP3    H1 8115   4.092   2.373   4.158 -0.9372  0.7982 -0.6125
 2724TIP3    H2 8116   3.979   2.272   4.157 -0.8173  0.6603 -0.2390
 2725TIP3   OH2 8117   5.194   1.194   1.887 -0.3565 -0.2229  0.0111
 2725TIP3    H1 8118   5.193   1.114   1.834 -1.3106 -1.0088  1.2097
 2725TIP3    H2 8119   5.283   1.228   1.876 -0.1990 -0.9642 -1.2063
 2726TIP3   OH2 8120   5.543   0.409   4.156 -0.0328  0.0030  0.3353
 2726TIP3    H1 8121   5.604   0.351   4.202  0.3675  0.2177  0.0749
 2726TIP3    H2 8122   5.508   0.356   4.085 -0.3180 -0.1884  0.6136
 2727TIP3   OH2 8123   2.632   3.374   3.060 -0.3461 -0.2454  0.1435
 2727TIP3    H1 8124   2.672   3.302   3.109  1.3302  0.7124  0.2561
 2727TIP3    H2 8125   2.698   3.397   2.994 -1.1448  0.7272 -0.3324
 2728TIP3   OH2 8126   2.864   3.690   2.129  0.5663  0.0279 -0.0216
 2728TIP3    H1 8127   2.874   3.770   2.181  0.0891 -0.1693  0.3775
 2728TIP3    H2 8128   2.949   3.679   2.086 -0.0353  1.9401 -1.7792
 2729TIP3   OH2 8129   2.555   1.509   3.640  0.5910 -0.1577 -0.2484
 2729TIP3    H1 8130   2.472   1.557   3.643 -0.2565 -1.6588  1.2355
 2729TIP3    H2 8131   2.612   1.554   3.702  1.2167  1.4111 -1.9146
 2730TIP3   OH2 8132   3.886   0.679   3.767 -0.0616  0.0705  0.6128
 2730TIP3    H1 8133   3.817   0.742   3.749  0.8892  1.1272  0.6060
 2730TIP3    H2 8134   3.891   0.675   3.863 -0.3541 -0.2634  0.6164
 2731TIP3   OH2 8135   4.381   1.832   4.883  0.0065 -0.4340 -0.1505
 2731TIP3    H1 8136   4.291   1.852   4.908  0.4247  3.7624 -1.6980
 2731TIP3    H2 8137   4.373   1.782   4.801 -0.9246 -0.9689  0.2655
 2732TIP3   OH2 8138   3.229   2.955   2.618 -0.5101  0.1776 -0.3663
 2732TIP3    H1 8139   3.206   3.046   2.597 -0.9834  0.1193 -0.1078
 2732TIP3    H2 8140   3.252   2.916   2.534  0.8843  0.8711 -0.3260
 2733TIP3   OH2 8141   2.888   0.967   4.133 -0.1783 -0.4987 -0.4306
 2733TIP3    H1 8142   2.823   0.996   4.069  3.1317  1.2395 -3.1742
 2733TIP3    H2 8143   2.908   1.046   4.184  1.5755 -0.3409 -1.3070
 2734TIP3   OH2 8144   1.567   1.831   3.837  0.8195  0.0288  0.0970
 2734TIP3    H1 8145   1.575   1.918   3.799  1.6087 -0.7651 -1.5787
 2734TIP3    H2 8146   1.603   1.772   3.771  0.3386 -1.5701  1.2332
 2735TIP3   OH2 8147   3.356   2.850   1.245  0.1744  0.9105 -0.3969
 2735TIP3    H1 8148   3.373   2.829   1.153 -0.4352 -3.3408  0.3982
 2735TIP3    H2 8149   3.437   2.890   1.275  2.1594 -2.0528 -1.5833
 2736TIP3   OH2 8150   3.017   2.066   3.447  0.0182 -0.2267 -0.7805
 2736TIP3    H1 8151   2.958   2.131   3.486  1.0034 -0.4106  1.0433
 2736TIP3    H2 8152   3.072   2.117   3.387  1.6180  0.8643  1.5602
 2737TIP3   OH2 8153   3.857   2.121   3.934 -0.2850  0.4205 -0.7116
 2737TIP3    H1 8154   3.845   2.027   3.922 -0.7441  0.3463  0.3483
 2737TIP3    H2 8155   3.769   2.155   3.948 -0.3860  1.3411 -3.3283
 2738TIP3   OH2 8156   3.180   3.193   4.447  0.6038 -0.4434  0.2777
 2738TIP3    H1 8157   3.261   3.177   4.398  0.4217 -2.0037  0.4540
 2738TIP3    H2 8158   3.180   3.287   4.463  2.1264 -0.3481 -0.1739
 2739TIP3   OH2 8159   4.546   3.042   3.073  0.3842  0.5999  0.1390
 2739TIP3    H1 8160   4.587   3.029   3.159 -0.6222  1.4411  0.7542
 2739TIP3    H2 8161   4.537   2.953   3.037  0.4378  0.2107  1.0749
 2740TIP3   OH2 8162   2.838   2.270   3.471 -0.1153 -0.2138 -0.1973
 2740TIP3    H1 8163   2.744   2.284   3.485 -0.1512 -0.8020  0.1860
 2740TIP3    H2 8164   2.853   2.296   3.381 -0.3736  1.2521  0.1726
 2741TIP3   OH2 8165   3.274   4.890   3.268  0.0112 -0.6694 -0.1801
 2741TIP3    H1 8166   3.265   4.984   3.253 -1.0160 -0.5053  1.3427
 2741TIP3    H2 8167   3.276   4.852   3.180  0.5006  0.7720 -0.8112
 2742TIP3   OH2 8168   4.152   3.276   2.467 -0.3583 -0.4138  0.1379
 2742TIP3    H1 8169   4.075   3.332   2.469 -1.1328 -1.4939  1.6837
 2742TIP3    H2 8170   4.165   3.249   2.558  1.4315 -0.8185 -0.2034
 2743TIP3   OH2 8171   1.835   2.094   4.107  0.2135  0.3275 -0.0670
 2743TIP3    H1 8172   1.765   2.035   4.080  0.7019  0.2703 -1.2045
 2743TIP3    H2 8173   1.877   2.050   4.181  1.5288 -1.4377 -1.8490
 2744TIP3   OH2 8174   3.079   1.772   2.769 -0.0322  0.0679  0.8099
 2744TIP3    H1 8175   3.167   1.809   2.765  0.0704 -0.1424  1.0616
 2744TIP3    H2 8176   3.092   1.678   2.756 -0.2012  0.0156  1.0094
 2745TIP3   OH2 8177   3.923   2.011   4.510  0.1278  0.1292  0.0306
 2745TIP3    H1 8178   3.904   2.104   4.520 -1.0057 -0.2185  1.2093
 2745TIP3    H2 8179   3.860   1.981   4.444  0.9762  0.3390 -0.8868
 2746TIP3   OH2 8180   4.560   0.837   6.369 -0.3981  0.1946 -0.1272
 2746TIP3    H1 8181   4.505   0.860   6.294 -0.6560 -0.3436 -0.1133
 2746TIP3    H2 8182   4.650   0.843   6.336 -0.4725  0.9147 -0.1996
 2747TIP3   OH2 8183   3.606   0.477   1.590 -0.1243 -0.2259 -0.4139
 2747TIP3    H1 8184   3.584   0.523   1.509  0.5209 -0.0533 -0.4979
 2747TIP3    H2 8185   3.682   0.525   1.625 -1.2722  0.5742  1.0323
 2748TIP3   OH2 8186   6.233   2.661   3.892  0.2963 -0.0212 -0.4289
 2748TIP3    H1 8187   6.287   2.585   3.870  0.4688  0.3115 -1.1603
 2748TIP3    H2 8188   6.145   2.626   3.902  0.7093 -0.6410  1.2046
 2749TIP3   OH2 8189   2.690   1.312   3.882  0.6179 -0.2944 -0.1757
 2749TIP3    H1 8190   2.599   1.333   3.901 -0.8469 -1.7767 -4.7754
 2749TIP3    H2 8191   2.739   1.390   3.906 -2.3520  1.8606 -0.8789
 2750TIP3   OH2 8192   4.552   4.822   4.217  0.4183 -0.0736 -0.1949
 2750TIP3    H1 8193   4.530   4.830   4.310 -0.4760 -1.0083 -0.3133
 2750TIP3    H2 8194   4.493   4.884   4.173  2.4717  2.1126  0.0589
 2751TIP3   OH2 8195   0.635   7.685   3.111  0.3202 -0.0685  0.2767
 2751TIP3    H1 8196   0.712   7.738   3.090  0.0210  0.1913 -0.1882
 2751TIP3    H2 8197   0.635   7.678   3.206  0.3006  0.8702  0.3495
 2752TIP3   OH2 8198   5.521   2.541   2.530  0.2539 -0.0301  0.0332
 2752TIP3    H1 8199   5.550   2.554   2.620  0.0363  1.6438 -0.1228
 2752TIP3    H2 8200   5.469   2.461   2.532  0.2666 -0.0018  1.3852
 2753TIP3   OH2 8201   4.206   1.116   4.125  0.0233  0.0401 -0.5013
 2753TIP3    H1 8202   4.205   1.168   4.205  0.4935  1.8057 -1.6247
 2753TIP3    H2 8203   4.166   1.033   4.151  0.9626  0.2446  1.7772
 2754TIP3   OH2 8204   1.191   1.264   4.513 -0.1612 -0.1109  0.5544
 2754TIP3    H1 8205   1.187   1.260   4.609  0.6261  2.0284  0.6980
 2754TIP3    H2 8206   1.154   1.350   4.491 -1.4106 -1.0519 -1.1461
 2755TIP3   OH2 8207   7.079   0.814   3.366  0.0719  0.3395 -0.0638
 2755TIP3    H1 8208   7.097   0.906   3.346  0.4884  0.4773  0.9283
 2755TIP3    H2 8209   7.025   0.817   3.444  1.0731 -0.2953  0.6673
 2756TIP3   OH2 8210   3.068   2.834   3.562 -0.0500 -0.8148  0.5486
 2756TIP3    H1 8211   3.015   2.795   3.631  0.1447  0.7695  1.6210
 2756TIP3    H2 8212   3.040   2.790   3.482 -1.6038 -1.3548  1.3758
 2757TIP3   OH2 8213   5.251   2.418   2.513  0.5761 -0.5250  0.1217
 2757TIP3    H1 8214   5.181   2.468   2.555  0.7471  1.2491 -1.5815
 2757TIP3    H2 8215   5.213   2.389   2.430  1.1096 -1.5608  0.2350
 2758TIP3   OH2 8216   5.106   2.148   1.352  0.0672 -0.1587  0.1965
 2758TIP3    H1 8217   5.134   2.228   1.308 -1.3596  0.0324 -0.3702
 2758TIP3    H2 8218   5.174   2.084   1.331 -0.6682 -0.1216 -2.4616
 2759TIP3   OH2 8219   2.477   3.523   2.055 -0.0173 -0.1733  1.0249
 2759TIP3    H1 8220   2.443   3.445   2.011 -2.1621  1.1251  0.3017
 2759TIP3    H2 8221   2.481   3.498   2.148 -0.8895 -1.0759  0.8254
 2760TIP3   OH2 8222   3.487   4.031   3.336 -0.2868  0.0063  0.1782
 2760TIP3    H1 8223   3.427   4.046   3.264  0.2404  0.0320 -0.2596
 2760TIP3    H2 8224   3.432   3.998   3.407 -0.4560 -2.3402 -1.0007
 2761TIP3   OH2 8225   1.613   2.801   0.928 -0.4904  0.1495 -0.1370
 2761TIP3    H1 8226   1.672   2.871   0.956  2.1423 -2.1690  0.2655
 2761TIP3    H2 8227   1.606   2.744   1.004 -0.2771 -1.5580 -1.3908
 2762TIP3   OH2 8228   0.861   1.334   3.657  0.3736 -0.1017 -0.0220
 2762TIP3    H1 8229   0.803   1.407   3.681 -0.9174 -1.1867  0.1906
 2762TIP3    H2 8230   0.940   1.349   3.709  0.1359  1.1546  0.0102
 2763TIP3   OH2 8231   2.832   4.411   3.967  0.3730 -0.2869 -0.3698
 2763TIP3    H1 8232   2.859   4.374   4.051  1.3464  1.0932 -0.0503
 2763TIP3    H2 8233   2.737   4.410   3.969  0.3772 -1.7309  0.0697
 2764TIP3   OH2 8234   2.897   1.914   1.943 -0.1967  0.5366 -0.1753
 2764TIP3    H1 8235   2.828   1.870   1.893 -1.2383  1.7545  0.1600
 2764TIP3    H2 8236   2.886   2.007   1.923  0.3694  0.8930  1.1076
 2765TIP3   OH2 8237   3.301   4.007   3.545 -0.3278  0.4429 -0.6473
 2765TIP3    H1 8238   3.251   4.058   3.609 -2.5529 -2.2875 -0.0821
 2765TIP3    H2 8239   3.256   4.023   3.462 -0.4578  0.1400 -0.6356
 2766TIP3   OH2 8240   2.931   2.782   4.262  0.2799 -0.0933  0.5247
 2766TIP3    H1 8241   2.843   2.805   4.234  0.4361 -1.7012 -1.4288
 2766TIP3    H2 8242   2.921   2.696   4.305  0.7193  0.2956  1.4247
 2767TIP3   OH2 8243   5.568   4.927   3.234  0.0404 -0.2114 -0.3445
 2767TIP3    H1 8244   5.516   5.008   3.234  2.2909  1.2739 -0.0827
 2767TIP3    H2 8245   5.648   4.950   3.282  1.6180 -1.9651 -2.0596
 2768TIP3   OH2 8246   2.913   4.627   1.643  0.1940 -0.5301 -0.0357
 2768TIP3    H1 8247   2.923   4.595   1.733 -0.3336  1.1099  0.6198
 2768TIP3    H2 8248   2.974   4.701   1.637  0.4983 -0.8573 -1.1512
 2769TIP3   OH2 8249   3.450   2.054   6.726  0.0616  0.0005  0.2422
 2769TIP3    H1 8250   3.412   1.973   6.692  0.0879  0.1414 -0.1277
 2769TIP3    H2 8251   3.524   2.026   6.780  1.1564 -0.1248 -1.3192
 2770TIP3   OH2 8252   3.894   0.848   1.619  0.1658  0.2193 -0.0187
 2770TIP3    H1 8253   3.917   0.917   1.557 -1.5073  0.6452 -0.2035
 2770TIP3    H2 8254   3.803   0.867   1.644  0.7651  0.0070  2.5041
 2771TIP3   OH2 8255   0.804   1.242   3.344 -0.1505 -0.4001 -0.0879
 2771TIP3    H1 8256   0.778   1.175   3.407 -0.3215 -0.6816 -0.4611
 2771TIP3    H2 8257   0.724   1.291   3.326  0.2403  0.7180  1.1613
 2772TIP3   OH2 8258   4.305   2.160   1.590 -0.0995 -0.0307 -0.4138
 2772TIP3    H1 8259   4.384   2.177   1.539 -0.3476  1.2872 -0.3847
 2772TIP3    H2 8260   4.337   2.124   1.672  0.3615 -1.2518 -1.1220
 2773TIP3   OH2 8261   4.029   3.885   2.776 -0.1837  0.3470  0.3431
 2773TIP3    H1 8262   4.048   3.800   2.736  1.4158  0.8742 -0.0536
 2773TIP3    H2 8263   4.105   3.902   2.833 -0.4616  1.5382  0.3701
 2774TIP3   OH2 8264   3.435   2.713   4.108  0.5032 -0.2757  0.5872
 2774TIP3    H1 8265   3.442   2.632   4.157  1.3735 -0.3633  0.3364
 2774TIP3    H2 8266   3.526   2.739   4.092  0.2300 -0.1923 -0.8871
 2775TIP3   OH2 8267   4.684   1.975   3.319 -0.0558 -0.1361  0.0088
 2775TIP3    H1 8268   4.753   1.970   3.254 -1.8808 -1.0662 -1.9122
 2775TIP3    H2 8269   4.665   1.884   3.341  0.1991  0.1558  1.4732
 2776TIP3   OH2 8270   4.084   2.284   3.330 -0.2615  0.1916 -0.1935
 2776TIP3    H1 8271   4.075   2.379   3.321  0.5762  0.3389  0.4644
 2776TIP3    H2 8272   4.151   2.260   3.267 -0.0716  0.1192  0.0338
 2777TIP3   OH2 8273   4.414   3.157   1.406  0.1070 -0.1373  0.2537
 2777TIP3    H1 8274   4.427   3.062   1.395  1.2005  0.0978 -0.5832
 2777TIP3    H2 8275   4.353   3.164   1.479  1.5823 -1.4456  1.6572
 2778TIP3   OH2 8276   2.184   2.925   1.911  0.5377  0.5579 -0.3667
 2778TIP3    H1 8277   2.223   2.955   1.829  0.1594 -1.1666 -1.2077
 2778TIP3    H2 8278   2.093   2.954   1.907  0.5191  0.4725 -0.5642
 2779TIP3   OH2 8279   4.794   1.147   4.414 -0.4048  0.0008 -0.0759
 2779TIP3    H1 8280   4.766   1.076   4.471  1.3645 -0.5441  0.1530
 2779TIP3    H2 8281   4.757   1.125   4.328 -0.4156 -0.8362  0.1425
 2780TIP3   OH2 8282   2.004   2.888   2.740  0.0021  0.2394  0.1275
 2780TIP3    H1 8283   2.061   2.812   2.752  0.7665  0.9314  0.9220
 2780TIP3    H2 8284   1.995   2.925   2.828  1.1780  2.1623 -0.5303
 2781TIP3   OH2 8285   3.593   5.140   2.776  0.1129  0.5595  0.4808
 2781TIP3    H1 8286   3.559   5.210   2.832  0.0743  0.5102  0.5182
 2781TIP3    H2 8287   3.685   5.132   2.801  0.7384  2.2332 -1.1569
 2782TIP3   OH2 8288   4.950   0.491   3.943  0.7952 -0.0960 -0.2446
 2782TIP3    H1 8289   4.903   0.549   3.884 -0.5440 -1.8327 -0.9171
 2782TIP3    H2 8290   4.988   0.550   4.008  2.3761  1.8503 -2.8473
 2783TIP3   OH2 8291   2.893   1.814   5.091 -0.1877  0.2077  0.5080
 2783TIP3    H1 8292   2.854   1.886   5.140  0.3708  1.6578 -1.1325
 2783TIP3    H2 8293   2.966   1.785   5.146 -1.9943 -0.8998  2.4208
 2784TIP3   OH2 8294   1.773   4.234   3.415 -0.0834  0.1105 -0.5590
 2784TIP3    H1 8295   1.718   4.188   3.351  0.2918  0.4227 -1.1127
 2784TIP3    H2 8296   1.767   4.181   3.494 -0.9303 -0.0265 -0.7138
 2785TIP3   OH2 8297   3.291   1.942   2.998  0.2477 -0.5716  0.5091
 2785TIP3    H1 8298   3.200   1.951   2.969  0.5011 -0.4487 -0.2581
 2785TIP3    H2 8299   3.333   2.024   2.971  0.8998 -1.1642 -0.3007
 2786TIP3   OH2 8300   1.775   1.976   5.084  0.2061  0.0903  0.3160
 2786TIP3    H1 8301   1.708   2.040   5.110 -0.5808  0.0838 -1.6048
 2786TIP3    H2 8302   1.832   2.024   5.024  0.3275 -0.6629 -0.1742
 2787TIP3   OH2 8303   4.226   2.871   2.527 -0.1787 -0.1833 -0.2710
 2787TIP3    H1 8304   4.207   2.787   2.486 -0.7676 -0.9815  1.5833
 2787TIP3    H2 8305   4.304   2.855   2.580 -1.5773 -0.1581  1.8342
 2788TIP3   OH2 8306   2.757   1.406   4.769  0.6310  0.4083 -0.2456
 2788TIP3    H1 8307   2.793   1.319   4.785  0.5149  0.6109  1.1102
 2788TIP3    H2 8308   2.786   1.459   4.843 -1.4825  0.8599  0.3057
 2789TIP3   OH2 8309   3.646   3.267   1.914 -0.4649  0.4478  0.2788
 2789TIP3    H1 8310   3.699   3.337   1.875 -1.3955  0.7440 -0.4714
 2789TIP3    H2 8311   3.559   3.279   1.876 -0.4655 -1.5395 -0.3987
 2790TIP3   OH2 8312   1.655   1.723   4.233 -0.2453 -0.5997 -0.0482
 2790TIP3    H1 8313   1.657   1.814   4.204 -0.1226 -0.8980 -0.9878
 2790TIP3    H2 8314   1.621   1.674   4.158 -1.3871 -1.1939  0.8428
 2791TIP3   OH2 8315   3.452   1.201   4.421 -0.2949 -0.3977  0.2559
 2791TIP3    H1 8316   3.473   1.283   4.376 -0.0206 -0.7879 -0.3351
 2791TIP3    H2 8317   3.473   1.217   4.513  0.3255 -0.0022  0.0431
 2792TIP3   OH2 8318   4.584   1.567   1.461  0.2880 -0.7276  0.3061
 2792TIP3    H1 8319   4.524   1.509   1.414 -0.2277  0.5062 -0.5780
 2792TIP3    H2 8320   4.551   1.655   1.443  2.4232 -0.0234 -0.2384
 2793TIP3   OH2 8321   3.980   4.146   5.946 -0.5434 -0.1351 -0.4076
 2793TIP3    H1 8322   3.992   4.071   6.004 -2.1173  0.1304  0.3089
 2793TIP3    H2 8323   3.919   4.115   5.879 -1.0053  0.4030 -0.2469
 2794TIP3   OH2 8324   4.639   3.812   2.117  0.3048  0.4356 -0.4865
 2794TIP3    H1 8325   4.604   3.865   2.188 -1.2149 -0.0750 -0.8166
 2794TIP3    H2 8326   4.561   3.778   2.072  1.2290 -1.9063 -0.4013
 2795TIP3   OH2 8327   3.867   3.697   3.317  0.2633 -0.1289  0.0250
 2795TIP3    H1 8328   3.819   3.780   3.314  0.9103  0.2515  0.0466
 2795TIP3    H2 8329   3.885   3.677   3.225  1.6379  0.6635  0.1058
 2796TIP3   OH2 8330   2.468   1.167   1.838 -0.4132  1.2141 -0.1984
 2796TIP3    H1 8331   2.407   1.113   1.888  1.1344 -0.0809  0.3549
 2796TIP3    H2 8332   2.464   1.131   1.750 -0.9003  1.5381 -0.3117
 2797TIP3   OH2 8333   5.106   3.833   4.555  0.1842  0.1113  0.5837
 2797TIP3    H1 8334   5.064   3.904   4.605 -2.3046  0.3548 -1.7564
 2797TIP3    H2 8335   5.034   3.775   4.531  1.5760 -0.8340 -1.3935
 2798TIP3   OH2 8336   2.055   7.798   3.416 -0.0426  0.2216 -0.0516
 2798TIP3    H1 8337   2.117   7.856   3.460 -0.3161 -0.1349  0.8068
 2798TIP3    H2 8338   2.030   7.846   3.337 -1.3051  1.8915  1.3253
 2799TIP3   OH2 8339   3.628   4.327   5.524  0.0302 -0.2096 -0.3531
 2799TIP3    H1 8340   3.716   4.352   5.554  0.4397 -0.6682 -1.1372
 2799TIP3    H2 8341   3.569   4.387   5.569  0.7537  0.1507  0.1326
 2800TIP3   OH2 8342   5.796   2.230   5.642 -0.1568  0.5086 -0.6556
 2800TIP3    H1 8343   5.818   2.226   5.735 -0.8067 -0.8823 -0.5337
 2800TIP3    H2 8344   5.862   2.176   5.600 -2.2572 -2.3246 -0.4780
 2801TIP3   OH2 8345   0.046   7.809   2.562 -0.2745  0.7600 -0.4411
 2801TIP3    H1 8346   0.106   7.738   2.586 -0.5357  0.8824  0.6222
 2801TIP3    H2 8347   0.088   7.888   2.595  0.2671  1.1654 -2.0939
 2802TIP3   OH2 8348   1.731   4.234   2.744 -0.3198 -0.0469 -0.3929
 2802TIP3    H1 8349   1.690   4.306   2.697  1.1759  1.3854  0.4808
 2802TIP3    H2 8350   1.675   4.222   2.822 -1.1561 -0.5445 -1.0541
 2803TIP3   OH2 8351   0.535   7.864   4.134  0.1724 -0.1602  0.4669
 2803TIP3    H1 8352   0.479   7.832   4.063 -0.3855 -1.0204  1.2895
 2803TIP3    H2 8353   0.477   7.916   4.189  0.0975 -1.2880  1.4769
 2804TIP3   OH2 8354   3.964   2.951   5.829 -0.7732 -0.2714 -0.5727
 2804TIP3    H1 8355   3.977   2.963   5.735  0.7517 -0.2635 -0.3787
 2804TIP3    H2 8356   3.965   3.040   5.865  0.6900 -0.3823 -0.3136
 2805TIP3   OH2 8357   3.416   2.863   1.688 -0.0404  0.5590  0.0475
 2805TIP3    H1 8358   3.413   2.944   1.638 -0.3368  2.2587  2.7364
 2805TIP3    H2 8359   3.339   2.814   1.658 -1.1820  2.2970  0.0468
 2806TIP3   OH2 8360   0.911   1.930   4.353  0.3317  0.1247 -0.1608
 2806TIP3    H1 8361   0.816   1.923   4.340  0.3910  1.4781 -1.4151
 2806TIP3    H2 8362   0.925   2.021   4.378  1.2635 -0.1894  0.4852
 2807TIP3   OH2 8363   0.705   1.836   4.094  0.0069 -0.2972  0.5268
 2807TIP3    H1 8364   0.658   1.911   4.130 -1.2860 -0.7971 -0.0588
 2807TIP3    H2 8365   0.684   1.764   4.155  1.1546 -0.2101  1.0315
 2808TIP3   OH2 8366   2.292   2.899   3.702  0.1305  0.1367  0.1751
 2808TIP3    H1 8367   2.238   2.834   3.748  1.8957 -1.8791 -0.5094
 2808TIP3    H2 8368   2.241   2.921   3.624 -1.2306  0.8465  1.2376
 2809TIP3   OH2 8369   4.599   1.120   5.118 -0.0795  0.8203  0.0127
 2809TIP3    H1 8370   4.578   1.201   5.164  3.4400  1.3283  0.8734
 2809TIP3    H2 8371   4.576   1.050   5.179  0.6150  1.3339  0.8634
 2810TIP3   OH2 8372   6.906   4.247   3.034 -0.1906  0.4770 -0.2793
 2810TIP3    H1 8373   6.868   4.183   2.974 -0.5657  1.4776 -1.1370
 2810TIP3    H2 8374   6.895   4.209   3.120 -1.8284  0.0738 -0.6449
 2811TIP3   OH2 8375   3.982   3.657   5.527  0.5374 -0.0334 -0.5636
 2811TIP3    H1 8376   3.964   3.748   5.504 -0.8590 -0.3413 -0.7084
 2811TIP3    H2 8377   3.937   3.605   5.461 -0.4486 -0.8610  0.7191
 2812TIP3   OH2 8378   3.558   2.453   3.884 -0.0620 -0.6246 -0.2731
 2812TIP3    H1 8379   3.530   2.402   3.960  0.1935 -0.1238  0.1514
 2812TIP3    H2 8380   3.503   2.531   3.885 -1.7302 -1.7208 -1.9528
 2813TIP3   OH2 8381   2.337   3.367   5.845  0.3935 -0.2176 -0.1146
 2813TIP3    H1 8382   2.273   3.437   5.858 -1.1429 -1.3639 -1.2580
 2813TIP3    H2 8383   2.324   3.340   5.754  0.1554 -2.7319  0.6286
 2814TIP3   OH2 8384   4.379   3.328   4.269 -0.7636  0.9242 -0.1246
 2814TIP3    H1 8385   4.444   3.284   4.213 -0.4962 -0.9181  1.5419
 2814TIP3    H2 8386   4.298   3.281   4.253 -0.8700  0.9241  0.3975
 2815TIP3   OH2 8387   6.028   0.940   4.777 -0.3138  0.1635  0.2601
 2815TIP3    H1 8388   6.062   0.915   4.690  0.9115  0.6484  0.5836
 2815TIP3    H2 8389   5.990   1.026   4.764  0.0353  0.3166  0.2379
 2816TIP3   OH2 8390   2.583   1.237   4.315 -0.1482 -0.2062 -0.3114
 2816TIP3    H1 8391   2.605   1.319   4.360  0.8036  0.6112 -2.2102
 2816TIP3    H2 8392   2.664   1.210   4.272 -0.2561 -2.5867  0.9394
 2817TIP3   OH2 8393   1.907   1.100   4.819  0.1258 -1.0422 -0.7180
 2817TIP3    H1 8394   1.924   1.116   4.912 -0.8875 -2.3908 -0.2944
 2817TIP3    H2 8395   1.864   1.180   4.789  1.5381 -0.1010 -0.3393
 2818TIP3   OH2 8396   6.639   3.111   5.116 -0.0170  0.2312  0.3363
 2818TIP3    H1 8397   6.578   3.179   5.142  0.9827  1.1104  0.3966
 2818TIP3    H2 8398   6.706   3.156   5.064  0.6820 -0.6816  0.4171
 2819TIP3   OH2 8399   4.066   6.008   2.933 -0.1186  0.1765 -0.3580
 2819TIP3    H1 8400   4.045   6.031   3.023 -1.7396  1.0862 -0.9433
 2819TIP3    H2 8401   4.149   6.052   2.915  1.5355 -2.0736  1.4572
 2820TIP3   OH2 8402   8.005   2.380   2.311 -0.6238  0.1154 -0.3677
 2820TIP3    H1 8403   7.930   2.428   2.347 -1.7482 -1.2745 -0.8549
 2820TIP3    H2 8404   8.069   2.449   2.290 -1.9596  1.3580 -0.4351
 2821TIP3   OH2 8405   1.948   3.307   2.685 -0.0914  0.2197 -0.4494
 2821TIP3    H1 8406   1.920   3.377   2.626 -1.6491  0.1887  0.2203
 2821TIP3    H2 8407   1.915   3.226   2.645  0.3507  0.0276 -0.4286
 2822TIP3   OH2 8408   1.647   6.986   1.700  0.2596 -0.4619  0.0047
 2822TIP3    H1 8409   1.720   6.987   1.638  1.1195  0.3662  1.0196
 2822TIP3    H2 8410   1.586   7.051   1.665  0.0054 -1.1344 -0.8282
 2823TIP3   OH2 8411   3.399   2.702   3.296 -0.1699  0.1769 -0.5688
 2823TIP3    H1 8412   3.441   2.786   3.314  1.2871 -0.3702 -1.2871
 2823TIP3    H2 8413   3.365   2.674   3.381 -1.5229  1.9228 -0.5010
 2824TIP3   OH2 8414   4.155   5.806   3.293  0.4400 -0.2604 -0.6485
 2824TIP3    H1 8415   4.082   5.814   3.232  2.3668 -0.9399 -3.1532
 2824TIP3    H2 8416   4.204   5.887   3.283  0.2354  0.0534  0.7638
 2825TIP3   OH2 8417   6.081   3.237   4.467 -0.2155  0.2196 -0.1506
 2825TIP3    H1 8418   6.032   3.219   4.387 -2.9005  1.3189  1.1901
 2825TIP3    H2 8419   6.084   3.333   4.472  1.4530  0.1668  0.1952
 2826TIP3   OH2 8420   2.972   2.832   2.925  0.9256 -0.7192 -0.7763
 2826TIP3    H1 8421   3.048   2.773   2.928  1.4658  0.0009 -0.3024
 2826TIP3    H2 8422   2.931   2.822   3.011  2.5692  1.6204  0.3410
 2827TIP3   OH2 8423   3.327   2.719   2.178  0.0698  0.2381 -0.5584
 2827TIP3    H1 8424   3.415   2.752   2.162  0.5485 -1.5625 -1.7450
 2827TIP3    H2 8425   3.274   2.759   2.109 -0.4307  2.6586  1.1419
 2828TIP3   OH2 8426   3.898   0.912   3.107 -0.1160 -0.2149  0.3461
 2828TIP3    H1 8427   3.824   0.973   3.117 -0.2904 -0.3364 -0.2049
 2828TIP3    H2 8428   3.880   0.865   3.026  0.8100  0.0992 -0.0588
 2829TIP3   OH2 8429   3.462   2.299   4.888 -0.0677  0.1140 -0.3920
 2829TIP3    H1 8430   3.518   2.232   4.926 -1.1405 -1.6281 -1.8016
 2829TIP3    H2 8431   3.388   2.306   4.950  0.8177  1.1824  0.5768
 2830TIP3   OH2 8432   6.594   2.005   0.144  0.1219  0.4028  0.0761
 2830TIP3    H1 8433   6.538   1.943   0.098 -0.6714  0.9030  0.3496
 2830TIP3    H2 8434   6.680   1.964   0.146 -0.6649 -1.2119  1.2950
 2831TIP3   OH2 8435   6.236   0.249   2.652 -0.0603 -0.0363 -0.5966
 2831TIP3    H1 8436   6.258   0.332   2.694  0.9510 -0.6163  0.0338
 2831TIP3    H2 8437   6.223   0.188   2.724 -1.0265 -0.3779 -1.0532
 2832TIP3   OH2 8438   3.213   3.849   2.347 -0.2310  0.0391  0.2619
 2832TIP3    H1 8439   3.146   3.904   2.387  0.4530  0.0718  1.3815
 2832TIP3    H2 8440   3.210   3.871   2.254 -1.9225 -0.1304  0.2710
 2833TIP3   OH2 8441   3.401   3.213   2.799 -0.2475  0.8724  0.0292
 2833TIP3    H1 8442   3.451   3.214   2.718  0.8306  0.6134  0.6796
 2833TIP3    H2 8443   3.435   3.137   2.847  0.4067  2.0894  1.5119
 2834TIP3   OH2 8444   3.860   3.114   4.071 -0.0109  0.1827 -0.0875
 2834TIP3    H1 8445   3.909   3.115   3.988  0.1699  0.6783  0.0234
 2834TIP3    H2 8446   3.770   3.093   4.045 -0.1572  1.2908 -0.5283
 2835TIP3   OH2 8447   5.275   0.195   2.499 -1.1333  0.5895 -0.0688
 2835TIP3    H1 8448   5.356   0.213   2.547 -0.6772  0.3603 -0.7367
 2835TIP3    H2 8449   5.273   0.260   2.430 -0.9848 -0.0589 -0.6881
 2836TIP3   OH2 8450   3.993   2.864   1.550  0.0115 -0.0876  0.1433
 2836TIP3    H1 8451   3.920   2.803   1.542 -1.1683  1.4548 -1.3171
 2836TIP3    H2 8452   3.956   2.940   1.595  1.3948 -0.3258  1.7167
 2837TIP3   OH2 8453   5.588   0.087   4.627 -0.0069 -0.0852  0.5344
 2837TIP3    H1 8454   5.603   0.176   4.595 -0.6310  0.0905  0.7245
 2837TIP3    H2 8455   5.674   0.045   4.623  0.4267  0.7375  1.0836
 2838TIP3   OH2 8456   5.220   5.511   2.137  0.3968  0.5045 -0.1778
 2838TIP3    H1 8457   5.307   5.491   2.170 -0.4890 -4.1833 -0.3602
 2838TIP3    H2 8458   5.172   5.541   2.215  0.8019 -1.7774  0.9889
 2839TIP3   OH2 8459   0.989   7.812   5.675 -0.1984 -0.3327  0.0464
 2839TIP3    H1 8460   0.909   7.817   5.623 -0.4227 -0.2783  0.3933
 2839TIP3    H2 8461   1.012   7.903   5.693 -1.5327 -0.3817  2.1782
 2840TIP3   OH2 8462   5.599   2.103   2.504  0.1254 -0.1924  0.2925
 2840TIP3    H1 8463   5.640   2.133   2.585 -2.7233  1.5427  1.1761
 2840TIP3    H2 8464   5.507   2.127   2.514 -0.6101 -1.5386 -2.7343
 2841TIP3   OH2 8465   5.151   1.268   3.393  0.3150  0.4858 -0.2813
 2841TIP3    H1 8466   5.146   1.196   3.331 -1.5944 -0.7753  1.3055
 2841TIP3    H2 8467   5.169   1.226   3.477  1.2830  2.0504  0.3240
 2842TIP3   OH2 8468   3.073   3.069   4.691  0.5504  0.2955  0.6821
 2842TIP3    H1 8469   3.166   3.062   4.713  0.7892  1.5595  0.0891
 2842TIP3    H2 8470   3.070   3.127   4.615 -0.4568 -2.1834 -1.2858
 2843TIP3   OH2 8471   2.477   3.129   3.419 -0.6596 -0.4736 -0.7270
 2843TIP3    H1 8472   2.395   3.082   3.432 -1.9848  1.2243 -2.5743
 2843TIP3    H2 8473   2.461   3.184   3.342  1.4185  1.6505  0.2910
 2844TIP3   OH2 8474   6.013   0.781   4.234 -0.0244 -0.0775 -0.1017
 2844TIP3    H1 8475   5.943   0.824   4.283  1.4174 -0.0529  1.9866
 2844TIP3    H2 8476   6.094   0.816   4.271  1.1541 -2.7384 -0.0183
 2845TIP3   OH2 8477   1.922   0.645   0.965  0.3323 -0.4083 -0.1160
 2845TIP3    H1 8478   2.011   0.670   0.992 -0.9138  1.6030  2.2663
 2845TIP3    H2 8479   1.885   0.604   1.042 -2.4567  3.1704  0.5688
 2846TIP3   OH2 8480   1.059   2.170   1.395  0.5371  0.1252 -0.1436
 2846TIP3    H1 8481   1.148   2.143   1.420  0.3954  0.3002  0.5659
 2846TIP3    H2 8482   1.030   2.226   1.467 -0.0298  0.3331 -0.5273
 2847TIP3   OH2 8483   3.614   2.932   1.316  0.0232 -0.2383  0.0555
 2847TIP3    H1 8484   3.662   3.010   1.287  1.4159 -1.2220 -0.3387
 2847TIP3    H2 8485   3.673   2.859   1.299 -0.3792 -1.1869  2.4080
 2848TIP3   OH2 8486   0.977   7.761   5.033  0.1048  0.0186 -0.0692
 2848TIP3    H1 8487   1.036   7.738   4.962 -1.7831  0.2994 -1.7859
 2848TIP3    H2 8488   0.917   7.687   5.040  1.8633 -1.1949  3.0477
 2849TIP3   OH2 8489   5.877   4.387   3.095 -0.2691  0.4288  0.4116
 2849TIP3    H1 8490   5.849   4.463   3.045  0.8738  0.0557 -0.8448
 2849TIP3    H2 8491   5.821   4.386   3.172  0.7885  3.4726  1.2660
 2850TIP3   OH2 8492   3.089   3.108   3.034 -0.0636  0.0188  0.1782
 2850TIP3    H1 8493   3.113   3.035   2.977  0.7423  0.0192  0.5146
 2850TIP3    H2 8494   3.036   3.068   3.103 -0.5824 -0.0663 -0.2668
 2851TIP3   OH2 8495   6.884   5.917   4.159 -0.3634 -0.4174 -0.5740
 2851TIP3    H1 8496   6.822   5.855   4.120 -1.4771  0.2505  0.0891
 2851TIP3    H2 8497   6.886   5.991   4.098 -0.3529 -0.3726 -0.5206
 2852TIP3   OH2 8498   1.588   2.680   1.902  0.0626  0.2172 -0.0122
 2852TIP3    H1 8499   1.569   2.621   1.829  1.7289  0.8167 -0.9623
 2852TIP3    H2 8500   1.507   2.731   1.913 -0.5564 -0.5896 -0.7370
 2853TIP3   OH2 8501   4.601   2.082   3.903 -0.0132  0.4296 -0.2390
 2853TIP3    H1 8502   4.542   2.102   3.831  2.6880  0.2993 -2.5572
 2853TIP3    H2 8503   4.639   2.167   3.928  0.6749  0.1770 -0.4190
 2854TIP3   OH2 8504   1.990   4.260   2.787 -0.2953  0.0538  0.3796
 2854TIP3    H1 8505   1.979   4.309   2.869  0.1459  1.9952 -0.6854
 2854TIP3    H2 8506   1.901   4.248   2.754 -0.3635  0.7665  0.2982
 2855TIP3   OH2 8507   5.185   5.217   4.331  0.1571  0.1050 -0.0183
 2855TIP3    H1 8508   5.166   5.304   4.367  0.8026  0.8872 -1.5024
 2855TIP3    H2 8509   5.128   5.211   4.254  1.0301 -0.2470 -0.6484
 2856TIP3   OH2 8510   3.435   4.782   0.981 -0.4040 -0.1836  0.2488
 2856TIP3    H1 8511   3.378   4.787   1.058 -0.9424 -3.2244  0.1447
 2856TIP3    H2 8512   3.521   4.759   1.016  0.0208  1.1905  0.1399
 2857TIP3   OH2 8513   3.993   3.834   2.165 -0.1054  0.6236 -0.1070
 2857TIP3    H1 8514   3.960   3.872   2.083 -0.2742 -1.0063 -0.8133
 2857TIP3    H2 8515   3.957   3.890   2.234 -2.4556  0.2554 -0.9869
 2858TIP3   OH2 8516   2.928   0.760   4.308  0.0888  0.1781 -0.5824
 2858TIP3    H1 8517   2.920   0.804   4.224  2.6800 -0.4509 -1.2143
 2858TIP3    H2 8518   2.938   0.667   4.285 -1.8001 -0.3320  0.5599
 2859TIP3   OH2 8519   2.481   3.672   1.572 -0.1060  0.0421  0.3133
 2859TIP3    H1 8520   2.454   3.649   1.661  0.0273 -0.9507  0.0940
 2859TIP3    H2 8521   2.532   3.753   1.584  4.1750 -2.7305  1.7633
 2860TIP3   OH2 8522   2.739   3.797   2.938  0.1675 -0.4821  0.6372
 2860TIP3    H1 8523   2.784   3.728   2.890 -0.6371 -1.2105  0.9075
 2860TIP3    H2 8524   2.705   3.754   3.016 -0.9882  0.0454  0.4410
 2861TIP3   OH2 8525   1.955   2.526   4.996  0.0596  0.4342 -0.0091
 2861TIP3    H1 8526   1.879   2.479   5.031 -0.3606  0.5222 -0.7920
 2861TIP3    H2 8527   1.998   2.462   4.939  1.4913 -0.1429  1.6658
 2862TIP3   OH2 8528   1.186   7.480   2.965  0.2191 -0.1917 -0.0903
 2862TIP3    H1 8529   1.113   7.527   3.005 -1.6986 -2.0335 -1.3474
 2862TIP3    H2 8530   1.185   7.394   3.007  1.0717 -0.5540 -0.7953
 2863TIP3   OH2 8531   3.642   3.556   4.420  0.5223  0.2460  0.0519
 2863TIP3    H1 8532   3.660   3.464   4.400 -0.0825 -0.0020  0.5949
 2863TIP3    H2 8533   3.553   3.570   4.388  1.1866  1.0923 -1.4606
 2864TIP3   OH2 8534   2.131   4.344   2.339  0.3448 -0.2346  0.2344
 2864TIP3    H1 8535   2.219   4.348   2.301 -0.8607  1.2963 -2.4948
 2864TIP3    H2 8536   2.142   4.378   2.428  2.4031  0.5552 -0.2935
 2865TIP3   OH2 8537   6.868   1.290   3.452 -0.2513  0.0778  0.1268
 2865TIP3    H1 8538   6.843   1.222   3.390 -0.5085  0.0684  0.2411
 2865TIP3    H2 8539   6.905   1.359   3.398  0.4480 -0.3532  0.0547
 2866TIP3   OH2 8540   4.399   1.867   3.125 -0.3329  0.0245 -0.1835
 2866TIP3    H1 8541   4.310   1.878   3.092  0.2226 -1.4219 -2.2639
 2866TIP3    H2 8542   4.430   1.956   3.143 -1.3257  0.6969 -1.7775
 2867TIP3   OH2 8543   2.906   2.348   3.210 -0.1687  0.1850  0.2598
 2867TIP3    H1 8544   2.948   2.282   3.155 -1.5252 -0.3460 -0.1497
 2867TIP3    H2 8545   2.978   2.408   3.234  0.9998 -1.2386  0.3723
 2868TIP3   OH2 8546   4.443   1.033   3.472  0.1796  0.1405  0.3369
 2868TIP3    H1 8547   4.364   0.996   3.433  0.6948 -1.6864  0.9732
 2868TIP3    H2 8548   4.460   1.112   3.422 -2.1208  0.6165  0.2643
 2869TIP3   OH2 8549   3.340   2.566   4.832  0.1439 -0.2531 -0.1460
 2869TIP3    H1 8550   3.389   2.614   4.764 -0.6949 -0.0475 -0.6064
 2869TIP3    H2 8551   3.393   2.488   4.849  0.8751  0.1997 -0.3058
 2870TIP3   OH2 8552   3.103   2.339   4.425 -0.8484 -0.0377  0.0655
 2870TIP3    H1 8553   3.007   2.332   4.428 -0.8587 -1.9312 -2.7777
 2870TIP3    H2 8554   3.132   2.297   4.506 -2.3699 -1.9176 -0.3127
 2871TIP3   OH2 8555   1.700   6.844   2.418  0.2666  0.0713 -0.7056
 2871TIP3    H1 8556   1.769   6.795   2.465  1.5587  1.3881 -1.1980
 2871TIP3    H2 8557   1.665   6.781   2.355 -1.1037 -1.5530  1.5988
 2872TIP3   OH2 8558   2.635   1.467   2.675 -0.1095  0.2837 -0.4116
 2872TIP3    H1 8559   2.654   1.393   2.732  0.4599 -0.3382 -1.4105
 2872TIP3    H2 8560   2.558   1.509   2.715  0.6709  0.2311  1.1691
 2873TIP3   OH2 8561   4.004   0.772   1.370 -0.1958  0.0142  0.6635
 2873TIP3    H1 8562   4.019   0.728   1.453  0.1977  0.3012  0.7463
 2873TIP3    H2 8563   3.914   0.804   1.375  0.3343  1.3973  1.6209
 2874TIP3   OH2 8564   1.753   3.655   0.400  0.0009 -0.6564  0.4542
 2874TIP3    H1 8565   1.836   3.610   0.416 -0.2060 -0.5457  1.9382
 2874TIP3    H2 8566   1.776   3.726   0.340  1.4962  0.9113  2.7852
 2875TIP3   OH2 8567   1.288   0.775   3.805 -0.1118  0.0586 -0.2358
 2875TIP3    H1 8568   1.305   0.798   3.897  0.6297  0.3733 -0.4496
 2875TIP3    H2 8569   1.254   0.855   3.766 -1.7331 -0.4570  0.0903
 2876TIP3   OH2 8570   4.301   3.904   2.176  0.0273  0.2820 -0.5199
 2876TIP3    H1 8571   4.305   3.939   2.264  1.3100  2.6482 -1.4873
 2876TIP3    H2 8572   4.208   3.910   2.152 -0.2451  0.0866  0.4591
 2877TIP3   OH2 8573   4.235   4.239   3.420 -0.1039  0.8589 -0.5551
 2877TIP3    H1 8574   4.190   4.249   3.337  0.3137 -0.5593 -0.9713
 2877TIP3    H2 8575   4.184   4.292   3.482 -1.4946  0.4550 -1.3255
 2878TIP3   OH2 8576   5.645   2.833   3.791 -0.1110 -0.1069  0.4219
 2878TIP3    H1 8577   5.632   2.908   3.733 -1.1325 -2.5821 -2.6931
 2878TIP3    H2 8578   5.691   2.769   3.737  0.0922 -2.0022  2.7847
 2879TIP3   OH2 8579   5.118   4.968   2.578 -0.3527 -0.3931  0.2659
 2879TIP3    H1 8580   5.118   5.050   2.627 -1.9143  0.8139 -1.6693
 2879TIP3    H2 8581   5.028   4.936   2.584  0.2456 -1.9599  0.9930
 2880TIP3   OH2 8582   5.880   3.957   2.559  0.0760  0.2495 -0.6894
 2880TIP3    H1 8583   5.974   3.959   2.575  0.2537  1.0205 -1.7815
 2880TIP3    H2 8584   5.846   4.030   2.609 -0.0129 -0.3090  0.0792
 2881TIP3   OH2 8585   3.324   2.551   3.529 -0.4321 -0.0032  0.1062
 2881TIP3    H1 8586   3.419   2.539   3.537 -0.3538  0.8127  0.4239
 2881TIP3    H2 8587   3.287   2.476   3.576  0.0478 -1.0111 -1.0927
 2882TIP3   OH2 8588   4.689   1.482   3.641  0.4424  0.2335 -0.1157
 2882TIP3    H1 8589   4.774   1.439   3.629  0.8048  0.5337  1.3067
 2882TIP3    H2 8590   4.641   1.422   3.699 -0.6208 -0.3381 -1.5724
 2883TIP3   OH2 8591   4.719   4.315   1.273  0.1931  0.1105  0.4423
 2883TIP3    H1 8592   4.717   4.330   1.368  1.6192  1.3846  0.3068
 2883TIP3    H2 8593   4.804   4.275   1.257 -0.2723 -0.6149 -0.2415
 2884TIP3   OH2 8594   5.065   2.367   1.555 -0.0889  0.0516 -0.3025
 2884TIP3    H1 8595   5.085   2.283   1.513  0.3228 -0.2344  0.4737
 2884TIP3    H2 8596   5.128   2.428   1.517  0.4760 -0.2696  0.1288
 2885TIP3   OH2 8597   3.677   1.141   0.515 -0.2917  0.1981  0.0656
 2885TIP3    H1 8598   3.663   1.156   0.421  0.6939  0.6203 -0.0234
 2885TIP3    H2 8599   3.716   1.223   0.546 -1.3412  0.3512  1.0128
 2886TIP3   OH2 8600   4.324   3.993   3.500  0.4582  0.6003 -0.7893
 2886TIP3    H1 8601   4.298   4.072   3.454 -0.4697  0.6766 -0.1357
 2886TIP3    H2 8602   4.271   3.924   3.460 -1.1380  0.8345  0.8816
 2887TIP3   OH2 8603   8.040   4.343   2.225  0.4813 -0.1586  0.3989
 2887TIP3    H1 8604   7.981   4.412   2.256  2.0007  2.5898 -2.5667
 2887TIP3    H2 8605   7.982   4.273   2.195 -1.2358  1.4626 -0.1531
 2888TIP3   OH2 8606   4.493   2.667   3.813 -0.6547 -0.2969  0.5897
 2888TIP3    H1 8607   4.434   2.636   3.881 -0.4310  0.3176  1.0754
 2888TIP3    H2 8608   4.573   2.691   3.861  0.6377 -2.7448 -0.2538
 2889TIP3   OH2 8609   5.753   0.884   2.472  0.3806  0.0947 -0.1562
 2889TIP3    H1 8610   5.813   0.925   2.535 -0.3983 -0.7730  1.1941
 2889TIP3    H2 8611   5.671   0.932   2.483 -0.5219 -1.6950  1.3963
 2890TIP3   OH2 8612   6.000   1.626   4.039  0.5793 -0.3362  0.1254
 2890TIP3    H1 8613   6.088   1.632   4.000  0.2005 -0.9267 -0.8495
 2890TIP3    H2 8614   5.946   1.588   3.970  0.1213 -2.4951  1.6211
 2891TIP3   OH2 8615   6.293   1.984   4.652 -0.2170  0.0332  0.2206
 2891TIP3    H1 8616   6.332   1.899   4.669 -1.5917 -0.6125  0.1806
 2891TIP3    H2 8617   6.338   2.015   4.573 -0.6444 -1.2537 -0.5487
 2892TIP3   OH2 8618   4.553   0.644   2.551  0.3778  0.1138 -0.2739
 2892TIP3    H1 8619   4.474   0.679   2.590  0.5623  0.8348 -0.5465
 2892TIP3    H2 8620   4.553   0.677   2.461 -0.3225 -1.9568 -1.0734
 2893TIP3   OH2 8621   7.590   2.086   1.643 -0.1549  0.5609  0.5314
 2893TIP3    H1 8622   7.534   2.077   1.566  0.5858  1.2764 -0.1118
 2893TIP3    H2 8623   7.540   2.047   1.714 -0.0395 -1.9074 -0.6966
 2894TIP3   OH2 8624   8.171   3.208   2.701  0.0174  0.3171 -0.0889
 2894TIP3    H1 8625   8.139   3.194   2.612  1.1623 -1.8787 -0.1677
 2894TIP3    H2 8626   8.266   3.200   2.695  0.0482 -0.7062  1.4760
 2895TIP3   OH2 8627   3.762   2.306   1.761 -0.1317 -0.3911 -1.0503
 2895TIP3    H1 8628   3.847   2.304   1.806 -0.9462 -2.3885  0.5104
 2895TIP3    H2 8629   3.720   2.385   1.793  1.1108  0.5650 -1.7653
 2896TIP3   OH2 8630   8.378   4.614   1.370  0.1234  0.5910 -1.0755
 2896TIP3    H1 8631   8.372   4.698   1.324 -1.9811  0.8398 -0.4333
 2896TIP3    H2 8632   8.302   4.614   1.428  1.3280 -0.8203  0.5365
 2897TIP3   OH2 8633   4.171   3.799   1.067 -0.1751  0.4909 -0.3317
 2897TIP3    H1 8634   4.089   3.802   1.114  0.5044  0.7093  0.8509
 2897TIP3    H2 8635   4.203   3.709   1.078  0.2248  0.6763  0.0467
 2898TIP3   OH2 8636   5.015   2.710   2.828 -0.0636 -0.1372 -0.3443
 2898TIP3    H1 8637   4.946   2.756   2.876  0.6482  0.9563 -0.3502
 2898TIP3    H2 8638   5.036   2.635   2.882  0.2049  0.6727  0.6837
 2899TIP3   OH2 8639   3.697   5.111   3.195 -0.0896 -0.4668  0.5359
 2899TIP3    H1 8640   3.629   5.135   3.131 -0.3311  1.0425  1.3439
 2899TIP3    H2 8641   3.775   5.095   3.142 -0.4476  0.1433 -0.1863
 2900TIP3   OH2 8642   2.838   3.233   4.324  0.1191  0.0270  0.3352
 2900TIP3    H1 8643   2.846   3.201   4.414 -1.0006 -0.4562  0.2697
 2900TIP3    H2 8644   2.885   3.317   4.325  1.8044 -0.8851  0.8620
 2901TIP3   OH2 8645   4.119   4.782   2.011 -0.7780 -0.3819  0.2504
 2901TIP3    H1 8646   4.204   4.824   1.999 -0.5852 -1.0001 -0.6087
 2901TIP3    H2 8647   4.064   4.818   1.941 -1.5962  0.9373  1.5384
 2902TIP3   OH2 8648   5.381   4.942   1.387  0.0214  0.1906  0.0463
 2902TIP3    H1 8649   5.347   4.857   1.357 -2.2906  0.5495  1.5191
 2902TIP3    H2 8650   5.417   4.923   1.474 -1.0472  0.8229  0.6335
 2903TIP3   OH2 8651   8.170   0.627   3.159  0.3976 -0.7486  0.3598
 2903TIP3    H1 8652   8.114   0.563   3.115 -1.2136  0.2591  0.8836
 2903TIP3    H2 8653   8.128   0.712   3.140  1.8901  0.0412  0.5600
 2904TIP3   OH2 8654   5.905   0.997   3.140 -0.5913 -0.3450 -0.0979
 2904TIP3    H1 8655   5.843   0.965   3.074 -0.8037 -1.0864  0.4546
 2904TIP3    H2 8656   5.851   1.037   3.207 -0.4316 -0.4258  0.0791
 2905TIP3   OH2 8657   4.845   3.531   3.466 -0.1143  0.9342  0.1868
 2905TIP3    H1 8658   4.940   3.520   3.473  0.2279  2.4119 -1.8179
 2905TIP3    H2 8659   4.831   3.625   3.470 -1.5274  0.7054  0.7756
 2906TIP3   OH2 8660   3.449   4.392   1.732 -0.6696 -0.0483  0.2316
 2906TIP3    H1 8661   3.509   4.368   1.661 -0.0085 -4.2653  2.0904
 2906TIP3    H2 8662   3.506   4.419   1.804 -1.1178 -0.9106  0.9142
 2907TIP3   OH2 8663   4.639   2.762   4.019  0.6939  0.4294  0.5021
 2907TIP3    H1 8664   4.582   2.735   4.091 -0.6537  0.6954 -0.4392
 2907TIP3    H2 8665   4.710   2.697   4.019  0.8940  0.6108  2.2520
 2908TIP3   OH2 8666   5.262   2.374   3.529  0.4444  0.1866 -0.1783
 2908TIP3    H1 8667   5.237   2.467   3.532 -1.4862 -0.2212 -2.3012
 2908TIP3    H2 8668   5.219   2.335   3.605  0.0131  0.7485 -0.1343
 2909TIP3   OH2 8669   0.312   4.086   0.307  0.2981  0.0402 -0.1995
 2909TIP3    H1 8670   0.294   4.047   0.392 -0.2526 -2.5019 -1.4279
 2909TIP3    H2 8671   0.382   4.148   0.323  1.7785 -2.0617  1.7354
 2910TIP3   OH2 8672   4.096   7.007   2.541 -0.3683 -0.2066  0.3149
 2910TIP3    H1 8673   4.048   7.013   2.623 -3.7449 -0.4931 -1.5370
 2910TIP3    H2 8674   4.069   7.085   2.491  1.9353  0.1872 -0.4212
 2911TIP3   OH2 8675   3.266   1.725   1.906 -0.4668 -0.1084  0.2455
 2911TIP3    H1 8676   3.317   1.645   1.895  0.6427  0.9680 -2.7272
 2911TIP3    H2 8677   3.331   1.793   1.924 -1.0399  0.8406 -1.2179
 2912TIP3   OH2 8678   3.643   3.477   2.232 -0.0053  0.4129 -0.2972
 2912TIP3    H1 8679   3.550   3.483   2.208  0.2056 -0.4296 -1.3295
 2912TIP3    H2 8680   3.685   3.436   2.157  1.2094  0.7665  0.1796
 2913TIP3   OH2 8681   5.055   1.899   2.645  0.4042 -0.0024  0.0378
 2913TIP3    H1 8682   5.097   1.954   2.711  0.1376 -0.4476  0.5854
 2913TIP3    H2 8683   5.053   1.812   2.684 -1.4838  0.1049  0.2364
 2914TIP3   OH2 8684   3.484   2.783   1.943 -0.4275  0.0927  0.3411
 2914TIP3    H1 8685   3.559   2.835   1.971 -0.7968  0.2909  0.9743
 2914TIP3    H2 8686   3.457   2.822   1.860  1.3823 -1.2100 -0.9233
 2915TIP3   OH2 8687   4.788   2.252   2.619  0.1400 -0.5698  0.2288
 2915TIP3    H1 8688   4.849   2.241   2.691  1.0004  0.0556 -0.3880
 2915TIP3    H2 8689   4.829   2.207   2.545  1.7872  3.1550 -1.2469
 2916TIP3   OH2 8690   4.729   3.968   2.838  0.0751  0.1090 -0.1787
 2916TIP3    H1 8691   4.723   4.061   2.858 -0.5166  0.4138 -1.6679
 2916TIP3    H2 8692   4.817   3.942   2.866  0.7303  1.4272 -0.9886
 2917TIP3   OH2 8693   4.836   4.559   2.304 -0.1979  0.1494 -0.5497
 2917TIP3    H1 8694   4.741   4.545   2.308 -0.2205  0.6247  0.5565
 2917TIP3    H2 8695   4.868   4.539   2.392  0.9054 -1.1548 -1.2090
 2918TIP3   OH2 8696   7.778   1.427   1.857  0.0024 -0.4332  0.8750
 2918TIP3    H1 8697   7.782   1.333   1.838 -0.1072 -0.1597 -0.5645
 2918TIP3    H2 8698   7.863   1.447   1.895  0.3762 -0.9466  0.3293
 2919TIP3   OH2 8699   3.603   3.612   1.276 -0.5387 -0.0132  0.0105
 2919TIP3    H1 8700   3.538   3.668   1.234  1.3334  4.4259  2.5424
 2919TIP3    H2 8701   3.668   3.595   1.208  0.0015  2.9492 -0.3082
 2920TIP3   OH2 8702   3.245   1.913   4.146 -0.0712 -0.2894  0.2345
 2920TIP3    H1 8703   3.230   1.827   4.106  1.1740 -1.1651  1.5704
 2920TIP3    H2 8704   3.172   1.926   4.205  0.5500 -1.1527  1.1983
 2921TIP3   OH2 8705   4.984   2.097   2.901  0.0086 -0.4119 -0.2189
 2921TIP3    H1 8706   4.911   2.036   2.900  0.2163 -0.6614 -0.3057
 2921TIP3    H2 8707   5.062   2.041   2.894  0.1031  0.0379 -3.0136
 2922TIP3   OH2 8708   7.219   0.389   1.760 -0.1931  0.1028 -0.7367
 2922TIP3    H1 8709   7.239   0.468   1.809  0.1388  0.0468 -0.7833
 2922TIP3    H2 8710   7.205   0.419   1.670  1.5969 -0.0962 -1.1034
 2923TIP3   OH2 8711   3.219   4.564   1.674  0.4438  0.4514  0.3597
 2923TIP3    H1 8712   3.248   4.595   1.588 -2.3405 -0.4923 -0.9876
 2923TIP3    H2 8713   3.293   4.515   1.708  1.5300  0.6688 -1.5838
 2924TIP3   OH2 8714   4.771   2.354   1.566  0.3244 -0.1853  0.2915
 2924TIP3    H1 8715   4.863   2.363   1.544 -0.1738  1.4071 -1.3157
 2924TIP3    H2 8716   4.741   2.444   1.581 -1.7547 -0.2504 -2.8068
 2925TIP3   OH2 8717   5.799   2.324   4.527  0.0066 -0.2448 -0.1518
 2925TIP3    H1 8718   5.824   2.299   4.438  2.2039  1.0234  0.0702
 2925TIP3    H2 8719   5.809   2.419   4.529 -0.2494 -0.2300  1.3841
 2926TIP3   OH2 8720   5.613   3.453   2.137  0.5854 -0.5714  0.9716
 2926TIP3    H1 8721   5.650   3.366   2.150  1.1093 -0.3751  0.8151
 2926TIP3    H2 8722   5.594   3.457   2.044  1.6607 -0.0972  0.7574
 2927TIP3   OH2 8723   4.625   3.911   1.854 -0.2721  0.2375  0.0904
 2927TIP3    H1 8724   4.534   3.885   1.862 -0.1997 -0.3694 -0.9795
 2927TIP3    H2 8725   4.644   3.957   1.935 -1.1726 -0.7292  0.8651
 2928TIP3   OH2 8726   6.429   4.662   3.225  0.2536  0.0472  0.0789
 2928TIP3    H1 8727   6.427   4.754   3.250 -0.8100 -0.5610  2.4392
 2928TIP3    H2 8728   6.480   4.619   3.294  0.1940 -1.2221 -0.6360
 2929TIP3   OH2 8729   6.586   5.570   2.338  1.0161  0.9161 -0.4190
 2929TIP3    H1 8730   6.555   5.644   2.286 -1.0827 -0.4724 -1.1928
 2929TIP3    H2 8731   6.629   5.512   2.275 -1.0569 -0.5079 -0.5987
 2930TIP3   OH2 8732   0.566   6.501   6.582  0.1345 -0.2514 -0.0280
 2930TIP3    H1 8733   0.540   6.566   6.517 -0.5375 -0.6713 -0.1934
 2930TIP3    H2 8734   0.606   6.552   6.653 -0.1072  0.3087 -0.2908
 2931TIP3   OH2 8735   5.796   5.075   2.436 -0.1742 -0.0838  1.1565
 2931TIP3    H1 8736   5.812   5.031   2.353  0.4176  0.4631  0.9734
 2931TIP3    H2 8737   5.791   5.004   2.501 -1.6283 -0.5745  0.5083
 2932TIP3   OH2 8738   5.060   2.870   4.370 -0.4574 -0.1303 -0.4426
 2932TIP3    H1 8739   4.994   2.917   4.421  1.2477  1.6461  0.2036
 2932TIP3    H2 8740   5.102   2.811   4.433  1.3682  1.7685  0.2070
 2933TIP3   OH2 8741   5.447   1.328   3.227 -0.0797 -0.1700  0.4193
 2933TIP3    H1 8742   5.397   1.410   3.234 -1.6099 -0.9756 -0.7289
 2933TIP3    H2 8743   5.382   1.263   3.201  0.9505 -1.9340  2.1409
 2934TIP3   OH2 8744   6.424   1.899   2.656 -0.2313 -0.0119  0.3271
 2934TIP3    H1 8745   6.368   1.834   2.614  1.0845 -0.8426 -0.1731
 2934TIP3    H2 8746   6.404   1.981   2.611  0.7903 -0.7853 -1.5842
 2935TIP3   OH2 8747   4.698   0.443   3.629 -0.5460 -0.7658  0.0679
 2935TIP3    H1 8748   4.639   0.411   3.697 -2.1363  0.9853 -0.4335
 2935TIP3    H2 8749   4.730   0.527   3.663 -0.9937 -0.1012 -1.1255
 2936TIP3   OH2 8750   7.174   1.058   3.303  0.6933  0.0647  0.1630
 2936TIP3    H1 8751   7.144   1.149   3.308  0.1852 -0.1217  0.5754
 2936TIP3    H2 8752   7.199   1.046   3.211 -0.3667  0.2731 -0.1642
 2937TIP3   OH2 8753   7.471   1.281   1.769 -0.6179  0.1690 -0.8877
 2937TIP3    H1 8754   7.453   1.351   1.831 -0.7781 -1.0956  0.5164
 2937TIP3    H2 8755   7.393   1.277   1.713 -0.6468  1.0232 -0.9187
 2938TIP3   OH2 8756   4.609   3.084   3.603 -0.2689 -0.2788 -0.6115
 2938TIP3    H1 8757   4.518   3.069   3.628 -0.5171  1.1674 -0.6093
 2938TIP3    H2 8758   4.657   3.013   3.645 -1.1497  0.0190  0.9615
 2939TIP3   OH2 8759   4.608   3.321   3.184 -0.0045 -0.1953 -0.7808
 2939TIP3    H1 8760   4.635   3.235   3.151  0.6245  0.2210 -1.3433
 2939TIP3    H2 8761   4.684   3.353   3.233 -0.3004 -0.0303 -0.4266
 2940TIP3   OH2 8762   4.324   3.952   3.759  0.7802 -0.4533 -0.2160
 2940TIP3    H1 8763   4.413   3.943   3.791  0.0406  0.0576  2.0859
 2940TIP3    H2 8764   4.333   3.995   3.674  2.7945 -1.8463 -0.7409
 2941TIP3   OH2 8765   5.071   3.434   2.640 -0.8743  0.3453  0.1334
 2941TIP3    H1 8766   5.091   3.489   2.565  0.1646  0.4204  0.4618
 2941TIP3    H2 8767   5.072   3.494   2.715  0.2948 -0.1037  0.4969
 2942TIP3   OH2 8768   5.303   3.797   2.686 -0.3168  0.3894  0.4069
 2942TIP3    H1 8769   5.243   3.731   2.721  2.3689 -1.9651  0.7117
 2942TIP3    H2 8770   5.339   3.840   2.763  0.4383 -0.0934  0.3297
 2943TIP3   OH2 8771   4.982   2.970   3.348 -0.0536  0.3607 -0.8032
 2943TIP3    H1 8772   4.948   2.924   3.425 -1.2243  2.3977 -0.0776
 2943TIP3    H2 8773   5.070   2.934   3.335 -0.9215 -2.0443 -0.2511
 2944TIP3   OH2 8774   5.759   1.017   2.228 -0.7530  0.1602  0.2804
 2944TIP3    H1 8775   5.733   0.947   2.288 -1.2140 -0.3346 -0.4882
 2944TIP3    H2 8776   5.852   1.032   2.247 -0.5049 -1.0521  0.0583
 2945TIP3   OH2 8777   3.042   1.970   3.768 -0.1625  0.4514  0.0339
 2945TIP3    H1 8778   3.057   1.901   3.703 -1.5852  0.2750 -0.1265
 2945TIP3    H2 8779   3.084   1.937   3.848  1.6011  0.6805 -0.7842
 2946TIP3   OH2 8780   4.218   3.019   1.850  0.1239  0.0618  0.0201
 2946TIP3    H1 8781   4.207   2.936   1.805  0.4862 -0.6486  1.2122
 2946TIP3    H2 8782   4.263   3.075   1.787 -1.9261  0.0142 -1.5268
 2947TIP3   OH2 8783   7.493   0.175   3.172  0.1754 -0.0726  0.2337
 2947TIP3    H1 8784   7.425   0.239   3.193 -1.1594 -0.6722 -2.0934
 2947TIP3    H2 8785   7.498   0.175   3.077  1.5088 -2.0368  0.2693
 2948TIP3   OH2 8786   3.163   0.826   2.602 -0.5533  0.4958  0.0134
 2948TIP3    H1 8787   3.108   0.888   2.651 -1.5655  0.1719 -0.7157
 2948TIP3    H2 8788   3.164   0.747   2.656  0.0975  0.8656  0.5579
 2949TIP3   OH2 8789   4.898   0.985   2.979  0.4132  0.2776 -0.0729
 2949TIP3    H1 8790   4.936   0.963   2.894  0.3899 -0.1174  0.0212
 2949TIP3    H2 8791   4.956   0.945   3.043 -0.2694 -0.5033  0.0681
 2950TIP3   OH2 8792   6.182   6.027   3.440 -0.0594  0.4427 -0.1982
 2950TIP3    H1 8793   6.238   5.950   3.450  0.3856  0.8539  0.5722
 2950TIP3    H2 8794   6.223   6.093   3.496 -1.5905  0.5954  0.7847
 2951TIP3   OH2 8795   5.120   2.459   4.321  0.0679  0.2740 -0.1028
 2951TIP3    H1 8796   5.049   2.464   4.258  0.6231  0.8432 -0.7024
 2951TIP3    H2 8797   5.197   2.489   4.272  0.5633  0.4191  0.7553
 2952TIP3   OH2 8798   6.825   1.571   2.043  0.4634 -0.2415 -0.5252
 2952TIP3    H1 8799   6.758   1.611   2.100  1.4141  1.2095 -0.3930
 2952TIP3    H2 8800   6.790   1.485   2.022 -0.9140  0.0428  0.5027
 2953TIP3   OH2 8801   6.664   2.317   0.460 -0.0690 -0.5510 -0.8223
 2953TIP3    H1 8802   6.718   2.369   0.400 -1.2257  1.7794  0.1151
 2953TIP3    H2 8803   6.685   2.351   0.547 -2.3620 -0.2094 -0.3670
 2954TIP3   OH2 8804   5.773   1.686   4.539 -0.3915 -0.0947  0.4153
 2954TIP3    H1 8805   5.751   1.611   4.484 -0.0393 -0.5155  0.8461
 2954TIP3    H2 8806   5.730   1.669   4.623 -1.1510  0.6753  0.1938
 2955TIP3   OH2 8807   4.268   2.983   2.134 -0.5632 -0.1412  0.1900
 2955TIP3    H1 8808   4.192   3.032   2.164 -1.0929 -0.9902  0.2563
 2955TIP3    H2 8809   4.263   2.986   2.039  0.3906  1.4305  0.1686
 2956TIP3   OH2 8810   4.535   2.593   1.759 -0.0887 -0.3231 -0.0841
 2956TIP3    H1 8811   4.470   2.568   1.694 -0.1425 -0.0673 -0.1284
 2956TIP3    H2 8812   4.612   2.618   1.708  0.0087 -0.5270 -0.0355
 2957TIP3   OH2 8813   5.578   3.925   3.220 -0.0339 -0.4267 -0.0381
 2957TIP3    H1 8814   5.663   3.944   3.259 -0.4686  1.9743 -0.2000
 2957TIP3    H2 8815   5.525   4.001   3.240 -1.3970 -0.7953 -2.1063
 2958TIP3   OH2 8816   4.101   1.097   2.512  0.6866 -0.2859 -0.2376
 2958TIP3    H1 8817   4.035   1.061   2.453  0.5571 -1.4525  0.5949
 2958TIP3    H2 8818   4.068   1.184   2.534 -0.1493 -0.5273 -0.5034
 2959TIP3   OH2 8819   4.291   7.055   1.849 -0.2971 -0.1705 -0.0548
 2959TIP3    H1 8820   4.292   6.980   1.790 -1.2246 -0.0674 -0.2082
 2959TIP3    H2 8821   4.236   7.026   1.922  0.9489 -0.3497  0.8312
 2960TIP3   OH2 8822   4.013   2.848   4.625  0.0338 -0.0575 -0.1328
 2960TIP3    H1 8823   3.993   2.761   4.590  0.1830  0.1320 -0.6943
 2960TIP3    H2 8824   3.929   2.895   4.622  0.2359  0.2524 -1.0907
 2961TIP3   OH2 8825   5.812   1.550   1.971  0.1497  0.0677 -0.1925
 2961TIP3    H1 8826   5.755   1.626   1.957  0.4070  0.4055  0.5665
 2961TIP3    H2 8827   5.858   1.569   2.052  1.7667  0.0366 -1.0855
 2962TIP3   OH2 8828   6.031   1.883   2.279  0.1383  0.3347 -0.4675
 2962TIP3    H1 8829   5.996   1.941   2.211 -2.0005 -3.0600 -2.3571
 2962TIP3    H2 8830   5.962   1.880   2.345  0.3253  0.0168 -0.2884
 2963TIP3   OH2 8831   3.868   5.398   3.708  0.2870 -0.3928  0.2093
 2963TIP3    H1 8832   3.885   5.322   3.652  1.8114  0.5714 -0.6870
 2963TIP3    H2 8833   3.840   5.361   3.791  0.1497 -1.9133 -0.4983
 2964TIP3   OH2 8834   3.515   3.204   2.570 -0.4824 -0.1792 -0.2981
 2964TIP3    H1 8835   3.580   3.264   2.534 -0.5464 -0.9597 -1.7773
 2964TIP3    H2 8836   3.560   3.119   2.575 -0.4807 -0.0778  1.4894
 2965TIP3   OH2 8837   6.290   5.133   2.712 -0.5331 -0.8476  0.0251
 2965TIP3    H1 8838   6.291   5.213   2.765  0.7570 -0.0289 -1.2010
 2965TIP3    H2 8839   6.275   5.164   2.623  0.1829 -1.9465 -0.4859
 2966TIP3   OH2 8840   5.806   1.895   2.409  0.1517  0.2711  0.1069
 2966TIP3    H1 8841   5.712   1.890   2.392  0.1740  0.4960 -0.0765
 2966TIP3    H2 8842   5.814   1.955   2.483  0.2474  1.2619 -0.6910
 2967TIP3   OH2 8843   5.761   3.581   2.341 -0.0286  0.4554 -0.6096
 2967TIP3    H1 8844   5.708   3.577   2.421 -0.3267 -1.9860 -0.8899
 2967TIP3    H2 8845   5.699   3.563   2.271  0.6349  0.4821 -1.2044
 2968TIP3   OH2 8846   6.976   3.342   1.255  0.4850  0.4400  0.4082
 2968TIP3    H1 8847   6.922   3.367   1.180 -1.5667  0.8081  1.9464
 2968TIP3    H2 8848   6.990   3.248   1.244  2.3601  0.9188 -1.7404
 2969TIP3   OH2 8849   6.256   2.853   0.421  0.2263  0.2958 -0.8123
 2969TIP3    H1 8850   6.265   2.823   0.511 -0.2580 -0.9061 -1.1561
 2969TIP3    H2 8851   6.203   2.933   0.427  0.2342  0.2403 -0.0406
 2970TIP3   OH2 8852   5.155   2.023   4.535 -0.1260 -0.1073 -0.4302
 2970TIP3    H1 8853   5.241   2.018   4.493  0.3982 -0.7422  0.7183
 2970TIP3    H2 8854   5.121   1.933   4.533 -0.0252 -0.1760  0.6582
 2971TIP3   OH2 8855   4.929   3.771   2.620 -0.2600  0.0678  0.0479
 2971TIP3    H1 8856   4.872   3.774   2.697  0.4177  0.9044  0.5287
 2971TIP3    H2 8857   4.880   3.719   2.556 -0.3924 -1.5181  1.3940
 2972TIP3   OH2 8858   3.507   5.265   2.331  0.0836 -0.0539  0.3352
 2972TIP3    H1 8859   3.562   5.224   2.265 -0.5293 -2.9234  1.5441
 2972TIP3    H2 8860   3.567   5.291   2.400  0.2625 -0.5568  0.3687
 2973TIP3   OH2 8861   2.592   3.634   1.807 -0.3557  0.3284  0.1894
 2973TIP3    H1 8862   2.602   3.627   1.901 -2.4357  0.4477  0.4428
 2973TIP3    H2 8863   2.681   3.651   1.774  0.1512  1.7993  2.2333
 2974TIP3   OH2 8864   5.146   6.118   2.694  0.2682 -0.3815  0.2524
 2974TIP3    H1 8865   5.230   6.093   2.732 -0.9650 -0.6736  2.8887
 2974TIP3    H2 8866   5.117   6.039   2.648  1.6825 -0.0851 -1.2034
 2975TIP3   OH2 8867   4.120   2.846   3.769 -0.3596  0.2824 -0.3553
 2975TIP3    H1 8868   4.082   2.929   3.740  1.3393  1.1331 -0.1743
 2975TIP3    H2 8869   4.092   2.782   3.703 -2.5574  0.7502  0.0636
 2976TIP3   OH2 8870   5.390   3.397   2.934  0.3602  0.8160 -0.2396
 2976TIP3    H1 8871   5.349   3.312   2.950  1.1991  0.3388 -0.5855
 2976TIP3    H2 8872   5.428   3.422   3.018  1.8930 -0.1263 -0.6320
 2977TIP3   OH2 8873   5.516   6.394   2.500  0.0062 -0.3539  0.1996
 2977TIP3    H1 8874   5.470   6.478   2.513  0.1726 -0.4715  1.5524
 2977TIP3    H2 8875   5.595   6.401   2.552 -0.8229 -2.0307  1.7329
 2978TIP3   OH2 8876   5.640   4.502   0.945 -0.1719  0.0941 -0.2325
 2978TIP3    H1 8877   5.700   4.545   0.884  0.1138 -0.2928 -0.2253
 2978TIP3    H2 8878   5.577   4.457   0.889  0.2640 -0.5035 -0.2461
 2979TIP3   OH2 8879   6.571   3.046   2.611  0.0760  0.0264  0.1075
 2979TIP3    H1 8880   6.588   2.955   2.589 -1.4279 -0.3259  0.3331
 2979TIP3    H2 8881   6.619   3.096   2.545  1.3613 -0.9100  0.3219
 2980TIP3   OH2 8882   6.141   4.975   5.735  0.2584  0.0983 -0.5249
 2980TIP3    H1 8883   6.065   4.918   5.745  1.3179 -1.1813  0.5569
 2980TIP3    H2 8884   6.127   5.044   5.800  0.2739 -0.4199  0.0321
 2981TIP3   OH2 8885   6.744   4.343   1.842  0.2040 -0.7476  0.2180
 2981TIP3    H1 8886   6.760   4.279   1.773  1.7424  1.3445 -1.4307
 2981TIP3    H2 8887   6.719   4.423   1.796  0.9565  0.6116  2.0879
 2982TIP3   OH2 8888   5.457   1.716   4.502  0.2496 -0.1030  0.3068
 2982TIP3    H1 8889   5.406   1.702   4.582  0.7215  0.7388  0.7546
 2982TIP3    H2 8890   5.548   1.706   4.529  0.4417  0.7792 -0.0004
 2983TIP3   OH2 8891   3.992   1.239   1.189  0.8303 -0.3474 -0.6596
 2983TIP3    H1 8892   4.043   1.319   1.201 -0.2504  0.4714 -1.4540
 2983TIP3    H2 8893   3.913   1.267   1.144 -0.9021 -1.4460  1.6416
 2984TIP3   OH2 8894   0.437   5.826   6.572 -0.2239 -0.3742 -0.2373
 2984TIP3    H1 8895   0.359   5.829   6.517 -0.7217 -0.5319  0.4630
 2984TIP3    H2 8896   0.487   5.752   6.537 -0.1329  0.0421 -1.0142
 2985TIP3   OH2 8897   3.350   2.319   3.057  0.2382 -0.1049  0.2497
 2985TIP3    H1 8898   3.277   2.373   3.025  1.4042  1.1079 -0.4236
 2985TIP3    H2 8899   3.310   2.259   3.119 -1.6838 -0.8121 -1.6020
 2986TIP3   OH2 8900   5.936   2.100   2.107 -0.3680 -0.2255 -0.4222
 2986TIP3    H1 8901   5.902   2.184   2.137 -3.6409 -1.2803 -0.9269
 2986TIP3    H2 8902   5.971   2.118   2.020 -0.5157  0.7515 -0.2848
 2987TIP3   OH2 8903   4.758   2.020   1.588 -0.2543 -0.3434 -0.2430
 2987TIP3    H1 8904   4.731   1.960   1.658 -1.0793 -1.8490 -1.8298
 2987TIP3    H2 8905   4.853   2.022   1.594 -0.3494  0.2796  1.5142
 2988TIP3   OH2 8906   4.683   4.501   2.726 -0.0212  0.2875  0.0328
 2988TIP3    H1 8907   4.680   4.571   2.661  0.1372  1.1178  0.9137
 2988TIP3    H2 8908   4.717   4.543   2.805  1.3421 -1.0701  0.1986
 2989TIP3   OH2 8909   3.837   0.573   1.699  0.2917 -0.7601  0.0258
 2989TIP3    H1 8910   3.868   0.499   1.752  2.2815 -0.1442 -0.2324
 2989TIP3    H2 8911   3.914   0.600   1.649 -0.1954  2.0024  0.6996
 2990TIP3   OH2 8912   6.361   2.237   2.837 -0.4635 -0.0618 -0.2404
 2990TIP3    H1 8913   6.413   2.157   2.839 -1.1050 -0.5119 -0.8501
 2990TIP3    H2 8914   6.281   2.215   2.885 -0.8345  0.0656 -0.7889
 2991TIP3   OH2 8915   5.251   3.481   1.530  0.1410  0.0964 -0.4024
 2991TIP3    H1 8916   5.290   3.559   1.491  0.9689 -0.7943 -1.3517
 2991TIP3    H2 8917   5.183   3.516   1.588 -0.0831  1.4911 -1.4725
 2992TIP3   OH2 8918   4.089   5.042   3.270 -0.1836  0.1019 -0.4204
 2992TIP3    H1 8919   4.063   5.132   3.253 -1.1719  0.3291  2.1260
 2992TIP3    H2 8920   4.182   5.048   3.293  0.0331  0.3169 -1.3339
 2993TIP3   OH2 8921   6.244   1.288   1.690  0.3156  0.5179  0.1269
 2993TIP3    H1 8922   6.205   1.357   1.638  2.3380  1.9915  0.5002
 2993TIP3    H2 8923   6.180   1.271   1.759 -0.1093  2.1676  0.1606
 2994TIP3   OH2 8924   4.666   2.176   2.065  0.1300  0.4952 -0.5262
 2994TIP3    H1 8925   4.575   2.147   2.076 -0.2692  1.4555 -1.2547
 2994TIP3    H2 8926   4.662   2.243   1.998  1.4353  0.3335 -0.7820
 2995TIP3   OH2 8927   3.916   7.059   3.618 -0.2861 -0.0190 -0.2669
 2995TIP3    H1 8928   3.863   6.986   3.648 -0.6935  0.5041  0.2921
 2995TIP3    H2 8929   3.870   7.092   3.541  1.7974 -2.6018 -2.7190
 2996TIP3   OH2 8930   4.192   1.609   2.757  0.5072  0.4031 -0.0332
 2996TIP3    H1 8931   4.270   1.647   2.795  1.7431  0.2473 -2.3355
 2996TIP3    H2 8932   4.201   1.515   2.772  0.0033  0.5271  1.0587
 2997TIP3   OH2 8933   1.992   0.624   3.000  0.4536 -0.0575  0.4547
 2997TIP3    H1 8934   2.041   0.600   2.922  0.1789 -1.8233  0.8099
 2997TIP3    H2 8935   1.967   0.716   2.986  1.3503 -0.0352 -1.0209
 2998TIP3   OH2 8936   8.359   2.238   2.726  0.8915 -0.1083 -0.0521
 2998TIP3    H1 8937   8.270   2.239   2.762  1.8516 -1.2340  2.4914
 2998TIP3    H2 8938   8.348   2.210   2.635 -1.4196  0.6163 -0.0271
 2999TIP3   OH2 8939   4.605   0.999   2.966  0.7533  0.2403 -0.0484
 2999TIP3    H1 8940   4.550   0.954   3.030  0.6059  0.7513  0.1900
 2999TIP3    H2 8941   4.695   0.987   2.997  0.6471  0.9104  0.5324
 3000TIP3   OH2 8942   5.634   5.467   0.102  1.0435 -0.9210  0.2250
 3000TIP3    H1 8943   5.540   5.477   0.089  1.0017 -0.7469  0.6728
 3000TIP3    H2 8944   5.643   5.388   0.155  1.0142  0.3099  2.1276
 3001TIP3   OH2 8945   4.527   4.425   3.054 -0.0596 -0.0812 -0.3076
 3001TIP3    H1 8946   4.623   4.426   3.054 -0.0542 -0.2915  0.0846
 3001TIP3    H2 8947   4.504   4.406   3.145 -0.4624 -0.5239 -0.4995
 3002TIP3   OH2 8948   3.975   2.017   4.160 -0.4200 -0.3903  0.1722
 3002TIP3    H1 8949   4.059   2.061   4.174  0.5879 -1.6699 -1.5824
 3002TIP3    H2 8950   3.931   2.071   4.094 -0.6637 -0.0961  0.5809
 3003TIP3   OH2 8951   5.185   2.869   2.492  0.0297  0.5462 -0.5728
 3003TIP3    H1 8952   5.249   2.806   2.459 -0.0790  0.1038  0.0611
 3003TIP3    H2 8953   5.233   2.921   2.555  0.3723  1.7299 -1.7862
 3004TIP3   OH2 8954   7.632   3.326   0.344 -0.2649  0.5200  0.6234
 3004TIP3    H1 8955   7.712   3.379   0.338 -0.2363  0.4613  0.4912
 3004TIP3    H2 8956   7.569   3.371   0.288  0.1894 -0.3640 -0.6248
 3005TIP3   OH2 8957   6.774   1.684   0.540  1.0112 -0.5648  0.2085
 3005TIP3    H1 8958   6.860   1.666   0.578  1.1027 -1.6591 -0.4947
 3005TIP3    H2 8959   6.793   1.723   0.455  0.8079  2.1646  1.3733
 3006TIP3   OH2 8960   4.330  -0.000   1.654  0.3176  0.4191  0.3410
 3006TIP3    H1 8961   4.369   0.030   1.735  0.8282  2.0031 -0.4622
 3006TIP3    H2 8962   4.402  -0.003   1.591  0.2889 -2.5621  0.3696
 3007TIP3   OH2 8963   4.746   5.865   3.926  0.0290 -1.1908 -0.6092
 3007TIP3    H1 8964   4.792   5.788   3.892  0.7124 -0.9051 -0.3270
 3007TIP3    H2 8965   4.797   5.893   4.001 -0.9122 -1.1996  0.0410
 3008TIP3   OH2 8966   3.256   3.143   5.008  0.7395 -0.1068 -0.2755
 3008TIP3    H1 8967   3.263   3.060   4.960  0.2400 -0.7295  0.7145
 3008TIP3    H2 8968   3.165   3.144   5.040  1.2205  0.0624  1.1036
 3009TIP3   OH2 8969   5.287   2.506   1.487  0.1688 -0.2203 -0.1714
 3009TIP3    H1 8970   5.371   2.528   1.448  1.4051 -1.6450  1.6246
 3009TIP3    H2 8971   5.268   2.578   1.546 -1.4825  1.7125 -2.9755
 3010TIP3   OH2 8972   4.652   3.928   3.132  0.1439  0.1567 -0.1614
 3010TIP3    H1 8973   4.622   3.995   3.071  1.8968  0.3736 -0.8035
 3010TIP3    H2 8974   4.647   3.971   3.218  0.1033  0.7072 -0.4356
 3011TIP3   OH2 8975   2.381   3.479   1.760 -0.8183 -0.0578 -0.3751
 3011TIP3    H1 8976   2.467   3.513   1.783 -0.5907 -0.8426 -0.0654
 3011TIP3    H2 8977   2.399   3.405   1.701 -1.2208 -1.0984  0.7984
 3012TIP3   OH2 8978   6.539   0.136   2.580  0.4574  0.5241 -0.0037
 3012TIP3    H1 8979   6.588   0.188   2.516  0.8942 -0.8723 -0.8214
 3012TIP3    H2 8980   6.457   0.185   2.593  1.6207  2.3450  0.6229
 3013TIP3   OH2 8981   3.449   2.714   2.793 -0.4125 -0.6547  0.1815
 3013TIP3    H1 8982   3.458   2.669   2.877  0.0264 -0.6136  0.1603
 3013TIP3    H2 8983   3.429   2.644   2.730 -2.2215 -0.4958  0.5641
 3014TIP3   OH2 8984   6.669   2.590   3.327 -0.1819  1.0059 -0.3393
 3014TIP3    H1 8985   6.752   2.628   3.298  0.5566  0.2719  0.7594
 3014TIP3    H2 8986   6.671   2.500   3.293  0.8720  0.0033  2.2195
 3015TIP3   OH2 8987   5.324   0.658   3.363 -0.2308  0.5053 -0.3940
 3015TIP3    H1 8988   5.405   0.709   3.362  0.8695 -1.1259  0.8018
 3015TIP3    H2 8989   5.326   0.609   3.281  1.4207 -1.5592  0.7974
 3016TIP3   OH2 8990   5.109   2.276   3.726 -0.5916 -0.1195 -0.7126
 3016TIP3    H1 8991   5.030   2.249   3.771 -1.6074  0.0102 -2.3764
 3016TIP3    H2 8992   5.179   2.227   3.768 -1.2250  1.5069  2.3327
 3017TIP3   OH2 8993   6.445   1.979   2.104 -0.1915  0.4206 -0.2624
 3017TIP3    H1 8994   6.406   1.955   2.188 -1.0677  2.0285 -0.1797
 3017TIP3    H2 8995   6.449   1.898   2.054  0.2521 -0.5297  1.3097
 3018TIP3   OH2 8996   6.904   1.589   2.537 -0.7672 -0.0465  0.4991
 3018TIP3    H1 8997   6.988   1.579   2.493  0.2970  2.3377  1.8886
 3018TIP3    H2 8998   6.852   1.642   2.478 -0.2171  1.0417  0.9859
 3019TIP3   OH2 8999   4.885   3.049   2.323  0.4384 -0.2653 -0.3018
 3019TIP3    H1 9000   4.790   3.037   2.320  0.6138 -1.4449 -2.1850
 3019TIP3    H2 9001   4.898   3.143   2.310 -0.5036  0.0884  1.1931
 3020TIP3   OH2 9002   5.972   3.024   1.966 -0.5560 -0.1913  0.3005
 3020TIP3    H1 9003   6.014   2.985   1.890 -0.3024 -1.8946  1.2805
 3020TIP3    H2 9004   5.892   2.971   1.978  0.0489 -0.7494  1.9537
 3021TIP3   OH2 9005   7.078   1.138   2.626 -0.3004 -0.3899 -0.0105
 3021TIP3    H1 9006   7.026   1.203   2.672 -1.7425 -0.4317 -1.5181
 3021TIP3    H2 9007   7.088   1.066   2.688 -0.6339  0.3232  0.8718
 3022TIP3   OH2 9008   4.471   2.161   3.667  0.1098  1.0119  0.1824
 3022TIP3    H1 9009   4.454   2.237   3.612 -0.5691  0.6011 -0.1813
 3022TIP3    H2 9010   4.385   2.130   3.692  0.2579 -1.3630 -2.0539
 3023TIP3   OH2 9011   4.832   2.044   1.309 -0.3513 -0.1778  0.8129
 3023TIP3    H1 9012   4.816   1.981   1.379  0.2339 -0.8674  0.3239
 3023TIP3    H2 9013   4.924   2.066   1.317 -0.9031  1.8297  1.9825
 3024TIP3   OH2 9014   6.788   2.918   4.849 -0.0385  0.7172 -0.1877
 3024TIP3    H1 9015   6.869   2.897   4.895 -0.7429 -0.3741  0.5632
 3024TIP3    H2 9016   6.753   2.833   4.821 -1.0699  1.1532 -0.2529
 3025TIP3   OH2 9017   6.159   1.187   2.440 -0.3157 -0.0868  0.3626
 3025TIP3    H1 9018   6.099   1.250   2.400 -1.0987 -0.1603  1.4124
 3025TIP3    H2 9019   6.212   1.240   2.500  0.5495 -0.0553 -0.4103
 3026TIP3   OH2 9020   4.503   2.219   4.666 -0.4415 -0.3990  0.1256
 3026TIP3    H1 9021   4.542   2.302   4.695  1.4618 -1.7604  1.6123
 3026TIP3    H2 9022   4.559   2.152   4.704 -2.0863 -2.3947 -0.8718
 3027TIP3   OH2 9023   3.762   1.937   2.972  0.4033 -0.7536 -0.5421
 3027TIP3    H1 9024   3.745   1.975   2.886  0.4312 -0.2204 -0.3117
 3027TIP3    H2 9025   3.740   2.006   3.034 -0.5785 -1.4728 -0.0763
 3028TIP3   OH2 9026   6.795   0.839   3.182  0.4656  0.2593  0.2037
 3028TIP3    H1 9027   6.772   0.749   3.206  0.4058 -0.0924 -1.0935
 3028TIP3    H2 9028   6.735   0.860   3.111 -0.6144  1.9362  1.5835
 3029TIP3   OH2 9029   4.348   3.507   1.888  0.3368 -0.1670  0.5863
 3029TIP3    H1 9030   4.326   3.440   1.953 -1.0156  0.5032  0.8449
 3029TIP3    H2 9031   4.443   3.502   1.880  0.0866 -3.6396 -1.0895
 3030TIP3   OH2 9032   4.111   1.874   3.059 -0.2601 -0.0791 -0.1577
 3030TIP3    H1 9033   4.066   1.828   2.988 -1.2396 -0.9904  1.0232
 3030TIP3    H2 9034   4.074   1.836   3.139  1.2978  0.4663  0.8413
 3031TIP3   OH2 9035   5.450   4.636   3.358 -0.0169 -0.1525 -0.0130
 3031TIP3    H1 9036   5.538   4.621   3.324 -0.0945  0.1322 -0.3451
 3031TIP3    H2 9037   5.462   4.652   3.451  0.3889  0.9007 -0.2464
 3032TIP3   OH2 9038   4.126   3.910   1.864 -0.0503  0.5511  0.1306
 3032TIP3    H1 9039   4.142   3.860   1.784  0.2477 -0.5332  0.8533
 3032TIP3    H2 9040   4.206   3.960   1.878 -0.0626  0.6604 -0.1735
 3033TIP3   OH2 9041   0.178   4.752   1.674 -0.1108 -0.3074 -0.3761
 3033TIP3    H1 9042   0.083   4.761   1.665  0.0358  2.2592  0.2718
 3033TIP3    H2 9043   0.214   4.813   1.610  1.0920 -0.0208  0.5583
 3034TIP3   OH2 9044   6.923   3.244   1.893  0.1644 -0.3852 -0.4276
 3034TIP3    H1 9045   6.852   3.187   1.862  1.5165 -3.1363  1.3549
 3034TIP3    H2 9046   7.002   3.203   1.858  1.1953  0.1060  1.3048
 3035TIP3   OH2 9047   5.158   3.256   1.665 -0.0253  0.4379  0.3823
 3035TIP3    H1 9048   5.085   3.254   1.604 -0.4152 -0.1670  0.8492
 3035TIP3    H2 9049   5.214   3.326   1.634  0.7026 -1.0117 -1.7301
 3036TIP3   OH2 9050   7.577   1.393   1.372  0.1389  0.5243  0.2089
 3036TIP3    H1 9051   7.530   1.311   1.353  1.0286  0.2668 -0.9721
 3036TIP3    H2 9052   7.512   1.448   1.415 -0.8317 -0.3488 -0.1029
 3037TIP3   OH2 9053   6.528   1.249   3.244 -0.2935  0.0039  0.2012
 3037TIP3    H1 9054   6.482   1.168   3.222  0.1324  0.3402 -1.9880
 3037TIP3    H2 9055   6.620   1.228   3.232 -0.2506  1.1962 -1.7343
 3038TIP3   OH2 9056   7.639   2.012   2.059  0.1140  0.1111 -0.4319
 3038TIP3    H1 9057   7.665   1.921   2.042 -1.9032 -0.2626 -1.6530
 3038TIP3    H2 9058   7.695   2.064   2.003  1.4546 -0.3507  0.4548
 3039TIP3   OH2 9059   8.094   3.493   1.503  0.4481 -0.0414  0.0244
 3039TIP3    H1 9060   8.169   3.545   1.534 -0.8334  2.7122 -1.2937
 3039TIP3    H2 9061   8.047   3.469   1.582  0.7158  1.4173  0.6449
 3040TIP3   OH2 9062   5.826   2.585   1.031  0.6389 -0.0822  0.0194
 3040TIP3    H1 9063   5.857   2.570   0.941  0.5954 -0.6000  0.0891
 3040TIP3    H2 9064   5.851   2.676   1.050  0.5102  0.0836 -0.5729
 3041TIP3   OH2 9065   4.977   2.579   3.539 -0.3998  0.1046 -0.1515
 3041TIP3    H1 9066   5.014   2.577   3.450  0.3146  0.4858  0.1297
 3041TIP3    H2 9067   4.935   2.494   3.549 -2.1276  0.7535 -1.5414
 3042TIP3   OH2 9068   6.774   0.805   2.349  0.1926  0.5853  0.0591
 3042TIP3    H1 9069   6.797   0.878   2.406 -1.1091  0.3386  0.9319
 3042TIP3    H2 9070   6.679   0.810   2.342  0.1738 -0.5285 -0.5476
 3043TIP3   OH2 9071   0.441   6.204   6.914 -0.8363  0.4511 -0.4784
 3043TIP3    H1 9072   0.375   6.143   6.949 -0.0477 -0.4469 -0.5452
 3043TIP3    H2 9073   0.418   6.213   6.822  0.6555 -1.8863 -1.1095
 3044TIP3   OH2 9074   6.440   3.053   3.083  0.6234  0.2312 -0.0469
 3044TIP3    H1 9075   6.360   3.048   3.029  0.5012  0.0665  0.1482
 3044TIP3    H2 9076   6.508   3.015   3.028  0.3093 -0.7976  0.2676
 3045TIP3   OH2 9077   7.260   3.261   0.974 -0.0178 -0.3868 -0.9446
 3045TIP3    H1 9078   7.196   3.329   0.951  0.6783 -0.0434 -1.8902
 3045TIP3    H2 9079   7.275   3.273   1.068  0.6871  1.2808 -1.2497
 3046TIP3   OH2 9080   4.737   0.521   4.501 -0.2025 -0.7258 -0.1110
 3046TIP3    H1 9081   4.819   0.542   4.545 -1.0225 -0.4140  1.3119
 3046TIP3    H2 9082   4.680   0.596   4.520 -0.9468 -1.1200 -0.7430
 3047TIP3   OH2 9083   4.204   3.493   2.266 -0.3809 -0.0477  0.0265
 3047TIP3    H1 9084   4.276   3.551   2.242 -0.9421 -0.1664 -2.0220
 3047TIP3    H2 9085   4.216   3.477   2.359  2.7809 -0.7985 -0.4623
 3048TIP3   OH2 9086   6.483   0.939   2.485 -0.2121  0.1503  0.2299
 3048TIP3    H1 9087   6.471   0.844   2.476  1.5683  0.0500 -1.3310
 3048TIP3    H2 9088   6.526   0.949   2.570 -0.2313 -0.4388  0.3167
 3049TIP3   OH2 9089   5.396   3.151   3.008  0.0211  0.3842 -0.2155
 3049TIP3    H1 9090   5.305   3.127   3.027 -0.2781 -0.2603 -2.2813
 3049TIP3    H2 9091   5.445   3.070   3.022  0.5080  1.0682  2.2080
 3050TIP3   OH2 9092   5.407   3.064   5.373  0.2629  0.0179  0.0512
 3050TIP3    H1 9093   5.473   3.017   5.424  0.0133 -0.1395  0.2263
 3050TIP3    H2 9094   5.323   3.030   5.403  0.1593 -1.1281 -1.4808
 3051TIP3   OH2 9095   5.480   4.289   2.489 -0.6768  0.8483  0.8246
 3051TIP3    H1 9096   5.470   4.236   2.410 -0.0438 -0.3800  1.5641
 3051TIP3    H2 9097   5.390   4.311   2.514 -0.9107  0.6446  0.1743
 3052TIP3   OH2 9098   4.610   1.689   0.888 -0.0297 -0.2335 -0.5289
 3052TIP3    H1 9099   4.541   1.644   0.937 -1.2815  1.2976 -0.8395
 3052TIP3    H2 9100   4.575   1.700   0.800  0.6991  0.3610 -0.7557
 3053TIP3   OH2 9101   5.257   2.842   3.286 -0.5330 -0.3536  0.1397
 3053TIP3    H1 9102   5.311   2.790   3.345  3.6980  2.2734 -1.1194
 3053TIP3    H2 9103   5.273   2.933   3.313 -0.5142  0.7539 -3.3046
 3054TIP3   OH2 9104   3.127   2.473   3.000  0.6831  0.5591  0.0831
 3054TIP3    H1 9105   3.170   2.551   3.035  0.1531  0.2244  1.5367
 3054TIP3    H2 9106   3.036   2.499   2.987  0.2013 -0.1460  1.7974
 3055TIP3   OH2 9107   7.170   2.249   4.111  0.2596  0.1432  0.0263
 3055TIP3    H1 9108   7.221   2.195   4.051  0.6905  0.2795  0.2726
 3055TIP3    H2 9109   7.235   2.294   4.165 -0.0513  1.6128 -0.7916
 3056TIP3   OH2 9110   7.058   0.684   0.883 -0.7023  0.0025  0.2874
 3056TIP3    H1 9111   7.041   0.775   0.861 -1.7989 -0.0618  0.8287
 3056TIP3    H2 9112   7.153   0.674   0.873 -0.8733  0.5755 -2.0265
 3057TIP3   OH2 9113   5.934   1.792   3.013 -0.4182  0.1413 -0.0852
 3057TIP3    H1 9114   5.965   1.851   2.945  0.6113 -1.3072 -0.9058
 3057TIP3    H2 9115   5.987   1.814   3.090 -0.7867  1.0002 -0.0732
 3058TIP3   OH2 9116   5.154   2.164   2.066 -0.2802  0.0514 -0.2213
 3058TIP3    H1 9117   5.198   2.244   2.038 -1.1569  0.2461 -1.0879
 3058TIP3    H2 9118   5.065   2.173   2.032 -0.3670 -1.3228 -0.3830
 3059TIP3   OH2 9119   4.471   1.974   4.509  0.1092 -0.2860 -0.1716
 3059TIP3    H1 9120   4.386   1.931   4.507 -0.8236  1.5382 -1.1804
 3059TIP3    H2 9121   4.457   2.053   4.562  0.8273  0.6914 -1.4132
 3060TIP3   OH2 9122   4.270   4.651   3.079 -0.4636 -0.3315 -0.5936
 3060TIP3    H1 9123   4.194   4.592   3.079 -1.7343  1.2771 -0.0300
 3060TIP3    H2 9124   4.302   4.649   3.170 -0.7774  0.1795 -0.4700
 3061TIP3   OH2 9125   5.600   1.968   3.885  0.5852 -0.6292  0.2805
 3061TIP3    H1 9126   5.682   1.958   3.836 -0.3279  1.1940 -1.7384
 3061TIP3    H2 9127   5.627   1.970   3.977  2.8774  0.3981 -0.3646
 3062TIP3   OH2 9128   6.436   1.544   4.262 -0.3470 -0.6487 -0.8522
 3062TIP3    H1 9129   6.465   1.454   4.245  0.9851 -0.0937 -1.4763
 3062TIP3    H2 9130   6.467   1.594   4.187  0.6195  0.7085  0.4387
 3063TIP3   OH2 9131   6.423   2.229   1.920  0.0329  0.1493 -0.2643
 3063TIP3    H1 9132   6.488   2.241   1.850  1.5345 -0.5400  0.9769
 3063TIP3    H2 9133   6.461   2.162   1.977 -0.9661  0.9976  1.4426
 3064TIP3   OH2 9134   7.126   1.329   3.268 -0.0838 -0.3380 -0.0643
 3064TIP3    H1 9135   7.107   1.423   3.266  1.5666 -0.0052 -0.7371
 3064TIP3    H2 9136   7.102   1.298   3.181 -1.3886 -0.7103  0.4158
 3065TIP3   OH2 9137   4.932   3.512   4.000 -0.0399  0.0536  0.1100
 3065TIP3    H1 9138   4.929   3.484   4.092 -1.0029 -0.5931 -0.1204
 3065TIP3    H2 9139   4.903   3.603   4.003 -0.0673  0.0366  0.4466
 3066TIP3   OH2 9140   5.212   1.849   3.724 -0.3963 -0.4755  0.2159
 3066TIP3    H1 9141   5.149   1.824   3.792 -0.6481  0.0085  0.1688
 3066TIP3    H2 9142   5.158   1.859   3.645 -0.5387  1.5512  0.5398
 3067TIP3   OH2 9143   5.062   4.838   3.965 -0.2487 -0.0124 -0.1320
 3067TIP3    H1 9144   5.158   4.831   3.966 -0.3738 -1.6801  0.6660
 3067TIP3    H2 9145   5.036   4.805   3.879 -0.0667  1.2397 -0.6839
 3068TIP3   OH2 9146   8.175   4.222   1.777 -0.5173  0.3819 -0.3685
 3068TIP3    H1 9147   8.134   4.145   1.817 -0.6974 -0.3172 -1.8373
 3068TIP3    H2 9148   8.178   4.287   1.847 -1.5226 -0.5310  0.5510
 3069TIP3   OH2 9149   6.335   2.320   1.031 -0.0125 -0.0774 -0.3128
 3069TIP3    H1 9150   6.410   2.345   0.976  1.0553 -0.2341  1.0338
 3069TIP3    H2 9151   6.266   2.382   1.007  1.3714  1.7224  0.2143
 3070TIP3   OH2 9152   4.821   4.478   3.152  0.2677 -0.1464 -0.2286
 3070TIP3    H1 9153   4.865   4.563   3.158  0.1568 -0.1824  1.5209
 3070TIP3    H2 9154   4.818   4.447   3.243 -0.5064 -1.6071 -0.7406
 3071TIP3   OH2 9155   4.628   5.145   2.274  0.0221 -0.8282  0.0903
 3071TIP3    H1 9156   4.586   5.118   2.356 -0.1108 -0.2510  0.2141
 3071TIP3    H2 9157   4.702   5.198   2.302 -0.4055 -0.0835 -0.1738
 3072TIP3   OH2 9158   6.871   2.015   0.960 -0.4996  0.0033 -0.1761
 3072TIP3    H1 9159   6.803   1.949   0.977  1.4067 -2.3895 -1.5159
 3072TIP3    H2 9160   6.934   2.004   1.032  0.0182  0.1027 -0.6126
 3073TIP3   OH2 9161   5.396   2.727   2.381  0.1639  0.1113 -0.1891
 3073TIP3    H1 9162   5.448   2.808   2.380 -0.3638  0.4741  1.0057
 3073TIP3    H2 9163   5.442   2.670   2.443 -0.2151  0.0038 -0.0058
 3074TIP3   OH2 9164   6.638   0.527   2.224  0.0167  0.2543 -0.5295
 3074TIP3    H1 9165   6.593   0.491   2.148 -1.5146  0.4637  0.2595
 3074TIP3    H2 9166   6.572   0.579   2.270  0.7799 -0.2117  1.1733
 3075TIP3   OH2 9167   2.650   7.943   3.005 -0.2354  0.1956 -0.1996
 3075TIP3    H1 9168   2.559   7.968   2.991  0.0313  0.9121 -0.6882
 3075TIP3    H2 9169   2.701   8.009   2.958  0.5663  0.3971  0.9160
 3076TIP3   OH2 9170   4.753   1.405   1.131  0.1223  0.3759 -0.2552
 3076TIP3    H1 9171   4.774   1.366   1.215  0.1731  1.1292  0.0832
 3076TIP3    H2 9172   4.765   1.333   1.068  1.3112  0.1440  0.2199
 3077TIP3   OH2 9173   5.514   1.805   2.558  0.2391  0.2409 -0.2812
 3077TIP3    H1 9174   5.440   1.790   2.500  0.0905  2.3795 -0.6781
 3077TIP3    H2 9175   5.497   1.891   2.597  0.3531 -1.1294  2.9079
 3078TIP3   OH2 9176   5.615   0.021   2.315  0.2132 -0.2005 -0.2766
 3078TIP3    H1 9177   5.568  -0.042   2.261 -0.2539 -1.6036  1.6863
 3078TIP3    H2 9178   5.557   0.096   2.321 -0.1191 -0.3998 -0.9749
 3079TIP3   OH2 9179   5.282   7.997   2.271  0.1402 -0.3138  0.2805
 3079TIP3    H1 9180   5.189   7.977   2.262  0.4955 -2.0475  0.2521
 3079TIP3    H2 9181   5.289   8.044   2.354 -0.9580  1.2362 -0.4846
 3080TIP3   OH2 9182   0.672   7.910   0.931 -0.5125 -0.0339 -0.0463
 3080TIP3    H1 9183   0.722   7.929   1.010 -1.0166  3.6129 -0.5266
 3080TIP3    H2 9184   0.671   7.814   0.926  3.1755 -0.2811  1.9909
 3081TIP3   OH2 9185   3.776   3.982   4.060  0.2038  0.2422  0.8726
 3081TIP3    H1 9186   3.756   3.892   4.083 -0.9804 -0.0430 -1.1369
 3081TIP3    H2 9187   3.836   3.975   3.985 -0.4768  1.1211  0.2379
 3082TIP3   OH2 9188   5.736   3.403   2.673 -0.0059 -0.2070 -0.0082
 3082TIP3    H1 9189   5.741   3.496   2.696 -2.6449 -0.1773  0.5984
 3082TIP3    H2 9190   5.682   3.401   2.595 -2.5323 -1.4595  1.7132
 3083TIP3   OH2 9191   5.454   2.142   0.536  0.3690  0.0066  0.0492
 3083TIP3    H1 9192   5.549   2.134   0.525  0.2829 -1.3481  0.1848
 3083TIP3    H2 9193   5.440   2.121   0.629 -0.0373  0.4114  0.0769
 3084TIP3   OH2 9194   4.939   4.523   2.583 -0.7976 -0.3062  0.2325
 3084TIP3    H1 9195   4.883   4.498   2.656 -0.9706  3.1489  1.3771
 3084TIP3    H2 9196   4.999   4.588   2.620  0.4905 -0.0308 -2.2413
 3085TIP3   OH2 9197   5.124   3.698   2.465 -0.0795  0.4280 -0.4592
 3085TIP3    H1 9198   5.070   3.732   2.536 -1.6196  1.3591 -2.0371
 3085TIP3    H2 9199   5.189   3.768   2.449  0.5577  0.0238  0.3125
 3086TIP3   OH2 9200   6.248   0.425   2.232 -0.4089 -0.1051 -0.3347
 3086TIP3    H1 9201   6.187   0.458   2.298 -0.5909 -1.1047  0.0187
 3086TIP3    H2 9202   6.310   0.496   2.217  0.2177 -0.2089  1.6302
 3087TIP3   OH2 9203   6.675   1.442   1.805 -0.7307  0.0375  0.3035
 3087TIP3    H1 9204   6.622   1.394   1.870 -1.5953 -0.6023 -0.8555
 3087TIP3    H2 9205   6.760   1.399   1.807 -1.3030 -1.1383 -0.2507
 3088TIP3   OH2 9206   8.373   5.143   6.820  0.2177  0.2395 -0.0475
 3088TIP3    H1 9207   8.399   5.087   6.893  0.3116  0.8497  0.3850
 3088TIP3    H2 9208   8.406   5.230   6.842 -1.5498  0.8773  0.1909
 3089TIP3   OH2 9209   7.256   2.503   4.708 -0.2165 -0.0345  0.7901
 3089TIP3    H1 9210   7.289   2.463   4.627  2.1564  1.2017  1.0891
 3089TIP3    H2 9211   7.275   2.439   4.776 -0.5030 -0.2745  0.6478
 3090TIP3   OH2 9212   0.203   3.701   0.818  0.3476 -0.6297  0.7665
 3090TIP3    H1 9213   0.181   3.665   0.732  3.1747  0.2712 -0.4035
 3090TIP3    H2 9214   0.233   3.625   0.868  0.4175 -0.8758  0.3591
 3091TIP3   OH2 9215   0.254   2.521   1.827 -0.5143  0.0761  0.2357
 3091TIP3    H1 9216   0.281   2.455   1.764  0.8559  0.6365  0.2291
 3091TIP3    H2 9217   0.229   2.596   1.774 -1.4451 -0.1958  0.2740
 3092TIP3   OH2 9218   6.525   2.571   1.927 -0.1018  0.1054  0.3616
 3092TIP3    H1 9219   6.491   2.630   1.994  1.2838  1.4883 -0.1313
 3092TIP3    H2 9220   6.614   2.602   1.909 -0.7823  0.4231 -2.8700
 3093TIP3   OH2 9221   5.435   3.052   1.191 -0.7261  0.4614 -0.3340
 3093TIP3    H1 9222   5.394   3.133   1.163  0.4335  1.1533 -0.0634
 3093TIP3    H2 9223   5.381   3.020   1.263 -0.0509  2.0546  0.9046
 3094TIP3   OH2 9224   1.983   7.102   6.875 -0.4007  0.5611  0.3959
 3094TIP3    H1 9225   1.948   7.074   6.960  0.2216 -1.2314  0.0664
 3094TIP3    H2 9226   1.992   7.197   6.884 -2.3303  0.6708  1.5895
 3095TIP3   OH2 9227   1.954   4.202   2.167 -0.5360 -0.5066 -0.3445
 3095TIP3    H1 9228   1.994   4.267   2.225  0.2820  0.4538 -1.9592
 3095TIP3    H2 9229   1.910   4.141   2.227  1.7586 -0.5517  1.3951
 3096TIP3   OH2 9230   7.416   2.894   1.750  0.1656  0.1608  0.2498
 3096TIP3    H1 9231   7.391   2.912   1.660 -0.4506  1.9998  0.7658
 3096TIP3    H2 9232   7.402   2.800   1.761  0.1217 -0.0550 -1.5183
 3097TIP3   OH2 9233   7.868   1.611   0.353 -0.4756 -0.3133  0.0710
 3097TIP3    H1 9234   7.851   1.701   0.327 -0.7345 -0.6350 -0.8835
 3097TIP3    H2 9235   7.839   1.606   0.444  0.6489  0.8819  0.5144
 3098TIP3   OH2 9236   7.270   1.347   1.130  0.9033  0.0625  0.0699
 3098TIP3    H1 9237   7.218   1.423   1.103 -0.1194 -1.1179 -1.3423
 3098TIP3    H2 9238   7.247   1.335   1.222 -2.0819 -0.9838 -0.7366
 3099TIP3   OH2 9239   8.464   0.906   2.137 -0.0097 -0.6403 -0.6256
 3099TIP3    H1 9240   8.544   0.858   2.115  0.4956  0.0933 -0.4191
 3099TIP3    H2 9241   8.426   0.857   2.210  0.8098 -0.4040 -0.0321
 3100TIP3   OH2 9242   1.605   1.919   0.940  0.5879  0.6209 -0.7136
 3100TIP3    H1 9243   1.597   1.825   0.960 -2.0158  1.0684  0.5740
 3100TIP3    H2 9244   1.530   1.938   0.883 -0.2430  2.3641  0.9066
 3101TIP3   OH2 9245   5.200   3.151   2.640 -0.1009 -0.3151  0.5323
 3101TIP3    H1 9246   5.170   3.237   2.608 -1.9243 -0.5460  1.5193
 3101TIP3    H2 9247   5.120   3.109   2.673  1.3021 -1.0365  3.1701
 3102TIP3   OH2 9248   8.399   0.210   0.831  0.1668 -0.2137 -0.3816
 3102TIP3    H1 9249   8.455   0.287   0.818  0.4030 -0.4228 -0.6204
 3102TIP3    H2 9250   8.315   0.245   0.860  0.2279  0.1459 -0.6358
 3103TIP3   OH2 9251   1.324   3.756   0.671 -0.0806  0.9098 -1.0762
 3103TIP3    H1 9252   1.350   3.818   0.739 -1.3444  0.2445  0.0518
 3103TIP3    H2 9253   1.400   3.701   0.658 -0.4922 -0.3044  1.3559
 3104TIP3   OH2 9254   7.825   2.651   0.643  0.2855  0.4477 -0.6882
 3104TIP3    H1 9255   7.843   2.601   0.563  0.6086  0.1100 -0.4060
 3104TIP3    H2 9256   7.889   2.619   0.707 -0.5304  0.0992 -0.0363
 3105TIP3   OH2 9257   8.141   3.660   0.479  0.3090  0.0745  0.6314
 3105TIP3    H1 9258   8.131   3.671   0.384  0.7366 -0.8492  0.4726
 3105TIP3    H2 9259   8.213   3.719   0.502  0.3074  0.1864  0.3562
 3106TIP3   OH2 9260   7.132   2.271   1.514  0.3186 -0.4408 -0.0293
 3106TIP3    H1 9261   7.065   2.215   1.477  0.2389 -0.6371  0.4205
 3106TIP3    H2 9262   7.196   2.281   1.443 -0.0964 -0.3859 -0.4007
 3107TIP3   OH2 9263   7.896   1.929   1.829 -0.0677  0.3701 -0.5817
 3107TIP3    H1 9264   7.846   1.851   1.806  0.7590 -0.1596 -0.5823
 3107TIP3    H2 9265   7.922   1.916   1.920  1.3871 -0.0665 -1.0535
 3108TIP3   OH2 9266   7.387   1.347   0.671 -0.6070 -0.2551  0.3779
 3108TIP3    H1 9267   7.370   1.441   0.680 -0.8151 -0.2592  0.0384
 3108TIP3    H2 9268   7.411   1.318   0.759  1.1822  0.4631  0.1472
 3109TIP3   OH2 9269   5.382   2.063   3.016 -0.2142  0.7347 -0.0382
 3109TIP3    H1 9270   5.363   2.037   3.106 -0.6654  1.6471  0.1385
 3109TIP3    H2 9271   5.461   2.014   2.993 -2.0346 -2.2105 -0.3488
 3110TIP3   OH2 9272   6.189   3.683   1.188  0.1215 -0.0655  0.4268
 3110TIP3    H1 9273   6.136   3.640   1.255  0.2385  0.7317  1.0420
 3110TIP3    H2 9274   6.186   3.776   1.211  3.0721 -0.1512  1.4530
 3111TIP3   OH2 9275   7.723   2.382   2.486  0.2284 -0.7407 -0.1879
 3111TIP3    H1 9276   7.740   2.475   2.472 -1.1447 -0.4304  0.1934
 3111TIP3    H2 9277   7.700   2.348   2.399 -1.1929 -0.3101  0.0109
 3112TIP3   OH2 9278   6.831   2.387   1.708 -0.2991 -0.4327 -0.2503
 3112TIP3    H1 9279   6.905   2.448   1.708 -1.9276  1.5892  0.5732
 3112TIP3    H2 9280   6.841   2.338   1.790 -0.6345  0.8276  0.5639
 3113TIP3   OH2 9281   6.195   2.608   1.044 -0.3162 -0.1844 -0.0800
 3113TIP3    H1 9282   6.124   2.670   1.061 -0.5019 -0.6198  0.7772
 3113TIP3    H2 9283   6.263   2.633   1.108  0.2708  0.1783 -0.8366
 3114TIP3   OH2 9284   7.727   4.407   0.974  0.1322 -0.0303  0.3258
 3114TIP3    H1 9285   7.721   4.503   0.971 -1.1068 -0.0553  1.3480
 3114TIP3    H2 9286   7.770   4.388   1.057 -0.4237 -0.3845  0.5322
 3115TIP3   OH2 9287   6.134   3.507   4.423 -0.1728 -0.1400 -0.0094
 3115TIP3    H1 9288   6.206   3.493   4.361  0.7267 -2.0275  1.3746
 3115TIP3    H2 9289   6.177   3.539   4.503 -1.0328  0.1550  0.3397
 3116TIP3   OH2 9290   8.362   4.231   0.568  0.3230 -0.3505  0.0292
 3116TIP3    H1 9291   8.428   4.167   0.541 -0.1877 -0.2199 -1.5695
 3116TIP3    H2 9292   8.303   4.183   0.627  0.4709 -1.0932 -0.4322
 3117TIP3   OH2 9293   0.345   2.566   2.697 -0.0632 -0.2636  0.0013
 3117TIP3    H1 9294   0.317   2.475   2.706 -0.7455 -0.0049  0.5859
 3117TIP3    H2 9295   0.277   2.616   2.743 -0.7597  0.6974 -2.0043
 3118TIP3   OH2 9296   3.786   5.512   6.787  0.5124 -0.2290 -0.0862
 3118TIP3    H1 9297   3.712   5.491   6.843  1.2226  0.7832  1.2521
 3118TIP3    H2 9298   3.841   5.434   6.789  1.2697  0.3307  1.8313
 3119TIP3   OH2 9299   8.157   3.889   0.763 -0.2889 -0.1658  0.5816
 3119TIP3    H1 9300   8.128   3.841   0.841  0.1946  1.4058  1.7740
 3119TIP3    H2 9301   8.077   3.907   0.715 -0.6245 -0.9425  0.8310
 3120TIP3   OH2 9302   7.844   3.046   1.751  0.3886  0.1967 -0.1247
 3120TIP3    H1 9303   7.906   3.089   1.692  0.6106  1.3511  0.9122
 3120TIP3    H2 9304   7.795   2.985   1.695  0.5865  1.2646 -1.4917
 3121TIP3   OH2 9305   0.110   0.557   1.841 -0.6389  0.9185  0.2100
 3121TIP3    H1 9306   0.105   0.520   1.753 -1.5814  1.1422  0.1614
 3121TIP3    H2 9307   0.076   0.488   1.898  1.9455 -0.0396  0.6637
 3122TIP3   OH2 9308   7.599   2.564   1.701 -0.1125  0.0303  0.2213
 3122TIP3    H1 9309   7.569   2.493   1.646  0.7525  0.2635 -0.5510
 3122TIP3    H2 9310   7.648   2.622   1.643 -0.5184  1.0838  0.9041
 3123TIP3   OH2 9311   6.367   0.531   3.518 -0.5485 -0.0038 -0.4381
 3123TIP3    H1 9312   6.318   0.545   3.599 -0.8531 -2.1569 -0.2038
 3123TIP3    H2 9313   6.443   0.588   3.526  0.6786 -1.9105  2.4737
 3124TIP3   OH2 9314   6.426   1.706   2.034 -0.2069 -0.5559 -0.7147
 3124TIP3    H1 9315   6.402   1.689   2.126  0.1952  1.7597 -0.1382
 3124TIP3    H2 9316   6.345   1.690   1.985 -1.1112  0.5697  0.3692
 3125TIP3   OH2 9317   7.303   1.739   1.213  0.2395  0.0004  0.6160
 3125TIP3    H1 9318   7.230   1.682   1.187 -0.4576  0.6892  1.0699
 3125TIP3    H2 9319   7.290   1.819   1.163  0.6643  0.1453  0.7337
 3126TIP3   OH2 9320   7.153   2.703   2.608 -0.3707 -0.3628  0.3682
 3126TIP3    H1 9321   7.102   2.653   2.672  0.6110 -1.7568  0.0874
 3126TIP3    H2 9322   7.087   2.752   2.558 -1.2166 -0.0006  1.8116
 3127TIP3   OH2 9323   5.418   3.597   2.253 -0.6754  0.1637  0.0464
 3127TIP3    H1 9324   5.355   3.584   2.183 -0.6974  1.4601 -0.1845
 3127TIP3    H2 9325   5.492   3.540   2.230 -0.6813  0.5876 -1.0176
 3128TIP3   OH2 9326   0.269   0.247   1.482 -0.3195 -0.4384  0.1607
 3128TIP3    H1 9327   0.301   0.157   1.475  0.0471 -0.1699 -1.9955
 3128TIP3    H2 9328   0.192   0.249   1.426 -0.7830  0.3842  0.8265
 3129TIP3   OH2 9329   7.516   1.174   0.506  0.0738  0.1702 -0.3542
 3129TIP3    H1 9330   7.482   1.230   0.576 -0.3320 -1.6769  0.9851
 3129TIP3    H2 9331   7.609   1.196   0.500  0.1674  0.1869  0.9520
 3130TIP3   OH2 9332   6.867   2.812   3.845 -0.0335  0.2640  0.3154
 3130TIP3    H1 9333   6.818   2.873   3.790 -0.7699  0.1666  0.8597
 3130TIP3    H2 9334   6.802   2.747   3.873  0.4543  0.0017  0.8479
 3131TIP3   OH2 9335   6.142   1.990   4.913 -0.4636 -0.1115  0.1617
 3131TIP3    H1 9336   6.082   2.064   4.916 -0.1177  0.1969 -0.3612
 3131TIP3    H2 9337   6.179   1.992   4.824 -0.8157 -1.1974 -0.0219
 3132TIP3   OH2 9338   6.161   2.327   1.909  0.2193  0.1006  0.1697
 3132TIP3    H1 9339   6.257   2.324   1.900  0.1872  0.2118 -0.2343
 3132TIP3    H2 9340   6.134   2.235   1.906  0.2703  0.0976 -0.2326
 3133TIP3   OH2 9341   3.963   7.730   1.940  0.5234  0.2370 -0.5288
 3133TIP3    H1 9342   3.912   7.660   1.982 -2.6818  3.0428  0.4137
 3133TIP3    H2 9343   3.924   7.740   1.854  1.4729  0.3805 -0.9490
 3134TIP3   OH2 9344   7.199   2.226   1.253  0.7040 -0.5661 -0.7107
 3134TIP3    H1 9345   7.162   2.262   1.172 -1.7560  0.2795  0.7485
 3134TIP3    H2 9346   7.160   2.139   1.260 -0.7779  0.1997  0.6692
 3135TIP3   OH2 9347   2.140   0.716   3.454  0.0461  0.1990 -0.1821
 3135TIP3    H1 9348   2.155   0.748   3.543 -0.6393  1.2089 -0.4281
 3135TIP3    H2 9349   2.195   0.772   3.399 -2.0295  1.7317 -0.7354
 3136TIP3   OH2 9350   7.663   2.358   0.876  0.6581 -0.2698 -0.0310
 3136TIP3    H1 9351   7.613   2.280   0.853 -0.2018 -0.3297  1.9355
 3136TIP3    H2 9352   7.598   2.418   0.913  2.1234 -0.6415  3.2839
 3137TIP3   OH2 9353   4.140   7.358   2.033  0.3998 -0.4328 -0.5007
 3137TIP3    H1 9354   4.050   7.390   2.023  1.0127  1.1654 -0.9438
 3137TIP3    H2 9355   4.129   7.270   2.070 -1.3207  0.1596  0.5010
 3138TIP3   OH2 9356   0.764   1.179   0.415 -0.3587 -0.0925  0.2188
 3138TIP3    H1 9357   0.708   1.125   0.470 -2.2268  0.8293 -0.7339
 3138TIP3    H2 9358   0.802   1.118   0.351  1.2115 -1.0256  2.0005
 3139TIP3   OH2 9359   0.188   1.407   2.040 -0.9593  0.1344  0.0080
 3139TIP3    H1 9360   0.247   1.410   2.115 -0.3618 -0.2700 -0.4467
 3139TIP3    H2 9361   0.168   1.314   2.028  0.2289  0.0299 -1.3231
 3140TIP3   OH2 9362   7.447   3.378   1.945  0.2212 -0.0744  0.2327
 3140TIP3    H1 9363   7.442   3.418   2.032  2.9018  1.3603 -0.2334
 3140TIP3    H2 9364   7.410   3.290   1.957 -1.1688  0.7575  2.3718
 3141TIP3   OH2 9365   4.440   2.391   2.407  0.1760 -0.1093  0.2962
 3141TIP3    H1 9366   4.484   2.434   2.481 -0.9426 -0.3343  1.0925
 3141TIP3    H2 9367   4.499   2.319   2.383  1.2567  0.8466  0.0158
 3142TIP3   OH2 9368   7.009   4.325   1.423 -0.2505  0.3571  0.0876
 3142TIP3    H1 9369   7.013   4.359   1.333  1.3220  0.2701  0.1259
 3142TIP3    H2 9370   7.084   4.364   1.467  0.5182 -1.7225  0.6394
 3143TIP3   OH2 9371   8.367   4.454   0.783 -0.7861  0.2889 -0.7444
 3143TIP3    H1 9372   8.443   4.463   0.726 -0.8874  0.5303 -0.8468
 3143TIP3    H2 9373   8.320   4.378   0.749 -0.7723  0.3476 -0.8956
 3144TIP3   OH2 9374   7.958   1.385   1.173 -0.1104  0.2917  0.2695
 3144TIP3    H1 9375   7.890   1.429   1.223 -0.4084 -0.7292  0.7797
 3144TIP3    H2 9376   7.978   1.445   1.101 -0.0614  1.5303  1.2988
 3145TIP3   OH2 9377   6.237   2.178   2.282  0.2105 -0.7364  0.0295
 3145TIP3    H1 9378   6.277   2.250   2.234  0.2432 -1.0233 -0.3813
 3145TIP3    H2 9379   6.149   2.208   2.303  0.0324 -0.7900 -0.6278
 3146TIP3   OH2 9380   0.078   0.765   1.246 -0.2018  0.0989  0.0380
 3146TIP3    H1 9381   0.117   0.689   1.202  0.7123  0.0852  0.8614
 3146TIP3    H2 9382   0.025   0.727   1.316 -0.3852  0.1826 -0.0568
 3147TIP3   OH2 9383   8.206   3.306   2.960  0.0070 -0.3150  0.5210
 3147TIP3    H1 9384   8.243   3.236   3.014  0.5765 -0.8011 -0.4961
 3147TIP3    H2 9385   8.176   3.263   2.881  0.1439  0.5516 -0.0139
 3148TIP3   OH2 9386   3.409   3.451   2.095  0.0854 -0.4123  0.0132
 3148TIP3    H1 9387   3.367   3.480   2.176  0.9372  0.6364  0.0856
 3148TIP3    H2 9388   3.337   3.430   2.036 -0.6307  3.3704 -0.5919
 3149TIP3   OH2 9389   8.126   1.735   1.951  0.0777  0.4684 -0.5706
 3149TIP3    H1 9390   8.207   1.706   1.993  0.7447  0.4538 -1.8194
 3149TIP3    H2 9391   8.078   1.782   2.019  1.6383  1.4103 -0.0970
 3150TIP3   OH2 9392   7.351   2.620   5.859  0.0785 -0.3527 -0.3090
 3150TIP3    H1 9393   7.333   2.594   5.768 -0.0406  0.3840 -0.4996
 3150TIP3    H2 9394   7.330   2.542   5.910 -0.4353 -0.5842 -0.8595
 3151TIP3   OH2 9395   7.996   3.189   1.527 -0.3552  0.4782  0.5375
 3151TIP3    H1 9396   8.065   3.254   1.516  1.8611 -1.5745  2.0203
 3151TIP3    H2 9397   7.920   3.240   1.554  0.3267  2.8628 -1.8030
 3152TIP3   OH2 9398   7.821   2.344   1.916 -0.1060 -0.0849  0.1272
 3152TIP3    H1 9399   7.829   2.283   1.843  0.7842 -0.2547  0.3649
 3152TIP3    H2 9400   7.888   2.317   1.979 -0.4545  0.4342  0.7414
 3153TIP3   OH2 9401   4.272   3.757   2.971  0.3491 -0.1901  0.1624
 3153TIP3    H1 9402   4.302   3.770   3.062  0.5600 -0.6618  0.1620
 3153TIP3    H2 9403   4.351   3.769   2.918  0.2172  0.1226  0.0375
 3154TIP3   OH2 9404   6.901   0.208   2.455 -0.6640 -0.2340  0.1539
 3154TIP3    H1 9405   6.910   0.116   2.429  2.7486 -0.0383  0.3106
 3154TIP3    H2 9406   6.977   0.251   2.415 -1.0736  2.1189  1.7968
 3155TIP3   OH2 9407   7.402   2.715   1.280  0.3813  0.4575 -1.1279
 3155TIP3    H1 9408   7.388   2.622   1.263  0.2996  0.4728 -1.1438
 3155TIP3    H2 9409   7.497   2.726   1.280  0.4368  0.1026  0.3162
 3156TIP3   OH2 9410   5.149   0.832   4.420 -0.1390 -0.0366 -0.0387
 3156TIP3    H1 9411   5.216   0.851   4.354  0.3333  0.9828  0.7191
 3156TIP3    H2 9412   5.073   0.804   4.370  0.4300  0.0917 -0.9855
 3157TIP3   OH2 9413   7.871   3.557   2.981  0.3546 -0.0104 -0.3234
 3157TIP3    H1 9414   7.837   3.643   2.955  0.5106 -0.1449 -0.9954
 3157TIP3    H2 9415   7.899   3.517   2.899  0.4836 -0.6197  0.0138
 3158TIP3   OH2 9416   0.100   1.340   1.414  0.4350 -0.0068 -0.4556
 3158TIP3    H1 9417   0.023   1.285   1.427  0.9410 -0.7324 -0.4814
 3158TIP3    H2 9418   0.136   1.353   1.501  0.7398 -0.3373 -0.5322
 3159TIP3   OH2 9419   7.359   2.437   1.330 -0.3597 -0.7435  0.0014
 3159TIP3    H1 9420   7.329   2.355   1.290  1.5185 -1.1415 -0.6457
 3159TIP3    H2 9421   7.435   2.411   1.382 -0.3323  0.4443  0.5719
 3160TIP3   OH2 9422   0.392   2.010   0.545  0.1866 -0.9328 -0.0223
 3160TIP3    H1 9423   0.310   1.961   0.555  0.2379 -1.1435 -0.6442
 3160TIP3    H2 9424   0.457   1.958   0.591 -0.2523 -0.1811  1.4832
 3161TIP3   OH2 9425   6.689   1.579   1.497 -0.4978 -0.7813 -0.1257
 3161TIP3    H1 9426   6.747   1.636   1.548  0.1417 -1.5598  0.0447
 3161TIP3    H2 9427   6.607   1.578   1.546 -1.0529  1.2519 -0.9806
 3162TIP3   OH2 9428   0.951   1.951   0.072 -0.6640 -0.0162 -0.0711
 3162TIP3    H1 9429   0.886   1.936   0.003 -1.7425 -0.6072  1.0667
 3162TIP3    H2 9430   0.908   1.925   0.153  0.9056 -0.1908  0.7415
 3163TIP3   OH2 9431   0.510   0.654   3.037  0.2629  0.2639 -0.1910
 3163TIP3    H1 9432   0.602   0.635   3.058  0.1202 -1.0968 -0.7104
 3163TIP3    H2 9433   0.514   0.703   2.955  0.6290  2.2599  0.9930
 3164TIP3   OH2 9434   1.560   0.380   0.541 -0.3860 -0.0856 -0.0258
 3164TIP3    H1 9435   1.530   0.429   0.617 -0.5429 -0.3230  0.0668
 3164TIP3    H2 9436   1.480   0.358   0.493 -0.3037 -0.1006 -0.1571
 3165TIP3   OH2 9437   1.914   4.120   1.647  0.0545 -0.2566  0.5564
 3165TIP3    H1 9438   1.878   4.082   1.568 -1.9541  1.2819  0.6683
 3165TIP3    H2 9439   1.872   4.206   1.653  0.2676 -0.2929  3.1976
 3166TIP3   OH2 9440   1.140   0.629   1.912  0.2270 -0.0853  0.0789
 3166TIP3    H1 9441   1.055   0.585   1.910 -0.1672  0.7005 -1.9964
 3166TIP3    H2 9442   1.156   0.646   2.005 -3.2925  2.3673  0.3644
 3167TIP3   OH2 9443   5.679   7.741   2.708 -0.2793  0.1373  0.2155
 3167TIP3    H1 9444   5.711   7.661   2.750 -0.4368 -0.0457 -0.0091
 3167TIP3    H2 9445   5.736   7.810   2.741  2.1590 -0.5960 -2.3505
 3168TIP3   OH2 9446   7.225   2.144   0.697  0.0225 -0.2361  0.7411
 3168TIP3    H1 9447   7.145   2.103   0.665 -1.1652  3.1762 -0.8431
 3168TIP3    H2 9448   7.286   2.138   0.624 -0.2394  0.9877  0.4107
 3169TIP3   OH2 9449   0.064   1.047   2.572  0.3696 -0.3491 -0.3059
 3169TIP3    H1 9450   0.047   1.141   2.577  0.5308 -0.2731 -1.0469
 3169TIP3    H2 9451   0.105   1.035   2.486 -0.2939 -1.1922 -0.5113
 3170TIP3   OH2 9452   8.307   2.024   0.515  0.2738 -0.3234 -1.0722
 3170TIP3    H1 9453   8.284   2.085   0.445  1.2115 -0.3276 -1.3927
 3170TIP3    H2 9454   8.402   2.013   0.507  0.1489 -1.6040 -0.8377
 3171TIP3   OH2 9455   7.818   1.296   2.546 -0.3349 -0.0437  0.7680
 3171TIP3    H1 9456   7.896   1.303   2.602 -0.8802  0.6389  1.4588
 3171TIP3    H2 9457   7.844   1.338   2.464  0.7702 -1.8425  0.1551
 3172TIP3   OH2 9458   7.441   4.707   2.796  0.2293 -0.7550 -0.1430
 3172TIP3    H1 9459   7.393   4.760   2.732 -1.0829 -0.2392  1.2562
 3172TIP3    H2 9460   7.446   4.761   2.874 -1.3188 -2.7732  1.3953
 3173TIP3   OH2 9461   7.295   1.125   2.113 -0.0258 -0.0984  0.1043
 3173TIP3    H1 9462   7.359   1.187   2.148  0.2012 -0.6100  0.6030
 3173TIP3    H2 9463   7.342   1.041   2.111 -0.6941 -0.4839  0.5229
 3174TIP3   OH2 9464   6.890   1.626   3.487  0.0643  0.1287  0.2753
 3174TIP3    H1 9465   6.875   1.720   3.495 -0.8048  0.0420 -0.4031
 3174TIP3    H2 9466   6.908   1.598   3.577  0.0184  0.8846  0.5264
 3175TIP3   OH2 9467   6.706   3.241   2.468 -0.1404  0.0113  0.2551
 3175TIP3    H1 9468   6.656   3.269   2.391 -0.1215  0.9246  0.5719
 3175TIP3    H2 9469   6.792   3.280   2.456  0.3141 -1.0504  0.0192
 3176TIP3   OH2 9470   6.776   2.391   1.431 -0.1206  0.1912  0.1930
 3176TIP3    H1 9471   6.777   2.302   1.395  1.9724 -0.8617  2.6716
 3176TIP3    H2 9472   6.789   2.379   1.525  0.6140  3.1435  0.5205
 3177TIP3   OH2 9473   0.139   2.373   3.415 -0.5016 -0.1687  0.3908
 3177TIP3    H1 9474   0.119   2.301   3.355 -0.8457  0.1929  0.0731
 3177TIP3    H2 9475   0.127   2.452   3.363 -4.0335  0.3257  1.7775
 3178TIP3   OH2 9476   0.259   0.108   2.438 -0.9173  0.4227 -0.2523
 3178TIP3    H1 9477   0.230   0.031   2.390 -0.8255  0.9196 -1.1196
 3178TIP3    H2 9478   0.312   0.157   2.376 -0.6266  0.9762  0.4182
 3179TIP3   OH2 9479   6.385   2.841   1.498  0.0267  0.3139 -0.5362
 3179TIP3    H1 9480   6.447   2.914   1.491 -0.1062  0.4992  0.2016
 3179TIP3    H2 9481   6.424   2.772   1.444  0.1197  0.9474 -1.2979
 3180TIP3   OH2 9482   7.057   1.993   0.389  0.6339  0.7687  0.1191
 3180TIP3    H1 9483   6.981   2.045   0.413  0.3336  0.4388 -0.0995
 3180TIP3    H2 9484   7.105   2.048   0.326 -0.2960  0.3212 -1.0078
 3181TIP3   OH2 9485   0.571   0.893   4.035  0.0768  0.1695  0.0871
 3181TIP3    H1 9486   0.495   0.950   4.036  0.8221  1.1875  0.0221
 3181TIP3    H2 9487   0.591   0.879   3.943 -0.4419 -0.6543  0.1010
 3182TIP3   OH2 9488   0.047   0.370   2.008 -0.5225 -0.2619 -0.8435
 3182TIP3    H1 9489  -0.008   0.404   2.079 -0.3820  1.6006 -1.6212
 3182TIP3    H2 9490   0.114   0.319   2.053  0.3545  1.9767  0.4835
 3183TIP3   OH2 9491   6.127   2.648   1.833 -0.0607 -0.2226 -0.1490
 3183TIP3    H1 9492   6.201   2.690   1.790 -0.0858  0.6048  0.5982
 3183TIP3    H2 9493   6.055   2.710   1.824 -0.0654 -0.0439  1.0670
 3184TIP3   OH2 9494   7.456   2.852   2.218  0.1924  0.2408  0.5510
 3184TIP3    H1 9495   7.401   2.914   2.267 -0.1958  1.0260 -0.8201
 3184TIP3    H2 9496   7.439   2.767   2.258  0.0532  0.8973  1.8961
 3185TIP3   OH2 9497   7.696   2.832   0.500 -0.0259 -0.0650 -0.2438
 3185TIP3    H1 9498   7.769   2.825   0.437  2.1032  1.0010  2.0075
 3185TIP3    H2 9499   7.719   2.770   0.569 -1.4261  0.0993  0.3676
 3186TIP3   OH2 9500   5.286   3.109   3.358  0.1936  0.0388  0.2041
 3186TIP3    H1 9501   5.227   3.184   3.367 -0.8566 -0.4006 -2.5119
 3186TIP3    H2 9502   5.275   3.059   3.438 -2.2734  0.5951  0.2345
 3187TIP3   OH2 9503   7.020   3.550   1.896  0.5903  0.4295 -0.1857
 3187TIP3    H1 9504   7.022   3.605   1.817 -0.6383  1.4085  0.4344
 3187TIP3    H2 9505   6.927   3.537   1.913  0.8689 -1.0614  0.2383
 3188TIP3   OH2 9506   5.979   3.124   3.338  0.2234  0.4917  0.4366
 3188TIP3    H1 9507   5.938   3.194   3.389 -3.8418 -2.0538  0.8916
 3188TIP3    H2 9508   5.943   3.136   3.250  0.7874 -0.0513  0.1337
 3189TIP3   OH2 9509   8.077   3.750   2.502 -0.1115  0.0029  0.1724
 3189TIP3    H1 9510   8.098   3.718   2.415  0.3431  0.1184  0.2395
 3189TIP3    H2 9511   8.138   3.822   2.517 -0.3391  0.1318  0.4959
 3190TIP3   OH2 9512   5.565   1.641   4.203  0.5728  0.0863 -0.0020
 3190TIP3    H1 9513   5.577   1.589   4.124  0.2598 -0.1082  0.0779
 3190TIP3    H2 9514   5.583   1.731   4.176  0.1426  0.0619 -0.3654
 3191TIP3   OH2 9515   5.436   2.953   2.635  0.4072  0.0570  0.3117
 3191TIP3    H1 9516   5.396   2.900   2.704 -0.8867  0.2386 -0.2812
 3191TIP3    H2 9517   5.405   3.042   2.654  1.8664  0.4711  0.7982
 3192TIP3   OH2 9518   7.945   2.736   2.820 -0.5554  0.9098 -0.4514
 3192TIP3    H1 9519   8.004   2.698   2.756 -1.0947 -0.2859 -0.2568
 3192TIP3    H2 9520   8.002   2.780   2.883  0.1045  0.0856 -0.4657
 3193TIP3   OH2 9521   0.706   1.043   1.245  0.0483  0.0324  0.1800
 3193TIP3    H1 9522   0.748   0.960   1.223 -1.2904 -0.8434  0.8161
 3193TIP3    H2 9523   0.778   1.106   1.251  0.9664 -0.8270 -1.4265
 3194TIP3   OH2 9524   7.189   1.835   1.504  0.2850  0.6250 -0.3937
 3194TIP3    H1 9525   7.236   1.774   1.561  0.1819 -0.4144 -1.3994
 3194TIP3    H2 9526   7.128   1.879   1.563 -0.3955 -1.0243  0.1770
 3195TIP3   OH2 9527   6.787   1.040   2.514 -0.1235  0.1430  0.3136
 3195TIP3    H1 9528   6.791   1.136   2.513 -0.1092  0.1375 -0.4503
 3195TIP3    H2 9529   6.757   1.018   2.602  0.1964  0.8405  0.5964
 3196TIP3   OH2 9530   6.642   2.962   0.618  0.4345  0.4710  0.5271
 3196TIP3    H1 9531   6.668   2.896   0.682  0.7132 -1.5857 -1.6640
 3196TIP3    H2 9532   6.594   3.027   0.670 -0.3189 -1.6941  2.6414
 3197TIP3   OH2 9533   8.322   0.533   1.238  0.5204  0.0052 -0.0037
 3197TIP3    H1 9534   8.381   0.458   1.228 -0.1356 -0.8480  2.3313
 3197TIP3    H2 9535   8.352   0.577   1.318 -0.7947  0.6631  0.1488
 3198TIP3   OH2 9536   6.939   3.422   0.534 -0.0223  0.0490  0.2521
 3198TIP3    H1 9537   6.931   3.355   0.602  0.4731  0.3161  0.5839
 3198TIP3    H2 9538   6.866   3.407   0.475 -0.5258 -0.1136  0.9167
 3199TIP3   OH2 9539   3.177   7.604   2.770  0.1682 -0.1930  0.1672
 3199TIP3    H1 9540   3.240   7.636   2.705  0.9077  0.2805  1.0864
 3199TIP3    H2 9541   3.178   7.509   2.761 -1.1950 -0.0548 -1.8288
 3200TIP3   OH2 9542   4.528   7.720   1.883  0.3244 -0.5941  0.1987
 3200TIP3    H1 9543   4.459   7.732   1.817  0.4827  2.4123  0.5477
 3200TIP3    H2 9544   4.546   7.807   1.916  1.3558 -1.8775  3.1671
 3201TIP3   OH2 9545   0.134   3.481   3.738  0.6442  0.6024  0.6457
 3201TIP3    H1 9546   0.178   3.560   3.771  1.9465 -0.0081  0.3800
 3201TIP3    H2 9547   0.204   3.426   3.705 -0.4276  0.1056 -0.8724
 3202TIP3   OH2 9548   1.348   3.465   1.941 -0.0130 -0.4334 -0.3665
 3202TIP3    H1 9549   1.283   3.530   1.970 -0.8735 -2.2126  1.8579
 3202TIP3    H2 9550   1.430   3.494   1.982  0.1371  0.5738 -1.3569
 3203TIP3   OH2 9551   0.887   2.744   3.750 -0.5039  0.1741  0.0158
 3203TIP3    H1 9552   0.859   2.667   3.700 -2.6317  0.8611  0.0843
 3203TIP3    H2 9553   0.878   2.717   3.842 -0.0091  0.0874  0.0408
 3204TIP3   OH2 9554   0.152   3.790   3.099  0.1372  0.2321  0.3039
 3204TIP3    H1 9555   0.058   3.780   3.113  0.1312  1.5340  1.3083
 3204TIP3    H2 9556   0.159   3.846   3.022  0.0959  0.2804  0.3352
 3205TIP3   OH2 9557   8.340   2.768   1.775 -0.0341 -0.8428  0.1920
 3205TIP3    H1 9558   8.427   2.754   1.737 -0.0530 -0.6362  0.0676
 3205TIP3    H2 9559   8.282   2.773   1.699 -0.4047 -2.6118  0.3441
 3206TIP3   OH2 9560   2.363   6.051   0.245 -0.2751 -0.7480 -0.1369
 3206TIP3    H1 9561   2.311   6.039   0.166 -1.0747 -0.7217  0.3828
 3206TIP3    H2 9562   2.328   6.132   0.284  1.3717  0.2872 -0.7362
 3207TIP3   OH2 9563   1.892   4.667   1.907 -0.1590 -0.6895 -0.4227
 3207TIP3    H1 9564   1.831   4.707   1.970  0.1142 -1.2455  0.1993
 3207TIP3    H2 9565   1.897   4.575   1.933  0.9682 -0.6477 -0.4523
 3208TIP3   OH2 9566   8.458   2.722   3.902 -0.2423  0.0175 -0.3953
 3208TIP3    H1 9567   8.538   2.749   3.946  0.1896  0.4322 -1.4281
 3208TIP3    H2 9568   8.460   2.626   3.904  0.5598  0.0269 -0.9358
 3209TIP3   OH2 9569   1.162   3.441   2.777 -0.0252  0.2713 -0.1321
 3209TIP3    H1 9570   1.160   3.394   2.693  1.2251 -0.7621  0.3951
 3209TIP3    H2 9571   1.223   3.514   2.762 -0.1590  0.3585 -0.2566
 3210TIP3   OH2 9572   5.992   3.867   3.976 -0.0885  1.1274 -0.3618
 3210TIP3    H1 9573   5.981   3.884   3.882 -0.5502  1.1242 -0.3096
 3210TIP3    H2 9574   6.078   3.903   3.997  0.6961 -0.2920 -1.1211
 3211TIP3   OH2 9575   0.304   1.576   1.846  0.6854  0.2376  0.4072
 3211TIP3    H1 9576   0.250   1.532   1.911  1.2986  0.1182  0.8388
 3211TIP3    H2 9577   0.367   1.626   1.898 -0.7447  2.5974 -0.0280
 3212TIP3   OH2 9578   1.494   2.544   1.691  0.3414  0.4789 -0.2555
 3212TIP3    H1 9579   1.399   2.527   1.692  0.6193 -1.1243  1.7965
 3212TIP3    H2 9580   1.531   2.467   1.647  0.9766 -0.7069  2.2752
 3213TIP3   OH2 9581   2.373   2.594   1.661 -0.7531  0.0253  0.4735
 3213TIP3    H1 9582   2.458   2.621   1.697 -1.2560  1.3440  0.6803
 3213TIP3    H2 9583   2.313   2.595   1.736 -0.7631 -1.7939  0.5088
 3214TIP3   OH2 9584   8.131   3.914   4.991 -0.7654  0.0071  0.0744
 3214TIP3    H1 9585   8.156   3.973   4.919 -0.5425  0.3592  0.4374
 3214TIP3    H2 9586   8.157   3.827   4.961  2.2561  0.5381  1.0482
 3215TIP3   OH2 9587   3.238   5.679   3.507 -0.2339  0.4828  0.2568
 3215TIP3    H1 9588   3.193   5.738   3.567  0.1570 -0.3155  1.3633
 3215TIP3    H2 9589   3.181   5.672   3.431 -0.9824  1.0990  0.7622
 3216TIP3   OH2 9590   8.231   1.789   3.261  0.3414  0.3599  0.3617
 3216TIP3    H1 9591   8.140   1.819   3.254 -0.1621 -0.9261  1.0869
 3216TIP3    H2 9592   8.255   1.807   3.352  0.8405  0.7670  0.1504
 3217TIP3   OH2 9593   8.389   0.394   6.845 -0.1517  0.2536  0.1704
 3217TIP3    H1 9594   8.306   0.348   6.830 -1.5284  3.0512 -1.2211
 3217TIP3    H2 9595   8.417   0.421   6.758  0.9632  1.4777  0.9045
 3218TIP3   OH2 9596   0.728   3.732   3.220  0.9582  0.4337 -0.8721
 3218TIP3    H1 9597   0.736   3.785   3.141 -1.7013  1.5281 -0.4460
 3218TIP3    H2 9598   0.699   3.647   3.189  1.5018  0.3813 -1.2302
 3219TIP3   OH2 9599   7.662   3.776   1.845 -0.4187 -0.1700 -0.2530
 3219TIP3    H1 9600   7.701   3.695   1.877 -0.0995 -0.2308 -0.7873
 3219TIP3    H2 9601   7.670   3.837   1.919 -0.0944 -0.4409 -0.0610
 3220TIP3   OH2 9602   8.402   0.879   3.246 -0.5837  0.4861 -0.2529
 3220TIP3    H1 9603   8.495   0.868   3.266 -1.0954  0.5456  2.2515
 3220TIP3    H2 9604   8.400   0.951   3.183  1.1438 -0.3086 -1.2870
 3221TIP3   OH2 9605   1.055   5.613   5.357  0.0570  0.0569  0.3729
 3221TIP3    H1 9606   1.042   5.676   5.286 -0.9931 -1.2651 -0.6232
 3221TIP3    H2 9607   1.135   5.566   5.333  0.6849  0.8105  0.9737
 3222TIP3   OH2 9608   8.190   3.731   4.221  0.6119 -0.9989 -0.2621
 3222TIP3    H1 9609   8.142   3.742   4.139  0.7631 -2.0752 -0.4919
 3222TIP3    H2 9610   8.232   3.646   4.214 -1.4799 -2.2823  2.0238
 3223TIP3   OH2 9611   1.871   2.856   2.220  0.4542  0.2255  0.5593
 3223TIP3    H1 9612   1.790   2.805   2.209  0.2794  0.7260 -0.6134
 3223TIP3    H2 9613   1.940   2.797   2.191  0.6033 -0.4645  2.2628
 3224TIP3   OH2 9614   1.891   2.754   3.550 -0.8539  0.5177  0.3569
 3224TIP3    H1 9615   1.873   2.672   3.503 -3.2565  0.7122  0.8795
 3224TIP3    H2 9616   1.927   2.725   3.634 -1.7586 -0.0187  0.5668
 3225TIP3   OH2 9617   0.308   5.302   3.119  0.5025  0.6716 -0.0732
 3225TIP3    H1 9618   0.220   5.267   3.138  0.4746  1.2794  0.9881
 3225TIP3    H2 9619   0.365   5.225   3.120  0.0185  0.3061 -0.4999
 3226TIP3   OH2 9620   0.181   3.139   1.691  0.3023  0.1306  0.3076
 3226TIP3    H1 9621   0.173   3.169   1.601  1.8507  0.0842  0.1429
 3226TIP3    H2 9622   0.153   3.215   1.744  0.4512  0.5312 -0.1863
 3227TIP3   OH2 9623   1.560   4.456   2.626 -0.3963  0.2027  0.5296
 3227TIP3    H1 9624   1.517   4.521   2.570  2.0060  0.4865 -1.0572
 3227TIP3    H2 9625   1.575   4.501   2.709  0.3709  1.3834 -0.2364
 3228TIP3   OH2 9626   1.068   1.608   0.170 -0.0487  0.3600  0.1101
 3228TIP3    H1 9627   1.010   1.667   0.217  0.1611  2.1175 -1.7486
 3228TIP3    H2 9628   1.019   1.582   0.093  0.8560  0.2141 -0.4252
 3229TIP3   OH2 9629   0.917   2.886   2.656  0.2747  0.7794 -0.3492
 3229TIP3    H1 9630   0.908   2.971   2.612  0.7076 -0.0800 -2.1733
 3229TIP3    H2 9631   0.827   2.856   2.670  0.1021  0.1163 -2.6296
 3230TIP3   OH2 9632   0.770   1.485   1.866  0.6598 -0.3301 -0.4973
 3230TIP3    H1 9633   0.742   1.499   1.776  2.4121  0.8302 -0.8982
 3230TIP3    H2 9634   0.762   1.571   1.907  0.7658 -0.6478  0.1904
 3231TIP3   OH2 9635   3.055   6.034   2.482 -0.1803 -0.6732 -0.7002
 3231TIP3    H1 9636   3.093   5.952   2.451 -1.3660 -1.2461 -0.6570
 3231TIP3    H2 9637   3.126   6.078   2.527  0.2031 -2.1175  0.1154
 3232TIP3   OH2 9638   1.449   2.353   2.748  0.3786 -0.3411  0.1677
 3232TIP3    H1 9639   1.412   2.432   2.785 -0.9585 -0.6483 -0.4580
 3232TIP3    H2 9640   1.483   2.380   2.663 -0.5363 -0.5224 -0.2675
 3233TIP3   OH2 9641   1.713   3.380   4.547 -0.1450 -0.1440  0.0437
 3233TIP3    H1 9642   1.672   3.433   4.614  1.3295 -0.4549  1.2232
 3233TIP3    H2 9643   1.796   3.352   4.585  1.3322  0.7469 -2.3582
 3234TIP3   OH2 9644   8.264   3.703   5.306  0.0859  0.2256  0.1417
 3234TIP3    H1 9645   8.218   3.622   5.285 -0.0224  0.3558 -0.1242
 3234TIP3    H2 9646   8.311   3.725   5.226 -0.9941  1.1733 -0.2449
 3235TIP3   OH2 9647   0.634   2.126   1.946 -0.0186 -0.3556  0.1637
 3235TIP3    H1 9648   0.659   2.141   2.037 -0.7033 -2.4079  0.7104
 3235TIP3    H2 9649   0.682   2.047   1.920 -0.8906 -0.5841 -0.8086
 3236TIP3   OH2 9650   8.009   0.373   1.151  0.0793  0.5076  0.0074
 3236TIP3    H1 9651   8.003   0.308   1.221  0.7118  2.3014  1.7651
 3236TIP3    H2 9652   8.078   0.338   1.093 -1.1562 -1.4887 -0.3098
 3237TIP3   OH2 9653   0.813   6.100   4.017  0.2752 -0.3106  0.2712
 3237TIP3    H1 9654   0.862   6.034   4.066 -0.6019  0.2270  1.9038
 3237TIP3    H2 9655   0.732   6.056   3.992  0.8740 -0.6975 -1.0499
 3238TIP3   OH2 9656   0.649   2.833   0.361  0.3025 -0.3647 -0.6647
 3238TIP3    H1 9657   0.592   2.874   0.426 -1.6231 -1.2330 -1.7507
 3238TIP3    H2 9658   0.696   2.905   0.320  0.4071  0.3130  0.6123
 3239TIP3   OH2 9659   7.507   0.718   4.649  0.7927 -0.3064 -0.1099
 3239TIP3    H1 9660   7.456   0.661   4.706  1.3815 -0.3955  0.3375
 3239TIP3    H2 9661   7.593   0.724   4.691  1.0294  0.1587 -0.6416
 3240TIP3   OH2 9662   7.462   4.204   2.696  0.4140  0.7195  0.5086
 3240TIP3    H1 9663   7.425   4.160   2.773  2.1483  0.2699  1.1244
 3240TIP3    H2 9664   7.435   4.296   2.706 -0.3908  0.4353  1.0064
 3241TIP3   OH2 9665   7.328   3.536   4.983  0.2579 -0.1653  0.5207
 3241TIP3    H1 9666   7.399   3.536   4.918  0.6693 -0.0605  0.9679
 3241TIP3    H2 9667   7.248   3.545   4.931  0.6157  0.3783  0.0663
 3242TIP3   OH2 9668   3.240   4.456   1.988  0.5446 -0.2062  0.3124
 3242TIP3    H1 9669   3.265   4.377   1.939 -0.2194 -0.3349  0.1213
 3242TIP3    H2 9670   3.185   4.423   2.059 -2.8655  0.4794 -1.9207
 3243TIP3   OH2 9671   1.194   1.658   1.272  0.3236  0.4572 -0.4875
 3243TIP3    H1 9672   1.173   1.575   1.314 -0.5769  1.9114  2.0426
 3243TIP3    H2 9673   1.273   1.640   1.220  0.6313 -1.7442  0.7190
 3244TIP3   OH2 9674   1.763   3.900   4.892 -0.0542  0.1833  0.4989
 3244TIP3    H1 9675   1.677   3.860   4.879 -0.0817  0.5265 -0.4253
 3244TIP3    H2 9676   1.817   3.866   4.820  0.6471 -0.1883  1.1881
 3245TIP3   OH2 9677   8.467   2.827   3.655 -0.2820  0.1122  0.3645
 3245TIP3    H1 9678   8.437   2.770   3.584  0.4038 -0.4959  0.5603
 3245TIP3    H2 9679   8.470   2.770   3.732 -1.6228  0.9120  1.0331
 3246TIP3   OH2 9680   7.654   2.127   1.150  0.4414 -0.0548  0.2875
 3246TIP3    H1 9681   7.721   2.163   1.208  0.6943  0.9614 -0.6220
 3246TIP3    H2 9682   7.679   2.157   1.063 -2.7521  2.8152  0.2387
 3247TIP3   OH2 9683   7.405   3.233   2.575  0.9716  0.5861 -0.4200
 3247TIP3    H1 9684   7.400   3.327   2.559  0.2855  0.0143 -3.8163
 3247TIP3    H2 9685   7.436   3.195   2.493 -2.1968 -2.4943 -0.3394
 3248TIP3   OH2 9686   7.379   2.768   2.714  0.2336  0.1627 -0.4154
 3248TIP3    H1 9687   7.297   2.744   2.671  0.1607 -0.7293  0.1954
 3248TIP3    H2 9688   7.368   2.739   2.805  0.8376  0.9492 -0.0830
 3249TIP3   OH2 9689   8.346   4.047   3.576  0.8452 -0.4258 -0.1912
 3249TIP3    H1 9690   8.384   3.981   3.519 -1.1866 -1.2950 -0.5844
 3249TIP3    H2 9691   8.347   4.128   3.525  0.9152 -0.7509 -0.7036
 3250TIP3   OH2 9692   7.207   2.038   5.559  0.5954 -0.1161  0.5199
 3250TIP3    H1 9693   7.155   2.116   5.540 -1.6264 -1.1106  2.2693
 3250TIP3    H2 9694   7.178   1.974   5.494 -0.2060 -0.5862  1.3273
 3251TIP3   OH2 9695   2.165   2.660   3.810  0.0169 -0.2280  0.3215
 3251TIP3    H1 9696   2.115   2.601   3.867 -0.4909 -1.5588 -1.4716
 3251TIP3    H2 9697   2.210   2.602   3.749  1.4788  1.1304  0.0892
 3252TIP3   OH2 9698   8.183   1.791   2.414 -0.0291  0.1959  0.0543
 3252TIP3    H1 9699   8.204   1.718   2.356 -0.4276 -0.1869  0.3860
 3252TIP3    H2 9700   8.227   1.867   2.376  1.3918 -0.4636  0.3737
 3253TIP3   OH2 9701   0.822   2.953   1.771  0.4745 -0.0652  0.7056
 3253TIP3    H1 9702   0.854   2.991   1.690 -0.9357  0.5681  0.4192
 3253TIP3    H2 9703   0.762   3.020   1.806 -0.5243 -1.2004  1.1892
 3254TIP3   OH2 9704   1.700   1.564   2.637 -0.2532 -0.1933  0.4471
 3254TIP3    H1 9705   1.746   1.582   2.555  1.1812 -1.4846  0.9282
 3254TIP3    H2 9706   1.655   1.646   2.658  2.2054  1.2990  0.1588
 3255TIP3   OH2 9707   7.675   1.865   3.719 -0.1766 -0.5237 -0.1333
 3255TIP3    H1 9708   7.733   1.896   3.788  0.5096 -0.1589 -0.8703
 3255TIP3    H2 9709   7.699   1.917   3.642 -1.2731 -0.5739 -0.5232
 3256TIP3   OH2 9710   1.149   6.361   6.789  0.1848  0.2539 -0.1535
 3256TIP3    H1 9711   1.056   6.379   6.799  0.2173  0.9913 -1.1297
 3256TIP3    H2 9712   1.168   6.296   6.857 -1.4122 -1.2273 -1.0908
 3257TIP3   OH2 9713   6.213   2.958   2.249 -0.1366 -0.5621 -0.3991
 3257TIP3    H1 9714   6.122   2.928   2.242 -0.3968  0.2309 -0.5122
 3257TIP3    H2 9715   6.222   2.981   2.342  0.3424 -1.8399 -0.1149
 3258TIP3   OH2 9716   0.638   2.018   4.589 -0.0345  0.3718 -0.0434
 3258TIP3    H1 9717   0.633   1.922   4.592  0.8101  0.2620 -1.6492
 3258TIP3    H2 9718   0.562   2.045   4.538  0.5140  0.4513 -0.8323
 3259TIP3   OH2 9719   1.822   2.372   4.043 -0.5278 -0.4601  1.1018
 3259TIP3    H1 9720   1.833   2.278   4.049 -1.2250 -0.5886  0.4581
 3259TIP3    H2 9721   1.901   2.403   3.999  0.1217 -0.6291  2.1282
 3260TIP3   OH2 9722   0.654   3.745   2.819 -0.2745  0.4739 -0.2410
 3260TIP3    H1 9723   0.734   3.720   2.773 -1.3124 -0.1578 -1.7528
 3260TIP3    H2 9724   0.636   3.673   2.879  0.3270  0.6444  0.1381
 3261TIP3   OH2 9725   0.226   1.394   2.337 -0.1328 -0.3588 -0.5869
 3261TIP3    H1 9726   0.309   1.428   2.369 -0.5030 -0.4304  0.4661
 3261TIP3    H2 9727   0.236   1.298   2.341  0.0048 -0.3711 -1.1765
 3262TIP3   OH2 9728   8.288   1.811   1.364 -0.3894 -0.3338  0.1271
 3262TIP3    H1 9729   8.300   1.729   1.317 -2.1076 -0.8582  0.5506
 3262TIP3    H2 9730   8.215   1.793   1.424  0.6427  0.8372  1.7639
 3263TIP3   OH2 9731   1.944   2.955   3.820  0.4820  0.4189 -0.2157
 3263TIP3    H1 9732   1.914   2.864   3.811  0.8947  0.2836 -0.1944
 3263TIP3    H2 9733   2.037   2.948   3.842  0.0429  0.7808  1.9054
 3264TIP3   OH2 9734   1.614   0.795   1.735 -0.2872  0.4161  0.0558
 3264TIP3    H1 9735   1.566   0.869   1.696 -0.8857 -0.3426 -0.6476
 3264TIP3    H2 9736   1.572   0.781   1.819  0.7578  1.8050  0.8410
 3265TIP3   OH2 9737   0.481   1.125   1.099 -0.0395  0.1128 -0.0363
 3265TIP3    H1 9738   0.407   1.166   1.144  2.1206  2.1749  1.7526
 3265TIP3    H2 9739   0.548   1.114   1.166  1.2875 -1.8237 -1.5960
 3266TIP3   OH2 9740   0.464   2.724   3.746 -0.0901  0.2018 -0.3334
 3266TIP3    H1 9741   0.505   2.688   3.667 -1.0236 -0.4955 -0.5046
 3266TIP3    H2 9742   0.401   2.788   3.713  0.9418  1.3537 -0.0652
 3267TIP3   OH2 9743   6.028   7.995   1.563  0.0516  0.0204 -0.1916
 3267TIP3    H1 9744   6.116   8.011   1.599  0.4770 -1.1805 -0.6628
 3267TIP3    H2 9745   6.023   7.899   1.556 -0.9433  0.1390 -1.0645
 3268TIP3   OH2 9746   0.423   3.292   3.756  0.0360 -0.0500 -0.0000
 3268TIP3    H1 9747   0.468   3.350   3.694 -1.6698 -0.5598 -1.7554
 3268TIP3    H2 9748   0.472   3.210   3.753 -0.0738 -0.0924 -0.7502
 3269TIP3   OH2 9749   7.857   2.938   3.956  0.0436  0.2977  0.4426
 3269TIP3    H1 9750   7.850   2.995   3.878 -1.2033 -0.5588 -0.0857
 3269TIP3    H2 9751   7.898   2.858   3.923 -1.6649 -0.5729  0.3697
 3270TIP3   OH2 9752   1.986   1.936   0.163 -0.0215  0.1829  0.2181
 3270TIP3    H1 9753   1.893   1.919   0.150 -0.2054  2.0260 -0.9788
 3270TIP3    H2 9754   1.992   1.968   0.253 -0.6260  0.6767  0.0831
 3271TIP3   OH2 9755   7.472   2.380   2.971 -0.3814 -0.4431  0.2445
 3271TIP3    H1 9756   7.445   2.469   2.949  0.1682 -0.1163  0.8678
 3271TIP3    H2 9757   7.496   2.384   3.064  0.4490 -1.0421  0.0671
 3272TIP3   OH2 9758   0.294   1.640   3.827 -0.0632 -0.7410 -0.2297
 3272TIP3    H1 9759   0.305   1.618   3.919  0.0273 -0.4432 -0.1692
 3272TIP3    H2 9760   0.202   1.619   3.808 -0.1922 -0.4081  0.0318
 3273TIP3   OH2 9761   6.126   3.442   1.761 -0.5882  0.1358  0.1409
 3273TIP3    H1 9762   6.174   3.365   1.729  0.6205  1.4323 -1.2143
 3273TIP3    H2 9763   6.172   3.467   1.841  0.4246  0.7989 -0.6376
 3274TIP3   OH2 9764   1.642   3.475   3.962  0.6527 -0.3514  0.0731
 3274TIP3    H1 9765   1.677   3.427   4.037  0.7197 -0.7482 -0.2112
 3274TIP3    H2 9766   1.548   3.477   3.977  0.6417 -0.6405  0.0439
 3275TIP3   OH2 9767   0.300   1.739   1.591 -0.5693  0.4752  0.5688
 3275TIP3    H1 9768   0.277   1.686   1.668  0.5871 -1.2452 -0.2333
 3275TIP3    H2 9769   0.238   1.712   1.524  0.6911 -0.6829 -0.1630
 3276TIP3   OH2 9770   6.327   3.097   5.004 -0.1962  0.1946  0.0596
 3276TIP3    H1 9771   6.410   3.093   4.957 -0.8102  0.1759 -1.0566
 3276TIP3    H2 9772   6.297   3.187   4.991 -1.0924 -0.2248 -0.8892
 3277TIP3   OH2 9773   0.092   2.719   2.534 -0.5031 -0.1558  0.0314
 3277TIP3    H1 9774   0.069   2.636   2.492 -0.1313 -0.0301 -0.4308
 3277TIP3    H2 9775   0.152   2.694   2.604  0.9870 -0.1321 -1.1964
 3278TIP3   OH2 9776   7.333   0.377   2.726 -0.0487 -0.0208  0.2851
 3278TIP3    H1 9777   7.391   0.428   2.783  0.0901 -0.1857  0.2894
 3278TIP3    H2 9778   7.310   0.437   2.655 -0.9302  0.4829  0.9729
 3279TIP3   OH2 9779   1.092   4.341   2.180 -0.2169 -0.1711 -0.2003
 3279TIP3    H1 9780   1.116   4.276   2.114 -1.2186 -1.0005  0.2446
 3279TIP3    H2 9781   1.157   4.330   2.249  1.3003  1.2193 -1.3667
 3280TIP3   OH2 9782   0.583   2.866   5.106 -0.1075  0.4347 -0.8257
 3280TIP3    H1 9783   0.547   2.849   5.019 -1.2959  1.9483 -0.6393
 3280TIP3    H2 9784   0.627   2.950   5.098  0.9280 -0.0368 -0.2817
 3281TIP3   OH2 9785   0.151   3.791   1.387  0.1050  0.4134 -0.2574
 3281TIP3    H1 9786   0.146   3.880   1.422  1.3225  0.7571 -0.8988
 3281TIP3    H2 9787   0.060   3.763   1.377 -0.2852  0.3100  3.1161
 3282TIP3   OH2 9788   6.861   2.082   2.566  0.1022  0.5873  0.6325
 3282TIP3    H1 9789   6.915   2.085   2.487  1.4167 -0.8579  1.4528
 3282TIP3    H2 9790   6.924   2.084   2.639 -1.0640  1.3582  1.6418
 3283TIP3   OH2 9791   2.056   3.215   3.927  0.6106  0.4492 -0.4753
 3283TIP3    H1 9792   1.991   3.207   3.857  0.2427  0.5668 -0.1461
 3283TIP3    H2 9793   2.050   3.133   3.976 -1.5369  1.7143  1.4908
 3284TIP3   OH2 9794   7.655   1.781   3.226  0.2097  0.1396  0.0454
 3284TIP3    H1 9795   7.570   1.742   3.249 -0.6097  1.9148  0.0714
 3284TIP3    H2 9796   7.640   1.819   3.139  1.0877  0.1748 -0.0903
 3285TIP3   OH2 9797   0.402   3.330   1.417  0.2643 -0.5349 -0.3039
 3285TIP3    H1 9798   0.380   3.418   1.449  1.4240  0.1265 -1.2582
 3285TIP3    H2 9799   0.470   3.299   1.476  2.2209  0.5816 -1.8836
 3286TIP3   OH2 9800   7.610   2.507   1.977  1.0264 -0.2019  0.0351
 3286TIP3    H1 9801   7.681   2.445   1.960 -0.9852 -2.3131 -0.9711
 3286TIP3    H2 9802   7.588   2.543   1.892  0.2769 -0.2594  0.1980
 3287TIP3   OH2 9803   0.851   3.180   4.309 -0.1402  0.1893  0.4726
 3287TIP3    H1 9804   0.853   3.085   4.323 -3.1770 -0.0093 -0.2198
 3287TIP3    H2 9805   0.889   3.192   4.222 -0.8369 -0.4953  0.0714
 3288TIP3   OH2 9806   8.332   3.328   1.771 -0.1051 -0.4637 -0.2643
 3288TIP3    H1 9807   8.278   3.407   1.773  1.2703  0.5031 -0.9333
 3288TIP3    H2 9808   8.386   3.337   1.693  2.9003 -0.1609  1.7702
 3289TIP3   OH2 9809   7.231   4.993   2.419 -0.3598  0.2297  0.9924
 3289TIP3    H1 9810   7.206   4.901   2.412 -0.9686  0.4128  0.7303
 3289TIP3    H2 9811   7.290   5.008   2.345 -1.5813  0.4729  0.0505
 3290TIP3   OH2 9812   5.735   2.504   3.150  0.3769 -0.1875  0.3839
 3290TIP3    H1 9813   5.671   2.493   3.221  1.9620 -2.3393  1.5548
 3290TIP3    H2 9814   5.747   2.598   3.142 -0.5796  0.1126  2.2911
 3291TIP3   OH2 9815   1.733   4.504   5.215  0.0652 -0.1075 -0.1704
 3291TIP3    H1 9816   1.694   4.425   5.252  0.8320 -0.7083 -0.6176
 3291TIP3    H2 9817   1.691   4.576   5.262 -0.1059 -0.8035  0.7735
 3292TIP3   OH2 9818   8.225   4.465   2.873 -0.2356 -0.1159  0.1255
 3292TIP3    H1 9819   8.280   4.541   2.889  1.1171 -0.9347 -0.5661
 3292TIP3    H2 9820   8.136   4.496   2.890  0.2946  1.6051 -0.1630
 3293TIP3   OH2 9821   6.750   4.868   2.192 -0.1036 -0.2255 -0.5714
 3293TIP3    H1 9822   6.786   4.780   2.201  0.8077 -0.2904 -4.0615
 3293TIP3    H2 9823   6.661   4.855   2.159 -0.2651  0.1738 -0.3062
 3294TIP3   OH2 9824   8.027   2.607   0.833 -0.1203  0.1233  0.4063
 3294TIP3    H1 9825   8.049   2.588   0.924 -0.0483 -0.1806  0.3269
 3294TIP3    H2 9826   7.996   2.523   0.798  0.2751  0.1312  0.0265
 3295TIP3   OH2 9827   0.068   3.307   1.911  0.0917  0.2529  0.0625
 3295TIP3    H1 9828  -0.020   3.317   1.875  0.5995  1.5383 -0.8440
 3295TIP3    H2 9829   0.054   3.282   2.002 -1.2086 -2.4778 -0.8319
 3296TIP3   OH2 9830   0.036   3.195   5.044 -0.0399  0.0379  0.1412
 3296TIP3    H1 9831   0.101   3.262   5.023  0.2089 -0.0861  0.5084
 3296TIP3    H2 9832   0.005   3.165   4.959 -0.1170  0.5850 -0.0266
 3297TIP3   OH2 9833   0.506   2.675   3.481  0.0673  0.3524 -0.1414
 3297TIP3    H1 9834   0.524   2.715   3.396  2.2767 -0.1494  0.0482
 3297TIP3    H2 9835   0.488   2.583   3.461 -2.4980  0.8721 -0.3375
 3298TIP3   OH2 9836   2.402   5.341   6.942 -0.2747  0.5737  0.2753
 3298TIP3    H1 9837   2.481   5.300   6.978  0.7508  0.8419 -1.6539
 3298TIP3    H2 9838   2.433   5.418   6.895 -1.7748  1.1020  0.1031
 3299TIP3   OH2 9839   7.715   2.680   2.168 -0.0039  0.2052 -0.3103
 3299TIP3    H1 9840   7.664   2.615   2.121  0.3154 -0.2253 -0.0700
 3299TIP3    H2 9841   7.683   2.765   2.137  0.1811 -0.0754 -1.2675
 3300TIP3   OH2 9842   0.530   1.275   2.065  0.1632 -0.0072  0.3932
 3300TIP3    H1 9843   0.535   1.367   2.090 -0.0353 -0.5270  2.5062
 3300TIP3    H2 9844   0.541   1.228   2.148 -2.1910 -1.8370 -0.2860
 3301TIP3   OH2 9845   0.826   2.358   1.845  0.5008 -0.7487 -0.2608
 3301TIP3    H1 9846   0.788   2.273   1.867 -1.3978  0.1655  0.0387
 3301TIP3    H2 9847   0.763   2.422   1.877  1.4350  0.7745 -1.3904
 3302TIP3   OH2 9848   8.408   0.153   1.610 -0.1812 -0.2142 -0.2106
 3302TIP3    H1 9849   8.493   0.112   1.595  0.2696  0.3648  0.6879
 3302TIP3    H2 9850   8.388   0.135   1.702 -1.4203 -1.0519 -0.6368
 3303TIP3   OH2 9851   7.714   4.374   1.605 -0.3496  0.3170  0.0806
 3303TIP3    H1 9852   7.748   4.294   1.646 -1.4273 -0.7991 -1.1442
 3303TIP3    H2 9853   7.785   4.406   1.550 -0.2165 -0.2878 -0.0992
 3304TIP3   OH2 9854   0.633   1.221   2.689  0.0037 -0.9441 -0.2945
 3304TIP3    H1 9855   0.690   1.225   2.765  0.1769  0.5955 -0.4874
 3304TIP3    H2 9856   0.691   1.236   2.614 -0.7431  1.6522 -0.4230
 3305TIP3   OH2 9857   0.674   2.576   1.565  0.6014 -0.1949 -0.0354
 3305TIP3    H1 9858   0.752   2.596   1.615  2.2071  1.5448 -3.0470
 3305TIP3    H2 9859   0.615   2.650   1.581 -0.0494 -1.0041  1.4179
 3306TIP3   OH2 9860   7.561   2.755   0.264 -0.4628  0.1199  0.1871
 3306TIP3    H1 9861   7.601   2.671   0.238 -2.8948 -0.8530 -0.5325
 3306TIP3    H2 9862   7.596   2.771   0.352  0.2180 -1.5456  0.2504
 3307TIP3   OH2 9863   8.258   1.986   2.129  0.4263  0.3562  0.1534
 3307TIP3    H1 9864   8.210   2.061   2.092  2.7474  1.2626 -1.1325
 3307TIP3    H2 9865   8.303   2.022   2.206 -0.9613 -0.4987  1.3802
 3308TIP3   OH2 9866   1.910   3.407   3.552  0.4021 -0.1309 -0.2019
 3308TIP3    H1 9867   1.834   3.442   3.598 -1.0050 -1.1196 -1.7169
 3308TIP3    H2 9868   1.915   3.315   3.579 -0.1168 -0.5779 -1.5844
 3309TIP3   OH2 9869   0.842   2.923   2.053  0.5330  0.2098  0.1432
 3309TIP3    H1 9870   0.749   2.918   2.073  0.4802 -0.4663 -0.2524
 3309TIP3    H2 9871   0.845   2.927   1.957  0.9899 -1.9212  0.0417
 3310TIP3   OH2 9872   0.390   4.357   4.677 -0.1456  0.3239 -0.0462
 3310TIP3    H1 9873   0.381   4.452   4.670  0.5485  0.3294 -0.8272
 3310TIP3    H2 9874   0.410   4.342   4.769  3.2383  1.2206 -0.5809
 3311TIP3   OH2 9875   0.165   4.009   1.564  0.1567 -0.4031 -0.1995
 3311TIP3    H1 9876   0.226   4.083   1.569 -1.6937  1.1517 -0.4583
 3311TIP3    H2 9877   0.169   3.969   1.651  1.8054 -0.5688 -0.3186
 3312TIP3   OH2 9878   0.878   3.457   4.176  0.0785  0.2927 -0.2332
 3312TIP3    H1 9879   0.849   3.548   4.184 -0.5367  0.1262 -0.5627
 3312TIP3    H2 9880   0.799   3.408   4.155  0.4376 -0.2998 -0.2207
 3313TIP3   OH2 9881   8.393   3.422   1.521  0.2596  0.1488 -0.0268
 3313TIP3    H1 9882   8.369   3.412   1.429  1.3484 -0.1326 -0.2912
 3313TIP3    H2 9883   8.486   3.445   1.520  0.5084 -0.7031  1.0261
 3314TIP3   OH2 9884   8.090   2.778   0.464 -0.1120 -0.1020 -0.3977
 3314TIP3    H1 9885   8.155   2.716   0.430 -0.1017 -1.0106  1.2001
 3314TIP3    H2 9886   8.006   2.732   0.454 -0.0497 -0.6230  1.2875
 3315TIP3   OH2 9887   7.685   1.504   3.841 -0.9324  0.2025  0.2370
 3315TIP3    H1 9888   7.709   1.526   3.751  0.8702 -0.9544  0.4085
 3315TIP3    H2 9889   7.757   1.539   3.895 -1.4512 -0.0707  1.1288
 3316TIP3   OH2 9890   1.350   4.455   3.526  0.4202  0.1556  0.1437
 3316TIP3    H1 9891   1.422   4.467   3.588  0.5043  0.6035 -0.0407
 3316TIP3    H2 9892   1.326   4.363   3.535  0.0999  0.3368  1.2151
 3317TIP3   OH2 9893   0.193   2.816   5.825 -0.0699 -0.3366 -0.0211
 3317TIP3    H1 9894   0.110   2.774   5.850  0.4641  0.4509  3.3692
 3317TIP3    H2 9895   0.172   2.909   5.823  0.3124 -0.2725 -0.9176
 3318TIP3   OH2 9896   7.137   2.588   1.395 -0.4084 -0.4434  0.1303
 3318TIP3    H1 9897   7.084   2.616   1.321  0.6265  0.1618 -0.3954
 3318TIP3    H2 9898   7.213   2.545   1.355 -0.6283 -1.5684  0.8739
 3319TIP3   OH2 9899   1.047   2.610   1.559  0.7371 -0.5300  0.1778
 3319TIP3    H1 9900   0.983   2.644   1.621  0.5102  0.5544 -0.6516
 3319TIP3    H2 9901   1.098   2.686   1.532 -0.5128 -0.6253 -2.5436
 3320TIP3   OH2 9902   0.575   2.237   0.928  0.7560 -0.6875  0.3664
 3320TIP3    H1 9903   0.519   2.267   1.000  1.0066 -0.5759  0.5157
 3320TIP3    H2 9904   0.573   2.142   0.934 -0.9994 -0.7531 -0.8408
 3321TIP3   OH2 9905   1.621   2.188   1.274 -0.1755 -0.6071 -0.0772
 3321TIP3    H1 9906   1.527   2.182   1.260 -0.2548 -2.2138  1.0044
 3321TIP3    H2 9907   1.631   2.247   1.349 -0.2548  0.3022 -0.7708
 3322TIP3   OH2 9908   0.192   3.087   2.858  0.2516  0.3867 -0.4554
 3322TIP3    H1 9909   0.205   3.150   2.786  1.1118  1.8647  0.9539
 3322TIP3    H2 9910   0.259   3.020   2.843 -0.7536 -0.2995 -2.0462
 3323TIP3   OH2 9911   0.473   1.760   1.958 -0.6790  0.1131 -0.3168
 3323TIP3    H1 9912   0.567   1.772   1.949 -0.6480 -0.3178 -0.5909
 3323TIP3    H2 9913   0.440   1.845   1.987 -0.3138  0.5042 -1.0585
 3324TIP3   OH2 9914   2.267   3.320   4.079 -0.0498  0.9858  0.0740
 3324TIP3    H1 9915   2.349   3.275   4.099  0.3501  1.9499  0.6251
 3324TIP3    H2 9916   2.238   3.281   3.996  0.4308 -0.0760  0.3904
 3325TIP3   OH2 9917   2.778   3.566   3.894 -0.5958 -0.2756 -0.3455
 3325TIP3    H1 9918   2.827   3.517   3.827 -0.5036  0.0295 -0.5022
 3325TIP3    H2 9919   2.840   3.574   3.967 -0.6854 -0.5803 -0.2368
 3326TIP3   OH2 9920   1.016   4.271   3.760 -0.6914  0.4974  0.3166
 3326TIP3    H1 9921   1.071   4.344   3.790 -0.8347  0.9931 -0.6005
 3326TIP3    H2 9922   0.928   4.307   3.759 -0.6236  0.6545 -1.1860
 3327TIP3   OH2 9923   7.012   2.736   1.200  0.0251 -0.0609  0.1084
 3327TIP3    H1 9924   6.936   2.679   1.192 -0.9285  1.2116 -0.0603
 3327TIP3    H2 9925   7.003   2.798   1.127 -0.2055  1.7609  1.6697
 3328TIP3   OH2 9926   1.379   0.610   4.046 -0.3450  0.4825 -0.2128
 3328TIP3    H1 9927   1.355   0.557   4.122  2.1257 -0.7124 -0.2315
 3328TIP3    H2 9928   1.341   0.696   4.064 -1.2332 -0.2696  1.5735
 3329TIP3   OH2 9929   0.784   1.536   2.646 -0.3580  0.1962  0.5639
 3329TIP3    H1 9930   0.828   1.478   2.585  1.3651  1.0309  0.9783
 3329TIP3    H2 9931   0.752   1.609   2.592 -2.5003 -1.0897  0.0488
 3330TIP3   OH2 9932   1.007   3.265   6.662 -0.0376  0.0100  0.4323
 3330TIP3    H1 9933   1.009   3.339   6.723  0.5569  0.7469 -0.4734
 3330TIP3    H2 9934   0.945   3.204   6.702  0.1611  0.5846  1.6567
 3331TIP3   OH2 9935  -0.021   3.599   4.503 -0.5621 -0.6300  0.0509
 3331TIP3    H1 9936   0.012   3.603   4.413  0.8206 -0.6543  0.5430
 3331TIP3    H2 9937   0.025   3.670   4.548  1.8371 -3.1359  1.7147
 3332TIP3   OH2 9938   8.479   1.496   2.780 -0.2475  0.3544 -0.3799
 3332TIP3    H1 9939   8.566   1.529   2.802 -0.6265 -0.1316  2.0060
 3332TIP3    H2 9940   8.433   1.573   2.744  0.7770  0.9094 -0.5173
 3333TIP3   OH2 9941   8.417   2.861   4.334  0.1926 -0.0513  0.0373
 3333TIP3    H1 9942   8.433   2.953   4.352 -4.1836  0.3383  2.4837
 3333TIP3    H2 9943   8.448   2.815   4.413 -1.8576 -0.1869  0.7818
 3334TIP3   OH2 9944   1.590   5.821   2.612  0.3833 -0.0412 -0.3798
 3334TIP3    H1 9945   1.583   5.804   2.706  2.0149  0.3083 -0.1701
 3334TIP3    H2 9946   1.640   5.748   2.578  1.7581  0.9697 -0.5772
 3335TIP3   OH2 9947   2.365   3.923   4.507  0.2752  0.0711  0.0656
 3335TIP3    H1 9948   2.325   3.978   4.441 -0.6016 -1.3475 -0.6033
 3335TIP3    H2 9949   2.440   3.974   4.539 -0.6244  1.7018 -0.3938
 3336TIP3   OH2 9950   3.143   2.952   4.322 -0.4817 -0.3483 -0.6297
 3336TIP3    H1 9951   3.083   2.878   4.323 -1.4009  0.3835 -0.7213
 3336TIP3    H2 9952   3.104   3.016   4.382  0.2240  0.1163 -0.6531
 3337TIP3   OH2 9953   0.227   3.600   1.150  0.3176  0.0026  0.2719
 3337TIP3    H1 9954   0.132   3.602   1.161  0.6201  0.7202  3.4635
 3337TIP3    H2 9955   0.253   3.692   1.147  0.7082 -0.1565 -3.4704
 3338TIP3   OH2 9956   2.223   3.202   3.299 -0.0711  0.4471  0.1404
 3338TIP3    H1 9957   2.141   3.251   3.299 -0.0582  0.5307  2.6542
 3338TIP3    H2 9958   2.288   3.265   3.268 -0.5137  1.1978  0.7254
 3339TIP3   OH2 9959   7.187   2.980   3.888 -0.1155 -0.0831 -0.2145
 3339TIP3    H1 9960   7.126   2.993   3.815  0.6982  0.2064 -0.8486
 3339TIP3    H2 9961   7.189   2.885   3.900 -0.1935 -0.1392 -0.6229
 3340TIP3   OH2 9962   1.477   5.588   3.701  0.4702 -0.0251  0.7717
 3340TIP3    H1 9963   1.539   5.598   3.773 -0.5725  1.3085  1.5251
 3340TIP3    H2 9964   1.432   5.673   3.697 -0.6146 -0.6402 -0.3872
 3341TIP3   OH2 9965   1.444   2.896   2.648  0.0889  0.8960  0.1338
 3341TIP3    H1 9966   1.430   2.976   2.597 -1.9710  1.7668  1.9324
 3341TIP3    H2 9967   1.505   2.922   2.717 -0.5463  0.9213  0.6935
 3342TIP3   OH2 9968   2.454   4.483   3.335 -0.2546 -0.9249  0.5956
 3342TIP3    H1 9969   2.520   4.448   3.275 -1.4360 -0.7453 -0.8514
 3342TIP3    H2 9970   2.409   4.406   3.368  0.6249 -1.0441  1.5313
 3343TIP3   OH2 9971   0.445   3.126   2.405  0.2520 -0.7594  0.3955
 3343TIP3    H1 9972   0.406   3.038   2.403 -0.6246 -0.3668  0.2197
 3343TIP3    H2 9973   0.395   3.176   2.341 -1.3608  0.7237  2.7298
 3344TIP3   OH2 9974   1.065   4.896   3.292  0.5104  0.1026  0.4332
 3344TIP3    H1 9975   1.029   4.853   3.215  2.4291  0.7052 -0.8388
 3344TIP3    H2 9976   1.122   4.831   3.332 -0.8257 -0.3595  1.6161
 3345TIP3   OH2 9977   7.577   4.143   3.725 -0.3131  0.1399 -0.3466
 3345TIP3    H1 9978   7.549   4.225   3.684 -0.6367 -0.4326 -1.2809
 3345TIP3    H2 9979   7.664   4.126   3.689 -0.7819 -0.5954 -1.1711
 3346TIP3   OH2 9980   6.953   2.240   5.080 -0.5263 -0.0655 -0.1658
 3346TIP3    H1 9981   6.915   2.306   5.022  0.3128  0.4262 -0.1726
 3346TIP3    H2 9982   6.917   2.259   5.166  2.1941  2.4987  0.5050
 3347TIP3   OH2 9983   8.175   2.586   2.387 -0.1260  0.1833  0.0834
 3347TIP3    H1 9984   8.244   2.600   2.323  0.0627  0.1694  0.2828
 3347TIP3    H2 9985   8.103   2.643   2.358  0.1518  0.5690  0.1565
 3348TIP3   OH2 9986   7.841   3.120   3.743  0.1937 -0.3382 -0.1115
 3348TIP3    H1 9987   7.902   3.174   3.692 -0.9581  0.6395 -0.4753
 3348TIP3    H2 9988   7.759   3.169   3.742 -0.4435 -1.3664  0.8627
 3349TIP3   OH2 9989   1.299   2.914   3.325 -0.5507  0.0031  0.6016
 3349TIP3    H1 9990   1.256   2.998   3.341 -0.8535 -0.1258  0.4758
 3349TIP3    H2 9991   1.229   2.849   3.337 -0.1451 -0.2839  1.4485
 3350TIP3   OH2 9992   0.752   1.048   3.091 -0.6472  0.0510 -0.2451
 3350TIP3    H1 9993   0.717   0.959   3.080  1.0522 -0.8115  1.0189
 3350TIP3    H2 9994   0.713   1.079   3.173  0.8352 -0.6163  0.7563
 3351TIP3   OH2 9995   3.574   2.994   4.248  0.0667 -0.2465  0.4877
 3351TIP3    H1 9996   3.622   2.925   4.202  0.8816 -0.7513  2.0664
 3351TIP3    H2 9997   3.548   3.055   4.179  1.9409 -0.5841 -0.5487
 3352TIP3   OH2 9998   2.304   4.001   0.631  0.5933  0.5443  0.0946
 3352TIP3    H1 9999   2.221   4.032   0.667  0.0083 -0.2328 -0.5576
 3352TIP3    H210000   2.363   4.076   0.637 -0.4960  1.4620 -0.5013
 3353TIP3   OH210001   7.453   3.135   6.458 -0.9228 -0.1501 -0.9040
 3353TIP3    H110002   7.379   3.119   6.517 -1.0540 -0.1789 -1.0780
 3353TIP3    H210003   7.413   3.159   6.375 -0.7364 -0.2752 -1.0301
 3354TIP3   OH210004   1.639   2.827   2.474 -0.2423  0.0330 -0.3034
 3354TIP3    H110005   1.704   2.765   2.506  0.0834  0.8831  0.6838
 3354TIP3    H210006   1.561   2.810   2.528  0.0433  0.9006  0.3818
 3355TIP3   OH210007   2.396   1.542   1.956 -0.3914 -0.0548  0.0109
 3355TIP3    H110008   2.386   1.637   1.956 -1.6203 -0.1674 -0.1360
 3355TIP3    H210009   2.339   1.512   1.885 -0.2731 -0.9243  0.2722
 3356TIP3   OH210010   6.769   4.085   2.817  0.0284  0.4913  0.6002
 3356TIP3    H110011   6.704   4.145   2.778 -0.8593  0.3523  1.8336
 3356TIP3    H210012   6.847   4.096   2.762 -0.0161  3.0022  0.9571
 3357TIP3   OH210013   7.629   3.176   4.302 -0.0729  0.3671  0.1843
 3357TIP3    H110014   7.712   3.148   4.264 -0.6513  0.0582 -0.8678
 3357TIP3    H210015   7.563   3.142   4.242 -1.0724 -1.2892  2.1699
 3358TIP3   OH210016   0.177   3.763   4.178 -0.1060  0.6904  1.0970
 3358TIP3    H110017   0.133   3.764   4.092  2.8378  0.4964 -0.4698
 3358TIP3    H210018   0.197   3.854   4.196  0.7983  0.5730  0.7337
 3359TIP3   OH210019   8.404   3.695   3.384  0.3651  0.3131  0.5162
 3359TIP3    H110020   8.324   3.741   3.360 -0.3105 -1.3147 -0.4519
 3359TIP3    H210021   8.437   3.660   3.301  1.4385 -0.0383  1.0793
 3360TIP3   OH210022   1.688   5.131   5.174 -0.3909 -0.2094 -0.1999
 3360TIP3    H110023   1.689   5.169   5.086 -1.3212 -1.0571 -0.5860
 3360TIP3    H210024   1.679   5.207   5.233  0.2562  0.3589 -0.8239
 3361TIP3   OH210025   0.927   2.055   2.556  0.1772  0.5326  0.1818
 3361TIP3    H110026   0.978   1.990   2.604 -0.4254  0.1205  0.2778
 3361TIP3    H210027   0.912   2.015   2.470  1.3523  1.3170 -0.3953
 3362TIP3   OH210028   7.928   4.266   3.441 -0.3442  0.2233 -0.0569
 3362TIP3    H110029   7.853   4.282   3.383  1.0914  0.5653 -1.8428
 3362TIP3    H210030   7.952   4.175   3.424  1.2477  0.8742 -1.4147
 3363TIP3   OH210031   1.405   5.846   3.694 -0.5616 -0.1072 -0.3735
 3363TIP3    H110032   1.379   5.849   3.786  0.1827 -0.7320 -0.1382
 3363TIP3    H210033   1.337   5.896   3.648 -0.5872  0.7490  0.5844
 3364TIP3   OH210034   7.543   2.742   3.886  0.2909 -0.1070  0.1387
 3364TIP3    H110035   7.611   2.689   3.843  0.4525  0.5621 -0.4405
 3364TIP3    H210036   7.518   2.806   3.820 -0.5316 -0.0142  0.5405
 3365TIP3   OH210037   7.946   3.917   3.299 -0.4346  0.1810  0.1914
 3365TIP3    H110038   7.880   3.958   3.242 -1.1978  1.3763  1.8721
 3365TIP3    H210039   7.898   3.849   3.345  0.3216 -1.1761 -0.9879
 3366TIP3   OH210040   6.283   3.479   2.003 -0.4775  0.8920  0.0111
 3366TIP3    H110041   6.233   3.406   2.038 -1.9509  1.2681 -1.2683
 3366TIP3    H210042   6.261   3.554   2.059  0.0675  0.6542  0.5520
 3367TIP3   OH210043   0.446   6.486   2.934  0.0320  0.0907  0.5404
 3367TIP3    H110044   0.472   6.516   2.847 -0.1305  1.3497  0.9123
 3367TIP3    H210045   0.452   6.391   2.930  1.6590  0.2204 -0.3345
 3368TIP3   OH210046   8.016   2.744   2.214  0.0213  0.2423 -0.0978
 3368TIP3    H110047   8.086   2.776   2.158  0.0012  2.0524  0.8918
 3368TIP3    H210048   7.946   2.721   2.153  0.6609  0.4881 -0.9308
 3369TIP3   OH210049   1.800   2.517   2.004  0.3363  0.1574  0.3898
 3369TIP3    H110050   1.739   2.468   2.059  0.2946 -0.3628 -0.1133
 3369TIP3    H210051   1.745   2.572   1.949  0.3295 -0.1046  0.1321
 3370TIP3   OH210052   0.726   2.480   2.853 -0.0837 -0.7128  0.0820
 3370TIP3    H110053   0.674   2.541   2.905 -0.1520 -1.4152  0.8590
 3370TIP3    H210054   0.685   2.482   2.766 -0.2188  0.1712  0.1580
 3371TIP3   OH210055   0.589   2.285   3.828 -0.3743 -0.6227  0.3254
 3371TIP3    H110056   0.528   2.357   3.811 -0.5732 -0.5531  1.3026
 3371TIP3    H210057   0.543   2.207   3.797 -0.3059 -0.3740 -0.4022
 3372TIP3   OH210058   0.987   2.550   2.944 -0.3365  0.3828 -0.3622
 3372TIP3    H110059   0.909   2.545   2.888 -0.6040 -0.9751  0.1123
 3372TIP3    H210060   0.989   2.466   2.990  2.0874 -0.1075 -1.2785
 3373TIP3   OH210061   0.722   1.776   2.515  0.4686  0.0479  0.4506
 3373TIP3    H110062   0.757   1.835   2.448  0.0296  0.0329  0.2083
 3373TIP3    H210063   0.699   1.833   2.588  1.4110  0.0111  0.7902
 3374TIP3   OH210064   7.451   0.285   3.629 -0.3294 -0.1936  0.4276
 3374TIP3    H110065   7.476   0.377   3.623 -1.2093 -0.1420 -3.3087
 3374TIP3    H210066   7.356   0.286   3.641 -0.6306 -0.6075 -1.7530
 3375TIP3   OH210067   8.161   1.934   2.814 -0.1758 -0.5267  0.1510
 3375TIP3    H110068   8.109   2.000   2.767 -3.1461 -1.8611  1.4207
 3375TIP3    H210069   8.215   1.985   2.874 -0.9207  0.8801 -0.3395
 3376TIP3   OH210070   7.638   4.551   5.816 -0.0663 -0.7254  0.0760
 3376TIP3    H110071   7.624   4.463   5.853  0.5181 -1.1822 -0.7755
 3376TIP3    H210072   7.570   4.560   5.749 -0.4828 -0.3007  0.5555
 3377TIP3   OH210073   7.767   1.633   2.822  0.2122  0.3770 -0.0415
 3377TIP3    H110074   7.777   1.725   2.849 -0.5672  0.9675 -1.6576
 3377TIP3    H210075   7.693   1.635   2.762 -0.6440 -1.5532  0.9386
 3378TIP3   OH210076   7.116   4.344   3.785  0.1569  0.3694  0.6949
 3378TIP3    H110077   7.081   4.415   3.839 -0.3361 -0.4229  1.4114
 3378TIP3    H210078   7.137   4.387   3.702  1.0072  1.6155  1.5224
 3379TIP3   OH210079   8.349   3.503   4.135 -0.1971 -0.2817 -0.0091
 3379TIP3    H110080   8.366   3.502   4.040 -1.9475 -0.0893 -0.3317
 3379TIP3    H210081   8.338   3.411   4.158 -1.9357 -0.1890 -0.4069
 3380TIP3   OH210082   6.890   3.619   4.423 -0.1717 -0.7879  0.0744
 3380TIP3    H110083   6.834   3.690   4.454 -0.6643 -1.4287  0.6732
 3380TIP3    H210084   6.897   3.560   4.498  3.4734  0.5841  0.8923
 3381TIP3   OH210085   2.487   3.965   2.002  0.0369  0.0673 -0.0064
 3381TIP3    H110086   2.539   4.023   1.946  0.2379 -3.0165 -3.1998
 3381TIP3    H210087   2.413   3.940   1.947 -0.2752 -2.3230  1.4469
 3382TIP3   OH210088   1.056   2.176   4.384 -0.1613 -0.5625 -0.1354
 3382TIP3    H110089   1.126   2.113   4.370 -0.4716 -0.6759 -1.2020
 3382TIP3    H210090   1.085   2.256   4.341  0.4949  0.2377  1.7194
 3383TIP3   OH210091   1.402   4.484   1.516 -0.2660  0.3838 -0.1593
 3383TIP3    H110092   1.349   4.446   1.446 -0.6323 -1.1394  0.9189
 3383TIP3    H210093   1.379   4.577   1.515 -0.5394  0.3179 -1.8041
 3384TIP3   OH210094   1.091   6.741   1.327 -0.3312  0.2946 -0.0006
 3384TIP3    H110095   1.025   6.791   1.374  0.2109  2.0379 -1.0571
 3384TIP3    H210096   1.047   6.660   1.303 -1.1981  0.2173  1.7939
 3385TIP3   OH210097   1.591   4.124   3.244  0.5631  0.6615 -0.5092
 3385TIP3    H110098   1.513   4.158   3.201  0.9156  1.5316 -0.4758
 3385TIP3    H210099   1.647   4.095   3.172 -0.1091 -0.6934 -0.5023
 3386TIP3   OH210100   1.668   3.765   1.760 -0.2083 -0.0596  0.1136
 3386TIP3    H110101   1.669   3.679   1.718 -1.9153  0.1146 -0.3273
 3386TIP3    H210102   1.688   3.826   1.690  3.5381 -0.2316  0.9172
 3387TIP3   OH210103   1.418   4.441   3.214 -0.1562  0.1626  0.1196
 3387TIP3    H110104   1.392   4.353   3.188 -1.1733  0.6746 -0.6591
 3387TIP3    H210105   1.486   4.428   3.280 -1.6126 -1.2310  1.3820
 3388TIP3   OH210106   2.202   5.272   3.082  0.0951 -0.4771  0.0061
 3388TIP3    H110107   2.147   5.333   3.131  0.1275 -0.0663 -0.4612
 3388TIP3    H210108   2.148   5.245   3.008  0.4791 -0.1468 -0.4023
 3389TIP3   OH210109   0.884   3.546   2.628  0.1719 -0.1406 -0.5311
 3389TIP3    H110110   0.855   3.559   2.718 -0.3870 -0.1651 -0.7048
 3389TIP3    H210111   0.960   3.603   2.618 -0.9860  1.4115 -0.6602
 3390TIP3   OH210112   2.541   3.347   3.574  0.2196 -0.3570  0.7066
 3390TIP3    H110113   2.496   3.320   3.653 -2.2605  1.9118  0.1329
 3390TIP3    H210114   2.544   3.268   3.520 -2.8773 -0.6691  0.8844
 3391TIP3   OH210115   2.367   5.524   2.952 -0.0100 -0.2051  0.2041
 3391TIP3    H110116   2.339   5.453   2.895  1.7105  0.2847 -1.3141
 3391TIP3    H210117   2.290   5.580   2.960 -0.7095 -1.0682 -0.4231
 3392TIP3   OH210118   2.613   2.777   2.819 -0.6037  0.5048  0.0705
 3392TIP3    H110119   2.626   2.811   2.908 -0.3329  2.3219 -0.6433
 3392TIP3    H210120   2.547   2.835   2.781 -0.8685 -0.4012 -0.8483
 3393TIP3   OH210121   4.219   3.122   0.974  0.0806  0.2137 -0.4581
 3393TIP3    H110122   4.178   3.190   0.920  0.4784  0.7292 -0.1147
 3393TIP3    H210123   4.266   3.170   1.042 -0.1816 -0.4264  0.1881
 3394TIP3   OH210124   1.565   3.940   4.263 -0.1707  0.0354 -0.1490
 3394TIP3    H110125   1.489   3.909   4.313 -1.6818  2.1339 -1.0689
 3394TIP3    H210126   1.574   3.878   4.191 -0.8299 -0.3993  0.1368
 3395TIP3   OH210127   1.802   4.363   2.471  0.7156  0.6545 -0.1490
 3395TIP3    H110128   1.755   4.438   2.508  1.3682  2.2129 -2.3944
 3395TIP3    H210129   1.894   4.378   2.494  0.5013 -1.1353  2.1214
 3396TIP3   OH210130   3.945   5.293   4.239  0.3070  0.1397  0.3415
 3396TIP3    H110131   3.867   5.250   4.274  1.6190 -2.7159 -0.1001
 3396TIP3    H210132   3.911   5.364   4.183 -1.9024  0.0769  1.5629
 3397TIP3   OH210133   1.829   3.555   3.164  0.5829  0.3327 -0.5097
 3397TIP3    H110134   1.887   3.490   3.203  0.3897  0.9156  0.7761
 3397TIP3    H210135   1.887   3.608   3.109  1.1378  0.4213  0.1492
 3398TIP3   OH210136   3.147   2.230   2.868 -0.0488 -0.3081 -0.2383
 3398TIP3    H110137   3.139   2.303   2.929  3.3485  0.4747 -0.6443
 3398TIP3    H210138   3.108   2.262   2.787  1.6075  1.2060 -0.4835
 3399TIP3   OH210139   1.914   3.513   2.495 -0.5006  0.0586  0.0320
 3399TIP3    H110140   1.841   3.565   2.529 -0.5197  0.9566 -1.3487
 3399TIP3    H210141   1.979   3.578   2.468 -0.9480 -0.5464 -2.6523
 3400TIP3   OH210142   2.672   3.093   3.125  0.3366 -0.3243 -0.1770
 3400TIP3    H110143   2.591   3.094   3.075 -0.2939 -0.4107  0.8248
 3400TIP3    H210144   2.713   3.009   3.103 -0.4775 -0.8487  0.2974
 3401TIP3   OH210145   1.593   3.010   2.880 -0.3652 -0.1932 -0.5360
 3401TIP3    H110146   1.518   3.017   2.939 -0.9580 -1.3049 -1.1349
 3401TIP3    H210147   1.660   2.965   2.931 -1.0645 -1.6388 -0.8586
 3402TIP3   OH210148   0.985   2.961   2.971  0.1864  0.5649 -0.2948
 3402TIP3    H110149   0.952   2.922   2.890 -0.6690 -0.2473  0.4339
 3402TIP3    H210150   0.910   3.010   3.006  0.4842  0.7220  0.1276
 3403TIP3   OH210151   0.599   3.447   2.643 -0.2383 -0.6167  0.8886
 3403TIP3    H110152   0.572   3.355   2.636  0.3300 -0.7151 -0.1740
 3403TIP3    H210153   0.694   3.444   2.643 -0.2149  0.0128  0.1483
 3404TIP3   OH210154   1.631   6.470   2.686  0.0503  0.0537 -0.0871
 3404TIP3    H110155   1.705   6.409   2.690 -1.6422 -2.0324  0.4676
 3404TIP3    H210156   1.594   6.458   2.598 -0.5296  0.0032  0.1626
 3405TIP3   OH210157   3.997   1.631   5.380  0.2119 -0.1155 -0.0785
 3405TIP3    H110158   3.979   1.714   5.336  1.4780 -0.5362 -1.4446
 3405TIP3    H210159   4.091   1.634   5.398  0.6805 -2.0456 -1.9062
 3406TIP3   OH210160   4.090   5.062   4.132  0.1723  0.0768  0.5313
 3406TIP3    H110161   4.050   5.138   4.174  0.0990 -0.4657  1.4627
 3406TIP3    H210162   4.152   5.098   4.069  1.1782  0.8857  1.9794
 3407TIP3   OH210163   2.604   5.068   2.298  0.4038 -0.2616  0.1592
 3407TIP3    H110164   2.606   5.160   2.324 -1.0769 -0.2775  0.3789
 3407TIP3    H210165   2.588   5.070   2.204  0.6587 -0.2943  0.1144
 3408TIP3   OH210166   2.395   3.951   4.135  0.1288  0.0064  0.5214
 3408TIP3    H110167   2.424   4.036   4.168  2.9164 -0.8931  0.5434
 3408TIP3    H210168   2.429   3.946   4.046 -0.2326 -0.9671  0.4245
 3409TIP3   OH210169   1.924   5.300   2.639 -0.3998  0.3000  0.7243
 3409TIP3    H110170   1.903   5.361   2.710 -0.5605  0.9515  0.1211
 3409TIP3    H210171   1.865   5.226   2.653 -0.5029  0.4745  1.2102
 3410TIP3   OH210172   0.145   2.685   2.859  0.2756  0.4181  0.2082
 3410TIP3    H110173   0.075   2.648   2.914  0.9703 -0.0133  0.8072
 3410TIP3    H210174   0.198   2.737   2.919  2.3833 -1.9000  0.4662
 3411TIP3   OH210175   2.631   3.521   2.582 -0.6592 -0.4394 -0.5854
 3411TIP3    H110176   2.666   3.446   2.630  0.9107  0.1975 -0.7048
 3411TIP3    H210177   2.623   3.590   2.648 -0.9701 -0.3453 -0.7189
 3412TIP3   OH210178   1.119   4.530   3.135 -0.0507  0.0488 -0.5964
 3412TIP3    H110179   1.043   4.585   3.156 -0.6138 -0.7853 -0.4076
 3412TIP3    H210180   1.125   4.531   3.040 -0.2429  0.1996 -0.6064
 3413TIP3   OH210181   0.599   3.449   4.278  0.3503 -0.5980  0.3371
 3413TIP3    H110182   0.680   3.498   4.270  0.8377 -1.0227  2.4195
 3413TIP3    H210183   0.530   3.515   4.271  0.9576  0.1813  1.4884
 3414TIP3   OH210184   2.228   3.590   3.157  0.4400 -1.0292 -0.5406
 3414TIP3    H110185   2.145   3.623   3.123  0.9320  1.5114  0.5620
 3414TIP3    H210186   2.268   3.544   3.083 -0.6343  0.2516 -1.9529
 3415TIP3   OH210187   2.917   2.464   0.611  0.3945  0.1314 -0.4047
 3415TIP3    H110188   2.953   2.423   0.532 -0.4852  1.0008 -1.2644
 3415TIP3    H210189   2.827   2.486   0.588 -0.4577 -1.2383  1.4469
 3416TIP3   OH210190   2.999   5.069   2.060  0.1975 -0.6947 -0.8029
 3416TIP3    H110191   3.019   5.028   1.976  2.0101  0.2189 -0.8352
 3416TIP3    H210192   3.076   5.121   2.081 -0.3978 -0.5658  1.2322
 3417TIP3   OH210193   0.762   2.282   4.286 -0.4925 -0.3395  0.2417
 3417TIP3    H110194   0.676   2.322   4.298  0.2323  1.4733 -0.4770
 3417TIP3    H210195   0.825   2.352   4.305  0.7796 -0.5515 -2.8577
 3418TIP3   OH210196   2.835   4.580   1.014  0.6074 -0.2451  0.0573
 3418TIP3    H110197   2.777   4.621   1.078  0.4472 -0.2007 -0.1187
 3418TIP3    H210198   2.923   4.604   1.043  0.5328 -0.2027  0.2472
 3419TIP3   OH210199   2.825   4.390   2.947 -0.2885 -0.3752  0.2536
 3419TIP3    H110200   2.887   4.350   2.887  1.6545  1.1816  1.1726
 3419TIP3    H210201   2.879   4.420   3.021 -2.1032  1.1916  0.9727
 3420TIP3   OH210202   3.745   4.976   1.001  0.6080 -0.3787  0.0400
 3420TIP3    H110203   3.698   5.004   0.922  0.4760 -0.5872  0.0447
 3420TIP3    H210204   3.837   4.996   0.982  0.3638  1.4574  0.6300
 3421TIP3   OH210205   8.449   3.602   3.114 -0.0625  0.1711 -0.8720
 3421TIP3    H110206   8.452   3.523   3.167 -1.4370  0.6737 -0.0159
 3421TIP3    H210207   8.445   3.570   3.024 -2.3384 -0.8121 -0.4710
 3422TIP3   OH210208   1.299   4.155   3.506  0.2664  0.4059  0.5037
 3422TIP3    H110209   1.214   4.117   3.485  0.2417  0.1940  0.9669
 3422TIP3    H210210   1.358   4.123   3.438 -0.0575  0.6854  0.0889
 3423TIP3   OH210211   0.247   3.982   2.942 -0.1527 -0.3176  0.2061
 3423TIP3    H110212   0.207   4.066   2.922  1.8528  0.5499 -0.3326
 3423TIP3    H210213   0.300   3.962   2.865 -2.1206 -3.0480 -0.5083
 3424TIP3   OH210214   4.594   2.160   0.650 -0.2196 -0.9088 -0.5028
 3424TIP3    H110215   4.617   2.100   0.579 -0.1943 -1.1445 -0.2946
 3424TIP3    H210216   4.513   2.202   0.620 -0.6615 -1.6155 -0.3034
 3425TIP3   OH210217   0.392   2.873   2.485 -0.3755 -0.0837 -0.7911
 3425TIP3    H110218   0.351   2.829   2.560 -1.8364  1.3943 -0.6914
 3425TIP3    H210219   0.439   2.804   2.439  3.5735 -0.4752  3.4541
 3426TIP3   OH210220   3.189   4.428   2.289  0.4711  0.0048  0.3930
 3426TIP3    H110221   3.128   4.496   2.261  1.6851  1.3906  1.0753
 3426TIP3    H210222   3.212   4.451   2.379 -0.6009 -2.4076  1.3465
 3427TIP3   OH210223   0.821   1.314   5.133 -0.2021  0.0713 -0.3912
 3427TIP3    H110224   0.872   1.369   5.192 -0.1858 -0.1721 -0.1801
 3427TIP3    H210225   0.885   1.256   5.091 -0.4744 -1.2060  0.9241
 3428TIP3   OH210226   1.146   2.385   5.270  0.3290  0.1521 -0.5028
 3428TIP3    H110227   1.201   2.421   5.339  0.3969  1.1072 -1.0493
 3428TIP3    H210228   1.096   2.315   5.313  0.0291  1.0458  0.6149
 3429TIP3   OH210229   3.237   3.758   3.915  0.4523 -0.0102 -0.3597
 3429TIP3    H110230   3.165   3.782   3.856  0.2768  0.8458  0.1974
 3429TIP3    H210231   3.316   3.791   3.873  0.7049 -2.2007 -1.6812
 3430TIP3   OH210232   0.563   3.902   4.180 -0.4476  0.0788 -0.0226
 3430TIP3    H110233   0.612   3.964   4.233 -0.4353 -0.6319  0.8177
 3430TIP3    H210234   0.601   3.909   4.093  0.9192 -0.2185  0.5411
 3431TIP3   OH210235   2.315   5.191   2.717  0.6343  0.1192  0.2879
 3431TIP3    H110236   2.360   5.198   2.801 -0.6523 -1.5754  1.1570
 3431TIP3    H210237   2.320   5.099   2.694  1.3504  0.6434 -1.7338
 3432TIP3   OH210238   2.336   5.486   1.607 -0.3865 -0.0483  0.5025
 3432TIP3    H110239   2.251   5.511   1.571  0.5396  0.3555 -1.4887
 3432TIP3    H210240   2.316   5.421   1.674 -2.0580 -2.3493 -2.1390
 3433TIP3   OH210241   1.047   6.894   1.812 -0.3453 -0.3567  0.2612
 3433TIP3    H110242   1.006   6.920   1.894 -0.7340 -1.7832  0.5250
 3433TIP3    H210243   1.043   6.799   1.811 -1.5534 -0.3261 -2.0279
 3434TIP3   OH210244   3.225   7.304   2.442  0.2788 -0.5597  0.0899
 3434TIP3    H110245   3.178   7.221   2.432 -1.6475  0.6787 -1.8109
 3434TIP3    H210246   3.230   7.338   2.352  0.6267  1.5719  0.9019
 3435TIP3   OH210247   3.273   4.562   5.179  0.2646 -0.3279  0.3105
 3435TIP3    H110248   3.281   4.622   5.105  0.7971 -1.9473 -0.9619
 3435TIP3    H210249   3.336   4.596   5.243  2.3959 -0.9272 -1.3835
 3436TIP3   OH210250   7.923   4.527   2.882 -0.2536  0.0362  0.3550
 3436TIP3    H110251   7.926   4.474   2.802 -0.0074 -0.7101  0.8520
 3436TIP3    H210252   7.848   4.493   2.930 -0.7159  0.8319  0.2121
 3437TIP3   OH210253   2.330   3.667   2.585 -0.6746 -0.8748  0.3921
 3437TIP3    H110254   2.419   3.657   2.618 -0.2926  0.3689 -0.2061
 3437TIP3    H210255   2.279   3.697   2.661  0.1927  1.9469 -0.0545
 3438TIP3   OH210256   2.479   4.571   0.659  0.0294  0.1273 -0.1024
 3438TIP3    H110257   2.573   4.559   0.669  0.2494  1.7191 -0.0544
 3438TIP3    H210258   2.471   4.641   0.594 -1.0708  1.5763  1.5428
 3439TIP3   OH210259   4.293   5.256   3.073  0.2873  0.8170  0.0151
 3439TIP3    H110260   4.203   5.269   3.104 -0.5434 -1.0109 -1.5520
 3439TIP3    H210261   4.322   5.344   3.050 -1.6907  1.2519 -0.9795
 3440TIP3   OH210262   3.904   4.291   1.826 -0.3145 -0.4871  0.2332
 3440TIP3    H110263   3.902   4.204   1.865 -1.1714 -0.4787  0.2334
 3440TIP3    H210264   3.874   4.278   1.735  0.5841 -0.3480 -0.0841
 3441TIP3   OH210265   2.008   1.067   2.762 -0.2516 -0.0844  1.0915
 3441TIP3    H110266   2.057   1.056   2.681 -2.6657  1.2529 -0.6398
 3441TIP3    H210267   1.950   1.141   2.745 -0.6334  0.4015  4.1596
 3442TIP3   OH210268   0.348   2.360   4.975 -0.3364 -0.1863 -0.2542
 3442TIP3    H110269   0.268   2.347   4.923 -2.1644 -1.5932  2.7825
 3442TIP3    H210270   0.344   2.291   5.042  1.6407  1.9273  2.1182
 3443TIP3   OH210271   0.980   2.185   2.030 -0.0912 -0.0969 -0.0246
 3443TIP3    H110272   0.998   2.272   1.994  0.4381 -0.8291 -1.5537
 3443TIP3    H210273   1.023   2.186   2.116  2.0449  0.3099 -1.0610
 3444TIP3   OH210274   3.455   4.157   2.846 -0.0477  0.3881  0.7602
 3444TIP3    H110275   3.480   4.231   2.903  0.6860 -0.0420  0.9985
 3444TIP3    H210276   3.442   4.084   2.906  1.2563 -0.2083  0.3286
 3445TIP3   OH210277   2.032   4.100   1.893 -0.3986 -0.5007  0.1733
 3445TIP3    H110278   1.981   4.067   1.967 -0.6405 -0.4917  0.0118
 3445TIP3    H210279   1.968   4.111   1.823 -0.2101 -0.2895  0.0324
 3446TIP3   OH210280   2.827   4.522   0.493 -0.1086 -0.5059  0.4433
 3446TIP3    H110281   2.755   4.545   0.435 -0.3449  0.4205  1.0945
 3446TIP3    H210282   2.904   4.562   0.452 -0.4397  1.0440  1.3070
 3447TIP3   OH210283   0.033   3.075   3.753  0.3983 -0.2839 -0.6120
 3447TIP3    H110284   0.048   2.990   3.711 -0.9626 -0.8742  0.0682
 3447TIP3    H210285  -0.052   3.104   3.720  0.3962  0.3365 -0.0687
 3448TIP3   OH210286   1.384   0.558   2.531  0.1012  0.0278  0.4949
 3448TIP3    H110287   1.347   0.545   2.618  0.5014  0.3036  0.7071
 3448TIP3    H210288   1.459   0.615   2.545 -1.1961  1.9894 -0.3462
 3449TIP3   OH210289   1.457   2.795   1.590  0.2376 -0.4217 -0.5933
 3449TIP3    H110290   1.499   2.711   1.613  3.4870  0.5889 -2.5521
 3449TIP3    H210291   1.398   2.773   1.519 -0.5093 -1.3884  0.2999
 3450TIP3   OH210292   0.876   3.119   0.865 -0.3942  0.2731  0.2638
 3450TIP3    H110293   0.791   3.133   0.822  0.5696  0.4749 -1.6227
 3450TIP3    H210294   0.863   3.152   0.954 -1.4341  3.1003 -0.8644
 3451TIP3   OH210295   3.678   3.477   3.122 -0.2137 -0.1925  0.5999
 3451TIP3    H110296   3.619   3.458   3.050 -0.1276 -0.1191  0.5097
 3451TIP3    H210297   3.665   3.570   3.141  1.3570  0.3406 -0.7832
 3452TIP3   OH210298   1.385   6.911   2.300 -0.8830  0.5388  0.0758
 3452TIP3    H110299   1.464   6.941   2.345 -0.5779 -2.3517  1.6134
 3452TIP3    H210300   1.314   6.961   2.340  0.0437  2.5649 -0.7412
 3453TIP3   OH210301   7.626   2.580   2.721 -0.1936 -0.0752 -0.3695
 3453TIP3    H110302   7.648   2.634   2.797 -0.0172 -0.6958  0.0211
 3453TIP3    H210303   7.626   2.641   2.647 -0.4399  0.5457  0.1400
 3454TIP3   OH210304   2.312   3.886   2.777 -0.2658 -0.2962 -0.5526
 3454TIP3    H110305   2.271   3.944   2.713 -1.0488  0.3289  0.4912
 3454TIP3    H210306   2.240   3.853   2.830  0.5171  0.5335  1.0840
 3455TIP3   OH210307   2.263   7.739   2.872  0.0681 -0.4208 -0.3767
 3455TIP3    H110308   2.255   7.830   2.900  2.1658 -0.0243 -1.0278
 3455TIP3    H210309   2.329   7.740   2.803  1.5721 -2.7136  0.9404
 3456TIP3   OH210310   0.404   2.003   2.121 -0.3060  0.3480 -0.0453
 3456TIP3    H110311   0.456   1.947   2.179 -0.9826 -0.7858 -0.5260
 3456TIP3    H210312   0.329   2.029   2.174 -0.6917 -0.3208 -0.2527
 3457TIP3   OH210313   4.166   4.434   5.743  0.1253  0.2146 -0.0896
 3457TIP3    H110314   4.223   4.505   5.713  1.7370 -1.5576 -1.2851
 3457TIP3    H210315   4.152   4.453   5.836  1.5572  1.4223 -0.1015
 3458TIP3   OH210316   2.538   6.438   2.825  0.0162  0.3007  0.1151
 3458TIP3    H110317   2.574   6.379   2.758 -3.2089 -1.4256 -0.2334
 3458TIP3    H210318   2.580   6.410   2.906  1.2785 -0.0052 -0.6239
 3459TIP3   OH210319   6.174   0.308   6.807  0.0677  0.2421  0.3052
 3459TIP3    H110320   6.087   0.288   6.772 -0.7987  1.0650  1.9352
 3459TIP3    H210321   6.227   0.325   6.729 -1.7392  1.7197 -0.6740
 3460TIP3   OH210322   1.009   5.072   2.622  0.5570  0.1378 -0.3702
 3460TIP3    H110323   1.037   4.998   2.568  0.8870  0.5321 -0.7504
 3460TIP3    H210324   1.046   5.054   2.708 -2.1681 -1.8053  0.4416
 3461TIP3   OH210325   3.650   3.535   3.901  0.3025  1.3725  0.0580
 3461TIP3    H110326   3.591   3.593   3.949 -2.5215 -0.3258 -1.2407
 3461TIP3    H210327   3.625   3.546   3.810 -0.3147 -1.8645 -0.2101
 3462TIP3   OH210328   2.818   2.362   2.781 -0.2312 -0.4728 -0.4272
 3462TIP3    H110329   2.899   2.360   2.730 -0.3134  0.4983 -0.5966
 3462TIP3    H210330   2.828   2.438   2.838  0.1794 -1.9497  1.5414
 3463TIP3   OH210331   2.784   4.322   3.417  0.4606 -0.0603  0.2758
 3463TIP3    H110332   2.708   4.267   3.434  0.7104 -0.3437  0.4870
 3463TIP3    H210333   2.755   4.411   3.437 -0.1041 -0.0463 -0.5739
 3464TIP3   OH210334   1.596   2.048   2.722 -0.4311  0.4092 -0.2781
 3464TIP3    H110335   1.627   2.065   2.633 -0.5220  1.0229 -0.1978
 3464TIP3    H210336   1.502   2.029   2.712 -0.4749  0.6307 -0.3017
 3465TIP3   OH210337   2.570   5.337   2.376  0.0605  0.0767  0.6634
 3465TIP3    H110338   2.480   5.369   2.368 -0.9107 -2.6867  0.0330
 3465TIP3    H210339   2.586   5.334   2.470 -1.0164 -0.7571  0.8226
 3466TIP3   OH210340   3.040   3.461   1.684 -0.3296 -0.1820  0.0446
 3466TIP3    H110341   2.952   3.498   1.686 -0.0506  0.5426 -0.9597
 3466TIP3    H210342   3.056   3.440   1.592  0.2837 -0.9554  0.3134
 3467TIP3   OH210343   0.440   0.720   6.847 -0.1454  0.8917 -0.1033
 3467TIP3    H110344   0.454   0.677   6.932 -1.0532  1.2870  0.2524
 3467TIP3    H210345   0.350   0.697   6.824  0.3718  0.0898 -1.3682
 3468TIP3   OH210346   2.775   2.512   1.935 -0.0852 -0.2251  0.2118
 3468TIP3    H110347   2.825   2.593   1.939  2.0822 -1.4945 -0.5531
 3468TIP3    H210348   2.805   2.462   2.011 -1.2832 -0.4157  0.5771
 3469TIP3   OH210349   1.487   3.128   1.400  0.1130 -0.5890  0.0911
 3469TIP3    H110350   1.577   3.103   1.378  0.1433 -0.3865 -0.0240
 3469TIP3    H210351   1.492   3.165   1.488  0.2932  0.2353 -0.2585
 3470TIP3   OH210352   1.776   3.540   5.221  0.4154 -0.1483  0.3730
 3470TIP3    H110353   1.748   3.480   5.152 -1.1116  0.7109  0.2185
 3470TIP3    H210354   1.865   3.566   5.196 -0.7905  1.5917 -2.2773
 3471TIP3   OH210355   0.990   4.243   1.440 -0.2853  0.0211 -0.0209
 3471TIP3    H110356   0.927   4.191   1.491  0.7281 -0.4346  0.7969
 3471TIP3    H210357   0.998   4.196   1.357 -0.8877 -0.0159 -0.0613
 3472TIP3   OH210358   1.798   3.148   3.325 -0.2070  0.1134 -0.4728
 3472TIP3    H110359   1.816   3.057   3.303 -3.0045 -0.2407 -1.5227
 3472TIP3    H210360   1.733   3.143   3.396  0.0584  1.2921 -0.1313
 3473TIP3   OH210361   3.572   3.505   3.635 -0.3102  0.6271 -0.2690
 3473TIP3    H110362   3.523   3.565   3.579 -0.7006 -0.0546 -0.6771
 3473TIP3    H210363   3.545   3.418   3.605  1.5333  0.2283 -0.8314
 3474TIP3   OH210364   3.228   5.918   2.286 -0.0260 -0.5013  0.3991
 3474TIP3    H110365   3.160   5.896   2.223  0.4595 -0.6983 -0.0589
 3474TIP3    H210366   3.263   5.833   2.315  0.1107 -0.3994  0.5369
 3475TIP3   OH210367   3.279   3.568   2.297  0.1612 -0.5471 -0.7296
 3475TIP3    H110368   3.245   3.657   2.296  0.7828 -0.3001 -0.4208
 3475TIP3    H210369   3.205   3.514   2.325  0.0246 -0.0174 -0.0509
 3476TIP3   OH210370   0.429   5.808   2.857 -0.0954  0.4183 -0.4752
 3476TIP3    H110371   0.457   5.869   2.925 -0.6029  0.0642  0.0556
 3476TIP3    H210372   0.333   5.814   2.858 -0.1158  0.2740 -1.0348
 3477TIP3   OH210373   2.218   3.685   1.894 -0.4040 -0.8894 -0.1311
 3477TIP3    H110374   2.258   3.607   1.854  2.0135 -0.4788  1.3833
 3477TIP3    H210375   2.269   3.700   1.973 -0.5807  2.4877 -0.5870
 3478TIP3   OH210376   0.839   3.993   1.183  0.1243 -0.0074  0.2509
 3478TIP3    H110377   0.858   4.087   1.173 -0.6123  0.1573  0.3223
 3478TIP3    H210378   0.904   3.961   1.244  1.3941  0.1177 -1.0099
 3479TIP3   OH210379   1.325   4.191   3.127 -0.7853  0.0074 -0.1785
 3479TIP3    H110380   1.239   4.205   3.166 -0.2394 -0.4697  1.2332
 3479TIP3    H210381   1.326   4.098   3.104  0.2077 -0.5685  2.0218
 3480TIP3   OH210382   7.860   3.876   3.941  0.3040  0.2390  0.6240
 3480TIP3    H110383   7.867   3.972   3.942 -4.4513  0.7311  0.1536
 3480TIP3    H210384   7.858   3.851   4.033 -0.6341  0.8585  0.7834
 3481TIP3   OH210385   1.555   2.490   2.491  0.6020  0.2000 -0.1981
 3481TIP3    H110386   1.631   2.532   2.532  0.8811  1.7261 -2.1903
 3481TIP3    H210387   1.519   2.557   2.433 -0.9392 -1.2475 -0.9517
 3482TIP3   OH210388   3.467   5.197   3.044 -0.4747 -0.0830 -0.0520
 3482TIP3    H110389   3.410   5.250   3.101 -1.0441  0.3551 -1.0210
 3482TIP3    H210390   3.407   5.159   2.980  0.1827 -0.4737 -0.4295
 3483TIP3   OH210391   2.262   3.706   4.175  0.2859  0.0777  0.0278
 3483TIP3    H110392   2.259   3.679   4.266  2.5187 -0.0999  0.0591
 3483TIP3    H210393   2.273   3.801   4.178  0.4557  0.0612 -0.0685
 3484TIP3   OH210394   0.378   4.507   3.326  0.2503  0.6106  0.0199
 3484TIP3    H110395   0.368   4.531   3.234  1.1497 -2.8026 -1.0251
 3484TIP3    H210396   0.292   4.473   3.351  0.6361 -0.5446 -0.2167
 3485TIP3   OH210397   8.418   1.114   3.098  0.5847 -0.3408 -0.0256
 3485TIP3    H110398   8.475   1.094   3.025  0.6323  0.6234 -0.2573
 3485TIP3    H210399   8.365   1.188   3.068  2.1585  1.5714  1.6818
 3486TIP3   OH210400   1.488   4.645   3.059 -0.0154  0.2768 -0.0461
 3486TIP3    H110401   1.399   4.661   3.029  0.3639 -0.7242 -1.8059
 3486TIP3    H210402   1.478   4.584   3.133 -0.8217  0.6788  0.1773
 3487TIP3   OH210403   1.321   3.696   2.762  0.0771  0.5858  0.5524
 3487TIP3    H110404   1.247   3.755   2.780  0.0748  0.6156  0.4476
 3487TIP3    H210405   1.368   3.739   2.691  0.5126  0.8532  0.9970
 3488TIP3   OH210406   1.138   3.131   3.122  1.0610 -0.1522  0.4160
 3488TIP3    H110407   1.081   3.081   3.064  0.3269  0.8500  0.2591
 3488TIP3    H210408   1.206   3.166   3.065  1.6923 -1.1172  0.5583
 3489TIP3   OH210409   8.444   1.893   5.371  0.0115  0.5125 -0.0132
 3489TIP3    H110410   8.457   1.834   5.445  1.3337  0.8716  0.0465
 3489TIP3    H210411   8.353   1.922   5.380 -0.5171 -1.1394  0.2232
 3490TIP3   OH210412   6.703   0.735   6.821 -0.2446 -0.4263 -0.4462
 3490TIP3    H110413   6.624   0.766   6.864 -1.8634 -2.2420 -2.0359
 3490TIP3    H210414   6.716   0.646   6.854  0.1429 -0.7698 -1.4765
 3491TIP3   OH210415   2.812   2.551   4.344 -0.3726  0.0692 -0.2591
 3491TIP3    H110416   2.860   2.503   4.277  2.3233  1.0147  0.9009
 3491TIP3    H210417   2.780   2.483   4.404  1.5542 -0.4824  0.1926
 3492TIP3   OH210418   2.089   3.481   1.218  0.2433  0.2441 -0.1262
 3492TIP3    H110419   2.043   3.565   1.229  0.0471  0.1982 -0.5821
 3492TIP3    H210420   2.025   3.415   1.247  0.9292  0.3439  1.6670
 3493TIP3   OH210421   8.031   3.656   4.639 -0.1678  0.0596 -0.4172
 3493TIP3    H110422   8.118   3.693   4.623  0.3686 -0.1875  1.7459
 3493TIP3    H210423   8.043   3.561   4.629  0.3170 -0.1529  1.8466
 3494TIP3   OH210424   2.852   2.696   0.804 -0.0178 -0.1958 -0.2373
 3494TIP3    H110425   2.888   2.609   0.787 -0.7212 -0.6424  0.5030
 3494TIP3    H210426   2.766   2.695   0.762 -0.8909 -0.5869  1.4735
 3495TIP3   OH210427   4.238   2.801   6.388 -0.5794 -0.1257  0.3617
 3495TIP3    H110428   4.284   2.724   6.423  0.0768 -0.4235 -1.1159
 3495TIP3    H210429   4.250   2.794   6.293 -0.6064  1.7565  0.2160
 3496TIP3   OH210430   3.046   3.729   3.342 -0.1774 -0.5013  1.0683
 3496TIP3    H110431   3.038   3.642   3.302 -3.5262  0.9993 -1.8138
 3496TIP3    H210432   3.007   3.719   3.429 -2.7574 -1.3732 -0.1429
 3497TIP3   OH210433   0.532   4.626   2.499 -0.0091 -0.0595 -0.3582
 3497TIP3    H110434   0.548   4.579   2.417 -1.7127  0.1295 -0.8195
 3497TIP3    H210435   0.489   4.562   2.556 -0.1508  0.2402 -0.1289
 3498TIP3   OH210436   0.782   4.495   3.254 -0.1152  0.1263 -0.0234
 3498TIP3    H110437   0.720   4.511   3.182 -0.2000  0.8465  0.2067
 3498TIP3    H210438   0.785   4.399   3.262 -0.7315  0.0690 -0.4428
 3499TIP3   OH210439   1.819   3.302   2.296  0.0192  0.5283 -0.3968
 3499TIP3    H110440   1.863   3.364   2.354 -1.3861  1.6855 -0.5493
 3499TIP3    H210441   1.751   3.262   2.350 -0.7460  0.9918 -1.0257
 3500TIP3   OH210442   3.136   4.167   2.339  0.1138  0.1879  0.2613
 3500TIP3    H110443   3.158   4.254   2.307 -0.0042  0.5065  1.0295
 3500TIP3    H210444   3.209   4.145   2.398  0.9221 -0.8738 -1.1116
 3501TIP3   OH210445   2.172   4.264   0.038  0.2707 -0.6331  0.4395
 3501TIP3    H110446   2.173   4.249  -0.057  3.3241  1.2059  0.1077
 3501TIP3    H210447   2.261   4.242   0.066 -0.3607 -0.3298  2.7576
 3502TIP3   OH210448   1.184   3.294   0.221 -0.1679  0.4457 -0.4897
 3502TIP3    H110449   1.240   3.217   0.236  2.1053  1.8999 -1.2129
 3502TIP3    H210450   1.147   3.314   0.306  2.6645  1.1125  0.6428
 3503TIP3   OH210451   2.489   7.347   3.308  0.9249 -0.3183 -0.2202
 3503TIP3    H110452   2.495   7.433   3.350  0.2625  0.5054 -1.7761
 3503TIP3    H210453   2.402   7.314   3.333  0.5746  0.1250 -0.8396
 3504TIP3   OH210454   2.208   0.674   5.594 -0.0108 -0.4382  0.3865
 3504TIP3    H110455   2.157   0.611   5.543  0.4109  0.4489 -1.1930
 3504TIP3    H210456   2.295   0.635   5.600 -0.2083 -0.7996  0.9114
 3505TIP3   OH210457   8.385   2.755   2.234 -0.4118 -0.2606  0.6276
 3505TIP3    H110458   8.340   2.752   2.150  0.7705  1.3501 -0.1085
 3505TIP3    H210459   8.434   2.673   2.239 -1.1994 -0.7671  0.1740
 3506TIP3   OH210460   2.383   4.235   3.376  0.6851  0.0430 -0.1130
 3506TIP3    H110461   2.292   4.214   3.356  0.8733 -0.0108 -0.9346
 3506TIP3    H210462   2.411   4.165   3.436  0.3950 -0.3324 -0.4126
 3507TIP3   OH210463   3.504   6.392   3.967 -0.4071 -0.0814 -0.2160
 3507TIP3    H110464   3.448   6.453   4.014  0.6738  0.0475  0.9089
 3507TIP3    H210465   3.541   6.336   4.035  0.0793 -0.7921 -1.0564
 3508TIP3   OH210466   2.805   6.190   2.034 -0.9420 -0.1275 -0.4612
 3508TIP3    H110467   2.722   6.232   2.053 -1.2934 -0.9995 -0.0612
 3508TIP3    H210468   2.839   6.238   1.959 -1.2058  1.0508  0.1505
 3509TIP3   OH210469   2.884   5.965   3.462  0.8737  0.5297 -0.1306
 3509TIP3    H110470   2.866   6.053   3.494 -3.2802 -0.0391 -0.6897
 3509TIP3    H210471   2.894   5.975   3.368 -0.3724  0.3384 -0.2952
 3510TIP3   OH210472   2.241   4.571   0.949  0.2705 -0.3797  0.2191
 3510TIP3    H110473   2.329   4.561   0.911  0.4175 -0.2807  0.5360
 3510TIP3    H210474   2.250   4.642   1.012 -0.3983  0.6786 -0.8533
 3511TIP3   OH210475   3.040   2.129   4.107  0.7930 -0.2730 -0.1189
 3511TIP3    H110476   3.006   2.066   4.044  0.8714 -0.0985 -0.3351
 3511TIP3    H210477   3.050   2.079   4.188  0.3950 -0.4228 -0.1580
 3512TIP3   OH210478   3.405   3.449   2.971  0.2105 -0.1140 -0.0438
 3512TIP3    H110479   3.451   3.523   2.932 -0.0417  0.1520  0.1596
 3512TIP3    H210480   3.418   3.377   2.910 -1.7215  0.7589 -1.5595
 3513TIP3   OH210481   2.262   6.493   2.750 -0.4412 -0.1987 -0.4353
 3513TIP3    H110482   2.356   6.474   2.757 -0.6765 -1.1796  0.1276
 3513TIP3    H210483   2.221   6.440   2.818 -1.4512 -0.1048 -0.9565
 3514TIP3   OH210484   2.338   3.294   2.015  0.1296 -0.0930  0.1558
 3514TIP3    H110485   2.335   3.220   2.076  0.7219  0.1428  0.4659
 3514TIP3    H210486   2.299   3.259   1.934 -0.1605 -0.5603  0.4936
 3515TIP3   OH210487   1.914   6.191   4.056  0.1799 -0.1451 -0.0957
 3515TIP3    H110488   1.829   6.235   4.051  0.1258 -0.2129  0.2069
 3515TIP3    H210489   1.943   6.184   3.965  0.1344  0.4092 -0.1555
 3516TIP3   OH210490   0.119   2.532   4.306 -0.5380  0.3928  0.0741
 3516TIP3    H110491   0.126   2.441   4.278  2.4392 -0.1390  2.3452
 3516TIP3    H210492   0.065   2.528   4.386  1.6891  0.2516  1.6089
 3517TIP3   OH210493   2.508   2.767   1.323 -0.6951  0.2618  0.3979
 3517TIP3    H110494   2.557   2.782   1.242  1.7449 -1.3194  1.5158
 3517TIP3    H210495   2.432   2.716   1.295  0.4889 -0.8799 -0.8382
 3518TIP3   OH210496   1.793   4.101   3.036 -0.2447 -0.2291 -0.5379
 3518TIP3    H110497   1.803   4.019   2.988  0.9534 -1.1430  1.1946
 3518TIP3    H210498   1.879   4.143   3.031 -0.3223  0.0221  0.1536
 3519TIP3   OH210499   1.901   3.598   1.553  0.5561  0.4800  0.6594
 3519TIP3    H110500   1.936   3.642   1.475  0.1699  0.6982  0.6093
 3519TIP3    H210501   1.807   3.608   1.546  0.3036 -2.1508 -0.4374
 3520TIP3   OH210502   2.390   3.994   3.524 -0.4187 -0.1983 -0.4052
 3520TIP3    H110503   2.304   3.955   3.542 -0.4113 -0.2743 -0.5317
 3520TIP3    H210504   2.450   3.920   3.523 -0.1584 -0.0156  0.8457
 3521TIP3   OH210505   2.897   4.872   0.805  0.0076 -0.1845  0.1074
 3521TIP3    H110506   2.960   4.897   0.737 -0.1400 -0.5198 -0.1536
 3521TIP3    H210507   2.952   4.839   0.876  0.1394 -0.2838 -0.0382
 3522TIP3   OH210508   2.058   3.618   3.661 -0.5250  0.5592  0.1662
 3522TIP3    H110509   2.056   3.617   3.756 -0.6901  0.2861  0.1612
 3522TIP3    H210510   2.019   3.534   3.635 -0.7813  0.7721 -0.1447
 3523TIP3   OH210511   0.695   2.368   5.043  0.5363 -0.3071 -0.2887
 3523TIP3    H110512   0.653   2.328   5.120 -1.5858 -0.4062 -1.4598
 3523TIP3    H210513   0.742   2.296   5.001 -0.5376 -0.8474 -0.5710
 3524TIP3   OH210514   1.453   3.586   2.985  0.1552 -0.1498  0.6223
 3524TIP3    H110515   1.398   3.636   2.925 -0.6656  0.8433  2.1790
 3524TIP3    H210516   1.410   3.593   3.070  2.3335  0.0950  1.7444
 3525TIP3   OH210517   2.523   4.820   4.490 -0.0107  0.0153 -0.4287
 3525TIP3    H110518   2.574   4.797   4.567  2.3325  0.1913 -1.8887
 3525TIP3    H210519   2.586   4.859   4.430 -2.1140  1.4559 -1.7738
 3526TIP3   OH210520   2.528   4.178   3.671  0.3319  0.4998  0.2443
 3526TIP3    H110521   2.480   4.261   3.665  0.4173  0.5159 -0.2642
 3526TIP3    H210522   2.472   4.114   3.627  0.8426  0.5530 -0.4986
 3527TIP3   OH210523   2.089   4.761   2.958 -0.6859  0.3572 -0.1714
 3527TIP3    H110524   2.051   4.716   2.883 -0.7138 -1.8325  1.1116
 3527TIP3    H210525   2.021   4.822   2.986 -1.9065 -1.0461 -0.0209
 3528TIP3   OH210526   1.564   3.607   6.319 -0.2194 -0.0982  0.1177
 3528TIP3    H110527   1.472   3.630   6.314 -0.6696 -1.8032  0.2771
 3528TIP3    H210528   1.610   3.690   6.307 -1.7562  0.6887 -0.4890
 3529TIP3   OH210529   8.522   3.342   3.313 -0.4281  1.0634  0.2253
 3529TIP3    H110530   8.429   3.361   3.310 -1.0193 -0.9976  3.3155
 3529TIP3    H210531   8.528   3.252   3.345  2.6224  1.2297  0.3197
 3530TIP3   OH210532   3.025   2.906   4.916 -0.5320  0.0212 -0.0590
 3530TIP3    H110533   3.105   2.854   4.932 -0.4230  0.5633  1.2388
 3530TIP3    H210534   3.046   2.959   4.839 -0.0746 -0.7208 -0.4573
 3531TIP3   OH210535   2.689   3.501   3.348  0.0288  0.1419 -0.2049
 3531TIP3    H110536   2.771   3.515   3.396 -0.0456 -1.5628  0.4564
 3531TIP3    H210537   2.701   3.418   3.303 -0.8481  0.5344 -1.1879
 3532TIP3   OH210538   2.396   5.125   4.363  0.2246 -0.2856 -0.0915
 3532TIP3    H110539   2.384   5.175   4.444 -0.5365 -0.5266 -0.0487
 3532TIP3    H210540   2.451   5.051   4.389 -1.3164 -1.2251  0.5670
 3533TIP3   OH210541   1.877   2.104   3.781  0.0613  0.4796  0.3842
 3533TIP3    H110542   1.792   2.083   3.742 -0.2466  1.2289  0.6515
 3533TIP3    H210543   1.858   2.122   3.873  0.4379  1.1372  0.3392
 3534TIP3   OH210544   1.468   4.646   4.731 -0.0157  0.2485 -0.2862
 3534TIP3    H110545   1.556   4.633   4.696 -0.3018 -0.9885 -0.5667
 3534TIP3    H210546   1.435   4.558   4.749 -0.7203  0.7640  1.0271
 3535TIP3   OH210547   0.317   2.444   2.248 -0.2644 -0.0545  0.1025
 3535TIP3    H110548   0.361   2.515   2.294 -1.3529  0.5835  0.1825
 3535TIP3    H210549   0.315   2.372   2.311 -1.2735  0.6402  0.8766
 3536TIP3   OH210550   1.965   3.815   3.324 -0.2217 -0.0853 -0.0140
 3536TIP3    H110551   1.878   3.778   3.307 -0.1196  0.2803 -1.4092
 3536TIP3    H210552   2.026   3.748   3.292  0.0651 -1.1534  2.6513
 3537TIP3   OH210553   6.686   4.296   3.542  0.9766  0.2817 -0.0334
 3537TIP3    H110554   6.769   4.283   3.588  2.0485  2.1828 -1.3307
 3537TIP3    H210555   6.619   4.274   3.606  2.4700 -3.8108  0.2266
 3538TIP3   OH210556   8.189   2.562   4.209  0.5121  0.4352  0.3580
 3538TIP3    H110557   8.230   2.524   4.131 -2.3195  0.4725 -1.2348
 3538TIP3    H210558   8.196   2.657   4.196  1.1565  0.4433  0.7656
 3539TIP3   OH210559   1.882   4.678   2.716  0.2067 -0.3128 -0.3042
 3539TIP3    H110560   1.823   4.750   2.693  1.1518  0.2349 -1.0743
 3539TIP3    H210561   1.827   4.616   2.764 -0.8325  0.4996 -0.4238
 3540TIP3   OH210562   1.879   3.285   2.951 -0.1688 -0.0983  0.4917
 3540TIP3    H110563   1.946   3.232   2.994  0.2853  0.1049  0.0392
 3540TIP3    H210564   1.898   3.277   2.857 -0.2002  0.7276  0.4131
 3541TIP3   OH210565   3.242   4.182   5.258  0.1889 -0.1722 -0.7089
 3541TIP3    H110566   3.246   4.245   5.330  0.1662  1.1230 -1.8261
 3541TIP3    H210567   3.333   4.171   5.231  0.4398 -2.3071  0.9049
 3542TIP3   OH210568   3.623   4.401   1.514  0.0241  0.3338 -0.3975
 3542TIP3    H110569   3.556   4.356   1.463 -0.3181  0.3085  0.0610
 3542TIP3    H210570   3.619   4.492   1.484  0.4963  0.1199 -1.0996
 3543TIP3   OH210571   4.061   3.877   3.118 -0.1692  0.7871 -0.1975
 3543TIP3    H110572   4.136   3.843   3.068 -0.8159 -0.6780 -0.1925
 3543TIP3    H210573   4.001   3.802   3.125 -0.6706  1.3496  1.6541
 3544TIP3   OH210574   1.103   3.805   3.087 -0.1895  0.2849 -0.2470
 3544TIP3    H110575   1.071   3.878   3.140  0.0780 -0.5117  1.0371
 3544TIP3    H210576   1.092   3.728   3.143  1.2021 -0.4073 -0.9008
 3545TIP3   OH210577   1.102   3.704   3.953 -0.2881 -0.0877  0.1218
 3545TIP3    H110578   1.179   3.737   3.906 -0.1775  1.0309  1.0586
 3545TIP3    H210579   1.051   3.659   3.887  1.5956 -1.6246 -0.3565
 3546TIP3   OH210580   3.668   6.829   1.011 -0.1342  0.3855 -0.3791
 3546TIP3    H110581   3.731   6.760   1.030  0.1880  1.1605  1.4774
 3546TIP3    H210582   3.583   6.793   1.037 -0.0558  0.4360 -0.0527
 3547TIP3   OH210583   2.236   5.703   0.075 -0.1722 -0.3402 -0.7052
 3547TIP3    H110584   2.198   5.678  -0.009  0.3575 -1.9223 -0.4949
 3547TIP3    H210585   2.329   5.719   0.056 -0.3390  0.6963 -0.6803
 3548TIP3   OH210586   1.884   5.015   2.464 -0.5270 -0.4014  0.5719
 3548TIP3    H110587   1.832   5.056   2.533 -1.1215 -0.9095  0.4209
 3548TIP3    H210588   1.960   4.979   2.510  0.1474  1.0967  0.6741
 3549TIP3   OH210589   2.025   4.503   4.503 -0.3544 -0.5403  0.5344
 3549TIP3    H110590   2.113   4.473   4.481  0.1553  0.2904  1.4031
 3549TIP3    H210591   1.967   4.447   4.451  0.7420  0.1730 -1.4943
 3550TIP3   OH210592   2.964   4.811   3.149  0.2390  0.7874 -0.0429
 3550TIP3    H110593   2.917   4.756   3.212  1.7094 -0.1596  0.2476
 3550TIP3    H210594   2.907   4.814   3.072 -2.1549  2.9211  1.6969
 3551TIP3   OH210595   3.247   4.505   1.047 -0.2791  0.1094  0.2162
 3551TIP3    H110596   3.310   4.466   1.107 -0.0551  0.2612  0.0836
 3551TIP3    H210597   3.202   4.430   1.007  1.1023 -0.0786 -1.0579
 3552TIP3   OH210598   1.974   1.380   2.376 -0.2933  0.0750 -0.4577
 3552TIP3    H110599   1.915   1.456   2.382  1.1930  1.1991  0.1324
 3552TIP3    H210600   1.956   1.329   2.455 -0.0875  0.7020 -0.0028
 3553TIP3   OH210601   3.422   3.700   3.534  0.2676 -0.3113  0.0380
 3553TIP3    H110602   3.336   3.734   3.557  0.2673  0.2275 -0.7283
 3553TIP3    H210603   3.483   3.770   3.558  0.1902  0.6290 -2.3164
 3554TIP3   OH210604   3.168   5.380   5.099  0.1025  0.6847 -0.5151
 3554TIP3    H110605   3.179   5.290   5.067  1.2653  0.6080  0.0870
 3554TIP3    H210606   3.107   5.420   5.037 -0.2825 -0.4709 -0.8892
 3555TIP3   OH210607   4.757   3.781   3.534 -0.1728 -0.1533  0.3162
 3555TIP3    H110608   4.806   3.856   3.500 -2.6163  0.7225 -1.4055
 3555TIP3    H210609   4.686   3.820   3.584 -1.0485 -1.3354 -0.0024
 3556TIP3   OH210610   1.593   2.287   0.137 -0.2392  0.1023  0.1088
 3556TIP3    H110611   1.615   2.250   0.051  1.0477 -1.4202  1.0654
 3556TIP3    H210612   1.526   2.352   0.118 -1.2153 -1.4053 -1.8672
 3557TIP3   OH210613   2.357   5.864   4.596 -0.0760  0.0007 -0.0590
 3557TIP3    H110614   2.303   5.862   4.675  0.7939  2.6603  0.6587
 3557TIP3    H210615   2.297   5.886   4.526 -1.0057 -3.1528 -0.3404
 3558TIP3   OH210616   1.580   3.443   0.293  0.4249 -0.0810 -0.3235
 3558TIP3    H110617   1.616   3.513   0.347  1.1686 -0.0884 -0.8024
 3558TIP3    H210618   1.656   3.391   0.266 -0.1930 -1.5406  0.6692
 3559TIP3   OH210619   1.087   3.816   2.829  0.0793 -0.2036 -0.7972
 3559TIP3    H110620   1.075   3.783   2.918  0.2309 -0.4165 -0.8568
 3559TIP3    H210621   0.998   3.839   2.801  0.0214 -0.2026 -0.6195
 3560TIP3   OH210622   2.060   3.859   4.404  0.6845  0.2148 -0.0790
 3560TIP3    H110623   2.121   3.786   4.401 -0.5147 -0.8460  0.6333
 3560TIP3    H210624   1.978   3.823   4.370  0.5308  1.6936 -1.3091
 3561TIP3   OH210625   2.924   4.332   3.739 -0.2143  0.1641 -0.1269
 3561TIP3    H110626   2.848   4.277   3.725  0.6766 -1.3147  0.7340
 3561TIP3    H210627   2.915   4.365   3.828  0.1697 -0.0617 -0.0013
 3562TIP3   OH210628   2.003   3.690   3.018  0.7586  0.2102 -0.3746
 3562TIP3    H110629   1.993   3.623   2.951  1.1521  1.1243 -1.3482
 3562TIP3    H210630   2.006   3.773   2.970 -1.8207  1.1425  0.9417
 3563TIP3   OH210631   1.329   3.385   0.614  0.3966 -0.5008 -0.2215
 3563TIP3    H110632   1.377   3.454   0.659  0.1244 -2.2556  2.8460
 3563TIP3    H210633   1.247   3.428   0.587  0.1721  0.3495  1.7439
 3564TIP3   OH210634   1.753   6.531   3.198 -0.1293 -0.2232  0.0303
 3564TIP3    H110635   1.797   6.564   3.120  0.3443  0.2352  0.4881
 3564TIP3    H210636   1.665   6.570   3.194 -0.2024 -0.4413 -0.4293
 3565TIP3   OH210637   0.840   3.838   1.479 -0.0492  0.3678 -0.0187
 3565TIP3    H110638   0.793   3.857   1.560  0.6091  1.7195  0.0508
 3565TIP3    H210639   0.908   3.776   1.505  0.1337  0.7615  0.4596
 3566TIP3   OH210640   6.695   3.324   3.647 -0.5517 -0.7295  0.2613
 3566TIP3    H110641   6.710   3.417   3.663  0.6850 -0.7849 -0.5273
 3566TIP3    H210642   6.630   3.298   3.713 -2.3571  1.1324 -0.7127
 3567TIP3   OH210643   7.315   2.225   2.505  0.2093 -0.4374  0.0119
 3567TIP3    H110644   7.400   2.246   2.544 -0.4934  0.7677  0.9337
 3567TIP3    H210645   7.320   2.132   2.485  1.6724 -0.4228  0.2393
 3568TIP3   OH210646   1.268   4.170   4.659 -0.6101 -0.5938 -0.1183
 3568TIP3    H110647   1.347   4.124   4.686  0.8460  1.2033 -1.1553
 3568TIP3    H210648   1.249   4.136   4.571 -1.3913 -1.5074  0.3977
 3569TIP3   OH210649   0.447   3.945   2.713  0.5029  0.6821 -0.0891
 3569TIP3    H110650   0.467   3.862   2.756  0.3243 -0.3733 -1.9728
 3569TIP3    H210651   0.532   3.985   2.697  0.6715  0.1998 -0.4177
 3570TIP3   OH210652   2.502   3.157   3.770 -0.4296  0.0215  0.0012
 3570TIP3    H110653   2.446   3.117   3.836 -1.5445 -1.0553 -1.5334
 3570TIP3    H210654   2.557   3.086   3.738 -1.1867  0.0630 -1.4908
 3571TIP3   OH210655   0.641   4.175   3.122 -0.1145 -0.7711  0.2998
 3571TIP3    H110656   0.633   4.260   3.078 -0.0825 -0.2296  1.3286
 3571TIP3    H210657   0.558   4.166   3.170 -0.0599 -1.2638  0.3026
 3572TIP3   OH210658   1.865   4.387   4.301 -0.6573  0.2321 -0.2689
 3572TIP3    H110659   1.898   4.313   4.249 -1.9271  0.2922 -1.1867
 3572TIP3    H210660   1.874   4.462   4.242 -0.1928  0.6530  0.3430
 3573TIP3   OH210661   1.427   6.295   3.968  0.3631 -0.3152 -0.0502
 3573TIP3    H110662   1.333   6.294   3.986  0.3506  0.6757  0.0005
 3573TIP3    H210663   1.446   6.209   3.930 -0.2155 -1.1999  1.6462
 3574TIP3   OH210664   0.794   4.733   1.729 -0.0710  0.1936  0.1984
 3574TIP3    H110665   0.812   4.708   1.638  1.7554  0.3372  0.5154
 3574TIP3    H210666   0.755   4.820   1.722  0.4990  0.4026 -0.4156
 3575TIP3   OH210667   3.078   5.774   3.016 -0.0423 -0.1774  0.0217
 3575TIP3    H110668   2.996   5.806   2.977 -0.0558 -0.3639 -0.1057
 3575TIP3    H210669   3.095   5.692   2.970  0.7396  0.3530 -0.6555
 3576TIP3   OH210670   1.843   6.590   2.121 -0.8341  0.3222 -0.8618
 3576TIP3    H110671   1.800   6.616   2.040 -1.8797  0.6346 -0.2059
 3576TIP3    H210672   1.772   6.579   2.184 -0.2244 -2.1468 -0.5829
 3577TIP3   OH210673   1.212   4.499   4.168 -0.1853  0.1508 -0.0823
 3577TIP3    H110674   1.260   4.519   4.249  1.1688  4.1362 -1.6919
 3577TIP3    H210675   1.280   4.469   4.107 -0.5856  0.6288 -0.7737
 3578TIP3   OH210676   2.002   3.935   2.854  0.0480 -0.3058 -0.1167
 3578TIP3    H110677   1.935   3.888   2.803 -0.3968  1.3927 -1.1588
 3578TIP3    H210678   2.054   3.982   2.788  2.5919 -1.9768  0.6463
 3579TIP3   OH210679   3.352   3.391   4.815 -0.1044 -0.5166  0.6059
 3579TIP3    H110680   3.258   3.376   4.812 -0.0102 -0.9508 -0.3495
 3579TIP3    H210681   3.390   3.305   4.833  0.0749 -0.2300  1.6004
 3580TIP3   OH210682   2.498   3.270   4.744  0.0539  0.6632  0.0109
 3580TIP3    H110683   2.417   3.238   4.703 -0.3717  1.8396 -0.0847
 3580TIP3    H210684   2.556   3.194   4.745 -1.4282 -0.4859  1.0401
 3581TIP3   OH210685   2.541   4.040   2.909 -0.5898 -0.2791 -0.8103
 3581TIP3    H110686   2.604   4.075   2.846  1.4494  0.2885  1.4829
 3581TIP3    H210687   2.462   4.026   2.857  0.6953  1.1340 -3.2809
 3582TIP3   OH210688   0.890   3.205   2.033 -0.3835 -0.0853  0.2814
 3582TIP3    H110689   0.979   3.239   2.046 -0.3353  0.3083 -1.0519
 3582TIP3    H210690   0.887   3.127   2.089  1.1972 -0.7812 -0.5516
 3583TIP3   OH210691   2.021   1.970   0.437  0.3207  0.3449  0.3725
 3583TIP3    H110692   2.008   2.047   0.491  1.0328 -0.4583  1.7344
 3583TIP3    H210693   1.995   1.896   0.493 -0.0549 -0.4225 -0.7902
 3584TIP3   OH210694   2.597   2.308   6.622  0.0115  0.2647 -0.0507
 3584TIP3    H110695   2.527   2.362   6.658  0.7036  0.0483  1.6537
 3584TIP3    H210696   2.656   2.291   6.696  1.3805 -0.3281 -1.2369
 3585TIP3   OH210697   3.971   5.315   2.093 -0.3908 -0.6261  0.3173
 3585TIP3    H110698   3.935   5.285   2.010 -1.0963 -0.3969  0.5380
 3585TIP3    H210699   4.029   5.387   2.069  1.9065 -2.5884 -0.2991
 3586TIP3   OH210700   2.259   3.961   1.868 -0.5552 -0.0553  0.2579
 3586TIP3    H110701   2.177   4.009   1.878  0.4516  1.4039  1.6756
 3586TIP3    H210702   2.232   3.869   1.863 -2.1438  0.1953  3.1147
 3587TIP3   OH210703   0.491   6.650   1.648 -0.2775  0.0628  0.1598
 3587TIP3    H110704   0.510   6.742   1.666 -1.6503  0.6919 -1.4549
 3587TIP3    H210705   0.538   6.630   1.568  0.6800 -0.8898  0.9507
 3588TIP3   OH210706   8.108   2.365   3.091  0.6709 -0.5711 -0.3899
 3588TIP3    H110707   8.018   2.398   3.089  0.1393 -1.9720 -0.1057
 3588TIP3    H210708   8.106   2.294   3.155  1.5389 -1.8980 -1.8261
 3589TIP3   OH210709   3.587   2.852   3.030 -0.0716 -0.2816 -0.3968
 3589TIP3    H110710   3.659   2.850   3.094  0.2181  0.7124 -0.6901
 3589TIP3    H210711   3.547   2.765   3.037  1.0294 -0.7765 -0.0790
 3590TIP3   OH210712   0.785   2.398   2.432 -0.5559  0.7210  0.1413
 3590TIP3    H110713   0.816   2.314   2.465  0.1032 -0.5157 -3.3419
 3590TIP3    H210714   0.863   2.454   2.430 -0.4896  0.6303  0.2076
 3591TIP3   OH210715   2.823   6.874   5.315 -0.2779 -0.2410 -0.4091
 3591TIP3    H110716   2.814   6.918   5.230 -1.3365  0.8608  0.2495
 3591TIP3    H210717   2.868   6.938   5.371  0.0876 -0.8184 -0.0305
 3592TIP3   OH210718   0.104   2.182   3.218 -0.3771 -0.6467  0.2318
 3592TIP3    H110719   0.162   2.115   3.181 -0.8857  0.3500 -2.4803
 3592TIP3    H210720   0.040   2.198   3.149 -1.3533  1.3242  1.5692
 3593TIP3   OH210721   1.248   0.712   5.401 -0.0563 -0.4572  0.3322
 3593TIP3    H110722   1.204   0.716   5.317 -0.8458 -1.3666  0.6950
 3593TIP3    H210723   1.286   0.799   5.413  1.0131 -0.6504 -1.4688
 3594TIP3   OH210724   0.144   4.313   2.789  0.3054 -0.1553  0.4161
 3594TIP3    H110725   0.051   4.295   2.803  0.0425 -0.0689 -1.0936
 3594TIP3    H210726   0.174   4.241   2.734  0.9817  0.1595  0.3664
 3595TIP3   OH210727   1.895   1.507   4.097 -0.4677 -0.1642 -0.1873
 3595TIP3    H110728   1.909   1.576   4.162 -0.3018 -1.5606  1.3085
 3595TIP3    H210729   1.978   1.503   4.049  0.5897 -1.2120  1.6226
 3596TIP3   OH210730   0.553   4.892   5.700 -0.8199 -0.2562  0.3498
 3596TIP3    H110731   0.611   4.898   5.624 -2.4800 -3.3278 -1.2491
 3596TIP3    H210732   0.496   4.818   5.681 -1.3896 -1.0324  4.5257
 3597TIP3   OH210733   2.424   4.313   2.281 -0.1182 -0.3531  1.2268
 3597TIP3    H110734   2.466   4.381   2.228 -0.7285  0.7148  2.1053
 3597TIP3    H210735   2.411   4.240   2.219 -0.2675  0.6520  0.0483
 3598TIP3   OH210736   5.487   4.996   3.556 -0.3324 -0.2137 -0.1550
 3598TIP3    H110737   5.564   4.940   3.560 -0.2876 -0.0445  1.4853
 3598TIP3    H210738   5.415   4.940   3.584 -0.6507 -0.0742 -0.6747
 3599TIP3   OH210739   1.588   3.021   1.674 -0.0921 -0.1095  0.0350
 3599TIP3    H110740   1.677   3.038   1.643 -0.0791 -0.1034  0.0756
 3599TIP3    H210741   1.560   2.943   1.625 -0.0900 -0.0705 -0.0284
 3600TIP3   OH210742   7.041   0.931   0.759  0.5664 -0.0736 -0.1555
 3600TIP3    H110743   7.033   1.026   0.757 -0.6407 -0.1480  0.6686
 3600TIP3    H210744   7.126   0.913   0.720  0.3359  1.2849 -1.2915
 3601TIP3   OH210745   1.649   6.008   1.956  0.2004 -0.1646  0.0893
 3601TIP3    H110746   1.596   6.050   2.023  0.6811  0.2076  0.2383
 3601TIP3    H210747   1.693   5.935   2.000 -1.2506 -1.3344 -0.3506
 3602TIP3   OH210748   3.968   3.090   1.911 -0.0751  0.1884 -0.5993
 3602TIP3    H110749   4.062   3.072   1.899  0.4358  0.8475  2.0670
 3602TIP3    H210750   3.965   3.174   1.957 -2.0311  0.6525 -1.5264
 3603TIP3   OH210751   4.062   4.154   2.134 -0.2611 -0.5587 -0.3613
 3603TIP3    H110752   3.997   4.106   2.082 -1.4631  2.4891 -1.8049
 3603TIP3    H210753   4.136   4.166   2.075  0.8833 -2.3968  0.6733
 3604TIP3   OH210754   2.742   6.481   4.818  0.5749 -0.4887  0.1883
 3604TIP3    H110755   2.772   6.418   4.752 -0.3094 -0.8010  0.0846
 3604TIP3    H210756   2.760   6.438   4.902 -0.2181 -0.9633  0.1145
 3605TIP3   OH210757   2.395   4.699   3.612 -0.0338 -0.1624  0.6426
 3605TIP3    H110758   2.359   4.759   3.547 -1.7341 -1.8919 -0.0695
 3605TIP3    H210759   2.405   4.752   3.691 -0.4678  1.3060 -0.2647
 3606TIP3   OH210760   5.315   6.362   2.232 -0.2782  0.3505  0.0238
 3606TIP3    H110761   5.403   6.330   2.253 -1.8201 -3.6043  0.9309
 3606TIP3    H210762   5.263   6.341   2.309 -2.8701 -1.1295 -2.0211
 3607TIP3   OH210763   3.678   6.585   2.234 -0.1843  0.3455 -0.3843
 3607TIP3    H110764   3.599   6.638   2.230 -0.2934  0.1965 -0.2018
 3607TIP3    H210765   3.688   6.563   2.326 -0.0864  0.1304 -0.4460
 3608TIP3   OH210766   2.346   6.914   1.991  0.0613 -0.0513 -0.7468
 3608TIP3    H110767   2.308   6.864   1.919 -0.0485 -0.3627 -0.4750
 3608TIP3    H210768   2.280   6.980   2.012 -0.1314 -0.2976 -0.5796
 3609TIP3   OH210769   2.388   4.727   3.217 -0.0281 -0.0060  0.5060
 3609TIP3    H110770   2.362   4.648   3.265 -3.9320  0.8668  0.0065
 3609TIP3    H210771   2.376   4.705   3.125  0.6059  0.5969  0.2755
 3610TIP3   OH210772   2.958   3.658   2.811 -0.2592 -0.5271 -0.6050
 3610TIP3    H110773   3.052   3.666   2.824 -0.4155  0.7253 -0.1321
 3610TIP3    H210774   2.945   3.670   2.717  0.1488 -1.7556 -0.8208
 3611TIP3   OH210775   2.853   5.374   2.380  0.3835  0.5345  0.4278
 3611TIP3    H110776   2.861   5.280   2.393 -0.2387  0.2910 -0.9001
 3611TIP3    H210777   2.774   5.385   2.327 -0.2870  1.8919  1.6522
 3612TIP3   OH210778   5.984   3.762   2.249 -0.3228  0.3681 -0.7537
 3612TIP3    H110779   5.897   3.765   2.289  0.9876  1.1763  2.2256
 3612TIP3    H210780   5.978   3.695   2.181 -2.9097 -0.5158  0.3003
 3613TIP3   OH210781   2.861   5.225   3.626  0.3868 -0.0605  0.1581
 3613TIP3    H110782   2.773   5.261   3.637  1.0075  1.5896 -0.0123
 3613TIP3    H210783   2.851   5.157   3.559 -0.7306  0.2396  0.0023
 3614TIP3   OH210784   2.930   6.189   2.275  0.1075 -0.1556 -0.8185
 3614TIP3    H110785   2.885   6.161   2.195  1.0651 -0.9341 -1.0990
 3614TIP3    H210786   2.908   6.122   2.340  1.8037 -1.2026 -1.2857
 3615TIP3   OH210787   5.438   5.092   4.106  0.0945 -0.2071  0.8521
 3615TIP3    H110788   5.345   5.074   4.123 -0.3580 -0.6095 -1.7947
 3615TIP3    H210789   5.484   5.051   4.179 -1.8595  0.9818  2.8119
 3616TIP3   OH210790   4.592   3.387   3.534 -0.4377 -0.1165  0.0724
 3616TIP3    H110791   4.602   3.298   3.566 -0.1592 -0.0291  0.2235
 3616TIP3    H210792   4.671   3.404   3.483 -0.9772 -0.3381 -0.8636
 3617TIP3   OH210793   3.694   3.014   1.990 -0.8613  0.2705 -0.4523
 3617TIP3    H110794   3.786   3.007   1.964 -0.7959 -1.4140  0.1864
 3617TIP3    H210795   3.677   3.108   1.994  0.9543  0.5957 -0.1645
 3618TIP3   OH210796   2.556   4.583   1.223 -0.0034 -0.0211 -0.1151
 3618TIP3    H110797   2.618   4.572   1.295  1.9880  0.6977 -1.6822
 3618TIP3    H210798   2.495   4.510   1.232 -0.3703  0.5744  2.8450
 3619TIP3   OH210799   1.840   3.889   4.155 -0.1773  0.2917  0.2042
 3619TIP3    H110800   1.748   3.900   4.178 -0.8024  0.2525 -2.1117
 3619TIP3    H210801   1.843   3.805   4.109  0.3717  1.8397 -2.7244
 3620TIP3   OH210802   4.831   6.215   3.107 -0.2033 -0.5170  0.6539
 3620TIP3    H110803   4.914   6.182   3.072 -0.6462 -1.1490  0.1776
 3620TIP3    H210804   4.801   6.278   3.042  0.6651  0.8596  1.5886
 3621TIP3   OH210805   4.491   5.685   3.646  0.1327 -0.3640  0.1273
 3621TIP3    H110806   4.412   5.724   3.607  0.3761  1.2247  1.1619
 3621TIP3    H210807   4.459   5.641   3.726  0.2883  0.2651  0.5375
 3622TIP3   OH210808   5.566   3.909   4.096  0.3063  0.2415 -0.5102
 3622TIP3    H110809   5.573   3.836   4.034  2.1111  0.6548 -0.7955
 3622TIP3    H210810   5.570   3.868   4.182 -1.8216 -0.2966 -0.6393
 3623TIP3   OH210811   5.711   5.840   2.370  0.4400 -0.4863 -0.0220
 3623TIP3    H110812   5.624   5.865   2.338  1.0268  0.6467 -0.7689
 3623TIP3    H210813   5.694   5.766   2.428 -0.9708 -0.6289 -0.5754
 3624TIP3   OH210814   2.212   5.740   1.032  0.1859  0.1827  0.9866
 3624TIP3    H110815   2.201   5.681   1.107 -0.2397  0.5324  1.2003
 3624TIP3    H210816   2.193   5.827   1.067 -2.0582  0.1127  0.0010
 3625TIP3   OH210817   2.927   6.228   2.886 -0.2259  0.3965 -0.3174
 3625TIP3    H110818   2.865   6.283   2.934  0.4575 -0.6952  1.8805
 3625TIP3    H210819   2.872   6.162   2.845 -0.5972 -0.2308  1.1542
 3626TIP3   OH210820   1.245   4.776   0.736 -0.2696 -0.0699  0.0559
 3626TIP3    H110821   1.229   4.870   0.727  2.1304  0.4656  1.0448
 3626TIP3    H210822   1.333   4.763   0.700  1.0527 -1.2637  3.5327
 3627TIP3   OH210823   4.747   4.501   0.964 -0.6784 -0.0494  0.5816
 3627TIP3    H110824   4.726   4.553   1.041 -0.2130  1.8327 -0.5209
 3627TIP3    H210825   4.664   4.461   0.939 -1.6739  2.3909 -0.1517
 3628TIP3   OH210826   4.723   5.437   2.251  0.2093  0.1718  0.1562
 3628TIP3    H110827   4.787   5.501   2.221 -0.3472  0.6571 -0.0191
 3628TIP3    H210828   4.760   5.402   2.332  0.6750  0.4839  0.0777
 3629TIP3   OH210829   3.402   5.173   2.608 -0.3325  0.5641 -0.4654
 3629TIP3    H110830   3.467   5.146   2.672 -0.6553 -0.2040 -0.4558
 3629TIP3    H210831   3.435   5.140   2.525 -0.2708  0.9418 -0.5931
 3630TIP3   OH210832   4.810   5.559   3.219  0.0819  0.1891 -0.0188
 3630TIP3    H110833   4.731   5.509   3.238  0.0091 -0.3159 -1.5218
 3630TIP3    H210834   4.779   5.644   3.188  0.0165 -0.8191 -2.8745
 3631TIP3   OH210835   2.977   4.409   1.267  0.2202 -0.7207  0.6159
 3631TIP3    H110836   2.891   4.367   1.273  0.3096 -0.7247  2.2137
 3631TIP3    H210837   3.015   4.375   1.186 -1.1783 -0.9041  0.0172
 3632TIP3   OH210838   1.415   5.347   1.651 -0.0588  0.2802 -0.1647
 3632TIP3    H110839   1.322   5.324   1.651  0.0401 -0.2090  1.2555
 3632TIP3    H210840   1.434   5.371   1.561 -1.2653 -0.8252 -0.7257
 3633TIP3   OH210841   3.739   3.341   3.359 -0.9520 -0.0786  0.2585
 3633TIP3    H110842   3.829   3.362   3.383 -1.2934 -0.7439  2.2115
 3633TIP3    H210843   3.717   3.403   3.290  0.4355  1.2173  0.9598
 3634TIP3   OH210844   3.136   6.757   1.666  0.1386 -0.5735 -0.0481
 3634TIP3    H110845   3.074   6.769   1.594  0.9421  0.1216 -0.6396
 3634TIP3    H210846   3.097   6.804   1.740 -0.7543 -1.4048  0.0237
 3635TIP3   OH210847   3.301   2.714   4.576 -0.5515  0.0043 -0.2797
 3635TIP3    H110848   3.274   2.805   4.573 -0.5571  0.0401  0.9121
 3635TIP3    H210849   3.226   2.666   4.541 -0.6762  0.4230 -0.5897
 3636TIP3   OH210850   4.467   5.860   3.939 -0.3187 -0.0224 -0.0115
 3636TIP3    H110851   4.557   5.884   3.919 -0.7888  0.4694 -1.6792
 3636TIP3    H210852   4.415   5.903   3.870 -1.7959 -0.4865  0.7851
 3637TIP3   OH210853   3.359   4.009   3.050  0.4776 -0.5397  0.4318
 3637TIP3    H110854   3.277   4.056   3.065 -0.3094 -1.3509 -1.2085
 3637TIP3    H210855   3.333   3.917   3.046  1.7375 -0.9751  1.6678
 3638TIP3   OH210856   3.150   7.372   2.159 -0.6998 -0.0619  0.3837
 3638TIP3    H110857   3.127   7.293   2.109 -0.7408 -0.5467  1.1592
 3638TIP3    H210858   3.235   7.398   2.124 -0.7658 -0.3441  0.0015
 3639TIP3   OH210859   5.428   5.698   2.392 -0.0570 -0.7598  0.1314
 3639TIP3    H110860   5.459   5.630   2.332 -1.4828  0.2185 -1.7152
 3639TIP3    H210861   5.348   5.662   2.429 -0.5099 -0.3096 -0.4197
 3640TIP3   OH210862   3.256   2.256   3.366 -0.3391  0.0065  0.5666
 3640TIP3    H110863   3.335   2.211   3.335 -1.0691 -1.1233  0.3197
 3640TIP3    H210864   3.257   2.243   3.460 -1.3435 -1.8625  0.3385
 3641TIP3   OH210865   3.720   5.522   1.444  0.7477 -0.1768  0.0139
 3641TIP3    H110866   3.738   5.541   1.352 -0.0507 -0.8035 -0.2705
 3641TIP3    H210867   3.732   5.428   1.452  1.7101 -0.0033  0.7647
 3642TIP3   OH210868   4.005   5.559   1.248  0.1565  0.1891 -0.5271
 3642TIP3    H110869   3.924   5.608   1.230 -0.7070 -0.5615  1.2437
 3642TIP3    H210870   4.044   5.604   1.323 -0.6822 -1.8335  1.1765
 3643TIP3   OH210871   3.092   5.286   2.637  0.0758  0.7214 -0.2718
 3643TIP3    H110872   3.063   5.223   2.571  0.7932 -0.3339  0.4097
 3643TIP3    H210873   3.186   5.270   2.645  0.2381  1.8039 -0.0124
 3644TIP3   OH210874   4.559   6.664   4.041 -0.4131 -0.3616  0.9187
 3644TIP3    H110875   4.591   6.695   3.956  1.8998  0.7203  2.1236
 3644TIP3    H210876   4.465   6.655   4.030 -0.1372 -0.2851 -1.7731
 3645TIP3   OH210877   5.366   5.436   3.162 -0.0923  0.5445 -0.2905
 3645TIP3    H110878   5.326   5.460   3.246  2.0710  3.8668 -0.1184
 3645TIP3    H210879   5.297   5.451   3.097 -0.6083  1.5735  0.4829
 3646TIP3   OH210880   3.702   4.804   3.408  0.0029  0.0344  0.0291
 3646TIP3    H110881   3.735   4.886   3.443 -1.1602  0.6430 -0.2858
 3646TIP3    H210882   3.728   4.805   3.316  0.8442 -0.4128  0.2500
 3647TIP3   OH210883   5.324   6.715   4.084  0.4047  0.7673  0.5658
 3647TIP3    H110884   5.331   6.625   4.052  0.1449  1.4076 -1.4003
 3647TIP3    H210885   5.275   6.708   4.166 -0.4069 -0.8037 -0.0274
 3648TIP3   OH210886   3.650   5.645   2.973  0.3403 -0.1985  0.3579
 3648TIP3    H110887   3.598   5.635   3.053 -1.6358 -1.7388 -1.0498
 3648TIP3    H210888   3.685   5.558   2.956  1.0798  0.2072 -0.2252
 3649TIP3   OH210889   2.237   4.281   0.448  0.5503 -0.7339 -0.1607
 3649TIP3    H110890   2.148   4.295   0.480  0.1315 -2.5442 -0.4925
 3649TIP3    H210891   2.237   4.317   0.360  1.0731  2.1951  0.9647
 3650TIP3   OH210892   2.600   6.021   2.387  0.2235  0.3884 -0.2463
 3650TIP3    H110893   2.642   6.085   2.328 -1.8437  0.8877 -1.2056
 3650TIP3    H210894   2.614   5.937   2.345 -0.3793  0.6362 -0.9504
 3651TIP3   OH210895   3.706   2.768   4.093 -0.0328 -0.8998 -0.0423
 3651TIP3    H110896   3.738   2.777   4.003  0.8357 -1.9760  0.1408
 3651TIP3    H210897   3.746   2.687   4.124 -0.9658 -0.9493  1.0516
 3652TIP3   OH210898   2.592   5.585   0.430 -0.6884  0.3976  0.4086
 3652TIP3    H110899   2.685   5.565   0.419 -0.8376 -0.7540  1.2124
 3652TIP3    H210900   2.586   5.679   0.411  0.9869  0.9375  2.3278
 3653TIP3   OH210901   4.380   4.270   3.764 -0.0379  0.3754  0.8908
 3653TIP3    H110902   4.301   4.224   3.732  0.5246 -0.5862  0.8512
 3653TIP3    H210903   4.356   4.362   3.763  0.0786  0.4261 -2.7509
 3654TIP3   OH210904   3.858   6.149   3.418 -0.4575  0.5392 -0.3850
 3654TIP3    H110905   3.859   6.058   3.447 -0.7680  0.8415  0.5999
 3654TIP3    H210906   3.950   6.175   3.419 -0.1592 -0.3931 -2.7239
 3655TIP3   OH210907   4.331   4.026   2.438 -0.0627 -0.1604 -0.0738
 3655TIP3    H110908   4.278   4.104   2.424  0.8838  0.4232 -0.5202
 3655TIP3    H210909   4.348   4.025   2.532  0.3892  0.4977 -0.1403
 3656TIP3   OH210910   3.075   3.476   2.465  0.2102  0.8150 -0.1246
 3656TIP3    H110911   3.058   3.552   2.520  0.2493  0.0006  1.0550
 3656TIP3    H210912   2.989   3.448   2.435  0.3431  2.3538 -2.0165
 3657TIP3   OH210913   3.149   4.229   4.029  0.2160  0.3677  0.2182
 3657TIP3    H110914   3.225   4.252   4.082  0.0588  1.6699 -0.0983
 3657TIP3    H210915   3.075   4.271   4.073 -0.1732 -0.0536 -0.0278
 3658TIP3   OH210916   3.510   3.732   2.875 -0.2513  0.2206  0.0320
 3658TIP3    H110917   3.535   3.751   2.966 -0.5819  0.7635  0.0122
 3658TIP3    H210918   3.573   3.782   2.822  0.1715 -0.3895 -0.0411
 3659TIP3   OH210919   2.198   4.963   1.441 -0.0353 -0.4221 -0.5457
 3659TIP3    H110920   2.253   4.999   1.510  0.4624 -0.6665 -0.8124
 3659TIP3    H210921   2.228   4.873   1.429 -1.2674 -0.9329  0.1049
 3660TIP3   OH210922   3.036   5.545   2.308  0.2852  0.4413 -0.0031
 3660TIP3    H110923   3.124   5.513   2.288  0.5057  0.1609  1.3467
 3660TIP3    H210924   2.985   5.465   2.324  0.0578  0.6436  0.2934
 3661TIP3   OH210925   4.229   5.772   3.550  0.5199 -0.0915  0.0710
 3661TIP3    H110926   4.161   5.727   3.600  0.6417  0.7122  0.9744
 3661TIP3    H210927   4.185   5.799   3.470 -0.4690  1.1542  1.0057
 3662TIP3   OH210928   3.729   5.192   2.169 -0.3779 -0.2400 -0.0911
 3662TIP3    H110929   3.799   5.249   2.137 -1.3921  2.1283  1.7331
 3662TIP3    H210930   3.701   5.143   2.092  0.8163  1.4316 -1.6393
 3663TIP3   OH210931   3.808   4.166   3.674 -0.0689  0.1281  0.1851
 3663TIP3    H110932   3.873   4.109   3.632 -0.4908 -0.7716  0.7486
 3663TIP3    H210933   3.730   4.158   3.619  0.6490  2.1746 -1.2102
 3664TIP3   OH210934   3.702   2.074   1.913  0.4115  0.1802 -0.0861
 3664TIP3    H110935   3.752   2.123   1.978 -0.1399  0.3927  0.1871
 3664TIP3    H210936   3.710   2.125   1.832  0.4960  0.3048  0.0012
 3665TIP3   OH210937   4.996   5.674   3.451 -0.0955  0.8143 -0.2910
 3665TIP3    H110938   4.941   5.687   3.528 -1.3131  0.8484 -1.1463
 3665TIP3    H210939   4.935   5.645   3.383  1.1356 -0.3245 -0.9377
 3666TIP3   OH210940   2.660   3.480   1.467 -0.1153 -0.5109 -0.1715
 3666TIP3    H110941   2.679   3.409   1.528 -1.4290  0.3032  1.2234
 3666TIP3    H210942   2.599   3.537   1.515 -0.9097  0.3154 -2.1188
 3667TIP3   OH210943   2.547   5.502   2.024 -0.4532  0.0667  0.7786
 3667TIP3    H110944   2.482   5.451   2.071  1.3237 -0.8937  2.2903
 3667TIP3    H210945   2.566   5.450   1.945 -2.9943  1.3805 -0.7377
 3668TIP3   OH210946   4.313   6.625   3.150  0.6020 -0.2202  0.4245
 3668TIP3    H110947   4.340   6.634   3.058 -1.0261  0.4147 -0.0119
 3668TIP3    H210948   4.386   6.660   3.200  0.5836  1.5182 -0.7236
 3669TIP3   OH210949   3.037   3.409   1.060  0.0140  0.4858 -0.2146
 3669TIP3    H110950   3.056   3.456   1.141  1.4215 -1.5271  0.6708
 3669TIP3    H210951   3.121   3.401   1.016 -0.8428  2.1726 -2.2740
 3670TIP3   OH210952   3.607   6.904   2.223 -0.0390 -0.3942  0.2798
 3670TIP3    H110953   3.691   6.870   2.193  0.5500  0.7080  0.6429
 3670TIP3    H210954   3.625   6.938   2.311 -0.7299  0.3481  0.1421
 3671TIP3   OH210955   3.254   4.449   2.568  0.1111 -0.7960  0.1132
 3671TIP3    H110956   3.230   4.377   2.627 -0.0886 -0.5405  0.3435
 3671TIP3    H210957   3.192   4.518   2.589  1.3461  0.0461  1.0370
 3672TIP3   OH210958   3.515   4.550   4.475 -0.4276  0.1611  0.4052
 3672TIP3    H110959   3.537   4.611   4.406 -1.2756 -0.9667 -0.8822
 3672TIP3    H210960   3.455   4.487   4.434  0.5330 -1.6160  1.6396
 3673TIP3   OH210961   4.571   4.517   2.431  0.5893  0.3592  0.1538
 3673TIP3    H110962   4.530   4.552   2.352  0.4848  1.3752  0.6454
 3673TIP3    H210963   4.499   4.479   2.481  0.6904 -0.4838 -0.3493
 3674TIP3   OH210964   2.189   6.580   3.058  0.5136 -0.3730  0.4658
 3674TIP3    H110965   2.125   6.648   3.079  0.6718 -0.2650  0.6029
 3674TIP3    H210966   2.150   6.499   3.093  0.8552 -0.1647  1.3316
 3675TIP3   OH210967   3.227   4.798   3.024  0.1303 -0.1561  0.4686
 3675TIP3    H110968   3.192   4.881   2.993 -0.2461 -1.2005 -2.0163
 3675TIP3    H210969   3.158   4.762   3.080  0.1841  1.0593  1.3298
 3676TIP3   OH210970   3.386   2.987   2.358  0.5250 -0.3782 -0.0653
 3676TIP3    H110971   3.451   2.984   2.287  0.4643  0.1877 -0.1450
 3676TIP3    H210972   3.313   3.037   2.322  0.2765 -0.5360  0.2188
 3677TIP3   OH210973   3.450   5.139   1.544  0.2445 -0.4315  0.2110
 3677TIP3    H110974   3.461   5.061   1.490  0.2355  0.3068 -0.8805
 3677TIP3    H210975   3.357   5.143   1.564  0.3436 -1.0505  0.8249
 3678TIP3   OH210976   2.203   2.350   2.909 -0.4834 -0.0365  0.4565
 3678TIP3    H110977   2.232   2.271   2.863  0.3221  1.3307 -1.4631
 3678TIP3    H210978   2.283   2.401   2.921 -1.4943  2.1022 -1.5363
 3679TIP3   OH210979   4.446   6.685   2.602 -0.6663  0.5722  0.4351
 3679TIP3    H110980   4.418   6.736   2.526 -2.7948 -0.4694  0.4613
 3679TIP3    H210981   4.535   6.715   2.620 -1.3900  3.3846 -0.3022
 3680TIP3   OH210982   4.818   4.801   3.443 -0.1978 -0.2479  0.1878
 3680TIP3    H110983   4.865   4.797   3.527  1.4904  0.2252 -0.7105
 3680TIP3    H210984   4.804   4.894   3.427  1.3332 -0.2119 -1.0418
 3681TIP3   OH210985   3.881   4.104   3.104  0.0216 -0.0632  0.6047
 3681TIP3    H110986   3.940   4.163   3.151  0.5065  2.0014 -2.4268
 3681TIP3    H210987   3.938   4.033   3.074  0.2856  0.1259  0.6555
 3682TIP3   OH210988   4.505   6.380   2.943  0.1732  0.2069 -0.1472
 3682TIP3    H110989   4.469   6.390   2.854  1.6812  1.3994 -0.6401
 3682TIP3    H210990   4.600   6.381   2.930  0.4064 -1.7828  1.2648
 3683TIP3   OH210991   2.850   3.776   4.123  0.2703  0.2029 -0.9379
 3683TIP3    H110992   2.785   3.787   4.192  0.6022 -1.6163 -0.3299
 3683TIP3    H210993   2.844   3.857   4.072  0.5238  1.8985  1.6236
 3684TIP3   OH210994   5.834   3.941   1.719  0.9788 -0.4929  0.6838
 3684TIP3    H110995   5.856   3.921   1.810  0.5576 -0.7307  0.7351
 3684TIP3    H210996   5.806   3.857   1.682  0.6209 -0.2867  0.4864
 3685TIP3   OH210997   1.108   3.889   3.481 -0.4292  0.4466  0.4125
 3685TIP3    H110998   1.063   3.974   3.477 -0.5537  0.4766  1.9942
 3685TIP3    H210999   1.049   3.835   3.534  0.6359 -0.0086  1.1275
 3686TIP3   OH211000   2.248   5.475   4.412  0.3454  0.0253  0.0002
 3686TIP3    H111001   2.158   5.476   4.443  0.9685  0.7796  1.8228
 3686TIP3    H211002   2.301   5.495   4.489  2.0712 -0.3331 -1.0615
 3687TIP3   OH211003   3.518   5.270   3.812  0.1080 -0.0813 -0.1574
 3687TIP3    H111004   3.498   5.271   3.718 -2.0139 -1.2936  0.2440
 3687TIP3    H211005   3.437   5.298   3.855  1.2944  1.2205  1.3078
 3688TIP3   OH211006   2.947   4.902   2.274  0.7096 -0.7862  0.3317
 3688TIP3    H111007   2.934   4.966   2.204  1.1429 -0.0505  0.9200
 3688TIP3    H211008   3.042   4.901   2.288  0.6535 -1.1643  0.7002
 3689TIP3   OH211009   5.741   6.183   1.254  0.3423 -0.0522  0.1196
 3689TIP3    H111010   5.715   6.216   1.168 -1.2173  0.6112  0.8350
 3689TIP3    H211011   5.730   6.088   1.247  3.1824 -0.3293 -1.3816
 3690TIP3   OH211012   3.457   6.180   1.802  0.4785 -0.0818  0.5487
 3690TIP3    H111013   3.538   6.183   1.751 -0.4487 -2.5250 -1.1439
 3690TIP3    H211014   3.443   6.271   1.829  2.7902  0.7004 -0.6939
 3691TIP3   OH211015   3.506   4.557   2.566 -1.1697  0.0196  0.3172
 3691TIP3    H111016   3.421   4.513   2.571 -0.5866 -1.0071  1.3706
 3691TIP3    H211017   3.558   4.501   2.509 -1.0842  0.4812 -0.0627
 3692TIP3   OH211018   2.413   4.280   0.642 -0.8493  0.1884 -0.6471
 3692TIP3    H111019   2.351   4.273   0.570 -0.5169 -0.7878 -0.8506
 3692TIP3    H211020   2.422   4.374   0.658 -0.3791  0.4538 -2.3707
 3693TIP3   OH211021   2.920   3.088   2.443  0.0975 -0.1063  0.1740
 3693TIP3    H111022   2.927   3.020   2.510 -0.1843 -0.7960 -0.4891
 3693TIP3    H211023   2.987   3.151   2.466 -1.0175  0.4516  2.0009
 3694TIP3   OH211024   7.865   0.800   6.448 -0.1662 -0.2275 -0.6188
 3694TIP3    H111025   7.896   0.859   6.517 -0.3255  0.1125 -0.8325
 3694TIP3    H211026   7.850   0.858   6.373  0.6440 -0.6918 -1.1418
 3695TIP3   OH211027   4.186   6.294   1.278 -0.2094 -0.1499 -0.0448
 3695TIP3    H111028   4.115   6.316   1.338  0.2225 -3.6258  1.9162
 3695TIP3    H211029   4.266   6.320   1.324  0.0322 -1.1053  0.0866
 3696TIP3   OH211030   2.711   5.713   1.623 -0.0018  0.7697 -0.0658
 3696TIP3    H111031   2.631   5.682   1.666 -0.7943  2.0715 -0.5669
 3696TIP3    H211032   2.683   5.790   1.573  1.8076  2.0217  0.7807
 3697TIP3   OH211033   2.742   4.145   2.720 -0.2749 -0.2276  0.2523
 3697TIP3    H111034   2.812   4.141   2.655  0.6361 -0.7707  1.2509
 3697TIP3    H211035   2.785   4.123   2.803 -1.9834 -2.5177  0.5931
 3698TIP3   OH211036   1.508   2.715   6.448  0.1960  0.3117 -0.4059
 3698TIP3    H111037   1.561   2.778   6.495 -0.1791  0.6630 -0.4544
 3698TIP3    H211038   1.484   2.759   6.366  0.4938 -0.1377 -0.7356
 3699TIP3   OH211039   4.899   4.724   3.711  0.4391  0.2747  0.1612
 3699TIP3    H111040   4.840   4.649   3.711 -0.2019  0.7679 -0.8831
 3699TIP3    H211041   4.847   4.797   3.744  0.3025  0.8122 -1.1875
 3700TIP3   OH211042   2.294   5.773   3.416  0.2303 -0.0309 -0.4102
 3700TIP3    H111043   2.335   5.688   3.400  0.9275  0.2491 -0.1294
 3700TIP3    H211044   2.364   5.827   3.453 -0.7123  0.0869  1.2440
 3701TIP3   OH211045   0.819   6.481   2.142  0.1249 -0.2652  0.0905
 3701TIP3    H111046   0.766   6.554   2.174 -0.9890  0.2019 -2.6434
 3701TIP3    H211047   0.897   6.523   2.105 -0.8338 -0.3426 -2.1133
 3702TIP3   OH211048   4.132   5.159   2.294 -0.1647  0.5274 -0.2226
 3702TIP3    H111049   4.118   5.082   2.239  1.1033  1.0237 -1.2832
 3702TIP3    H211050   4.080   5.227   2.253 -2.9252 -0.2418  1.8947
 3703TIP3   OH211051   3.771   5.898   2.996 -0.0653 -0.4466  0.1356
 3703TIP3    H111052   3.849   5.867   2.948  0.3392 -0.8173  1.0313
 3703TIP3    H211053   3.716   5.820   3.004 -0.3342 -0.2819 -0.1116
 3704TIP3   OH211054   4.352   6.832   3.647 -0.6178  0.0831  0.0474
 3704TIP3    H111055   4.325   6.914   3.606 -1.2826 -0.4469 -0.5822
 3704TIP3    H211056   4.274   6.800   3.693 -0.5723 -0.5578 -0.3074
 3705TIP3   OH211057   3.039   3.508   3.142  0.0058  0.1223 -0.5342
 3705TIP3    H111058   2.991   3.425   3.136 -1.2071  0.8551 -1.1497
 3705TIP3    H211059   2.995   3.565   3.080  1.8298  0.7600 -1.2468
 3706TIP3   OH211060   2.418   4.046   0.931  0.0727 -0.0013  0.0663
 3706TIP3    H111061   2.460   4.115   0.879 -0.5832 -0.3490 -0.9301
 3706TIP3    H211062   2.337   4.027   0.884 -0.1000 -0.9448  0.7444
 3707TIP3   OH211063   3.460   5.062   1.237 -0.2275 -0.1680 -0.4977
 3707TIP3    H111064   3.540   5.081   1.188 -0.1388 -0.3308 -0.4163
 3707TIP3    H211065   3.404   5.138   1.221 -0.2160 -0.2369 -0.8827
 3708TIP3   OH211066   3.457   4.850   2.350 -0.1151  0.4147 -0.4453
 3708TIP3    H111067   3.547   4.858   2.382 -0.4684  0.9158  0.4398
 3708TIP3    H211068   3.464   4.872   2.256  0.4662  1.8958 -0.0826
 3709TIP3   OH211069   3.211   6.925   2.061 -0.0317 -0.1548  0.4939
 3709TIP3    H111070   3.177   7.014   2.061  1.3371  0.3843  0.4306
 3709TIP3    H211071   3.144   6.873   2.104 -1.4295  0.6820 -0.6328
 3710TIP3   OH211072   2.292   4.128   1.255  0.1134  0.4979 -0.2196
 3710TIP3    H111073   2.218   4.088   1.211  1.3394 -1.4712 -0.5736
 3710TIP3    H211074   2.304   4.075   1.334 -0.0479  1.9923  0.8240
 3711TIP3   OH211075   6.819   4.573   2.261  0.7080  0.1359 -0.5316
 3711TIP3    H111076   6.728   4.544   2.260  0.3840  1.1710 -2.0810
 3711TIP3    H211077   6.839   4.585   2.354 -1.4882  2.2269 -0.2739
 3712TIP3   OH211078   3.784   2.654   2.230 -0.5475  0.1883  0.3789
 3712TIP3    H111079   3.850   2.622   2.169 -0.0203  1.3450  0.3302
 3712TIP3    H211080   3.728   2.578   2.246 -0.1476 -0.3791 -0.8191
 3713TIP3   OH211081   7.979   0.266   6.377  0.2443  0.1012 -0.1471
 3713TIP3    H111082   7.914   0.226   6.319 -1.9880  0.2112  2.1617
 3713TIP3    H211083   7.981   0.209   6.454  1.7931  0.9380  0.4582
 3714TIP3   OH211084   4.965   2.570   1.226  0.2557 -0.3936  0.2110
 3714TIP3    H111085   4.898   2.639   1.221  2.9590  2.1898 -1.7641
 3714TIP3    H211086   4.928   2.498   1.175 -1.1800  0.8584 -0.5777
 3715TIP3   OH211087   6.612   4.017   1.861  0.3618 -0.0814 -0.4053
 3715TIP3    H111088   6.561   3.982   1.935 -1.2946  3.1879  0.0660
 3715TIP3    H211089   6.703   4.015   1.892  0.2444 -2.9785 -0.0552
 3716TIP3   OH211090   4.445   4.147   1.747 -0.1108 -0.2144  0.3113
 3716TIP3    H111091   4.456   4.057   1.716  0.6831 -1.2270  3.3362
 3716TIP3    H211092   4.534   4.176   1.767 -0.1731  1.8996 -2.2589
 3717TIP3   OH211093   4.171   5.013   1.614  0.2994 -0.4396 -0.0548
 3717TIP3    H111094   4.155   5.097   1.657 -0.2599 -0.6890  0.2339
 3717TIP3    H211095   4.120   4.950   1.665 -1.8214 -0.4593 -2.0987
 3718TIP3   OH211096   3.260   3.522   1.363  0.7385  0.2542  0.0580
 3718TIP3    H111097   3.173   3.561   1.351  1.5806  2.5355  1.0334
 3718TIP3    H211098   3.316   3.567   1.299  1.6637  0.3980  0.9512
 3719TIP3   OH211099   3.775   5.495   4.222 -0.9724 -0.5135 -0.6104
 3719TIP3    H111100   3.722   5.519   4.146 -2.5651 -0.6670  0.4279
 3719TIP3    H211101   3.717   5.506   4.297  0.0790 -1.8819  0.4440
 3720TIP3   OH211102   4.808   2.900   1.697 -0.8479  0.1461  0.4548
 3720TIP3    H111103   4.884   2.904   1.755 -0.9427 -1.6177  0.7306
 3720TIP3    H211104   4.736   2.931   1.751 -0.7737 -0.6311  1.0075
 3721TIP3   OH211105   2.433   4.443   3.702  0.1988  0.1821  0.0375
 3721TIP3    H111106   2.418   4.533   3.672  1.6702  0.4502  0.0775
 3721TIP3    H211107   2.397   4.441   3.790  0.5183  0.8493  0.1848
 3722TIP3   OH211108   5.635   5.823   6.156  0.3630  0.0751  0.5725
 3722TIP3    H111109   5.587   5.750   6.117  1.7385 -0.0590 -0.8714
 3722TIP3    H211110   5.723   5.817   6.121  0.4082  2.6663  0.1104
 3723TIP3   OH211111   1.990   5.028   4.135 -0.2835  0.0079 -0.2642
 3723TIP3    H111112   1.907   4.982   4.144 -0.0070 -0.7548 -1.5215
 3723TIP3    H211113   2.036   5.010   4.217 -1.0087 -0.2589  0.0914
 3724TIP3   OH211114   1.931   5.713   1.297  0.0354 -0.1007  0.4506
 3724TIP3    H111115   2.023   5.715   1.323  0.1629  0.7642 -0.0290
 3724TIP3    H211116   1.917   5.796   1.252 -1.0187 -0.1589  0.6385
 3725TIP3   OH211117   3.491   5.018   0.333  0.2594 -0.4464 -0.2045
 3725TIP3    H111118   3.522   5.087   0.273  0.6450  1.8560  2.5417
 3725TIP3    H211119   3.397   5.016   0.320 -0.1461  2.6265  1.6125
 3726TIP3   OH211120   3.854   4.382   2.150 -0.3671 -0.2843  0.5754
 3726TIP3    H111121   3.814   4.297   2.133 -0.9248  0.0505  0.2085
 3726TIP3    H211122   3.948   4.368   2.134 -0.4798 -0.7827  0.3474
 3727TIP3   OH211123   0.732   4.722   3.387 -0.4096  0.4208  0.3410
 3727TIP3    H111124   0.649   4.709   3.433 -0.3939  0.2435  0.3190
 3727TIP3    H211125   0.755   4.635   3.354  0.0006  0.3792  0.7214
 3728TIP3   OH211126   1.739   4.960   0.664 -0.4832 -0.0215  0.6656
 3728TIP3    H111127   1.728   4.989   0.754 -0.5328 -1.3574  1.0955
 3728TIP3    H211128   1.742   5.041   0.613  0.5359  0.7925  1.9737
 3729TIP3   OH211129   4.709   5.475   4.014 -0.1072  0.6966  0.2198
 3729TIP3    H111130   4.621   5.495   3.981 -0.1883  0.2914  0.1814
 3729TIP3    H211131   4.767   5.491   3.940 -0.4866 -1.9744 -0.7265
 3730TIP3   OH211132   3.068   5.086   3.823  0.3544  0.5218 -0.0343
 3730TIP3    H111133   3.073   4.991   3.812  2.1933  0.6223 -0.2373
 3730TIP3    H211134   2.976   5.103   3.844 -0.1820 -1.2059 -0.8821
 3731TIP3   OH211135   4.747   5.315   4.539 -0.4397 -0.5642 -0.1318
 3731TIP3    H111136   4.724   5.360   4.458 -0.2670  1.6853  1.0393
 3731TIP3    H211137   4.730   5.222   4.521 -3.8597  0.2828 -1.5376
 3732TIP3   OH211138   2.595   5.481   3.205  0.2502  0.6005  0.0582
 3732TIP3    H111139   2.663   5.530   3.159 -1.2737  0.8891 -1.9483
 3732TIP3    H211140   2.574   5.408   3.147 -0.1344 -0.2991  1.3128
 3733TIP3   OH211141   3.342   6.002   2.903  0.1213 -0.0458  0.7875
 3733TIP3    H111142   3.404   5.942   2.860 -2.5175 -1.2222 -1.4811
 3733TIP3    H211143   3.307   6.055   2.832 -1.0948  0.9944  2.1415
 3734TIP3   OH211144   4.599   3.532   2.954 -0.3130 -0.4849 -0.2098
 3734TIP3    H111145   4.589   3.443   2.919  0.2637 -1.3285  1.7328
 3734TIP3    H211146   4.690   3.537   2.983 -0.6676  0.3225  0.7930
 3735TIP3   OH211147   2.925   5.515   1.300  0.6505  0.2177  0.1545
 3735TIP3    H111148   2.871   5.515   1.221  3.3438  0.3073 -1.7632
 3735TIP3    H211149   2.937   5.608   1.321  0.0331  0.1971  0.6109
 3736TIP3   OH211150   3.558   5.527   3.948  0.0868  0.9154  0.9397
 3736TIP3    H111151   3.618   5.473   3.896  0.9844  1.4829  1.3797
 3736TIP3    H211152   3.479   5.474   3.955 -0.0128  0.7925 -0.9323
 3737TIP3   OH211153   2.575   4.940   2.854 -0.0407  0.0149 -0.0247
 3737TIP3    H111154   2.530   4.856   2.843 -0.9062  0.3402  0.9663
 3737TIP3    H211155   2.505   5.003   2.871  0.6892  0.7543  0.2676
 3738TIP3   OH211156   3.773   4.261   4.093 -0.1703  0.0936 -0.2095
 3738TIP3    H111157   3.734   4.279   4.179  1.0796 -1.3396  0.6791
 3738TIP3    H211158   3.772   4.165   4.086  0.3367  0.1760 -1.5180
 3739TIP3   OH211159   5.009   4.038   4.687  0.0603  0.1921  0.1162
 3739TIP3    H111160   5.019   4.133   4.693 -1.1067  0.2728  1.0843
 3739TIP3    H211161   4.919   4.025   4.656  0.1287 -0.6001  0.2230
 3740TIP3   OH211162   4.929   5.316   3.323 -0.2827  0.3065  0.6913
 3740TIP3    H111163   4.899   5.376   3.255  1.3221 -0.4700 -0.7074
 3740TIP3    H211164   4.913   5.229   3.288 -0.5760 -0.1096  1.8242
 3741TIP3   OH211165   5.613   5.271   4.787  0.0201  0.1057 -0.1495
 3741TIP3    H111166   5.633   5.363   4.806 -3.2430  0.7912  0.4132
 3741TIP3    H211167   5.605   5.230   4.873  1.1678 -0.6367 -0.3960
 3742TIP3   OH211168   2.988   6.399   3.399 -0.0859  0.0710 -0.0065
 3742TIP3    H111169   2.948   6.329   3.452 -0.1364  0.4224  0.4212
 3742TIP3    H211170   3.081   6.395   3.421 -0.2216  0.7111  0.6746
 3743TIP3   OH211171   3.105   4.114   3.104  0.6319 -0.4161 -0.3432
 3743TIP3    H111172   3.114   4.207   3.128  2.0243 -0.8311  0.8218
 3743TIP3    H211173   3.074   4.116   3.013  0.7726  1.1871 -0.3782
 3744TIP3   OH211174   5.849   2.128   4.759  0.3677  0.3717  0.5169
 3744TIP3    H111175   5.835   2.198   4.695 -1.3125 -0.6343 -0.2702
 3744TIP3    H211176   5.870   2.051   4.706  2.0602  0.2380  1.3662
 3745TIP3   OH211177   2.130   6.347   4.545 -0.9061 -0.7933  0.5145
 3745TIP3    H111178   2.184   6.400   4.605 -0.4109 -1.1456  0.3838
 3745TIP3    H211179   2.044   6.388   4.549 -0.1668  0.9807 -0.7605
 3746TIP3   OH211180   3.625   3.923   3.583  0.1658  0.1730 -0.3587
 3746TIP3    H111181   3.658   3.923   3.493  1.4340 -3.3490  0.0211
 3746TIP3    H211182   3.685   3.866   3.630 -2.8500 -1.3891  1.7692
 3747TIP3   OH211183   4.629   5.081   3.579  0.6486  0.5766 -0.2283
 3747TIP3    H111184   4.540   5.100   3.608  0.0808  0.2593 -1.7321
 3747TIP3    H211185   4.674   5.165   3.585 -0.3800  1.2462 -1.6342
 3748TIP3   OH211186   3.432   6.288   2.454 -0.5690  0.4685 -0.0210
 3748TIP3    H111187   3.403   6.366   2.502 -1.7853 -1.2970  2.2347
 3748TIP3    H211188   3.358   6.266   2.397  0.5229  2.0404 -2.0887
 3749TIP3   OH211189   2.741   2.757   4.023  0.3339 -0.4163 -0.1699
 3749TIP3    H111190   2.711   2.671   4.052  0.2352 -0.9032 -1.6774
 3749TIP3    H211191   2.678   2.783   3.957 -0.4483  1.4727  1.2748
 3750TIP3   OH211192   5.572   6.369   5.045 -0.3492 -0.1537 -0.1262
 3750TIP3    H111193   5.533   6.299   5.097  1.2445 -1.6088 -0.8459
 3750TIP3    H211194   5.592   6.328   4.961  0.7876  1.1139 -0.4958
 3751TIP3   OH211195   3.114   5.944   1.410  0.4652  0.3088  0.5527
 3751TIP3    H111196   3.168   5.905   1.478  0.1110 -1.2891 -0.0653
 3751TIP3    H211197   3.053   6.001   1.458  0.4783 -0.4936  1.5371
 3752TIP3   OH211198   7.263   1.044   6.432 -0.3966  0.0713  0.1481
 3752TIP3    H111199   7.229   1.054   6.521  1.3379  0.2532  0.8084
 3752TIP3    H211200   7.326   1.115   6.422  0.8221 -1.0747 -0.5256
 3753TIP3   OH211201   2.915   5.116   2.485  0.8495  0.2886 -0.1313
 3753TIP3    H111202   2.848   5.097   2.550  1.6473 -0.2191  0.5482
 3753TIP3    H211203   2.904   5.048   2.418  0.6851  0.2099 -0.0221
 3754TIP3   OH211204   1.797   6.443   1.633 -0.3603 -0.0274  0.0182
 3754TIP3    H111205   1.789   6.477   1.544 -0.8983 -0.9093 -0.2745
 3754TIP3    H211206   1.810   6.521   1.687  2.4953  0.3464 -1.1215
 3755TIP3   OH211207   7.715   6.170   0.851 -0.2657 -0.3010  0.0866
 3755TIP3    H111208   7.660   6.195   0.925  0.1417  0.3467  0.1718
 3755TIP3    H211209   7.653   6.141   0.784 -0.6940  0.1269  0.2947
 3756TIP3   OH211210   4.305   6.221   1.675 -0.2059 -0.1614  0.4338
 3756TIP3    H111211   4.239   6.211   1.744  0.4473  0.6584  1.1793
 3756TIP3    H211212   4.301   6.314   1.651  1.2538  0.0631  1.0525
 3757TIP3   OH211213   7.188   6.519   2.568 -0.1933 -0.4957  0.4755
 3757TIP3    H111214   7.186   6.537   2.474 -1.5408 -0.9931  0.3963
 3757TIP3    H211215   7.144   6.434   2.576 -1.1279  0.0957  1.6685
 3758TIP3   OH211216   2.106   6.581   2.540 -0.4040 -0.2116 -1.0694
 3758TIP3    H111217   2.172   6.564   2.608  0.6241 -0.4666 -2.1199
 3758TIP3    H211218   2.153   6.629   2.472 -1.1830 -0.7937 -2.0424
 3759TIP3   OH211219   5.422   5.068   2.765 -0.1422  0.1778  0.1789
 3759TIP3    H111220   5.394   5.039   2.678  0.0486  0.8320 -0.1018
 3759TIP3    H211221   5.410   4.991   2.821  0.3615 -0.4454 -0.5573
 3760TIP3   OH211222   2.591   3.499   0.998  0.1253  0.6472 -0.5286
 3760TIP3    H111223   2.508   3.493   1.044  0.5000 -1.6920 -0.0939
 3760TIP3    H211224   2.569   3.532   0.911 -1.1685  0.6416 -0.2038
 3761TIP3   OH211225   3.699   4.964   1.854 -0.1263 -0.2736 -0.3591
 3761TIP3    H111226   3.647   4.936   1.779 -0.5335 -0.6965  0.0721
 3761TIP3    H211227   3.668   4.908   1.926 -0.6786  1.0325  0.4362
 3762TIP3   OH211228   5.152   4.137   1.866  0.5013 -0.7616  0.0682
 3762TIP3    H111229   5.148   4.219   1.916  0.4826 -2.2457  2.6125
 3762TIP3    H211230   5.079   4.143   1.805  0.0842  0.8316  0.6950
 3763TIP3   OH211231   5.467   5.197   1.713 -0.0301  0.2142 -1.0987
 3763TIP3    H111232   5.412   5.276   1.709 -1.6074 -0.8743 -1.3141
 3763TIP3    H211233   5.523   5.210   1.789  0.7450  2.1910 -1.9662
 3764TIP3   OH211234   2.428   6.092   1.776 -0.5370  0.6196  0.3987
 3764TIP3    H111235   2.405   6.011   1.821 -3.0828  2.1905  2.0242
 3764TIP3    H211236   2.345   6.125   1.741  0.4893  2.4245 -0.4383
 3765TIP3   OH211237   4.094   4.444   3.925  0.0935  0.2735  0.4396
 3765TIP3    H111238   4.073   4.359   3.888  1.2530  0.4735 -0.7086
 3765TIP3    H211239   4.175   4.470   3.882  0.7553  1.1212  2.1565
 3766TIP3   OH211240   3.686   5.136   4.256  0.1719 -0.2981  0.0192
 3766TIP3    H111241   3.597   5.105   4.275 -0.0080  0.0816 -0.1972
 3766TIP3    H211242   3.717   5.079   4.186 -0.6556  0.8524 -1.2976
 3767TIP3   OH211243   5.558   2.833   1.832 -0.2849 -0.5779 -0.3585
 3767TIP3    H111244   5.545   2.928   1.838 -1.0521 -0.7871  1.8362
 3767TIP3    H211245   5.470   2.798   1.825  0.0137 -1.1257 -1.3700
 3768TIP3   OH211246   3.582   3.618   1.928 -0.0042  0.1768 -0.4221
 3768TIP3    H111247   3.551   3.541   1.976  1.3901  1.2379  2.3280
 3768TIP3    H211248   3.662   3.588   1.884 -0.5413 -0.4478 -0.9887
 3769TIP3   OH211249   2.489   2.350   2.222 -0.0092  0.9812 -0.0072
 3769TIP3    H111250   2.427   2.373   2.291 -0.2360  0.5998 -0.0832
 3769TIP3    H211251   2.568   2.320   2.268  0.0976  1.4158  0.0882
 3770TIP3   OH211252   4.367   3.791   1.909  0.5252 -0.2119 -0.2771
 3770TIP3    H111253   4.343   3.703   1.882  0.9438 -0.7239  0.9976
 3770TIP3    H211254   4.337   3.797   2.000  1.6654  0.5067  0.0546
 3771TIP3   OH211255   4.473   6.082   4.493 -0.1569 -0.0029  0.1769
 3771TIP3    H111256   4.465   5.987   4.484  0.1461  0.0713 -0.9025
 3771TIP3    H211257   4.440   6.100   4.582  0.3906 -1.1819  0.6312
 3772TIP3   OH211258   3.049   3.589   4.134 -0.1766 -0.2260  0.4003
 3772TIP3    H111259   2.982   3.657   4.140 -1.1564 -1.2569  1.3554
 3772TIP3    H211260   3.129   3.637   4.111 -0.5282  1.4531  2.4623
 3773TIP3   OH211261   4.281   5.411   4.750  0.1576  0.0973 -0.1799
 3773TIP3    H111262   4.207   5.374   4.703  0.0802 -0.6418  0.5113
 3773TIP3    H211263   4.279   5.369   4.836  1.7092 -0.3660 -0.3390
 3774TIP3   OH211264   3.659   3.510   2.799 -0.0658  0.0498  0.0565
 3774TIP3    H111265   3.645   3.602   2.821 -1.0815  0.0377 -0.5125
 3774TIP3    H211266   3.613   3.498   2.716 -0.2718 -1.0673  0.3250
 3775TIP3   OH211267   1.812   2.685   3.822 -0.2194  0.2043 -0.3508
 3775TIP3    H111268   1.767   2.617   3.771 -1.9023  0.6439  0.5094
 3775TIP3    H211269   1.761   2.692   3.903  1.1356  1.0623  0.4441
 3776TIP3   OH211270   1.870   2.832   4.198 -0.3116  0.1628 -0.0648
 3776TIP3    H111271   1.800   2.854   4.136 -0.9764 -1.0342  0.2461
 3776TIP3    H211272   1.863   2.737   4.209  0.7879  0.1642  0.6699
 3777TIP3   OH211273   5.390   4.774   4.142  0.1273 -0.5521 -0.4238
 3777TIP3    H111274   5.459   4.731   4.193  0.8253  0.4139 -0.5253
 3777TIP3    H211275   5.311   4.724   4.161  0.5427 -0.7007  0.9713
 3778TIP3   OH211276   3.574   2.241   1.243 -0.0225  0.6128 -0.4452
 3778TIP3    H111277   3.539   2.330   1.249 -3.8971 -0.7842 -0.4737
 3778TIP3    H211278   3.586   2.214   1.334 -2.3452 -0.0365 -0.2880
 3779TIP3   OH211279   2.761   4.464   2.625  0.0951  0.6223 -0.1216
 3779TIP3    H111280   2.776   4.396   2.559  0.6777  0.3949  0.2430
 3779TIP3    H211281   2.669   4.452   2.650  0.1478  0.0665 -0.1746
 3780TIP3   OH211282   3.478   5.712   1.898  0.2132  0.2951  0.4415
 3780TIP3    H111283   3.398   5.660   1.911 -0.1257  0.9535  1.0408
 3780TIP3    H211284   3.506   5.690   1.809 -0.9486  0.4688  0.0236
 3781TIP3   OH211285   2.590   2.338   3.043  0.5902  0.0840  0.1140
 3781TIP3    H111286   2.584   2.380   2.958  2.0261  0.3421  0.1339
 3781TIP3    H211287   2.514   2.371   3.092 -0.1981 -0.0271 -1.0350
 3782TIP3   OH211288   2.771   4.087   3.750 -0.4096 -0.0999 -0.1412
 3782TIP3    H111289   2.689   4.130   3.725  0.7033  1.3888 -1.2961
 3782TIP3    H211290   2.804   4.049   3.669  1.0586  1.0513 -0.0963
 3783TIP3   OH211291   1.079   3.802   2.465  0.6090 -0.2151  0.1027
 3783TIP3    H111292   1.122   3.823   2.548  0.7508 -0.0599 -0.0107
 3783TIP3    H211293   1.063   3.887   2.424 -2.6471 -0.0231  1.5705
 3784TIP3   OH211294   3.627   4.663   1.444  0.0215 -0.0752 -0.0304
 3784TIP3    H111295   3.661   4.752   1.447  0.2382 -0.1284 -0.6798
 3784TIP3    H211296   3.539   4.669   1.479  0.0634  0.3797 -0.0033
 3785TIP3   OH211297   3.175   7.017   2.436  0.7246  0.2709 -0.5028
 3785TIP3    H111298   3.083   6.994   2.444  0.8029  0.6496  1.7727
 3785TIP3    H211299   3.199   6.989   2.347 -1.5110  0.0161 -1.0527
 3786TIP3   OH211300   4.728   4.012   2.555  0.3132  0.3756 -0.3193
 3786TIP3    H111301   4.692   4.100   2.542 -0.1986  0.2753  0.4079
 3786TIP3    H211302   4.722   3.996   2.649 -0.6613 -0.8708 -0.5619
 3787TIP3   OH211303   1.335   4.908   3.750 -0.1226 -0.2020  0.0887
 3787TIP3    H111304   1.274   4.981   3.757  1.0680  0.9559 -1.2457
 3787TIP3    H211305   1.284   4.837   3.710 -0.6309  0.7117 -0.8887
 3788TIP3   OH211306   4.714   6.447   4.004  0.1557  0.1812 -0.1987
 3788TIP3    H111307   4.799   6.443   4.046 -0.3031  1.3289  0.8802
 3788TIP3    H211308   4.675   6.529   4.035 -2.0671 -1.1696  0.7545
 3789TIP3   OH211309   3.167   5.493   3.074 -0.1607  0.0979  0.0953
 3789TIP3    H111310   3.191   5.479   3.166 -1.0165  0.0990  0.3293
 3789TIP3    H211311   3.079   5.456   3.067  1.3880 -3.4182 -1.6705
 3790TIP3   OH211312   4.593   5.737   3.373 -1.0334 -0.1162  0.1442
 3790TIP3    H111313   4.543   5.761   3.451 -3.5155 -0.4832 -1.2702
 3790TIP3    H211314   4.578   5.643   3.363  1.4583 -0.6138  0.6956
 3791TIP3   OH211315   3.500   4.562   4.166 -0.0404 -0.2561  0.2430
 3791TIP3    H111316   3.441   4.627   4.203  1.4795 -0.3629  3.0100
 3791TIP3    H211317   3.580   4.610   4.146  0.1019 -0.7293 -0.3453
 3792TIP3   OH211318   1.369   2.705   6.857 -0.4191  0.0580  0.0400
 3792TIP3    H111319   1.305   2.635   6.841  2.1489 -2.4766  0.4816
 3792TIP3    H211320   1.418   2.676   6.933  1.6387  1.6890 -0.6176
 3793TIP3   OH211321   2.530   3.714   2.774  0.1839  0.2808 -0.0656
 3793TIP3    H111322   2.598   3.772   2.807  0.6482 -0.7207  0.7725
 3793TIP3    H211323   2.453   3.770   2.763  0.3380  0.8551  1.6748
 3794TIP3   OH211324   4.022   4.147   2.432 -0.4354 -0.3024  0.2385
 3794TIP3    H111325   3.993   4.059   2.454 -0.3599 -0.4984 -0.4586
 3794TIP3    H211326   4.034   4.146   2.337 -0.6627  0.5238  0.1965
 3795TIP3   OH211327   4.071   4.438   3.542 -0.2168 -0.8337 -0.0517
 3795TIP3    H111328   3.982   4.435   3.577  0.3295 -0.3459  1.4637
 3795TIP3    H211329   4.101   4.527   3.564  0.5603 -0.9309 -0.7312
 3796TIP3   OH211330   2.713   2.563   3.594  0.4100  0.0709 -0.1151
 3796TIP3    H111331   2.786   2.618   3.621  0.9080  0.1760 -1.6467
 3796TIP3    H211332   2.730   2.544   3.502 -1.5930  0.2838 -0.5590
 3797TIP3   OH211333   4.845   6.789   2.562  0.0645 -0.2311 -0.0218
 3797TIP3    H111334   4.815   6.867   2.517 -0.3198 -0.8008 -0.7678
 3797TIP3    H211335   4.792   6.718   2.526  0.7059 -0.8996  0.3264
 3798TIP3   OH211336   2.744   4.624   1.405  0.0188 -0.0751 -0.2071
 3798TIP3    H111337   2.779   4.580   1.482  0.1760  0.4853  0.0377
 3798TIP3    H211338   2.821   4.658   1.359 -0.2976  2.9243  1.3875
 3799TIP3   OH211339   2.719   2.118   1.105 -0.1915  0.0387 -0.1303
 3799TIP3    H111340   2.688   2.034   1.138 -1.9541  0.7723  0.1157
 3799TIP3    H211341   2.814   2.116   1.120  0.0784 -2.6716 -1.8956
 3800TIP3   OH211342   2.475   4.425   2.663 -0.2522 -0.3464 -0.2160
 3800TIP3    H111343   2.468   4.332   2.641 -0.0554 -0.3481 -0.2705
 3800TIP3    H211344   2.480   4.427   2.759 -0.5749 -0.3712 -0.1973
 3801TIP3   OH211345   6.493   5.888   1.815 -0.5122  0.3008  0.2260
 3801TIP3    H111346   6.475   5.974   1.778 -2.4074 -0.4187 -0.5737
 3801TIP3    H211347   6.545   5.844   1.748  2.3226  1.5306  1.5284
 3802TIP3   OH211348   3.523   1.728   4.112 -0.0529 -0.0527 -0.0809
 3802TIP3    H111349   3.534   1.695   4.022  1.7032  1.1093 -0.3239
 3802TIP3    H211350   3.521   1.823   4.102  0.4792  0.0940  1.1388
 3803TIP3   OH211351   2.045   5.308   2.272 -0.0318 -0.3087  0.7340
 3803TIP3    H111352   2.012   5.358   2.347 -0.8475 -0.3576  0.4187
 3803TIP3    H211353   2.064   5.221   2.307  0.0229 -0.1937  0.9862
 3804TIP3   OH211354   2.789   2.091   2.733  0.1871 -0.4768 -0.4860
 3804TIP3    H111355   2.799   2.185   2.745  0.0413 -0.6306  0.8621
 3804TIP3    H211356   2.835   2.072   2.651  0.0709  0.7842 -0.8473
 3805TIP3   OH211357   2.689   3.754   2.411 -0.6264  0.9631  0.4906
 3805TIP3    H111358   2.623   3.750   2.341  0.6186 -0.2971 -0.6564
 3805TIP3    H211359   2.699   3.663   2.439  1.9059  0.8508 -0.6218
 3806TIP3   OH211360   4.550   5.614   1.752  0.1100 -0.0446 -0.1594
 3806TIP3    H111361   4.605   5.566   1.690  0.9929 -0.5274  0.9654
 3806TIP3    H211362   4.564   5.706   1.731  0.8344 -0.1879 -0.3317
 3807TIP3   OH211363   3.732   6.689   3.029 -0.1999 -0.0816 -0.5314
 3807TIP3    H111364   3.759   6.680   2.938  1.7457 -3.2600  0.2723
 3807TIP3    H211365   3.698   6.603   3.053 -0.3737  0.5990  1.8086
 3808TIP3   OH211366   4.991   6.641   3.883 -0.2703 -0.3505 -0.1802
 3808TIP3    H111367   5.071   6.619   3.836 -0.7820 -1.2562 -0.6471
 3808TIP3    H211368   4.964   6.559   3.925 -1.7943 -0.4659 -1.3178
 3809TIP3   OH211369   3.612   3.495   2.502 -0.7509  0.3241 -0.2144
 3809TIP3    H111370   3.618   3.481   2.407  0.6086 -0.8604  0.0384
 3809TIP3    H211371   3.664   3.574   2.517 -0.4876  0.1822 -0.3775
 3810TIP3   OH211372   3.973   4.924   2.220 -0.4816 -0.1733 -0.2782
 3810TIP3    H111373   4.025   4.909   2.141  1.4308 -2.6102  1.3623
 3810TIP3    H211374   3.917   4.846   2.228 -0.1692 -0.2789  1.1136
 3811TIP3   OH211375   5.151   3.878   3.695 -0.3835 -0.0075  0.1944
 3811TIP3    H111376   5.073   3.825   3.705 -1.4904  1.8256  1.6977
 3811TIP3    H211377   5.188   3.885   3.783 -0.0652  1.3893 -0.0253
 3812TIP3   OH211378   5.339   4.839   4.866  0.0875 -0.7206 -0.7328
 3812TIP3    H111379   5.288   4.842   4.784 -1.0982 -0.9701 -0.0222
 3812TIP3    H211380   5.288   4.780   4.922  0.1782  0.5303  0.6622
 3813TIP3   OH211381   6.456   4.235   1.336  0.2654 -0.4319 -0.4125
 3813TIP3    H111382   6.457   4.282   1.420  1.3667 -0.1381 -0.5768
 3813TIP3    H211383   6.532   4.178   1.340  0.2299 -0.5358 -1.1489
 3814TIP3   OH211384   6.745   5.691   3.987  0.2236 -0.5102  0.1752
 3814TIP3    H111385   6.812   5.624   3.996  0.7457 -0.0777 -0.4669
 3814TIP3    H211386   6.663   5.646   4.010  0.5446 -1.4047 -0.4031
 3815TIP3   OH211387   3.313   5.403   3.921 -0.1839  0.7422  0.0440
 3815TIP3    H111388   3.235   5.372   3.966 -1.2403 -0.2691 -2.3552
 3815TIP3    H211389   3.284   5.482   3.876  0.3205  0.6781 -0.3911
 3816TIP3   OH211390   4.967   4.258   2.500  0.3813 -0.2751  0.3711
 3816TIP3    H111391   4.939   4.345   2.530 -0.5488 -1.9169  4.5543
 3816TIP3    H211392   4.888   4.219   2.463  0.4438  0.1266 -0.1862
 3817TIP3   OH211393   3.024   5.781   2.152 -0.3989 -0.0837 -0.1668
 3817TIP3    H111394   3.040   5.690   2.178  0.9936  0.9179  2.7428
 3817TIP3    H211395   2.932   5.796   2.172 -0.4134 -0.6264  0.2068
 3818TIP3   OH211396   4.698   4.251   2.868  0.2110  0.3403 -0.6141
 3818TIP3    H111397   4.692   4.337   2.827 -0.7903  0.2486 -0.6871
 3818TIP3    H211398   4.785   4.249   2.908 -0.6276  2.2491  1.3646
 3819TIP3   OH211399   3.787   0.725   2.289 -0.7347 -0.1481  0.2181
 3819TIP3    H111400   3.853   0.658   2.274 -1.3679 -0.7139 -0.0838
 3819TIP3    H211401   3.703   0.680   2.276 -1.1573  1.1291 -1.8830
 3820TIP3   OH211402   7.115   6.737   0.657  0.0540 -0.1739  0.0820
 3820TIP3    H111403   7.184   6.720   0.721  0.0908 -1.3754 -0.2526
 3820TIP3    H211404   7.129   6.670   0.590  1.2529  2.2805 -2.2016
 3821TIP3   OH211405   4.922   6.804   0.794 -0.3466  0.3653  0.4996
 3821TIP3    H111406   4.914   6.829   0.886  0.7223  1.1256  0.3874
 3821TIP3    H211407   4.842   6.838   0.753  0.4275  2.4075  0.6343
 3822TIP3   OH211408   7.627   3.710   0.578  0.2145  0.0557  0.3742
 3822TIP3    H111409   7.651   3.631   0.627  3.2582  2.4508  2.9890
 3822TIP3    H211410   7.586   3.766   0.644  2.6840  2.6041 -0.1993
 3823TIP3   OH211411   5.344   4.304   1.630 -0.3479  0.0050  0.1819
 3823TIP3    H111412   5.404   4.305   1.704  0.9705 -0.8292 -0.8468
 3823TIP3    H211413   5.397   4.272   1.557 -2.0924 -0.8881 -0.7145
 3824TIP3   OH211414   5.897   4.741   2.407 -0.2217  0.0640 -0.2774
 3824TIP3    H111415   5.986   4.756   2.440 -0.1750  1.5378 -1.0481
 3824TIP3    H211416   5.902   4.656   2.363  0.7117 -0.0483  0.0310
 3825TIP3   OH211417   5.288   6.279   1.955  0.1343 -0.3307  0.6934
 3825TIP3    H111418   5.196   6.283   1.984 -0.0094 -0.8280  0.3069
 3825TIP3    H211419   5.339   6.283   2.036 -0.2110  0.5299  0.8809
 3826TIP3   OH211420   3.471   4.019   2.221 -0.2914 -0.5339 -0.2407
 3826TIP3    H111421   3.444   4.009   2.313 -0.5306  0.3557 -0.2164
 3826TIP3    H211422   3.391   4.007   2.171 -0.3325 -0.0829 -0.2836
 3827TIP3   OH211423   4.883   4.043   2.323 -0.6818 -0.3246 -0.1855
 3827TIP3    H111424   4.831   4.006   2.394 -1.6121 -0.2927 -0.8428
 3827TIP3    H211425   4.962   3.989   2.320 -1.5749 -1.6470 -0.4868
 3828TIP3   OH211426   5.428   3.843   2.403 -0.2652 -0.0636  0.1165
 3828TIP3    H111427   5.431   3.821   2.496 -3.1793 -0.9882  0.0278
 3828TIP3    H211428   5.429   3.759   2.358  0.4558  0.3664 -0.7022
 3829TIP3   OH211429   4.223   5.203   3.948 -0.0031  0.0752 -0.0973
 3829TIP3    H111430   4.283   5.196   3.874 -0.8669 -0.5148 -0.7588
 3829TIP3    H211431   4.221   5.296   3.969 -1.7072  0.6377 -2.5047
 3830TIP3   OH211432   5.294   3.876   3.441  0.1642  0.1954 -0.1232
 3830TIP3    H111433   5.266   3.881   3.533  0.0531  1.3516 -0.2173
 3830TIP3    H211434   5.322   3.965   3.420  2.0147 -0.4952 -0.6369
 3831TIP3   OH211435   3.880   4.025   1.948 -0.0098 -0.5068  0.0512
 3831TIP3    H111436   3.794   3.996   1.920  0.4175 -0.9919 -0.7589
 3831TIP3    H211437   3.941   3.990   1.883  0.9242 -1.1224  1.2241
 3832TIP3   OH211438   5.093   4.319   1.490 -0.1002  0.3179 -0.3842
 3832TIP3    H111439   5.031   4.302   1.561 -0.5037 -0.1456 -0.8467
 3832TIP3    H211440   5.179   4.315   1.532 -0.3250 -0.2220  0.0314
 3833TIP3   OH211441   5.867   6.145   3.605  0.5945 -0.1994 -0.0780
 3833TIP3    H111442   5.915   6.067   3.634  0.5340 -0.4741 -0.7073
 3833TIP3    H211443   5.777   6.116   3.596  0.1348  0.5274  1.9280
 3834TIP3   OH211444   4.079   4.198   3.794 -0.2992  0.0325  0.4401
 3834TIP3    H111445   4.090   4.114   3.839 -0.5054 -0.6079 -0.6781
 3834TIP3    H211446   3.993   4.191   3.751 -0.0772  0.5973 -0.1049
 3835TIP3   OH211447   3.987   5.171   3.559 -0.0821 -0.2039 -0.2637
 3835TIP3    H111448   3.945   5.085   3.551 -0.1040 -0.4839  2.2896
 3835TIP3    H211449   4.035   5.182   3.477 -2.0252 -1.5726 -1.6456
 3836TIP3   OH211450   5.779   5.710   3.038  0.2930  0.3784 -0.3113
 3836TIP3    H111451   5.692   5.675   3.059  0.5707 -1.1230 -1.6311
 3836TIP3    H211452   5.817   5.730   3.123 -1.4049  1.2214  0.2891
 3837TIP3   OH211453   5.890   2.274   3.660  0.0647  0.6236  0.0310
 3837TIP3    H111454   5.808   2.289   3.708 -1.9957 -1.0025 -2.8206
 3837TIP3    H211455   5.904   2.180   3.665  0.7645  0.6606 -0.9916
 3838TIP3   OH211456   3.864   3.085   1.650  0.3255  0.2863  0.4698
 3838TIP3    H111457   3.803   3.155   1.631  1.2759  0.7687 -0.8789
 3838TIP3    H211458   3.869   3.082   1.746 -0.4178  1.4334  0.5473
 3839TIP3   OH211459   6.457   5.351   1.466  0.1581 -0.0617  0.5814
 3839TIP3    H111460   6.411   5.267   1.474  0.9776 -0.4287  1.5670
 3839TIP3    H211461   6.549   5.327   1.457  0.3382  0.7209  0.3637
 3840TIP3   OH211462   5.422   2.854   3.059  0.3820 -0.0168 -0.2008
 3840TIP3    H111463   5.378   2.812   2.985 -0.2246  1.4660 -0.7173
 3840TIP3    H211464   5.353   2.864   3.125  0.7618 -0.7451  0.3032
 3841TIP3   OH211465   6.506   3.235   0.719 -0.2575 -0.0718 -0.8061
 3841TIP3    H111466   6.497   3.329   0.705 -1.4846  0.1130  0.9883
 3841TIP3    H211467   6.427   3.197   0.680 -0.5912 -0.1733 -0.0494
 3842TIP3   OH211468   3.871   4.677   3.737 -0.0964  0.2123  0.1226
 3842TIP3    H111469   3.815   4.607   3.702 -1.1567  1.6933 -1.2251
 3842TIP3    H211470   3.885   4.653   3.828 -2.1466 -0.7162  0.2261
 3843TIP3   OH211471   6.040   3.707   1.925  0.0483  0.2197 -0.0081
 3843TIP3    H111472   6.018   3.691   1.834  0.1333  0.8165 -0.1311
 3843TIP3    H211473   6.032   3.621   1.967 -1.4538  0.2221 -0.2623
 3844TIP3   OH211474   5.804   3.225   1.564 -0.3258  0.2076  0.3405
 3844TIP3    H111475   5.751   3.253   1.489  0.5521  1.7534  0.2770
 3844TIP3    H211476   5.817   3.131   1.551 -1.6601  0.1359 -0.5084
 3845TIP3   OH211477   7.077   5.320   1.591  0.1146  0.6559  0.4746
 3845TIP3    H111478   7.148   5.339   1.653  1.2456  0.6658 -0.7959
 3845TIP3    H211479   7.087   5.386   1.523  0.3601 -0.8150 -0.9391
 3846TIP3   OH211480   4.993   6.791   0.522  0.0130 -0.0787 -0.4062
 3846TIP3    H111481   4.996   6.811   0.616 -3.7460  1.6365 -0.5470
 3846TIP3    H211482   5.068   6.839   0.485 -0.2276  1.6926  1.3201
 3847TIP3   OH211483   7.193   5.371   2.216  0.0497 -1.0488  0.0118
 3847TIP3    H111484   7.149   5.409   2.292 -0.6679 -0.9138 -0.4686
 3847TIP3    H211485   7.127   5.314   2.177 -0.9385  1.8814 -2.7846
 3848TIP3   OH211486   3.981   5.853   2.010  0.7587  0.1888  0.1986
 3848TIP3    H111487   3.949   5.880   1.923  1.1970  0.5330  0.1467
 3848TIP3    H211488   3.903   5.818   2.053  0.3303  0.9119  0.0204
 3849TIP3   OH211489   3.029   4.645   2.189 -0.3466 -0.3215 -0.1334
 3849TIP3    H111490   2.941   4.681   2.181 -0.1953 -0.0419 -0.5795
 3849TIP3    H211491   3.077   4.709   2.241 -0.5780 -0.7870  0.6585
 3850TIP3   OH211492   6.162   6.224   3.920 -0.1636 -0.5850  0.6527
 3850TIP3    H111493   6.158   6.301   3.976  2.3245  0.9160 -1.1585
 3850TIP3    H211494   6.229   6.169   3.959  0.9647  0.0689 -0.3469
 3851TIP3   OH211495   6.238   6.499   1.362  0.0931 -0.2353  0.5169
 3851TIP3    H111496   6.194   6.480   1.279 -0.5297  0.3931  0.7025
 3851TIP3    H211497   6.173   6.545   1.414  1.4520  2.0423  0.2414
 3852TIP3   OH211498   0.098   5.540   4.871  0.7731  1.0982 -0.2033
 3852TIP3    H111499   0.023   5.591   4.842  0.2067  0.2665 -0.2297
 3852TIP3    H211500   0.162   5.549   4.801  0.3115  0.9979 -0.6406
 3853TIP3   OH211501   3.373   4.312   4.154 -0.3353 -0.7292 -0.5126
 3853TIP3    H111502   3.402   4.288   4.242 -0.5511 -0.1146 -0.2710
 3853TIP3    H211503   3.398   4.404   4.144  0.6238 -1.0912 -1.4934
 3854TIP3   OH211504   6.050   5.719   1.795  0.1788 -0.8155 -0.3525
 3854TIP3    H111505   6.110   5.695   1.724  0.1111 -2.0168 -0.0242
 3854TIP3    H211506   5.969   5.743   1.751  0.9892  1.1262 -0.8177
 3855TIP3   OH211507   5.828   4.613   2.925  0.0465 -0.3193 -0.5252
 3855TIP3    H111508   5.878   4.681   2.970 -0.7797 -1.0931  1.6403
 3855TIP3    H211509   5.887   4.580   2.857  1.5050  0.5862  0.2839
 3856TIP3   OH211510   4.199   0.890   6.542  0.7776  0.0109  0.1008
 3856TIP3    H111511   4.211   0.982   6.518  0.3977 -0.0854 -0.4731
 3856TIP3    H211512   4.272   0.871   6.602  1.6701  0.3068 -0.8679
 3857TIP3   OH211513   3.691   7.418   0.881 -0.5343 -0.8386 -0.5326
 3857TIP3    H111514   3.697   7.359   0.806  2.9710 -0.0237 -0.9646
 3857TIP3    H211515   3.690   7.506   0.843 -0.2337 -0.4628  0.3071
 3858TIP3   OH211516   4.460   3.586   2.303  0.0517  0.8740 -0.2820
 3858TIP3    H111517   4.476   3.663   2.358  1.4075  0.4234 -0.0180
 3858TIP3    H211518   4.544   3.571   2.259 -0.1437 -0.5681 -0.1742
 3859TIP3   OH211519   6.689   5.474   3.150 -0.0736  0.0238 -0.0812
 3859TIP3    H111520   6.612   5.465   3.095 -0.6021 -1.1389  0.8338
 3859TIP3    H211521   6.654   5.481   3.239  0.8720 -0.2388  0.3114
 3860TIP3   OH211522   6.934   6.306   2.067 -0.3000 -0.1200 -0.2476
 3860TIP3    H111523   7.016   6.306   2.018 -0.3262  1.1678 -0.2870
 3860TIP3    H211524   6.896   6.392   2.052 -0.1631  0.4232  2.2873
 3861TIP3   OH211525   6.525   3.559   2.487  0.3604 -0.0023  0.3528
 3861TIP3    H111526   6.620   3.558   2.481  0.3581 -0.2778  0.3274
 3861TIP3    H211527   6.499   3.639   2.442  0.4707 -1.0263 -1.5955
 3862TIP3   OH211528   7.305   4.652   3.764 -0.1655 -0.0584  0.0289
 3862TIP3    H111529   7.265   4.592   3.701 -0.2325  1.5600 -1.5424
 3862TIP3    H211530   7.230   4.693   3.809 -0.1627 -0.1324  0.1013
 3863TIP3   OH211531   6.672   5.392   2.109 -0.1361 -0.3761 -0.1211
 3863TIP3    H111532   6.686   5.300   2.128 -0.8161 -0.6457 -0.8844
 3863TIP3    H211533   6.578   5.399   2.091  0.3004  0.0065 -2.4264
 3864TIP3   OH211534   2.641   4.041   2.399  0.0496  0.3356 -0.8281
 3864TIP3    H111535   2.557   3.995   2.401 -2.1159  4.1304  1.8672
 3864TIP3    H211536   2.704   3.978   2.435 -2.8745 -0.4401  3.2446
 3865TIP3   OH211537   7.183   6.329   1.973 -0.7707  0.8652  0.0287
 3865TIP3    H111538   7.203   6.284   2.055  1.1158  0.8486 -0.4212
 3865TIP3    H211539   7.240   6.287   1.908 -2.2656  0.8535 -1.3132
 3866TIP3   OH211540   5.515   5.663   3.064  0.7297 -0.0456  0.3123
 3866TIP3    H111541   5.482   5.576   3.086  1.3784 -0.0045  1.4733
 3866TIP3    H211542   5.468   5.722   3.123 -1.5021  0.6997 -2.0885
 3867TIP3   OH211543   7.603   3.678   2.558  0.3161  0.3372  1.1722
 3867TIP3    H111544   7.639   3.674   2.470 -1.1699 -0.1534  0.5583
 3867TIP3    H211545   7.564   3.765   2.565  3.0923  1.5323  2.4611
 3868TIP3   OH211546   3.112   6.088   4.666  0.7768 -0.5155 -0.0476
 3868TIP3    H111547   3.104   5.994   4.651 -0.1890 -0.3869 -0.4099
 3868TIP3    H211548   3.118   6.126   4.578  0.7861 -0.2088  0.0814
 3869TIP3   OH211549   3.732   3.723   2.554  0.3493  0.1472 -0.4311
 3869TIP3    H111550   3.721   3.788   2.623  1.0415  0.3661 -0.5209
 3869TIP3    H211551   3.825   3.699   2.558  0.2078 -0.4669 -0.7267
 3870TIP3   OH211552   4.407   4.040   2.713  0.6453  0.3958 -0.0579
 3870TIP3    H111553   4.405   4.082   2.799 -0.1689 -1.1664  0.6892
 3870TIP3    H211554   4.498   4.013   2.702  0.9826  1.5148 -0.1605
 3871TIP3   OH211555   5.501   4.642   0.664 -0.1866 -0.5042 -0.1875
 3871TIP3    H111556   5.534   4.663   0.577  0.0311 -1.0028 -0.2248
 3871TIP3    H211557   5.484   4.548   0.662 -0.0950 -0.5360  0.3358
 3872TIP3   OH211558   5.053   3.194   1.199  0.0413 -0.1033  0.0864
 3872TIP3    H111559   5.060   3.289   1.193  1.0202 -0.0168  2.0908
 3872TIP3    H211560   5.126   3.169   1.255  0.2582 -2.1320 -1.0666
 3873TIP3   OH211561   4.608   4.968   0.990 -0.2546  0.1448  0.3303
 3873TIP3    H111562   4.588   4.978   1.083 -0.1211 -0.0527  0.3808
 3873TIP3    H211563   4.531   5.004   0.945  0.3806  1.7517  0.4947
 3874TIP3   OH211564   5.253   4.681   2.456  0.2744 -0.1197  0.0118
 3874TIP3    H111565   5.251   4.693   2.361 -0.5327 -0.5693 -0.0320
 3874TIP3    H211566   5.344   4.697   2.480 -0.0733  2.8229 -0.4626
 3875TIP3   OH211567   4.017   5.732   2.875 -0.4323 -0.0303  0.0251
 3875TIP3    H111568   4.069   5.813   2.880  2.0760 -1.5547 -0.4435
 3875TIP3    H211569   4.038   5.696   2.788 -0.3175 -1.9561  0.8341
 3876TIP3   OH211570   4.655   5.812   3.096 -0.5863 -0.0728  0.2281
 3876TIP3    H111571   4.649   5.739   3.035  4.2150 -1.2630  0.9151
 3876TIP3    H211572   4.638   5.774   3.182  0.7709 -0.1939  0.4595
 3877TIP3   OH211573   6.930   3.420   2.453  0.1945 -0.3985  0.3688
 3877TIP3    H111574   7.012   3.469   2.454  0.0296 -0.1528  1.4069
 3877TIP3    H211575   6.862   3.486   2.465 -0.0712 -0.7876  1.0115
 3878TIP3   OH211576   5.396   5.045   0.665  0.1057  0.0270  0.1346
 3878TIP3    H111577   5.403   5.015   0.575 -1.9161  0.4523 -0.1880
 3878TIP3    H211578   5.456   5.120   0.670  1.2390 -0.8152 -0.4613
 3879TIP3   OH211579   4.798   4.238   3.648  0.1904 -0.7298 -0.8616
 3879TIP3    H111580   4.752   4.236   3.732 -0.2720 -0.5512 -1.1098
 3879TIP3    H211581   4.886   4.204   3.668 -0.0112 -0.9638 -0.3657
 3880TIP3   OH211582   3.876   5.314   0.269  0.4743 -0.0100  0.4040
 3880TIP3    H111583   3.902   5.403   0.245  2.0141 -0.7618 -0.8256
 3880TIP3    H211584   3.806   5.292   0.207  0.6254  0.0645  0.2058
 3881TIP3   OH211585   3.124   6.080   1.924 -0.3059 -0.2542 -0.0573
 3881TIP3    H111586   3.211   6.113   1.947  0.2862 -0.9813 -1.1944
 3881TIP3    H211587   3.064   6.147   1.955  0.7735  1.1144 -0.8903
 3882TIP3   OH211588   3.897   3.719   0.797  0.1530  0.2305  0.1817
 3882TIP3    H111589   3.897   3.810   0.766  1.4923  0.5114  0.9790
 3882TIP3    H211590   3.806   3.702   0.822 -0.3485  0.9578 -1.1085
 3883TIP3   OH211591   6.029   5.030   2.751 -0.3262 -0.5799  0.3980
 3883TIP3    H111592   5.987   5.068   2.828 -0.4607  2.1100 -0.9591
 3883TIP3    H211593   6.117   5.066   2.751 -0.2777 -0.6714 -0.6224
 3884TIP3   OH211594   5.716   5.906   1.203 -0.0294 -0.6112 -0.0418
 3884TIP3    H111595   5.743   5.855   1.279 -1.2647  0.1862  0.9557
 3884TIP3    H211596   5.652   5.851   1.158  1.6361 -1.6124 -1.2286
 3885TIP3   OH211597   5.380   1.593   1.173 -0.1729  0.1282  0.3027
 3885TIP3    H111598   5.375   1.498   1.186  0.2242 -0.0076 -0.5429
 3885TIP3    H211599   5.311   1.628   1.229  0.1231 -0.6117  1.1466
 3886TIP3   OH211600   4.190   4.527   1.716 -0.0673  0.2675 -0.2016
 3886TIP3    H111601   4.146   4.478   1.646  0.4073 -0.2540 -0.1290
 3886TIP3    H211602   4.224   4.605   1.671  1.3849 -0.7106 -0.8189
 3887TIP3   OH211603   4.626   2.508   2.613  0.1813 -0.1613  0.3771
 3887TIP3    H111604   4.641   2.492   2.706 -0.4809  1.1945  0.7253
 3887TIP3    H211605   4.696   2.459   2.569  1.2351  0.1689  1.6446
 3888TIP3   OH211606   2.520   4.541   2.169  0.3745  0.3058 -0.1706
 3888TIP3    H111607   2.602   4.537   2.217  0.1757  0.7071  0.2052
 3888TIP3    H211608   2.545   4.576   2.083  0.8987 -1.4641 -0.7628
 3889TIP3   OH211609   7.018   4.792   2.651  0.6051 -0.1130 -0.7653
 3889TIP3    H111610   6.987   4.879   2.676  0.9230  0.0991 -1.1016
 3889TIP3    H211611   7.048   4.802   2.561 -0.6496 -0.8989 -1.2773
 3890TIP3   OH211612   6.059   6.258   2.825 -0.3452 -0.0075  0.5998
 3890TIP3    H111613   6.004   6.179   2.822 -0.2432 -0.0931  1.0230
 3890TIP3    H211614   6.000   6.327   2.857 -0.5193  0.1594 -0.0735
 3891TIP3   OH211615   4.872   3.306   2.265 -0.0518 -0.0321  0.2162
 3891TIP3    H111616   4.923   3.379   2.229 -0.9130  1.0639  1.1650
 3891TIP3    H211617   4.849   3.253   2.188  0.7610  0.5840 -0.4602
 3892TIP3   OH211618   5.685   5.256   2.830  0.4458  0.2693  0.2687
 3892TIP3    H111619   5.646   5.174   2.800 -1.4960  1.0063  0.6994
 3892TIP3    H211620   5.649   5.323   2.771  0.4821  1.0707  1.1419
 3893TIP3   OH211621   7.611   5.927   1.480 -0.3934 -0.2149  0.1613
 3893TIP3    H111622   7.633   5.834   1.477  0.3661 -0.0067 -0.9074
 3893TIP3    H211623   7.607   5.948   1.573 -3.2983 -1.9479  0.5140
 3894TIP3   OH211624   2.679   5.345   2.759  0.0098 -0.1441  0.2627
 3894TIP3    H111625   2.604   5.404   2.754 -0.6886 -1.1382 -1.0897
 3894TIP3    H211626   2.752   5.397   2.726 -0.4003  0.2940  0.0307
 3895TIP3   OH211627   6.041   5.805   1.082  1.1844 -0.1767 -0.0549
 3895TIP3    H111628   6.116   5.828   1.027 -0.2098 -0.1081 -1.9915
 3895TIP3    H211629   5.995   5.887   1.097  1.0606 -0.3366  0.4588
 3896TIP3   OH211630   5.996   2.701   0.729  0.2606 -0.1701 -0.2039
 3896TIP3    H111631   5.920   2.644   0.747 -0.8193  1.5421  0.8467
 3896TIP3    H211632   5.967   2.757   0.657  1.2340 -0.7898 -1.0788
 3897TIP3   OH211633   5.380   4.811   2.872  0.3760 -0.3001  0.7970
 3897TIP3    H111634   5.456   4.769   2.911 -0.7610 -0.9831  2.3404
 3897TIP3    H211635   5.333   4.849   2.946  0.1333  1.6713 -0.3220
 3898TIP3   OH211636   4.209   3.571   3.290 -0.2257  0.2288 -0.1091
 3898TIP3    H111637   4.249   3.536   3.210  0.9435 -1.3889  1.1576
 3898TIP3    H211638   4.283   3.610   3.338 -0.9515  1.3603  0.1056
 3899TIP3   OH211639   5.717   7.833   0.728  0.2714  0.1627 -0.4752
 3899TIP3    H111640   5.657   7.896   0.686 -0.8333 -0.3947  0.2297
 3899TIP3    H211641   5.660   7.782   0.786  1.5656  0.0416  0.6857
 3900TIP3   OH211642   6.633   5.086   1.148  0.4908  0.5493  0.3245
 3900TIP3    H111643   6.703   5.105   1.210 -1.6230 -1.0659  3.3115
 3900TIP3    H211644   6.572   5.160   1.158  0.6625  0.8234 -0.6234
 3901TIP3   OH211645   4.782   5.702   3.615  0.2724 -0.8381 -0.2174
 3901TIP3    H111646   4.795   5.797   3.615  0.9736 -0.9347  0.4120
 3901TIP3    H211647   4.688   5.691   3.618  0.2609 -0.1784  2.2885
 3902TIP3   OH211648   6.476   5.749   3.281 -0.4269  0.7507  0.5672
 3902TIP3    H111649   6.397   5.727   3.330 -0.0527 -1.8657  0.0663
 3902TIP3    H211650   6.449   5.747   3.189  0.2588 -0.4915  0.3739
 3903TIP3   OH211651   5.764   6.471   2.274  0.0991  0.7272  0.7366
 3903TIP3    H111652   5.680   6.517   2.269  0.3028  1.3565  2.7605
 3903TIP3    H211653   5.786   6.471   2.367  0.7785 -2.2882  0.6153
 3904TIP3   OH211654   5.439   5.489   1.939 -0.2493 -0.3517  0.2439
 3904TIP3    H111655   5.424   5.482   1.844  1.6118 -2.0208  0.0562
 3904TIP3    H211656   5.383   5.422   1.977  1.1663 -1.6734  0.0724
 3905TIP3   OH211657   7.460   5.215   1.661  0.1452 -0.5085  0.3273
 3905TIP3    H111658   7.411   5.173   1.731  0.3320 -0.8651  0.2445
 3905TIP3    H211659   7.541   5.244   1.703 -0.0244 -0.1459  0.4061
 3906TIP3   OH211660   3.738   3.494   0.574  0.1572 -0.4759 -0.5480
 3906TIP3    H111661   3.705   3.415   0.619  0.4119  0.7846  1.9398
 3906TIP3    H211662   3.829   3.502   0.603 -0.4807  1.8981  0.9007
 3907TIP3   OH211663   6.875   5.540   2.740 -0.2085 -0.3710 -0.0675
 3907TIP3    H111664   6.967   5.558   2.759 -0.1813  0.6722 -1.1613
 3907TIP3    H211665   6.827   5.596   2.802 -0.1132 -1.6291  1.1552
 3908TIP3   OH211666   4.986   5.544   4.159 -0.0660 -0.4641  0.1563
 3908TIP3    H111667   4.996   5.586   4.244 -1.2243  1.6160 -0.6940
 3908TIP3    H211668   4.936   5.606   4.107 -0.7684 -2.3830 -1.5610
 3909TIP3   OH211669   5.300   4.693   1.361  0.1363 -0.2418 -0.3060
 3909TIP3    H111670   5.235   4.664   1.297  0.4745 -0.7524 -0.4225
 3909TIP3    H211671   5.363   4.620   1.366  0.0336 -0.2615  0.7168
 3910TIP3   OH211672   5.544   4.819   2.199  0.0348  0.2273  0.2850
 3910TIP3    H111673   5.503   4.872   2.268  1.1128 -0.7011  1.6888
 3910TIP3    H211674   5.535   4.729   2.230 -1.0962 -0.3639 -1.7036
 3911TIP3   OH211675   3.939   4.683   2.569 -0.8496 -0.2796 -0.4174
 3911TIP3    H111676   3.946   4.604   2.516 -1.4705  0.4586 -1.6342
 3911TIP3    H211677   3.938   4.652   2.660  0.4021 -1.5534 -0.8253
 3912TIP3   OH211678   4.852   7.705   0.108 -0.6623 -0.4988 -0.3059
 3912TIP3    H111679   4.874   7.762   0.182 -2.4919  0.4992 -0.4994
 3912TIP3    H211680   4.933   7.657   0.090  0.8875  1.9610 -0.0950
 3913TIP3   OH211681   6.121   4.772   2.609  0.4756 -0.3625  0.5368
 3913TIP3    H111682   6.094   4.854   2.650  1.7877 -0.5180  1.7604
 3913TIP3    H211683   6.217   4.778   2.606  0.4433 -0.5758 -2.0731
 3914TIP3   OH211684   5.945   4.654   0.968  0.9552  0.7126  0.4083
 3914TIP3    H111685   5.921   4.598   0.895  1.1254  1.5914 -0.3210
 3914TIP3    H211686   5.863   4.695   0.995  0.9695  0.7219  0.4385
 3915TIP3   OH211687   4.835   4.590   1.285 -0.2084  0.0710  0.4837
 3915TIP3    H111688   4.808   4.498   1.281  1.5298 -0.5337  1.5752
 3915TIP3    H211689   4.756   4.640   1.267 -0.9943 -1.6579 -0.9683
 3916TIP3   OH211690   5.415   2.803   1.051  0.1568 -0.0212 -0.5877
 3916TIP3    H111691   5.321   2.802   1.032  0.1616  0.6063 -0.6562
 3916TIP3    H211692   5.427   2.879   1.108  0.6973  0.1900 -0.9796
 3917TIP3   OH211693   3.223   6.204   2.305 -0.2329 -0.4935  0.2954
 3917TIP3    H111694   3.130   6.217   2.291 -0.0827 -0.2161 -0.4801
 3917TIP3    H211695   3.239   6.113   2.283 -0.3244 -0.5575  0.4852
 3918TIP3   OH211696   4.868   3.423   1.929  0.2508 -0.0797 -0.5187
 3918TIP3    H111697   4.955   3.384   1.928  0.1900 -0.3144  1.5505
 3918TIP3    H211698   4.881   3.509   1.970 -0.4272  0.0030 -0.4771
 3919TIP3   OH211699   3.672   7.065   1.698 -0.4352 -0.2540 -0.1515
 3919TIP3    H111700   3.729   7.034   1.769 -0.2856 -0.8170 -0.5156
 3919TIP3    H211701   3.657   6.988   1.644 -1.4868 -0.0958 -0.1041
 3920TIP3   OH211702   7.536   4.529   1.949 -0.0737 -0.0939  0.2684
 3920TIP3    H111703   7.604   4.595   1.936  0.1298 -0.4315 -0.4282
 3920TIP3    H211704   7.538   4.511   2.043  1.5018 -0.8362  0.1117
 3921TIP3   OH211705   3.253   5.192   2.135  0.0099 -0.2152 -0.2502
 3921TIP3    H111706   3.324   5.233   2.085  0.6818 -0.6987  0.3085
 3921TIP3    H211707   3.231   5.256   2.203  0.8923 -0.6765  0.4708
 3922TIP3   OH211708   3.973   6.514   0.819 -0.0033  0.0922  0.3227
 3922TIP3    H111709   4.060   6.494   0.855 -0.6062  1.1375  2.4188
 3922TIP3    H211710   3.991   6.561   0.738  1.4375  1.8210  1.5902
 3923TIP3   OH211711   6.564   3.280   2.242 -0.5282  0.5587 -0.1105
 3923TIP3    H111712   6.485   3.331   2.255  0.1037  1.3849  0.5456
 3923TIP3    H211713   6.538   3.209   2.182 -2.3085 -0.5368  1.8966
 3924TIP3   OH211714   5.317   5.156   1.965  0.0794 -0.1626  0.2184
 3924TIP3    H111715   5.412   5.151   1.953  0.1537 -2.3453  1.5170
 3924TIP3    H211716   5.283   5.080   1.917 -0.9845  0.3270  0.1773
 3925TIP3   OH211717   6.896   6.098   3.949  0.4681 -0.1504  0.3481
 3925TIP3    H111718   6.984   6.130   3.968  1.0588 -0.9547 -0.9437
 3925TIP3    H211719   6.866   6.150   3.874  0.0908 -0.3116  0.3816
 3926TIP3   OH211720   4.703   2.145   1.117  0.4316  0.9328  0.0439
 3926TIP3    H111721   4.754   2.121   1.194 -0.5861  1.1340  0.7806
 3926TIP3    H211722   4.644   2.071   1.103 -0.6893  1.7259  0.5778
 3927TIP3   OH211723   4.433   3.914   1.419  0.5844 -0.5431  0.2714
 3927TIP3    H111724   4.421   4.009   1.430 -0.4959 -0.5308 -0.9288
 3927TIP3    H211725   4.487   3.905   1.341 -1.5729 -0.9897 -1.1961
 3928TIP3   OH211726   5.986   4.307   1.507  0.5559 -1.0798  0.2403
 3928TIP3    H111727   5.958   4.256   1.431 -0.6837  2.3119 -1.7036
 3928TIP3    H211728   5.915   4.297   1.570 -0.4943 -0.3684 -0.8181
 3929TIP3   OH211729   3.848   4.670   3.028 -0.3418  0.3160  0.3417
 3929TIP3    H111730   3.827   4.652   2.937  1.0960 -0.5270  0.1644
 3929TIP3    H211731   3.765   4.702   3.066 -1.5429 -1.5176 -0.6720
 3930TIP3   OH211732   6.122   5.060   3.589  0.2224 -0.2337  0.7575
 3930TIP3    H111733   6.029   5.041   3.606  0.2869 -0.9556  0.3197
 3930TIP3    H211734   6.161   5.068   3.676  0.2186 -2.2715  0.9636
 3931TIP3   OH211735   7.180   2.747   1.980 -0.5119  0.1240  0.4319
 3931TIP3    H111736   7.229   2.711   1.906  0.3821  0.5249  0.8102
 3931TIP3    H211737   7.153   2.671   2.031  0.1352 -0.0924  0.4634
 3932TIP3   OH211738   5.744   6.214   0.827 -0.3493  0.1265  0.1606
 3932TIP3    H111739   5.665   6.238   0.779 -0.2254 -1.3117 -0.7828
 3932TIP3    H211740   5.715   6.206   0.918 -0.9071  1.3244  0.0993
 3933TIP3   OH211741   6.284   4.715   1.914  0.5576 -0.2663  0.0491
 3933TIP3    H111742   6.269   4.659   1.838 -2.7355  0.3933  0.1550
 3933TIP3    H211743   6.326   4.794   1.879  0.8655 -0.7977 -0.7749
 3934TIP3   OH211744   2.838   4.050   2.957 -0.2239  0.2485 -0.1822
 3934TIP3    H111745   2.809   3.961   2.941  0.1856 -0.3866  2.4077
 3934TIP3    H211746   2.790   4.078   3.035  0.5197  1.8711 -0.2805
 3935TIP3   OH211747   5.786   5.600   3.908  0.3677 -0.1290 -0.2605
 3935TIP3    H111748   5.824   5.554   3.834 -1.3387 -1.6722 -0.2219
 3935TIP3    H211749   5.700   5.559   3.920  0.8684 -0.3531  2.9836
 3936TIP3   OH211750   3.722   5.390   2.957  0.1819 -0.1102 -0.1531
 3936TIP3    H111751   3.772   5.325   2.907 -0.4231 -0.2575 -0.5765
 3936TIP3    H211752   3.705   5.347   3.041  1.3900  0.2218  0.2672
 3937TIP3   OH211753   3.739   6.881   0.529 -0.2945  0.4814 -0.1101
 3937TIP3    H111754   3.785   6.898   0.611 -1.4276  0.5509  0.5200
 3937TIP3    H211755   3.764   6.954   0.472 -0.5669  1.1616  0.6307
 3938TIP3   OH211756   6.073   5.456   2.261 -0.3657 -0.0948  0.1215
 3938TIP3    H111757   6.005   5.509   2.302 -0.3329  0.4915 -0.5573
 3938TIP3    H211758   6.071   5.482   2.169 -0.1066 -1.0299 -0.1492
 3939TIP3   OH211759   6.670   6.169   2.270 -0.0202 -0.7082  0.9166
 3939TIP3    H111760   6.674   6.163   2.175 -0.1057  0.6845  0.8234
 3939TIP3    H211761   6.588   6.125   2.293  0.4444 -1.8586  0.4383
 3940TIP3   OH211762   5.906   4.947   1.237 -0.7395 -0.6957 -0.0645
 3940TIP3    H111763   5.867   5.034   1.228 -0.0658 -0.2917  0.8356
 3940TIP3    H211764   5.862   4.894   1.170 -1.9459  0.0484  0.1229
 3941TIP3   OH211765   7.345   4.394   3.104 -0.7665  0.1873  0.4980
 3941TIP3    H111766   7.254   4.421   3.103 -0.7188  0.3418  0.2615
 3941TIP3    H211767   7.345   4.310   3.150 -1.3496 -0.9576 -1.5276
 3942TIP3   OH211768   5.672   6.744   1.092 -0.4333 -0.2624  0.4510
 3942TIP3    H111769   5.637   6.751   1.181 -0.7504 -2.6291  0.5532
 3942TIP3    H211770   5.639   6.822   1.047 -1.5964  0.1475  1.9676
 3943TIP3   OH211771   5.895   6.239   3.875  0.0133 -0.4209  0.1076
 3943TIP3    H111772   5.985   6.211   3.892  0.3480  0.1691 -0.6416
 3943TIP3    H211773   5.877   6.206   3.787  0.3420  1.5116 -0.7000
 3944TIP3   OH211774   5.904   5.520   1.423  0.3562 -0.1453 -0.4700
 3944TIP3    H111775   5.860   5.481   1.348 -0.8696  0.4566 -0.0971
 3944TIP3    H211776   5.958   5.450   1.460 -1.1993 -1.2605 -0.2605
 3945TIP3   OH211777   6.149   4.006   3.574  0.3222 -0.2283 -0.3547
 3945TIP3    H111778   6.095   4.027   3.651 -0.5667  0.6790 -1.2102
 3945TIP3    H211779   6.086   3.990   3.504  1.1643  0.5157 -1.2889
 3946TIP3   OH211780   5.698   4.326   1.428  0.2127 -0.1468 -0.1021
 3946TIP3    H111781   5.697   4.324   1.524 -0.0408  0.1947 -0.0975
 3946TIP3    H211782   5.666   4.239   1.403  0.3279 -0.2564  0.1223
 3947TIP3   OH211783   3.662   2.813   1.566  0.2250  0.2165  0.6527
 3947TIP3    H111784   3.589   2.822   1.627 -1.1620 -1.1877 -0.7555
 3947TIP3    H211785   3.640   2.871   1.493 -0.6217 -1.8484 -0.8004
 3948TIP3   OH211786   5.271   3.630   3.102 -0.5816 -0.4375  0.3399
 3948TIP3    H111787   5.352   3.596   3.140 -1.3996  1.0785  3.5657
 3948TIP3    H211788   5.203   3.569   3.132 -0.9412 -0.5662 -0.6977
 3949TIP3   OH211789   4.743   7.408   1.048 -0.3150  0.2059 -0.2102
 3949TIP3    H111790   4.738   7.503   1.041 -0.7309  0.1787 -0.3108
 3949TIP3    H211791   4.771   7.379   0.961  0.1246  0.2558 -0.0882
 3950TIP3   OH211792   6.326   6.278   2.734  0.2801  0.2614  0.0322
 3950TIP3    H111793   6.368   6.197   2.704  1.8608  1.9886 -2.6405
 3950TIP3    H211794   6.258   6.248   2.795  1.8725 -2.9598  0.3833
 3951TIP3   OH211795   5.401   5.290   1.412 -0.3343 -0.2893 -0.5638
 3951TIP3    H111796   5.383   5.276   1.319  2.2373 -0.0909 -1.1286
 3951TIP3    H211797   5.400   5.202   1.450 -2.7516 -0.2584 -0.4823
 3952TIP3   OH211798   7.113   4.675   3.155  0.5754 -0.1713 -0.2784
 3952TIP3    H111799   7.067   4.741   3.104  3.5902  1.8756 -0.4564
 3952TIP3    H211800   7.105   4.595   3.103 -1.1241  0.5948 -1.2172
 3953TIP3   OH211801   4.162   3.572   1.358 -0.0168 -0.0008  0.1671
 3953TIP3    H111802   4.237   3.596   1.412  0.8546  0.5712 -1.2723
 3953TIP3    H211803   4.200   3.548   1.274 -1.4361  0.1115 -0.5171
 3954TIP3   OH211804   5.891   2.048   2.635 -1.0372 -0.0507  0.2044
 3954TIP3    H111805   5.858   2.039   2.724  1.2538 -1.7432  0.9644
 3954TIP3    H211806   5.954   2.120   2.639  0.0003 -0.9455  0.2755
 3955TIP3   OH211807   6.196   5.105   1.984  0.0390 -0.3714  0.6110
 3955TIP3    H111808   6.262   5.065   1.928 -0.9637  0.1736 -0.9696
 3955TIP3    H211809   6.112   5.087   1.941 -0.7060  0.4549  1.6706
 3956TIP3   OH211810   5.720   4.658   3.380 -0.2066 -0.5844  0.8967
 3956TIP3    H111811   5.766   4.703   3.310 -3.0893  0.6001 -0.3270
 3956TIP3    H211812   5.724   4.718   3.454  2.2332 -1.5312  1.5664
 3957TIP3   OH211813   3.272   3.383   3.211 -0.1332 -0.3376 -0.2532
 3957TIP3    H111814   3.189   3.408   3.171  0.0457  0.5059 -0.1003
 3957TIP3    H211815   3.332   3.374   3.138 -0.2137 -0.3960 -0.3126
 3958TIP3   OH211816   6.224   4.656   4.603  0.0039  0.0228  0.5716
 3958TIP3    H111817   6.273   4.737   4.587  0.1653  0.0195  1.0440
 3958TIP3    H211818   6.136   4.675   4.571  0.7045 -0.5064 -1.7745
 3959TIP3   OH211819   4.613   2.716   2.343 -0.0025  0.0575 -0.5762
 3959TIP3    H111820   4.566   2.697   2.424 -1.0713  0.5391 -1.0817
 3959TIP3    H211821   4.670   2.640   2.330  0.0856 -0.0820  0.5528
 3960TIP3   OH211822   3.716   5.761   3.985 -0.1744  0.1591 -0.4105
 3960TIP3    H111823   3.801   5.717   3.992  0.7095  1.5490 -1.8392
 3960TIP3    H211824   3.655   5.693   3.958  0.7970 -0.5518 -0.8269
 3961TIP3   OH211825   4.085   3.564   1.805  0.1903  0.9536  0.4591
 3961TIP3    H111826   4.100   3.644   1.755  1.6668  0.1896 -0.3381
 3961TIP3    H211827   4.171   3.543   1.842 -0.1599 -0.3626  0.5118
 3962TIP3   OH211828   4.146   4.293   2.629 -0.0146 -1.1286 -0.0523
 3962TIP3    H111829   4.077   4.357   2.645  1.0071  0.2677 -1.0358
 3962TIP3    H211830   4.107   4.227   2.573 -0.8196 -0.8821  0.2193
 3963TIP3   OH211831   6.602   2.641   1.065  0.1506 -0.3144 -0.3272
 3963TIP3    H111832   6.692   2.609   1.076  0.1178 -0.3473 -0.1487
 3963TIP3    H211833   6.610   2.719   1.010  0.5264  0.9669  1.5062
 3964TIP3   OH211834   4.788   6.433   2.943  0.2254 -0.0462 -0.3683
 3964TIP3    H111835   4.777   6.524   2.914  1.3204  0.1387 -0.2272
 3964TIP3    H211836   4.822   6.388   2.866 -0.2215 -0.3227 -0.4073
 3965TIP3   OH211837   6.385   3.206   3.645 -0.3347  0.4144 -0.6961
 3965TIP3    H111838   6.396   3.251   3.560  1.0376  0.4226 -0.5278
 3965TIP3    H211839   6.408   3.273   3.710  1.1917 -0.3467 -0.4261
 3966TIP3   OH211840   6.233   5.252   2.454  0.6454  0.2293 -0.3458
 3966TIP3    H111841   6.232   5.315   2.382  0.2211  0.4835 -0.1247
 3966TIP3    H211842   6.140   5.242   2.477  0.8090  0.4546  0.4270
 3967TIP3   OH211843   2.562   4.835   2.465 -0.1935 -0.1119 -0.2789
 3967TIP3    H111844   2.589   4.912   2.415  0.2421 -0.2822 -0.3088
 3967TIP3    H211845   2.499   4.790   2.408  0.6375 -0.5480 -0.8737
 3968TIP3   OH211846   0.571   7.425   6.749 -0.0128 -0.2539  0.1022
 3968TIP3    H111847   0.635   7.355   6.757  0.5107  0.2703  0.5830
 3968TIP3    H211848   0.539   7.419   6.659  1.2529 -0.0523 -0.3626
 3969TIP3   OH211849   4.863   5.075   0.218 -0.3790 -0.0309 -0.2666
 3969TIP3    H111850   4.854   5.154   0.271  0.9760 -0.8881  1.2816
 3969TIP3    H211851   4.956   5.068   0.199 -0.8251  0.2319 -2.7862
 3970TIP3   OH211852   3.310   5.695   2.427 -0.0149  0.3562  0.5168
 3970TIP3    H111853   3.401   5.727   2.427  0.4803 -0.8226 -3.4091
 3970TIP3    H211854   3.316   5.605   2.396 -2.6017  0.4893 -0.4956
 3971TIP3   OH211855   6.339   4.043   2.041 -0.8989 -0.1163  0.1868
 3971TIP3    H111856   6.419   4.064   2.089 -0.6318  0.6145 -0.5734
 3971TIP3    H211857   6.340   3.947   2.034 -0.5392 -0.1725  0.9409
 3972TIP3   OH211858   7.206   5.000   1.282 -0.0082 -1.2548  0.3178
 3972TIP3    H111859   7.141   4.985   1.351 -0.7520  0.3095 -0.0339
 3972TIP3    H211860   7.238   4.912   1.261 -1.9837 -2.0580  0.5157
 3973TIP3   OH211861   5.012   4.561   2.091  0.3905  0.4601 -0.8940
 3973TIP3    H111862   4.982   4.605   2.012  0.5676  0.1607 -1.1259
 3973TIP3    H211863   4.932   4.549   2.143  0.3208  0.9159 -0.8956
 3974TIP3   OH211864   5.437   2.549   0.796 -0.7765  0.0904 -0.1398
 3974TIP3    H111865   5.437   2.645   0.802 -0.0701  0.1519 -1.1199
 3974TIP3    H211866   5.344   2.526   0.786 -0.9397  0.6695 -0.0119
 3975TIP3   OH211867   6.633   3.660   2.931 -0.7468  0.0600 -0.5027
 3975TIP3    H111868   6.631   3.600   3.006 -1.6788 -0.6261 -1.0665
 3975TIP3    H211869   6.696   3.728   2.956  1.1493 -1.7386 -0.3086
 3976TIP3   OH211870   5.567   3.700   1.448  0.6700 -0.4868 -0.4263
 3976TIP3    H111871   5.576   3.795   1.445 -0.1585 -0.2476  2.6290
 3976TIP3    H211872   5.523   3.677   1.366  0.2262  1.8466 -0.8621
 3977TIP3   OH211873   5.107   5.757   1.408  0.1297 -0.0164 -0.3345
 3977TIP3    H111874   5.065   5.699   1.345  1.7425  0.0933 -1.5443
 3977TIP3    H211875   5.178   5.705   1.445  0.2754  0.4956  0.1251
 3978TIP3   OH211876   4.742   4.670   2.908  0.4025 -0.6148 -0.4408
 3978TIP3    H111877   4.829   4.689   2.941 -0.4368 -2.6127  3.2047
 3978TIP3    H211878   4.683   4.708   2.974 -1.5469  1.6482 -3.3732
 3979TIP3   OH211879   6.295   4.483   1.188  0.2462 -0.5844 -0.1936
 3979TIP3    H111880   6.358   4.413   1.172 -0.6375 -1.5380  0.3860
 3979TIP3    H211881   6.329   4.529   1.265  0.2756 -1.0355  0.0619
 3980TIP3   OH211882   2.586   5.036   3.950  0.1059 -0.0973  0.5420
 3980TIP3    H111883   2.519   5.102   3.966  0.1348  0.3755 -1.1916
 3980TIP3    H211884   2.669   5.083   3.953  0.1141 -0.0006 -0.8869
 3981TIP3   OH211885   3.362   3.622   3.292  0.7694 -0.4566 -0.3729
 3981TIP3    H111886   3.415   3.542   3.292 -0.2895 -1.1607  0.2510
 3981TIP3    H211887   3.354   3.646   3.384 -0.3507 -0.5998 -0.4209
 3982TIP3   OH211888   6.576   4.958   3.604 -0.9303  0.1118  0.0193
 3982TIP3    H111889   6.544   4.916   3.684 -1.1273 -0.7309 -0.4875
 3982TIP3    H211890   6.531   5.042   3.600  1.2733  1.4652  2.3153
 3983TIP3   OH211891   7.873   3.822   1.591 -0.3918 -0.3667 -0.8931
 3983TIP3    H111892   7.891   3.851   1.501 -0.7106  1.0934 -0.5039
 3983TIP3    H211893   7.783   3.791   1.588  0.1357 -1.9395 -1.4459
 3984TIP3   OH211894   7.563   3.194   1.525  0.3155  0.3142  0.1177
 3984TIP3    H111895   7.552   3.286   1.502  0.2047  0.3101  0.1502
 3984TIP3    H211896   7.553   3.192   1.620 -1.5276  0.0203 -0.0470
 3985TIP3   OH211897   6.987   4.054   2.051  0.1075  0.2023  0.1795
 3985TIP3    H111898   6.953   4.002   2.125 -0.6296 -0.6857 -0.7628
 3985TIP3    H211899   6.972   4.145   2.077 -2.0660 -0.1462  0.2413
 3986TIP3   OH211900   7.813   3.382   1.627  0.6687  0.7202  0.1616
 3986TIP3    H111901   7.866   3.413   1.701  1.9770  1.4850 -1.0663
 3986TIP3    H211902   7.723   3.399   1.654  1.0848  0.2985  1.8859
 3987TIP3   OH211903   3.372   3.083   1.528  0.1974  0.2772 -0.6669
 3987TIP3    H111904   3.291   3.086   1.478 -0.5466 -0.7195  0.4260
 3987TIP3    H211905   3.417   3.164   1.507 -2.4950  2.2989  1.0314
 3988TIP3   OH211906   4.512   5.489   3.326  0.3397  0.4321  0.0627
 3988TIP3    H111907   4.490   5.470   3.235  0.8644 -2.6239  0.5007
 3988TIP3    H211908   4.429   5.484   3.373  0.3964 -0.4390  0.0894
 3989TIP3   OH211909   7.917   5.091   2.104  0.0544 -0.5645 -0.0963
 3989TIP3    H111910   7.967   5.050   2.174  2.1861 -0.0449 -1.2540
 3989TIP3    H211911   7.983   5.122   2.042 -1.7075  0.2786 -1.6291
 3990TIP3   OH211912   8.436   2.949   1.579  0.2052  0.4139  0.3596
 3990TIP3    H111913   8.503   2.885   1.602  0.7185  0.8930  0.1881
 3990TIP3    H211914   8.476   3.004   1.512 -0.3510  0.7135  0.2660
 3991TIP3   OH211915   6.420   5.324   1.152 -0.2174 -0.0772  0.2302
 3991TIP3    H111916   6.453   5.414   1.146  0.6889 -0.3000  1.5008
 3991TIP3    H211917   6.430   5.302   1.245 -4.8131  0.1153  0.8666
 3992TIP3   OH211918   4.588   4.447   0.530  0.9104 -0.0308  0.1372
 3992TIP3    H111919   4.674   4.471   0.564  1.3624 -1.2540 -0.1145
 3992TIP3    H211920   4.546   4.401   0.603  1.1450 -0.9505 -0.2919
 3993TIP3   OH211921   6.266   5.652   2.992 -0.3116  0.4505  0.0208
 3993TIP3    H111922   6.282   5.743   3.015 -0.7070  0.1936  1.3671
 3993TIP3    H211923   6.191   5.627   3.046 -0.2254 -0.6568 -0.3682
 3994TIP3   OH211924   6.718   5.725   0.720 -0.3708 -0.5513 -0.5366
 3994TIP3    H111925   6.813   5.715   0.716 -0.3036  0.1099 -0.6248
 3994TIP3    H211926   6.696   5.773   0.640 -0.6309  0.4044  0.1043
 3995TIP3   OH211927   5.266   4.147   2.801 -0.3254 -0.3943 -0.2597
 3995TIP3    H111928   5.311   4.064   2.809 -0.6443 -0.6693 -1.2481
 3995TIP3    H211929   5.189   4.128   2.747  1.5708  1.2996 -3.6601
 3996TIP3   OH211930   5.548   2.568   1.097  0.2564 -0.3435  0.3293
 3996TIP3    H111931   5.635   2.601   1.076 -0.0280 -0.6695 -1.4224
 3996TIP3    H211932   5.490   2.642   1.084  0.0164 -0.6786 -0.5768
 3997TIP3   OH211933   5.270   4.865   3.320 -0.0730  0.0245  0.7199
 3997TIP3    H111934   5.219   4.804   3.373 -1.6565 -1.9018 -2.7921
 3997TIP3    H211935   5.359   4.831   3.322 -0.4587 -0.9848  0.8251
 3998TIP3   OH211936   5.712   7.791   3.601 -0.4112  0.6467  0.8733
 3998TIP3    H111937   5.636   7.772   3.547  0.0614  0.7755  0.1581
 3998TIP3    H211938   5.683   7.774   3.691 -0.5546 -1.6985  0.4230
 3999TIP3   OH211939   5.168   5.629   1.743  0.0103 -0.2149 -0.4471
 3999TIP3    H111940   5.086   5.673   1.725 -0.9921 -0.1954  3.6319
 3999TIP3    H211941   5.231   5.700   1.757 -0.1997 -0.1511  0.1971
 4000TIP3   OH211942   6.875   7.591   4.120 -0.0672  0.4982 -0.4454
 4000TIP3    H111943   6.832   7.609   4.204  1.4969  0.5221  0.3735
 4000TIP3    H211944   6.803   7.581   4.058 -1.3102 -0.6072  1.1082
 4001TIP3   OH211945   6.914   5.414   1.970  0.4371  0.7906 -0.0524
 4001TIP3    H111946   6.907   5.483   1.905  0.8946 -0.8654 -1.8956
 4001TIP3    H211947   6.829   5.413   2.014  0.1989  2.0438 -0.4754
 4002TIP3   OH211948   6.481   4.133   2.777 -0.6384 -0.0078  0.1228
 4002TIP3    H111949   6.471   4.038   2.777  0.5542 -0.1641  1.4643
 4002TIP3    H211950   6.417   4.165   2.714 -1.2189 -1.6882 -0.1500
 4003TIP3   OH211951   2.822   5.022   3.277 -0.5760  0.2420 -0.0406
 4003TIP3    H111952   2.814   4.986   3.365  3.8596 -0.4811  0.1389
 4003TIP3    H211953   2.858   4.951   3.225  0.1324  1.7383 -1.6492
 4004TIP3   OH211954   6.589   5.280   2.809  0.4778 -0.4606  0.4225
 4004TIP3    H111955   6.558   5.209   2.753  0.6644 -0.2811  0.0881
 4004TIP3    H211956   6.632   5.341   2.749  0.5607 -0.2002  0.7438
 4005TIP3   OH211957   6.184   3.950   1.225 -0.1694 -0.3411  0.0507
 4005TIP3    H111958   6.216   4.024   1.173 -2.3664 -0.1483 -1.0887
 4005TIP3    H211959   6.200   3.975   1.316  0.1478  1.0430 -0.3788
 4006TIP3   OH211960   5.274   4.972   3.069 -0.8991 -0.0128 -0.0265
 4006TIP3    H111961   5.178   4.977   3.077 -0.7498  0.4832  1.5642
 4006TIP3    H211962   5.299   4.904   3.131 -0.3705 -1.5067 -1.8284
 4007TIP3   OH211963   5.997   5.958   1.923 -0.4767  0.6590 -0.5629
 4007TIP3    H111964   5.905   5.963   1.897 -0.5925  0.1877 -0.2553
 4007TIP3    H211965   6.033   5.885   1.872 -0.6213 -0.0502  0.3402
 4008TIP3   OH211966   2.692   5.766   3.503  0.2614 -0.3016  0.5104
 4008TIP3    H111967   2.773   5.798   3.462  0.4758 -0.3254  0.9163
 4008TIP3    H211968   2.639   5.845   3.517 -0.4302 -0.4503 -1.1516
 4009TIP3   OH211969   3.831   6.415   2.775  0.1646 -0.1594 -0.3939
 4009TIP3    H111970   3.803   6.394   2.864  0.0826  0.2345 -0.3278
 4009TIP3    H211971   3.880   6.338   2.747 -0.3052 -0.5253 -0.2184
 4010TIP3   OH211972   4.267   6.474   1.582  0.6783 -0.2775  0.0143
 4010TIP3    H111973   4.179   6.444   1.556  1.3207 -0.5515 -1.9450
 4010TIP3    H211974   4.251   6.553   1.634 -0.6904  0.5843 -1.6577
 4011TIP3   OH211975   7.032   4.352   0.934 -0.0909 -0.0786  0.0327
 4011TIP3    H111976   7.090   4.283   0.904  0.6109  1.0474 -1.2596
 4011TIP3    H211977   6.980   4.375   0.857 -0.8018  0.3589  0.6325
 4012TIP3   OH211978   6.364   2.791   1.760 -0.2008 -0.4190 -0.1195
 4012TIP3    H111979   6.424   2.716   1.762  0.5341  0.1849  1.0058
 4012TIP3    H211980   6.370   2.824   1.670  0.7555 -0.6934 -0.1650
 4013TIP3   OH211981   7.646   5.371   2.862 -0.2643 -0.5635 -0.1346
 4013TIP3    H111982   7.701   5.299   2.893  2.6410  2.2316  1.4502
 4013TIP3    H211983   7.707   5.439   2.834 -2.8894  1.9233 -0.1184
 4014TIP3   OH211984   5.738   5.801   2.750  0.4958 -0.2690  0.0221
 4014TIP3    H111985   5.683   5.769   2.678  1.1052  0.1218 -0.6235
 4014TIP3    H211986   5.715   5.745   2.824  0.7365 -1.4848 -0.7987
 4015TIP3   OH211987   5.444   1.087   0.487 -0.2144 -0.4228 -0.2402
 4015TIP3    H111988   5.447   1.180   0.464  0.9271 -0.5570 -0.6670
 4015TIP3    H211989   5.402   1.044   0.413  0.3626 -0.4022 -0.5827
 4016TIP3   OH211990   6.233   4.586   1.691  0.0600  0.0300  0.0551
 4016TIP3    H111991   6.187   4.579   1.608 -2.9218 -0.4491  1.6758
 4016TIP3    H211992   6.257   4.496   1.713 -1.2946 -0.1498  0.8464
 4017TIP3   OH211993   5.266   4.325   3.533 -0.5857  0.0276 -0.1595
 4017TIP3    H111994   5.233   4.385   3.599 -1.7339 -0.2244 -0.4928
 4017TIP3    H211995   5.250   4.369   3.449 -0.3192 -0.2077 -0.3369
 4018TIP3   OH211996   3.837   0.071   6.650 -0.5637 -0.6538 -0.1702
 4018TIP3    H111997   3.850  -0.017   6.683  2.2123  0.2015  1.1704
 4018TIP3    H211998   3.795   0.118   6.722  2.5356  0.3720  1.0323
 4019TIP3   OH211999   2.310   2.328   6.419  0.3569  0.1229 -0.5227
 4019TIP3    H112000   2.341   2.271   6.489  0.2830 -0.9322 -1.3441
 4019TIP3    H212001   2.263   2.398   6.464  1.4365  0.1691  0.5546
 4020TIP3   OH212002   5.524   2.964   3.558  0.9393 -0.3517  0.4153
 4020TIP3    H112003   5.578   2.913   3.499  0.4510 -0.2460 -0.1249
 4020TIP3    H212004   5.551   3.055   3.543  0.2071 -0.2404 -0.2880
 4021TIP3   OH212005   4.300   4.172   1.461 -0.1974  0.3332 -0.5875
 4021TIP3    H112006   4.282   4.265   1.456 -1.0831  0.1608 -0.6557
 4021TIP3    H212007   4.304   4.153   1.555 -2.7313 -0.0639 -0.5311
 4022TIP3   OH212008   5.726   5.038   0.855 -0.2232  0.1635  0.7072
 4022TIP3    H112009   5.755   5.001   0.771  0.9552 -0.8181  1.5225
 4022TIP3    H212010   5.673   5.114   0.831 -0.0646 -0.2239 -0.9320
 4023TIP3   OH212011   6.248   5.907   1.566  0.3631  0.1064  0.1712
 4023TIP3    H112012   6.185   5.855   1.516  0.7178  0.0038 -0.1724
 4023TIP3    H212013   6.229   5.997   1.541  0.8240  0.0268 -0.4898
 4024TIP3   OH212014   3.500   1.651   3.845 -0.0460 -0.1562  0.0068
 4024TIP3    H112015   3.446   1.721   3.808 -0.1105 -0.4027 -0.3592
 4024TIP3    H212016   3.549   1.616   3.771 -0.8188 -1.2295  0.0087
 4025TIP3   OH212017   4.000   2.763   2.771 -0.0693  0.3974 -0.0555
 4025TIP3    H112018   3.987   2.753   2.677 -2.5944 -1.6403  0.4520
 4025TIP3    H212019   3.938   2.832   2.796  0.3206  0.6626  0.1875
 4026TIP3   OH212020   3.641   6.917   2.489  0.8354 -0.3633  1.0039
 4026TIP3    H112021   3.577   6.876   2.547  2.8769 -0.9025  2.9787
 4026TIP3    H212022   3.682   6.985   2.543  1.0589  0.7927 -0.6021
 4027TIP3   OH212023   5.795   6.197   4.125 -0.2456 -0.5089 -0.8854
 4027TIP3    H112024   5.843   6.206   4.043 -0.3158 -0.5215 -0.9283
 4027TIP3    H212025   5.843   6.251   4.188 -0.5880  0.0563 -1.1047
 4028TIP3   OH212026   7.863   5.292   1.647 -0.4673  0.3754  0.0133
 4028TIP3    H112027   7.956   5.281   1.665 -1.1968  0.7314  4.9675
 4028TIP3    H212028   7.842   5.225   1.583  2.8645 -0.8815  0.1530
 4029TIP3   OH212029   2.337   6.791   6.122  0.1279  0.2356  0.3107
 4029TIP3    H112030   2.404   6.856   6.103  1.3460 -1.4738 -1.4131
 4029TIP3    H212031   2.378   6.732   6.186 -0.7835  0.8030  1.4550
 4030TIP3   OH212032   7.394   3.438   1.454  0.0246  0.1042 -0.2118
 4030TIP3    H112033   7.361   3.425   1.543 -2.5660 -1.8079 -1.3770
 4030TIP3    H212034   7.348   3.516   1.423  0.9932  0.8209  0.1690
 4031TIP3   OH212035   7.237   6.601   1.889 -0.1771 -0.3021 -0.0359
 4031TIP3    H112036   7.171   6.644   1.944 -0.0774  1.2132 -1.0761
 4031TIP3    H212037   7.219   6.508   1.898 -1.8536  0.0567  0.4547
 4032TIP3   OH212038   8.379   3.735   1.356  0.3491 -0.2347 -0.1061
 4032TIP3    H112039   8.407   3.663   1.299 -0.5686 -0.7437  0.0835
 4032TIP3    H212040   8.371   3.810   1.297 -1.2482 -0.9145 -0.7933
 4033TIP3   OH212041   6.993   4.939   1.748 -0.0042  0.2704  0.1985
 4033TIP3    H112042   6.933   4.878   1.792  2.2375 -1.8976  0.3767
 4033TIP3    H212043   6.966   5.026   1.780 -1.7557 -0.8158  1.8091
 4034TIP3   OH212044   5.496   5.086   1.201  0.3195  0.1235 -0.1332
 4034TIP3    H112045   5.440   5.062   1.127  1.5268 -0.2798 -0.9428
 4034TIP3    H212046   5.456   5.042   1.277 -0.2695 -0.4227 -0.7537
 4035TIP3   OH212047   5.749   4.094   0.775  0.0810  0.6171 -0.1113
 4035TIP3    H112048   5.790   4.046   0.846 -1.2757  1.0878  1.0194
 4035TIP3    H212049   5.798   4.176   0.769  0.9100  0.0970 -0.4835
 4036TIP3   OH212050   7.566   5.014   1.395 -0.2205 -0.1814  0.2631
 4036TIP3    H112051   7.507   4.946   1.364 -0.3898 -0.5492  1.3648
 4036TIP3    H212052   7.511   5.071   1.448  0.2863 -0.2019  0.8192
 4037TIP3   OH212053   8.380   5.657   2.454  0.1446 -0.6167 -0.0947
 4037TIP3    H112054   8.452   5.650   2.516  0.5015  0.6594 -0.3473
 4037TIP3    H212055   8.406   5.602   2.380  0.6409 -0.5358  0.0203
 4038TIP3   OH212056   3.069   6.324   6.793 -0.1741  0.0192 -0.1365
 4038TIP3    H112057   2.982   6.363   6.782  0.0404  1.0483  1.6915
 4038TIP3    H212058   3.129   6.399   6.797  0.8699 -0.6876 -1.7118
 4039TIP3   OH212059   8.101   3.188   2.438  0.1448 -0.0397 -0.0941
 4039TIP3    H112060   8.184   3.183   2.392  1.6362  1.2273  2.3447
 4039TIP3    H212061   8.049   3.115   2.403  0.5601  1.8135 -4.8517
 4040TIP3   OH212062   6.687   3.431   0.395 -0.9206  0.3734 -0.0313
 4040TIP3    H112063   6.654   3.390   0.315  1.5852  0.7062 -1.2703
 4040TIP3    H212064   6.685   3.525   0.377 -0.9619  0.4888  0.5631
 4041TIP3   OH212065   6.286   4.186   1.085  0.0923 -0.0624  0.1707
 4041TIP3    H112066   6.341   4.214   1.158  0.1903 -0.6886  0.3457
 4041TIP3    H212067   6.318   4.235   1.009  0.8430 -0.3723  0.2877
 4042TIP3   OH212068   0.462   6.657   5.904 -0.2012 -0.1335 -0.5873
 4042TIP3    H112069   0.433   6.570   5.934  1.3242 -0.2220  0.6807
 4042TIP3    H212070   0.557   6.654   5.911 -0.1144  1.5086 -0.9528
 4043TIP3   OH212071   5.046   1.221   6.717 -0.6416 -0.0524  0.5504
 4043TIP3    H112072   5.112   1.174   6.769 -0.7031  0.7337  1.3579
 4043TIP3    H212073   4.963   1.182   6.743 -0.6489  0.1677  0.8606
 4044TIP3   OH212074   7.772   5.387   2.396  0.3778  0.1057 -0.1813
 4044TIP3    H112075   7.830   5.412   2.324  0.2251  0.7227 -0.0872
 4044TIP3    H212076   7.732   5.305   2.366 -0.3646  0.8277 -1.1763
 4045TIP3   OH212077   6.099   2.457   2.871 -0.3628  0.1741 -0.0617
 4045TIP3    H112078   6.097   2.468   2.966  3.2316  1.0643 -0.0387
 4045TIP3    H212079   6.080   2.544   2.837  0.5640  0.3560 -0.1239
 4046TIP3   OH212080   0.204   2.131   1.036 -0.4179 -0.3887 -0.5628
 4046TIP3    H112081   0.221   2.141   0.942 -1.3434 -0.0947 -0.7053
 4046TIP3    H212082   0.217   2.037   1.052  0.4584 -0.3199 -0.8321
 4047TIP3   OH212083   5.401   0.305   6.845 -0.3714 -0.2951  0.2906
 4047TIP3    H112084   5.465   0.234   6.834 -0.2220 -0.0526 -0.4435
 4047TIP3    H212085   5.454   0.384   6.856 -0.5348 -0.3572  1.5837
 4048TIP3   OH212086   6.440   4.374   1.575  0.1124  0.5268 -0.0139
 4048TIP3    H112087   6.370   4.371   1.640 -0.6324 -1.8970 -0.8916
 4048TIP3    H212088   6.491   4.294   1.589  1.0556  0.8916 -1.2108
 4049TIP3   OH212089   8.244   4.166   2.601 -0.2414 -0.9358  0.0142
 4049TIP3    H112090   8.257   4.077   2.571 -0.1365 -1.4944  1.6414
 4049TIP3    H212091   8.180   4.159   2.673 -0.0359  0.2509  0.3404
 4050TIP3   OH212092   0.794   3.211   1.390  0.4790  0.3736 -0.1600
 4050TIP3    H112093   0.727   3.261   1.436 -0.0132 -0.2172 -0.2374
 4050TIP3    H212094   0.875   3.229   1.439  0.1425  0.5486  0.3314
 4051TIP3   OH212095   7.317   2.680   2.955 -0.2273 -0.2106 -0.9021
 4051TIP3    H112096   7.257   2.606   2.943 -0.8808 -0.1237  1.5196
 4051TIP3    H212097   7.263   2.747   2.996  1.4212  0.0011  1.0032
 4052TIP3   OH212098   8.490   4.676   0.562  0.0955  0.2008  0.2895
 4052TIP3    H112099   8.448   4.663   0.478 -0.3289 -0.6188  0.6302
 4052TIP3    H212100   8.438   4.744   0.605  1.6858  2.3196 -1.0471
 4053TIP3   OH212101   0.096   4.989   2.027  0.3984 -0.2510  0.1688
 4053TIP3    H112102   0.146   4.914   2.060  0.9561 -0.7966 -1.8193
 4053TIP3    H212103   0.007   4.955   2.016  1.2106 -1.5678 -3.4014
 4054TIP3   OH212104   4.439   0.103   6.798 -0.1260  0.3519  0.2149
 4054TIP3    H112105   4.365   0.058   6.758 -0.7662  1.0620  0.5747
 4054TIP3    H212106   4.483   0.146   6.725  1.2688 -1.9183 -0.3137
 4055TIP3   OH212107   6.081   3.648   0.913 -0.1382  0.0337 -0.3494
 4055TIP3    H112108   6.121   3.637   0.999  1.8137  0.3642 -1.2001
 4055TIP3    H212109   6.154   3.669   0.854 -1.7197  2.0590 -1.6793
 4056TIP3   OH212110   0.743   5.643   0.703  0.8530  0.1536  0.0084
 4056TIP3    H112111   0.739   5.728   0.660  1.9564 -0.0810 -0.5841
 4056TIP3    H212112   0.748   5.580   0.631 -1.6215 -0.5286  0.4105
 4057TIP3   OH212113   3.615   7.745   6.179 -0.0910 -0.4519 -0.3995
 4057TIP3    H112114   3.610   7.823   6.235  0.7813 -1.0201  0.4898
 4057TIP3    H212115   3.538   7.752   6.122 -0.2609  0.8336 -0.0427
 4058TIP3   OH212116   6.065   5.686   0.599  0.3200  0.0985  0.0743
 4058TIP3    H112117   6.019   5.623   0.654  0.7561 -1.0770 -0.8779
 4058TIP3    H212118   6.005   5.704   0.527  1.0145 -0.8347 -0.7523
 4059TIP3   OH212119   0.441   4.838   0.689 -0.4556  0.7522  0.6276
 4059TIP3    H112120   0.512   4.902   0.682 -1.3886  1.6777 -0.5819
 4059TIP3    H212121   0.435   4.798   0.602 -0.0865 -0.7866  1.2843
 4060TIP3   OH212122   8.035   3.409   1.832 -0.3125  0.1805 -0.2345
 4060TIP3    H112123   8.089   3.446   1.902  0.5756 -0.8682 -0.3454
 4060TIP3    H212124   8.022   3.317   1.858 -1.6790  0.3109 -0.4317
 4061TIP3   OH212125   7.218   3.796   0.865 -0.2913  0.4787 -0.5232
 4061TIP3    H112126   7.149   3.839   0.814  1.4736 -0.0935 -3.4744
 4061TIP3    H212127   7.227   3.710   0.825  2.4387  0.6911 -0.4378
 4062TIP3   OH212128   7.307   5.379   3.046 -0.2492 -0.0057  0.2835
 4062TIP3    H112129   7.287   5.365   3.139  0.7149  0.4609  0.5719
 4062TIP3    H212130   7.272   5.302   3.002 -0.7504 -0.2127  1.0295
 4063TIP3   OH212131   7.158   2.789   1.564  0.0389 -0.0504  0.1736
 4063TIP3    H112132   7.171   2.870   1.516 -1.6886  0.8426  1.1807
 4063TIP3    H212133   7.164   2.720   1.497  0.0000  1.0102 -0.9259
 4064TIP3   OH212134   5.074   4.069   0.891  0.4357 -0.3467 -0.0863
 4064TIP3    H112135   5.104   4.002   0.830 -1.0360 -1.3617  0.2875
 4064TIP3    H212136   5.054   4.022   0.972  0.0322  0.6346  0.3966
 4065TIP3   OH212137   7.517   7.290   1.521 -0.6008  0.0660 -0.7060
 4065TIP3    H112138   7.469   7.334   1.452  0.2929  0.9335 -0.7735
 4065TIP3    H212139   7.502   7.196   1.505 -0.1360  0.2466 -2.2620
 4066TIP3   OH212140   7.152   5.597   2.755 -0.9147 -0.1703 -1.1792
 4066TIP3    H112141   7.112   5.677   2.721 -0.8451  0.0291 -0.7875
 4066TIP3    H212142   7.232   5.626   2.798 -1.6207 -0.2638  0.2410
 4067TIP3   OH212143   7.238   4.414   1.533  0.6317  0.2171  0.1715
 4067TIP3    H112144   7.285   4.457   1.605  0.4056 -0.1387  0.5403
 4067TIP3    H212145   7.304   4.361   1.490  0.6279 -0.0893  0.5358
 4068TIP3   OH212146   6.303   5.399   3.241 -0.1411  0.3175 -0.4319
 4068TIP3    H112147   6.327   5.332   3.305  2.0256  3.6269  2.3892
 4068TIP3    H212148   6.381   5.409   3.186 -0.7793 -0.0996 -1.4240
 4069TIP3   OH212149   7.525   5.771   2.733 -0.0429 -0.0361 -0.0795
 4069TIP3    H112150   7.563   5.826   2.802 -2.2342  3.0341 -1.1656
 4069TIP3    H212151   7.474   5.705   2.780 -0.4989  1.2479  1.2719
 4070TIP3   OH212152   6.951   4.101   1.087 -0.1567  0.1522 -0.5950
 4070TIP3    H112153   7.023   4.049   1.122 -0.7010 -0.4775 -0.4007
 4070TIP3    H212154   6.925   4.056   1.006 -1.2088 -0.3794  0.0341
 4071TIP3   OH212155   8.221   4.145   0.800 -0.0446  0.3851 -0.2254
 4071TIP3    H112156   8.197   4.053   0.802  0.8250  0.1740  0.6616
 4071TIP3    H212157   8.140   4.191   0.822 -0.2917 -0.1973  0.0991
 4072TIP3   OH212158   7.378   3.510   2.535  0.3075 -1.0462  0.2331
 4072TIP3    H112159   7.441   3.571   2.573  2.0875 -0.9897 -2.6801
 4072TIP3    H212160   7.295   3.558   2.533  0.8311 -0.0825  1.3572
 4073TIP3   OH212161   7.063   4.472   0.288  0.0318  0.0100  0.1703
 4073TIP3    H112162   7.158   4.481   0.283 -0.1145  1.0890 -0.9104
 4073TIP3    H212163   7.041   4.406   0.222 -0.0633  0.4271 -0.2131
 4074TIP3   OH212164   6.518   5.616   1.394 -0.0629 -0.2152  0.0609
 4074TIP3    H112165   6.507   5.611   1.299 -0.8534  0.5962  0.1072
 4074TIP3    H212166   6.502   5.527   1.425 -1.9312 -0.0461 -0.3613
 4075TIP3   OH212167   6.038   1.437   1.532  0.4125 -0.6445 -0.3986
 4075TIP3    H112168   6.023   1.505   1.598 -0.7493  0.2386 -1.5539
 4075TIP3    H212169   6.090   1.482   1.464  0.3768 -1.1544 -0.7621
 4076TIP3   OH212170   6.836   3.408   1.471  0.2167 -0.0403  0.5295
 4076TIP3    H112171   6.750   3.373   1.449 -0.3242  2.0133 -0.7402
 4076TIP3    H212172   6.890   3.390   1.394  1.1508 -1.9764  1.6045
 4077TIP3   OH212173   2.269   1.996   1.404 -0.5027  0.0169  0.0038
 4077TIP3    H112174   2.272   1.992   1.309 -1.0018 -0.0486 -0.0108
 4077TIP3    H212175   2.199   2.059   1.423 -0.9960 -0.6251  0.3343
 4078TIP3   OH212176   0.499   4.205   1.826  0.5515  0.4505 -0.2010
 4078TIP3    H112177   0.485   4.121   1.870  1.5917  0.2734 -0.1747
 4078TIP3    H212178   0.418   4.222   1.778 -1.1005  1.2568  2.7832
 4079TIP3   OH212179   7.368   4.776   1.275  0.5536  0.3545  0.7111
 4079TIP3    H112180   7.427   4.724   1.329 -1.2853  0.4137  2.8468
 4079TIP3    H212181   7.320   4.711   1.223 -0.5729 -0.0022  2.1720
 4080TIP3   OH212182   4.045   0.975   6.794 -0.1175  0.1760 -0.3723
 4080TIP3    H112183   3.992   0.903   6.828 -0.8044  0.6026 -0.5327
 4080TIP3    H212184   4.092   0.937   6.720 -0.3931 -0.1420 -0.3868
 4081TIP3   OH212185   6.298   1.894   2.362  0.1524 -0.9742  0.1468
 4081TIP3    H112186   6.327   1.985   2.356  0.4460 -1.0853 -0.1499
 4081TIP3    H212187   6.205   1.896   2.340 -0.2889 -0.4903  1.9469
 4082TIP3   OH212188   0.619   3.422   1.185  0.0254  0.0341  0.2058
 4082TIP3    H112189   0.524   3.424   1.173  0.1627  1.3857 -0.7774
 4082TIP3    H212190   0.639   3.504   1.231  0.8071  0.0942 -0.2352
 4083TIP3   OH212191   7.756   0.887   1.884  0.0027 -0.1321 -0.0227
 4083TIP3    H112192   7.675   0.934   1.865 -0.7209 -1.3294  0.0248
 4083TIP3    H212193   7.806   0.890   1.803  0.0136  0.8313  0.0237
 4084TIP3   OH212194   6.674   4.331   3.870  0.5050 -0.1435  0.3474
 4084TIP3    H112195   6.598   4.278   3.892  0.7583 -0.3533  0.7307
 4084TIP3    H212196   6.648   4.421   3.888  0.6612 -0.2999  1.3546
 4085TIP3   OH212197   7.298   3.095   1.493  0.3561 -0.1968 -0.0678
 4085TIP3    H112198   7.394   3.099   1.489  0.3680  1.5134  1.4947
 4085TIP3    H212199   7.270   3.133   1.410  1.0135  1.2739  0.3738
 4086TIP3   OH212200   6.071   4.159   2.678 -0.0501  0.0108  0.1750
 4086TIP3    H112201   6.019   4.173   2.758 -2.3857  0.2493 -1.3462
 4086TIP3    H212202   6.083   4.247   2.642 -0.3341 -0.2487 -0.5535
 4087TIP3   OH212203   3.308   0.942   6.708  0.0888  0.8596  0.3304
 4087TIP3    H112204   3.371   0.924   6.778  0.0237 -1.3594 -0.1398
 4087TIP3    H212205   3.349   0.906   6.629 -0.7225  1.5469 -0.4141
 4088TIP3   OH212206   1.215   7.776   6.366  0.3932  0.4084 -0.0403
 4088TIP3    H112207   1.262   7.781   6.282  0.3192 -0.2859 -0.1280
 4088TIP3    H212208   1.123   7.787   6.343  0.2508 -0.9983 -0.2091
 4089TIP3   OH212209   8.159   2.810   1.119 -0.2837  0.1354  0.2815
 4089TIP3    H112210   8.160   2.853   1.204  0.9506  0.0193  0.3303
 4089TIP3    H212211   8.239   2.758   1.117  1.6063  3.0020 -2.4370
 4090TIP3   OH212212   6.211   1.685   2.759 -0.2769  0.3368 -0.0171
 4090TIP3    H112213   6.194   1.628   2.834 -0.0855 -2.2606 -1.8747
 4090TIP3    H212214   6.124   1.714   2.731 -0.3365  1.4324  1.2965
 4091TIP3   OH212215   6.607   3.280   0.170 -0.2039  0.1168 -0.2309
 4091TIP3    H112216   6.533   3.247   0.117 -0.2723 -0.9060  0.4805
 4091TIP3    H212217   6.622   3.211   0.234  0.2342  1.1196  0.7457
 4092TIP3   OH212218   7.992   4.309   0.864 -0.0543 -0.2406 -0.0290
 4092TIP3    H112219   7.899   4.324   0.884 -0.3667 -1.8022 -0.2220
 4092TIP3    H212220   8.000   4.333   0.772 -0.4931 -0.9830 -0.2714
 4093TIP3   OH212221   3.893   0.377   6.781 -0.2454 -0.2462  0.0416
 4093TIP3    H112222   3.860   0.361   6.693 -1.3730 -0.9069  0.5683
 4093TIP3    H212223   3.831   0.331   6.839  0.8939 -0.4591  1.1297
 4094TIP3   OH212224   8.179   4.693   3.087  0.2678 -0.2714 -0.3671
 4094TIP3    H112225   8.236   4.769   3.078  0.5065 -0.3037  0.7640
 4094TIP3    H212226   8.091   4.728   3.070  0.5841 -0.1647 -1.8130
 4095TIP3   OH212227   6.843   1.779   2.339 -0.7216  0.2813  0.4849
 4095TIP3    H112228   6.816   1.870   2.327 -2.8325 -0.2416  1.1865
 4095TIP3    H212229   6.768   1.727   2.311  1.1791 -1.3372 -1.9049
 4096TIP3   OH212230   5.431   0.761   6.655  0.2258  0.0630  0.3327
 4096TIP3    H112231   5.422   0.842   6.704 -1.3133 -0.3732  0.7770
 4096TIP3    H212232   5.364   0.765   6.587  0.8466 -0.3642 -0.3317
 4097TIP3   OH212233   5.478   5.028  -0.018  0.0631 -0.2985  0.2271
 4097TIP3    H112234   5.394   4.983  -0.022 -0.4411  0.4731  1.7168
 4097TIP3    H212235   5.467   5.093   0.051  1.8021 -0.0215  0.2707
 4098TIP3   OH212236   7.861   2.818   0.270 -0.1612 -0.5200 -0.5587
 4098TIP3    H112237   7.829   2.771   0.193  1.3837 -0.1873 -1.4382
 4098TIP3    H212238   7.833   2.908   0.257  1.8829 -0.0151 -1.8328
 4099TIP3   OH212239   5.029   4.661   0.485  0.2712  0.3104 -0.0501
 4099TIP3    H112240   4.960   4.633   0.544 -0.1978 -1.6539 -1.4768
 4099TIP3    H212241   4.986   4.669   0.400  1.6062 -0.1359 -0.7826
 4100TIP3   OH212242   7.967   3.008   1.325  0.4104  0.2414  0.0349
 4100TIP3    H112243   7.968   3.067   1.400 -1.4949 -0.6019  0.7362
 4100TIP3    H212244   7.990   3.064   1.250  0.1782  1.5363  0.9206
 4101TIP3   OH212245   7.159   4.780   1.576 -0.7644 -0.4682 -0.2064
 4101TIP3    H112246   7.102   4.750   1.505  0.3436  0.6557 -1.5868
 4101TIP3    H212247   7.110   4.852   1.617 -0.2781  0.6155 -1.5038
 4102TIP3   OH212248   0.695   3.374   2.282  0.0547  0.1709 -0.6779
 4102TIP3    H112249   0.696   3.406   2.191 -0.5907 -0.8770 -1.0653
 4102TIP3    H212250   0.699   3.279   2.273  0.5739  0.0836  0.4207
 4103TIP3   OH212251   1.313   3.807   1.799 -0.2663 -0.6601  0.0773
 4103TIP3    H112252   1.298   3.718   1.766  0.1145 -1.4851  2.0953
 4103TIP3    H212253   1.395   3.802   1.847 -0.8858  0.5055  1.2862
 4104TIP3   OH212254   6.984   4.699   1.370 -0.5652 -0.7877 -0.5584
 4104TIP3    H112255   6.896   4.675   1.399 -0.3870 -1.0355 -0.2224
 4104TIP3    H212256   7.013   4.626   1.316 -0.7713 -0.4701 -1.1056
 4105TIP3   OH212257   7.987   5.306   0.793 -0.1016  0.3833 -0.1188
 4105TIP3    H112258   8.048   5.380   0.794  2.1820 -1.4362 -0.3001
 4105TIP3    H212259   7.941   5.311   0.877  1.1033  1.1436  0.5096
 4106TIP3   OH212260   7.138   3.672   2.477  0.7677  0.1598 -0.2612
 4106TIP3    H112261   7.099   3.759   2.481 -0.9949 -0.6257 -0.3396
 4106TIP3    H212262   7.184   3.671   2.393 -1.4334  0.0930 -1.5011
 4107TIP3   OH212263   7.601   4.143   0.978  0.2655  0.1608 -0.2944
 4107TIP3    H112264   7.650   4.201   1.035  0.2302  0.4612 -0.5691
 4107TIP3    H212265   7.654   4.136   0.899 -0.8181  1.6468 -1.1775
 4108TIP3   OH212266   8.136   5.257   1.569 -0.0196 -0.5777 -0.5258
 4108TIP3    H112267   8.219   5.304   1.581 -1.4912  1.8526  0.6752
 4108TIP3    H212268   8.107   5.281   1.481 -0.3393  0.0721 -0.2464
 4109TIP3   OH212269   7.946   2.867   0.929  0.1775 -0.4218 -0.0547
 4109TIP3    H112270   7.960   2.805   0.857 -1.4800  0.7206 -1.4165
 4109TIP3    H212271   8.016   2.849   0.991  0.2705 -3.0307 -0.8662
 4110TIP3   OH212272   6.164   5.084   1.236 -0.4556  0.5465  0.2784
 4110TIP3    H112273   6.194   5.069   1.146 -1.4285  0.5270 -0.0576
 4110TIP3    H212274   6.078   5.040   1.239  0.2153 -0.6937  1.6514
 4111TIP3   OH212275   4.997   4.124   1.324 -0.0828  0.5763 -0.3655
 4111TIP3    H112276   5.033   4.198   1.373  1.4739 -1.3826  1.5283
 4111TIP3    H212277   5.073   4.078   1.289 -0.9504 -0.8301 -0.4800
 4112TIP3   OH212278   6.448   4.583   1.391 -0.7014  0.2840  0.1035
 4112TIP3    H112279   6.453   4.507   1.450 -1.1157 -0.9197 -1.3931
 4112TIP3    H212280   6.531   4.583   1.344 -0.4948  1.0679  0.4619
 4113TIP3   OH212281   7.105   3.658   2.156  0.2429 -0.0315 -0.2018
 4113TIP3    H112282   7.080   3.629   2.068  0.2128  1.5621 -0.7257
 4113TIP3    H212283   7.200   3.669   2.152  0.0757  1.3906 -0.4461
 4114TIP3   OH212284   4.501   4.212   1.113  0.2877  0.2868  0.4265
 4114TIP3    H112285   4.489   4.289   1.057  1.1146  1.1640  1.4388
 4114TIP3    H212286   4.573   4.235   1.171  0.8644 -1.4340  0.4453
 4115TIP3   OH212287   0.342   2.487   0.827 -0.1852  0.5048 -0.0658
 4115TIP3    H112288   0.310   2.578   0.829 -2.6071 -0.3292  0.9324
 4115TIP3    H212289   0.414   2.486   0.889 -0.8075  1.5155  0.6868
 4116TIP3   OH212290   7.141   6.186   4.005  0.0002  0.6338 -0.2543
 4116TIP3    H112291   7.148   6.270   3.960 -0.3072  0.6323 -0.3056
 4116TIP3    H212292   7.230   6.166   4.034  0.0419  1.0587 -0.0978
 4117TIP3   OH212293   5.809   4.916   2.171  0.3091 -0.5780 -0.0381
 4117TIP3    H112294   5.726   4.868   2.165 -0.4124  0.5508  0.8626
 4117TIP3    H212295   5.856   4.874   2.243 -0.3620  0.1333  0.8093
 4118TIP3   OH212296   6.894   5.011   1.269 -0.6757 -0.6123  0.2941
 4118TIP3    H112297   6.949   5.045   1.340 -1.9943  1.4086  0.3725
 4118TIP3    H212298   6.874   4.921   1.296  1.2434 -0.8350  1.0495
 4119TIP3   OH212299   6.807   4.129   1.649  0.0548  0.0620  0.2214
 4119TIP3    H112300   6.856   4.159   1.573 -0.2662  0.0736  0.0198
 4119TIP3    H212301   6.862   4.062   1.689 -0.2254 -0.6468 -0.5750
 4120TIP3   OH212302   7.554   3.325   2.914  0.2817  0.1896  0.8028
 4120TIP3    H112303   7.618   3.284   2.856  0.8687  0.7160  1.0701
 4120TIP3    H212304   7.501   3.380   2.857 -0.9312 -1.4487  0.3406
 4121TIP3   OH212305   4.054   1.330   6.751  0.7795  0.0791  0.1759
 4121TIP3    H112306   4.008   1.372   6.824  1.5376 -0.0758  0.7540
 4121TIP3    H212307   3.985   1.307   6.689  0.2128  0.9409  0.4806
 4122TIP3   OH212308   6.086   6.336   1.625 -0.4189  0.5755 -0.2588
 4122TIP3    H112309   6.037   6.313   1.546 -1.4138 -0.8265  0.7483
 4122TIP3    H212310   6.173   6.297   1.612 -0.1480  1.4827 -1.2304
 4123TIP3   OH212311   0.625   3.883   2.188 -0.1280 -0.0309  0.5944
 4123TIP3    H112312   0.651   3.874   2.096  0.6829  1.2045  0.6906
 4123TIP3    H212313   0.642   3.975   2.209  1.0639 -0.6351  2.3855
 4124TIP3   OH212314   8.005   4.305   1.573  0.1597  0.3047  0.0116
 4124TIP3    H112315   8.029   4.398   1.572 -1.6772  0.8015  1.2169
 4124TIP3    H212316   8.074   4.263   1.625  0.3093  1.1827  0.5330
 4125TIP3   OH212317   0.746   5.235   0.945  0.6542 -0.1102 -0.6660
 4125TIP3    H112318   0.720   5.145   0.962 -2.2431  0.6961 -0.6250
 4125TIP3    H212319   0.759   5.274   1.031 -0.9913  0.2844 -0.5683
 4126TIP3   OH212320   7.847   4.570   0.649  0.5090  0.0145  0.2383
 4126TIP3    H112321   7.818   4.482   0.626  0.9890  0.0275 -0.4172
 4126TIP3    H212322   7.900   4.558   0.727 -0.6600 -0.0956  1.0287
 4127TIP3   OH212323   8.024   3.149   1.931 -0.3518 -0.2795  0.1345
 4127TIP3    H112324   7.985   3.078   1.881 -0.2589  0.9197 -1.7181
 4127TIP3    H212325   8.114   3.120   1.949 -0.1466 -0.4199 -1.0791
 4128TIP3   OH212326   5.817   3.779   2.919 -0.4528 -0.5598 -0.5580
 4128TIP3    H112327   5.795   3.736   2.837  0.2161  0.6164 -1.3706
 4128TIP3    H212328   5.785   3.869   2.908 -0.5793 -0.4580  0.5664
 4129TIP3   OH212329   4.299   3.371   5.836  0.1125 -0.3985 -0.1682
 4129TIP3    H112330   4.237   3.419   5.782 -0.5129 -0.0702  0.8320
 4129TIP3    H212331   4.379   3.424   5.835  0.5608 -1.0732 -1.8648
 4130TIP3   OH212332   7.045   5.001   0.656 -0.2862 -0.1029 -0.5147
 4130TIP3    H112333   6.977   4.980   0.591  1.1083 -3.1307 -1.0601
 4130TIP3    H212334   7.000   4.997   0.740 -1.1817 -0.3476 -1.0001
 4131TIP3   OH212335   0.520   3.956   0.749  0.4116  0.0420 -0.6168
 4131TIP3    H112336   0.542   4.048   0.736 -0.9802  0.4229 -0.3136
 4131TIP3    H212337   0.584   3.908   0.696  0.8123  1.1974 -1.1876
 4132TIP3   OH212338   7.329   4.132   0.883 -0.0908 -0.6209  0.1660
 4132TIP3    H112339   7.425   4.132   0.888 -0.0699  1.7786  0.0738
 4132TIP3    H212340   7.309   4.061   0.822  1.7549  0.3103 -1.6144
 4133TIP3   OH212341   2.020   6.856   6.083 -0.1913  0.4325 -0.1576
 4133TIP3    H112342   2.045   6.793   6.016 -1.1044 -0.2700  0.1585
 4133TIP3    H212343   2.051   6.940   6.049  2.8088 -0.4280  0.3366
 4134TIP3   OH212344   7.430   5.257   2.727  0.3197 -0.3375  0.9245
 4134TIP3    H112345   7.494   5.294   2.789 -0.4417  2.2157  0.2547
 4134TIP3    H212346   7.475   5.260   2.643 -0.9239  2.3261  0.2896
 4135TIP3   OH212347   8.410   2.949   1.267 -0.3108  0.5333  0.0741
 4135TIP3    H112348   8.436   2.891   1.338 -0.9705  2.0396  1.5853
 4135TIP3    H212349   8.418   2.895   1.188  2.2398 -0.5989  1.0469
 4136TIP3   OH212350   8.322   3.907   2.586 -0.5234  0.0035 -0.2313
 4136TIP3    H112351   8.287   3.867   2.666  0.3755 -0.3082  0.0118
 4136TIP3    H212352   8.379   3.840   2.549 -1.3925 -0.0740 -1.4626
 4137TIP3   OH212353   7.958   4.904   3.411 -0.2977 -0.0453 -0.6066
 4137TIP3    H112354   8.036   4.850   3.429 -0.0607  0.3060 -0.5800
 4137TIP3    H212355   7.922   4.923   3.498 -0.2060  0.0989 -0.6004
 4138TIP3   OH212356   7.388   5.478   1.222  0.4746 -0.6131  0.5659
 4138TIP3    H112357   7.367   5.510   1.310  2.6896 -1.2703  1.3452
 4138TIP3    H212358   7.470   5.430   1.232  0.5092 -1.1079 -1.7848
 4139TIP3   OH212359   8.389   4.788   1.647 -0.1234  0.1352  0.2487
 4139TIP3    H112360   8.337   4.722   1.693 -0.5707  0.4008  0.1284
 4139TIP3    H212361   8.360   4.872   1.684  1.8465  0.1577  1.8208
 4140TIP3   OH212362   5.820   4.634   1.668  0.0151 -0.0834  0.2033
 4140TIP3    H112363   5.819   4.707   1.730  3.9908 -1.0067  1.5196
 4140TIP3    H212364   5.863   4.670   1.590  0.1673 -0.4985  0.0997
 4141TIP3   OH212365   5.760   2.723   1.669  0.2753 -0.1273 -0.0905
 4141TIP3    H112366   5.676   2.736   1.713 -0.5281 -0.4518 -1.5137
 4141TIP3    H212367   5.772   2.628   1.667  0.6665 -0.0816  0.0841
 4142TIP3   OH212368   5.825   2.327   2.900 -0.1313 -0.0747 -0.1169
 4142TIP3    H112369   5.774   2.375   2.964 -0.5098  0.5786 -0.8978
 4142TIP3    H212370   5.906   2.377   2.892 -0.7010  0.6901 -1.2439
 4143TIP3   OH212371   0.494   6.891   4.993  0.6349  0.0704 -0.0976
 4143TIP3    H112372   0.441   6.887   5.072 -0.3979  0.6410 -0.7446
 4143TIP3    H212373   0.566   6.830   5.009 -0.5711 -1.2157  0.5453
 4144TIP3   OH212374   7.497   4.366   4.304 -0.5068  0.0970 -0.1539
 4144TIP3    H112375   7.532   4.335   4.221 -0.3536 -0.7843  0.2400
 4144TIP3    H212376   7.573   4.372   4.362 -0.6535  0.4550  0.0057
 4145TIP3   OH212377   5.617   3.687   3.368 -0.2656 -0.2440 -0.4961
 4145TIP3    H112378   5.614   3.770   3.320  1.2427  0.4501  0.5851
 4145TIP3    H212379   5.665   3.707   3.448 -0.6737 -1.9616  0.1952
 4146TIP3   OH212380   7.337   1.953   6.951  0.0681 -0.1627  0.2935
 4146TIP3    H112381   7.316   1.980   6.861 -0.2999 -0.2785  0.3440
 4146TIP3    H212382   7.272   1.998   7.005 -0.3589 -0.9098  0.4049
 4147TIP3   OH212383   6.844   6.545   1.115 -0.1465  0.4235  0.1172
 4147TIP3    H112384   6.801   6.569   1.197 -0.5589  1.9509 -0.5216
 4147TIP3    H212385   6.786   6.578   1.046  0.4949 -0.2904 -0.7923
 4148TIP3   OH212386   4.572   2.213   5.359 -0.4164  0.4196 -0.6988
 4148TIP3    H112387   4.620   2.273   5.302  0.8689  0.1965  0.1323
 4148TIP3    H212388   4.570   2.257   5.444  1.1009 -0.9549  0.0867
 4149TIP3   OH212389   0.140   4.490   0.713 -0.1357 -0.5157  0.0702
 4149TIP3    H112390   0.229   4.522   0.725 -0.3569  0.4242 -0.7396
 4149TIP3    H212391   0.095   4.561   0.668 -1.3555 -0.8948  0.6774
 4150TIP3   OH212392   8.252   4.157   0.211 -0.4911  0.2309  0.9924
 4150TIP3    H112393   8.347   4.160   0.194 -0.7563 -0.8478 -0.8988
 4150TIP3    H212394   8.216   4.223   0.153 -1.2519 -2.1952 -1.4214
 4151TIP3   OH212395   7.286   4.755   0.698 -0.2200 -0.2465  0.3833
 4151TIP3    H112396   7.222   4.715   0.639 -0.2423  0.4724 -0.0819
 4151TIP3    H212397   7.361   4.774   0.642 -0.5269  1.1213  0.4306
 4152TIP3   OH212398   0.422   3.504   2.094  0.3895  0.4325  0.0091
 4152TIP3    H112399   0.514   3.530   2.090  0.7151 -0.7580 -0.8797
 4152TIP3    H212400   0.418   3.436   2.161 -0.3191  2.2351  1.8200
 4153TIP3   OH212401   8.350   4.728   0.053  0.4100  0.2473 -0.0104
 4153TIP3    H112402   8.399   4.742   0.134  0.8451  2.3123 -0.5998
 4153TIP3    H212403   8.368   4.806  -0.000 -2.5661  0.5107 -0.7275
 4154TIP3   OH212404   4.946   5.121   2.248  0.0005 -0.0462 -0.0665
 4154TIP3    H112405   4.975   5.032   2.265 -1.6066 -0.6624 -0.4942
 4154TIP3    H212406   5.021   5.163   2.207  0.2544 -1.6357 -1.2615
 4155TIP3   OH212407   7.923   3.468   2.714  0.2356 -0.2589 -0.7455
 4155TIP3    H112408   8.014   3.499   2.723  0.3769 -0.4695 -1.3782
 4155TIP3    H212409   7.905   3.477   2.620 -0.5996  0.3321 -0.5294
 4156TIP3   OH212410   7.015   2.818   3.620  0.2545 -0.3629 -0.0336
 4156TIP3    H112411   6.962   2.803   3.699  0.4816 -1.1331 -0.0236
 4156TIP3    H212412   7.032   2.912   3.620  0.0719 -0.3265  0.7242
 4157TIP3   OH212413   7.714   3.049   2.974  0.2993  0.0625 -0.1851
 4157TIP3    H112414   7.805   3.072   2.955 -0.0312  2.8398  1.2943
 4157TIP3    H212415   7.665   3.078   2.897  0.4225  0.3700 -0.1470
 4158TIP3   OH212416   5.298   1.634   2.874 -0.4365  0.1106  0.3568
 4158TIP3    H112417   5.380   1.612   2.829  0.0841  1.0654  0.8078
 4158TIP3    H212418   5.233   1.574   2.837  0.2150  0.1321 -0.8749
 4159TIP3   OH212419   6.321   2.506   3.206  0.0385 -0.1283 -0.2273
 4159TIP3    H112420   6.391   2.464   3.255  0.5716 -0.4928 -1.2686
 4159TIP3    H212421   6.255   2.438   3.195 -0.3715  0.1485  0.5602
 4160TIP3   OH212422   8.492   1.516   3.228 -0.4044  0.7424 -0.7394
 4160TIP3    H112423   8.415   1.471   3.263  0.3554 -0.1508 -0.2075
 4160TIP3    H212424   8.477   1.519   3.134 -0.2104 -1.1023 -0.8446
 4161TIP3   OH212425   5.521   7.792   3.144  1.0209  0.2396  0.4592
 4161TIP3    H112426   5.557   7.862   3.199 -1.8209  1.4447  0.8287
 4161TIP3    H212427   5.449   7.832   3.097  1.5399 -1.5610 -1.9893
 4162TIP3   OH212428   0.128   5.890   1.902  0.1219  0.2563  0.0745
 4162TIP3    H112429   0.123   5.803   1.942  2.3907  0.0441 -0.0287
 4162TIP3    H212430   0.120   5.874   1.808 -1.3390  0.3611  0.1744
 4163TIP3   OH212431   6.831   2.522   1.186  0.7282  0.3688 -0.2819
 4163TIP3    H112432   6.796   2.507   1.274 -0.3164  0.4331 -0.6806
 4163TIP3    H212433   6.814   2.441   1.139  0.4629  0.6570 -0.6883
 4164TIP3   OH212434   6.235   5.209   0.948  0.3455  0.0717 -0.1831
 4164TIP3    H112435   6.257   5.254   1.030 -0.3533  2.3899 -1.2002
 4164TIP3    H212436   6.292   5.133   0.946  1.7400  1.0246  1.5573
 4165TIP3   OH212437   4.537   4.553   1.997 -0.2864 -0.1718 -0.1811
 4165TIP3    H112438   4.472   4.484   2.011 -2.2695  1.3135 -1.7527
 4165TIP3    H212439   4.514   4.590   1.912  4.9198 -2.0485 -2.6506
 4166TIP3   OH212440   8.227   3.711   2.219 -0.2037 -0.6510  0.4642
 4166TIP3    H112441   8.250   3.645   2.154 -0.1593 -1.8080  1.6290
 4166TIP3    H212442   8.150   3.754   2.183 -0.4769 -1.6139 -0.1215
 4167TIP3   OH212443   7.691   3.762   1.048 -0.1188  0.1445  0.1621
 4167TIP3    H112444   7.667   3.677   1.085 -1.7162  0.1307 -0.8718
 4167TIP3    H212445   7.627   3.823   1.085  1.0973  0.9506  0.9994
 4168TIP3   OH212446   0.390   5.753   0.509 -0.2694  0.4301  0.4023
 4168TIP3    H112447   0.384   5.668   0.552  1.3702 -0.2541 -0.6660
 4168TIP3    H212448   0.473   5.750   0.462  0.0995  2.8536  0.8260
 4169TIP3   OH212449   5.250   4.369   2.628 -0.5395  0.0646  0.4372
 4169TIP3    H112450   5.261   4.308   2.701 -1.6184  1.5405  1.8573
 4169TIP3    H212451   5.156   4.386   2.625 -0.3793  0.7973 -0.6636
 4170TIP3   OH212452   6.329   3.770   1.758 -0.4934 -0.3506  0.2515
 4170TIP3    H112453   6.390   3.739   1.825 -0.3451 -0.3565  0.1145
 4170TIP3    H212454   6.340   3.708   1.686 -0.6099 -0.3096  0.1984
 4171TIP3   OH212455   4.942   2.973   1.435  0.3549  0.1243  0.3076
 4171TIP3    H112456   4.895   2.953   1.516  2.4252 -0.3087  1.4561
 4171TIP3    H212457   4.967   3.065   1.444  0.1011  0.2333 -0.1007
 4172TIP3   OH212458   6.816   4.080   3.241  0.1979  0.6268 -0.2621
 4172TIP3    H112459   6.778   4.012   3.296  0.0494 -0.3064 -1.4896
 4172TIP3    H212460   6.817   4.158   3.296 -0.7867 -0.0600  0.7517
 4173TIP3   OH212461   5.342   3.638   1.232  0.1532 -0.0471  0.2427
 4173TIP3    H112462   5.357   3.726   1.267  0.1342 -0.5209  1.4771
 4173TIP3    H212463   5.292   3.652   1.152 -0.1311  1.0444  0.6063
 4174TIP3   OH212464   7.172   1.312   1.382  0.9464  0.5089  0.1343
 4174TIP3    H112465   7.094   1.367   1.387  0.6130 -0.0239  0.8502
 4174TIP3    H212466   7.243   1.367   1.412  0.7471  0.8009  0.0744
 4175TIP3   OH212467   6.629   1.337   6.458 -0.3297  0.5298 -0.3538
 4175TIP3    H112468   6.566   1.395   6.502 -2.0120 -1.8871  0.5297
 4175TIP3    H212469   6.613   1.350   6.365 -2.4721 -0.3830 -0.1304
 4176TIP3   OH212470   7.922   3.579   1.268 -0.1675  0.3235  0.1601
 4176TIP3    H112471   7.975   3.543   1.339 -1.6980  0.3794  1.3622
 4176TIP3    H212472   7.832   3.574   1.301 -0.7606  1.6229 -1.2235
 4177TIP3   OH212473   6.877   4.676   2.014  0.3064 -0.4204 -0.1931
 4177TIP3    H112474   6.955   4.625   1.993  0.5423 -0.2037  0.1547
 4177TIP3    H212475   6.849   4.642   2.099  0.9879  0.6538  0.4641
 4178TIP3   OH212476   0.392   4.602   0.814 -0.0171  0.0411 -0.1262
 4178TIP3    H112477   0.416   4.690   0.785 -0.8388  0.2460 -0.2121
 4178TIP3    H212478   0.428   4.596   0.903  2.4521 -0.5685 -1.1358
 4179TIP3   OH212479   7.570   3.455   1.702 -0.4540  0.0162  0.1379
 4179TIP3    H112480   7.482   3.490   1.689 -0.0518  0.6878 -0.8929
 4179TIP3    H212481   7.570   3.421   1.791 -1.3894  1.0898  0.5578
 4180TIP3   OH212482   6.764   5.415   4.658  0.5098  0.3111  0.4225
 4180TIP3    H112483   6.680   5.434   4.699  0.1496  1.7753 -0.9460
 4180TIP3    H212484   6.802   5.502   4.640  1.6565 -0.3266 -0.3031
 4181TIP3   OH212485   7.007   5.829   0.344  0.0517  0.0040 -0.3967
 4181TIP3    H112486   7.049   5.811   0.428  0.3834  0.5532 -0.4485
 4181TIP3    H212487   7.076   5.816   0.279  0.4063  1.8912 -0.4067
 4182TIP3   OH212488   7.839   3.612   1.971  0.4070 -0.4040 -0.6326
 4182TIP3    H112489   7.805   3.525   1.949 -0.7703 -0.1188  0.0268
 4182TIP3    H212490   7.928   3.613   1.934  0.2556 -1.7077 -1.0573
 4183TIP3   OH212491   7.334   5.477   1.620 -0.4870  0.0038 -0.2351
 4183TIP3    H112492   7.358   5.501   1.709 -0.2635  0.1002 -0.3215
 4183TIP3    H212493   7.360   5.386   1.612 -1.6786 -0.3919  0.2174
 4184TIP3   OH212494   8.035   6.335   3.320  0.1896 -0.1942 -0.1642
 4184TIP3    H112495   8.115   6.283   3.311  0.9109  1.0836 -1.3230
 4184TIP3    H212496   8.063   6.425   3.306 -1.1070  0.4985  1.4864
 4185TIP3   OH212497   8.419   3.280   2.393  0.1471 -0.3721  0.5584
 4185TIP3    H112498   8.394   3.346   2.457 -0.4658 -0.4877  0.4380
 4185TIP3    H212499   8.503   3.246   2.425  0.2105  0.0933  0.8950
 4186TIP3   OH212500   7.009   3.962   1.792 -0.5638  0.0075 -0.2245
 4186TIP3    H112501   7.021   3.987   1.883 -0.1790  1.1190 -0.5732
 4186TIP3    H212502   7.070   3.889   1.779 -2.8298 -2.2314  1.2271
 4187TIP3   OH212503   6.957   4.342   2.149  0.2128  0.1966  0.3532
 4187TIP3    H112504   6.866   4.361   2.173 -0.8486 -1.6041 -2.0338
 4187TIP3    H212505   6.988   4.422   2.106 -0.4383  0.5991  0.6273
 4188TIP3   OH212506   0.549   3.113   1.017 -0.7996 -0.4262  0.1350
 4188TIP3    H112507   0.457   3.091   1.001 -0.9815  1.0772 -0.9838
 4188TIP3    H212508   0.561   3.098   1.111 -2.6265  0.8151  0.6000
 4189TIP3   OH212509   2.364   4.399   1.282  0.4371  0.2858  0.1023
 4189TIP3    H112510   2.269   4.412   1.288  0.1802 -2.1543  2.6705
 4189TIP3    H212511   2.373   4.307   1.255  2.0599  0.0858  1.2871
 4190TIP3   OH212512   1.018   6.666   6.788 -0.1505 -0.6874  0.3603
 4190TIP3    H112513   0.933   6.624   6.772  0.7591 -1.9378 -1.3797
 4190TIP3    H212514   1.034   6.654   6.882 -1.4821 -1.1962  0.5323
 4191TIP3   OH212515   5.633   3.420   1.418 -0.0007  0.1011 -0.2630
 4191TIP3    H112516   5.631   3.404   1.323 -0.5331  0.0579 -0.2439
 4191TIP3    H212517   5.604   3.510   1.428  2.1083  0.8101 -0.2952
 4192TIP3   OH212518   7.745   5.217   0.571  0.0286  0.1690 -0.4860
 4192TIP3    H112519   7.738   5.204   0.476  0.3539 -1.5837 -0.2875
 4192TIP3    H212520   7.657   5.202   0.604 -0.0509  0.6239 -0.4894
 4193TIP3   OH212521   1.835   5.004   1.719 -0.1448 -0.1492 -0.0125
 4193TIP3    H112522   1.831   5.059   1.640  1.6488 -1.5994 -1.1620
 4193TIP3    H212523   1.889   5.054   1.780 -0.8434  0.6079 -0.0079
 4194TIP3   OH212524   5.357   3.959   1.824 -0.3054  0.1744  0.8167
 4194TIP3    H112525   5.292   4.027   1.842  1.0503  1.6918  0.1252
 4194TIP3    H212526   5.414   3.998   1.757 -0.7240 -2.4257 -1.1254
 4195TIP3   OH212527   7.990   3.125   1.087 -0.1617  0.4136  0.6656
 4195TIP3    H112528   7.968   3.202   1.035  0.5390  0.4754  0.4650
 4195TIP3    H212529   7.976   3.051   1.028 -1.5545  0.3227  1.0792
 4196TIP3   OH212530   8.035   5.226   0.458  0.4701  0.3463  0.0905
 4196TIP3    H112531   7.971   5.264   0.397  0.9220  0.1373 -0.5299
 4196TIP3    H212532   8.106   5.290   0.461 -0.0347  0.8453  1.2318
 4197TIP3   OH212533   6.160   2.768   3.162  0.6366  0.0612 -0.1511
 4197TIP3    H112534   6.200   2.681   3.165  0.8296  0.1584  0.1172
 4197TIP3    H212535   6.071   2.753   3.131  0.4467 -0.3135  0.5559
 4198TIP3   OH212536   8.008   2.503   1.786  0.1640  0.4527 -0.0557
 4198TIP3    H112537   7.965   2.583   1.758 -1.9948 -0.6949 -0.0856
 4198TIP3    H212538   7.937   2.441   1.802  1.8120 -1.5810 -0.3739
 4199TIP3   OH212539   5.770   4.319   1.680  0.3041  0.1440 -0.3440
 4199TIP3    H112540   5.831   4.270   1.734 -1.0599  0.1649  1.2632
 4199TIP3    H212541   5.792   4.411   1.696 -0.6490  0.1768  0.8809
 4200TIP3   OH212542   7.064   5.040   1.495 -0.0622  0.7934 -0.0528
 4200TIP3    H112543   7.090   5.127   1.526  0.3224  0.0591  1.7862
 4200TIP3    H212544   7.032   4.996   1.574  2.0653 -1.5768 -0.4406
 4201TIP3   OH212545   7.123   2.900   2.384 -0.7256 -0.3160 -0.0460
 4201TIP3    H112546   7.047   2.843   2.370 -1.0285 -0.0009  0.2993
 4201TIP3    H212547   7.173   2.893   2.303 -1.5295  0.0897 -0.5884
 4202TIP3   OH212548   7.698   5.537   4.042  0.0596 -0.3551 -0.1947
 4202TIP3    H112549   7.646   5.458   4.025 -1.0410  0.2487  0.2861
 4202TIP3    H212550   7.671   5.565   4.130  0.2674  0.6690 -0.4452
 4203TIP3   OH212551   0.525   4.513   3.696  0.8514 -0.1281  0.8034
 4203TIP3    H112552   0.446   4.491   3.744  0.4047 -0.0891  0.0827
 4203TIP3    H212553   0.567   4.581   3.749  0.0219  0.3923  0.8044
 4204TIP3   OH212554   7.660   4.514   2.697  0.8994  0.0730  0.2026
 4204TIP3    H112555   7.683   4.528   2.789  0.1469 -0.4229  0.4818
 4204TIP3    H212556   7.620   4.596   2.670  0.0894 -0.1565  0.6630
 4205TIP3   OH212557   7.441   3.568   5.781  0.8663  0.2820  0.3461
 4205TIP3    H112558   7.521   3.529   5.746  0.2172  0.4487 -1.3639
 4205TIP3    H212559   7.374   3.500   5.771  0.1346  1.1838 -1.0073
 4206TIP3   OH212560   1.439   5.076   3.557 -0.0931 -0.5504 -0.5642
 4206TIP3    H112561   1.377   5.122   3.499 -1.3712 -0.7060  0.6692
 4206TIP3    H212562   1.388   5.004   3.594  0.7652 -0.5299  0.6547
 4207TIP3   OH212563   0.900   4.037   3.826 -0.0547  0.8073 -0.0957
 4207TIP3    H112564   0.946   4.114   3.792  0.3342  0.2091 -0.9524
 4207TIP3    H212565   0.914   3.969   3.759 -0.2177 -0.0662  0.7426
 4208TIP3   OH212566   1.945   2.305   2.167 -0.3942 -0.5388  0.3209
 4208TIP3    H112567   1.990   2.349   2.239 -0.2265 -0.5922  0.2478
 4208TIP3    H212568   2.008   2.242   2.133  0.0049  0.4024 -0.7304
 4209TIP3   OH212569   0.956   5.367   2.977  0.9448 -0.3292 -0.3460
 4209TIP3    H112570   0.867   5.351   3.007  0.8450  1.2661  0.2351
 4209TIP3    H212571   0.947   5.396   2.886  0.7487  1.2937  0.1820
 4210TIP3   OH212572   6.908   4.967   3.040  0.8443 -0.0662  0.7320
 4210TIP3    H112573   6.982   4.970   2.979 -0.0501  1.9925 -0.3127
 4210TIP3    H212574   6.857   5.045   3.019 -0.0571  0.1099  3.4396
 4211TIP3   OH212575   6.545   3.473   5.377 -0.3342 -0.4511  0.6868
 4211TIP3    H112576   6.534   3.566   5.358 -0.5834 -0.6751 -0.2666
 4211TIP3    H212577   6.612   3.471   5.445  1.4078  0.2989 -0.9519
 4212TIP3   OH212578   8.010   3.362   4.583  0.0892 -0.6648 -0.1776
 4212TIP3    H112579   7.935   3.374   4.525  0.7121 -1.1744 -1.1012
 4212TIP3    H212580   8.066   3.299   4.537  0.6894 -0.9110  0.8823
 4213TIP3   OH212581   8.224   3.751   3.950  0.1398 -0.4666  0.6698
 4213TIP3    H112582   8.238   3.836   3.991  0.5026 -0.8939  1.4472
 4213TIP3    H212583   8.272   3.756   3.868 -0.4054  0.3217  0.3989
 4214TIP3   OH212584   0.058   3.859   4.552  0.2223 -0.4586  0.0421
 4214TIP3    H112585  -0.014   3.908   4.511  0.5265  1.4720  1.7422
 4214TIP3    H212586   0.136   3.909   4.532  0.7353 -1.0239  0.5968
 4215TIP3   OH212587   0.482   6.646   1.924 -0.1895 -0.1405 -0.0703
 4215TIP3    H112588   0.567   6.689   1.929  1.0355 -2.5174  0.2991
 4215TIP3    H212589   0.457   6.652   1.832  1.0127 -0.5564 -0.4328
 4216TIP3   OH212590   7.194   5.271   1.866  0.2988  0.1261  0.0395
 4216TIP3    H112591   7.248   5.192   1.873 -0.1490 -0.1279  0.7059
 4216TIP3    H212592   7.137   5.268   1.943 -1.4865 -0.2421 -1.2499
 4217TIP3   OH212593   1.272   4.735   2.936  0.0247  0.2646 -0.0804
 4217TIP3    H112594   1.236   4.667   2.879 -1.5387  0.5992  0.4768
 4217TIP3    H212595   1.224   4.814   2.912  0.2933  0.6908  0.7800
 4218TIP3   OH212596   1.624   3.514   1.628  0.0341  0.1642 -0.1813
 4218TIP3    H112597   1.533   3.502   1.601 -0.7075  1.0573  1.7847
 4218TIP3    H212598   1.629   3.466   1.711  0.6804  2.1416  0.9415
 4219TIP3   OH212599   0.510   5.882   4.315 -0.8820  0.1408  0.2477
 4219TIP3    H112600   0.586   5.884   4.373 -1.3688 -0.3423  0.9166
 4219TIP3    H212601   0.451   5.948   4.350  0.2053  2.1898 -1.6654
 4220TIP3   OH212602   1.255   2.893   2.320  0.2972  0.2429  0.2473
 4220TIP3    H112603   1.237   2.958   2.388  1.2820  1.3250 -0.5078
 4220TIP3    H212604   1.263   2.945   2.239  1.0558 -0.8215 -0.3696
 4221TIP3   OH212605   1.461   4.353   2.153  0.0291 -0.5175  0.0610
 4221TIP3    H112606   1.445   4.314   2.239  1.6704 -1.1642  0.1017
 4221TIP3    H212607   1.556   4.370   2.153  0.3100 -1.8975 -2.1732
 4222TIP3   OH212608   7.996   4.786   2.295  0.3050  0.3203  0.1242
 4222TIP3    H112609   7.961   4.847   2.360  0.7142  0.9530 -0.2511
 4222TIP3    H212610   8.043   4.721   2.347 -0.6165  0.0003  0.5641
 4223TIP3   OH212611   8.234   6.327   3.749  0.2734  0.4416  0.4323
 4223TIP3    H112612   8.194   6.267   3.686 -0.5387  2.5316 -1.1269
 4223TIP3    H212613   8.182   6.318   3.828 -0.8806  0.2920 -0.3316
 4224TIP3   OH212614   7.579   2.810   2.539 -0.0025 -0.0678  0.0260
 4224TIP3    H112615   7.510   2.805   2.605 -1.3001 -2.6046 -1.4514
 4224TIP3    H212616   7.535   2.791   2.456  2.0250  0.7559 -1.2916
 4225TIP3   OH212617   0.219   5.274   3.763  0.3852  0.2607 -0.8885
 4225TIP3    H112618   0.124   5.271   3.774  0.5365 -1.3198  0.0606
 4225TIP3    H212619   0.236   5.221   3.685  0.5826 -0.3598 -0.4247
 4226TIP3   OH212620   2.552   5.302   3.652  0.0910 -0.0179 -0.0795
 4226TIP3    H112621   2.523   5.212   3.640  0.4295 -0.0230 -0.8636
 4226TIP3    H212622   2.480   5.344   3.699 -0.2390 -0.5906 -0.0659
 4227TIP3   OH212623   1.770   3.344   4.973  0.1114 -0.1346 -0.3093
 4227TIP3    H112624   1.853   3.308   4.943 -0.3420 -1.4776 -0.0034
 4227TIP3    H212625   1.729   3.272   5.022 -1.7662  0.1185 -1.4773
 4228TIP3   OH212626   1.482   6.318   2.523 -0.2746 -0.0011  0.9799
 4228TIP3    H112627   1.445   6.338   2.437 -0.9809 -0.4658  1.1718
 4228TIP3    H212628   1.486   6.222   2.525  1.7901  0.0602  0.6096
 4229TIP3   OH212629   8.077   4.840   2.671 -0.3731 -0.0352  0.3345
 4229TIP3    H112630   8.162   4.800   2.650 -0.4378 -1.3170  2.3066
 4229TIP3    H212631   8.013   4.789   2.621 -0.2645 -1.2195  1.3643
 4230TIP3   OH212632   8.197   3.820   2.841 -0.1839 -0.0781 -0.0975
 4230TIP3    H112633   8.204   3.726   2.856 -1.9816 -0.3621 -0.9099
 4230TIP3    H212634   8.184   3.858   2.928 -1.0248 -0.7342  0.0607
 4231TIP3   OH212635   0.403   4.191   2.378 -0.7226  0.5917  0.0870
 4231TIP3    H112636   0.374   4.108   2.416 -0.0141  0.0111 -0.6285
 4231TIP3    H212637   0.465   4.226   2.442 -1.4300  0.8333  0.6441
 4232TIP3   OH212638   2.008   5.779   4.653  0.2350 -0.2921 -0.1035
 4232TIP3    H112639   2.005   5.873   4.633  1.6634 -0.2359 -0.0990
 4232TIP3    H212640   2.069   5.772   4.726 -1.0353 -1.0681  0.9180
 4233TIP3   OH212641   1.279   4.517   1.257  0.5684  0.0220 -0.1732
 4233TIP3    H112642   1.184   4.527   1.251  0.5706  1.0703  1.3232
 4233TIP3    H212643   1.294   4.423   1.246 -0.6704 -0.2014 -0.0411
 4234TIP3   OH212644   7.994   6.146   2.939 -0.1381 -0.0833 -0.0503
 4234TIP3    H112645   8.012   6.239   2.945  0.4980 -0.3003  1.8575
 4234TIP3    H212646   8.080   6.104   2.947 -0.5663 -0.8655  0.5788
 4235TIP3   OH212647   7.618   6.252   3.056  0.1769  0.7018  0.2360
 4235TIP3    H112648   7.664   6.171   3.079  1.4569  0.8903 -1.5578
 4235TIP3    H212649   7.677   6.321   3.087 -0.2692  0.9517  0.5229
 4236TIP3   OH212650   0.039   5.413   4.400  0.0585 -0.2247  0.5785
 4236TIP3    H112651  -0.024   5.406   4.327  2.4058 -1.8749 -1.3589
 4236TIP3    H212652   0.046   5.324   4.434  1.1944 -0.0134  0.9099
 4237TIP3   OH212653   0.108   4.714   1.950 -0.1066  0.6171  0.1936
 4237TIP3    H112654   0.128   4.739   1.859  2.3472 -3.4586 -0.5038
 4237TIP3    H212655   0.187   4.735   1.998  1.6075 -4.3757 -0.2054
 4238TIP3   OH212656   0.802   4.424   3.741 -0.6131  0.5018  0.5275
 4238TIP3    H112657   0.817   4.517   3.757 -0.4762  0.4401  0.7618
 4238TIP3    H212658   0.707   4.416   3.733 -0.7055  0.4925  1.5640
 4239TIP3   OH212659   2.006   5.057   3.854  0.1873  0.0164 -0.3256
 4239TIP3    H112660   2.003   5.066   3.950  1.1636  0.5696 -0.3371
 4239TIP3    H212661   1.982   5.144   3.821 -1.3772 -0.5117 -0.6106
 4240TIP3   OH212662   0.223   4.327   3.923 -0.1098 -0.2482 -0.1265
 4240TIP3    H112663   0.156   4.264   3.952  0.0815  0.0594  0.9960
 4240TIP3    H212664   0.254   4.368   4.004  2.4525 -1.4000 -0.4736
 4241TIP3   OH212665   0.417   3.675   2.675 -0.0842  0.0185  0.6960
 4241TIP3    H112666   0.437   3.587   2.705  0.4526 -0.3948 -0.8497
 4241TIP3    H212667   0.493   3.701   2.622 -1.4384  0.3251 -1.1472
 4242TIP3   OH212668   8.307   1.986   4.288 -0.3028 -0.0782 -0.6277
 4242TIP3    H112669   8.326   2.004   4.380  2.7695  0.1557 -1.2712
 4242TIP3    H212670   8.212   2.001   4.280 -0.4695  0.7075  2.2813
 4243TIP3   OH212671   1.702   5.688   4.230  0.0289  0.2572  0.0202
 4243TIP3    H112672   1.641   5.688   4.303 -1.6259 -0.5535 -1.3408
 4243TIP3    H212673   1.787   5.668   4.269 -0.9994 -1.0908  1.5868
 4244TIP3   OH212674   7.967   3.362   3.619 -0.0583 -0.5974 -0.1217
 4244TIP3    H112675   7.916   3.440   3.640 -0.0899  0.2219 -2.9923
 4244TIP3    H212676   8.058   3.392   3.622  0.1722 -1.4571  2.6083
 4245TIP3   OH212677   0.603   5.940   1.569 -0.2036 -0.5294 -0.0161
 4245TIP3    H112678   0.677   5.891   1.603 -0.1343 -0.2171  0.2897
 4245TIP3    H212679   0.581   6.002   1.639 -0.6207 -0.4812 -0.1864
 4246TIP3   OH212680   1.358   5.985   2.866 -0.1422  0.1351  0.3213
 4246TIP3    H112681   1.304   5.928   2.812 -2.3670 -0.3940  2.9724
 4246TIP3    H212682   1.301   6.059   2.889  0.5187  0.0287  2.4252
 4247TIP3   OH212683   7.220   5.995   4.798  0.2152 -0.3882  0.0056
 4247TIP3    H112684   7.152   6.028   4.856 -0.6125 -1.2949 -0.4287
 4247TIP3    H212685   7.213   6.049   4.719  0.5137  0.0308  0.2683
 4248TIP3   OH212686   8.095   5.203   4.515 -0.0103  0.6744 -0.7433
 4248TIP3    H112687   8.083   5.190   4.421 -0.1433 -1.4029 -0.4656
 4248TIP3    H212688   8.189   5.217   4.526  0.1883 -0.3380 -1.0694
 4249TIP3   OH212689   0.396   5.080   4.522 -0.4114  0.2485 -0.0160
 4249TIP3    H112690   0.369   5.137   4.449  1.1907 -0.4579 -1.2014
 4249TIP3    H212691   0.433   5.140   4.587 -1.5486  0.8549  0.0829
 4250TIP3   OH212692   1.509   4.415   4.094  0.2769 -0.0652  0.0727
 4250TIP3    H112693   1.550   4.475   4.157  1.6894 -0.8063 -0.1258
 4250TIP3    H212694   1.502   4.332   4.141 -0.9822  0.0395  0.0885
 4251TIP3   OH212695   0.991   7.587   5.366  0.1584  0.1458 -0.2781
 4251TIP3    H112696   0.924   7.608   5.300 -0.0583 -0.6765 -0.3227
 4251TIP3    H212697   0.941   7.564   5.444  0.4043  0.1595 -0.1186
 4252TIP3   OH212698   8.444   6.822   2.954  0.4265  0.5194 -0.6698
 4252TIP3    H112699   8.494   6.847   2.876 -0.4640  1.0422 -1.0797
 4252TIP3    H212700   8.503   6.838   3.027  1.0526  0.6067 -1.1931
 4253TIP3   OH212701   7.650   5.852   5.236  0.3857  0.5096  0.8305
 4253TIP3    H112702   7.677   5.940   5.265  0.1209  0.2757  1.7939
 4253TIP3    H212703   7.576   5.830   5.292 -0.6097  0.3519 -0.5379
 4254TIP3   OH212704   7.327   4.499   5.179 -0.0120 -0.5767 -0.2100
 4254TIP3    H112705   7.308   4.409   5.153  1.2639 -0.6065 -1.1567
 4254TIP3    H212706   7.242   4.543   5.179 -0.5722 -1.6436 -0.3075
 4255TIP3   OH212707   7.320   5.951   1.427  0.0226  0.1015  0.7281
 4255TIP3    H112708   7.415   5.942   1.429 -0.0420 -1.1267 -0.7899
 4255TIP3    H212709   7.295   5.966   1.518  1.8732  2.8452  0.8334
 4256TIP3   OH212710   6.163   7.249   1.146  0.0910  0.0201  0.3394
 4256TIP3    H112711   6.083   7.296   1.167  0.0977  0.3210 -0.2839
 4256TIP3    H212712   6.188   7.205   1.227 -0.8836 -0.3415  0.4484
 4257TIP3   OH212713   0.953   7.287   2.068  0.1156 -0.1400  0.0357
 4257TIP3    H112714   1.038   7.263   2.106 -0.6617 -0.2686  1.6928
 4257TIP3    H212715   0.896   7.212   2.086 -0.2843 -0.1979 -1.3724
 4258TIP3   OH212716   7.424   4.007   3.504  0.1471 -0.2576  0.3937
 4258TIP3    H112717   7.486   4.011   3.577 -0.6129 -0.2355  1.0425
 4258TIP3    H212718   7.421   3.914   3.480 -0.8197 -0.5111  1.4553
 4259TIP3   OH212719   2.083   5.029   5.000  0.3666  0.1849  0.5600
 4259TIP3    H112720   2.120   5.027   4.913  0.1921 -1.5025  0.4997
 4259TIP3    H212721   2.150   4.990   5.056 -0.5376 -1.1415  0.7447
 4260TIP3   OH212722   7.742   3.429   0.694  0.2425  0.3498  0.2527
 4260TIP3    H112723   7.674   3.419   0.760  0.0338  1.6071  0.2495
 4260TIP3    H212724   7.763   3.340   0.666  1.4480 -0.3194  3.1099
 4261TIP3   OH212725   7.594   3.948   1.636 -0.1320 -0.3662  0.5430
 4261TIP3    H112726   7.615   4.028   1.685 -1.3362  0.0678  0.3574
 4261TIP3    H212727   7.618   3.877   1.695 -0.8077  0.1466  1.4413
 4262TIP3   OH212728   2.761   4.977   3.544 -0.1936  0.2884  0.6463
 4262TIP3    H112729   2.802   4.953   3.626 -0.1643  1.3304  0.9489
 4262TIP3    H212730   2.670   4.998   3.568 -1.0593 -2.3823 -0.0704
 4263TIP3   OH212731   7.436   1.957   4.212 -0.7075  0.2328  0.2210
 4263TIP3    H112732   7.400   1.995   4.293 -0.1237  0.7255  0.2524
 4263TIP3    H212733   7.432   2.028   4.149 -1.5385 -0.2760 -0.2980
 4264TIP3   OH212734   2.011   2.794   4.929 -0.5444 -0.4341 -0.4823
 4264TIP3    H112735   1.960   2.719   4.961  1.0418 -1.4645 -0.3139
 4264TIP3    H212736   2.087   2.754   4.886  1.0600  1.1240  0.8758
 4265TIP3   OH212737   7.471   4.716   3.100  0.0681 -0.2252 -0.2419
 4265TIP3    H112738   7.489   4.796   3.149  1.9939 -1.3879  1.0369
 4265TIP3    H212739   7.424   4.660   3.162  0.1327 -0.6762 -0.5982
 4266TIP3   OH212740   0.854   7.678   2.314  0.2321  0.1741 -0.4670
 4266TIP3    H112741   0.936   7.701   2.270 -0.5315  0.1768 -1.9164
 4266TIP3    H212742   0.807   7.760   2.323 -0.0991  0.0005 -0.6300
 4267TIP3   OH212743   8.279   6.126   2.011 -0.6345 -0.0329 -0.3233
 4267TIP3    H112744   8.356   6.133   2.067  0.3009 -0.9379 -1.4627
 4267TIP3    H212745   8.263   6.216   1.980  0.6536 -0.0130 -0.9636
 4268TIP3   OH212746   8.073   5.402   1.344  0.3284  0.4996  0.1891
 4268TIP3    H112747   8.151   5.410   1.289  1.1766  1.6854  1.5427
 4268TIP3    H212748   8.059   5.490   1.380 -1.3737  0.1961  0.3156
 4269TIP3   OH212749   6.206   1.257   6.664 -0.1071 -1.0397  0.2650
 4269TIP3    H112750   6.183   1.298   6.747 -0.2263 -1.0357  0.2304
 4269TIP3    H212751   6.206   1.163   6.683  0.7122 -0.9969  0.4852
 4270TIP3   OH212752   7.661   4.342   2.494  0.9484 -0.0936 -0.0821
 4270TIP3    H112753   7.662   4.386   2.580 -2.8468  0.5049 -0.2587
 4270TIP3    H212754   7.609   4.263   2.508  1.4321 -0.6846 -1.5410
 4271TIP3   OH212755   6.393   5.165   1.683 -0.3642  0.0478 -0.1839
 4271TIP3    H112756   6.327   5.234   1.688  0.5261  0.8766  0.3320
 4271TIP3    H212757   6.374   5.119   1.601 -0.5708  1.3261 -0.8668
 4272TIP3   OH212758   7.568   4.250   4.074 -0.2890  0.5110 -0.3029
 4272TIP3    H112759   7.655   4.241   4.037  0.1740 -0.1554  0.9285
 4272TIP3    H212760   7.513   4.278   4.000  0.8822  0.5755 -1.1577
 4273TIP3   OH212761   7.663   4.836   2.688  0.5978 -0.5053 -0.6922
 4273TIP3    H112762   7.579   4.836   2.734  0.9549  0.6123  0.0136
 4273TIP3    H212763   7.702   4.921   2.710  1.6282 -0.7413 -1.5275
 4274TIP3   OH212764   8.366   5.791   5.445  0.2039 -0.2248  0.7166
 4274TIP3    H112765   8.299   5.833   5.391 -0.1142  2.1264  2.8093
 4274TIP3    H212766   8.449   5.815   5.404  0.0106  2.3048  1.6608
 4275TIP3   OH212767   8.056   3.887   4.400 -0.0684 -0.4562  0.2988
 4275TIP3    H112768   7.993   3.823   4.432 -0.9385 -0.0020 -0.4810
 4275TIP3    H212769   8.103   3.842   4.330 -0.2986 -0.4271  0.1246
 4276TIP3   OH212770   0.418   5.065   3.368  0.2865  0.2327  0.3330
 4276TIP3    H112771   0.419   5.085   3.274  0.4819 -0.4474  0.1826
 4276TIP3    H212772   0.473   4.987   3.376 -0.2737 -0.1045  0.9223
 4277TIP3   OH212773   0.524   3.946   3.701 -0.3207 -0.1553  0.0099
 4277TIP3    H112774   0.505   4.033   3.736 -0.9841 -0.3207  0.0601
 4277TIP3    H212775   0.506   3.953   3.607  1.6274  0.3385 -0.3576
 4278TIP3   OH212776   7.740   4.321   3.252 -0.1910 -0.6336 -0.0976
 4278TIP3    H112777   7.714   4.266   3.178  0.6981 -1.3316  0.0837
 4278TIP3    H212778   7.717   4.410   3.227 -1.0591 -1.0229 -0.6783
 4279TIP3   OH212779   0.743   4.029   5.502 -0.3584  0.1289 -0.4649
 4279TIP3    H112780   0.811   4.081   5.459  1.7610 -1.2980  1.0359
 4279TIP3    H212781   0.740   4.063   5.591 -1.5616  0.0968 -0.4831
 4280TIP3   OH212782   0.511   3.433   1.751  0.5104 -0.0114 -0.0067
 4280TIP3    H112783   0.422   3.433   1.786  0.0258 -0.3724 -1.1868
 4280TIP3    H212784   0.546   3.519   1.773  0.4363 -0.4469  1.8491
 4281TIP3   OH212785   0.552   3.472   4.740  0.1476 -0.1076  0.4611
 4281TIP3    H112786   0.490   3.543   4.723 -0.4305 -0.5482  0.6773
 4281TIP3    H212787   0.561   3.470   4.835 -1.6124 -1.7689  0.6350
 4282TIP3   OH212788   2.342   3.332   5.003  0.1204  0.6622  0.0205
 4282TIP3    H112789   2.353   3.297   4.915 -1.8626 -0.4092  0.1729
 4282TIP3    H212790   2.273   3.398   4.994 -0.1681  0.4736  0.7795
 4283TIP3   OH212791   1.872   4.471   3.750 -0.3257 -0.2406 -0.5738
 4283TIP3    H112792   1.948   4.424   3.717 -0.1232  0.0066 -0.4646
 4283TIP3    H212793   1.908   4.554   3.782 -0.7806  0.2853 -1.4242
 4284TIP3   OH212794   8.007   3.867   2.164 -0.1319 -0.0257 -0.3562
 4284TIP3    H112795   7.917   3.896   2.147 -0.0955 -0.0903 -0.6576
 4284TIP3    H212796   8.034   3.917   2.241  0.1766  1.2494 -1.2776
 4285TIP3   OH212797   1.157   6.464   2.428  0.5637  0.6013  0.4045
 4285TIP3    H112798   1.201   6.469   2.343  1.7166 -0.7855  0.9091
 4285TIP3    H212799   1.177   6.547   2.470  0.4695  1.0596 -0.4373
 4286TIP3   OH212800   0.632   5.610   3.709 -0.2831  0.1098  0.2770
 4286TIP3    H112801   0.649   5.577   3.797 -1.6554  0.9885  0.8802
 4286TIP3    H212802   0.719   5.627   3.673  0.2670  0.8340  1.8921
 4287TIP3   OH212803   0.410   4.828   4.275  0.8166  0.2352 -0.8977
 4287TIP3    H112804   0.325   4.860   4.306  0.0560 -2.0040 -0.5623
 4287TIP3    H212805   0.447   4.902   4.227 -0.3524  1.9737  0.7979
 4288TIP3   OH212806   0.636   5.795   2.286 -0.3921  0.2188 -0.7755
 4288TIP3    H112807   0.623   5.845   2.367  0.3762 -1.5102  0.4544
 4288TIP3    H212808   0.549   5.768   2.260 -0.5934  0.3260 -0.2291
 4289TIP3   OH212809   0.001   6.386   3.471 -0.2262 -0.0427  0.3020
 4289TIP3    H112810   0.089   6.349   3.469 -0.6068 -0.9790  0.7250
 4289TIP3    H212811  -0.056   6.313   3.496 -1.2662  0.2697 -1.0547
 4290TIP3   OH212812   7.460   5.993   1.708 -0.4740 -0.2467 -0.0391
 4290TIP3    H112813   7.430   6.084   1.716 -0.4460 -0.2636  0.2825
 4290TIP3    H212814   7.382   5.940   1.724 -0.6814 -0.2725 -1.1126
 4291TIP3   OH212815   0.638   4.627   4.373  0.4256  0.4239  0.0032
 4291TIP3    H112816   0.600   4.542   4.348  0.4576  0.3537  0.1981
 4291TIP3    H212817   0.564   4.688   4.367  0.7336  0.6661 -1.6178
 4292TIP3   OH212818   8.426   4.261   3.126 -0.3965  0.2758 -0.8346
 4292TIP3    H112819   8.370   4.323   3.171  0.7965  0.5184  0.3574
 4292TIP3    H212820   8.378   4.238   3.046 -1.2490  2.0373 -0.8443
 4293TIP3   OH212821   3.343   7.749   3.265 -0.2990 -0.0576 -0.7466
 4293TIP3    H112822   3.409   7.779   3.326 -1.9510  1.1728  0.4609
 4293TIP3    H212823   3.392   7.728   3.185  1.5229  0.7970  0.1261
 4294TIP3   OH212824   6.928   2.446   2.370 -0.3098 -0.0283  0.0193
 4294TIP3    H112825   6.922   2.538   2.345  0.8666  0.0414 -0.0700
 4294TIP3    H212826   6.852   2.404   2.330 -0.9196  0.9300  0.1701
 4295TIP3   OH212827   7.163   1.516   2.441 -0.2346 -0.1872  0.1794
 4295TIP3    H112828   7.148   1.430   2.403  0.5915 -0.3196  0.1364
 4295TIP3    H212829   7.233   1.501   2.506  0.4685  0.5861 -0.3903
 4296TIP3   OH212830   1.049   5.531   2.315  0.2262  0.3696 -0.2782
 4296TIP3    H112831   0.971   5.563   2.359 -0.5646 -1.3537 -0.3892
 4296TIP3    H212832   1.017   5.488   2.236  1.2262 -0.8965 -0.0127
 4297TIP3   OH212833   0.973   4.265   4.661 -0.1664 -0.2803  0.0594
 4297TIP3    H112834   1.062   4.231   4.672  0.6549  1.4066 -1.1269
 4297TIP3    H212835   0.968   4.338   4.723 -0.4211  0.1713 -0.4863
 4298TIP3   OH212836   0.324   3.606   4.698  0.5785  0.2659  0.2635
 4298TIP3    H112837   0.302   3.666   4.769 -1.9908 -1.0542  0.6248
 4298TIP3    H212838   0.268   3.633   4.625 -0.4581 -1.5271  0.3680
 4299TIP3   OH212839   0.495   4.039   3.446  0.2890  0.3048  0.5921
 4299TIP3    H112840   0.430   4.023   3.377 -2.6281 -0.6073  3.3852
 4299TIP3    H212841   0.502   4.134   3.451  0.8084  0.3739 -1.1714
 4300TIP3   OH212842   2.544   3.391   3.921  0.1710  0.3712 -0.4821
 4300TIP3    H112843   2.622   3.439   3.890  1.2805 -1.0488  0.0955
 4300TIP3    H212844   2.554   3.303   3.885 -2.4586  0.8419 -2.5209
 4301TIP3   OH212845   0.594   5.114   2.253 -0.2081  0.4408  0.0690
 4301TIP3    H112846   0.669   5.118   2.313  0.3013 -1.4087 -0.4124
 4301TIP3    H212847   0.619   5.172   2.181 -0.0335  1.2464  0.7701
 4302TIP3   OH212848   7.805   4.603   4.483 -0.6084 -0.5880  0.4991
 4302TIP3    H112849   7.726   4.563   4.520  0.6232 -0.1932  3.7271
 4302TIP3    H212850   7.794   4.697   4.500 -0.0271 -0.3967 -0.1828
 4303TIP3   OH212851   0.582   7.265   2.159 -0.1993  0.1535  0.3005
 4303TIP3    H112852   0.654   7.320   2.191  1.2653 -0.8229 -1.2349
 4303TIP3    H212853   0.528   7.325   2.107  0.3144  0.5876  0.2617
 4304TIP3   OH212854   1.086   2.474   4.017 -0.2083 -0.0999 -0.0537
 4304TIP3    H112855   1.117   2.554   4.060 -0.1447  0.2676 -0.7765
 4304TIP3    H212856   0.991   2.482   4.018 -0.2586 -0.8266  1.4049
 4305TIP3   OH212857   7.643   5.707   1.828  0.5186  0.2706 -0.9476
 4305TIP3    H112858   7.723   5.656   1.818  0.5393  0.2156 -0.4980
 4305TIP3    H212859   7.670   5.787   1.872  0.5191  0.7602 -1.8323
 4306TIP3   OH212860   1.324   4.110   2.400  0.4566 -0.1159 -0.3500
 4306TIP3    H112861   1.332   4.172   2.473  3.2222  0.1296 -0.7987
 4306TIP3    H212862   1.413   4.103   2.365 -0.4206 -1.9174 -2.3234
 4307TIP3   OH212863   0.734   5.275   3.118  0.1698 -0.0256 -0.1882
 4307TIP3    H112864   0.747   5.250   3.209  0.6126  1.0849  0.0627
 4307TIP3    H212865   0.646   5.246   3.097 -0.7443  1.6095  1.2452
 4308TIP3   OH212866   1.459   3.128   5.406 -0.3879 -0.3049  0.2203
 4308TIP3    H112867   1.369   3.119   5.375 -1.0351  2.0282  1.2898
 4308TIP3    H212868   1.486   3.040   5.430 -2.5389 -0.9624  0.2667
 4309TIP3   OH212869   0.777   4.387   2.840  0.3823 -0.4893 -0.2418
 4309TIP3    H112870   0.826   4.467   2.822  0.0058 -0.0752  0.5501
 4309TIP3    H212871   0.764   4.347   2.754 -1.9431  1.7534 -0.9834
 4310TIP3   OH212872   4.164   2.866   3.223  0.4747 -0.5270  0.0422
 4310TIP3    H112873   4.192   2.801   3.287  0.9995 -2.1174 -1.7303
 4310TIP3    H212874   4.169   2.820   3.139 -1.6259  1.0271 -0.9825
 4311TIP3   OH212875   6.468   3.884   2.884  0.1681 -0.5462  0.3486
 4311TIP3    H112876   6.502   3.801   2.919  0.7013 -0.4668  0.0260
 4311TIP3    H212877   6.390   3.859   2.836  0.3543 -0.8724  0.2105
 4312TIP3   OH212878   7.838   3.036   6.070 -0.7899  0.1661 -0.7685
 4312TIP3    H112879   7.866   3.010   5.982  0.6654 -1.3341  0.1038
 4312TIP3    H212880   7.756   2.989   6.084  0.2496 -1.6231 -0.4033
 4313TIP3   OH212881   7.817   5.207   3.668  0.4291  0.3212  0.0516
 4313TIP3    H112882   7.826   5.276   3.602 -2.3283  1.2495  0.6002
 4313TIP3    H212883   7.846   5.249   3.749 -1.2455  0.8706  0.3848
 4314TIP3   OH212884   1.450   6.920   3.523  1.0473  0.0620 -0.0324
 4314TIP3    H112885   1.383   6.963   3.576  2.4845  1.1346  0.9339
 4314TIP3    H212886   1.531   6.931   3.572  2.4510  1.2543 -2.5144
 4315TIP3   OH212887   1.662   0.861   4.320  0.1251  0.1664 -0.5674
 4315TIP3    H112888   1.703   0.907   4.394  0.1444 -0.4968 -0.1587
 4315TIP3    H212889   1.734   0.812   4.279 -0.0128  0.0095 -0.6217
 4316TIP3   OH212890   0.674   7.253   2.941 -0.2889 -0.2632  0.3833
 4316TIP3    H112891   0.585   7.273   2.911 -0.4463 -1.0939  0.2729
 4316TIP3    H212892   0.664   7.237   3.035  0.2098  2.3746  0.9179
 4317TIP3   OH212893   1.220   4.487   3.810  0.5314 -0.2893  0.4207
 4317TIP3    H112894   1.294   4.430   3.791  1.3445  0.1378  2.1881
 4317TIP3    H212895   1.232   4.563   3.752  1.9714  0.1794  1.3086
 4318TIP3   OH212896   1.361   3.849   2.533 -0.6471  0.0869 -0.3741
 4318TIP3    H112897   1.451   3.875   2.513 -0.6272  0.6948  0.4983
 4318TIP3    H212898   1.307   3.918   2.496 -0.7593 -0.2261 -0.8058
 4319TIP3   OH212899   7.437   6.125   2.858  0.3568 -0.4980  0.2690
 4319TIP3    H112900   7.504   6.105   2.794  0.3256  1.3316 -0.3869
 4319TIP3    H212901   7.482   6.177   2.925 -0.6849  2.1412 -1.0025
 4320TIP3   OH212902   6.999   0.113   0.829  0.1166 -0.0405  0.1984
 4320TIP3    H112903   7.000   0.181   0.762 -0.4508  0.6027  0.8315
 4320TIP3    H212904   6.952   0.040   0.790 -0.7939  0.5823  0.1339
 4321TIP3   OH212905   7.843   3.791   4.192  0.2741  0.0001  0.2957
 4321TIP3    H112906   7.787   3.846   4.247  0.1525  0.0157  0.1563
 4321TIP3    H212907   7.818   3.701   4.214 -0.7095  0.0241 -0.7061
 4322TIP3   OH212908   1.072   4.256   3.206  0.8154  0.0268  0.2138
 4322TIP3    H112909   1.085   4.351   3.199  1.4716  0.1544  2.6268
 4322TIP3    H212910   0.991   4.247   3.257  0.5567 -0.7176 -0.3243
 4323TIP3   OH212911   1.527   7.091   3.103  0.3468  0.1412 -0.1466
 4323TIP3    H112912   1.574   7.041   3.035  1.4439  1.2022 -0.1871
 4323TIP3    H212913   1.560   7.054   3.186  2.2475  1.7454 -0.1589
 4324TIP3   OH212914   3.802   7.737   3.215 -0.0700  0.1266 -0.1517
 4324TIP3    H112915   3.852   7.817   3.232 -1.8694  1.0290  1.0752
 4324TIP3    H212916   3.772   7.709   3.302  2.6273 -3.3445 -0.2137
 4325TIP3   OH212917   7.657   6.926   2.814 -0.4441 -0.4995  0.3094
 4325TIP3    H112918   7.740   6.877   2.813 -0.9747 -1.4361  0.9416
 4325TIP3    H212919   7.600   6.877   2.755  0.3615  1.8071 -2.4516
 4326TIP3   OH212920   2.010   5.174   2.922  0.0435 -0.1148  0.1074
 4326TIP3    H112921   1.929   5.223   2.937  0.1091  1.0135 -2.8749
 4326TIP3    H212922   1.985   5.083   2.939 -1.6385  0.3033  0.0415
 4327TIP3   OH212923   1.635   6.647   1.938 -0.2181  0.2562  0.7443
 4327TIP3    H112924   1.605   6.635   1.848  0.3764 -0.0161  0.5782
 4327TIP3    H212925   1.607   6.735   1.961  0.6612  0.7755 -0.1226
 4328TIP3   OH212926   8.244   2.101   5.399  0.0185  0.2223  0.0627
 4328TIP3    H112927   8.194   2.177   5.428 -0.7094  0.0061 -0.6141
 4328TIP3    H212928   8.316   2.138   5.347 -1.0484  0.3875 -1.3093
 4329TIP3   OH212929   2.284   3.056   2.128 -0.3849  0.2716  0.7021
 4329TIP3    H112930   2.340   2.981   2.151 -1.9041 -1.1740 -0.2049
 4329TIP3    H212931   2.241   3.029   2.047 -2.1874  1.4809  1.2457
 4330TIP3   OH212932   1.628   3.502   2.778 -0.6486 -0.2449  0.2670
 4330TIP3    H112933   1.574   3.543   2.845 -0.7119 -0.4600  0.3449
 4330TIP3    H212934   1.673   3.431   2.823 -0.5804 -0.2978  0.1156
 4331TIP3   OH212935   2.494   5.697   3.708 -0.1557  0.4122  0.1259
 4331TIP3    H112936   2.520   5.727   3.621 -1.0030 -0.0665 -0.3009
 4331TIP3    H212937   2.504   5.774   3.764 -0.2822  0.9177 -0.5354
 4332TIP3   OH212938   3.524   6.759   3.681  1.0020  0.4974 -0.3081
 4332TIP3    H112939   3.491   6.805   3.758  0.1200 -0.5780 -0.0287
 4332TIP3    H212940   3.447   6.742   3.628  1.1065 -1.8412  0.2366
 4333TIP3   OH212941   0.071   5.055   4.891  0.1929 -0.4128  0.2585
 4333TIP3    H112942   0.094   5.144   4.864  0.6120 -0.2847  1.0325
 4333TIP3    H212943  -0.024   5.052   4.882  0.2213 -0.0410 -0.2321
 4334TIP3   OH212944   6.620   6.074   3.557 -0.0304 -0.3488 -0.2470
 4334TIP3    H112945   6.629   6.094   3.464  0.6374 -0.6324 -0.2456
 4334TIP3    H212946   6.617   5.979   3.562  1.2739 -0.3831  0.1247
 4335TIP3   OH212947   8.250   7.218   2.718 -0.3267 -0.1071  0.5990
 4335TIP3    H112948   8.304   7.150   2.677  1.0056 -0.1382  2.3229
 4335TIP3    H212949   8.168   7.217   2.669  1.0331 -0.4474 -1.7329
 4336TIP3   OH212950   2.106   6.533   3.966  0.1382 -0.0545  0.3484
 4336TIP3    H112951   2.047   6.485   3.908 -1.2791  1.7390  0.2846
 4336TIP3    H212952   2.191   6.530   3.922 -0.6696  0.2957 -1.2650
 4337TIP3   OH212953   1.279   4.673   2.209  0.0474 -0.0232  0.3468
 4337TIP3    H112954   1.237   4.597   2.250 -0.8786  0.1826 -0.2080
 4337TIP3    H212955   1.206   4.730   2.186  0.6745  0.5422 -0.2222
 4338TIP3   OH212956   0.841   4.844   2.359  1.0998 -0.5371  0.5546
 4338TIP3    H112957   0.775   4.818   2.294  1.1379  1.3814 -0.3168
 4338TIP3    H212958   0.902   4.771   2.363  0.3142 -1.2687 -0.5551
 4339TIP3   OH212959   1.153   6.107   2.179  0.1413  0.5307 -0.1772
 4339TIP3    H112960   1.061   6.126   2.199  0.2600  1.0981 -0.1757
 4339TIP3    H212961   1.154   6.012   2.161 -0.2171  0.2832  1.0597
 4340TIP3   OH212962   2.365   6.318   2.064  0.0831 -0.5513  0.4965
 4340TIP3    H112963   2.329   6.397   2.105 -1.3912 -2.2866  2.7164
 4340TIP3    H212964   2.334   6.322   1.974  1.3614  2.1787  0.1462
 4341TIP3   OH212965   1.328   5.251   2.451 -0.7544  0.2634 -0.1907
 4341TIP3    H112966   1.286   5.334   2.432 -0.0362  0.5588 -0.5346
 4341TIP3    H212967   1.415   5.275   2.484 -1.5454 -0.2839  2.3683
 4342TIP3   OH212968   1.149   3.270   1.322  0.2377  0.4198  0.6514
 4342TIP3    H112969   1.116   3.298   1.236 -0.5181 -2.1447  0.0683
 4342TIP3    H212970   1.078   3.290   1.383 -0.6369 -0.9648  0.1066
 4343TIP3   OH212971   1.314   4.519   1.849  0.3256 -0.0469  0.3396
 4343TIP3    H112972   1.275   4.532   1.936  0.8158  0.1559  0.5324
 4343TIP3    H212973   1.309   4.425   1.835 -1.0805  0.0772 -0.0393
 4344TIP3   OH212974   2.925   0.183   2.184  0.5344  0.0567 -0.2317
 4344TIP3    H112975   2.843   0.184   2.135  0.7467 -1.8473 -0.6816
 4344TIP3    H212976   2.944   0.090   2.196  3.1751  0.4442 -1.0481
 4345TIP3   OH212977   2.844   7.068   5.080 -0.6085 -0.2232  0.1950
 4345TIP3    H112978   2.927   7.058   5.032 -0.6385 -0.2437  0.1473
 4345TIP3    H212979   2.846   7.158   5.113 -0.4909 -0.2768  0.3364
 4346TIP3   OH212980   1.734   5.086   2.660  0.3751 -0.1049 -0.2853
 4346TIP3    H112981   1.669   5.154   2.677  0.5006 -0.1333  0.3260
 4346TIP3    H212982   1.730   5.029   2.737  0.9998 -0.2015 -0.3207
 4347TIP3   OH212983   7.443   3.095   3.030 -0.0438  0.5092 -0.0396
 4347TIP3    H112984   7.465   3.180   2.991  0.4207  1.2651  1.7946
 4347TIP3    H212985   7.523   3.044   3.024 -0.1915  0.3533 -0.7332
 4348TIP3   OH212986   2.604   5.896   3.910  0.3622 -0.0039 -0.3380
 4348TIP3    H112987   2.654   5.872   3.988  1.6629  0.1907 -1.0831
 4348TIP3    H212988   2.517   5.919   3.942  1.0327  0.5516  1.0999
 4349TIP3   OH212989   8.436   5.443   3.634 -0.1005 -0.4284 -0.0187
 4349TIP3    H112990   8.466   5.380   3.699  2.1435 -1.3544 -1.8928
 4349TIP3    H212991   8.375   5.394   3.579 -0.4234 -0.2145  0.1487
 4350TIP3   OH212992   3.791   6.570   3.562  0.2581 -0.0468 -0.1704
 4350TIP3    H112993   3.720   6.630   3.585  0.2876  0.9811 -2.6924
 4350TIP3    H212994   3.853   6.624   3.514  0.9630 -1.7965 -1.2451
 4351TIP3   OH212995   2.033   2.411   1.860  0.2201  0.8226  0.6769
 4351TIP3    H112996   1.943   2.410   1.895 -0.7337  1.3588 -1.6780
 4351TIP3    H212997   2.068   2.495   1.888 -0.4996  1.2171  0.4141
 4352TIP3   OH212998   8.261   5.430   2.611  0.2496  0.2560  0.1437
 4352TIP3    H112999   8.292   5.504   2.559 -0.0882  0.5342  0.3376
 4352TIP3    H213000   8.204   5.381   2.552 -1.2952  1.3652  0.6747
 4353TIP3   OH213001   0.472   4.801   2.887 -0.0513 -0.1954  0.0783
 4353TIP3    H113002   0.396   4.854   2.862  0.5478  1.3192  1.4174
 4353TIP3    H213003   0.548   4.853   2.860  0.5506 -0.1866  1.7396
 4354TIP3   OH213004   3.726   6.566   4.428 -0.4896 -0.2020  0.6285
 4354TIP3    H113005   3.640   6.578   4.468 -1.5071  0.8291 -1.7315
 4354TIP3    H213006   3.776   6.643   4.453 -0.9057  0.1247  0.4695
 4355TIP3   OH213007   3.508   0.177   2.677  0.0211  0.0745 -0.2877
 4355TIP3    H113008   3.493   0.100   2.622 -0.1737  1.1769 -1.8072
 4355TIP3    H213009   3.564   0.145   2.748  0.0793 -1.4263 -0.9836
 4356TIP3   OH213010   1.534   5.250   0.831  0.4764  0.5668 -0.2979
 4356TIP3    H113011   1.625   5.256   0.859  0.1169 -1.4962  1.4410
 4356TIP3    H213012   1.491   5.323   0.874  1.0344  0.6865  0.0667
 4357TIP3   OH213013   2.306   5.351   2.097  0.3712 -0.2760 -0.6724
 4357TIP3    H113014   2.270   5.355   2.185  0.9693 -0.7284 -0.4065
 4357TIP3    H213015   2.294   5.260   2.070 -0.5229  0.0327 -1.3652
 4358TIP3   OH213016   0.665   4.497   2.259  0.2855 -0.3723  0.2305
 4358TIP3    H113017   0.638   4.476   2.170 -1.8807  0.7840  0.5982
 4358TIP3    H213018   0.745   4.549   2.248 -0.3105  0.2980 -1.0735
 4359TIP3   OH213019   0.272   3.124   4.492 -0.4725  0.0244  0.3098
 4359TIP3    H113020   0.291   3.218   4.493 -1.3065  0.1929  0.8091
 4359TIP3    H213021   0.327   3.088   4.561 -0.3514  0.1859  0.2983
 4360TIP3   OH213022   3.699   5.243   1.461 -0.2916 -0.1033  0.1164
 4360TIP3    H113023   3.691   5.200   1.376 -0.7178 -0.4438  0.3263
 4360TIP3    H213024   3.625   5.211   1.511 -0.5668  0.8156  0.3081
 4361TIP3   OH213025   0.262   5.157   1.345  1.0386 -0.6204  0.1136
 4361TIP3    H113026   0.337   5.152   1.286  0.1136  1.8217 -1.3306
 4361TIP3    H213027   0.186   5.140   1.290  0.3190 -0.3794  1.0076
 4362TIP3   OH213028   3.141   5.935   1.104 -0.1807 -0.2182  0.0142
 4362TIP3    H113029   3.072   5.880   1.068 -0.4394  0.2016 -0.1284
 4362TIP3    H213030   3.117   5.946   1.196 -0.4577  0.1724 -0.1069
 4363TIP3   OH213031   0.924   5.606   3.120 -0.1856 -0.0215  0.9109
 4363TIP3    H113032   0.853   5.550   3.091  0.2053  0.7212 -1.5909
 4363TIP3    H213033   1.004   5.558   3.097  0.1308  0.5989  0.6933
 4364TIP3   OH213034   8.247   6.829   2.049  0.4629 -0.8307 -0.3816
 4364TIP3    H113035   8.217   6.878   1.972 -1.3038 -0.5330  0.4518
 4364TIP3    H213036   8.234   6.890   2.122  0.5757 -1.6835  0.3587
 4365TIP3   OH213037   3.023   7.786   2.566 -0.4225 -0.3608 -0.4405
 4365TIP3    H113038   3.080   7.738   2.626 -1.3964 -0.8324  0.1257
 4365TIP3    H213039   3.014   7.729   2.490  1.8954  0.8185 -1.6390
 4366TIP3   OH213040   1.466   7.189   1.620  0.5983  0.4660 -0.0304
 4366TIP3    H113041   1.475   7.285   1.618 -0.0919  0.6097  2.5302
 4366TIP3    H213042   1.371   7.174   1.622  0.7052 -0.2895 -0.4719
 4367TIP3   OH213043   0.931   4.541   3.508 -0.3001  0.3073 -0.4681
 4367TIP3    H113044   0.902   4.522   3.419 -0.1828  0.3858 -0.5233
 4367TIP3    H213045   0.888   4.475   3.562 -0.7586  0.5556 -0.5223
 4368TIP3   OH213046   2.854   0.581   1.695 -0.8007  0.1131  0.3347
 4368TIP3    H113047   2.820   0.660   1.735  1.1603  0.8961  0.5374
 4368TIP3    H213048   2.793   0.512   1.720 -1.6469  1.2743  1.5046
 4369TIP3   OH213049   4.106   0.815   0.927 -0.2929 -0.1146  0.7854
 4369TIP3    H113050   4.073   0.731   0.896  0.6879 -0.6277  1.0878
 4369TIP3    H213051   4.175   0.838   0.864  1.1520 -0.7625  2.1021
 4370TIP3   OH213052   3.413   7.458   3.931 -0.0535  0.7329  0.5259
 4370TIP3    H113053   3.323   7.490   3.926 -0.2251 -0.0582 -2.4433
 4370TIP3    H213054   3.463   7.519   3.877  0.6663 -0.4779 -0.2083
 4371TIP3   OH213055   8.152   5.343   2.338 -0.2309  0.6525  0.4170
 4371TIP3    H113056   8.146   5.438   2.328  0.6599  0.7093  0.3732
 4371TIP3    H213057   8.225   5.318   2.281  1.3297  0.2859  2.5327
 4372TIP3   OH213058   1.150   6.721   4.094 -0.3741  0.7106  0.2290
 4372TIP3    H113059   1.054   6.732   4.092 -0.3624  0.8424  0.3811
 4372TIP3    H213060   1.184   6.807   4.070 -0.2782  1.0918  1.6491
 4373TIP3   OH213061   0.744   3.694   4.242  0.3511 -0.2666  0.3629
 4373TIP3    H113062   0.800   3.741   4.304 -0.0574  0.8110 -0.0612
 4373TIP3    H213063   0.678   3.759   4.216 -2.1103 -1.9811  2.0840
 4374TIP3   OH213064   4.252   7.216   3.442  0.3578 -0.5936  0.2161
 4374TIP3    H113065   4.324   7.278   3.437 -1.1524  1.2063  0.2660
 4374TIP3    H213066   4.226   7.202   3.351 -0.9164  0.8094  0.3460
 4375TIP3   OH213067   8.240   5.880   2.795  0.3326  0.1898 -0.5635
 4375TIP3    H113068   8.278   5.947   2.852 -0.2252 -0.5724  0.7390
 4375TIP3    H213069   8.252   5.914   2.706  2.6700  0.6846 -0.1121
 4376TIP3   OH213070   2.816   5.046   0.397  0.2301  0.1619  0.1859
 4376TIP3    H113071   2.821   5.102   0.320  2.4121 -1.4914 -0.9157
 4376TIP3    H213072   2.763   4.972   0.370  1.6596 -0.8075  0.0115
 4377TIP3   OH213073   4.162   6.169   1.903 -0.3085  0.0649  0.1509
 4377TIP3    H113074   4.204   6.095   1.948 -0.2181  1.7567  2.9126
 4377TIP3    H213075   4.068   6.156   1.919 -0.2869  0.6071  0.6805
 4378TIP3   OH213076   3.254   4.921   1.817 -0.3450 -0.4618 -0.0708
 4378TIP3    H113077   3.287   4.950   1.902 -1.0541 -0.1919  0.1194
 4378TIP3    H213078   3.178   4.867   1.838 -0.6924 -0.1606 -0.5458
 4379TIP3   OH213079   8.121   5.721   4.165 -0.0515  0.3344 -0.6686
 4379TIP3    H113080   8.081   5.807   4.171 -0.1919  0.2347 -0.1322
 4379TIP3    H213081   8.215   5.737   4.171 -0.1089  0.3870  0.2648
 4380TIP3   OH213082   1.735   3.943   2.750  0.1319 -0.0307  0.1323
 4380TIP3    H113083   1.768   4.022   2.708 -0.9726  0.6908  0.5951
 4380TIP3    H213084   1.666   3.974   2.809 -0.3316 -1.3381  0.3014
 4381TIP3   OH213085   1.466   4.659   3.910 -0.2231 -0.0421 -0.7614
 4381TIP3    H113086   1.374   4.675   3.889 -0.6154 -0.7734  0.3989
 4381TIP3    H213087   1.468   4.571   3.946  0.8554  0.1670 -0.2875
 4382TIP3   OH213088   1.531   5.353   2.202 -0.6115 -0.1908  0.0281
 4382TIP3    H113089   1.520   5.436   2.156  0.4835 -1.3744 -2.4800
 4382TIP3    H213090   1.502   5.286   2.139  0.4226 -1.8236  1.2321
 4383TIP3   OH213091   0.815   4.235   3.345 -0.3272 -0.1637 -0.2893
 4383TIP3    H113092   0.789   4.195   3.262 -1.2088  0.7569 -0.4682
 4383TIP3    H213093   0.733   4.267   3.382  0.2947  1.0065  0.0936
 4384TIP3   OH213094   0.195   3.448   2.418 -0.5023 -0.2830 -0.3607
 4384TIP3    H113095   0.288   3.470   2.420 -0.4794 -0.3689  2.3684
 4384TIP3    H213096   0.155   3.517   2.366  0.9750  0.2700 -0.7933
 4385TIP3   OH213097   1.058   4.598   0.644 -0.0974  0.1653 -0.3356
 4385TIP3    H113098   1.047   4.608   0.550  2.0840 -0.8727 -0.7324
 4385TIP3    H213099   1.130   4.658   0.666  0.0319 -0.2906  0.4987
 4386TIP3   OH213100   0.131   5.124   3.259  0.0412  0.4686  0.0188
 4386TIP3    H113101   0.037   5.108   3.266  0.2631 -0.3959  1.1096
 4386TIP3    H213102   0.170   5.037   3.248  0.8857  0.6250  1.6637
 4387TIP3   OH213103   0.308   3.265   2.220 -0.1691 -0.2779 -0.1330
 4387TIP3    H113104   0.238   3.328   2.237 -0.1349 -0.6432  1.3805
 4387TIP3    H213105   0.268   3.198   2.164 -1.7393 -1.7388  2.6310
 4388TIP3   OH213106   0.038   4.273   2.010  0.1205  0.1212 -0.4039
 4388TIP3    H113107  -0.002   4.358   2.030  2.6340  1.4079 -0.7596
 4388TIP3    H213108   0.039   4.227   2.094  0.3446  1.1146  0.1439
 4389TIP3   OH213109   0.263   3.482   3.380  0.3889  0.4818 -0.0341
 4389TIP3    H113110   0.179   3.441   3.360  0.9578 -0.0449 -1.4171
 4389TIP3    H213111   0.247   3.533   3.459 -1.6710  1.7592 -1.2238
 4390TIP3   OH213112   2.626   6.871   3.303 -0.2492  0.2460  0.2381
 4390TIP3    H113113   2.706   6.923   3.300 -0.4795  0.5595 -0.7429
 4390TIP3    H213114   2.634   6.810   3.229  0.6827 -2.1193  2.2463
 4391TIP3   OH213115   1.085   5.316   3.215 -0.1128 -0.0237 -0.0599
 4391TIP3    H113116   1.037   5.368   3.279  0.2186  1.4045 -0.9508
 4391TIP3    H213117   1.034   5.325   3.134  0.5666 -0.1454 -0.5073
 4392TIP3   OH213118   7.179   5.198   2.582 -0.2202 -0.1624 -0.2207
 4392TIP3    H113119   7.258   5.246   2.608 -0.4332 -0.6802  1.5015
 4392TIP3    H213120   7.199   5.162   2.496  1.4747 -0.3792  0.2514
 4393TIP3   OH213121   7.878   7.533   2.382 -0.8265  0.5541  0.4648
 4393TIP3    H113122   7.897   7.496   2.468 -0.5089 -0.4046 -0.0171
 4393TIP3    H213123   7.962   7.571   2.354 -0.1617 -1.6640 -0.6627
 4394TIP3   OH213124   0.032   4.894   5.297  0.5038 -0.2388 -0.1134
 4394TIP3    H113125   0.111   4.842   5.279  0.2079 -0.5394 -0.5401
 4394TIP3    H213126  -0.037   4.830   5.310 -0.1315  0.0588 -1.8960
 4395TIP3   OH213127   1.039   3.443   1.930  0.2051 -0.2487  0.0556
 4395TIP3    H113128   1.012   3.491   1.852 -1.9289  0.8456  1.4110
 4395TIP3    H213129   1.077   3.362   1.896  3.3849  2.1000 -2.2512
 4396TIP3   OH213130   7.291   5.197   1.115 -0.1613  0.1339 -0.2447
 4396TIP3    H113131   7.244   5.133   1.169  0.9018  0.1534  0.7276
 4396TIP3    H213132   7.295   5.276   1.170  0.7864  0.2049 -0.4041
 4397TIP3   OH213133   0.458   7.276   3.276 -0.1726 -0.7704  0.6654
 4397TIP3    H113134   0.549   7.308   3.281 -0.2406 -0.8020  2.4613
 4397TIP3    H213135   0.411   7.329   3.341 -1.5884 -0.3190 -0.7107
 4398TIP3   OH213136   3.287   5.497   2.833  0.0154 -0.2782  0.3081
 4398TIP3    H113137   3.290   5.506   2.928  1.3358  0.0030  0.2521
 4398TIP3    H213138   3.203   5.536   2.807 -0.9533 -1.5376  1.4681
 4399TIP3   OH213139   1.187   5.491   2.636 -0.0712  0.1576  0.5161
 4399TIP3    H113140   1.116   5.442   2.677 -0.6453  0.7127  0.1898
 4399TIP3    H213141   1.184   5.466   2.544  1.0546 -0.8916  0.7604
 4400TIP3   OH213142   2.497   6.518   0.819 -0.1332 -0.1203  0.9718
 4400TIP3    H113143   2.567   6.508   0.754 -0.0190  0.4765  1.0016
 4400TIP3    H213144   2.542   6.521   0.903 -0.1158  1.1401  0.9298
 4401TIP3   OH213145   1.499   4.849   4.119 -0.0408 -0.1689  0.2228
 4401TIP3    H113146   1.408   4.858   4.145 -0.3954  1.3736 -1.4394
 4401TIP3    H213147   1.496   4.800   4.036  0.7802 -1.5853  0.9985
 4402TIP3   OH213148   5.037   7.250   2.645 -0.2376  0.0860 -0.0442
 4402TIP3    H113149   5.023   7.156   2.650 -1.0611  0.2984  1.6220
 4402TIP3    H213150   4.982   7.279   2.571  0.1362 -0.7411 -0.6527
 4403TIP3   OH213151   0.216   5.433   2.873 -0.4795  0.5442 -0.2558
 4403TIP3    H113152   0.276   5.404   2.804  0.5377  2.2231 -0.1236
 4403TIP3    H213153   0.233   5.373   2.946 -0.3522 -0.1871 -0.8779
 4404TIP3   OH213154   0.990   5.048   2.198  0.5304  0.2406 -0.1756
 4404TIP3    H113155   0.965   5.051   2.290 -3.1156  1.8269 -1.1264
 4404TIP3    H213156   0.983   4.956   2.174  0.7570 -0.0701  0.9317
 4405TIP3   OH213157   1.794   5.005   2.202  0.0181 -0.5029  0.0699
 4405TIP3    H113158   1.823   5.002   2.293  0.0839  0.2589  0.0770
 4405TIP3    H213159   1.832   5.085   2.167  0.2458 -0.9585 -0.7193
 4406TIP3   OH213160   0.072   3.113   4.734 -0.3471  0.9157  0.3576
 4406TIP3    H113161   0.152   3.165   4.723  0.6752 -0.5122  0.9149
 4406TIP3    H213162   0.007   3.158   4.680  1.3457  1.0178 -1.6735
 4407TIP3   OH213163   0.493   5.137   2.799 -0.1252 -0.3658  0.0618
 4407TIP3    H113164   0.473   5.225   2.767 -1.4508 -0.7497 -0.2133
 4407TIP3    H213165   0.407   5.096   2.810  0.4633 -1.4517  0.6847
 4408TIP3   OH213166   2.835   3.935   0.749  0.4286 -0.7046  0.5526
 4408TIP3    H113167   2.782   3.883   0.809  0.8331 -0.6686  0.9439
 4408TIP3    H213168   2.911   3.962   0.801 -0.8136  2.0887  1.0200
 4409TIP3   OH213169   5.113   6.764   3.277 -0.3497  0.1256 -0.8016
 4409TIP3    H113170   5.059   6.728   3.347 -0.9084  2.2768 -0.0940
 4409TIP3    H213171   5.085   6.716   3.199 -1.3205 -0.7203  0.0471
 4410TIP3   OH213172   8.476   0.470   6.560  0.3020 -0.0890 -0.2354
 4410TIP3    H113173   8.545   0.468   6.494 -1.7124  1.6024 -2.4857
 4410TIP3    H213174   8.405   0.418   6.523 -0.1205 -0.7996  1.5104
 4411TIP3   OH213175   2.831   5.598   0.638  0.4117  0.0759  0.6076
 4411TIP3    H113176   2.813   5.530   0.703  0.7994  0.1139  0.7536
 4411TIP3    H213177   2.786   5.675   0.672  0.4785  0.0532  0.7487
 4412TIP3   OH213178   8.200   4.466   2.443 -0.8826 -0.2891 -0.6508
 4412TIP3    H113179   8.261   4.392   2.448  2.4367  2.0561 -3.5921
 4412TIP3    H213180   8.127   4.433   2.390 -0.7356 -2.2368  0.3107
 4413TIP3   OH213181   1.224   5.823   2.098  0.0162  0.1532  0.4027
 4413TIP3    H113182   1.223   5.728   2.108  0.7991  0.1368  0.4243
 4413TIP3    H213183   1.305   5.850   2.141  0.2790  0.7297 -0.4367
 4414TIP3   OH213184   7.507   5.533   2.301 -0.2727  0.0309 -0.2335
 4414TIP3    H113185   7.474   5.616   2.335 -0.4591 -0.3983  0.6650
 4414TIP3    H213186   7.599   5.531   2.327 -0.8150 -1.0330  1.7480
 4415TIP3   OH213187   1.403   4.653   2.455 -0.0409 -0.2334  0.6625
 4415TIP3    H113188   1.369   4.693   2.375 -0.2084 -1.3016  0.1949
 4415TIP3    H213189   1.482   4.703   2.475 -0.4876  0.6153  0.3342
 4416TIP3   OH213190   2.036   5.919   2.266  0.5406  0.1859 -0.1581
 4416TIP3    H113191   2.077   5.939   2.183 -0.3346 -2.2641 -1.2200
 4416TIP3    H213192   2.074   5.982   2.328  3.1386  0.3025 -1.8356
 4417TIP3   OH213193   0.127   4.661   4.232  0.0771  0.2689  0.3378
 4417TIP3    H113194   0.062   4.674   4.300  1.1417  1.3619  1.1686
 4417TIP3    H213195   0.079   4.669   4.150 -1.2600 -1.2908  0.9344
 4418TIP3   OH213196   2.315   6.574   0.144 -1.0644 -0.2425 -0.2443
 4418TIP3    H113197   2.374   6.644   0.117 -1.4268  0.5526  0.9788
 4418TIP3    H213198   2.285   6.535   0.062  0.2588  0.0966 -0.9000
 4419TIP3   OH213199   0.487   5.911   4.874  0.2360  0.5817 -0.2298
 4419TIP3    H113200   0.571   5.944   4.906 -0.7562  2.7067  0.2536
 4419TIP3    H213201   0.457   5.853   4.944  0.3248  1.4595  0.5508
 4420TIP3   OH213202   3.392   6.420   1.382  0.1898  0.0586 -0.5706
 4420TIP3    H113203   3.367   6.434   1.473 -0.1028 -0.1847 -0.6112
 4420TIP3    H213204   3.413   6.326   1.377  0.5481  0.1411 -0.6723
 4421TIP3   OH213205   2.524   7.582   3.433 -0.6652  0.3637  0.1201
 4421TIP3    H113206   2.550   7.674   3.429  1.3291 -0.2418 -2.5783
 4421TIP3    H213207   2.535   7.558   3.525  2.2665  1.9057  0.2470
 4422TIP3   OH213208   0.922   6.884   2.394  0.6965  0.1576  0.8781
 4422TIP3    H113209   0.833   6.919   2.398  0.5880 -0.1215  0.8764
 4422TIP3    H213210   0.913   6.790   2.409  0.9774  0.1077  0.7551
 4423TIP3   OH213211   7.903   5.025   3.106 -0.5800 -0.3367 -0.2926
 4423TIP3    H113212   7.892   4.952   3.045 -0.9331  0.4272 -1.1554
 4423TIP3    H213213   7.932   4.984   3.188 -0.8098 -1.4400 -0.7584
 4424TIP3   OH213214   3.271   6.162   2.700  0.0103 -0.3000  0.0775
 4424TIP3    H113215   3.212   6.237   2.693  0.2346 -0.0259  1.1308
 4424TIP3    H213216   3.332   6.173   2.627  2.1466  2.3926  2.1815
 4425TIP3   OH213217   8.383   5.683   4.699 -0.1216  0.4810  0.2539
 4425TIP3    H113218   8.296   5.646   4.687 -0.2744  0.7997  0.3704
 4425TIP3    H213219   8.428   5.668   4.616  0.3590 -1.3927  0.8415
 4426TIP3   OH213220   0.774   3.953   0.208 -0.0351 -0.0283  0.4173
 4426TIP3    H113221   0.859   3.962   0.165  1.0463 -0.7807  2.3294
 4426TIP3    H213222   0.791   3.973   0.300 -2.1372  0.8036  0.6646
 4427TIP3   OH213223   0.316   5.506   4.111 -0.4882 -0.1148 -0.1995
 4427TIP3    H113224   0.321   5.590   4.066 -0.1312 -0.8199 -1.5284
 4427TIP3    H213225   0.357   5.520   4.196  0.4342  0.8061 -0.7959
 4428TIP3   OH213226   2.184   5.103   2.065 -0.3754 -0.1958  0.3093
 4428TIP3    H113227   2.205   5.020   2.022 -1.6503 -1.3637  1.8709
 4428TIP3    H213228   2.135   5.077   2.143 -4.8777  2.1762 -1.5384
 4429TIP3   OH213229   5.970   2.396   0.507  0.2101  0.7747  0.0359
 4429TIP3    H113230   6.037   2.452   0.545 -0.0952  2.1976 -1.4706
 4429TIP3    H213231   5.892   2.412   0.560  0.5300  0.5899  0.5665
 4430TIP3   OH213232   2.521   6.042   2.785  0.9796  0.4362 -0.1292
 4430TIP3    H113233   2.446   6.058   2.729  0.7627  0.4548  0.1611
 4430TIP3    H213234   2.574   6.122   2.778 -0.5692  1.7148  2.0450
 4431TIP3   OH213235   0.726   7.666   2.672 -0.2370 -0.1336 -0.2724
 4431TIP3    H113236   0.712   7.586   2.621  1.5339 -0.4347 -0.3146
 4431TIP3    H213237   0.739   7.635   2.761 -0.2851  0.1739 -0.1579
 4432TIP3   OH213238   1.622   4.988   3.804  0.5734 -0.3184 -0.4825
 4432TIP3    H113239   1.528   4.980   3.789  0.5007 -0.7401  0.1728
 4432TIP3    H213240   1.631   5.063   3.862  0.4660 -1.4744  1.0666
 4433TIP3   OH213241   0.980   5.912   0.782 -0.2196  0.4523  0.5521
 4433TIP3    H113242   0.903   5.947   0.737  1.5784  1.9400 -1.4832
 4433TIP3    H213243   0.954   5.908   0.874 -3.2513 -0.6060 -0.2866
 4434TIP3   OH213244   2.154   5.594   2.026  0.1694 -0.1855  0.0477
 4434TIP3    H113245   2.208   5.640   2.091  0.1447 -0.3339  0.1720
 4434TIP3    H213246   2.194   5.507   2.020  0.2300 -0.1394 -0.2055
 4435TIP3   OH213247   2.203   7.133   1.283  0.2357 -0.1226  0.4677
 4435TIP3    H113248   2.183   7.207   1.226 -2.1543 -1.0680  0.0512
 4435TIP3    H213249   2.207   7.057   1.225  0.6316 -0.6466  1.1684
 4436TIP3   OH213250   1.522   5.559   3.412 -0.5249  0.0698 -0.0952
 4436TIP3    H113251   1.520   5.558   3.508 -2.2707 -4.4643 -0.0630
 4436TIP3    H213252   1.429   5.559   3.387 -0.0932 -1.0476 -1.7522
 4437TIP3   OH213253   7.088   4.073   1.488  0.1460 -0.1001 -0.1994
 4437TIP3    H113254   7.077   4.164   1.458  0.1714 -0.0796 -0.1487
 4437TIP3    H213255   7.143   4.081   1.566  1.1190 -0.2636 -0.8730
 4438TIP3   OH213256   6.963   3.446   0.967 -0.1881 -0.1754 -0.0154
 4438TIP3    H113257   6.950   3.497   0.887 -0.8919  1.1128  0.9111
 4438TIP3    H213258   6.965   3.511   1.037 -0.5155 -1.3776  1.1229
 4439TIP3   OH213259   1.051   4.997   1.702  0.9062  0.0032 -0.0051
 4439TIP3    H113260   1.121   4.951   1.748  0.8693 -1.4926 -1.4120
 4439TIP3    H213261   1.060   4.970   1.611 -0.0559  1.6384 -0.6049
 4440TIP3   OH213262   0.087   4.313   4.638  0.1542 -0.0494 -0.1620
 4440TIP3    H113263   0.044   4.239   4.682  0.3358 -0.5248 -0.7761
 4440TIP3    H213264   0.164   4.331   4.691 -0.2680  0.1569  0.3847
 4441TIP3   OH213265   8.137   4.809   2.024  0.1131 -0.0591 -0.1004
 4441TIP3    H113266   8.087   4.851   1.954 -0.9852 -0.3417  0.4947
 4441TIP3    H213267   8.071   4.785   2.089  1.0709 -0.1447  0.8583
 4442TIP3   OH213268   1.733   4.733   3.866  0.1922  0.6771  0.3615
 4442TIP3    H113269   1.646   4.695   3.856  0.4755  0.0736  0.1122
 4442TIP3    H213270   1.720   4.827   3.857 -0.4912  0.6167  0.7472
 4443TIP3   OH213271   0.867   4.243   4.162 -0.0165 -0.0349  0.2500
 4443TIP3    H113272   0.937   4.179   4.151  0.1673 -0.0295  1.3613
 4443TIP3    H213273   0.834   4.228   4.250 -1.6444 -0.2567 -0.3770
 4444TIP3   OH213274   0.154   4.603   2.781  0.3896  0.3748  0.0777
 4444TIP3    H113275   0.135   4.510   2.780  0.1621  0.4217  0.3685
 4444TIP3    H213276   0.220   4.614   2.850 -0.0639  0.5285  0.4874
 4445TIP3   OH213277   4.122   0.540   6.839  0.0715 -0.1604 -0.0509
 4445TIP3    H113278   4.071   0.593   6.899  0.0499  2.8258 -2.5860
 4445TIP3    H213279   4.057   0.490   6.790 -0.1073 -0.2097  0.2359
 4446TIP3   OH213280   0.304   7.108   1.285 -0.0674  0.1857 -0.5665
 4446TIP3    H113281   0.296   7.026   1.334 -1.5989  0.8499  0.3213
 4446TIP3    H213282   0.253   7.092   1.205 -1.6679  0.8014  0.3201
 4447TIP3   OH213283   0.373   5.476   3.593 -0.0588 -0.2667  0.1103
 4447TIP3    H113284   0.323   5.433   3.662 -0.5483  0.4988  0.2434
 4447TIP3    H213285   0.330   5.450   3.512 -1.3349  1.2450  0.2945
 4448TIP3   OH213286   0.169   1.363   6.686 -0.2723 -0.0125  0.2734
 4448TIP3    H113287   0.109   1.406   6.747  0.3361 -0.7712  1.4225
 4448TIP3    H213288   0.253   1.360   6.733  0.0954 -0.9899 -0.4355
 4449TIP3   OH213289   2.708   5.426   3.907 -0.3835  0.1090 -0.1258
 4449TIP3    H113290   2.731   5.507   3.862  0.1126  0.2989  0.4709
 4449TIP3    H213291   2.612   5.429   3.913 -0.3024  1.1567  0.8238
 4450TIP3   OH213292   0.839   3.800   0.946 -0.1067 -0.0110 -0.0876
 4450TIP3    H113293   0.846   3.859   1.022  0.7392  0.2476 -0.3611
 4450TIP3    H213294   0.927   3.798   0.909 -0.3209 -0.8185 -0.5624
 4451TIP3   OH213295   0.481   5.097   3.103 -0.3934  0.1034 -0.0192
 4451TIP3    H113296   0.504   5.106   3.010  1.8437  0.9429  0.5856
 4451TIP3    H213297   0.533   5.023   3.133 -0.7552  0.1371  0.6896
 4452TIP3   OH213298   8.459   3.447   2.895 -0.4345  0.1789  0.6240
 4452TIP3    H113299   8.368   3.422   2.880 -1.0195  2.1340  0.7640
 4452TIP3    H213300   8.499   3.371   2.937 -1.0632 -2.0678 -2.6950
 4453TIP3   OH213301   2.814   7.367   4.419 -0.4271  0.3871 -0.2830
 4453TIP3    H113302   2.838   7.382   4.511 -0.4007 -1.7800  0.1060
 4453TIP3    H213303   2.720   7.383   4.417 -0.9164 -1.9978  0.7494
 4454TIP3   OH213304   2.154   2.218   2.525 -0.0137  0.0382 -0.1286
 4454TIP3    H113305   2.137   2.127   2.548 -0.2921 -0.5311 -2.4342
 4454TIP3    H213306   2.248   2.223   2.510  0.1669  0.4100  1.0248
 4455TIP3   OH213307   4.846   6.119   3.864  0.0238  0.2453  0.1695
 4455TIP3    H113308   4.822   6.029   3.842 -1.6310  0.9691 -1.1403
 4455TIP3    H213309   4.940   6.117   3.876  0.3865 -1.1791 -2.4989
 4456TIP3   OH213310   3.172   6.124   3.747  0.0228  0.6742  0.2536
 4456TIP3    H113311   3.162   6.035   3.714 -2.1281  1.0218 -0.1482
 4456TIP3    H213312   3.266   6.135   3.761  0.4384 -1.2132 -0.9140
 4457TIP3   OH213313   3.099   4.928   5.257 -0.2152 -0.1585 -0.2786
 4457TIP3    H113314   3.089   4.917   5.162 -0.0900 -1.0838 -0.1952
 4457TIP3    H213315   3.029   4.987   5.282  0.1042  0.5606 -1.0362
 4458TIP3   OH213316   1.053   4.043   4.114 -0.3038  0.2802  0.7158
 4458TIP3    H113317   1.005   4.018   4.035  1.7598  1.2152 -0.8800
 4458TIP3    H213318   1.057   3.963   4.166  1.0515 -1.2209 -1.5922
 4459TIP3   OH213319   2.294   5.530   6.049 -0.5841 -0.0508  0.5119
 4459TIP3    H113320   2.210   5.495   6.022  1.1392 -2.5173 -1.9761
 4459TIP3    H213321   2.277   5.623   6.067 -3.6181 -0.3123 -0.7644
 4460TIP3   OH213322   2.467   7.440   4.552 -0.1249 -0.3222 -0.3421
 4460TIP3    H113323   2.475   7.535   4.539  0.0031 -0.1398  0.9222
 4460TIP3    H213324   2.515   7.423   4.633  0.0754 -1.5131 -0.6981
 4461TIP3   OH213325   2.971   5.273   3.287  0.7544 -0.1505  0.2409
 4461TIP3    H113326   2.932   5.356   3.313  1.1123  0.5421 -1.3583
 4461TIP3    H213327   2.901   5.209   3.297  0.1681  0.5238  0.4868
 4462TIP3   OH213328   2.548   5.711   3.034 -0.5222  0.3908 -0.3909
 4462TIP3    H113329   2.525   5.619   3.020  2.0857 -0.4889  0.6604
 4462TIP3    H213330   2.482   5.745   3.094 -0.1261 -1.5165  1.1702
 4463TIP3   OH213331   2.115   3.545   2.800 -0.0100  0.1246 -0.2963
 4463TIP3    H113332   2.040   3.506   2.755 -0.6965  0.1626  0.8141
 4463TIP3    H213333   2.174   3.471   2.817  0.6044  0.2164 -1.9048
 4464TIP3   OH213334   8.298   3.403   4.850  0.5174 -0.0244  0.7026
 4464TIP3    H113335   8.282   3.491   4.884 -1.2097 -0.2486  0.5240
 4464TIP3    H213336   8.217   3.356   4.867  0.0236 -0.4997 -2.5707
 4465TIP3   OH213337   1.583   7.304   4.298  0.0358  0.9408  0.0228
 4465TIP3    H113338   1.487   7.306   4.300  0.0346  0.8911  0.0135
 4465TIP3    H213339   1.606   7.343   4.214  0.0248  0.9842  0.0395
 4466TIP3   OH213340   4.011   5.487   4.415  0.2471 -0.1136  0.5437
 4466TIP3    H113341   3.925   5.472   4.377 -0.5579  2.5764  1.2302
 4466TIP3    H213342   4.025   5.412   4.473 -1.3358 -0.9198 -0.1037
 4467TIP3   OH213343   0.118   5.549   2.596 -0.8481 -0.1589  0.0192
 4467TIP3    H113344   0.140   5.468   2.644  0.6231 -0.1743 -0.6611
 4467TIP3    H213345   0.067   5.600   2.659 -0.1219 -0.7791  1.1450
 4468TIP3   OH213346   1.512   4.639   4.298 -0.5963  0.0058  0.5046
 4468TIP3    H113347   1.532   4.679   4.382  0.6732 -0.1094  0.2631
 4468TIP3    H213348   1.513   4.711   4.235 -0.4329 -0.0743  0.4138
 4469TIP3   OH213349   2.969   3.394   3.750 -0.0300  0.1752  0.1900
 4469TIP3    H113350   2.969   3.301   3.772  0.6870 -0.5041 -2.4705
 4469TIP3    H213351   3.057   3.425   3.771 -0.3332  0.3344  1.2773
 4470TIP3   OH213352   0.454   4.783   3.213 -0.4122  0.1123 -0.1788
 4470TIP3    H113353   0.540   4.808   3.179 -0.8379 -0.7806 -1.9501
 4470TIP3    H213354   0.398   4.857   3.193 -0.2750  0.2960  0.1158
 4471TIP3   OH213355   6.877   1.343   6.579  0.9347  0.3469 -0.3787
 4471TIP3    H113356   6.801   1.327   6.524  1.6456  2.9385 -2.1794
 4471TIP3    H213357   6.847   1.406   6.645  0.4902 -1.6194  1.3516
 4472TIP3   OH213358   0.239   6.186   0.374 -0.0697  0.0581 -0.2660
 4472TIP3    H113359   0.213   6.273   0.342 -1.4617 -0.2526  0.0034
 4472TIP3    H213360   0.176   6.126   0.334  0.2674 -0.7141  0.3635
 4473TIP3   OH213361   8.171   6.464   4.418 -0.0624  0.0007 -0.2957
 4473TIP3    H113362   8.122   6.415   4.484 -0.3381  2.2397  1.2148
 4473TIP3    H213363   8.261   6.464   4.449 -0.1388  0.7849 -0.0468
 4474TIP3   OH213364   5.123   0.012   2.918  0.3310 -0.1282  0.3831
 4474TIP3    H113365   5.156  -0.024   3.000 -2.4527 -1.3275  1.0097
 4474TIP3    H213366   5.034   0.040   2.938 -0.4188 -0.5094 -2.2613
 4475TIP3   OH213367   3.577   6.752   3.366  0.5812 -0.2653 -0.1701
 4475TIP3    H113368   3.559   6.679   3.425  0.5422  1.4034  1.9410
 4475TIP3    H213369   3.501   6.809   3.374  1.6643  1.1975  0.0789
 4476TIP3   OH213370   1.637   6.278   4.682  0.1487  0.3229 -0.3711
 4476TIP3    H113371   1.544   6.282   4.658  0.3053  0.3313 -0.9837
 4476TIP3    H213372   1.672   6.208   4.627  0.8144  1.2769 -1.1667
 4477TIP3   OH213373   0.678   4.916   3.128  0.0158  0.6175 -0.0061
 4477TIP3    H113374   0.740   4.856   3.170 -1.5690 -0.8607  0.2440
 4477TIP3    H213375   0.721   4.942   3.047  1.7605  1.0683  1.0354
 4478TIP3   OH213376   1.895   5.988   2.616 -0.6389 -0.4017 -0.5276
 4478TIP3    H113377   1.805   5.967   2.640 -0.6339  0.0965 -0.0747
 4478TIP3    H213378   1.948   5.922   2.661 -0.6705  0.1902  0.3808
 4479TIP3   OH213379   3.290   7.469   4.345  0.0111  0.0573  0.7211
 4479TIP3    H113380   3.371   7.417   4.354  1.7431  1.9999 -2.6626
 4479TIP3    H213381   3.310   7.552   4.387  0.5601  1.2769 -1.8400
 4480TIP3   OH213382   0.950   4.927   3.740  0.3611 -0.4070 -0.1006
 4480TIP3    H113383   0.889   4.942   3.667  3.2884  0.1404 -2.5530
 4480TIP3    H213384   0.999   5.009   3.747  2.3592 -1.6184  0.2888
 4481TIP3   OH213385   2.916   5.539   1.011 -0.1723  0.7309  0.5525
 4481TIP3    H113386   2.860   5.521   0.936 -0.8380 -0.2637  1.2765
 4481TIP3    H213387   2.931   5.633   1.008 -0.4781  0.7445 -0.6286
 4482TIP3   OH213388   1.785   4.263   0.380 -0.0624  0.4456 -0.3021
 4482TIP3    H113389   1.698   4.224   0.370  0.9413 -2.5348  1.9113
 4482TIP3    H213390   1.828   4.249   0.296 -0.0080 -2.6341  0.2033
 4483TIP3   OH213391   3.428   6.605   3.039  1.2549 -0.1098 -0.0068
 4483TIP3    H113392   3.447   6.598   3.133 -2.3151  0.2698  0.7906
 4483TIP3    H213393   3.340   6.571   3.030  1.0035  1.2504 -3.0272
 4484TIP3   OH213394   1.835   5.600   3.227 -0.3005 -0.5865  0.6154
 4484TIP3    H113395   1.780   5.677   3.243 -0.4430 -0.9221  1.8102
 4484TIP3    H213396   1.773   5.529   3.213 -0.1768 -0.2419 -1.8293
 4485TIP3   OH213397   4.349   5.151   1.381  0.9837  0.1339 -0.3223
 4485TIP3    H113398   4.300   5.100   1.445  2.2946 -0.2532  0.3896
 4485TIP3    H213399   4.306   5.237   1.380 -0.8600 -0.7711 -1.0980
 4486TIP3   OH213400   1.346   6.766   2.057  0.4043  0.0214 -0.0697
 4486TIP3    H113401   1.412   6.804   2.000 -0.2239  1.9503  0.4456
 4486TIP3    H213402   1.355   6.814   2.139 -0.4811 -0.8925  0.5724
 4487TIP3   OH213403   2.152   4.956   3.201  0.3184  0.4069 -0.0034
 4487TIP3    H113404   2.212   5.031   3.193 -0.3923  1.0203  0.3512
 4487TIP3    H213405   2.190   4.889   3.145  1.6247  0.6048  0.6346
 4488TIP3   OH213406   1.398   6.797   3.906  0.6340  0.2196  0.3072
 4488TIP3    H113407   1.479   6.793   3.958  0.9462  2.0524 -0.0145
 4488TIP3    H213408   1.374   6.890   3.906  0.1348  0.1271 -2.0482
 4489TIP3   OH213409   1.843   3.150   1.685  0.8147 -0.0850  0.1832
 4489TIP3    H113410   1.877   3.118   1.602  1.4337  0.9332  0.0275
 4489TIP3    H213411   1.905   3.219   1.710  1.0900 -0.9164  1.8729
 4490TIP3   OH213412   2.838   7.824   3.740  0.0855 -0.2807 -0.0894
 4490TIP3    H113413   2.848   7.815   3.645  1.1877 -1.3763  0.1028
 4490TIP3    H213414   2.919   7.787   3.775  0.5036  1.8044  1.2268
 4491TIP3   OH213415   2.008   5.264   3.406  0.6505 -0.3352  0.2621
 4491TIP3    H113416   1.927   5.299   3.443  0.6079 -1.9761  1.7480
 4491TIP3    H213417   1.981   5.188   3.356  1.2866 -0.9286  0.8131
 4492TIP3   OH213418   1.864   5.580   3.558  0.2404  0.6500 -0.0898
 4492TIP3    H113419   1.804   5.507   3.548  0.8257 -0.0107  1.0925
 4492TIP3    H213420   1.897   5.598   3.470 -1.5955  0.9572 -0.7275
 4493TIP3   OH213421   0.773   3.927   3.400  0.3215  0.5845 -0.6205
 4493TIP3    H113422   0.737   3.873   3.330 -0.4890 -1.7463  1.5674
 4493TIP3    H213423   0.698   3.974   3.436  0.6072  1.0867 -0.6596
 4494TIP3   OH213424   8.190   3.854   3.456  0.2249 -0.4906 -0.2093
 4494TIP3    H113425   8.196   3.910   3.533  2.2108  0.2143 -0.8560
 4494TIP3    H213426   8.106   3.878   3.416 -0.3326 -0.1279  1.1489
 4495TIP3   OH213427   0.182   5.015   4.035  0.1115  0.1233 -0.2103
 4495TIP3    H113428   0.095   4.986   4.009  0.2655 -1.2436  0.7557
 4495TIP3    H213429   0.175   5.111   4.038 -1.1618  0.0569 -0.7938
 4496TIP3   OH213430   2.463   4.609   4.326 -0.0268 -0.4336  0.5988
 4496TIP3    H113431   2.387   4.657   4.293  0.8240  0.1638 -0.5316
 4496TIP3    H213432   2.479   4.645   4.413 -0.5587 -0.0113  0.5189
 4497TIP3   OH213433   0.761   5.188   3.377  0.1568 -0.2667  0.4994
 4497TIP3    H113434   0.781   5.101   3.413  0.1571 -0.6503 -0.4173
 4497TIP3    H213435   0.713   5.232   3.446 -1.5345 -1.6996  0.2527
 4498TIP3   OH213436   0.701   4.309   1.302 -0.3150 -0.6899 -0.3006
 4498TIP3    H113437   0.686   4.400   1.328  1.1639 -0.9662  1.6187
 4498TIP3    H213438   0.740   4.315   1.215  2.7318  0.7039  1.0914
 4499TIP3   OH213439   0.581   5.943   3.105 -0.1287 -0.3049 -0.2417
 4499TIP3    H113440   0.626   6.022   3.076 -0.4545  0.0810  0.2942
 4499TIP3    H213441   0.628   5.916   3.184 -0.2578 -0.4304 -0.2075
 4500TIP3   OH213442   7.901   2.386   0.760 -0.2826  0.0144  0.2061
 4500TIP3    H113443   7.811   2.392   0.792 -0.2751 -0.2707  0.2762
 4500TIP3    H213444   7.899   2.316   0.695 -0.2078  0.3103 -0.1174
 4501TIP3   OH213445   1.231   4.814   1.796  0.2458  0.7064 -0.0239
 4501TIP3    H113446   1.172   4.740   1.788  0.7442  0.3299 -0.2249
 4501TIP3    H213447   1.284   4.794   1.874  0.1268  1.0292  0.1423
 4502TIP3   OH213448   0.413   5.610   4.361 -0.2863  0.1246  0.6235
 4502TIP3    H113449   0.448   5.698   4.371  1.2642 -0.3431 -0.5752
 4502TIP3    H213450   0.454   5.559   4.431  0.1073 -0.0381  0.2713
 4503TIP3   OH213451   2.229   0.548   3.148 -0.4189 -0.0372 -0.2128
 4503TIP3    H113452   2.231   0.591   3.234 -1.7934 -0.2552 -0.0601
 4503TIP3    H213453   2.151   0.584   3.105  0.4595  0.3296 -1.5077
 4504TIP3   OH213454   1.850   7.999   3.545 -0.1098 -0.4486  0.1898
 4504TIP3    H113455   1.786   8.070   3.532 -0.9127 -0.7849  2.1795
 4504TIP3    H213456   1.814   7.925   3.497 -0.7664 -0.3564  0.5268
 4505TIP3   OH213457   4.118   6.046   2.314  0.1933  0.0447  0.0323
 4505TIP3    H113458   4.162   6.064   2.398 -0.5053 -0.4087  0.5006
 4505TIP3    H213459   4.046   6.109   2.310 -0.5632 -0.7888  0.3828
 4506TIP3   OH213460   0.904   6.393   5.001 -0.2350 -0.3096 -0.5998
 4506TIP3    H113461   0.979   6.351   5.044 -0.4662  0.6105  0.7175
 4506TIP3    H213462   0.848   6.422   5.073 -1.6390 -0.5608 -1.5632
 4507TIP3   OH213463   0.518   6.032   2.082 -0.2095 -0.0847  0.2307
 4507TIP3    H113464   0.431   6.015   2.117 -0.0761 -0.9608  0.1476
 4507TIP3    H213465   0.568   6.065   2.157 -0.7557  0.9325  0.1521
 4508TIP3   OH213466   1.739   6.635   4.262  0.0666 -0.3353  0.7127
 4508TIP3    H113467   1.824   6.590   4.258 -0.9957 -2.4984  1.7181
 4508TIP3    H213468   1.736   6.673   4.350 -0.0973 -0.4454  0.7546
 4509TIP3   OH213469   1.108   3.948   4.549  0.1376 -0.9371  0.0702
 4509TIP3    H113470   1.021   3.916   4.527 -0.5717  0.9693 -0.0068
 4509TIP3    H213471   1.106   3.959   4.644 -0.3147  0.8001 -0.1308
 4510TIP3   OH213472   7.319   0.315   1.212 -0.0486  0.0338  0.2167
 4510TIP3    H113473   7.260   0.276   1.148 -0.9413  2.7435 -0.6737
 4510TIP3    H213474   7.389   0.250   1.223 -1.2288 -1.5867 -1.5275
 4511TIP3   OH213475   1.998   7.097   2.988 -0.6666  0.5036 -0.3426
 4511TIP3    H113476   2.085   7.134   2.973 -1.8408  2.7160 -1.9684
 4511TIP3    H213477   1.986   7.034   2.917 -0.2778 -0.0290  0.0612
 4512TIP3   OH213478   1.922   0.522   2.139 -0.5332  0.5004 -0.2815
 4512TIP3    H113479   1.836   0.494   2.172 -0.1643 -2.0065 -1.3192
 4512TIP3    H213480   1.984   0.488   2.205 -0.0697 -1.3430 -1.6178
 4513TIP3   OH213481   2.062   6.130   4.283 -0.0384 -0.1332 -0.6002
 4513TIP3    H113482   2.010   6.140   4.204 -1.4126 -3.0447 -0.1210
 4513TIP3    H213483   2.010   6.171   4.352 -0.2914 -0.3847 -0.6438
 4514TIP3   OH213484   2.779   5.001   1.668  0.0012  0.3101 -0.1303
 4514TIP3    H113485   2.845   5.045   1.615 -0.3471  3.2113  1.6772
 4514TIP3    H213486   2.702   4.995   1.612  0.6169  0.4481 -0.9863
 4515TIP3   OH213487   0.361   4.919   3.755  0.0076  0.0080 -0.3654
 4515TIP3    H113488   0.298   4.963   3.697 -1.4638 -0.3713  0.8933
 4515TIP3    H213489   0.306   4.863   3.811  1.3378  0.7030  1.6904
 4516TIP3   OH213490   0.495   5.717   1.763 -0.1884  0.2902 -0.0854
 4516TIP3    H113491   0.455   5.644   1.716 -1.8741  1.1285  0.0194
 4516TIP3    H213492   0.446   5.794   1.735 -1.4874  0.7800  3.3044
 4517TIP3   OH213493   0.763   1.243   1.936  0.3413 -0.2014  0.0326
 4517TIP3    H113494   0.772   1.337   1.921 -0.1664 -0.0352  0.7681
 4517TIP3    H213495   0.680   1.234   1.982  0.4232 -1.0078  0.0268
 4518TIP3   OH213496   6.850   2.832   1.679 -0.5842 -0.0581 -0.1381
 4518TIP3    H113497   6.786   2.780   1.728  0.0584 -1.4425 -0.7219
 4518TIP3    H213498   6.908   2.767   1.640 -0.1561  1.0939 -1.4517
 4519TIP3   OH213499   1.814   4.382   1.716 -0.0772  0.6686 -0.6133
 4519TIP3    H113500   1.812   4.360   1.809  2.2833  0.5686 -0.5663
 4519TIP3    H213501   1.737   4.438   1.704 -1.6250 -1.0644  0.9191
 4520TIP3   OH213502   0.715   6.663   2.991 -0.5322 -0.5024  0.4701
 4520TIP3    H113503   0.651   6.671   3.061 -1.5714  0.1237 -0.5301
 4520TIP3    H213504   0.662   6.648   2.912  0.4033  1.9796 -0.6936
 4521TIP3   OH213505   0.339   5.196   0.524 -0.3264 -0.0854 -0.1041
 4521TIP3    H113506   0.294   5.174   0.442 -2.3034  2.3890  0.2528
 4521TIP3    H213507   0.415   5.137   0.526 -1.9818 -2.4155 -2.1250
 4522TIP3   OH213508   0.693   5.562   1.512  0.9956 -0.0439  0.2946
 4522TIP3    H113509   0.701   5.560   1.417  0.3973 -1.4057  0.2607
 4522TIP3    H213510   0.622   5.624   1.528  0.1677 -0.8451 -0.2251
 4523TIP3   OH213511   2.011   3.377   3.298 -0.0903  0.0557 -0.1374
 4523TIP3    H113512   1.939   3.317   3.276 -0.4127  1.1605 -2.2555
 4523TIP3    H213513   2.003   3.391   3.392 -1.7298 -1.0172 -0.0995
 4524TIP3   OH213514   1.104   3.770   4.217 -0.0075  0.3783  0.2890
 4524TIP3    H113515   1.079   3.754   4.126  0.5283 -0.6199  0.3156
 4524TIP3    H213516   1.083   3.689   4.262  1.4624  0.2058  0.6854
 4525TIP3   OH213517   1.028   4.758   2.107 -0.2903 -0.1748 -0.3404
 4525TIP3    H113518   1.019   4.725   2.018  0.0452  1.3743 -0.9600
 4525TIP3    H213519   0.976   4.697   2.160 -2.6059  0.3451 -1.9354
 4526TIP3   OH213520   3.244   7.274   1.262 -0.4737  0.5416 -0.7101
 4526TIP3    H113521   3.287   7.331   1.326 -0.8542 -0.6173  0.5959
 4526TIP3    H213522   3.265   7.314   1.177  0.3124  1.9090  0.1015
 4527TIP3   OH213523   0.828   3.323   4.854 -0.4950 -0.2482  0.0551
 4527TIP3    H113524   0.837   3.386   4.926 -0.4599 -3.3279  2.9068
 4527TIP3    H213525   0.902   3.263   4.866 -1.5225 -1.8748 -1.4638
 4528TIP3   OH213526   1.678   5.665   3.871  0.2259  0.2299  0.0945
 4528TIP3    H113527   1.721   5.596   3.922 -0.8170  0.7388  1.7285
 4528TIP3    H213528   1.715   5.746   3.905 -0.2118  0.5660 -0.2259
 4529TIP3   OH213529   2.404   5.729   2.196  0.1657 -0.5017 -0.3826
 4529TIP3    H113530   2.478   5.786   2.215  0.4164 -1.3898  1.4014
 4529TIP3    H213531   2.435   5.672   2.126  0.9371 -0.4299 -0.1044
 4530TIP3   OH213532   3.504   6.218   4.215  0.4623  0.1706 -0.2276
 4530TIP3    H113533   3.516   6.146   4.278  0.3595 -0.2969 -0.7399
 4530TIP3    H213534   3.422   6.259   4.242  0.4909  0.0626  0.0321
 4531TIP3   OH213535   0.873   5.637   3.600  0.4567  0.1193 -0.1869
 4531TIP3    H113536   0.899   5.551   3.632  0.4948  0.9286  1.9838
 4531TIP3    H213537   0.906   5.639   3.509  1.2091 -1.8036  0.0171
 4532TIP3   OH213538   3.762   5.943   1.090 -0.3262 -0.4154  0.5969
 4532TIP3    H113539   3.688   5.921   1.033 -1.0154  0.0668  1.2972
 4532TIP3    H213540   3.722   5.972   1.172  0.6474 -0.4808  1.1059
 4533TIP3   OH213541   3.904   6.410   4.735  0.2724  0.2960 -0.3460
 4533TIP3    H113542   3.915   6.419   4.640  0.8973 -3.9367 -0.8087
 4533TIP3    H213543   3.810   6.409   4.749  0.1817  1.7991 -0.7894
 4534TIP3   OH213544   4.137   6.963   5.329  0.2036  0.0404  0.4697
 4534TIP3    H113545   4.126   7.017   5.407  3.0176  0.1937  0.8226
 4534TIP3    H213546   4.208   6.902   5.352  0.6268 -0.3317 -1.7149
 4535TIP3   OH213547   4.802   7.075   2.081  0.2002  0.0510  0.3279
 4535TIP3    H113548   4.713   7.084   2.045  0.6467  0.5110 -0.6894
 4535TIP3    H213549   4.855   7.135   2.028  1.7557 -2.6425 -1.2788
 4536TIP3   OH213550   1.740   2.991   6.391  0.1783  0.2910  0.6166
 4536TIP3    H113551   1.702   3.077   6.371 -0.6849 -0.3629 -0.5853
 4536TIP3    H213552   1.732   2.983   6.486  1.0084  1.8878  0.8309
 4537TIP3   OH213553   3.477   6.331   0.329 -0.3442 -0.0505  0.0062
 4537TIP3    H113554   3.383   6.320   0.340  0.0167 -1.6080  1.6140
 4537TIP3    H213555   3.510   6.354   0.416  1.1072 -2.0917  0.0283
 4538TIP3   OH213556   5.278   6.812   2.946  0.3370  0.3420  0.3024
 4538TIP3    H113557   5.245   6.902   2.952 -0.5194  0.0650 -0.2967
 4538TIP3    H213558   5.201   6.757   2.959  0.0464 -0.3280 -3.7127
 4539TIP3   OH213559   6.384   0.118   0.244 -0.8532  0.0776  0.2808
 4539TIP3    H113560   6.395   0.121   0.339 -1.0403  0.3817  0.2929
 4539TIP3    H213561   6.440   0.188   0.211 -0.8269  0.0047  0.1709
 4540TIP3   OH213562   2.351   6.710   3.623 -0.2363  0.1141 -0.5517
 4540TIP3    H113563   2.427   6.653   3.609 -0.8206 -0.8033 -0.0753
 4540TIP3    H213564   2.280   6.667   3.576 -0.3318  1.2911 -1.5107
 4541TIP3   OH213565   5.673   5.474   0.605  0.2018  0.1473  0.2045
 4541TIP3    H113566   5.630   5.545   0.557 -0.3177  0.1039  0.6053
 4541TIP3    H213567   5.713   5.517   0.680 -1.4826 -0.2048  1.3323
 4542TIP3   OH213568   3.904   1.390   2.086  0.0174 -0.2322  0.3840
 4542TIP3    H113569   3.923   1.354   1.999  1.7435  0.2883  0.5332
 4542TIP3    H213570   3.873   1.314   2.136  0.4507 -0.8544 -0.2648
 4543TIP3   OH213571   4.365   6.220   5.589 -0.0588 -0.9504 -0.1964
 4543TIP3    H113572   4.319   6.221   5.674 -0.4707 -2.1872 -0.3823
 4543TIP3    H213573   4.364   6.311   5.560  0.9475 -0.3345  1.5822
 4544TIP3   OH213574   2.726   6.769   2.126 -0.7391 -0.2325  0.3271
 4544TIP3    H113575   2.671   6.797   2.199 -0.1543 -0.8950  1.0415
 4544TIP3    H213576   2.774   6.847   2.100 -0.9330  0.0032  0.6792
 4545TIP3   OH213577   1.604   4.186   2.365  0.2818 -0.0122 -0.7782
 4545TIP3    H113578   1.675   4.123   2.353 -0.0240 -0.3675 -0.7468
 4545TIP3    H213579   1.645   4.259   2.412  0.4324 -0.5849 -0.0053
 4546TIP3   OH213580   3.775   6.834   3.722 -0.0240 -0.4027 -0.0032
 4546TIP3    H113581   3.797   6.823   3.814 -0.4296 -0.7771  0.0497
 4546TIP3    H213582   3.686   6.800   3.714 -1.5120  3.1488  0.2583
 4547TIP3   OH213583   5.326   5.350   2.796  0.4699  0.1717 -0.1322
 4547TIP3    H113584   5.402   5.375   2.744  1.4441  1.0947  1.6944
 4547TIP3    H213585   5.334   5.255   2.807  0.0886 -0.0846 -1.8748
 4548TIP3   OH213586   2.140   3.949   1.592 -0.1986  0.2673  0.1748
 4548TIP3    H113587   2.087   3.911   1.662 -2.0539 -0.3417 -1.5040
 4548TIP3    H213588   2.108   4.039   1.584 -0.6186  0.0679 -0.4615
 4549TIP3   OH213589   4.739   4.378   1.541  0.4791 -0.1090 -0.0498
 4549TIP3    H113590   4.693   4.365   1.624 -0.6723 -1.1178 -0.8332
 4549TIP3    H213591   4.785   4.461   1.553 -1.1243  0.6681  0.9505
 4550TIP3   OH213592   1.830   7.443   2.021 -0.3026  0.1958 -0.1316
 4550TIP3    H113593   1.876   7.470   2.100 -0.3263  0.6789 -0.2826
 4550TIP3    H213594   1.805   7.525   1.978  2.1742  0.0178 -2.0649
 4551TIP3   OH213595   7.177   7.309   2.631 -0.0196  0.4522 -0.4709
 4551TIP3    H113596   7.118   7.374   2.669  0.8310  1.3127 -0.5797
 4551TIP3    H213597   7.258   7.318   2.682 -0.5419 -1.9085  0.8113
 4552TIP3   OH213598   4.277   4.763   1.578 -0.5006  0.6053  0.0816
 4552TIP3    H113599   4.304   4.761   1.486 -1.8492  1.0762 -0.3324
 4552TIP3    H213600   4.256   4.854   1.596  0.0436  0.5677  0.9515
 4553TIP3   OH213601   3.406   4.837   2.629  0.0632 -0.2139  0.0531
 4553TIP3    H113602   3.348   4.883   2.568  1.2725  0.6185 -0.4881
 4553TIP3    H213603   3.423   4.753   2.586  0.1819  0.0047 -0.3308
 4554TIP3   OH213604   3.369   6.871   1.778 -0.5819  0.0879 -0.0001
 4554TIP3    H113605   3.321   6.852   1.698 -0.8409  0.5039  0.0587
 4554TIP3    H213606   3.360   6.965   1.790 -1.6915 -0.1616  1.2502
 4555TIP3   OH213607   5.750   5.739   1.475  0.0776 -0.3397  0.0876
 4555TIP3    H113608   5.656   5.721   1.475 -0.4746  2.3235  0.0676
 4555TIP3    H213609   5.791   5.654   1.460 -2.3309 -1.5102 -0.0758
 4556TIP3   OH213610   6.280   5.339   3.874 -0.3417  0.3111  0.2618
 4556TIP3    H113611   6.202   5.352   3.928  0.6712  1.0438  1.6029
 4556TIP3    H213612   6.291   5.423   3.828  0.4156  0.6799  1.1088
 4557TIP3   OH213613   2.324   5.858   3.160  0.1485  0.2331  0.1349
 4557TIP3    H113614   2.237   5.881   3.128  0.1988 -0.6046 -0.6254
 4557TIP3    H213615   2.311   5.837   3.252 -0.9708 -2.5108 -0.5754
 4558TIP3   OH213616   5.046   7.578   1.866 -0.6871  0.4726 -0.0420
 4558TIP3    H113617   4.952   7.581   1.846 -0.5836  1.0537 -0.4564
 4558TIP3    H213618   5.084   7.648   1.813 -0.0011  0.1651  0.0396
 4559TIP3   OH213619   6.279   4.003   3.048  0.1198  0.0723  0.0348
 4559TIP3    H113620   6.234   3.945   3.110  2.8838 -1.7142  0.4401
 4559TIP3    H213621   6.314   3.944   2.981  0.2374  1.6369 -1.3139
 4560TIP3   OH213622   2.260   7.107   3.232  0.3179 -0.3173  0.6770
 4560TIP3    H113623   2.320   7.099   3.158 -1.7264  0.9846 -1.1807
 4560TIP3    H213624   2.223   7.019   3.242  0.8735 -0.5881  0.3961
 4561TIP3   OH213625   5.395   7.108   2.410  0.0974  0.3352 -0.1086
 4561TIP3    H113626   5.373   7.093   2.501  1.0965  2.2818  0.4843
 4561TIP3    H213627   5.386   7.022   2.368 -0.9403 -0.4410  1.6807
 4562TIP3   OH213628   3.901   3.899   1.185 -0.6889  0.2471  0.4660
 4562TIP3    H113629   3.813   3.929   1.163 -0.2251  1.9279  0.8637
 4562TIP3    H213630   3.957   3.938   1.118 -0.1298 -0.0919  0.7332
 4563TIP3   OH213631   4.696   6.957   1.082 -0.2562 -0.3789 -0.2153
 4563TIP3    H113632   4.784   6.919   1.094 -1.2560 -3.4589 -1.9741
 4563TIP3    H213633   4.702   7.004   0.999  0.1779  0.8619  0.5094
 4564TIP3   OH213634   5.465   6.200   3.129 -0.3353  0.3573  0.1360
 4564TIP3    H113635   5.499   6.141   3.062  2.3457  1.2267  0.6580
 4564TIP3    H213636   5.393   6.247   3.086  1.0004  0.5341 -1.9715
 4565TIP3   OH213637   7.068   6.582   4.241 -0.5712 -0.4906 -0.1665
 4565TIP3    H113638   7.079   6.656   4.182  1.4207  0.4598  1.3167
 4565TIP3    H213639   7.102   6.507   4.192 -1.9848 -0.3218 -1.4292
 4566TIP3   OH213640   3.388   6.688   0.407 -0.2999  0.4432 -0.3015
 4566TIP3    H113641   3.467   6.634   0.413 -0.5498  0.1754  0.7205
 4566TIP3    H213642   3.410   6.769   0.453 -0.7776  0.1762  0.3989
 4567TIP3   OH213643   5.001   5.891   2.561 -0.4236 -0.6527  0.1336
 4567TIP3    H113644   4.907   5.883   2.578 -0.8501  1.2383 -1.2650
 4567TIP3    H213645   5.008   5.921   2.471  1.5069  0.2286  0.5385
 4568TIP3   OH213646   5.468   7.715   3.466 -0.1114  0.2303  0.1069
 4568TIP3    H113647   5.388   7.681   3.425 -0.5884  0.7461  0.6024
 4568TIP3    H213648   5.508   7.770   3.398 -0.9317  1.1316  0.3488
 4569TIP3   OH213649   7.115   1.035   1.380  0.2337 -0.7863 -0.0872
 4569TIP3    H113650   7.127   1.126   1.353 -0.4785 -0.7138 -0.1768
 4569TIP3    H213651   7.020   1.026   1.391  0.4149 -1.1100  1.3293
 4570TIP3   OH213652   2.225   7.962   3.537  0.4678 -0.0436  0.0819
 4570TIP3    H113653   2.174   7.973   3.617  0.6053  0.3786  0.1114
 4570TIP3    H213654   2.231   8.050   3.500  1.3738 -0.0606  0.1941
 4571TIP3   OH213655   5.359   6.141   0.833  0.1575 -0.2012  0.0367
 4571TIP3    H113656   5.295   6.128   0.903 -0.2218 -1.3891 -0.5308
 4571TIP3    H213657   5.308   6.178   0.761 -0.2049 -2.5724 -0.9521
 4572TIP3   OH213658   4.416   6.872   3.317 -0.2433  0.1143  0.2307
 4572TIP3    H113659   4.325   6.866   3.345 -0.0372  1.4030  1.2196
 4572TIP3    H213660   4.414   6.925   3.238 -0.2696  0.7891  0.6824
 4573TIP3   OH213661   6.548   0.131   3.650 -0.2593  0.0589  0.1460
 4573TIP3    H113662   6.542   0.037   3.666  0.2087  0.3690  2.2256
 4573TIP3    H213663   6.465   0.167   3.681  0.0156  0.4713  0.4133
 4574TIP3   OH213664   3.894   6.644   2.042  0.0512 -0.2625  0.1848
 4574TIP3    H113665   3.864   6.584   1.974  0.2101 -1.1819  0.9130
 4574TIP3    H213666   3.830   6.634   2.113  1.4215 -1.3934  1.2922
 4575TIP3   OH213667   3.773   5.698   1.240 -0.0273 -0.1508  0.2290
 4575TIP3    H113668   3.778   5.771   1.179 -0.4090 -1.1371 -0.9823
 4575TIP3    H213669   3.767   5.740   1.326  2.3730  1.2284 -0.2443
 4576TIP3   OH213670   5.130   7.275   1.059 -0.4971  0.3825  0.2976
 4576TIP3    H113671   5.100   7.248   0.972 -0.6311  1.2739  0.0635
 4576TIP3    H213672   5.121   7.196   1.113 -2.5414  0.4098  0.0435
 4577TIP3   OH213673   1.358   3.586   6.866  0.5412 -0.1838  0.3527
 4577TIP3    H113674   1.299   3.576   6.791 -0.6702  0.8134  1.1502
 4577TIP3    H213675   1.369   3.497   6.900 -1.6019 -0.2227  1.0174
 4578TIP3   OH213676   1.350   3.757   3.843 -1.1868 -0.0741  0.6029
 4578TIP3    H113677   1.395   3.738   3.760 -0.1358 -2.2736  1.6452
 4578TIP3    H213678   1.328   3.850   3.837 -0.5088 -0.0339 -1.8579
 4579TIP3   OH213679   8.463   6.935   1.440  0.0281 -0.3145  0.3249
 4579TIP3    H113680   8.401   6.876   1.397  0.9415  0.4630 -2.1734
 4579TIP3    H213681   8.430   7.023   1.418  1.3083  0.0968  0.0467
 4580TIP3   OH213682   4.426   7.633   2.410 -0.0444  0.0866 -0.0538
 4580TIP3    H113683   4.435   7.705   2.348 -0.0579  1.1600  1.1462
 4580TIP3    H213684   4.459   7.556   2.364  0.6198  0.9997 -1.1253
 4581TIP3   OH213685   4.920   7.690   2.128 -0.4791  1.0025 -0.1736
 4581TIP3    H113686   4.891   7.605   2.159  0.4414  1.0806  0.9284
 4581TIP3    H213687   4.938   7.677   2.035  0.6194 -0.2593  0.2033
 4582TIP3   OH213688   3.453   6.472   1.776  0.5949  0.2295 -0.0995
 4582TIP3    H113689   3.378   6.479   1.718  0.8322  0.1230 -0.4211
 4582TIP3    H213690   3.427   6.519   1.856  0.1137  0.0100 -0.1296
 4583TIP3   OH213691   2.230   6.060   2.116  0.6096  0.5059  0.3438
 4583TIP3    H113692   2.242   6.153   2.097  0.2200  0.6241  0.6725
 4583TIP3    H213693   2.278   6.046   2.197 -1.5106  1.0083  1.7368
 4584TIP3   OH213694   5.025   6.004   1.316  0.3587 -0.2432  0.2212
 4584TIP3    H113695   5.073   5.926   1.344 -1.1928 -0.9373  0.9933
 4584TIP3    H213696   5.044   6.012   1.222  1.3837 -0.9258  0.3682
 4585TIP3   OH213697   0.720   3.288   6.487  0.0862  0.6747  0.0986
 4585TIP3    H113698   0.735   3.249   6.573 -2.1332 -1.7097 -0.5096
 4585TIP3    H213699   0.792   3.255   6.433 -0.2071 -0.3420  0.3086
 4586TIP3   OH213700   5.455   4.822   5.407 -0.0545  0.1296 -0.0967
 4586TIP3    H113701   5.531   4.877   5.388  0.0711  0.4322  1.2255
 4586TIP3    H213702   5.387   4.852   5.348  0.7300  0.1327 -1.0036
 4587TIP3   OH213703   4.107   6.796   1.994  0.1084 -0.8175  0.2144
 4587TIP3    H113704   4.170   6.781   2.065 -1.3314  1.7578  2.1095
 4587TIP3    H213705   4.027   6.753   2.024 -0.6185  0.6067  0.3397
 4588TIP3   OH213706   3.343   6.989   1.349 -0.1212 -0.3377 -0.4764
 4588TIP3    H113707   3.412   7.056   1.345  0.9522 -1.2812  1.6293
 4588TIP3    H213708   3.267   7.035   1.384 -0.1143  0.3239 -1.3008
 4589TIP3   OH213709   3.570   7.129   3.598  0.1305  0.3756 -0.3923
 4589TIP3    H113710   3.535   7.216   3.579 -0.8914 -0.2975 -1.6388
 4589TIP3    H213711   3.641   7.118   3.535  0.6027  0.5205  0.1161
 4590TIP3   OH213712   2.934   6.901   4.678  0.1844  0.2707 -0.1054
 4590TIP3    H113713   2.856   6.955   4.690 -0.3731 -0.3792 -0.7680
 4590TIP3    H213714   2.934   6.842   4.754  0.4102  0.7238  0.2515
 4591TIP3   OH213715   4.260   4.823   0.628 -0.0073  0.3853  0.1719
 4591TIP3    H113716   4.355   4.810   0.619 -0.4274 -1.0440 -3.0368
 4591TIP3    H213717   4.245   4.913   0.599  0.1666 -0.0626 -1.3626
 4592TIP3   OH213718   2.472   6.186   1.450 -0.0068 -0.1289  0.2240
 4592TIP3    H113719   2.519   6.120   1.397  0.1634 -0.2374  0.5114
 4592TIP3    H213720   2.395   6.139   1.482 -0.0309 -0.1069  0.1988
 4593TIP3   OH213721   4.685   6.832   4.223  0.4592 -0.2671 -0.3578
 4593TIP3    H113722   4.716   6.879   4.145 -0.1357  1.5512  0.4742
 4593TIP3    H213723   4.615   6.776   4.191  0.1043  0.6014 -1.1150
 4594TIP3   OH213724   2.325   6.000   2.376 -0.0527  0.2414  0.5351
 4594TIP3    H113725   2.303   6.078   2.427  0.5587  0.4415  0.4969
 4594TIP3    H213726   2.414   5.978   2.404  0.7564  1.0752 -1.3362
 4595TIP3   OH213727   6.801   1.597   5.984 -0.1322 -1.1339 -0.0444
 4595TIP3    H113728   6.886   1.635   5.962 -0.3817 -0.9156 -0.6268
 4595TIP3    H213729   6.787   1.529   5.918 -0.5555 -0.9578 -0.1363
 4596TIP3   OH213730   3.033   6.800   4.275  0.1881 -0.0233  0.1628
 4596TIP3    H113731   3.105   6.847   4.232  0.5584 -0.9539 -0.2583
 4596TIP3    H213732   2.954   6.843   4.244  0.4848 -0.2963 -0.9866
 4597TIP3   OH213733   5.558   6.033   2.944  0.0914  0.3011 -0.4502
 4597TIP3    H113734   5.584   6.079   2.864  1.4838 -0.0377 -0.2099
 4597TIP3    H213735   5.625   5.964   2.954 -0.7339 -0.3896  0.3665
 4598TIP3   OH213736   3.293   7.905   4.633  0.3703  0.0484 -0.4452
 4598TIP3    H113737   3.236   7.958   4.577 -0.9276 -1.3177 -0.4788
 4598TIP3    H213738   3.263   7.924   4.722  0.5154  0.0656 -0.4005
 4599TIP3   OH213739   2.926   5.829   0.173  0.1154 -0.0671  0.4155
 4599TIP3    H113740   2.962   5.892   0.235  1.0838 -0.3332  0.1333
 4599TIP3    H213741   2.970   5.848   0.090 -0.7984 -0.0444 -0.0748
 4600TIP3   OH213742   4.219   6.498   2.606 -0.4982  0.4822 -0.3171
 4600TIP3    H113743   4.282   6.569   2.612 -0.3840  0.4871 -1.4489
 4600TIP3    H213744   4.134   6.542   2.597 -0.6857  0.4760  1.3343
 4601TIP3   OH213745   1.388   6.391   0.159 -0.3951  0.1378 -0.4240
 4601TIP3    H113746   1.326   6.409   0.229  0.0386 -2.3732  0.6601
 4601TIP3    H213747   1.471   6.429   0.190 -0.0210 -1.6240  0.8090
 4602TIP3   OH213748   3.447   5.432   2.625  0.4090  0.0395 -0.2471
 4602TIP3    H113749   3.392   5.470   2.694  0.3812 -0.6909  0.1366
 4602TIP3    H213750   3.423   5.339   2.624 -2.2866  0.6760 -3.7394
 4603TIP3   OH213751   1.830   7.360   1.647 -0.4074  0.0751  0.4089
 4603TIP3    H113752   1.803   7.270   1.668 -0.9005  0.1602  0.1488
 4603TIP3    H213753   1.760   7.414   1.682 -0.8003  0.2757 -0.6741
 4604TIP3   OH213754   5.510   6.828   3.265  0.3021  0.4614  0.0333
 4604TIP3    H113755   5.588   6.869   3.302 -1.0104  2.7803  0.3261
 4604TIP3    H213756   5.438   6.858   3.321 -1.0606  0.0075 -1.4298
 4605TIP3   OH213757   5.942   6.829   2.462 -0.6541 -0.3397  0.0702
 4605TIP3    H113758   5.985   6.848   2.379 -0.7437  0.3133  0.1713
 4605TIP3    H213759   5.851   6.858   2.449 -0.7451 -0.5217  0.2895
 4606TIP3   OH213760   2.733   6.659   1.223 -0.0010 -0.2353  0.3498
 4606TIP3    H113761   2.669   6.687   1.158 -0.2640  0.2339  0.8024
 4606TIP3    H213762   2.680   6.632   1.298  0.3293  0.3454  0.8017
 4607TIP3   OH213763   2.573   6.242   1.008  0.1144 -0.0871  0.0943
 4607TIP3    H113764   2.637   6.265   1.075 -1.0682  0.3781  1.0767
 4607TIP3    H213765   2.489   6.243   1.053 -0.6239 -0.4339 -1.2393
 4608TIP3   OH213766   4.243   6.497   0.905  0.0014 -0.1987 -0.4663
 4608TIP3    H113767   4.307   6.475   0.973  0.3565 -0.0812 -0.7617
 4608TIP3    H213768   4.281   6.571   0.859 -0.3825 -0.0851 -0.6041
 4609TIP3   OH213769   3.646   6.796   3.968  0.0438  0.1523 -0.5683
 4609TIP3    H113770   3.690   6.824   4.048 -1.9877 -1.0761  1.0384
 4609TIP3    H213771   3.588   6.869   3.945  1.2970  0.8914 -1.4979
 4610TIP3   OH213772   5.551   5.410   2.631 -0.0537 -0.1232  0.7323
 4610TIP3    H113773   5.582   5.494   2.597  0.1159  0.1343  1.5009
 4610TIP3    H213774   5.547   5.353   2.554 -0.8604  0.7846  0.0856
 4611TIP3   OH213775   5.068   7.470   0.213 -0.1780 -0.3676  0.0373
 4611TIP3    H113776   5.098   7.528   0.143 -0.0953 -0.6228 -0.1373
 4611TIP3    H213777   5.141   7.469   0.275 -0.6700  0.7110  0.6529
 4612TIP3   OH213778   3.887   7.100   3.139  0.2788  1.0117 -0.3272
 4612TIP3    H113779   3.874   7.008   3.162 -1.1021  1.0985 -0.7024
 4612TIP3    H213780   3.819   7.147   3.188  1.6657  1.9630  0.7123
 4613TIP3   OH213781   3.005   3.997   1.280 -0.2121  0.3075 -0.2531
 4613TIP3    H113782   3.016   4.052   1.202 -0.4007  0.8746  0.1235
 4613TIP3    H213783   2.914   3.968   1.276 -0.7220  1.7182  0.6578
 4614TIP3   OH213784   4.978   6.733   4.756  0.1948  0.2232 -0.5841
 4614TIP3    H113785   4.893   6.717   4.798  0.9511 -1.3598  0.4093
 4614TIP3    H213786   5.022   6.648   4.759  2.4118  1.3608  0.2361
 4615TIP3   OH213787   0.539   2.184   6.639  0.2209  0.5614  0.0307
 4615TIP3    H113788   0.461   2.235   6.617 -0.9418  0.1413  2.8616
 4615TIP3    H213789   0.580   2.233   6.709  0.4416 -1.0913  1.0978
 4616TIP3   OH213790   2.938   5.048   4.275 -0.2355  0.2234 -0.5594
 4616TIP3    H113791   2.965   4.988   4.205  0.4466 -1.5840  1.2165
 4616TIP3    H213792   3.012   5.109   4.283 -0.6499  0.9346 -1.9229
 4617TIP3   OH213793   6.123   6.949   2.245 -0.3211 -0.2051 -0.0126
 4617TIP3    H113794   6.094   7.034   2.213 -1.1673  0.1220  1.5786
 4617TIP3    H213795   6.133   6.895   2.166 -2.2453  0.6054 -0.8231
 4618TIP3   OH213796   4.758   6.270   2.437  0.4979  0.4255  0.2680
 4618TIP3    H113797   4.761   6.217   2.517 -1.7724  0.5305  0.4599
 4618TIP3    H213798   4.666   6.293   2.428  0.6565  0.0608 -2.6217
 4619TIP3   OH213799   3.856   6.630   1.069 -0.0020 -0.1191  0.2690
 4619TIP3    H113800   3.847   6.542   1.033 -1.3301 -0.3837  1.2274
 4619TIP3    H213801   3.889   6.617   1.158 -0.0624  0.3515  0.3646
 4620TIP3   OH213802   3.725   6.458   1.731 -0.3176 -0.5852  0.0931
 4620TIP3    H113803   3.731   6.371   1.693  1.5624  0.1643 -1.4791
 4620TIP3    H213804   3.632   6.474   1.743 -0.6300 -3.1413  1.2542
 4621TIP3   OH213805   4.537   6.793   1.870  0.5677 -0.2229 -0.3208
 4621TIP3    H113806   4.571   6.719   1.820  0.3249 -0.0379 -0.7626
 4621TIP3    H213807   4.491   6.847   1.806  1.0666  0.5104 -0.0696
 4622TIP3   OH213808   2.557   6.243   3.513  0.5535 -0.3727  0.4277
 4622TIP3    H113809   2.565   6.239   3.418 -0.9382  0.4407  0.2494
 4622TIP3    H213810   2.647   6.235   3.545  1.2141  0.6140 -1.1039
 4623TIP3   OH213811   5.590   5.537   3.599  0.9400 -0.1832  0.4278
 4623TIP3    H113812   5.582   5.445   3.576  0.3417  0.1282 -0.6598
 4623TIP3    H213813   5.604   5.537   3.694 -0.0941 -1.3464  0.6023
 4624TIP3   OH213814   3.423   6.663   1.970 -0.8981 -0.3916  0.0206
 4624TIP3    H113815   3.408   6.739   1.913 -1.3172 -0.3529  0.1785
 4624TIP3    H213816   3.426   6.700   2.058  0.2430 -0.3871 -0.0185
 4625TIP3   OH213817   7.024   1.988   1.685  0.3035 -0.0369  0.0477
 4625TIP3    H113818   7.056   2.002   1.774  1.3969 -0.7788 -0.2196
 4625TIP3    H213819   6.932   2.014   1.689  0.5997  0.9047  1.1387
 4626TIP3   OH213820   2.732   6.741   2.435 -1.1649 -1.1823  0.6868
 4626TIP3    H113821   2.651   6.788   2.412 -0.0936  0.1521 -0.4331
 4626TIP3    H213822   2.742   6.755   2.529 -1.0100  0.6013  0.4170
 4627TIP3   OH213823   4.494   7.052   2.317 -0.0390 -0.0402 -1.1168
 4627TIP3    H113824   4.522   7.009   2.235  0.0044  0.7628 -1.5256
 4627TIP3    H213825   4.459   6.980   2.370 -1.0159 -0.4159 -2.2461
 4628TIP3   OH213826   1.821   4.333   1.973  0.0609  0.0217  0.0314
 4628TIP3    H113827   1.886   4.275   2.013 -1.1903 -0.8021  0.9227
 4628TIP3    H213828   1.793   4.391   2.043  2.6617  3.0191 -1.3134
 4629TIP3   OH213829   3.920   5.342   1.131  0.5470 -0.2447  0.0316
 4629TIP3    H113830   3.940   5.336   1.038  0.3661 -0.0172 -0.0232
 4629TIP3    H213831   3.973   5.416   1.163 -0.1432  0.3075 -0.0976
 4630TIP3   OH213832   4.330   7.763   1.671 -0.1846  0.3275  0.3905
 4630TIP3    H113833   4.246   7.782   1.631 -1.2838  0.9206  2.8394
 4630TIP3    H213834   4.382   7.842   1.657  0.0727 -0.1363 -1.3427
 4631TIP3   OH213835   2.514   7.150   2.574 -0.1194  0.8412  0.3106
 4631TIP3    H113836   2.489   7.215   2.639  1.8494  1.4839  0.4446
 4631TIP3    H213837   2.576   7.196   2.517  0.0295 -0.4321 -0.5651
 4632TIP3   OH213838   3.537   7.912   3.739  0.1859  0.5851  0.1886
 4632TIP3    H113839   3.442   7.897   3.749  0.2385  1.2719  1.9924
 4632TIP3    H213840   3.576   7.826   3.755 -0.1138  0.3915 -0.1139
 4633TIP3   OH213841   1.035   2.838   6.189 -0.4168 -0.0167 -0.0209
 4633TIP3    H113842   0.961   2.816   6.132 -0.6506 -1.0863  0.6724
 4633TIP3    H213843   1.066   2.753   6.221  2.1181  0.2826 -1.5155
 4634TIP3   OH213844   5.560   1.059   2.499 -0.1768  0.0804 -0.6445
 4634TIP3    H113845   5.576   1.145   2.458 -0.2510  0.8524  0.9220
 4634TIP3    H213846   5.475   1.069   2.542  0.9321  0.0126  1.6058
 4635TIP3   OH213847   5.748   4.225   2.186  0.2337 -0.3039 -0.1802
 4635TIP3    H113848   5.793   4.140   2.182 -1.3532 -1.3613  3.0013
 4635TIP3    H213849   5.655   4.203   2.179 -0.2022  1.1649  0.9443
 4636TIP3   OH213850   4.741   7.301   3.560  0.1931 -0.2262 -0.5472
 4636TIP3    H113851   4.784   7.259   3.485 -0.5834  1.0933 -1.7418
 4636TIP3    H213852   4.775   7.390   3.560 -0.6501  0.0975  0.0023
 4637TIP3   OH213853   4.244   6.187   0.726 -0.3677 -0.5387  0.1102
 4637TIP3    H113854   4.294   6.155   0.651  3.7026  0.4129  2.2793
 4637TIP3    H213855   4.251   6.118   0.791  0.1391  0.6310  1.3073
 4638TIP3   OH213856   0.338   0.745   0.654  0.2844 -0.3102 -0.3653
 4638TIP3    H113857   0.324   0.737   0.560 -0.7667 -1.3328 -0.1327
 4638TIP3    H213858   0.368   0.659   0.682  2.2293  0.4516 -0.0153
 4639TIP3   OH213859   0.816   4.202   6.233  0.5508  0.4954  0.1932
 4639TIP3    H113860   0.847   4.113   6.246  1.9634  1.1609  1.5979
 4639TIP3    H213861   0.896   4.255   6.226 -0.1973  2.0529  2.4906
 4640TIP3   OH213862   5.893   7.163   2.037 -0.0710  0.4364  0.0315
 4640TIP3    H113863   5.900   7.157   2.132  0.1895 -2.5524 -0.1098
 4640TIP3    H213864   5.845   7.084   2.012  0.8560  0.6050 -2.4095
 4641TIP3   OH213865   8.022   0.949   6.655  0.6507  0.5603  0.5130
 4641TIP3    H113866   8.038   0.892   6.731 -0.8053  0.8373  1.0444
 4641TIP3    H213867   7.957   1.012   6.686  0.8173  1.3181 -0.6680
 4642TIP3   OH213868   4.710   6.856   1.537 -0.4873 -0.3808  0.5686
 4642TIP3    H113869   4.665   6.806   1.469  0.6755 -0.0268 -0.4923
 4642TIP3    H213870   4.726   6.793   1.607 -1.2622 -0.8757  0.3023
 4643TIP3   OH213871   3.264   5.807   5.074 -0.3302  0.3364  0.0977
 4643TIP3    H113872   3.292   5.894   5.103 -1.9341  1.3390 -1.2825
 4643TIP3    H213873   3.172   5.818   5.051 -0.3540 -1.5550 -0.8116
 4644TIP3   OH213874   4.538   5.832   1.438  0.1319  0.3400  0.1330
 4644TIP3    H113875   4.543   5.835   1.343  0.6507 -0.0194  0.1461
 4644TIP3    H213876   4.462   5.776   1.456  0.9831 -0.9083 -0.0754
 4645TIP3   OH213877   0.695   3.911   3.032  0.2279  0.2550  0.3187
 4645TIP3    H113878   0.656   3.997   3.046  0.6495  0.2387  1.6889
 4645TIP3    H213879   0.669   3.886   2.944 -0.8419  1.2952  0.3394
 4646TIP3   OH213880   4.174   7.151   3.188  0.2938 -0.0711  0.1249
 4646TIP3    H113881   4.078   7.151   3.180  0.3071  1.2845 -0.2369
 4646TIP3    H213882   4.202   7.069   3.148 -0.7221 -0.5351  0.3493
 4647TIP3   OH213883   3.908   6.140   2.749 -0.4540  0.5223 -0.4299
 4647TIP3    H113884   3.948   6.083   2.816  1.8357  1.4693 -0.9490
 4647TIP3    H213885   3.824   6.098   2.730 -0.6575 -0.3926  2.2124
 4648TIP3   OH213886   2.885   0.736   5.464  0.1807 -0.3195 -0.0948
 4648TIP3    H113887   2.967   0.782   5.477 -0.0911 -0.5106  2.5706
 4648TIP3    H213888   2.843   0.781   5.390  1.0800  2.0181  0.7864
 4649TIP3   OH213889   4.123   6.743   3.789  0.1306 -0.2154 -0.0267
 4649TIP3    H113890   4.068   6.665   3.778 -0.8924  0.5509 -0.3834
 4649TIP3    H213891   4.061   6.815   3.799  1.0416  0.9840 -2.5853
 4650TIP3   OH213892   3.404   4.962   3.673 -0.3442  0.3466 -0.0274
 4650TIP3    H113893   3.341   5.028   3.643 -0.1994  0.5019  0.0139
 4650TIP3    H213894   3.390   4.888   3.613 -1.8125 -0.3043  1.0980
 4651TIP3   OH213895   3.551   5.973   1.992  0.3480 -0.0551  0.6552
 4651TIP3    H113896   3.515   5.890   1.963  0.8494 -0.5480  1.4468
 4651TIP3    H213897   3.502   6.039   1.943 -1.4866 -0.7255  1.5614
 4652TIP3   OH213898   0.160   5.112   1.089 -0.2908  0.0919  0.1336
 4652TIP3    H113899   0.126   5.045   1.029 -0.6474 -0.7319  1.2170
 4652TIP3    H213900   0.244   5.138   1.052  0.1349 -1.4069  0.0035
 4653TIP3   OH213901   4.916   6.339   2.703  0.2925  0.1996 -0.5649
 4653TIP3    H113902   4.973   6.263   2.689 -0.9356 -0.9722  0.6060
 4653TIP3    H213903   4.869   6.350   2.620 -1.4696 -2.0124  0.0789
 4654TIP3   OH213904   3.659   7.475   2.835  0.2828 -0.0774 -0.1485
 4654TIP3    H113905   3.673   7.409   2.903 -1.6394 -1.2576 -0.8632
 4654TIP3    H213906   3.585   7.527   2.866  1.5300  1.5303  0.2163
 4655TIP3   OH213907   3.885   3.606   1.146  0.3811 -0.5208 -0.4350
 4655TIP3    H113908   3.933   3.526   1.123 -1.3729 -1.3721 -1.1864
 4655TIP3    H213909   3.817   3.613   1.079 -0.0395  1.1250  0.1527
 4656TIP3   OH213910   3.222   6.011   0.527 -0.0101  0.0482  0.4466
 4656TIP3    H113911   3.246   5.919   0.521  2.1178  0.6826 -1.1122
 4656TIP3    H213912   3.231   6.033   0.619 -2.4948 -1.7858  1.1809
 4657TIP3   OH213913   3.480   5.646   3.232 -0.0221 -0.5217  0.4522
 4657TIP3    H113914   3.527   5.662   3.314 -0.4673  0.6252  0.4859
 4657TIP3    H213915   3.388   5.657   3.254 -0.1365 -0.1030 -0.2263
 4658TIP3   OH213916   1.072   7.062   2.795  0.6457  0.6909  0.0576
 4658TIP3    H113917   1.155   7.081   2.839  0.5265 -0.3316  0.7491
 4658TIP3    H213918   1.032   7.148   2.782  1.6695  1.1710 -0.0109
 4659TIP3   OH213919   1.035   1.254   6.403  0.1865  0.6656 -0.3436
 4659TIP3    H113920   1.022   1.215   6.490  0.0275  0.5780 -0.4062
 4659TIP3    H213921   1.111   1.208   6.367 -1.1909 -0.9905 -1.2211
 4660TIP3   OH213922   4.020   7.276   1.413 -0.3403 -0.1111  0.3917
 4660TIP3    H113923   4.031   7.199   1.469 -0.4271  1.0881  2.0794
 4660TIP3    H213924   4.087   7.337   1.443 -0.3187  0.5143 -0.9018
 4661TIP3   OH213925   5.748   0.058   1.518 -0.1675 -0.1646 -0.5200
 4661TIP3    H113926   5.824   0.083   1.465 -0.2448 -0.3169 -0.7020
 4661TIP3    H213927   5.672   0.075   1.460 -0.4135  1.8820  0.3400
 4662TIP3   OH213928   4.216   6.048   3.197  0.2472 -0.4214 -0.1585
 4662TIP3    H113929   4.218   6.125   3.141  0.0813 -0.1622  0.1879
 4662TIP3    H213930   4.255   6.077   3.280 -1.4576 -0.2030  0.5954
 4663TIP3   OH213931   0.264   4.796   2.499 -0.2160 -0.1434 -0.3108
 4663TIP3    H113932   0.200   4.732   2.469 -1.8089  0.7283  1.1110
 4663TIP3    H213933   0.346   4.747   2.508 -1.1553 -1.7181 -0.2536
 4664TIP3   OH213934   4.100   6.191   2.562 -0.3483 -0.1760  0.2519
 4664TIP3    H113935   4.185   6.216   2.598 -0.7603  0.3731  0.8570
 4664TIP3    H213936   4.044   6.179   2.639 -0.6962 -0.9694 -0.1280
 4665TIP3   OH213937   4.856   6.585   1.144  0.0391 -0.1655 -0.2232
 4665TIP3    H113938   4.928   6.556   1.200 -0.4773 -0.1031  0.4843
 4665TIP3    H213939   4.793   6.625   1.205 -1.3812 -1.7617 -0.5806
 4666TIP3   OH213940   5.039   5.426   2.395  0.3256  0.2277 -0.0740
 4666TIP3    H113941   4.951   5.392   2.410  0.6103 -0.4116  0.1830
 4666TIP3    H213942   5.090   5.350   2.366  0.7989  0.5867 -0.1996
 4667TIP3   OH213943   2.253   4.770   4.231  0.4453 -0.2161 -0.3500
 4667TIP3    H113944   2.288   4.820   4.158 -1.2513 -0.7338 -1.5495
 4667TIP3    H213945   2.195   4.832   4.276  1.2197 -0.0033  0.3812
 4668TIP3   OH213946   5.486   5.713   1.542  0.0169 -0.0049  0.3584
 4668TIP3    H113947   5.411   5.667   1.504 -0.1381 -1.8035  2.7255
 4668TIP3    H213948   5.451   5.752   1.622  0.8022  2.0612 -0.2941
 4669TIP3   OH213949   4.920   5.568   2.858  0.1703  0.1740  0.1500
 4669TIP3    H113950   4.955   5.658   2.857 -0.3234  0.3675  0.1741
 4669TIP3    H213951   4.829   5.578   2.886  0.3977 -0.4453  1.1203
 4670TIP3   OH213952   5.112   5.921   1.982  0.5883  0.2417  0.6730
 4670TIP3    H113953   5.114   5.980   2.057 -1.1219 -0.1420  1.0412
 4670TIP3    H213954   5.195   5.873   1.987  0.2249 -0.2126  2.6837
 4671TIP3   OH213955   4.395   5.347   2.503 -0.1426 -0.1673  0.4588
 4671TIP3    H113956   4.311   5.332   2.459  0.6360 -1.0047 -0.7612
 4671TIP3    H213957   4.436   5.261   2.508  0.4786  0.1754  1.4038
 4672TIP3   OH213958   1.410   5.835   3.096  0.7676  0.2820  0.1410
 4672TIP3    H113959   1.352   5.764   3.069  0.4143  0.6077  0.0414
 4672TIP3    H213960   1.402   5.901   3.028  0.4459  0.7840  0.6586
 4673TIP3   OH213961   4.443   7.319   0.854  0.2169 -0.7077 -0.0951
 4673TIP3    H113962   4.438   7.266   0.774  1.0455 -0.2424 -0.4628
 4673TIP3    H213963   4.523   7.370   0.843 -1.9179  2.6059 -0.9919
 4674TIP3   OH213964   5.017   6.211   4.731  0.2598  0.1526  0.1499
 4674TIP3    H113965   4.928   6.239   4.708 -0.3233 -2.1117 -0.5565
 4674TIP3    H213966   5.007   6.170   4.817  0.5208 -0.5432 -0.1517
 4675TIP3   OH213967   4.969   5.300   2.784 -0.4256 -0.1975  0.3316
 4675TIP3    H113968   5.017   5.338   2.710 -1.0922  0.8565  0.4299
 4675TIP3    H213969   4.940   5.376   2.835 -1.1567 -0.8671  0.9232
 4676TIP3   OH213970   2.734   5.535   3.637  0.1295  0.1467  0.4681
 4676TIP3    H113971   2.707   5.625   3.621  0.1775 -0.0884 -1.0453
 4676TIP3    H213972   2.654   5.483   3.627  0.5287 -0.2201 -1.0617
 4677TIP3   OH213973   2.959   5.626   1.659  0.2306  0.2390  0.4140
 4677TIP3    H113974   2.967   5.671   1.743  0.2737  0.1879  0.4372
 4677TIP3    H213975   2.871   5.649   1.628 -0.3591 -0.9520  1.1783
 4678TIP3   OH213976   4.701   6.107   2.651 -0.0728  0.1662  0.3311
 4678TIP3    H113977   4.700   6.104   2.747  0.8680 -2.0142  0.2846
 4678TIP3    H213978   4.616   6.073   2.625  0.1626 -0.4668  0.3765
 4679TIP3   OH213979   2.855   3.826   4.458 -0.4201 -0.2956  0.0384
 4679TIP3    H113980   2.852   3.903   4.515  0.6849  0.2469 -0.6161
 4679TIP3    H213981   2.785   3.838   4.395 -0.6614 -0.1426  0.3396
 4680TIP3   OH213982   5.646   5.700   1.935  0.0410  0.0461 -0.5776
 4680TIP3    H113983   5.716   5.688   2.000  1.0763 -1.4735 -1.9217
 4680TIP3    H213984   5.591   5.623   1.944 -1.7248  1.4390  0.7525
 4681TIP3   OH213985   3.697   0.079   2.857  0.2804  0.0672  0.3266
 4681TIP3    H113986   3.747   0.045   2.931  0.0668  1.4504  1.1298
 4681TIP3    H213987   3.744   0.049   2.779  0.5436 -1.3445  1.0216
 4682TIP3   OH213988   4.655   6.247   3.481  0.1951  0.0442  0.6787
 4682TIP3    H113989   4.662   6.282   3.569  1.9473  1.1687  0.1148
 4682TIP3    H213990   4.661   6.323   3.424  0.0818 -0.7772 -0.4551
 4683TIP3   OH213991   4.066   6.577   2.355 -0.7093  0.0909 -0.2799
 4683TIP3    H113992   4.014   6.621   2.423 -0.6902  0.5875 -0.5837
 4683TIP3    H213993   4.028   6.490   2.349 -1.4843  0.4391 -0.4733
 4684TIP3   OH213994   5.146   7.041   1.231 -0.4012 -0.2408 -0.1040
 4684TIP3    H113995   5.108   6.973   1.286 -1.4356  0.3570 -0.0603
 4684TIP3    H213996   5.224   7.001   1.192 -1.5551 -1.7693 -0.8757
 4685TIP3   OH213997   1.860   6.270   2.228 -0.4095 -0.3675 -0.6584
 4685TIP3    H113998   1.934   6.221   2.264  0.8616  1.1613 -1.1082
 4685TIP3    H213999   1.845   6.341   2.291 -1.7782 -0.9118 -0.3554
 4686TIP3   OH214000   4.900   7.221   3.309  0.1864  0.1218  0.3205
 4686TIP3    H114001   4.893   7.162   3.234  0.0385  2.5663 -1.6536
 4686TIP3    H214002   4.992   7.215   3.335  0.4293 -0.1302 -0.5724
 4687TIP3   OH214003   4.438   6.102   1.468  0.3105  0.8607 -0.1775
 4687TIP3    H114004   4.484   6.022   1.494  0.8254  0.7988 -1.2533
 4687TIP3    H214005   4.360   6.104   1.523 -1.2072 -1.8993 -2.1300
 4688TIP3   OH214006   5.352   7.457   1.087  0.4805 -0.3922 -0.9031
 4688TIP3    H114007   5.290   7.385   1.070 -0.7163  0.7323 -1.3694
 4688TIP3    H214008   5.399   7.467   1.004  0.5505 -0.5418 -0.8819
 4689TIP3   OH214009   3.766   6.565   1.433  0.1997  0.0868  0.1310
 4689TIP3    H114010   3.681   6.522   1.435 -0.2775  0.9546 -1.1737
 4689TIP3    H214011   3.745   6.658   1.417  1.3419  0.4403  0.6354
 4690TIP3   OH214012   3.679   5.702   4.420  0.4950 -0.3328 -0.2056
 4690TIP3    H114013   3.614   5.756   4.464  1.0912 -0.5354  0.9505
 4690TIP3    H214014   3.637   5.674   4.339  0.4698  2.5997 -1.2869
 4691TIP3   OH214015   2.715   5.073   2.659  0.1563 -0.1240 -0.1038
 4691TIP3    H114016   2.665   5.031   2.729  0.2170  1.0756  0.6870
 4691TIP3    H214017   2.711   5.167   2.680 -1.1221  0.4130 -2.5398
 4692TIP3   OH214018   2.468   2.891   6.865 -0.5456  0.4395 -0.0364
 4692TIP3    H114019   2.497   2.859   6.780  0.9129  0.3826  0.4635
 4692TIP3    H214020   2.545   2.935   6.902 -0.3550 -1.7871  2.3573
 4693TIP3   OH214021   4.663   7.585   0.439  0.7863  0.7697 -0.6628
 4693TIP3    H114022   4.664   7.575   0.344  0.1584 -3.8343 -0.3372
 4693TIP3    H214023   4.573   7.567   0.465  1.1233  1.1693  0.8632
 4694TIP3   OH214024   7.818   0.605   1.460 -0.5070  0.2882  0.5523
 4694TIP3    H114025   7.871   0.682   1.478  1.0713 -0.6834  0.1556
 4694TIP3    H214026   7.827   0.590   1.366  0.0959 -1.0045  0.7963
 4695TIP3   OH214027   4.462   6.359   0.452  0.1418  0.2281 -0.2061
 4695TIP3    H114028   4.506   6.357   0.537 -0.5250 -2.5281  0.1213
 4695TIP3    H214029   4.533   6.355   0.389  0.5555  0.4706  0.2346
 4696TIP3   OH214030   1.691   2.063   6.843 -0.4001  0.2476  0.8743
 4696TIP3    H114031   1.711   1.973   6.815  1.8288  0.7759  0.6505
 4696TIP3    H214032   1.724   2.118   6.772  0.3509  1.3445  2.0484
 4697TIP3   OH214033   5.236   5.527   4.000  0.2406 -0.7674 -0.3208
 4697TIP3    H114034   5.187   5.552   3.922  1.0113 -2.5012 -1.3851
 4697TIP3    H214035   5.176   5.471   4.049 -0.5632  1.0230  0.8032
 4698TIP3   OH214036   0.721   4.985   4.145 -0.0728  0.0366  0.5543
 4698TIP3    H114037   0.794   4.985   4.083  0.3040  0.5805  0.9898
 4698TIP3    H214038   0.761   4.965   4.229 -0.4721  0.0483  0.7502
 4699TIP3   OH214039   5.923   6.909   4.528 -0.0593 -0.1215  0.4702
 4699TIP3    H114040   6.008   6.867   4.515  0.0665  0.4332 -0.5674
 4699TIP3    H214041   5.896   6.936   4.440 -0.8735  0.5396  0.9158
 4700TIP3   OH214042   4.295   7.211   3.988  0.0545  0.2237 -0.3797
 4700TIP3    H114043   4.282   7.209   3.893  0.9241 -0.9150 -0.4859
 4700TIP3    H214044   4.353   7.138   4.005  0.8608  1.1555  0.8967
 4701TIP3   OH214045   3.979   6.406   1.457  0.0765  0.0339 -0.0014
 4701TIP3    H114046   3.934   6.487   1.433  0.4462  0.2685  0.0993
 4701TIP3    H214047   3.913   6.355   1.504 -0.1504  0.2802 -0.0536
 4702TIP3   OH214048   3.133   6.219   1.587 -0.4471  0.1402  0.6361
 4702TIP3    H114049   3.048   6.175   1.592 -0.7632  0.8227  1.3659
 4702TIP3    H214050   3.196   6.152   1.614 -0.8117 -0.2026  0.6458
 4703TIP3   OH214051   4.237   6.114   3.950  0.0326  0.1240  0.2626
 4703TIP3    H114052   4.183   6.162   3.888  0.1699  0.5049  0.4335
 4703TIP3    H214053   4.279   6.045   3.899  0.1184  0.4154 -0.0574
 4704TIP3   OH214054   5.541   6.946   0.689  0.6034 -0.0125 -0.1084
 4704TIP3    H114055   5.606   6.895   0.641  0.7092 -0.6937  0.7301
 4704TIP3    H214056   5.593   6.999   0.750  0.3037 -2.4203  2.3440
 4705TIP3   OH214057   3.148   3.865   5.490  0.0529 -0.0708  0.1651
 4705TIP3    H114058   3.210   3.865   5.417  0.2158 -0.4368  0.3041
 4705TIP3    H214059   3.200   3.837   5.565 -0.6048 -1.8094 -0.0033
 4706TIP3   OH214060   6.562   6.440   4.564  0.1187 -0.2388  0.4129
 4706TIP3    H114061   6.595   6.500   4.630 -1.2708  0.1079  0.8152
 4706TIP3    H214062   6.480   6.407   4.601 -0.3219 -0.5659 -0.8393
 4707TIP3   OH214063   2.532   2.973   0.582 -0.2715  0.3547  0.9315
 4707TIP3    H114064   2.554   3.054   0.535 -0.4522  0.7152  1.4620
 4707TIP3    H214065   2.602   2.963   0.646 -0.4581  0.3070  1.1301
 4708TIP3   OH214066   2.701   6.537   2.011  0.3480 -0.3309  0.1100
 4708TIP3    H114067   2.787   6.537   1.968  0.1489  1.6171 -0.3587
 4708TIP3    H214068   2.702   6.616   2.065 -0.6065 -1.0687  1.2138
 4709TIP3   OH214069   0.987   3.614   3.274  0.1125  0.2191  0.2186
 4709TIP3    H114070   0.909   3.668   3.265  1.3662  1.9297 -0.6616
 4709TIP3    H214071   0.972   3.539   3.216 -1.7052 -0.5067  1.5852
 4710TIP3   OH214072   3.824   6.176   4.971  0.0034  0.1877  0.1546
 4710TIP3    H114073   3.860   6.100   5.015  0.0724  0.4457  0.5487
 4710TIP3    H214074   3.827   6.155   4.878  0.7653  0.0419  0.2173
 4711TIP3   OH214075   3.673   6.399   2.025 -0.4841  0.0830  0.4007
 4711TIP3    H114076   3.635   6.461   1.964  2.7662  1.3162 -0.4655
 4711TIP3    H214077   3.684   6.448   2.106  0.4058  0.1055  0.2689
 4712TIP3   OH214078   2.928   6.467   4.314  0.1536  0.0147 -0.3510
 4712TIP3    H114079   2.864   6.399   4.291 -0.4865  0.0625  1.1970
 4712TIP3    H214080   2.911   6.485   4.406  1.9398  0.5489 -0.1085
 4713TIP3   OH214081   1.437   3.174   6.303 -0.2388  0.3427  0.0657
 4713TIP3    H114082   1.386   3.253   6.317  0.6331  1.1728 -1.2735
 4713TIP3    H214083   1.372   3.106   6.286 -0.9435  1.0758 -0.1962
 4714TIP3   OH214084   0.906   3.942   2.688  0.2274 -0.0218  0.0731
 4714TIP3    H114085   0.955   4.014   2.648  0.6750 -0.4651 -0.1839
 4714TIP3    H214086   0.821   3.945   2.645  0.2318  0.3789  0.0888
 4715TIP3   OH214087   3.617   7.657   2.051 -0.4463 -0.0082  0.4168
 4715TIP3    H114088   3.664   7.709   2.116  0.6474 -0.1967 -0.2197
 4715TIP3    H214089   3.592   7.577   2.097  0.6803 -0.3221  0.4859
 4716TIP3   OH214090   2.885   6.570   1.599 -0.0549 -0.6676  0.6768
 4716TIP3    H114091   2.794   6.601   1.602  0.3525  0.5564  0.6096
 4716TIP3    H214092   2.925   6.604   1.679  0.3872 -1.0732  0.6276
 4717TIP3   OH214093   5.170   0.884   3.805  0.7923  0.3791  0.3756
 4717TIP3    H114094   5.253   0.853   3.841  0.6515 -0.4779 -0.0175
 4717TIP3    H214095   5.150   0.822   3.735  1.1832  2.1331 -1.3745
 4718TIP3   OH214096   5.892   7.042   1.486 -0.5012 -0.8052 -0.0407
 4718TIP3    H114097   5.857   6.987   1.556 -0.3251 -1.1714 -0.2415
 4718TIP3    H214098   5.838   7.121   1.488 -0.9887 -1.1423  0.0018
 4719TIP3   OH214099   6.467   5.533   3.579  0.4478 -0.3740  0.1854
 4719TIP3    H114100   6.502   5.508   3.494 -0.0516  0.9082 -0.4164
 4719TIP3    H214101   6.504   5.620   3.596 -1.0236  0.2426  0.3362
 4720TIP3   OH214102   2.407   6.789   3.034 -0.2125 -0.3193  0.3774
 4720TIP3    H114103   2.502   6.781   3.033 -0.3370 -2.1699  0.3562
 4720TIP3    H214104   2.380   6.761   2.946 -0.7757 -0.0161  0.4557
 4721TIP3   OH214105   3.532   5.557   2.226  0.3645 -0.2955 -0.0434
 4721TIP3    H114106   3.597   5.565   2.156  1.2156 -2.5310  0.4610
 4721TIP3    H214107   3.557   5.625   2.289  1.2792 -0.1311 -0.5718
 4722TIP3   OH214108   2.698   6.050   1.732 -0.1681  0.5306  0.0171
 4722TIP3    H114109   2.611   6.089   1.719  0.0759  1.1166  0.1268
 4722TIP3    H214110   2.684   5.984   1.800 -0.5777  0.4638 -0.1295
 4723TIP3   OH214111   5.571   5.239   3.486  0.3297  0.1470  0.0357
 4723TIP3    H114112   5.528   5.160   3.519 -0.4597  1.0222  1.1361
 4723TIP3    H214113   5.562   5.233   3.391 -1.9324  0.1206  0.2196
 4724TIP3   OH214114   5.450   7.446   1.465 -0.3216 -0.2660 -0.7199
 4724TIP3    H114115   5.396   7.387   1.412 -2.7347  1.0224  0.2400
 4724TIP3    H214116   5.410   7.532   1.454  1.7823  0.7986 -0.2787
 4725TIP3   OH214117   2.849   6.984   3.197  0.0398  0.2133  0.6132
 4725TIP3    H114118   2.840   7.061   3.140  0.0603 -1.1131 -1.2351
 4725TIP3    H214119   2.938   6.990   3.231  0.8277 -0.1528 -1.3192
 4726TIP3   OH214120   4.330   6.865   2.438  0.2630 -0.5326 -0.2301
 4726TIP3    H114121   4.255   6.925   2.442 -1.6874 -2.9796  1.2465
 4726TIP3    H214122   4.304   6.799   2.374  2.4290  0.1819 -1.9070
 4727TIP3   OH214123   2.084   5.528   1.516  0.0936 -0.0973  0.7303
 4727TIP3    H114124   2.070   5.434   1.525  1.0337 -0.2141  1.0470
 4727TIP3    H214125   2.021   5.568   1.577  1.3577 -0.6172  2.4301
 4728TIP3   OH214126   4.671   5.840   2.291 -0.1158  0.4224 -0.2509
 4728TIP3    H114127   4.691   5.831   2.385 -1.0185  1.6871  0.0777
 4728TIP3    H214128   4.578   5.818   2.285  0.5564 -2.4171 -1.3020
 4729TIP3   OH214129   2.940   6.607   1.879  0.5235 -0.0444 -0.1778
 4729TIP3    H114130   3.023   6.577   1.915  1.3387  1.6176 -0.6326
 4729TIP3    H214131   2.943   6.702   1.887 -0.7487  0.1245 -1.4742
 4730TIP3   OH214132   3.283   7.404   1.585  0.0158 -0.2178 -0.2409
 4730TIP3    H114133   3.373   7.382   1.559  0.4369  0.6656  0.3982
 4730TIP3    H214134   3.294   7.479   1.644 -1.1876  0.2975 -0.6535
 4731TIP3   OH214135   3.085   6.367   2.704  0.1008  0.6011  0.0147
 4731TIP3    H114136   3.023   6.382   2.633  0.4744 -0.2672 -0.4962
 4731TIP3    H214137   3.033   6.326   2.773  0.0719 -0.0075 -0.3641
 4732TIP3   OH214138   3.009   4.855   4.093  0.4197 -0.2170  0.0206
 4732TIP3    H114139   2.924   4.847   4.050  0.3719 -1.2278  0.2829
 4732TIP3    H214140   3.068   4.802   4.039  0.9645  0.7729 -0.3652
 4733TIP3   OH214141   5.289   6.519   1.790  0.5556  0.3573 -0.1551
 4733TIP3    H114142   5.290   6.439   1.843 -2.0296  0.5152  0.1847
 4733TIP3    H214143   5.377   6.523   1.751  1.7277 -0.9932  2.2501
 4734TIP3   OH214144   2.457   5.028   3.609  0.2068  0.4918  0.0051
 4734TIP3    H114145   2.436   4.968   3.680  1.3211  1.2271  0.9808
 4734TIP3    H214146   2.406   4.997   3.535  0.5214 -1.4521  0.5888
 4735TIP3   OH214147   4.502   7.019   4.019 -0.2256  0.5575 -0.2134
 4735TIP3    H114148   4.532   6.975   3.939 -0.6241  0.8417 -0.5235
 4735TIP3    H214149   4.563   7.091   4.032  0.2398  0.1016  0.1158
 4736TIP3   OH214150   2.258   6.306   2.389  0.3252  0.1107  0.3219
 4736TIP3    H114151   2.352   6.299   2.408  0.8726  0.0264 -2.2808
 4736TIP3    H214152   2.250   6.388   2.341 -0.8083 -0.3193 -0.2220
 4737TIP3   OH214153   5.014   7.622   5.649 -0.1655  0.0565 -0.1698
 4737TIP3    H114154   5.028   7.564   5.724  1.1062 -0.5540 -0.8707
 4737TIP3    H214155   5.091   7.678   5.647  0.7899 -1.2919 -2.2327
 4738TIP3   OH214156   2.346   6.398   1.808 -0.2088  0.1529  0.4013
 4738TIP3    H114157   2.405   6.329   1.837  0.6325  0.6164 -0.1893
 4738TIP3    H214158   2.300   6.361   1.733  0.1878  0.2142  0.1312
 4739TIP3   OH214159   4.358   6.995   1.423  0.0341 -0.3228 -0.1069
 4739TIP3    H114160   4.426   7.063   1.426 -0.2897  0.0449 -0.9383
 4739TIP3    H214161   4.285   7.036   1.378 -0.0760 -1.2978 -0.8399
 4740TIP3   OH214162   5.258   6.903   0.703 -0.2066  0.0007  0.8334
 4740TIP3    H114163   5.250   6.827   0.761  0.3551 -2.1255 -1.7560
 4740TIP3    H214164   5.352   6.916   0.693 -0.1935 -1.8886 -2.2734
 4741TIP3   OH214165   0.798   4.154   2.249  0.2906  0.5591  0.1803
 4741TIP3    H114166   0.805   4.247   2.228  0.8093  0.6093  0.5687
 4741TIP3    H214167   0.888   4.124   2.253  0.3220  0.8990  3.8781
 4742TIP3   OH214168   3.535   5.662   4.197 -0.0643 -0.2866  0.3893
 4742TIP3    H114169   3.545   5.756   4.184  2.3544 -0.3510  1.4353
 4742TIP3    H214170   3.520   5.627   4.109  0.3935  0.9314 -0.1791
 4743TIP3   OH214171   2.401   5.149   0.534  0.1267  0.3168  0.3085
 4743TIP3    H114172   2.316   5.169   0.493  0.7968  1.5351 -0.5345
 4743TIP3    H214173   2.402   5.054   0.542  0.1110 -0.0357 -2.9458
 4744TIP3   OH214174   2.260   6.361   4.298  0.0172  0.4190  0.3394
 4744TIP3    H114175   2.235   6.377   4.389  1.6459 -1.5428  1.1505
 4744TIP3    H214176   2.232   6.272   4.280  0.5349  0.4751 -0.8105
 4745TIP3   OH214177   2.274   4.956   4.029 -0.2471  0.0715 -0.5326
 4745TIP3    H114178   2.237   5.042   4.048  3.1902  1.7900 -1.2032
 4745TIP3    H214179   2.307   4.964   3.940  0.2623 -1.8969 -0.5289
 4746TIP3   OH214180   6.744   6.190   2.860 -0.5504  0.4866 -0.3439
 4746TIP3    H114181   6.776   6.268   2.817 -1.2681  0.6875 -0.5238
 4746TIP3    H214182   6.726   6.128   2.789 -2.3358  1.0406 -0.4096
 4747TIP3   OH214183   6.828   6.569   2.101 -0.1249  0.3236  0.7447
 4747TIP3    H114184   6.734   6.552   2.107  0.3943 -2.9949  0.6263
 4747TIP3    H214185   6.842   6.597   2.011 -0.4100 -4.0219 -0.7807
 4748TIP3   OH214186   5.252   7.969   1.064  0.0133  0.0774  0.5445
 4748TIP3    H114187   5.166   7.949   1.102 -1.0620  0.2121 -1.7823
 4748TIP3    H214188   5.287   7.884   1.038  0.3759  0.0840  0.9904
 4749TIP3   OH214189   3.719   5.698   2.040 -0.1606  0.0073 -0.2184
 4749TIP3    H114190   3.651   5.751   1.999 -1.9399 -1.1524  1.1623
 4749TIP3    H214191   3.727   5.733   2.129 -1.4495 -2.0937  0.7477
 4750TIP3   OH214192   4.803   7.300   1.359 -0.9499 -0.6542  0.3301
 4750TIP3    H114193   4.736   7.324   1.295 -0.9066  1.3604  1.0117
 4750TIP3    H214194   4.755   7.251   1.426 -1.4799 -0.5204  0.0572
 4751TIP3   OH214195   4.529   6.737   2.133  0.1441  0.0618 -0.4070
 4751TIP3    H114196   4.521   6.755   2.040 -1.9112 -1.1428 -0.4997
 4751TIP3    H214197   4.446   6.694   2.156  0.5855  0.4345  1.9836
 4752TIP3   OH214198   4.339   6.434   3.805 -0.1035  0.0985  0.3685
 4752TIP3    H114199   4.329   6.485   3.885 -0.9845 -0.3534  0.5573
 4752TIP3    H214200   4.339   6.498   3.735  0.0643  0.4521  0.6885
 4753TIP3   OH214201   0.755   4.358   5.896 -0.6489  0.0393  0.3689
 4753TIP3    H114202   0.830   4.299   5.905 -1.3051 -0.8781  0.0168
 4753TIP3    H214203   0.789   4.445   5.915  0.3632 -0.4518  0.8151
 4754TIP3   OH214204   6.368   4.883   2.628 -0.7075  0.1521  0.3957
 4754TIP3    H114205   6.343   4.975   2.638 -0.7700  0.1541  0.2335
 4754TIP3    H214206   6.387   4.853   2.717 -2.5379 -0.1971  0.7054
 4755TIP3   OH214207   7.598   7.098   2.104  0.3833 -0.2821 -0.1655
 4755TIP3    H114208   7.543   7.020   2.104  1.7967 -1.3111  0.0985
 4755TIP3    H214209   7.617   7.115   2.197 -1.6108  1.6468 -0.0557
 4756TIP3   OH214210   6.258   5.802   2.173 -0.4419 -0.4728  1.0304
 4756TIP3    H114211   6.255   5.730   2.111  3.8144 -0.6226  0.8307
 4756TIP3    H214212   6.252   5.761   2.259 -2.8653 -0.5678  0.8495
 4757TIP3   OH214213   6.977   6.822   1.659 -0.4230  0.3153 -0.4423
 4757TIP3    H114214   6.908   6.842   1.595 -0.3348 -0.2057 -0.6996
 4757TIP3    H214215   6.983   6.901   1.712 -0.7998  0.5917 -0.8035
 4758TIP3   OH214216   6.184   6.459   2.185 -0.1311 -0.2250  0.0137
 4758TIP3    H114217   6.267   6.411   2.184 -0.9913 -1.7628 -1.9316
 4758TIP3    H214218   6.119   6.393   2.210 -0.8478  0.8156  0.9209
 4759TIP3   OH214219   7.009   5.210   2.119 -0.8126  0.4135 -0.5063
 4759TIP3    H114220   6.976   5.274   2.056 -3.2591 -1.8591 -1.6641
 4759TIP3    H214221   6.930   5.178   2.164  0.2437 -2.2572 -0.4564
 4760TIP3   OH214222   4.553   5.139   2.797  0.1894 -0.0652 -0.6532
 4760TIP3    H114223   4.542   5.044   2.801 -1.8649  0.1194 -1.1638
 4760TIP3    H214224   4.488   5.173   2.858 -0.5548  1.0892 -2.0659
 4761TIP3   OH214225   5.510   6.690   1.714 -0.3157  0.2231  0.3247
 4761TIP3    H114226   5.457   6.717   1.789 -0.2346 -1.0428  0.8567
 4761TIP3    H214227   5.479   6.744   1.641 -0.3984  1.4651  1.2695
 4762TIP3   OH214228   7.124   4.518   2.029  0.6892 -0.3750  0.0539
 4762TIP3    H114229   7.157   4.605   2.053 -1.4675 -0.0776  2.0746
 4762TIP3    H214230   7.202   4.471   1.998  2.3867  1.4072  1.4696
 4763TIP3   OH214231   7.254   6.601   0.836 -0.7481  0.7528 -0.0216
 4763TIP3    H114232   7.346   6.597   0.862 -0.9402 -0.7331  0.4594
 4763TIP3    H214233   7.205   6.574   0.914 -1.4541 -1.2427 -1.1340
 4764TIP3   OH214234   5.689   0.719   1.373  0.0445  0.0455 -0.0029
 4764TIP3    H114235   5.686   0.641   1.429 -1.1280 -1.1194 -1.6081
 4764TIP3    H214236   5.600   0.727   1.339  1.1395 -0.4600 -3.1873
 4765TIP3   OH214237   7.587   6.183   0.503 -0.1257  0.3229 -0.3464
 4765TIP3    H114238   7.591   6.270   0.542 -0.3335 -0.0732  0.5866
 4765TIP3    H214239   7.677   6.150   0.510 -0.5169 -0.4333  1.4419
 4766TIP3   OH214240   0.360   6.363   1.262 -0.3918 -0.0508 -0.6356
 4766TIP3    H114241   0.270   6.395   1.267 -0.2945  0.1675 -0.1769
 4766TIP3    H214242   0.371   6.311   1.342  0.4917  1.5250  0.3125
 4767TIP3   OH214243   3.840   7.414   0.602  0.3443  1.0219  0.6030
 4767TIP3    H114244   3.838   7.492   0.657 -0.5219  1.3590  0.0990
 4767TIP3    H214245   3.840   7.341   0.663  0.9021  1.4155  1.0749
 4768TIP3   OH214246   4.068   6.828   1.242 -0.5699  0.4800 -0.0719
 4768TIP3    H114247   4.011   6.800   1.170 -1.2534  1.0517  0.2285
 4768TIP3    H214248   4.104   6.912   1.212 -0.4128  0.4415  0.0122
 4769TIP3   OH214249   0.127   3.414   6.617  0.0461  0.0495 -0.3274
 4769TIP3    H114250   0.040   3.451   6.631 -0.1572  0.0222 -1.4573
 4769TIP3    H214251   0.187   3.483   6.646 -0.3482  0.3148 -0.1343
 4770TIP3   OH214252   7.265   3.656   1.397 -0.1707 -0.1541  0.1260
 4770TIP3    H114253   7.312   3.732   1.432 -1.7552  0.2975  1.3015
 4770TIP3    H214254   7.232   3.686   1.312 -1.0756  0.5849  0.7341
 4771TIP3   OH214255   5.325   4.167   3.083  0.4261 -0.1106 -0.0630
 4771TIP3    H114256   5.279   4.085   3.098 -0.4229  0.2493 -0.6653
 4771TIP3    H214257   5.286   4.203   3.003  2.4452 -0.2849 -1.1693
 4772TIP3   OH214258   6.071   6.626   1.627 -0.1130 -0.0104 -0.0083
 4772TIP3    H114259   6.078   6.531   1.640  0.4733 -0.0441 -0.5747
 4772TIP3    H214260   6.111   6.664   1.704  1.2156 -0.2219 -0.5795
 4773TIP3   OH214261   5.945   6.409   0.831  0.2043  0.7854  0.1257
 4773TIP3    H114262   6.025   6.358   0.820  0.6376  1.5197 -0.1591
 4773TIP3    H214263   5.876   6.343   0.840  0.9799  0.1318  1.5214
 4774TIP3   OH214264   7.442   5.532   1.882  0.2044 -0.0459  0.0154
 4774TIP3    H114265   7.486   5.617   1.879  0.9325 -0.3809  0.8838
 4774TIP3    H214266   7.500   5.477   1.936  0.2035 -1.3509 -1.2852
 4775TIP3   OH214267   1.885   2.781   6.693 -0.6294 -0.5482 -0.0010
 4775TIP3    H114268   1.817   2.713   6.702  0.3444 -1.4706  0.5737
 4775TIP3    H214269   1.955   2.751   6.751 -0.5438  1.4366  0.9622
 4776TIP3   OH214270   2.881   3.049   5.767  0.4199 -0.1215  0.3478
 4776TIP3    H114271   2.879   3.096   5.850 -0.4927 -0.0793  0.3054
 4776TIP3    H214272   2.903   3.116   5.702 -1.5692  0.4207  0.1873
 4777TIP3   OH214273   6.048   6.830   2.733 -0.1034 -0.6996 -0.0080
 4777TIP3    H114274   5.958   6.799   2.736 -0.2048 -0.3544  0.4646
 4777TIP3    H214275   6.061   6.857   2.642 -0.3962 -0.9784 -0.1335
 4778TIP3   OH214276   4.755   6.513   0.870 -0.3911  0.0874  0.6368
 4778TIP3    H114277   4.724   6.427   0.897  2.1307  0.0042  3.5272
 4778TIP3    H214278   4.825   6.534   0.932  1.1743  2.8559 -1.9337
 4779TIP3   OH214279   6.476   6.357   3.652  0.0956  0.2495  0.4724
 4779TIP3    H114280   6.532   6.292   3.609  1.2990  0.5310  1.6152
 4779TIP3    H214281   6.456   6.421   3.583  0.6356 -0.1964 -0.0972
 4780TIP3   OH214282   4.304   7.093   0.973  0.2593  0.6522 -0.3876
 4780TIP3    H114283   4.366   7.145   0.922 -1.2776  2.9183 -0.0112
 4780TIP3    H214284   4.353   7.065   1.050  1.6226 -0.0203 -1.4607
 4781TIP3   OH214285   7.319   1.667   1.712 -0.1097  0.4624  0.5536
 4781TIP3    H114286   7.275   1.645   1.794 -1.2429 -0.8884 -0.3830
 4781TIP3    H214287   7.387   1.730   1.737 -0.7409  0.4274  2.4447
 4782TIP3   OH214288   6.853   5.772   2.010  0.0883 -0.2763  0.1351
 4782TIP3    H114289   6.830   5.716   1.936 -0.8273 -0.0276  0.2238
 4782TIP3    H214290   6.945   5.793   1.997  0.8207 -2.8940  0.8226
 4783TIP3   OH214291   7.346   7.350   2.123  0.1719  0.7582  0.1561
 4783TIP3    H114292   7.362   7.344   2.217  1.9388  1.4101 -0.0845
 4783TIP3    H214293   7.393   7.276   2.085  0.9557  1.5256 -0.3824
 4784TIP3   OH214294   7.574   0.411   1.621  0.5876 -0.2811  0.1776
 4784TIP3    H114295   7.596   0.487   1.567  0.3627  0.0767  0.5861
 4784TIP3    H214296   7.608   0.433   1.708 -0.9093  0.0388  0.6867
 4785TIP3   OH214297   5.783   6.131   2.559 -0.4901  0.1047  0.5365
 4785TIP3    H114298   5.714   6.133   2.626 -0.7574  0.9454  0.2411
 4785TIP3    H214299   5.816   6.221   2.557  0.4688 -0.2510  0.5266
 4786TIP3   OH214300   3.738   6.928   1.292  0.1931  0.5010 -0.0972
 4786TIP3    H114301   3.752   6.911   1.199  1.3273 -1.3061  0.3805
 4786TIP3    H214302   3.758   7.020   1.304  0.1754  0.7019 -1.6275
 4787TIP3   OH214303   3.974   7.610   1.381 -0.0613  0.9362 -0.0234
 4787TIP3    H114304   3.944   7.701   1.391 -1.9665  0.3034  0.1908
 4787TIP3    H214305   4.015   7.589   1.464  0.2664  1.5437 -0.0243
 4788TIP3   OH214306   1.159   5.081   5.625  0.2922  0.1834 -0.3266
 4788TIP3    H114307   1.231   5.027   5.656  2.0683  2.4072 -0.4302
 4788TIP3    H214308   1.134   5.043   5.541  0.5225 -1.3073  0.2612
 4789TIP3   OH214309   5.340   3.300   1.201 -0.2208  0.1638 -0.4258
 4789TIP3    H114310   5.331   3.368   1.134  0.6670  0.1917 -0.5137
 4789TIP3    H214311   5.406   3.335   1.261  2.3305 -1.8591 -1.9912
 4790TIP3   OH214312   3.228   5.461   3.342 -0.3494  0.2443 -0.3017
 4790TIP3    H114313   3.134   5.442   3.335 -0.0445 -1.3298 -0.3699
 4790TIP3    H214314   3.242   5.476   3.436 -0.7447  0.9855 -0.3520
 4791TIP3   OH214315   5.822   4.885   2.637  0.1415 -0.2539 -0.3911
 4791TIP3    H114316   5.885   4.951   2.665  1.1480 -1.3671  0.0325
 4791TIP3    H214317   5.875   4.816   2.598 -0.6740 -1.8281  1.2079
 4792TIP3   OH214318   4.356   6.978   2.731  0.2317 -0.1473 -0.1999
 4792TIP3    H114319   4.262   6.993   2.720 -0.0020 -1.5325 -0.1831
 4792TIP3    H214320   4.383   6.938   2.648  0.9063  0.6843 -0.3889
 4793TIP3   OH214321   7.497   6.672   3.011  0.2906  0.0675 -0.5529
 4793TIP3    H114322   7.468   6.764   3.011 -0.5461 -0.1700 -2.0812
 4793TIP3    H214323   7.563   6.668   3.080  1.7388  2.2773 -1.7222
 4794TIP3   OH214324   1.287   2.688   5.740 -0.4162 -0.1207 -0.5835
 4794TIP3    H114325   1.288   2.780   5.715 -0.4194 -0.3977 -1.6315
 4794TIP3    H214326   1.330   2.643   5.667  1.0598 -0.7709  0.6592
 4795TIP3   OH214327   4.680   5.722   1.044  0.2162  0.1449  0.0211
 4795TIP3    H114328   4.624   5.649   1.016  0.1832 -0.1990  0.9722
 4795TIP3    H214329   4.755   5.718   0.984  0.5164 -1.0576  0.4530
 4796TIP3   OH214330   1.678   3.186   6.189  0.4386  0.2178  0.0834
 4796TIP3    H114331   1.582   3.187   6.196  0.2045  0.1102 -2.6642
 4796TIP3    H214332   1.696   3.126   6.117  2.5974  0.2161  0.5915
 4797TIP3   OH214333   6.007   7.595   1.089  0.3545  0.4504  0.3024
 4797TIP3    H114334   6.048   7.592   1.176 -0.6821  1.3428  0.8279
 4797TIP3    H214335   6.079   7.578   1.028  0.6949 -2.3831  1.4270
 4798TIP3   OH214336   6.773   6.814   0.576 -0.3267  0.0887 -1.0137
 4798TIP3    H114337   6.723   6.890   0.605  0.5305  0.1029  0.4880
 4798TIP3    H214338   6.854   6.851   0.541 -0.6434 -0.0392 -1.9072
 4799TIP3   OH214339   6.497   7.776   2.665 -0.0070  0.4378  0.5556
 4799TIP3    H114340   6.490   7.870   2.680  1.3314  0.5933  0.3250
 4799TIP3    H214341   6.498   7.737   2.752  0.1795  0.7082  0.6755
 4800TIP3   OH214342   5.367   6.621   3.114 -0.7952  0.1804  0.2257
 4800TIP3    H114343   5.311   6.679   3.061  0.0946  0.1947 -0.7185
 4800TIP3    H214344   5.431   6.679   3.154 -2.2247  0.3306  2.3444
 4801TIP3   OH214345   3.701   4.137   2.156 -0.3431 -0.3833  0.4760
 4801TIP3    H114346   3.750   4.066   2.115 -0.5690  0.0765 -0.6234
 4801TIP3    H214347   3.616   4.099   2.178 -0.1483 -0.6864  0.7043
 4802TIP3   OH214348   7.126   4.804   2.911  0.1223  0.0755 -0.3753
 4802TIP3    H114349   7.090   4.803   2.822  0.7238  0.4089 -0.6227
 4802TIP3    H214350   7.171   4.720   2.920  0.2225  0.1204 -0.4541
 4803TIP3   OH214351   6.576   5.607   2.769  0.1241 -0.0001 -0.0285
 4803TIP3    H114352   6.631   5.595   2.846  0.2158 -1.2498 -0.2847
 4803TIP3    H214353   6.510   5.671   2.796  1.8881  1.7835  0.1820
 4804TIP3   OH214354   6.059   6.164   0.240  0.6986  0.4918  0.2190
 4804TIP3    H114355   6.019   6.251   0.244 -0.6334 -0.0772 -0.3081
 4804TIP3    H214356   6.082   6.144   0.331 -1.9299  0.0799  0.8343
 4805TIP3   OH214357   2.244   1.531   6.525  0.1881 -0.5175  0.1337
 4805TIP3    H114358   2.309   1.495   6.586 -0.1000 -1.9045 -0.3587
 4805TIP3    H214359   2.293   1.547   6.444 -0.0674 -1.4818 -0.2101
 4806TIP3   OH214360   7.869   6.414   2.553 -0.2129  0.0622  0.4878
 4806TIP3    H114361   7.857   6.505   2.581 -0.9068 -0.6067  2.4105
 4806TIP3    H214362   7.855   6.362   2.632 -1.5424 -1.8533 -0.9749
 4807TIP3   OH214363   4.528   4.819   0.559 -0.1260 -0.5646  0.2309
 4807TIP3    H114364   4.617   4.853   0.569  0.2343 -2.1810  2.7591
 4807TIP3    H214365   4.539   4.734   0.517 -0.3789 -1.2056  1.4371
 4808TIP3   OH214366   7.669   5.256   1.856 -0.0040 -0.3544 -0.6347
 4808TIP3    H114367   7.746   5.272   1.802 -0.1483 -0.2164 -0.8003
 4808TIP3    H214368   7.683   5.308   1.935 -0.2825  0.2746 -0.9963
 4809TIP3   OH214369   6.638   4.840   1.931 -0.0623 -0.5081 -0.0912
 4809TIP3    H114370   6.694   4.772   1.966 -0.1703 -1.1909 -1.2200
 4809TIP3    H214371   6.697   4.900   1.886 -0.0427 -0.2505  0.2787
 4810TIP3   OH214372   3.286   5.523   1.899  0.6261 -0.0507 -0.0747
 4810TIP3    H114373   3.220   5.523   1.969 -0.6917  0.7690 -1.2729
 4810TIP3    H214374   3.253   5.588   1.836 -0.1133 -3.2592 -3.1699
 4811TIP3   OH214375   6.185   5.722   2.438 -0.2194 -0.0329  0.6722
 4811TIP3    H114376   6.118   5.655   2.450 -0.1460 -0.2555 -0.1286
 4811TIP3    H214377   6.262   5.687   2.481 -0.9924  0.8521  2.8691
 4812TIP3   OH214378   5.852   5.743   2.136  0.1933 -0.1538  0.4340
 4812TIP3    H114379   5.887   5.813   2.082  2.4406 -1.2220  0.4273
 4812TIP3    H214380   5.839   5.782   2.222 -0.6255  0.7981 -0.1153
 4813TIP3   OH214381   4.904   6.089   1.550  0.3885  0.5928 -0.4925
 4813TIP3    H114382   4.947   6.064   1.468  1.7644 -0.5729  0.5796
 4813TIP3    H214383   4.968   6.071   1.618 -0.7379  1.5728  0.8713
 4814TIP3   OH214384   3.637   5.426   3.221 -0.0497 -0.4462  0.0239
 4814TIP3    H114385   3.620   5.352   3.279  0.4990 -0.0510  0.6902
 4814TIP3    H214386   3.564   5.487   3.237 -1.1165 -1.3438 -1.3549
 4815TIP3   OH214387   6.286   6.588   0.943  0.3236  0.0481  0.0373
 4815TIP3    H114388   6.296   6.495   0.926  0.7345  0.2372 -0.7664
 4815TIP3    H214389   6.306   6.631   0.860 -0.5863  0.8166  0.2032
 4816TIP3   OH214390   5.893   4.665   1.294 -0.4685  0.8891  1.0454
 4816TIP3    H114391   5.917   4.751   1.257 -0.1597  0.3706  0.0104
 4816TIP3    H214392   5.811   4.642   1.251 -0.5035  0.6251  1.2531
 4817TIP3   OH214393   1.244   2.132   6.289  0.1268 -0.4372  0.1552
 4817TIP3    H114394   1.211   2.046   6.314  1.3739 -0.4480  1.8671
 4817TIP3    H214395   1.239   2.184   6.369  0.1495  0.8432 -0.6597
 4818TIP3   OH214396   4.164   4.151   1.078 -0.0854 -0.0061  0.7549
 4818TIP3    H114397   4.219   4.112   1.146  0.2087  0.2330  0.6568
 4818TIP3    H214398   4.114   4.219   1.123  1.0601  1.0384  0.4857
 4819TIP3   OH214399   6.688   4.715   2.703 -0.4420  0.1258  0.7545
 4819TIP3    H114400   6.707   4.781   2.636  0.7326 -1.5597 -0.6180
 4819TIP3    H214401   6.676   4.766   2.783  2.6615  1.9049  0.1932
 4820TIP3   OH214402   4.688   7.932   1.137  0.3452 -0.5556  0.1183
 4820TIP3    H114403   4.716   8.021   1.159  2.2293 -0.6204 -1.7941
 4820TIP3    H214404   4.611   7.944   1.082  0.0197 -0.1460  0.6636
 4821TIP3   OH214405   2.754   2.109   6.498 -0.0170  0.0463 -0.5035
 4821TIP3    H114406   2.714   2.196   6.491 -0.4322 -0.2820 -2.6886
 4821TIP3    H214407   2.797   2.109   6.583 -0.6386  2.1285 -0.1593
 4822TIP3   OH214408   4.813   6.703   2.852  0.1817  0.2237  0.2047
 4822TIP3    H114409   4.837   6.751   2.773 -2.2121 -0.4088 -0.9155
 4822TIP3    H214410   4.758   6.763   2.901 -0.9967 -0.5535 -0.1510
 4823TIP3   OH214411   8.321   5.262   2.145  0.1142  0.6666 -0.2625
 4823TIP3    H114412   8.302   5.169   2.133  2.9721  0.1288 -0.8972
 4823TIP3    H214413   8.363   5.289   2.064 -1.7581  2.8606 -0.5800
 4824TIP3   OH214414   5.148   6.497   2.750  0.5677 -0.5238 -0.6444
 4824TIP3    H114415   5.065   6.457   2.725  0.9277 -0.7388 -1.4907
 4824TIP3    H214416   5.188   6.524   2.667  1.7528 -1.2355 -0.2987
 4825TIP3   OH214417   3.044   6.776   2.208 -0.2669  0.5395  0.6675
 4825TIP3    H114418   3.034   6.755   2.301 -2.0667 -2.2824 -0.1014
 4825TIP3    H214419   2.955   6.794   2.178  0.3715  1.9973 -0.4135
 4826TIP3   OH214420   5.062   6.935   0.061  0.3979 -0.3160 -0.9480
 4826TIP3    H114421   5.122   6.879   0.011  0.2418  0.3254 -1.8440
 4826TIP3    H214422   5.065   7.019   0.017 -0.7461 -0.1190 -0.6535
 4827TIP3   OH214423   4.790   5.642   1.385 -0.4011 -0.0433 -0.1185
 4827TIP3    H114424   4.754   5.591   1.458 -0.2811 -0.6243 -0.4615
 4827TIP3    H214425   4.716   5.694   1.354 -0.7849 -0.7360 -0.3861
 4828TIP3   OH214426   5.009   6.453   3.522  0.0894  0.4459 -0.3206
 4828TIP3    H114427   5.020   6.548   3.515 -2.1437  0.6277 -1.7459
 4828TIP3    H214428   5.003   6.423   3.431 -0.6533 -0.8813  0.1518
 4829TIP3   OH214429   1.179   0.270   1.247  0.6936 -0.3795  0.4083
 4829TIP3    H114430   1.137   0.277   1.333 -1.3882 -1.4241 -0.4718
 4829TIP3    H214431   1.169   0.178   1.224 -1.2971  0.4330 -2.1702
 4830TIP3   OH214432   3.522   3.354   6.768 -0.4153 -0.0779 -0.0206
 4830TIP3    H114433   3.518   3.329   6.675  0.0380 -0.6621  0.1091
 4830TIP3    H214434   3.615   3.346   6.790 -0.4768  0.3733  0.4007
 4831TIP3   OH214435   5.437   6.403   1.356 -0.1904  0.2511  0.1337
 4831TIP3    H114436   5.514   6.369   1.403 -0.5776 -1.7175 -0.6589
 4831TIP3    H214437   5.369   6.409   1.423 -0.7909 -2.7158 -0.1602
 4832TIP3   OH214438   6.115   6.457   4.093 -0.0186 -0.1397  0.1628
 4832TIP3    H114439   6.052   6.441   4.163  1.7718  0.4527  1.9570
 4832TIP3    H214440   6.110   6.551   4.077 -0.3626 -0.2609 -0.4404
 4833TIP3   OH214441   6.571   6.913   2.320  0.1940 -0.0017 -0.0405
 4833TIP3    H114442   6.665   6.899   2.311  0.5268  1.0143  1.5813
 4833TIP3    H214443   6.541   6.838   2.371  0.1327 -0.3011 -0.5158
 4834TIP3   OH214444   4.707   5.341   0.025 -0.5553 -0.1905  0.0771
 4834TIP3    H114445   4.616   5.356  -0.000 -0.4253 -1.6302 -1.3318
 4834TIP3    H214446   4.750   5.425   0.011 -1.3846  0.1412 -0.5426
 4835TIP3   OH214447   5.748   3.696   2.659 -0.0949 -0.2868  0.2975
 4835TIP3    H114448   5.661   3.669   2.628 -0.0162 -0.6898  0.4324
 4835TIP3    H214449   5.758   3.785   2.625  0.0699 -0.7923 -1.0060
 4836TIP3   OH214450   4.994   7.696   0.526 -0.4074  0.2824  0.3305
 4836TIP3    H114451   4.922   7.702   0.589  0.1296 -0.9539  1.0777
 4836TIP3    H214452   4.993   7.605   0.497  0.5730  0.3653  0.0245
 4837TIP3   OH214453   2.948   3.364   6.818 -0.2487  0.0419 -0.5169
 4837TIP3    H114454   3.007   3.393   6.887  0.6047 -2.1202 -0.3144
 4837TIP3    H214455   2.861   3.379   6.853  0.1622 -1.7318  1.3622
 4838TIP3   OH214456   4.759   5.079   1.645 -0.0979 -0.9545  0.2837
 4838TIP3    H114457   4.828   5.115   1.701  0.4392 -1.6690  0.0869
 4838TIP3    H214458   4.759   4.985   1.665 -1.4558 -0.8684  0.7725
 4839TIP3   OH214459   3.858   6.318   0.053 -0.0400 -0.4471  0.0259
 4839TIP3    H114460   3.800   6.246   0.026  1.1773 -1.9992  1.4509
 4839TIP3    H214461   3.800   6.381   0.095 -1.1154 -0.6276 -1.1574
 4840TIP3   OH214462   3.659   6.044   2.681  0.0971  0.2268  0.7002
 4840TIP3    H114463   3.597   5.972   2.683  0.9153 -0.6159 -2.2571
 4840TIP3    H214464   3.613   6.115   2.637  0.3714  0.4537  0.7763
 4841TIP3   OH214465   7.437   6.337   1.466 -0.3576 -0.1802 -0.2893
 4841TIP3    H114466   7.344   6.320   1.478 -0.6039  0.8799 -0.5924
 4841TIP3    H214467   7.459   6.396   1.538  0.0891 -0.4678 -0.1909
 4842TIP3   OH214468   5.382   7.689   2.427  0.2406  0.1258  0.2568
 4842TIP3    H114469   5.464   7.737   2.440 -0.0059  0.6850 -0.2664
 4842TIP3    H214470   5.370   7.686   2.332  0.1143 -0.7351  0.2976
 4843TIP3   OH214471   6.333   6.228   1.508 -0.1386  0.2949 -0.0358
 4843TIP3    H114472   6.410   6.192   1.550 -0.5039 -0.8715 -0.3550
 4843TIP3    H214473   6.348   6.323   1.508  1.9164 -0.0174 -1.3644
 4844TIP3   OH214474   7.223   6.100   2.694  0.2811  0.2055 -0.4868
 4844TIP3    H114475   7.288   6.151   2.742 -0.6635  1.2294 -0.2650
 4844TIP3    H214476   7.273   6.030   2.652  1.6953  1.6897 -1.3291
 4845TIP3   OH214477   5.046   4.119   6.589  0.1337 -0.5487  0.1176
 4845TIP3    H114478   5.009   4.183   6.529 -1.0196 -0.0737  1.3065
 4845TIP3    H214479   5.051   4.164   6.673 -0.3023 -1.8776  0.8792
 4846TIP3   OH214480   6.800   7.522   1.211  0.4637  0.4144 -0.1666
 4846TIP3    H114481   6.857   7.446   1.201 -0.0239  0.1300 -0.9019
 4846TIP3    H214482   6.769   7.517   1.302  0.8249  0.0126 -0.0638
 4847TIP3   OH214483   6.363   6.814   2.753 -0.9278  1.0131 -0.3786
 4847TIP3    H114484   6.269   6.825   2.740 -0.8556  0.5504 -1.3503
 4847TIP3    H214485   6.386   6.879   2.820 -1.8605  1.4164 -0.4442
 4848TIP3   OH214486   4.493   7.599   3.085  0.0052  0.4598  0.5910
 4848TIP3    H114487   4.462   7.635   3.169  1.1749 -2.0245  2.1481
 4848TIP3    H214488   4.413   7.578   3.037 -0.6977 -0.2457  2.0480
 4849TIP3   OH214489   2.884   7.326   1.657 -0.1761 -0.1074 -0.0698
 4849TIP3    H114490   2.849   7.392   1.597 -0.9572  0.3379  0.8672
 4849TIP3    H214491   2.974   7.353   1.673 -0.7846  1.2974  1.0817
 4850TIP3   OH214492   5.122   6.811   1.488 -0.5794  0.0705 -0.0967
 4850TIP3    H114493   5.069   6.733   1.500 -2.0421  0.9591 -0.6732
 4850TIP3    H214494   5.061   6.884   1.497  0.6669  1.1457 -0.0739
 4851TIP3   OH214495   2.156   3.233   6.574 -0.2157 -0.1112  0.0655
 4851TIP3    H114496   2.159   3.144   6.609  0.4469  0.4470  1.4512
 4851TIP3    H214497   2.067   3.263   6.593  0.2302  0.2885  1.5221
 4852TIP3   OH214498   4.857   5.847   1.907 -0.3966 -0.3054  0.4472
 4852TIP3    H114499   4.878   5.812   1.821 -0.3220 -0.8724  0.6921
 4852TIP3    H214500   4.941   5.871   1.945 -0.4628  0.2813  0.2174
 4853TIP3   OH214501   6.739   4.190   2.398 -0.4560 -0.3337 -0.1016
 4853TIP3    H114502   6.669   4.255   2.403 -0.4304 -0.2828 -0.3738
 4853TIP3    H214503   6.810   4.227   2.450 -0.5129 -0.2300 -0.0964
 4854TIP3   OH214504   5.791   6.897   2.156  0.0395 -0.0482 -0.8445
 4854TIP3    H114505   5.844   6.825   2.192 -0.0480 -0.1539 -0.9312
 4854TIP3    H214506   5.745   6.932   2.232  1.3728  1.0086 -0.4918
 4855TIP3   OH214507   5.329   7.053   2.668  0.0235  0.2461 -0.5973
 4855TIP3    H114508   5.315   7.085   2.757 -0.3385  0.8009 -0.8517
 4855TIP3    H214509   5.247   7.010   2.644  0.2063 -0.1213 -0.5763
 4856TIP3   OH214510   6.537   6.247   3.285 -0.1110 -0.3285 -0.7066
 4856TIP3    H114511   6.596   6.310   3.244 -0.8249 -0.2903 -1.6773
 4856TIP3    H214512   6.454   6.258   3.239 -0.7798 -0.6276  0.4196
 4857TIP3   OH214513   4.937   4.307   3.003  0.6179 -0.1199  0.0413
 4857TIP3    H114514   5.030   4.328   3.012  0.8657 -1.5105  1.0087
 4857TIP3    H214515   4.892   4.373   3.055  1.0661  0.5341 -0.3980
 4858TIP3   OH214516   5.323   5.425   0.088 -0.1853 -0.4112  0.6606
 4858TIP3    H114517   5.344   5.332   0.100 -3.0497 -1.3620 -1.2906
 4858TIP3    H214518   5.269   5.447   0.164  0.5082 -0.3138  1.1330
 4859TIP3   OH214519   4.515   5.567   0.925  0.2886 -0.2687  0.1418
 4859TIP3    H114520   4.525   5.542   0.833  1.2342 -1.4329  0.5480
 4859TIP3    H214521   4.445   5.510   0.958  1.4332 -1.3968  0.6856
 4860TIP3   OH214522   7.415   4.859   1.639 -0.2994  0.3093 -0.5973
 4860TIP3    H114523   7.321   4.854   1.627 -0.4762 -0.3991  0.9358
 4860TIP3    H214524   7.452   4.810   1.565 -1.1562 -0.2437 -0.6592
 4861TIP3   OH214525   4.031   4.536   3.179  0.0218 -0.0266 -0.3048
 4861TIP3    H114526   3.977   4.527   3.257  2.3418  2.3301  1.6400
 4861TIP3    H214527   3.973   4.575   3.114 -1.7772 -1.5172  0.3564
 4862TIP3   OH214528   6.196   0.161   1.434  0.3582  0.1232  0.8241
 4862TIP3    H114529   6.217   0.221   1.361 -0.4272 -0.2074  0.3213
 4862TIP3    H214530   6.264   0.094   1.430  1.1939  0.9343  1.3349
 4863TIP3   OH214531   4.805   5.807   0.550 -0.1362  0.0838  0.2731
 4863TIP3    H114532   4.750   5.770   0.480  1.5998  0.1746 -1.1649
 4863TIP3    H214533   4.853   5.878   0.507  1.7742 -0.5746  1.2691
 4864TIP3   OH214534   5.828   5.608   1.052  0.5989 -0.4662 -0.0835
 4864TIP3    H114535   5.903   5.666   1.042  0.5442 -0.2538  0.7165
 4864TIP3    H214536   5.763   5.642   0.990  0.8086 -0.0781 -0.0927
 4865TIP3   OH214537   6.941   1.359   2.811  0.0449  0.0485 -0.2932
 4865TIP3    H114538   6.954   1.454   2.813 -2.6406  0.3998  1.6616
 4865TIP3    H214539   6.867   1.346   2.751 -0.4117 -0.7102  0.4318
 4866TIP3   OH214540   0.797   2.815   6.570  0.1631  0.0482 -0.4720
 4866TIP3    H114541   0.773   2.783   6.483  1.0128  0.0969 -0.7363
 4866TIP3    H214542   0.885   2.852   6.557 -0.3457  1.4442  0.0806
 4867TIP3   OH214543   6.901   0.462   2.138 -0.0032 -0.0307  0.1185
 4867TIP3    H114544   6.829   0.504   2.185  1.4781  1.3015  1.2487
 4867TIP3    H214545   6.952   0.420   2.207 -0.5159 -2.2953 -0.8280
 4868TIP3   OH214546   4.482   7.200   1.701  0.0061  0.0723 -0.1429
 4868TIP3    H114547   4.426   7.276   1.716 -0.1050 -0.3581  1.7098
 4868TIP3    H214548   4.436   7.127   1.742 -0.2724 -1.1867 -2.5970
 4869TIP3   OH214549   4.026   3.142   5.586 -0.2904  0.2016  0.3320
 4869TIP3    H114550   4.067   3.217   5.628 -1.1328 -0.2005  1.9412
 4869TIP3    H214551   3.953   3.178   5.536 -0.0926  0.5594  0.3041
 4870TIP3   OH214552   5.525   7.039   2.013  0.2253 -0.3329  0.3921
 4870TIP3    H114553   5.588   7.067   1.947 -0.3177  0.1535  0.0703
 4870TIP3    H214554   5.490   6.956   1.980  0.1086 -0.1953  0.1668
 4871TIP3   OH214555   3.848   6.702   2.776  0.2856 -0.2363  0.0912
 4871TIP3    H114556   3.887   6.737   2.697  1.2124 -0.3224  0.5030
 4871TIP3    H214557   3.797   6.626   2.747 -2.1273  1.6857 -0.8712
 4872TIP3   OH214558   5.149   6.579   0.700 -0.0076  0.3367 -0.0259
 4872TIP3    H114559   5.098   6.659   0.699 -0.9974 -0.2644  1.0558
 4872TIP3    H214560   5.089   6.512   0.665 -0.1680 -0.4763  1.7462
 4873TIP3   OH214561   3.875   7.279   1.730 -0.4516  0.5642  0.0306
 4873TIP3    H114562   3.955   7.229   1.711 -0.4951  0.2051  0.7525
 4873TIP3    H214563   3.807   7.237   1.679 -0.1601  0.9241 -0.6555
 4874TIP3   OH214564   6.763   5.884   2.744  0.1996 -0.0441  0.4309
 4874TIP3    H114565   6.697   5.819   2.771  0.6812 -0.7637 -0.1323
 4874TIP3    H214566   6.746   5.898   2.651  0.6989 -0.0524  0.3400
 4875TIP3   OH214567   7.638   0.418   1.871  0.6734  0.1452  0.4029
 4875TIP3    H114568   7.681   0.504   1.868  0.9431 -0.0032  0.0213
 4875TIP3    H214569   7.583   0.422   1.949  3.3467 -0.5718  2.4314
 4876TIP3   OH214570   4.042   5.937   1.025 -0.3773  0.3749 -0.8134
 4876TIP3    H114571   4.062   6.028   1.002 -0.7059  0.5229 -0.4978
 4876TIP3    H214572   3.970   5.942   1.087  0.1375 -0.0597 -0.1656
 4877TIP3   OH214573   3.321   6.134   1.353 -0.0836 -0.0970  0.0619
 4877TIP3    H114574   3.366   6.068   1.300  0.0836 -0.2915  0.4451
 4877TIP3    H214575   3.243   6.090   1.387 -0.2098  0.0384 -0.0503
 4878TIP3   OH214576   6.113   4.832   0.215 -0.2720  0.2845 -0.7383
 4878TIP3    H114577   6.129   4.781   0.295 -1.3110 -2.5738 -2.2844
 4878TIP3    H214578   6.199   4.839   0.173  0.1108  1.0037  0.1458
 4879TIP3   OH214579   6.920   6.628   1.844  0.3498  0.6911  0.1489
 4879TIP3    H114580   6.970   6.676   1.778  0.2535 -0.4899 -0.7981
 4879TIP3    H214581   6.880   6.555   1.796  0.1940 -0.1258  1.4880
 4880TIP3   OH214582   6.759   6.862   0.275  0.3257  0.3546 -0.5518
 4880TIP3    H114583   6.784   6.935   0.330 -1.0824 -0.7024  1.5373
 4880TIP3    H214584   6.695   6.899   0.213 -0.5270  0.8583  0.6158
 4881TIP3   OH214585   6.124   6.852   1.976 -0.3340  0.0241 -1.0379
 4881TIP3    H114586   6.110   6.769   1.930  0.1780  0.7159 -2.4900
 4881TIP3    H214587   6.107   6.918   1.909  1.3613  1.0454 -0.4716
 4882TIP3   OH214588   6.269   4.732   3.802  0.1076  0.1805  0.0306
 4882TIP3    H114589   6.296   4.654   3.754  0.4785  0.5252 -0.3211
 4882TIP3    H214590   6.234   4.698   3.885  0.5349 -0.3395 -0.0015
 4883TIP3   OH214591   5.274   6.129   3.486 -0.3479  0.4564  0.1796
 4883TIP3    H114592   5.323   6.150   3.406 -0.4163 -0.1250 -0.0200
 4883TIP3    H214593   5.221   6.053   3.462 -0.3206  0.2407  0.7954
 4884TIP3   OH214594   7.598   5.629   3.209  0.4465  1.0343  0.3424
 4884TIP3    H114595   7.507   5.656   3.221  0.3695  1.2528 -0.6609
 4884TIP3    H214596   7.626   5.599   3.295 -1.4119 -1.6648  0.0674
 4885TIP3   OH214597   7.537   6.177   0.187  0.2867  0.1913  0.0403
 4885TIP3    H114598   7.627   6.166   0.156  0.7314 -1.8014  1.9303
 4885TIP3    H214599   7.542   6.164   0.281 -1.8742  0.8156  0.2706
 4886TIP3   OH214600   6.545   7.750   3.871  0.5155 -0.4463 -0.3122
 4886TIP3    H114601   6.517   7.688   3.804  1.1698 -0.1918 -0.8294
 4886TIP3    H214602   6.628   7.786   3.837 -0.0489  0.9853 -0.2065
 4887TIP3   OH214603   6.242   5.613   3.753  0.4181 -0.0641 -0.5706
 4887TIP3    H114604   6.304   5.676   3.716  1.5188  0.2199  1.6806
 4887TIP3    H214605   6.178   5.599   3.684  1.1924  2.1326 -1.7667
 4888TIP3   OH214606   6.002   5.953   2.677  0.0816 -0.3387  0.2465
 4888TIP3    H114607   5.933   5.946   2.611  0.5076 -0.8857 -0.1345
 4888TIP3    H214608   5.957   5.936   2.760 -0.0982 -1.3992 -0.0687
 4889TIP3   OH214609   7.100   7.304   0.951 -0.6631  0.1149  0.7086
 4889TIP3    H114610   7.138   7.219   0.927 -2.7911 -0.6300 -0.0959
 4889TIP3    H214611   7.050   7.331   0.875  1.7348  3.1757  0.1451
 4890TIP3   OH214612   5.635   5.449   1.560 -0.0467  0.2734 -0.6876
 4890TIP3    H114613   5.575   5.378   1.539 -1.4114  1.3873 -0.6493
 4890TIP3    H214614   5.580   5.528   1.559  0.6898  0.9214  2.6811
 4891TIP3   OH214615   6.065   5.555   3.561 -0.6257  0.2425 -0.4748
 4891TIP3    H114616   6.051   5.466   3.529  1.3183 -0.1917 -0.1594
 4891TIP3    H214617   5.991   5.605   3.525 -2.2268 -1.6693  0.1234
 4892TIP3   OH214618   5.520   5.510   3.893 -0.1540  0.4482 -0.0900
 4892TIP3    H114619   5.530   5.419   3.867  0.2450 -0.3519  2.6358
 4892TIP3    H214620   5.435   5.512   3.937  0.5615  0.9961  1.3037
 4893TIP3   OH214621   7.552   5.051   2.482 -0.3428 -0.5152 -0.2238
 4893TIP3    H114622   7.636   5.035   2.525 -0.5731 -1.5104 -0.1224
 4893TIP3    H214623   7.571   5.041   2.388 -0.3697 -0.8657 -0.1933
 4894TIP3   OH214624   8.298   3.568   5.549  0.5133 -0.1027  0.1392
 4894TIP3    H114625   8.342   3.610   5.623  0.2713  1.6360 -0.6731
 4894TIP3    H214626   8.315   3.626   5.475  0.3715 -1.5830 -1.0880
 4895TIP3   OH214627   7.442   7.363   0.374 -0.3954  0.2494  0.8092
 4895TIP3    H114628   7.510   7.406   0.322 -0.3833 -0.8976 -0.1586
 4895TIP3    H214629   7.364   7.416   0.359  0.1800  1.3725  1.6448
 4896TIP3   OH214630   6.688   0.672   0.811 -0.1817  0.2701  0.1373
 4896TIP3    H114631   6.705   0.694   0.902 -1.7229 -1.4518  0.8572
 4896TIP3    H214632   6.643   0.588   0.814  1.6702 -0.8735 -2.3186
 4897TIP3   OH214633   4.257   6.457   0.602 -1.0614 -0.2240  0.0564
 4897TIP3    H114634   4.346   6.461   0.569  0.2263 -0.1683  3.3094
 4897TIP3    H214635   4.257   6.381   0.661 -2.1618  1.7938  2.7449
 4898TIP3   OH214636   5.759   7.952   1.555  0.1550 -0.3317 -0.1294
 4898TIP3    H114637   5.852   7.961   1.571  0.1358 -0.1832 -0.0997
 4898TIP3    H214638   5.734   7.870   1.599  0.3459 -0.5749 -0.4733
 4899TIP3   OH214639   7.763   6.979   2.383  0.2707 -0.3966 -0.3175
 4899TIP3    H114640   7.729   6.891   2.370 -1.2952  0.3118 -1.1901
 4899TIP3    H214641   7.689   7.030   2.416  1.6785  0.1502  2.1501
 4900TIP3   OH214642   7.163   3.960   2.874  0.0937  0.5228  0.3477
 4900TIP3    H114643   7.205   3.877   2.851 -1.2725 -0.2110  0.5004
 4900TIP3    H214644   7.108   3.940   2.949 -0.8757  1.3964 -0.1207
 4901TIP3   OH214645   2.355   1.005   5.817  0.4522 -0.3293  0.1614
 4901TIP3    H114646   2.347   1.081   5.875  0.9503  0.1663 -0.4030
 4901TIP3    H214647   2.438   0.965   5.840  0.8143  0.0710 -0.4461
 4902TIP3   OH214648   7.994   7.838   2.064  0.0731  0.0478 -0.2026
 4902TIP3    H114649   8.025   7.808   1.978  0.0080 -2.0314  0.4701
 4902TIP3    H214650   8.066   7.891   2.098 -0.2476  1.5904 -1.8954
 4903TIP3   OH214651   3.370   7.045   3.159  0.1470 -0.0189  0.0546
 4903TIP3    H114652   3.280   7.013   3.162 -0.5009  1.6295 -0.8986
 4903TIP3    H214653   3.407   7.020   3.244 -1.7388  0.7229  1.1447
 4904TIP3   OH214654   6.375   6.749   1.533 -0.3792  0.4503  0.4455
 4904TIP3    H114655   6.291   6.791   1.511 -0.6095 -0.4028 -0.3307
 4904TIP3    H214656   6.424   6.749   1.451 -0.7425 -1.6128  0.2034
 4905TIP3   OH214657   7.446   5.648   0.979 -0.2062 -0.7681 -0.3811
 4905TIP3    H114658   7.405   5.620   1.061  0.2312 -1.1964 -0.3097
 4905TIP3    H214659   7.398   5.728   0.955 -1.7478 -1.8033 -0.8209
 4906TIP3   OH214660   6.037   3.972   1.506 -0.3382  0.1399 -0.3190
 4906TIP3    H114661   5.973   3.987   1.575 -0.0002 -2.6906  0.6684
 4906TIP3    H214662   6.118   4.013   1.538 -0.3184 -0.7244  0.7724
 4907TIP3   OH214663   4.140   4.745   0.991 -0.1026  0.0780 -0.1749
 4907TIP3    H114664   4.074   4.704   1.046  0.8319 -0.5549  0.4908
 4907TIP3    H214665   4.170   4.675   0.933  0.2606  0.2597 -0.2092
 4908TIP3   OH214666   5.111   7.660   3.010 -0.7594 -0.5732 -0.1818
 4908TIP3    H114667   5.101   7.746   3.050  0.5091 -0.5854  0.1910
 4908TIP3    H214668   5.095   7.598   3.081 -0.2615 -0.6212 -0.1110
 4909TIP3   OH214669   3.865   0.889   6.479  0.5325  0.2291 -0.5764
 4909TIP3    H114670   3.795   0.913   6.419 -0.9999  1.3136  1.5667
 4909TIP3    H214671   3.829   0.818   6.532  1.4311  0.0754 -0.1491
 4910TIP3   OH214672   5.942   5.062   1.813 -0.0207 -1.0027 -0.2404
 4910TIP3    H114673   5.895   4.980   1.803  1.6989 -1.9801 -0.5658
 4910TIP3    H214674   5.987   5.074   1.729 -3.2857  2.2869 -1.6720
 4911TIP3   OH214675   6.103   4.560   1.428 -0.1354 -0.3203  0.2612
 4911TIP3    H114676   6.045   4.486   1.444 -0.6974 -0.4783 -2.2245
 4911TIP3    H214677   6.056   4.614   1.364  1.7847  0.3223 -0.6660
 4912TIP3   OH214678   7.181   4.366   0.573  0.4351  0.6386  0.6640
 4912TIP3    H114679   7.098   4.319   0.587  2.3242 -2.1687  2.9923
 4912TIP3    H214680   7.156   4.459   0.575 -2.5634 -0.1210  1.8128
 4913TIP3   OH214681   4.496   2.840   6.669 -0.4671  0.2931  0.2511
 4913TIP3    H114682   4.426   2.888   6.625  0.0349 -1.7878 -2.9699
 4913TIP3    H214683   4.452   2.794   6.740 -2.4226 -0.9202 -1.6714
 4914TIP3   OH214684   7.901   6.097   2.357 -0.8659 -0.1264  0.0530
 4914TIP3    H114685   7.963   6.099   2.430 -0.0842  0.8827 -0.6045
 4914TIP3    H214686   7.872   6.006   2.352  2.8997 -1.3623 -1.4979
 4915TIP3   OH214687   4.194   4.545   2.143  0.2486  0.1531  0.4889
 4915TIP3    H114688   4.258   4.595   2.194  0.1382  0.3748  0.4114
 4915TIP3    H214689   4.162   4.607   2.077  0.1514 -0.0363  0.3582
 4916TIP3   OH214690   0.253   5.419   1.414 -0.2603 -0.3205 -0.3218
 4916TIP3    H114691   0.160   5.438   1.423  0.0277  0.8127  0.4121
 4916TIP3    H214692   0.258   5.351   1.347 -1.3046  2.6254 -3.5127
 4917TIP3   OH214693   6.190   4.368   3.061  0.2617 -0.1269 -0.1419
 4917TIP3    H114694   6.243   4.445   3.045 -0.2248  0.4875  1.1047
 4917TIP3    H214695   6.102   4.402   3.077 -0.1099 -0.9873 -0.3068
 4918TIP3   OH214696   3.009   6.419   2.435  0.2979 -0.4596  0.0614
 4918TIP3    H114697   2.924   6.410   2.391  0.9322  1.9857 -1.8222
 4918TIP3    H214698   3.062   6.348   2.400  0.0637  0.0536 -1.3571
 4919TIP3   OH214699   5.961   6.678   2.181 -0.5045 -0.3936  0.5598
 4919TIP3    H114700   5.897   6.616   2.147  0.7797 -2.5735  1.9527
 4919TIP3    H214701   6.044   6.630   2.177  1.0516  2.3373 -1.1429
 4920TIP3   OH214702   4.437   6.012   2.514 -0.1987  0.0179  0.4677
 4920TIP3    H114703   4.426   5.948   2.585 -2.2370 -0.3471 -0.1467
 4920TIP3    H214704   4.420   5.962   2.434  2.8894  0.2277 -0.3783
 4921TIP3   OH214705   3.807   4.507   1.319 -0.0781 -0.5792 -0.2829
 4921TIP3    H114706   3.787   4.416   1.343 -0.5262 -0.8067 -1.5159
 4921TIP3    H214707   3.735   4.558   1.357 -0.4404 -0.8651 -0.5846
 4922TIP3   OH214708   3.624   7.990   1.916  0.1531  0.2526  0.0983
 4922TIP3    H114709   3.541   8.028   1.945 -0.3126  1.0988 -2.2650
 4922TIP3    H214710   3.669   7.965   1.998 -0.9331  2.9123  1.5745
 4923TIP3   OH214711   7.166   0.553   2.262  0.1346 -0.3538  0.3595
 4923TIP3    H114712   7.090   0.585   2.310  0.3738 -0.4304  0.7964
 4923TIP3    H214713   7.149   0.459   2.250  0.0975 -0.3452  0.3467
 4924TIP3   OH214714   4.771   4.723   4.056 -0.5608  0.6298  0.0229
 4924TIP3    H114715   4.842   4.787   4.053  0.4925 -0.5193  0.1651
 4924TIP3    H214716   4.708   4.760   4.119  0.9743  0.5858  1.6206
 4925TIP3   OH214717   5.148   5.042   0.253  0.9689  0.0754 -0.8723
 4925TIP3    H114718   5.229   5.091   0.234  1.4744 -0.3537  0.1184
 4925TIP3    H214719   5.179   4.961   0.294  0.0022  0.1994  0.1205
 4926TIP3   OH214720   5.037   7.428   1.307  0.3589  0.0535  0.1059
 4926TIP3    H114721   4.954   7.383   1.324  0.7284 -1.7168 -2.4468
 4926TIP3    H214722   5.078   7.377   1.237  2.0903  2.7971 -0.9762
 4927TIP3   OH214723   4.977   7.823   1.095 -0.0739  0.5218  0.2580
 4927TIP3    H114724   4.988   7.784   1.181 -1.1168  0.5306  0.4011
 4927TIP3    H214725   4.897   7.783   1.061 -0.0761  1.0797 -0.3929
 4928TIP3   OH214726   7.375   6.937   2.109  0.5741  0.4063  0.4727
 4928TIP3    H114727   7.324   6.909   2.185 -0.6055 -0.0502 -0.4797
 4928TIP3    H214728   7.321   7.003   2.066  0.3314 -0.7728 -1.0775
 4929TIP3   OH214729   7.041   4.399   2.413  1.4512 -0.7239  0.2930
 4929TIP3    H114730   7.015   4.406   2.322  1.0364 -1.6421  0.3343
 4929TIP3    H214731   6.974   4.449   2.461 -0.0553 -2.7262  0.3578
 4930TIP3   OH214732   8.352   0.712   2.295  0.4438 -0.1288  0.4805
 4930TIP3    H114733   8.268   0.735   2.255  0.6605 -0.1634  0.0090
 4930TIP3    H214734   8.333   0.710   2.389  0.2556  1.2958  0.4916
 4931TIP3   OH214735   4.742   6.349   2.013  0.3529 -0.1777 -0.0746
 4931TIP3    H114736   4.703   6.380   1.932  0.5235  0.7889  0.2111
 4931TIP3    H214737   4.673   6.295   2.054 -0.6184  1.3359  0.3225
 4932TIP3   OH214738   8.207   5.815   3.430  0.3274 -0.9099 -0.3763
 4932TIP3    H114739   8.164   5.758   3.493 -0.1522 -0.3066 -0.1467
 4932TIP3    H214740   8.297   5.824   3.463 -0.3784  0.7542  1.1625
 4933TIP3   OH214741   4.260   7.821   2.694 -0.2821  0.7614 -0.4380
 4933TIP3    H114742   4.310   7.846   2.616  1.5016  0.8857  0.7323
 4933TIP3    H214743   4.254   7.725   2.688  1.2876  0.6247  0.1313
 4934TIP3   OH214744   6.829   5.116   0.813  0.2783  0.4804 -0.1955
 4934TIP3    H114745   6.752   5.171   0.822 -1.1040 -1.3362 -0.6046
 4934TIP3    H214746   6.829   5.062   0.892  0.8013  0.0734 -0.4732
 4935TIP3   OH214747   3.737   7.676   0.791  0.4436  0.3419 -0.4981
 4935TIP3    H114748   3.753   7.735   0.865 -0.0723 -0.1565  0.0087
 4935TIP3    H214749   3.648   7.697   0.762 -0.5714 -1.6504  1.0399
 4936TIP3   OH214750   1.928   0.405   4.339 -0.4964  0.0762 -0.1730
 4936TIP3    H114751   1.940   0.361   4.255 -0.8467 -0.8921  0.2728
 4936TIP3    H214752   1.925   0.334   4.403 -0.1568  0.8097  0.6663
 4937TIP3   OH214753   0.920   0.846   1.991 -0.4352 -0.4681 -0.4098
 4937TIP3    H114754   0.851   0.867   1.928 -1.2213 -1.0731  0.2330
 4937TIP3    H214755   0.914   0.751   2.001 -0.5641 -0.3377  0.8487
 4938TIP3   OH214756   4.982   4.171   3.273  0.2032 -0.1585 -0.2742
 4938TIP3    H114757   5.072   4.203   3.279  0.1898 -0.3349  1.1327
 4938TIP3    H214758   4.950   4.206   3.190  1.0063  1.3582  0.0226
 4939TIP3   OH214759   7.301   4.127   1.688  0.0722  0.1778  0.3167
 4939TIP3    H114760   7.261   4.178   1.759 -0.0066  0.4195  0.0996
 4939TIP3    H214761   7.347   4.192   1.635 -0.9423  0.1759 -0.5752
 4940TIP3   OH214762   7.241   6.283   2.265 -0.3131 -0.5487 -0.0331
 4940TIP3    H114763   7.312   6.344   2.246  0.7288 -2.0422 -0.9563
 4940TIP3    H214764   7.227   6.292   2.360  1.1014 -0.2632  0.1483
 4941TIP3   OH214765   5.144   4.480   2.928  0.1512 -0.2970 -0.3973
 4941TIP3    H114766   5.176   4.459   2.841 -1.3076  0.2527 -1.0754
 4941TIP3    H214767   5.222   4.508   2.976  0.7893  0.3576 -1.8087
 4942TIP3   OH214768   1.679   2.607   6.793 -0.3617 -0.1319  0.2570
 4942TIP3    H114769   1.607   2.544   6.786 -1.1096  0.6810  0.4824
 4942TIP3    H214770   1.736   2.571   6.861 -0.3594 -0.9629 -0.1714
 4943TIP3   OH214771   4.310   5.173   1.875  0.3568 -0.6768  0.0590
 4943TIP3    H114772   4.217   5.170   1.851  0.4986  0.1199 -0.6448
 4943TIP3    H214773   4.327   5.266   1.892  1.1997 -0.7188 -0.5265
 4944TIP3   OH214774   3.967   5.804   2.331 -0.4986 -0.5692 -0.5136
 4944TIP3    H114775   3.918   5.805   2.413  1.1812 -1.0544  0.5193
 4944TIP3    H214776   3.998   5.894   2.321 -0.3920 -0.5955 -0.4231
 4945TIP3   OH214777   5.937   5.517   0.796 -0.2535  0.3934  0.0108
 4945TIP3    H114778   5.938   5.442   0.737  1.0485  2.1556 -2.2840
 4945TIP3    H214779   6.001   5.496   0.864  0.4137 -0.3804 -0.8528
 4946TIP3   OH214780   2.248   3.188   6.883  0.0381  0.0637 -0.7218
 4946TIP3    H114781   2.268   3.196   6.977 -0.2150 -0.1413 -0.6514
 4946TIP3    H214782   2.165   3.233   6.872 -0.2605 -0.4858 -0.7299
 4947TIP3   OH214783   6.830   6.716   2.485 -0.7649  0.0156 -0.6700
 4947TIP3    H114784   6.871   6.793   2.524  1.0390 -0.5775 -1.3443
 4947TIP3    H214785   6.797   6.746   2.400  0.2474 -0.0326 -1.0829
 4948TIP3   OH214786   5.139   5.919   3.389  0.0752  0.0796 -0.0090
 4948TIP3    H114787   5.064   5.940   3.334 -0.3097  1.3081  0.9640
 4948TIP3    H214788   5.109   5.847   3.446 -0.6079  1.0606  0.8802
 4949TIP3   OH214789   1.724   1.508   5.751 -0.1820  0.2803 -0.1441
 4949TIP3    H114790   1.647   1.563   5.740 -0.1024  0.4287  0.0299
 4949TIP3    H214791   1.719   1.477   5.841 -0.3290 -0.1537 -0.3035
 4950TIP3   OH214792   2.865   5.090   5.907 -0.4344  0.4402  0.4938
 4950TIP3    H114793   2.822   5.168   5.871  1.3656  1.5551  0.6807
 4950TIP3    H214794   2.879   5.112   5.999  0.1666 -0.0834  0.5260
 4951TIP3   OH214795   5.304   5.907   4.508 -0.1123  0.4740  0.1516
 4951TIP3    H114796   5.353   5.829   4.533 -0.6480 -0.1813 -0.8371
 4951TIP3    H214797   5.324   5.919   4.415 -2.6559 -0.4013 -0.5341
 4952TIP3   OH214798   7.872   5.947   2.661 -0.7220 -0.3083  0.3490
 4952TIP3    H114799   7.922   5.885   2.715 -1.2838 -1.2098 -0.1409
 4952TIP3    H214800   7.936   6.011   2.631  0.0135 -1.0734  0.2737
 4953TIP3   OH214801   5.658   7.494   2.316  0.3580  0.2243 -0.3859
 4953TIP3    H114802   5.698   7.427   2.372 -0.2782  1.3350  1.4558
 4953TIP3    H214803   5.674   7.463   2.227  1.9432 -1.2976  0.3775
 4954TIP3   OH214804   5.339   5.682   4.217  0.1528  0.3539  0.3826
 4954TIP3    H114805   5.372   5.614   4.277  1.0234 -0.6678 -1.2235
 4954TIP3    H214806   5.294   5.633   4.148 -0.0926  1.4670 -0.2435
 4955TIP3   OH214807   8.123   7.525   4.397 -0.5390  0.2493 -0.1008
 4955TIP3    H114808   8.077   7.443   4.384 -2.5048  1.1002  1.2491
 4955TIP3    H214809   8.067   7.591   4.355 -0.5001  1.2754  1.4304
 4956TIP3   OH214810   7.666   6.536   1.115 -0.3507  0.2925 -0.2389
 4956TIP3    H114811   7.737   6.477   1.091 -0.4970  0.5477 -1.2953
 4956TIP3    H214812   7.708   6.602   1.170 -0.0226 -0.2821  0.2174
 4957TIP3   OH214813   7.538   6.699   0.122  0.0202  0.5300  0.6541
 4957TIP3    H114814   7.605   6.631   0.109 -0.1635  0.0357  2.1663
 4957TIP3    H214815   7.527   6.704   0.217 -1.3687  1.3239  0.4683
 4958TIP3   OH214816   4.278   7.412   1.080 -0.3150 -0.8510  0.2426
 4958TIP3    H114817   4.344   7.390   1.145 -0.0820  1.5391  0.8443
 4958TIP3    H214818   4.309   7.370   1.000  1.5467 -0.3857  0.6976
 4959TIP3   OH214819   2.808   1.576   6.676 -0.0561  0.3040  0.2233
 4959TIP3    H114820   2.753   1.544   6.748 -1.0639 -1.4550 -1.2961
 4959TIP3    H214821   2.888   1.524   6.682 -0.7319 -0.8537 -0.8127
 4960TIP3   OH214822   6.287   5.655   1.619  0.3729  0.3000  0.3692
 4960TIP3    H114823   6.330   5.620   1.542  0.9602  2.0627 -0.1397
 4960TIP3    H214824   6.288   5.750   1.606 -2.8586  0.4446  0.7769
 4961TIP3   OH214825   5.846   1.436   5.658 -0.3050  0.1585  0.2343
 4961TIP3    H114826   5.767   1.468   5.701 -1.8520 -1.1459 -1.5111
 4961TIP3    H214827   5.911   1.427   5.728 -2.2341 -0.3314  1.9847
 4962TIP3   OH214828   7.229   0.446   6.815 -0.3704 -0.2481 -0.0215
 4962TIP3    H114829   7.192   0.368   6.773 -0.3616  0.1746 -0.8315
 4962TIP3    H214830   7.245   0.419   6.906  1.0240 -1.6417 -0.6529
 4963TIP3   OH214831   5.335   1.700   6.186  0.1267  0.4162  0.5277
 4963TIP3    H114832   5.334   1.620   6.238 -1.2144  0.8466  1.1854
 4963TIP3    H214833   5.384   1.677   6.107 -2.5497 -1.8428 -0.5477
 4964TIP3   OH214834   8.192   4.407   1.984 -0.2586  0.2502  0.6596
 4964TIP3    H114835   8.285   4.408   2.009 -0.5419 -0.1594  1.7513
 4964TIP3    H214836   8.146   4.385   2.065 -1.1739 -1.4524 -0.2907
 4965TIP3   OH214837   6.982   6.318   1.038  0.3938  0.2790 -0.4454
 4965TIP3    H114838   6.911   6.375   1.069  0.0632 -1.1461  1.4995
 4965TIP3    H214839   7.004   6.352   0.952 -1.9392  1.4142 -0.6316
 4966TIP3   OH214840   5.023   6.224   2.030  0.4803 -0.2787  0.1576
 4966TIP3    H114841   4.952   6.274   1.988  0.0460  0.1478  1.3749
 4966TIP3    H214842   4.984   6.192   2.112  1.9819  0.7161  1.2656
 4967TIP3   OH214843   1.468   5.056   1.617  0.0801 -0.1360 -0.2455
 4967TIP3    H114844   1.446   5.146   1.639 -2.8834 -0.9651  0.3898
 4967TIP3    H214845   1.493   5.017   1.701 -0.9089 -0.4989 -0.1118
 4968TIP3   OH214846   7.476   3.461   2.213 -0.0821  0.0766  0.1065
 4968TIP3    H114847   7.557   3.456   2.264 -1.0340  2.3332  1.9119
 4968TIP3    H214848   7.411   3.418   2.268 -0.4300 -0.5086 -0.7460
 4969TIP3   OH214849   7.483   6.858   1.512  0.0533  0.0775  0.6846
 4969TIP3    H114850   7.424   6.856   1.587 -1.0297 -0.9984 -0.1626
 4969TIP3    H214851   7.476   6.770   1.475 -0.9634  1.1603 -1.8227
 4970TIP3   OH214852   8.397   3.592   1.745  0.6647  1.1768 -0.7140
 4970TIP3    H114853   8.484   3.582   1.706  0.7403  0.3929 -0.3597
 4970TIP3    H214854   8.342   3.627   1.675  0.7835 -0.2499 -1.5213
 4971TIP3   OH214855   0.114   5.199   1.810 -0.0611  0.2432 -0.6020
 4971TIP3    H114856   0.127   5.115   1.853  1.2535  0.1438 -1.1625
 4971TIP3    H214857   0.189   5.207   1.750  1.2658  2.9774  1.3244
 4972TIP3   OH214858   5.859   7.609   0.656 -0.2083 -0.6173 -0.4650
 4972TIP3    H114859   5.854   7.548   0.729 -1.2038  0.8256  0.7012
 4972TIP3    H214860   5.817   7.689   0.688  1.4289  0.8237 -1.8228
 4973TIP3   OH214861   5.700   6.903   3.479 -0.2233 -0.2326 -0.6143
 4973TIP3    H114862   5.724   6.987   3.441  0.5326  0.3637  1.1033
 4973TIP3    H214863   5.784   6.860   3.497 -0.6089 -1.5018 -1.7949
 4974TIP3   OH214864   6.848   4.652   0.221  0.1412  0.0803 -0.5701
 4974TIP3    H114865   6.928   4.610   0.253 -0.8083 -1.7459 -0.5273
 4974TIP3    H214866   6.834   4.726   0.281  0.6075 -0.8974  0.7664
 4975TIP3   OH214867   7.463   3.926   2.601 -0.0738 -0.0443  0.3651
 4975TIP3    H114868   7.428   3.934   2.512 -1.4281 -0.8737  0.8107
 4975TIP3    H214869   7.498   4.013   2.621  1.6402 -0.2633 -1.5456
 4976TIP3   OH214870   3.243   0.313   2.710  0.1118  0.1797 -0.7148
 4976TIP3    H114871   3.319   0.268   2.674 -0.2625 -0.1408 -1.1079
 4976TIP3    H214872   3.261   0.320   2.804  1.2848  1.3881 -1.0178
 4977TIP3   OH214873   0.326   6.109   2.570 -0.3507  0.1126  0.4357
 4977TIP3    H114874   0.236   6.135   2.549 -0.9380 -0.9616  1.5946
 4977TIP3    H214875   0.353   6.170   2.639 -0.1407  0.4871  0.0315
 4978TIP3   OH214876   6.660   5.959   2.044 -0.0338  0.1746  0.1195
 4978TIP3    H114877   6.714   5.881   2.030 -0.7884 -0.8130  2.4721
 4978TIP3    H214878   6.588   5.949   1.982  0.2241 -0.6560 -0.0519
 4979TIP3   OH214879   6.638   6.302   0.984 -0.1474  0.1387 -0.3742
 4979TIP3    H114880   6.661   6.392   0.961 -0.4138  0.0874 -0.8491
 4979TIP3    H214881   6.655   6.251   0.904  0.4723 -0.3144  0.0420
 4980TIP3   OH214882   4.647   2.935   5.859  0.7648 -0.2569 -0.4471
 4980TIP3    H114883   4.649   2.880   5.937  0.5089  0.5284  0.1173
 4980TIP3    H214884   4.665   2.874   5.787  3.9420 -0.4937  0.4671
 4981TIP3   OH214885   0.807   0.317   1.139 -0.1406  0.2609  0.3508
 4981TIP3    H114886   0.859   0.237   1.147  0.4879  0.7970  1.5746
 4981TIP3    H214887   0.739   0.308   1.205  1.3892  1.8453  2.2016
 4982TIP3   OH214888   8.050   6.711   1.349 -0.0033  0.0755 -0.1584
 4982TIP3    H114889   8.002   6.700   1.431 -1.2201  0.7635 -0.7658
 4982TIP3    H214890   7.984   6.740   1.286  1.1648  0.8016 -1.0708
 4983TIP3   OH214891   0.231   4.735   1.284 -0.0886  0.0878 -0.0039
 4983TIP3    H114892   0.146   4.776   1.299  0.2270  0.9640 -0.5655
 4983TIP3    H214893   0.210   4.646   1.254 -0.7765 -0.1788  1.2318
 4984TIP3   OH214894   7.438   7.433   2.743  0.6904  0.2198  0.2039
 4984TIP3    H114895   7.423   7.504   2.806  1.2352  1.6280 -1.2333
 4984TIP3    H214896   7.482   7.365   2.794  2.0954  1.7693  1.1069
 4985TIP3   OH214897   5.366   6.718   0.886 -0.0685  0.0036 -0.2441
 4985TIP3    H114898   5.352   6.638   0.835 -0.0684  0.3584 -0.8068
 4985TIP3    H214899   5.461   6.732   0.883 -0.1776  0.6401 -1.1061
 4986TIP3   OH214900   7.226   7.717   1.785 -0.1050 -0.0965 -0.1309
 4986TIP3    H114901   7.277   7.797   1.771  1.8861 -1.1619  0.8670
 4986TIP3    H214902   7.291   7.646   1.783 -1.7700 -1.6605 -0.5407
 4987TIP3   OH214903   0.341   6.189   1.050 -0.2725 -0.2071  0.4884
 4987TIP3    H114904   0.260   6.167   1.096  0.1176 -1.1939  0.7205
 4987TIP3    H214905   0.389   6.243   1.112 -0.6888  0.2501  0.4114
 4988TIP3   OH214906   0.170   6.718   1.175 -0.1750  0.2390  0.2384
 4988TIP3    H114907   0.175   6.782   1.246  3.1964 -0.7991  1.0096
 4988TIP3    H214908   0.149   6.635   1.219  0.0501 -0.0610 -0.2142
 4989TIP3   OH214909   7.833   5.027   2.570  0.8149 -0.6751 -0.0907
 4989TIP3    H114910   7.902   5.094   2.567  0.2934 -0.0502  1.4404
 4989TIP3    H214911   7.878   4.946   2.546  1.9997 -0.1914  0.4382
 4990TIP3   OH214912   1.266   4.227   2.008  0.3171 -0.3013 -0.2833
 4990TIP3    H114913   1.301   4.219   1.920  1.9687  1.0003  0.2131
 4990TIP3    H214914   1.335   4.272   2.057 -0.7965 -0.5030  1.5302
 4991TIP3   OH214915   7.972   6.992   2.223  0.0099 -0.6396 -0.6890
 4991TIP3    H114916   7.933   7.050   2.158 -0.1336 -0.7073 -0.6628
 4991TIP3    H214917   7.912   6.995   2.297 -0.2504 -1.1924 -0.8696
 4992TIP3   OH214918   5.582   5.784   0.797 -0.3816  0.2772  0.4548
 4992TIP3    H114919   5.564   5.864   0.747 -0.4821  0.0758  0.1715
 4992TIP3    H214920   5.513   5.723   0.772  0.4261 -0.3460 -0.3146
 4993TIP3   OH214921   0.834   3.481   5.587 -0.5365  0.2152  0.0803
 4993TIP3    H114922   0.769   3.536   5.630 -0.9968  0.1394 -0.5141
 4993TIP3    H214923   0.915   3.532   5.590 -0.1084 -0.5277  2.6363
 4994TIP3   OH214924   0.419   5.372   2.682  0.5162  0.0972  0.3103
 4994TIP3    H114925   0.458   5.459   2.666 -1.8365  1.4562  1.6859
 4994TIP3    H214926   0.389   5.343   2.596 -1.6387  2.1626  0.3175
 4995TIP3   OH214927   0.563   0.493   3.773  0.2982  0.1822 -0.3637
 4995TIP3    H114928   0.502   0.426   3.744 -0.2023  0.6207 -0.3146
 4995TIP3    H214929   0.512   0.550   3.831  0.7280  0.5857 -0.3758
 4996TIP3   OH214930   3.805   3.389   6.890 -0.2817  0.2507  0.1672
 4996TIP3    H114931   3.876   3.448   6.916  0.1415 -0.0314 -0.3332
 4996TIP3    H214932   3.801   3.397   6.795 -2.1195  1.6151  0.3416
 4997TIP3   OH214933   7.650   5.452   0.670  0.2457  0.3108 -0.4251
 4997TIP3    H114934   7.691   5.373   0.634  2.1165  0.8708  0.4276
 4997TIP3    H214935   7.581   5.418   0.728  0.0908 -0.6643 -1.1670
 4998TIP3   OH214936   0.099   5.946   0.312  0.4075 -0.0624 -0.4398
 4998TIP3    H114937   0.014   5.933   0.271  0.1488 -0.6892  0.2893
 4998TIP3    H214938   0.160   5.897   0.257  0.4674  1.2534 -1.5675
 4999TIP3   OH214939   7.282   5.015   1.848 -0.2729  0.3685 -0.1596
 4999TIP3    H114940   7.319   4.956   1.783 -0.3200  0.2257 -0.0583
 4999TIP3    H214941   7.192   4.985   1.859  0.0994 -0.4013  0.8906
 5000TIP3   OH214942   1.242   3.580   6.624 -0.0542  0.2244  0.3402
 5000TIP3    H114943   1.160   3.609   6.583  0.1866  2.0692  1.0846
 5000TIP3    H214944   1.301   3.654   6.614  1.7969 -1.3790 -0.8522
 5001TIP3   OH214945   4.482   5.512   0.660  0.0309 -0.2205 -0.2131
 5001TIP3    H114946   4.404   5.522   0.605 -0.3830 -1.5363  0.1021
 5001TIP3    H214947   4.536   5.448   0.613  0.2847 -0.3483  0.2556
 5002TIP3   OH214948   6.665   5.081   1.795  0.2472 -0.6081 -0.0353
 5002TIP3    H114949   6.606   5.153   1.772  1.0096 -0.7838 -2.7902
 5002TIP3    H214950   6.753   5.119   1.790  0.6006 -1.4639 -0.6086
 5003TIP3   OH214951   5.546   6.629   2.248  0.4638  0.4018 -0.6338
 5003TIP3    H114952   5.456   6.598   2.247  1.5485 -3.0601  0.9913
 5003TIP3    H214953   5.577   6.616   2.158 -0.6897  1.8427 -1.2594
 5004TIP3   OH214954   8.327   7.211   1.453  0.3649  0.8138  0.5482
 5004TIP3    H114955   8.240   7.236   1.423 -0.1328 -0.2988  1.0123
 5004TIP3    H214956   8.382   7.218   1.375 -0.5902 -0.5485 -0.2872
 5005TIP3   OH214957   6.648   6.297   1.275 -0.0179  0.1787 -0.2095
 5005TIP3    H114958   6.626   6.291   1.182  0.4681 -0.1526 -0.3114
 5005TIP3    H214959   6.573   6.339   1.316  0.0399  0.9132 -0.8546
 5006TIP3   OH214960   7.845   6.584   1.944 -0.2852  0.5429  0.0909
 5006TIP3    H114961   7.909   6.522   1.909 -1.2736  1.2374 -3.0462
 5006TIP3    H214962   7.882   6.671   1.924 -0.5309  0.9809  1.4564
 5007TIP3   OH214963   6.546   8.005   1.977 -0.2360  0.3998 -0.0322
 5007TIP3    H114964   6.574   7.916   2.000 -1.7589 -0.0542  0.1173
 5007TIP3    H214965   6.601   8.062   2.030 -0.6440 -0.5262  1.4121
 5008TIP3   OH214966   0.347   4.605   3.045 -0.5690 -0.3155 -0.3801
 5008TIP3    H114967   0.373   4.663   3.117  0.1329 -2.2159  0.9566
 5008TIP3    H214968   0.381   4.648   2.966 -2.4557  2.4346  0.2506
 5009TIP3   OH214969   5.576   5.213   1.982 -0.6569  0.4068 -0.7672
 5009TIP3    H114970   5.662   5.173   1.995 -0.4902  0.3874 -1.8440
 5009TIP3    H214971   5.589   5.305   2.004 -0.8245  0.0479  0.8650
 5010TIP3   OH214972   8.125   5.304   2.826 -0.5336 -0.6510 -0.1816
 5010TIP3    H114973   8.044   5.354   2.819 -1.2143 -1.8935 -1.3010
 5010TIP3    H214974   8.181   5.341   2.758  1.1004  2.4435  2.7080
 5011TIP3   OH214975   0.133   6.104   1.210  0.0272  0.4060 -0.3504
 5011TIP3    H114976   0.074   6.136   1.279 -0.2998 -0.5045 -0.1993
 5011TIP3    H214977   0.074   6.073   1.141  0.2581 -2.5053  0.6945
 5012TIP3   OH214978   0.326   7.375   2.537  0.3816  0.2855  0.4397
 5012TIP3    H114979   0.298   7.395   2.448  0.1560 -0.6761  0.2937
 5012TIP3    H214980   0.294   7.450   2.589 -2.4187 -0.7085  0.2660
 5013TIP3   OH214981   4.318   0.831   5.071  0.3599  0.6294 -0.4021
 5013TIP3    H114982   4.276   0.904   5.117  1.4784  1.0628 -0.0657
 5013TIP3    H214983   4.285   0.753   5.116  0.1121  0.9737  0.0188
 5014TIP3   OH214984   0.361   5.150   0.204 -0.2993 -0.2292 -0.2970
 5014TIP3    H114985   0.334   5.095   0.130 -0.2928  0.4242 -0.7901
 5014TIP3    H214986   0.279   5.182   0.241 -0.3050 -0.6158  0.0247
 5015TIP3   OH214987   0.320   7.095   2.843  0.6674 -0.0985  0.2725
 5015TIP3    H114988   0.332   7.183   2.807 -1.7034  0.5791  1.0130
 5015TIP3    H214989   0.306   7.109   2.937 -1.0600 -1.1098  0.1906
 5016TIP3   OH214990   8.272   6.359   3.059  0.1673  0.3467  0.1352
 5016TIP3    H114991   8.205   6.392   3.000  0.8223 -2.4211 -2.2613
 5016TIP3    H214992   8.224   6.330   3.136 -1.1722  0.2412 -0.7285
 5017TIP3   OH214993   7.510   6.551   0.892 -0.0465  0.2266  0.7447
 5017TIP3    H114994   7.551   6.541   0.978  0.9608 -0.8856  0.1497
 5017TIP3    H214995   7.543   6.477   0.841 -1.0679  0.5669 -0.4336
 5018TIP3   OH214996   7.190   6.823   0.288  0.4187 -0.1199  0.0853
 5018TIP3    H114997   7.133   6.815   0.212  1.1480  2.2655 -0.7353
 5018TIP3    H214998   7.273   6.856   0.253  1.2813 -0.5201  1.6963
 5019TIP3   OH214999   1.686   3.710   5.414  0.5436  0.1603 -0.6130
 5019TIP3    H115000   1.779   3.732   5.419  1.1073 -2.1811 -0.3985
 5019TIP3    H215001   1.679   3.652   5.338 -0.5084 -0.7172  0.1403
 5020TIP3   OH215002   3.986   0.555   5.853 -0.1962 -0.0677  0.0211
 5020TIP3    H115003   3.920   0.619   5.879  0.4860  1.3732 -1.7031
 5020TIP3    H215004   4.043   0.547   5.929 -0.3379  1.3108  0.2816
 5021TIP3   OH215005   7.276   6.081   1.180 -0.5769 -0.1733 -0.0057
 5021TIP3    H115006   7.195   6.125   1.207 -0.2726  0.1780  0.3506
 5021TIP3    H215007   7.304   6.033   1.257 -0.6006 -0.5317 -0.2197
 5022TIP3   OH215008   5.381   1.944   6.879 -0.0671 -0.2805 -0.2307
 5022TIP3    H115009   5.350   2.034   6.881 -3.3145 -1.3251 -0.1785
 5022TIP3    H215010   5.412   1.931   6.790  0.5907  0.9251 -0.1858
 5023TIP3   OH215011   4.744   1.873   1.816 -0.0362  0.0833 -0.6731
 5023TIP3    H115012   4.837   1.865   1.795  0.0064 -1.6740  0.1058
 5023TIP3    H215013   4.727   1.801   1.877 -1.9664  0.2157 -1.0252
 5024TIP3   OH215014   6.427   7.136   2.502 -0.2786  0.5238  0.3545
 5024TIP3    H115015   6.463   7.128   2.414 -2.9473 -0.0841 -0.7472
 5024TIP3    H215016   6.421   7.046   2.534  0.1234  0.6971  0.9128
 5025TIP3   OH215017   4.548   2.478   4.782  0.4512  0.3722  0.3546
 5025TIP3    H115018   4.621   2.444   4.835 -0.1042 -1.6811 -0.1389
 5025TIP3    H215019   4.476   2.487   4.845 -0.0177 -1.4555  0.1333
 5026TIP3   OH215020   8.449   4.531   2.085 -0.1504  0.6311 -0.3092
 5026TIP3    H115021   8.511   4.589   2.041  0.0750  1.9296  1.6748
 5026TIP3    H215022   8.410   4.585   2.153 -1.3009 -1.0252  0.3639
 5027TIP3   OH215023   3.962   2.259   4.909 -0.0854  0.2538  0.4686
 5027TIP3    H115024   3.956   2.186   4.848  1.5915 -1.6604  2.5215
 5027TIP3    H215025   3.871   2.283   4.927 -0.6162 -0.5241 -1.1234
 5028TIP3   OH215026   2.219   5.205   1.077  0.1087 -0.2168 -0.2622
 5028TIP3    H115027   2.220   5.175   0.986 -0.4490  0.8760 -0.6374
 5028TIP3    H215028   2.145   5.158   1.116  0.0536 -0.3331 -0.5034
 5029TIP3   OH215029   7.236   5.216   3.373 -0.6130 -0.5585  0.3273
 5029TIP3    H115030   7.263   5.210   3.464 -0.2153 -1.2075  0.1697
 5029TIP3    H215031   7.220   5.310   3.358  1.0264 -0.2282  0.5653
 5030TIP3   OH215032   5.791   4.779   4.098  0.0060 -0.2952 -0.2331
 5030TIP3    H115033   5.752   4.843   4.037  0.2561 -0.2359 -0.3296
 5030TIP3    H215034   5.813   4.831   4.176  1.8770  0.0837 -1.0040
 5031TIP3   OH215035   7.535   4.830   0.880 -0.3334 -0.1989 -0.1456
 5031TIP3    H115036   7.465   4.767   0.863 -0.6337 -0.0382  0.5076
 5031TIP3    H215037   7.591   4.824   0.802 -0.9637 -0.4652 -0.5847
 5032TIP3   OH215038   0.561   4.704   0.186 -0.0697  0.2764 -0.3367
 5032TIP3    H115039   0.485   4.760   0.195 -1.2171 -1.4033  0.7606
 5032TIP3    H215040   0.534   4.637   0.122  0.5868 -0.1577 -0.1688
 5033TIP3   OH215041   0.524   6.224   0.809  0.0267  0.4108  0.0327
 5033TIP3    H115042   0.476   6.175   0.875  0.9055 -0.1134  0.2962
 5033TIP3    H215043   0.489   6.313   0.814 -1.7668 -0.2312 -0.6382
 5034TIP3   OH215044   7.548   4.671   1.465  0.0591 -0.5473  0.8925
 5034TIP3    H115045   7.583   4.623   1.390 -0.8006 -1.1829  0.8936
 5034TIP3    H215046   7.517   4.603   1.525 -3.2013 -0.0010 -0.0860
 5035TIP3   OH215047   5.195   2.306   6.049  0.2075  0.2793 -0.0005
 5035TIP3    H115048   5.132   2.321   5.978  1.3400 -0.0841 -1.1117
 5035TIP3    H215049   5.202   2.390   6.093  0.2308  0.7819 -0.9410
 5036TIP3   OH215050   6.044   5.786   1.444  0.2007  0.3716  0.0252
 5036TIP3    H115051   5.990   5.708   1.435  0.6003  0.0863  0.1048
 5036TIP3    H215052   6.066   5.811   1.354 -0.7527  0.9755 -0.0501
 5037TIP3   OH215053   7.558   7.493   1.108 -0.0008  0.1278  0.5072
 5037TIP3    H115054   7.608   7.544   1.045 -0.3489 -0.3478 -0.1560
 5037TIP3    H215055   7.533   7.414   1.061  0.7603 -0.7903  1.6196
 5038TIP3   OH215056   6.710   7.557   1.463 -0.1676 -0.4568  0.1113
 5038TIP3    H115057   6.663   7.640   1.458 -0.7851 -0.7384  1.2492
 5038TIP3    H215058   6.721   7.540   1.556  1.2206 -0.9486 -0.1205
 5039TIP3   OH215059   6.808   5.222   4.479 -0.2163  0.3477 -0.2776
 5039TIP3    H115060   6.731   5.164   4.478 -0.3808  0.5455  0.4856
 5039TIP3    H215061   6.790   5.284   4.550  1.4339 -0.6779  1.0909
 5040TIP3   OH215062   6.943   7.158   1.549  0.0003  0.1360 -0.3515
 5040TIP3    H115063   6.960   7.069   1.580  1.2685 -0.0292 -1.5044
 5040TIP3    H215064   7.023   7.185   1.504 -0.5647  1.6568 -0.5052
 5041TIP3   OH215065   1.296   0.200   2.074 -0.1316 -0.2827 -0.0134
 5041TIP3    H115066   1.376   0.192   2.125  0.9201  1.6610 -1.2868
 5041TIP3    H215067   1.317   0.161   1.989 -0.1963  1.1092 -0.6856
 5042TIP3   OH215068   4.499   1.902   6.247 -0.4747 -0.5844 -0.5148
 5042TIP3    H115069   4.463   1.984   6.213  2.0830  1.0592  0.5773
 5042TIP3    H215070   4.475   1.903   6.340  3.5038  1.2674  0.5754
 5043TIP3   OH215071   6.425   7.078   3.475 -0.0901 -0.1183 -0.0016
 5043TIP3    H115072   6.391   7.070   3.564  1.0576  0.7192  0.5234
 5043TIP3    H215073   6.351   7.109   3.424  0.0722  2.5532  1.3095
 5044TIP3   OH215074   8.140   7.192   1.078 -0.7664 -0.3395 -0.4054
 5044TIP3    H115075   8.137   7.231   1.166 -0.6668 -0.3707 -0.3877
 5044TIP3    H215076   8.164   7.265   1.021  0.1041 -0.5164 -0.2817
 5045TIP3   OH215077   7.390   5.987   0.399  0.0019  0.3417 -0.4908
 5045TIP3    H115078   7.447   5.911   0.396  1.9384  1.8398 -2.7909
 5045TIP3    H215079   7.428   6.043   0.467 -0.5673 -0.0556  0.1641
 5046TIP3   OH215080   8.428   6.907   1.035  0.6931  0.5299 -0.0379
 5046TIP3    H115081   8.487   6.835   1.017 -0.0963  0.0694 -0.8744
 5046TIP3    H215082   8.380   6.881   1.113 -0.8815 -0.7067 -1.3735
 5047TIP3   OH215083   6.640   7.538   1.010 -0.0098  0.1296 -0.2390
 5047TIP3    H115084   6.687   7.542   1.093 -0.3239  2.3509 -0.1272
 5047TIP3    H215085   6.710   7.536   0.943  0.2377 -0.4122  0.0321
 5048TIP3   OH215086   1.211   5.333   1.898  0.1153  0.3264 -0.0085
 5048TIP3    H115087   1.279   5.274   1.931  0.0747 -0.3252 -1.0529
 5048TIP3    H215088   1.181   5.291   1.817 -0.4295  1.4132 -0.3733
 5049TIP3   OH215089   6.450   6.420   3.916  1.0293  0.3187  0.4987
 5049TIP3    H115090   6.445   6.383   3.827 -3.2116 -0.4016  0.9333
 5049TIP3    H215091   6.457   6.514   3.902  1.2083  0.1538 -0.5797
 5050TIP3   OH215092   6.651   6.892   1.281 -0.2022  0.1061  0.1887
 5050TIP3    H115093   6.642   6.979   1.241 -1.4339  0.4280  1.1199
 5050TIP3    H215094   6.564   6.853   1.273  0.3591 -1.0557 -0.2464
 5051TIP3   OH215095   7.462   4.454   1.674  0.0979 -0.2130  0.1605
 5051TIP3    H115096   7.552   4.422   1.661  0.4620  0.7882  0.1892
 5051TIP3    H215097   7.460   4.482   1.766 -0.8866 -2.2499  0.7924
 5052TIP3   OH215098   7.616   5.430   2.062 -0.5538  0.3865 -0.0192
 5052TIP3    H115099   7.706   5.442   2.094 -0.4848 -1.4832  0.5400
 5052TIP3    H215100   7.561   5.462   2.134 -0.3557 -1.0948  0.8137
 5053TIP3   OH215101   8.183   5.079   0.725  0.6603  0.3271 -0.4745
 5053TIP3    H115102   8.271   5.102   0.753  0.4269  0.1082  0.4507
 5053TIP3    H215103   8.131   5.080   0.805  0.1137 -0.9212 -0.7939
 5054TIP3   OH215104   7.399   6.164   0.771 -0.3387  0.0554 -0.1661
 5054TIP3    H115105   7.326   6.126   0.723  0.1468 -1.0341 -0.0608
 5054TIP3    H215106   7.366   6.177   0.860 -0.1048 -1.4253  0.1608
 5055TIP3   OH215107   6.149   4.746   3.267  0.0679  0.2237  0.2338
 5055TIP3    H115108   6.162   4.783   3.354  0.7369  0.0740  0.2042
 5055TIP3    H215109   6.220   4.682   3.258 -0.8298 -0.7628  0.1291
 5056TIP3   OH215110   7.130   5.842   1.982 -0.5882 -0.3574  0.5015
 5056TIP3    H115111   7.137   5.926   2.027  2.3689  0.4950 -1.3802
 5056TIP3    H215112   7.180   5.781   2.037 -0.4512 -0.2693  0.4738
 5057TIP3   OH215113   7.260   6.841   1.762  0.1635  0.2344 -0.1448
 5057TIP3    H115114   7.262   6.763   1.817  0.2728  0.5196  0.2563
 5057TIP3    H215115   7.193   6.822   1.695  0.4892 -0.3648 -0.2982
 5058TIP3   OH215116   2.897   2.705   6.409 -0.2463 -0.3203 -0.1506
 5058TIP3    H115117   2.841   2.634   6.381 -1.3724  0.1051  0.9602
 5058TIP3    H215118   2.866   2.782   6.360  0.3591 -0.3923 -0.6566
 5059TIP3   OH215119   6.513   7.301   0.963 -0.6035 -0.0861  0.2481
 5059TIP3    H115120   6.547   7.389   0.982 -0.5035 -0.1061  0.1603
 5059TIP3    H215121   6.442   7.289   1.026  0.4584 -0.5919  1.3590
 5060TIP3   OH215122   6.896   7.287   1.144  0.7272  0.5505  0.6369
 5060TIP3    H115123   6.906   7.192   1.136 -1.7285  0.5292 -3.2380
 5060TIP3    H215124   6.964   7.323   1.087 -0.3425  1.0121 -0.3670
 5061TIP3   OH215125   1.507   7.824   1.409 -0.5329  0.1763 -0.2388
 5061TIP3    H115126   1.569   7.751   1.415 -1.9325 -0.9424  1.0051
 5061TIP3    H215127   1.560   7.902   1.426 -0.0233 -1.0516  4.6614
 5062TIP3   OH215128   7.357   4.451   2.816 -0.0609  0.7292 -0.0127
 5062TIP3    H115129   7.368   4.428   2.908  2.1079  0.4678 -0.3226
 5062TIP3    H215130   7.378   4.544   2.812 -0.8561  0.9130 -0.1520
 5063TIP3   OH215131   8.041   6.173   1.068  0.2428 -0.0050 -0.5320
 5063TIP3    H115132   8.121   6.127   1.042 -0.2803 -0.8420 -0.7182
 5063TIP3    H215133   7.971   6.110   1.050 -0.2023 -0.4751  2.5362
 5064TIP3   OH215134   6.770   4.756   1.056  0.2845 -0.2007 -0.4330
 5064TIP3    H115135   6.726   4.727   0.976 -0.7693 -0.4650  0.2259
 5064TIP3    H215136   6.793   4.847   1.039  0.0564 -0.2527 -1.0406
 5065TIP3   OH215137   7.811   5.349   3.443  0.1598 -1.0610  0.1314
 5065TIP3    H115138   7.864   5.312   3.374 -1.2716 -0.1371 -1.5072
 5065TIP3    H215139   7.844   5.438   3.454 -0.1346 -0.9396  0.0573
 5066TIP3   OH215140   4.216   1.844   6.762 -0.0230 -0.0206  0.3084
 5066TIP3    H115141   4.285   1.800   6.710  0.1885  1.6987 -0.9079
 5066TIP3    H215142   4.136   1.800   6.736  0.3284 -0.4695 -0.0310
 5067TIP3   OH215143   6.221   5.633   1.221 -0.5124  0.0147 -0.3281
 5067TIP3    H115144   6.141   5.647   1.169 -0.6088  0.4159 -0.0738
 5067TIP3    H215145   6.200   5.558   1.276 -0.6464 -0.0004 -0.3975
 5068TIP3   OH215146   4.151   6.700   1.752 -0.0147 -0.2496  0.3279
 5068TIP3    H115147   4.060   6.693   1.723  0.4590  1.5323 -1.7301
 5068TIP3    H215148   4.145   6.711   1.847 -1.8032 -2.5917  0.5201
 5069TIP3   OH215149   8.460   7.786   0.736  0.0696  0.3864  0.2317
 5069TIP3    H115150   8.447   7.874   0.701  0.4307 -0.2405 -1.4853
 5069TIP3    H215151   8.554   7.782   0.756  0.4048 -0.2225 -1.4055
 5070TIP3   OH215152   4.848   6.808   0.223  0.2232 -0.1356  0.1176
 5070TIP3    H115153   4.764   6.850   0.205 -0.1852 -1.3456 -0.8746
 5070TIP3    H215154   4.913   6.870   0.190 -0.4243 -0.8823 -2.6717
 5071TIP3   OH215155   1.788   1.887   3.417 -0.3766  0.1529 -0.0213
 5071TIP3    H115156   1.706   1.929   3.442 -0.4827 -0.5316  0.7758
 5071TIP3    H215157   1.841   1.889   3.496  0.5278  0.9389 -0.6349
 5072TIP3   OH215158   1.747   8.006   1.508  0.0677  0.0567 -0.3457
 5072TIP3    H115159   1.816   8.071   1.501 -0.4254  0.8808  2.1472
 5072TIP3    H215160   1.788   7.931   1.550 -0.3244  0.1994  0.2925
 5073TIP3   OH215161   7.855   6.301   1.312 -0.1938  0.4018  0.0904
 5073TIP3    H115162   7.868   6.258   1.228  0.4241 -0.8239  0.7888
 5073TIP3    H215163   7.766   6.277   1.338  0.5964 -1.6251  1.0906
 5074TIP3   OH215164   3.798   2.937   3.615  0.2592  0.4717  0.4469
 5074TIP3    H115165   3.731   2.977   3.671 -1.6005  0.3162 -1.5863
 5074TIP3    H215166   3.786   2.980   3.530  3.3031  1.0025  0.2511
 5075TIP3   OH215167   6.288   6.503   0.607  0.6393 -0.3303  0.4653
 5075TIP3    H115168   6.203   6.539   0.581  1.9668  1.7368 -1.1276
 5075TIP3    H215169   6.343   6.580   0.622  2.4413 -1.6631  0.8257
 5076TIP3   OH215170   6.220   6.526   0.272  0.3632  0.3569 -0.3681
 5076TIP3    H115171   6.126   6.513   0.262  0.4428  0.0863 -0.7962
 5076TIP3    H215172   6.249   6.451   0.325  0.3768  0.3029 -0.4513
 5077TIP3   OH215173   2.113   3.295   6.014 -0.9766 -0.2075  0.4813
 5077TIP3    H115174   2.191   3.342   5.985 -0.9133 -1.0628 -0.7539
 5077TIP3    H215175   2.141   3.250   6.093  0.2486 -1.7766 -0.8244
 5078TIP3   OH215176   7.736   5.022   1.175  0.0847 -0.2785  0.6043
 5078TIP3    H115177   7.703   5.037   1.086  2.6947  1.7574 -0.0935
 5078TIP3    H215178   7.657   5.019   1.230 -1.3945  1.8879 -1.3128
 5079TIP3   OH215179   3.938   2.647   5.667  0.7554 -0.1192  0.0106
 5079TIP3    H115180   3.989   2.642   5.748  0.0224  0.6754  0.5267
 5079TIP3    H215181   3.967   2.729   5.627  0.8140 -0.3079 -0.3359
 5080TIP3   OH215182   5.701   1.817   6.648  0.3272 -0.2255  0.0605
 5080TIP3    H115183   5.647   1.787   6.575 -0.7190  0.9136  0.3626
 5080TIP3    H215184   5.725   1.737   6.695  1.3984 -1.0135 -1.7789
 5081TIP3   OH215185   8.340   5.055   1.753 -0.6464  0.0355  0.1334
 5081TIP3    H115186   8.325   5.143   1.719  0.6388  0.0792 -0.3516
 5081TIP3    H215187   8.434   5.039   1.738 -1.0975 -1.8500 -0.8514
 5082TIP3   OH215188   6.268   5.975   2.745  0.4779  0.3731 -0.0681
 5082TIP3    H115189   6.196   5.924   2.781  0.8973  1.2473  2.1006
 5082TIP3    H215190   6.236   6.007   2.661 -0.4378 -1.9543 -0.6383
 5083TIP3   OH215191   5.165   4.841   1.037  0.3624  0.1493  0.1635
 5083TIP3    H115192   5.138   4.841   1.129  1.1623 -1.3141  0.4123
 5083TIP3    H215193   5.104   4.782   0.994 -0.4334  1.3598 -0.3886
 5084TIP3   OH215194   4.657   2.850   5.075  0.2450  0.1892  0.0130
 5084TIP3    H115195   4.670   2.942   5.049 -1.4982 -0.0511 -1.8645
 5084TIP3    H215196   4.710   2.800   5.012  1.9318 -0.0702  1.6108
 5085TIP3   OH215197   8.065   5.065   0.978 -0.5230  0.3922  0.2599
 5085TIP3    H115198   8.018   5.110   1.049 -0.7342  2.1485 -0.9509
 5085TIP3    H215199   7.999   5.009   0.937 -0.7695  0.4886  0.5238
 5086TIP3   OH215200   5.500   4.851   1.917 -0.3294  0.6427 -0.4670
 5086TIP3    H115201   5.517   4.843   2.011 -0.1930 -3.0495 -0.7280
 5086TIP3    H215202   5.407   4.873   1.911 -0.0763  2.0825  0.5206
 5087TIP3   OH215203   7.277   3.297   1.241 -0.0475 -0.3139 -0.2846
 5087TIP3    H115204   7.185   3.315   1.263  0.4470  0.6597  1.0477
 5087TIP3    H215205   7.327   3.344   1.308  1.4058 -1.8527 -0.2758
 5088TIP3   OH215206   0.103   6.243   2.555 -0.0315  0.1150  0.6998
 5088TIP3    H115207   0.130   6.334   2.562 -0.4887  0.4683 -1.6275
 5088TIP3    H215208   0.037   6.242   2.486  0.2285 -2.0238  0.4235
 5089TIP3   OH215209   0.309   4.429   2.144  0.0454  0.2405  0.5756
 5089TIP3    H115210   0.256   4.361   2.103  0.4097  1.1164 -1.3711
 5089TIP3    H215211   0.354   4.384   2.216 -0.5612 -1.3242 -0.0133
 5090TIP3   OH215212   8.445   7.895   3.732  0.2411 -0.0653  0.4997
 5090TIP3    H115213   8.406   7.844   3.803  0.7746 -1.3950 -0.1276
 5090TIP3    H215214   8.435   7.838   3.655  1.6662  0.4102 -0.0445
 5091TIP3   OH215215   1.910   5.358   1.684  0.3926 -0.0912 -0.3433
 5091TIP3    H115216   1.885   5.304   1.758  0.7282  0.2774  0.0494
 5091TIP3    H215217   1.883   5.447   1.708  3.9157  0.7019  1.0558
 5092TIP3   OH215218   1.369   4.758   1.565  0.8515  0.5666 -0.1002
 5092TIP3    H115219   1.434   4.826   1.546  0.5283  0.7294 -0.6302
 5092TIP3    H215220   1.324   4.790   1.644 -0.0259  1.5029 -0.9639
 5093TIP3   OH215221   8.229   4.481   3.248  0.5089 -0.0799  0.0133
 5093TIP3    H115222   8.182   4.507   3.327  1.0943 -0.2992  0.4402
 5093TIP3    H215223   8.198   4.542   3.181 -1.9860 -1.5665 -0.2488
 5094TIP3   OH215224   6.541   5.999   0.795  0.1277 -0.0713 -0.1531
 5094TIP3    H115225   6.525   5.961   0.881  0.7237 -1.1596 -0.5210
 5094TIP3    H215226   6.599   5.937   0.750 -1.6074 -0.4079 -2.0029
 5095TIP3   OH215227   0.641   6.923   2.454 -0.2898  0.0890 -0.3487
 5095TIP3    H115228   0.599   6.837   2.461  1.3925 -0.7825 -0.6329
 5095TIP3    H215229   0.570   6.985   2.465 -1.1348 -1.3231  2.6333
 5096TIP3   OH215230   2.960   1.904   2.220 -0.1857  0.5451 -0.3391
 5096TIP3    H115231   3.034   1.844   2.217  0.3837  1.2042  0.3468
 5096TIP3    H215232   2.917   1.894   2.135  1.2928  0.9176 -1.1396
 5097TIP3   OH215233   7.374   5.610   3.461 -0.3887  0.2872 -0.6363
 5097TIP3    H115234   7.287   5.614   3.423 -0.2142  2.2576 -0.9124
 5097TIP3    H215235   7.414   5.531   3.424 -1.2798  0.5636 -2.2192
 5098TIP3   OH215236   7.914   5.944   1.053 -0.0120  0.7956 -0.1367
 5098TIP3    H115237   7.848   5.907   1.112  1.4370  1.6462  2.0772
 5098TIP3    H215238   7.896   5.903   0.969 -2.5127 -0.0112  0.7281
 5099TIP3   OH215239   1.791   5.211   3.075 -0.2834 -0.1488 -0.0147
 5099TIP3    H115240   1.800   5.128   3.123  0.4690  0.7815  1.4757
 5099TIP3    H215241   1.717   5.255   3.117  0.4524  0.7200  0.3938
 5100TIP3   OH215242   0.695   6.663   4.445 -0.2607 -1.0797  0.0602
 5100TIP3    H115243   0.638   6.616   4.506 -0.2744 -1.2040 -0.0467
 5100TIP3    H215244   0.782   6.628   4.461  0.1761  0.7153  1.8077
 5101TIP3   OH215245   1.338   5.637   1.671  0.1913  0.5707 -0.6702
 5101TIP3    H115246   1.381   5.552   1.657  0.5684  0.6208  0.1531
 5101TIP3    H215247   1.397   5.684   1.731 -0.8120  0.7967  0.1500
 5102TIP3   OH215248   7.912   5.515   2.793 -0.4371  0.4123 -0.4904
 5102TIP3    H115249   7.893   5.521   2.886  1.5140  1.7146 -0.1430
 5102TIP3    H215250   7.943   5.602   2.769 -1.2308  0.1865 -2.4336
 5103TIP3   OH215251   0.683   4.803   2.152  0.3471 -0.4771  0.7020
 5103TIP3    H115252   0.592   4.825   2.174  0.8166 -0.4344  2.7464
 5103TIP3    H215253   0.717   4.881   2.108 -0.8434 -0.8212 -0.8807
 5104TIP3   OH215254   7.769   4.663   3.274  0.3154 -0.3534  0.1025
 5104TIP3    H115255   7.803   4.648   3.363 -0.6281  1.6879  0.8227
 5104TIP3    H215256   7.765   4.758   3.266 -1.2837 -0.5491 -1.5067
 5105TIP3   OH215257   5.004   2.230   6.481  0.0647  0.3431  0.5418
 5105TIP3    H115258   5.025   2.315   6.443  2.2591 -0.6231 -0.5468
 5105TIP3    H215259   4.981   2.175   6.405  0.8848 -0.6156  0.9656
 5106TIP3   OH215260   2.116   7.335   1.106  0.5725 -0.3866 -0.8215
 5106TIP3    H115261   2.029   7.336   1.146  0.8460 -0.4767 -0.2221
 5106TIP3    H215262   2.107   7.388   1.027  0.6183  1.8322  0.6181
 5107TIP3   OH215263   1.322   6.462   3.331  0.2029  0.2314  0.2957
 5107TIP3    H115264   1.286   6.491   3.415  2.4124 -0.9954  1.7005
 5107TIP3    H215265   1.350   6.543   3.288 -1.7149  0.9441  0.3614
 5108TIP3   OH215266   7.545   3.041   2.761 -0.2630 -1.3027  0.1172
 5108TIP3    H115267   7.480   2.984   2.719  1.3835  0.4403 -5.1728
 5108TIP3    H215268   7.522   3.129   2.731  2.6635 -0.2803  0.7557
 5109TIP3   OH215269   1.642   1.147   4.192 -0.1765 -0.3301  0.4118
 5109TIP3    H115270   1.697   1.092   4.135  0.7441  0.5366  0.4416
 5109TIP3    H215271   1.598   1.085   4.250  0.5644 -1.0701  0.2018
 5110TIP3   OH215272   1.753   6.136   0.289  0.5608  0.1346 -0.0654
 5110TIP3    H115273   1.700   6.196   0.340  1.9202  0.5591  0.8690
 5110TIP3    H215274   1.723   6.148   0.199 -1.2764 -0.0214  0.5105
 5111TIP3   OH215275   1.134   6.053   4.679  0.0212  0.6360  0.0307
 5111TIP3    H115276   1.046   6.045   4.642  0.6368  1.9340 -1.7696
 5111TIP3    H215277   1.120   6.061   4.773 -1.8761  2.3731 -0.3755
 5112TIP3   OH215278   8.036   7.681   0.123 -0.4154 -0.1153  0.1232
 5112TIP3    H115279   8.109   7.621   0.108 -0.7227 -0.5540  0.3643
 5112TIP3    H215280   7.960   7.624   0.132 -0.7843  0.3398 -0.0978
 5113TIP3   OH215281   8.014   6.442   1.788  0.2128  0.0205  0.4446
 5113TIP3    H115282   8.010   6.431   1.693  2.6702 -0.7893  0.4003
 5113TIP3    H215283   8.091   6.391   1.815 -0.4401  0.2513  2.8699
 5114TIP3   OH215284   7.717   4.918   2.005  0.0397 -0.5107 -0.0969
 5114TIP3    H115285   7.792   4.978   2.008  1.7318 -2.6158  0.5977
 5114TIP3    H215286   7.677   4.934   1.919  1.4948  0.3981 -0.6204
 5115TIP3   OH215287   7.656   5.637   2.537  0.2948 -0.3627  0.1158
 5115TIP3    H115288   7.643   5.544   2.522 -0.4445  0.1062 -2.3031
 5115TIP3    H215289   7.597   5.659   2.609 -0.1046 -1.5920  0.1650
 5116TIP3   OH215290   1.544   6.631   1.687 -0.2695 -0.1044  0.6821
 5116TIP3    H115291   1.573   6.634   1.596 -0.4553 -0.9895  0.5880
 5116TIP3    H215292   1.463   6.682   1.688  0.2729  0.7592  0.5589
 5117TIP3   OH215293   2.119   6.365   3.239  0.1740 -0.2849  0.6204
 5117TIP3    H115294   2.038   6.329   3.202  0.8380 -0.0401 -1.1172
 5117TIP3    H215295   2.179   6.291   3.242  1.1334  0.3486 -1.7835
 5118TIP3   OH215296   7.006   5.741   3.486  0.0576 -0.6695  0.3729
 5118TIP3    H115297   7.090   5.786   3.480  0.2757 -1.0214  0.7833
 5118TIP3    H215298   6.977   5.756   3.576 -0.4239 -0.3646  0.1720
 5119TIP3   OH215299   7.035   6.503   2.300  0.1790 -0.1293 -0.4281
 5119TIP3    H115300   6.980   6.569   2.257  1.7278  0.2704 -1.8338
 5119TIP3    H215301   7.004   6.419   2.266 -0.3450  0.0116 -0.3022
 5120TIP3   OH215302   6.711   5.403   2.563 -0.4477 -0.0636 -0.6090
 5120TIP3    H115303   6.667   5.464   2.504 -0.9189  0.8503  0.6587
 5120TIP3    H215304   6.767   5.459   2.618  1.0180 -1.0409 -1.0870
 5121TIP3   OH215305   7.662   7.002   3.913 -0.0260 -0.0620 -0.3642
 5121TIP3    H115306   7.698   7.056   3.842 -0.8065  1.2744  0.2308
 5121TIP3    H215307   7.724   7.013   3.985 -0.2072  0.0938 -0.2290
 5122TIP3   OH215308   5.506   0.256   2.687 -0.0606 -0.2059 -0.1599
 5122TIP3    H115309   5.556   0.176   2.676  0.8968  0.3578  0.0408
 5122TIP3    H215310   5.535   0.313   2.615 -0.2245  0.2203  0.1063
 5123TIP3   OH215311   0.802   5.313   1.787  0.3472 -0.0289  0.5724
 5123TIP3    H115312   0.856   5.312   1.708 -0.7365  0.0314 -0.1786
 5123TIP3    H215313   0.822   5.397   1.829  0.3966  0.2486 -0.0073
 5124TIP3   OH215314   1.854   4.122   0.926  0.0087  0.6581 -0.9586
 5124TIP3    H115315   1.793   4.157   0.861 -1.7747  0.8396  0.7675
 5124TIP3    H215316   1.800   4.107   1.004  1.9164 -0.4228  0.1906
 5125TIP3   OH215317   2.022   1.034   3.810  0.1620 -0.0909 -0.4408
 5125TIP3    H115318   2.008   1.058   3.718 -0.3175  1.7306  0.0834
 5125TIP3    H215319   2.111   1.064   3.829 -0.7215  2.0703  0.4417
 5126TIP3   OH215320   1.731   7.637   1.842  0.2266  0.3718  0.3018
 5126TIP3    H115321   1.696   7.584   1.771 -0.2528  1.9172 -0.6344
 5126TIP3    H215322   1.654   7.666   1.891  0.2668  2.3267 -0.7289
 5127TIP3   OH215323   1.529   7.504   3.152  0.1756  0.1822  0.5018
 5127TIP3    H115324   1.501   7.562   3.224 -1.8424 -0.9373  0.6412
 5127TIP3    H215325   1.588   7.441   3.194 -2.6478 -1.7733  1.6472
 5128TIP3   OH215326   7.897   5.442   2.153 -0.4907 -0.0528  0.1433
 5128TIP3    H115327   7.900   5.536   2.136 -1.3377  0.0441  0.5013
 5128TIP3    H215328   7.978   5.409   2.116 -0.6292  0.6831 -0.8546
 5129TIP3   OH215329   2.006   6.114   0.456  0.3104 -0.3021 -0.3667
 5129TIP3    H115330   2.000   6.141   0.364  0.3384  1.1781  0.0540
 5129TIP3    H215331   1.996   6.195   0.506  1.4287 -0.9379  0.9235
 5130TIP3   OH215332   2.702   5.328   1.820  0.0047  0.2405 -0.2465
 5130TIP3    H115333   2.646   5.318   1.743  0.7116 -2.0192 -0.4906
 5130TIP3    H215334   2.788   5.352   1.784  0.1996 -0.2725 -0.1184
 5131TIP3   OH215335   2.589   6.813   0.912  0.5107 -0.1643  0.2489
 5131TIP3    H115336   2.649   6.747   0.878 -0.3826 -0.4069 -0.8547
 5131TIP3    H215337   2.522   6.823   0.844 -1.4475 -0.8673  2.0119
 5132TIP3   OH215338   1.432   6.126   2.089 -0.0032 -0.2609 -0.6583
 5132TIP3    H115339   1.411   6.124   2.183 -1.3997 -1.8004 -0.9663
 5132TIP3    H215340   1.431   6.219   2.066  1.7957  0.2556  1.1372
 5133TIP3   OH215341   7.511   4.866   2.188  0.3592 -0.3674 -0.0632
 5133TIP3    H115342   7.485   4.957   2.201 -1.6089 -0.9301  0.0994
 5133TIP3    H215343   7.581   4.870   2.124  1.2504  1.3753  0.9988
 5134TIP3   OH215344   0.308   5.931   3.234 -0.2076 -0.0361 -0.0108
 5134TIP3    H115345   0.265   6.013   3.211  0.3952 -0.6310 -3.5753
 5134TIP3    H215346   0.388   5.930   3.180  0.1850 -2.6010  0.5554
 5135TIP3   OH215347   1.243   5.786   1.118 -0.0631  0.3199 -0.2067
 5135TIP3    H115348   1.273   5.876   1.109  4.6324 -0.9117  1.8874
 5135TIP3    H215349   1.237   5.771   1.212 -2.6466 -1.0313 -0.5294
 5136TIP3   OH215350   4.938   2.312   3.178  0.1827  0.4117  0.3515
 5136TIP3    H115351   5.030   2.318   3.205  0.0677  1.4022  0.5612
 5136TIP3    H215352   4.937   2.345   3.089  0.2850 -1.2025 -0.2654
 5137TIP3   OH215353   5.888   0.097   3.416  0.1327  0.4718  0.3562
 5137TIP3    H115354   5.859   0.070   3.329  0.2912  1.3976  0.0201
 5137TIP3    H215355   5.983   0.094   3.412  0.1371 -1.4712  1.1267
 5138TIP3   OH215356   1.302   6.630   3.091 -0.1953 -0.1840 -0.6780
 5138TIP3    H115357   1.272   6.655   3.004  0.1994 -2.6102 -1.5471
 5138TIP3    H215358   1.223   6.634   3.145 -0.4707  1.1883 -1.1648
 5139TIP3   OH215359   2.120   6.479   2.151  0.0946  0.1700 -0.0454
 5139TIP3    H115360   2.143   6.571   2.138  2.1970 -0.4890 -1.2296
 5139TIP3    H215361   2.027   6.481   2.172 -0.2651  2.4520 -1.6082
 5140TIP3   OH215362   1.143   7.767   3.906  0.3794 -0.0825  0.2370
 5140TIP3    H115363   1.124   7.834   3.972 -0.9246 -0.7620  0.5720
 5140TIP3    H215364   1.237   7.777   3.887 -0.0807  2.7405 -0.7569
 5141TIP3   OH215365   0.543   6.926   2.925  0.2671  0.0480 -0.3738
 5141TIP3    H115366   0.463   6.945   2.877 -1.2508 -1.4387  1.4867
 5141TIP3    H215367   0.611   6.920   2.858 -1.0201  2.1251 -1.8953
 5142TIP3   OH215368   0.571   5.665   3.391 -0.3831  0.4037  0.4428
 5142TIP3    H115369   0.650   5.678   3.339  1.6931 -1.7309  2.8974
 5142TIP3    H215370   0.514   5.611   3.336  0.8877 -0.0539 -0.4420
 5143TIP3   OH215371   1.301   5.066   1.389 -0.2263  0.1794 -0.2173
 5143TIP3    H115372   1.326   5.060   1.297  0.8941 -1.9889  0.2082
 5143TIP3    H215373   1.380   5.043   1.437 -1.3515 -0.6751  1.2556
 5144TIP3   OH215374   1.429   6.291   3.133  0.2521  0.4303 -0.1871
 5144TIP3    H115375   1.478   6.214   3.162 -0.9543 -0.9210 -1.6368
 5144TIP3    H215376   1.409   6.338   3.214  0.8135 -0.8918  0.7435
 5145TIP3   OH215377   8.313   5.664   1.340  0.1992  0.1369 -0.0689
 5145TIP3    H115378   8.302   5.757   1.360 -1.9547 -0.2949  0.9718
 5145TIP3    H215379   8.307   5.660   1.244 -2.4222  0.8002  0.0244
 5146TIP3   OH215380   2.837   6.549   2.623 -0.7269 -0.4135  0.3252
 5146TIP3    H115381   2.872   6.527   2.536  1.1475  0.6623  0.7885
 5146TIP3    H215382   2.857   6.641   2.635 -3.6645  0.2205  0.6918
 5147TIP3   OH215383   5.021   0.180   3.201 -0.3948 -0.0867 -0.0868
 5147TIP3    H115384   5.049   0.253   3.256  0.8200 -1.2369  0.8488
 5147TIP3    H215385   5.026   0.213   3.112 -0.7149  1.2554  0.3911
 5148TIP3   OH215386   2.199   6.195   1.647 -0.2765  0.2993 -0.5542
 5148TIP3    H115387   2.128   6.151   1.694  0.4942  0.9520  1.3050
 5148TIP3    H215388   2.203   6.151   1.562 -2.2618 -0.3807 -0.3270
 5149TIP3   OH215389   1.783   5.493   1.367  0.1567 -0.5465  0.7332
 5149TIP3    H115390   1.771   5.523   1.457 -0.3881  1.0396  0.1487
 5149TIP3    H215391   1.840   5.558   1.327 -0.6406 -0.5424 -0.4327
 5150TIP3   OH215392   2.934   7.947   1.777 -0.4948 -0.3323  0.1136
 5150TIP3    H115393   2.971   8.025   1.819 -0.1088 -0.7214  0.5082
 5150TIP3    H215394   2.915   7.974   1.687 -0.9437  0.3914  0.4223
 5151TIP3   OH215395   4.753   1.936   2.861  0.1411 -0.3335  0.6123
 5151TIP3    H115396   4.726   1.929   2.770 -2.4165  0.6329  1.2450
 5151TIP3    H215397   4.781   1.848   2.885  1.1600 -0.5174 -1.1852
 5152TIP3   OH215398   4.439   0.615   3.294  0.0230  0.1746 -0.4918
 5152TIP3    H115399   4.378   0.617   3.368 -1.6722 -2.2481 -1.7856
 5152TIP3    H215400   4.519   0.576   3.330 -0.2473  0.4340  0.4137
 5153TIP3   OH215401   1.759   0.883   1.173  0.3349  0.3033  0.3044
 5153TIP3    H115402   1.766   0.892   1.078 -0.3454 -0.1580  0.2060
 5153TIP3    H215403   1.783   0.791   1.190 -0.8437  0.0124  0.4345
 5154TIP3   OH215404   1.434   7.706   2.612  0.1643 -0.9593 -0.0166
 5154TIP3    H115405   1.511   7.685   2.558  0.0481 -2.4960  0.3968
 5154TIP3    H215406   1.371   7.743   2.550  0.6755 -1.0973 -0.6281
 5155TIP3   OH215407   2.718   0.402   3.550 -0.0175  0.3351 -0.2462
 5155TIP3    H115408   2.660   0.402   3.473  1.5480  1.4790 -1.4565
 5155TIP3    H215409   2.755   0.314   3.551  0.3133  0.4540 -1.1070
 5156TIP3   OH215410   0.929   7.130   4.121 -0.3105 -0.1554 -0.2126
 5156TIP3    H115411   0.983   7.209   4.124 -1.4126  0.5938  4.5983
 5156TIP3    H215412   0.992   7.058   4.127  0.3815  0.6235  2.5954
 5157TIP3   OH215413   4.529   0.729   3.722 -0.0526 -0.8535  0.3379
 5157TIP3    H115414   4.568   0.805   3.678  1.8552 -2.0037 -0.0110
 5157TIP3    H215415   4.495   0.765   3.805 -1.4137  0.8339 -0.9112
 5158TIP3   OH215416   1.747   7.824   0.449 -0.3415 -0.2301  0.0659
 5158TIP3    H115417   1.732   7.831   0.543  2.3818 -0.0043  0.5110
 5158TIP3    H215418   1.659   7.820   0.411 -1.4547 -0.9282  2.6443
 5159TIP3   OH215419   3.701   7.318   3.201 -0.0703 -0.3258  0.3912
 5159TIP3    H115420   3.762   7.392   3.204 -0.4935  0.0537 -0.1466
 5159TIP3    H215421   3.617   7.358   3.177 -0.1082 -1.0968 -0.8047
 5160TIP3   OH215422   8.333   7.940   1.760  0.0136 -0.7266 -0.5744
 5160TIP3    H115423   8.249   7.983   1.743 -0.6407 -2.1285 -0.9725
 5160TIP3    H215424   8.396   7.987   1.706 -0.2338  1.2278  0.7637
 5161TIP3   OH215425   0.138   7.261   3.478  0.1209  0.5421 -0.2651
 5161TIP3    H115426   0.092   7.262   3.562 -0.8075  2.4308 -0.7716
 5161TIP3    H215427   0.231   7.270   3.503 -0.1952  1.7194  0.5376
 5162TIP3   OH215428   5.158   0.270   5.847  0.2903  0.1327 -0.4518
 5162TIP3    H115429   5.118   0.261   5.761 -1.5013  1.3305  0.2237
 5162TIP3    H215430   5.124   0.195   5.897 -0.0540  0.4037 -0.2775
 5163TIP3   OH215431   2.410   1.032   1.146  0.3128  0.4393 -0.7702
 5163TIP3    H115432   2.325   1.062   1.115 -0.6022 -0.3777  0.9158
 5163TIP3    H215433   2.424   1.078   1.229  0.0698 -1.7758  0.5389
 5164TIP3   OH215434   1.731   6.037   2.381 -0.0636  0.6988  0.4950
 5164TIP3    H115435   1.791   6.013   2.451 -0.3883  1.9278  1.2213
 5164TIP3    H215436   1.784   6.091   2.321  0.1048  0.0001  0.0092
 5165TIP3   OH215437   0.157   4.137   3.425  0.3105  0.0313  0.2780
 5165TIP3    H115438   0.077   4.116   3.377  1.8009 -2.7186 -1.0763
 5165TIP3    H215439   0.228   4.121   3.363  1.9956  1.4268  1.7764
 5166TIP3   OH215440   0.636   6.620   2.375  0.5120  0.2467  0.3873
 5166TIP3    H115441   0.721   6.620   2.420  1.3832 -2.8364 -1.0893
 5166TIP3    H215442   0.605   6.529   2.383 -1.6259  0.8217 -0.9493
 5167TIP3   OH215443   2.497   6.915   1.342  0.2459 -0.3778 -0.2054
 5167TIP3    H115444   2.417   6.960   1.369  1.4388  0.9632  1.1066
 5167TIP3    H215445   2.567   6.961   1.387  1.6652 -2.3247 -0.3757
 5168TIP3   OH215446   3.888   6.194   1.934 -0.4382  0.5613  0.0705
 5168TIP3    H115447   3.839   6.269   1.970 -0.3088  0.2807  0.8549
 5168TIP3    H215448   3.871   6.197   1.840 -2.4757  0.1062  0.3925
 5169TIP3   OH215449   6.315   7.888   3.652  0.2898  0.0559  0.0145
 5169TIP3    H115450   6.269   7.886   3.736  2.0042  1.0084  1.0138
 5169TIP3    H215451   6.392   7.832   3.665  0.3443 -0.1262 -1.0495
 5170TIP3   OH215452   8.227   4.509   1.160  0.5168 -0.1578  0.0627
 5170TIP3    H115453   8.181   4.592   1.166 -2.0215 -1.6436  2.1235
 5170TIP3    H215454   8.286   4.508   1.235  0.7945 -0.0795 -0.1537
 5171TIP3   OH215455   3.539   7.776   5.685  1.0315 -0.0293  0.4740
 5171TIP3    H115456   3.482   7.843   5.648  0.8346  0.7605  2.1392
 5171TIP3    H215457   3.605   7.826   5.734  2.8356 -0.9481 -0.9704
 5172TIP3   OH215458   5.742   0.235   3.040 -0.2423 -0.0071  0.1301
 5172TIP3    H115459   5.706   0.170   2.980 -0.2805  1.1694 -1.1606
 5172TIP3    H215460   5.670   0.297   3.054  1.0099  2.0014 -1.9358
 5173TIP3   OH215461   1.994   6.796   3.110  0.5323 -1.1893 -0.1889
 5173TIP3    H115462   2.072   6.848   3.132 -0.5918  0.7754 -0.7114
 5173TIP3    H215463   1.933   6.812   3.182 -0.5660 -0.2041 -1.3254
 5174TIP3   OH215464   1.780   7.901   2.583  0.2311  0.2079  0.3355
 5174TIP3    H115465   1.834   7.883   2.506  0.3687  2.0637 -0.0082
 5174TIP3    H215466   1.781   7.819   2.632  0.9725 -0.6735 -1.1282
 5175TIP3   OH215467   2.699   4.098   0.513 -0.2079  0.2060  0.0255
 5175TIP3    H115468   2.735   4.185   0.494 -1.3483  0.7512  0.2872
 5175TIP3    H215469   2.768   4.054   0.562  0.2707  1.0790  0.1588
 5176TIP3   OH215470   0.408   6.728   2.222  0.8010 -0.2858  0.6872
 5176TIP3    H115471   0.405   6.746   2.128  1.4273  1.3929  0.9651
 5176TIP3    H215472   0.498   6.699   2.238  0.3534 -1.7293  0.5679
 5177TIP3   OH215473   8.332   6.801   0.209  0.4275 -0.4261 -0.3042
 5177TIP3    H115474   8.422   6.832   0.194  0.5532 -1.0595 -0.8547
 5177TIP3    H215475   8.288   6.811   0.125  0.3059 -1.2134 -0.3336
 5178TIP3   OH215476   2.228   6.826   1.604  0.2896 -0.3530 -0.2553
 5178TIP3    H115477   2.233   6.817   1.699 -1.1241  0.5281 -0.0772
 5178TIP3    H215478   2.192   6.742   1.574 -1.1366  0.0726  0.2017
 5179TIP3   OH215479   8.272   5.928   2.485 -0.1172 -0.0226 -0.1334
 5179TIP3    H115480   8.292   5.836   2.465 -0.7655 -0.2878  0.4256
 5179TIP3    H215481   8.251   5.967   2.401 -0.3589 -0.5127 -0.3006
 5180TIP3   OH215482   7.757   4.034   2.008  0.4494 -0.3482 -0.5151
 5180TIP3    H115483   7.700   4.107   1.984  2.6506  1.5937 -0.0027
 5180TIP3    H215484   7.823   4.032   1.939  2.3510  0.3473  1.2492
 5181TIP3   OH215485   1.866   6.988   2.170  0.3414  0.2788 -0.5768
 5181TIP3    H115486   1.925   7.025   2.236  0.9656 -0.0132 -0.9728
 5181TIP3    H215487   1.822   6.915   2.215 -1.2670  1.7733  0.3742
 5182TIP3   OH215488   6.699   0.031   5.400 -0.1618  0.5471  0.1147
 5182TIP3    H115489   6.751   0.007   5.324 -0.3112  1.3465 -0.2425
 5182TIP3    H215490   6.639   0.098   5.368 -0.3525  0.7514  0.8889
 5183TIP3   OH215491   0.341   7.288   0.745 -0.1383 -0.2711  0.3538
 5183TIP3    H115492   0.262   7.336   0.721  0.9635  1.8138  0.7508
 5183TIP3    H215493   0.311   7.218   0.802 -1.8293 -0.2854 -0.5345
 5184TIP3   OH215494   8.320   5.638   1.995  0.2432  0.5892 -0.0092
 5184TIP3    H115495   8.340   5.728   1.968  1.1904  0.0081 -1.2988
 5184TIP3    H215496   8.396   5.612   2.047 -0.3950  0.8021  1.0445
 5185TIP3   OH215497   8.069   6.458   1.224  0.0334  0.2194  0.1025
 5185TIP3    H115498   8.080   6.531   1.284 -0.7946 -0.1241  0.6832
 5185TIP3    H215499   7.998   6.406   1.262  0.6108 -0.8856 -0.3018
 5186TIP3   OH215500   1.663   6.778   1.203 -0.1006 -0.0358 -0.8410
 5186TIP3    H115501   1.708   6.704   1.162 -0.7600  0.1098 -1.8229
 5186TIP3    H215502   1.627   6.741   1.284 -0.8984 -0.9389 -1.5901
 5187TIP3   OH215503   1.319   5.569   2.323  0.0359 -0.0674 -0.6081
 5187TIP3    H115504   1.225   5.558   2.336 -0.0076  0.5045 -0.4405
 5187TIP3    H215505   1.340   5.512   2.249  0.2380 -3.1649  1.7195
 5188TIP3   OH215506   8.006   6.905   2.631  1.3642 -0.1006 -0.1637
 5188TIP3    H115507   8.083   6.914   2.686  1.5052  0.2282 -0.4110
 5188TIP3    H215508   7.994   6.991   2.591 -0.1157  0.3332  1.1651
 5189TIP3   OH215509   4.113   0.427   0.081 -0.2786  0.2259  0.5405
 5189TIP3    H115510   4.109   0.470  -0.005 -0.7606 -2.8959 -1.0836
 5189TIP3    H215511   4.029   0.382   0.089  0.3245 -0.6646  2.0301
 5190TIP3   OH215512   2.651   5.853   1.924  0.3944 -0.5227  0.0962
 5190TIP3    H115513   2.676   5.806   2.004  0.6458 -1.0105 -0.2667
 5190TIP3    H215514   2.617   5.785   1.866 -0.0797 -0.1221 -0.0979
 5191TIP3   OH215515   0.083   7.854   1.370 -0.2090  0.2940  0.0358
 5191TIP3    H115516   0.037   7.893   1.295  0.2550  0.7863  0.0117
 5191TIP3    H215517   0.175   7.853   1.344 -0.3108 -1.6748 -0.3469
 5192TIP3   OH215518   1.947   7.014   1.353  0.3363 -0.5607  0.8107
 5192TIP3    H115519   1.912   7.062   1.428  0.0809  0.9415 -0.2569
 5192TIP3    H215520   2.039   7.037   1.350  0.6951 -1.8152  1.5438
 5193TIP3   OH215521   0.510   5.447   2.159 -0.6986 -0.2886  0.8588
 5193TIP3    H115522   0.505   5.514   2.092 -1.7180 -0.6663  0.5394
 5193TIP3    H215523   0.579   5.387   2.129 -1.7542 -0.9410 -0.3126
 5194TIP3   OH215524   0.802   7.884   1.466 -0.3518  0.6832  0.1145
 5194TIP3    H115525   0.875   7.834   1.430 -1.2614 -1.1680  0.8190
 5194TIP3    H215526   0.737   7.819   1.490 -2.0537  2.2785 -0.0368
 5195TIP3   OH215527   2.311   7.086   1.553  0.2858  0.7670 -0.2430
 5195TIP3    H115528   2.266   7.095   1.469  1.0578 -2.0585 -0.9926
 5195TIP3    H215529   2.274   7.006   1.592  1.6062  0.7709  1.0656
 5196TIP3   OH215530   7.972   7.103   3.407  0.1953 -0.5894  0.5007
 5196TIP3    H115531   8.062   7.106   3.440  0.4202 -0.0421 -0.1580
 5196TIP3    H215532   7.964   7.016   3.368  0.7116 -0.3314 -0.1963
 5197TIP3   OH215533   2.649   7.506   2.079 -0.1759  0.6133  0.4879
 5197TIP3    H115534   2.697   7.524   1.998 -1.7048 -1.0699 -0.8520
 5197TIP3    H215535   2.702   7.439   2.123 -0.4624 -0.1137 -0.2413
 5198TIP3   OH215536   1.982   5.790   1.902  0.1349 -0.0566 -0.0854
 5198TIP3    H115537   1.925   5.794   1.978  1.5374 -0.1961  0.9907
 5198TIP3    H215538   2.040   5.715   1.919  0.0119 -0.5269 -1.6137
 5199TIP3   OH215539   2.504   7.457   4.237 -0.2782  0.4558 -0.6559
 5199TIP3    H115540   2.475   7.542   4.271 -1.7564 -0.9871  1.8955
 5199TIP3    H215541   2.470   7.453   4.148 -2.7913  1.3333  0.2207
 5200TIP3   OH215542   2.617   7.003   1.874 -0.2001  0.1386 -0.5698
 5200TIP3    H115543   2.565   6.956   1.940 -1.1638 -0.3475 -1.6632
 5200TIP3    H215544   2.649   6.934   1.816  0.7860  0.5535 -0.5216
 5201TIP3   OH215545   3.908   7.521   3.089 -0.5114  0.0306  0.4906
 5201TIP3    H115546   3.886   7.607   3.124 -0.1868  0.7557 -1.0111
 5201TIP3    H215547   3.990   7.497   3.133  1.8178  2.5153 -2.2290
 5202TIP3   OH215548   2.267   7.383   1.701  0.3752  0.5758 -0.1992
 5202TIP3    H115549   2.226   7.429   1.774 -3.2586 -1.9499 -0.5042
 5202TIP3    H215550   2.204   7.391   1.629  2.0295 -0.4672 -1.8244
 5203TIP3   OH215551   6.971   1.550   6.323 -0.5406 -0.3670  0.0462
 5203TIP3    H115552   6.942   1.528   6.412 -1.1468  0.6225  0.1063
 5203TIP3    H215553   6.916   1.497   6.266 -0.4356 -0.6961  0.2482
 5204TIP3   OH215554   4.767   1.150   3.887  0.0188  0.3190  0.6160
 5204TIP3    H115555   4.778   1.075   3.946  0.8070 -0.8626 -0.9804
 5204TIP3    H215556   4.674   1.151   3.866  0.1141 -0.6372  0.1257
 5205TIP3   OH215557   0.461   1.609   6.099  0.2235 -0.2211 -0.1478
 5205TIP3    H115558   0.478   1.597   6.193  2.5135 -0.5817 -0.5870
 5205TIP3    H215559   0.498   1.695   6.079 -3.4802  1.5183 -0.0084
 5206TIP3   OH215560   0.152   5.300   4.081 -0.1458 -0.2867  0.2134
 5206TIP3    H115561   0.209   5.376   4.093  0.5344 -1.0823  2.1833
 5206TIP3    H215562   0.089   5.328   4.015  1.4508  1.2124 -0.7304
 5207TIP3   OH215563   1.861   6.116   3.507  0.0654  0.2751  0.6290
 5207TIP3    H115564   1.836   6.025   3.524  0.3211 -0.2005 -1.3983
 5207TIP3    H215565   1.789   6.151   3.455 -0.1036  1.2761  1.5496
 5208TIP3   OH215566   1.237   7.694   3.284  0.5328 -0.0677  0.1366
 5208TIP3    H115567   1.182   7.679   3.207  0.7265 -0.5330  0.0864
 5208TIP3    H215568   1.228   7.614   3.336  0.6674  0.1086  0.4292
 5209TIP3   OH215569   0.554   5.348   1.642 -0.0214  0.4236 -0.2063
 5209TIP3    H115570   0.589   5.430   1.608  0.5192  0.6739  0.9279
 5209TIP3    H215571   0.614   5.325   1.713 -1.2817  0.0461  0.7403
 5210TIP3   OH215572   2.575   5.118   2.014  0.1094 -0.0133  0.0104
 5210TIP3    H115573   2.636   5.162   1.954  0.0121  0.8949  0.5699
 5210TIP3    H215574   2.524   5.060   1.957  0.0984  0.7429 -0.7797
 5211TIP3   OH215575   4.636   7.166   4.726 -0.3865  0.5702  0.2797
 5211TIP3    H115576   4.714   7.169   4.780  0.2135  0.1227 -0.5454
 5211TIP3    H215577   4.582   7.098   4.766  0.9133 -1.1395 -0.8042
 5212TIP3   OH215578   2.570   7.899   1.289 -0.0762  0.3690  0.3991
 5212TIP3    H115579   2.596   7.839   1.219 -2.3285  0.3525 -0.4901
 5212TIP3    H215580   2.514   7.846   1.346  0.3569  0.8335  1.2591
 5213TIP3   OH215581   0.307   6.115   1.675  0.2380  0.3964 -0.0511
 5213TIP3    H115582   0.385   6.168   1.685  0.3473  0.1562  0.3710
 5213TIP3    H215583   0.246   6.148   1.741  0.0746  0.4179 -0.2117
 5214TIP3   OH215584   1.270   6.591   3.796  0.5770 -0.1577  0.0005
 5214TIP3    H115585   1.214   6.586   3.873 -1.3645  2.3564 -1.2074
 5214TIP3    H215586   1.343   6.646   3.823 -0.1224  0.7544  0.0470
 5215TIP3   OH215587   1.394   7.900   3.638  0.2461 -0.7656 -0.5786
 5215TIP3    H115588   1.394   7.980   3.585  1.7573 -0.7374 -0.5576
 5215TIP3    H215589   1.421   7.929   3.725 -1.0694 -1.0071 -0.0765
 5216TIP3   OH215590   0.892   7.286   2.794  0.5285  0.1278  0.7761
 5216TIP3    H115591   0.876   7.371   2.835 -1.1742  0.2307 -0.0672
 5216TIP3    H215592   0.815   7.233   2.818 -0.4090  0.1134 -2.0517
 5217TIP3   OH215593   0.848   5.789   3.334 -0.1523 -0.2483  0.6888
 5217TIP3    H115594   0.898   5.870   3.323 -2.5518  1.2852  0.5658
 5217TIP3    H215595   0.874   5.734   3.260 -1.0802  1.8573 -1.2804
 5218TIP3   OH215596   2.041   4.452   2.599  0.6538  0.5269  0.0223
 5218TIP3    H115597   2.031   4.384   2.666 -0.7227  0.5412 -0.1621
 5218TIP3    H215598   1.990   4.526   2.632 -0.1859  0.4733 -1.1166
 5219TIP3   OH215599   1.472   6.616   3.526 -0.7114  0.1028 -0.4529
 5219TIP3    H115600   1.448   6.636   3.617  0.9884 -1.0022  0.2662
 5219TIP3    H215601   1.506   6.699   3.492  2.1344 -0.3460  1.1247
 5220TIP3   OH215602   0.599   6.370   1.930  0.7565  0.3108 -0.1568
 5220TIP3    H115603   0.642   6.346   2.013 -2.7874 -2.6551  0.9923
 5220TIP3    H215604   0.562   6.457   1.946  0.0189 -0.2784  1.4539
 5221TIP3   OH215605   3.398   6.744   2.243 -0.2186 -0.4326  0.2352
 5221TIP3    H115606   3.468   6.808   2.232 -1.5374  1.2744  1.4952
 5221TIP3    H215607   3.325   6.780   2.192 -0.6484 -1.4389  0.1374
 5222TIP3   OH215608   3.068   5.758   2.508  0.3177  0.6022 -0.1326
 5222TIP3    H115609   3.160   5.755   2.481  0.0233  0.7630 -1.1856
 5222TIP3    H215610   3.021   5.713   2.439 -0.3290 -0.1101  0.7641
 5223TIP3   OH215611   8.034   7.247   4.449 -0.3782 -0.4491 -0.2377
 5223TIP3    H115612   8.026   7.214   4.538 -1.1293  0.9892  0.2496
 5223TIP3    H215613   7.972   7.195   4.398 -2.8174  1.3225  0.8464
 5224TIP3   OH215614   8.475   6.205   4.618 -0.5304  0.2508  0.0722
 5224TIP3    H115615   8.475   6.111   4.601 -3.6724 -0.0646  1.5516
 5224TIP3    H215616   8.495   6.213   4.711  1.0449  1.1618 -0.3181
 5225TIP3   OH215617   8.086   6.123   2.547 -0.2448 -1.0255 -0.5467
 5225TIP3    H115618   8.171   6.083   2.566  0.6056  0.3863 -1.2654
 5225TIP3    H215619   8.102   6.217   2.554 -1.9170 -0.7619 -0.0278
 5226TIP3   OH215620   1.950   7.680   4.068 -0.1073  0.5945 -0.0314
 5226TIP3    H115621   1.934   7.586   4.069 -1.0200  0.7326 -0.7273
 5226TIP3    H215622   1.986   7.697   3.981 -0.0579  0.9046  0.0497
 5227TIP3   OH215623   5.495   0.218   1.966 -0.1126  0.3805  0.5349
 5227TIP3    H115624   5.514   0.127   1.988  0.0482 -0.0252 -1.2305
 5227TIP3    H215625   5.476   0.217   1.873  0.5775  2.2700  0.3503
 5228TIP3   OH215626   1.057   6.374   4.638  0.5502  0.1333  0.3976
 5228TIP3    H115627   1.151   6.376   4.658  0.5623 -2.6822  0.9528
 5228TIP3    H215628   1.051   6.327   4.555 -0.4172 -0.7365  0.9375
 5229TIP3   OH215629   2.849   1.032   3.005  0.0154  0.1945 -0.5343
 5229TIP3    H115630   2.802   0.979   3.070  1.3282 -0.4019 -0.0536
 5229TIP3    H215631   2.881   1.107   3.054 -0.2858  0.5228 -0.8327
 5230TIP3   OH215632   1.667   7.372   3.716  0.0161  0.5870  0.0992
 5230TIP3    H115633   1.760   7.363   3.736 -0.0881 -0.4190  0.1470
 5230TIP3    H215634   1.644   7.290   3.672 -0.8239  0.8665  0.0172
 5231TIP3   OH215635   6.012   0.179   5.357  0.5292 -0.2052  0.6021
 5231TIP3    H115636   6.025   0.186   5.451  0.4050 -1.3356  0.7115
 5231TIP3    H215637   5.990   0.087   5.342  2.3594 -0.4744 -0.7374
 5232TIP3   OH215638   8.152   6.008   3.653  0.2707 -0.3762  0.3771
 5232TIP3    H115639   8.123   5.963   3.732 -0.1284 -1.9200 -0.6225
 5232TIP3    H215640   8.091   6.080   3.643 -0.1671 -0.6442  1.0391
 5233TIP3   OH215641   2.788   7.448   4.693  0.3821  0.6539 -0.2050
 5233TIP3    H115642   2.705   7.447   4.741 -0.2794 -0.8186 -1.3544
 5233TIP3    H215643   2.844   7.386   4.740 -0.1882 -0.6156 -1.1913
 5234TIP3   OH215644   7.825   5.326   5.058 -0.8717  0.6941  0.4370
 5234TIP3    H115645   7.771   5.397   5.022  0.5335  2.0624  0.9422
 5234TIP3    H215646   7.906   5.370   5.085  0.2871 -1.2276  0.1510
 5235TIP3   OH215647   1.666   7.806   2.866 -0.1188 -0.5603  0.1147
 5235TIP3    H115648   1.734   7.763   2.814 -0.4075 -1.6174  0.5901
 5235TIP3    H215649   1.589   7.750   2.854 -1.0914  0.9566 -0.9187
 5236TIP3   OH215650   2.748   6.616   4.507 -0.1309  0.1358 -0.4869
 5236TIP3    H115651   2.733   6.641   4.599  4.6425 -0.1936  0.5029
 5236TIP3    H215652   2.724   6.694   4.457 -1.3861  0.8494  1.1751
 5237TIP3   OH215653   1.622   6.366   0.988  0.3470  0.3668 -0.0790
 5237TIP3    H115654   1.582   6.400   1.068  1.6469  1.6854  0.0149
 5237TIP3    H215655   1.550   6.364   0.924  0.0574  2.4362  0.1779
 5238TIP3   OH215656   1.469   6.885   1.041  0.3486 -0.4175  0.1632
 5238TIP3    H115657   1.394   6.848   1.087 -0.4577 -0.9180 -1.4942
 5238TIP3    H215658   1.542   6.877   1.102 -0.9106 -0.0878  1.7279
 5239TIP3   OH215659   1.780   7.327   2.990  0.0879  0.3716 -0.5903
 5239TIP3    H115660   1.743   7.302   3.075  0.7130  1.8629  0.1516
 5239TIP3    H215661   1.866   7.285   2.988  1.1083  2.3341  0.6216
 5240TIP3   OH215662   0.106   5.694   1.670 -0.0571 -0.0576  0.3223
 5240TIP3    H115663   0.152   5.611   1.679 -1.6038 -0.7626  2.1153
 5240TIP3    H215664   0.171   5.753   1.631  1.2720 -1.8943 -0.3533
 5241TIP3   OH215665   2.612   5.777   2.765 -0.0100 -0.0023 -0.0928
 5241TIP3    H115666   2.578   5.866   2.755  1.8445  0.7774  0.4453
 5241TIP3    H215667   2.599   5.756   2.858  0.2150 -0.0103 -0.0618
 5242TIP3   OH215668   0.759   5.518   2.851 -0.0984  0.0955  0.5056
 5242TIP3    H115669   0.665   5.518   2.836 -0.6035  2.2164  3.4215
 5242TIP3    H215670   0.791   5.596   2.806  0.1730 -0.1843  0.2026
 5243TIP3   OH215671   2.853   0.010   1.580 -0.2195  0.0491  0.2284
 5243TIP3    H115672   2.865  -0.052   1.508 -3.1230  3.4681 -3.4113
 5243TIP3    H215673   2.933   0.062   1.580  0.0564 -0.3749 -0.1287
 5244TIP3   OH215674   3.306   7.495   3.395  0.0219  0.6870  0.0033
 5244TIP3    H115675   3.315   7.580   3.351  1.2550 -0.0895 -1.2694
 5244TIP3    H215676   3.335   7.431   3.330 -0.1469 -0.6595  1.2308
 5245TIP3   OH215677   3.657   1.049   3.068  0.4069 -0.1748 -0.3411
 5245TIP3    H115678   3.686   1.139   3.052 -0.1518  0.1942  0.6991
 5245TIP3    H215679   3.570   1.044   3.029  0.4216 -0.2582 -0.3642
 5246TIP3   OH215680   3.265   7.969   1.827 -0.2260  0.1262  0.0359
 5246TIP3    H115681   3.335   7.997   1.887  0.7385 -0.6122 -0.7311
 5246TIP3    H215682   3.199   8.038   1.833  1.2329  1.5826 -0.3390
 5247TIP3   OH215683   2.168   5.078   2.355  0.1777  0.1400 -0.1071
 5247TIP3    H115684   2.254   5.051   2.323  0.1263 -0.4461  0.2395
 5247TIP3    H215685   2.164   5.043   2.445  0.1954  1.4827  0.4281
 5248TIP3   OH215686   2.181   7.372   2.110  0.4803  0.0596 -0.1045
 5248TIP3    H115687   2.270   7.366   2.143 -0.2118 -1.8951  1.5663
 5248TIP3    H215688   2.150   7.281   2.107 -1.2248  0.6528 -1.2581
 5249TIP3   OH215689   5.350   0.152   3.358 -0.0236 -0.3197 -0.0135
 5249TIP3    H115690   5.423   0.094   3.379  1.5249  1.3732 -0.6185
 5249TIP3    H215691   5.323   0.189   3.442  0.3232 -0.3519  0.1118
 5250TIP3   OH215692   1.879   6.468   2.452 -0.5640  0.6425 -0.9081
 5250TIP3    H115693   1.970   6.499   2.453 -0.4572  0.3352  1.3155
 5250TIP3    H215694   1.872   6.413   2.530 -2.5921  0.4038 -1.2369
 5251TIP3   OH215695   3.248   0.639   3.136  0.3755 -0.3063 -0.2930
 5251TIP3    H115696   3.255   0.613   3.044 -1.7126 -0.1348 -0.5166
 5251TIP3    H215697   3.170   0.593   3.168 -0.8953  2.3085  0.4667
 5252TIP3   OH215698   3.662   5.631   0.833 -0.1685 -0.5254 -0.1953
 5252TIP3    H115699   3.653   5.583   0.750  1.6573  0.0328 -0.7358
 5252TIP3    H215700   3.744   5.679   0.824 -0.8283  0.9041  1.2607
 5253TIP3   OH215701   0.571   7.345   0.987  0.0587  0.5499 -0.1222
 5253TIP3    H115702   0.624   7.278   0.946 -1.0860  0.3627 -1.3233
 5253TIP3    H215703   0.538   7.304   1.067  1.5917  0.6343  0.5752
 5254TIP3   OH215704   0.250   5.344   3.389 -0.4424  0.1399 -0.1260
 5254TIP3    H115705   0.312   5.361   3.319  1.1614 -2.3173  0.5935
 5254TIP3    H215706   0.195   5.272   3.356  0.1807 -0.8817  0.9931
 5255TIP3   OH215707   4.558   6.708   3.488 -0.2538 -0.6402  0.4526
 5255TIP3    H115708   4.485   6.715   3.549 -0.2980  0.5810  0.2660
 5255TIP3    H215709   4.540   6.773   3.421 -0.0458 -1.7645 -0.7190
 5256TIP3   OH215710   3.121   6.364   3.863  0.5734 -0.0023  0.3129
 5256TIP3    H115711   3.181   6.414   3.809 -0.5328 -0.4290 -1.3251
 5256TIP3    H215712   3.137   6.273   3.839 -0.4717 -0.1430  0.1450
 5257TIP3   OH215713   1.670   5.922   3.627 -0.0920 -0.0236  0.0151
 5257TIP3    H115714   1.575   5.912   3.640 -0.1249  0.7025  0.3691
 5257TIP3    H215715   1.707   5.842   3.663 -0.6747 -0.9784 -1.4710
 5258TIP3   OH215716   0.255   4.135   2.632  0.3326  0.4627 -0.3691
 5258TIP3    H115717   0.328   4.076   2.649  0.6314  0.0516 -2.9428
 5258TIP3    H215718   0.208   4.096   2.558 -0.3794  2.5945 -1.0948
 5259TIP3   OH215719   2.818   6.378   3.775  0.4858 -0.0029  0.3100
 5259TIP3    H115720   2.790   6.303   3.827  1.2886 -1.2943 -1.0891
 5259TIP3    H215721   2.886   6.420   3.828 -0.8314  0.4940  1.6570
 5260TIP3   OH215722   2.182   0.806   3.745  0.0558  0.1217  0.2205
 5260TIP3    H115723   2.262   0.850   3.772  0.4627 -0.6435  0.3019
 5260TIP3    H215724   2.112   0.851   3.791  0.3023  1.6355 -0.8650
 5261TIP3   OH215725   2.507   7.108   2.165  0.3726  0.1654  0.2252
 5261TIP3    H115726   2.446   7.104   2.091  0.0892 -0.9180  0.5186
 5261TIP3    H215727   2.499   7.198   2.197 -0.1270  0.3968 -0.5349
 5262TIP3   OH215728   0.335   4.598   6.193 -0.5773  0.6286  0.8833
 5262TIP3    H115729   0.403   4.531   6.195 -2.2211 -1.0651  0.7588
 5262TIP3    H215730   0.368   4.667   6.252  0.5094 -0.8568  2.0472
 5263TIP3   OH215731   7.225   5.619   2.085  0.1783 -0.1124 -0.3371
 5263TIP3    H115732   7.208   5.534   2.126  0.2754 -1.1646 -2.4165
 5263TIP3    H215733   7.253   5.598   1.996  2.0228  2.0292 -0.3112
 5264TIP3   OH215734   0.734   5.288   2.065  0.6053  0.2600 -0.4523
 5264TIP3    H115735   0.736   5.285   1.969 -1.3036 -0.3441 -0.4955
 5264TIP3    H215736   0.822   5.314   2.090  1.7257 -1.6245 -2.3021
 5265TIP3   OH215737   2.231   6.719   2.155 -0.1314 -0.3881 -0.1469
 5265TIP3    H115738   2.268   6.714   2.243 -2.5133  1.2495  1.0259
 5265TIP3    H215739   2.237   6.812   2.132 -3.1437 -0.1234 -0.0340
 5266TIP3   OH215740   6.070   2.254   4.137  0.2938  0.2868  0.7229
 5266TIP3    H115741   6.136   2.185   4.145  0.5546  0.2606 -1.3855
 5266TIP3    H215742   6.016   2.244   4.215  0.6724 -1.9513  0.7413
 5267TIP3   OH215743   4.020   3.489   0.704  0.7071 -0.2122  0.3949
 5267TIP3    H115744   4.098   3.517   0.752  1.4544  1.0830 -1.5114
 5267TIP3    H215745   3.949   3.539   0.742  0.6433 -1.9013  2.6156
 5268TIP3   OH215746   0.546   4.865   3.561  0.6819  0.3324 -0.2013
 5268TIP3    H115747   0.616   4.893   3.619  0.7767  0.4757 -0.3837
 5268TIP3    H215748   0.467   4.867   3.615  0.9525 -0.6493  0.2407
 5269TIP3   OH215749   8.385   6.569   3.738 -0.2246  0.3094  0.3878
 5269TIP3    H115750   8.416   6.574   3.647 -1.7882 -1.8042 -0.3165
 5269TIP3    H215751   8.361   6.477   3.749 -3.4282  1.2499  1.8230
 5270TIP3   OH215752   0.625   5.074   3.742 -0.0006  0.3320  0.3819
 5270TIP3    H115753   0.538   5.070   3.781 -0.8762 -0.6333 -1.5643
 5270TIP3    H215754   0.614   5.130   3.665  0.9259 -0.3850 -0.2893
 5271TIP3   OH215755   4.792   0.539   6.450  0.1865 -0.3402  0.2447
 5271TIP3    H115756   4.789   0.443   6.454  3.2416 -0.4906  0.2794
 5271TIP3    H215757   4.750   0.568   6.531 -0.9075 -1.6355  0.1548
 5272TIP3   OH215758   0.876   3.788   1.920 -0.1764 -0.5035 -0.4593
 5272TIP3    H115759   0.924   3.870   1.927  1.2623 -1.4315  1.2492
 5272TIP3    H215760   0.904   3.750   1.837  1.5690 -0.6919  0.1871
 5273TIP3   OH215761   4.723   1.677   2.141 -0.2297  0.3353  0.0470
 5273TIP3    H115762   4.694   1.659   2.230 -1.1957  1.3534 -0.0459
 5273TIP3    H215763   4.643   1.671   2.088  0.5305 -1.5015 -0.9599
 5274TIP3   OH215764   8.329   2.189   6.425 -0.3626 -0.3459 -0.1798
 5274TIP3    H115765   8.309   2.178   6.332  2.0489  0.9731 -0.8951
 5274TIP3    H215766   8.388   2.117   6.445  0.6893  0.4962 -0.1927
 5275TIP3   OH215767   3.250   6.548   1.183  0.2578  0.2560 -0.0336
 5275TIP3    H115768   3.162   6.555   1.219  0.1378  3.0210 -0.7162
 5275TIP3    H215769   3.302   6.513   1.255 -1.6155 -2.7015 -0.0656
 5276TIP3   OH215770   3.260   7.428   1.011  0.7968 -0.9942 -0.1181
 5276TIP3    H115771   3.287   7.500   0.953  1.1557  0.8095  2.2232
 5276TIP3    H215772   3.166   7.420   0.996  0.9165 -0.7163 -1.1086
 5277TIP3   OH215773   2.306   6.248   1.063  0.6936  0.8931  0.0262
 5277TIP3    H115774   2.244   6.243   0.991  1.5499  2.1841 -0.8216
 5277TIP3    H215775   2.294   6.335   1.100  1.8768  1.1039 -0.0506
 5278TIP3   OH215776   6.446   1.808   6.804 -0.3376 -0.3221  0.2244
 5278TIP3    H115777   6.446   1.848   6.891 -1.4413  1.7416 -0.6857
 5278TIP3    H215778   6.385   1.735   6.811 -0.5221 -0.0824  1.1627
 5279TIP3   OH215779   0.704   6.355   2.546  0.2892  0.2788 -0.1598
 5279TIP3    H115780   0.795   6.325   2.557  0.8296  1.5366 -1.0206
 5279TIP3    H215781   0.691   6.416   2.619  0.6467  1.2325 -0.8793
 5280TIP3   OH215782   5.280   0.838   1.407 -0.2698  0.3797  0.6668
 5280TIP3    H115783   5.202   0.811   1.456  0.3260 -1.6830  0.4925
 5280TIP3    H215784   5.337   0.878   1.473 -1.0639  1.0586  0.9563
 5281TIP3   OH215785   1.499   4.150   6.754  0.2756  0.0280  0.6588
 5281TIP3    H115786   1.443   4.078   6.783 -1.4495  0.9834 -0.2039
 5281TIP3    H215787   1.465   4.173   6.668  2.0067  0.6567  0.1330
 5282TIP3   OH215788   5.983   0.644   2.113 -0.1549 -0.2352 -0.9568
 5282TIP3    H115789   5.931   0.711   2.069  0.3362  0.4799 -0.4834
 5282TIP3    H215790   5.986   0.674   2.204  1.5930  0.0769 -1.1023
 5283TIP3   OH215791   3.570   7.733   3.063  0.9266 -0.1556  0.2036
 5283TIP3    H115792   3.644   7.735   3.124  2.4609  1.3731 -1.6257
 5283TIP3    H215793   3.590   7.802   2.999 -2.5364  0.9134  0.1765
 5284TIP3   OH215794   4.647   6.905   2.948 -0.0538  0.3369 -0.5835
 5284TIP3    H115795   4.576   6.959   2.983 -0.6940 -0.9406  0.1560
 5284TIP3    H215796   4.687   6.958   2.880 -2.1880  0.8227 -1.5177
 5285TIP3   OH215797   2.372   7.736   1.407  0.3568  0.4979  0.2753
 5285TIP3    H115798   2.373   7.728   1.502 -0.3129  0.8335  0.3192
 5285TIP3    H215799   2.279   7.740   1.385  0.5302  3.0932 -0.1445
 5286TIP3   OH215800   0.916   6.560   1.223  0.1046  0.5740 -0.4571
 5286TIP3    H115801   0.850   6.505   1.266 -0.0047 -0.3337 -1.7737
 5286TIP3    H215802   0.867   6.610   1.157  0.4137  1.3463 -0.1110
 5287TIP3   OH215803   7.500   0.547   1.297 -0.3361  0.5972  0.1570
 5287TIP3    H115804   7.436   0.479   1.275  0.5836  0.2855 -1.6740
 5287TIP3    H215805   7.584   0.502   1.296  0.2546  1.7001 -0.8369
 5288TIP3   OH215806   2.214   5.263   1.740 -0.3583 -0.5296  0.2603
 5288TIP3    H115807   2.241   5.173   1.724 -1.6016 -0.6374 -1.4214
 5288TIP3    H215808   2.118   5.258   1.745 -0.4680  0.7819 -0.4255
 5289TIP3   OH215809   3.489   7.880   0.135  0.1163  0.4366  0.6759
 5289TIP3    H115810   3.495   7.972   0.159  0.4582  0.7374 -0.5255
 5289TIP3    H215811   3.550   7.835   0.194  3.2919  1.5485 -1.6390
 5290TIP3   OH215812   0.747   7.869   1.992  0.1555 -0.3390  0.1531
 5290TIP3    H115813   0.805   7.847   1.919 -1.7052  2.5769 -2.3336
 5290TIP3    H215814   0.793   7.938   2.040  0.4858 -0.8347  0.5525
 5291TIP3   OH215815   7.632   0.674   0.116  0.6842  0.2837 -0.2163
 5291TIP3    H115816   7.589   0.699   0.198 -2.1392 -2.2228 -0.8369
 5291TIP3    H215817   7.597   0.735   0.051 -2.5772 -2.0656 -0.8228
 5292TIP3   OH215818   2.813   7.230   1.086 -0.0726 -0.8583 -0.0099
 5292TIP3    H115819   2.799   7.136   1.082 -0.7636 -0.7267 -1.2561
 5292TIP3    H215820   2.771   7.258   1.167  0.3067 -1.6379  0.4619
 5293TIP3   OH215821   4.776   7.828   1.605  0.3296 -0.8649 -0.4054
 5293TIP3    H115822   4.778   7.732   1.613 -1.9020 -0.7370  3.0657
 5293TIP3    H215823   4.806   7.859   1.690 -1.2244  1.4850 -0.6814
 5294TIP3   OH215824   2.610   6.818   0.315 -0.2603 -0.0056 -0.4025
 5294TIP3    H115825   2.658   6.894   0.348  0.6179 -0.9378  0.4789
 5294TIP3    H215826   2.672   6.774   0.256 -0.4729 -0.5195 -0.2410
 5295TIP3   OH215827   0.912   3.178   6.303  0.0933  0.3835  0.0660
 5295TIP3    H115828   0.922   3.115   6.233 -0.6858 -0.6984  0.9128
 5295TIP3    H215829   0.998   3.180   6.346  0.3416  0.4765 -0.4354
 5296TIP3   OH215830   2.242   6.833   3.264 -0.3176  0.5522  0.0585
 5296TIP3    H115831   2.314   6.819   3.202 -1.1073  1.9083 -1.1920
 5296TIP3    H215832   2.236   6.751   3.313  0.3028 -0.5609 -1.6912
 5297TIP3   OH215833   3.795   1.754   0.392  0.0127  0.5908 -0.3495
 5297TIP3    H115834   3.771   1.694   0.322  0.7093  0.3566 -0.3881
 5297TIP3    H215835   3.890   1.748   0.398 -0.0606  0.4496  0.7510
 5298TIP3   OH215836   4.662   7.130   1.515 -0.3972  0.1767  0.2312
 5298TIP3    H115837   4.578   7.120   1.561  0.4823 -0.0460  1.8021
 5298TIP3    H215838   4.694   7.041   1.504 -0.3232  0.2682 -0.3244
 5299TIP3   OH215839   4.172   7.398   0.643 -0.5349 -0.2914 -0.5985
 5299TIP3    H115840   4.204   7.387   0.553 -1.1868  1.1612 -1.0203
 5299TIP3    H215841   4.090   7.447   0.633 -0.9567 -0.7270  0.7434
 5300TIP3   OH215842   2.962   7.555   2.263 -0.4331  0.0121 -0.1066
 5300TIP3    H115843   2.885   7.499   2.264  0.4053 -1.1979 -1.0165
 5300TIP3    H215844   3.034   7.497   2.238  0.4305  1.5130 -1.2870
 5301TIP3   OH215845   2.851   7.306   2.951  0.6010 -0.7863 -0.1962
 5301TIP3    H115846   2.923   7.314   3.013  1.5641  0.4430 -1.4466
 5301TIP3    H215847   2.772   7.318   3.004  1.3153 -1.6893  1.1026
 5302TIP3   OH215848   3.743   7.939   2.425  0.1764 -0.2527 -0.7314
 5302TIP3    H115849   3.696   8.000   2.482  0.4959 -0.7436  0.0679
 5302TIP3    H215850   3.822   7.916   2.475  0.7053 -0.3019 -1.5806
 5303TIP3   OH215851   5.864   0.062   4.428  0.1317 -0.2639 -0.2962
 5303TIP3    H115852   5.952   0.096   4.419 -0.0741 -0.3036 -2.8884
 5303TIP3    H215853   5.866  -0.023   4.383 -1.5069  0.2755 -1.4274
 5304TIP3   OH215854   3.349   7.507   2.042 -0.1328 -0.5733 -0.2139
 5304TIP3    H115855   3.421   7.504   1.979  0.3071  1.1356  0.1863
 5304TIP3    H215856   3.312   7.594   2.032 -1.8744 -1.2831 -0.0959
 5305TIP3   OH215857   1.990   1.527   6.189 -0.3991  0.3095  0.0555
 5305TIP3    H115858   2.022   1.510   6.278  0.3753 -0.4925 -0.3692
 5305TIP3    H215859   2.065   1.507   6.132 -1.1190  0.0742 -0.8271
 5306TIP3   OH215860   4.978   1.086   2.452 -0.3148 -0.2278  0.0685
 5306TIP3    H115861   4.939   1.171   2.430  0.7741  0.3290  0.2833
 5306TIP3    H215862   4.993   1.044   2.368 -0.9449 -0.2536 -0.0346
 5307TIP3   OH215863   2.773   5.605   2.103  0.0756 -0.4740 -0.4583
 5307TIP3    H115864   2.691   5.561   2.082 -0.3836 -1.6257  3.3224
 5307TIP3    H215865   2.835   5.533   2.120  0.8430  0.3571  0.3204
 5308TIP3   OH215866   3.579   6.005   1.496 -0.0584 -0.0474 -0.8368
 5308TIP3    H115867   3.492   6.038   1.517  1.0163  0.7294  2.7196
 5308TIP3    H215868   3.637   6.045   1.560  2.2283 -4.1403 -0.1085
 5309TIP3   OH215869   3.757   7.651   2.631  0.2610  0.6036 -0.4840
 5309TIP3    H115870   3.677   7.621   2.589  0.7342 -1.1085 -0.1996
 5309TIP3    H215871   3.769   7.593   2.706  0.4868  2.3712  0.8922
 5310TIP3   OH215872   4.221   7.349   0.382  0.3834 -0.3684 -0.7798
 5310TIP3    H115873   4.212   7.256   0.360  0.4277 -0.4429 -0.4816
 5310TIP3    H215874   4.137   7.387   0.355  0.5388 -0.4108 -1.3265
 5311TIP3   OH215875   2.289   7.473   0.526 -0.1955  0.4681  0.1692
 5311TIP3    H115876   2.217   7.433   0.575  0.9337  0.5148  1.9218
 5311TIP3    H215877   2.261   7.563   0.511 -1.6146 -0.2091 -1.4924
 5312TIP3   OH215878   4.327   0.731   2.704  0.2666  0.4775 -0.0663
 5312TIP3    H115879   4.331   0.827   2.709  0.1499  0.6016 -1.8636
 5312TIP3    H215880   4.281   0.705   2.783  0.1869  1.9256  0.3889
 5313TIP3   OH215881   3.632   6.610   5.899  0.6011 -0.3937  0.2373
 5313TIP3    H115882   3.715   6.655   5.881 -0.3127  1.2285 -0.0424
 5313TIP3    H215883   3.637   6.588   5.992  0.1183  2.4244  0.9923
 5314TIP3   OH215884   3.829   6.828   3.236  0.0377  0.4699  0.2142
 5314TIP3    H115885   3.823   6.772   3.160  0.1828  2.6149 -1.4265
 5314TIP3    H215886   3.752   6.806   3.289  0.2572 -1.4408 -0.2444
 5315TIP3   OH215887   1.805   7.710   3.468 -0.3006  0.5083  0.0991
 5315TIP3    H115888   1.834   7.629   3.510 -0.3814  0.5857  0.3000
 5315TIP3    H215889   1.884   7.764   3.464  0.0359 -0.0513 -1.1252
 5316TIP3   OH215890   5.201   0.670   1.189 -0.7274 -0.0539 -0.0419
 5316TIP3    H115891   5.282   0.621   1.180 -0.9077 -0.0476 -1.9374
 5316TIP3    H215892   5.218   0.732   1.260  0.9260 -0.0644 -0.4127
 5317TIP3   OH215893   7.668   0.056   2.070  0.5778 -0.0906 -0.1217
 5317TIP3    H115894   7.718   0.017   2.142 -1.0874 -0.1228  1.0535
 5317TIP3    H215895   7.719   0.133   2.044  1.9217 -0.8758  0.1231
 5318TIP3   OH215896   3.501   7.742   1.811  0.1887 -0.0910  0.0139
 5318TIP3    H115897   3.535   7.695   1.887 -1.7294  0.0463  0.9962
 5318TIP3    H215898   3.543   7.828   1.816 -0.5928  0.2296  1.4470
 5319TIP3   OH215899   2.947   5.355   1.716 -0.5352  0.2821  0.5323
 5319TIP3    H115900   2.971   5.446   1.697 -1.4216  0.3031 -0.5003
 5319TIP3    H215901   3.030   5.313   1.737  0.0002  1.1091  0.1126
 5320TIP3   OH215902   2.851   7.551   5.350  0.7772  0.1097  0.8007
 5320TIP3    H115903   2.896   7.624   5.392 -0.3977  0.8955  0.7402
 5320TIP3    H215904   2.806   7.591   5.275  0.4928 -0.7528  0.5087
 5321TIP3   OH215905   2.116   7.053   2.075 -0.3764 -0.0055 -0.4909
 5321TIP3    H115906   2.040   7.013   2.033  0.3628 -0.3835 -1.4817
 5321TIP3    H215907   2.090   7.063   2.166 -1.7980  0.3146 -0.9190
 5322TIP3   OH215908   3.539   7.320   1.890  0.3366  0.2166  0.1128
 5322TIP3    H115909   3.505   7.243   1.934 -1.8671  0.1440 -1.6526
 5322TIP3    H215910   3.521   7.305   1.797  2.0337  1.7890 -0.5071
 5323TIP3   OH215911   4.361   6.694   2.889  0.0235  0.2655 -0.3358
 5323TIP3    H115912   4.274   6.698   2.849 -0.4647  0.2464  0.6969
 5323TIP3    H215913   4.422   6.699   2.815 -0.8628 -2.7354 -1.3790
 5324TIP3   OH215914   6.774   0.699   1.055  0.9052 -0.2755 -0.3923
 5324TIP3    H115915   6.751   0.659   1.139  0.7389  0.3807 -0.1229
 5324TIP3    H215916   6.836   0.768   1.078  1.0605 -0.2631 -0.8414
 5325TIP3   OH215917   4.009   6.436   3.125  0.0790 -0.9839 -0.0586
 5325TIP3    H115918   4.086   6.385   3.100  1.2532  1.1295 -0.9331
 5325TIP3    H215919   4.034   6.477   3.208  0.6107  1.1128 -1.2251
 5326TIP3   OH215920   3.496   5.513  -0.021  0.5089 -0.4556 -0.3932
 5326TIP3    H115921   3.468   5.424  -0.041 -3.2769  0.7779 -1.0560
 5326TIP3    H215922   3.487   5.520   0.074  0.2815 -0.6483 -0.4001
 5327TIP3   OH215923   2.693   7.788   2.167  0.0705  0.1788  0.1093
 5327TIP3    H115924   2.698   7.697   2.139  1.1081 -0.6981  2.9019
 5327TIP3    H215925   2.659   7.784   2.257 -1.3746  2.6716 -0.2540
 5328TIP3   OH215926   7.674   0.355   1.118 -0.5843 -0.5461 -0.5704
 5328TIP3    H115927   7.726   0.433   1.136  0.5111 -1.0326 -1.5693
 5328TIP3    H215928   7.616   0.380   1.046 -1.7330 -0.0149  0.5193
 5329TIP3   OH215929   6.851   6.249   1.449  0.3391  0.5053 -0.3647
 5329TIP3    H115930   6.771   6.257   1.397  1.3046  0.3656 -1.9083
 5329TIP3    H215931   6.864   6.337   1.485 -0.4923  0.5353 -0.1138
 5330TIP3   OH215932   3.746   6.351   1.106  0.2870  0.2003 -0.4708
 5330TIP3    H115933   3.656   6.332   1.130  0.5818 -0.3983  0.1622
 5330TIP3    H215934   3.799   6.293   1.161  1.0112 -0.3455 -1.7271
 5331TIP3   OH215935   3.363   6.310   2.066 -0.1810 -0.3212  0.0883
 5331TIP3    H115936   3.449   6.268   2.065  0.5260  1.0809 -0.8890
 5331TIP3    H215937   3.328   6.293   2.154  1.8621  0.5985  1.1124
 5332TIP3   OH215938   0.676   3.251   6.197  0.0125 -0.0153  0.1686
 5332TIP3    H115939   0.762   3.216   6.221  0.2574  0.5646  0.1394
 5332TIP3    H215940   0.618   3.222   6.268  0.3834  0.2183  0.5687
 5333TIP3   OH215941   3.171   7.744   1.983  0.1904  0.2717  0.9091
 5333TIP3    H115942   3.095   7.767   2.036 -1.0918  1.6042 -1.4509
 5333TIP3    H215943   3.209   7.828   1.957  1.3415 -0.3733  0.4729
 5334TIP3   OH215944   2.572   0.103   1.320  0.4336 -0.0738  0.1479
 5334TIP3    H115945   2.568   0.095   1.225 -1.5295 -0.7726  0.2647
 5334TIP3    H215946   2.665   0.113   1.340  0.8401  0.2348 -1.8521
 5335TIP3   OH215947   5.085   0.425   4.257 -0.1084 -0.0586  0.4250
 5335TIP3    H115948   5.051   0.513   4.239 -2.0700 -1.0348 -0.7171
 5335TIP3    H215949   5.142   0.437   4.333 -0.2443  2.2263  0.1989
 5336TIP3   OH215950   2.074   7.942   2.116 -0.3644  0.1883  0.1141
 5336TIP3    H115951   2.009   7.917   2.050  1.8594 -1.6351 -1.4612
 5336TIP3    H215952   2.027   7.936   2.199 -2.0823 -1.6101 -0.9420
 5337TIP3   OH215953   6.340   0.669   2.060  0.3592 -0.0323  0.0732
 5337TIP3    H115954   6.384   0.689   1.977  0.4873 -1.3943 -0.1892
 5337TIP3    H215955   6.256   0.715   2.054  0.5166  0.1732 -0.6509
 5338TIP3   OH215956   3.068   7.400   3.669  0.0718 -0.3526 -0.2845
 5338TIP3    H115957   3.061   7.359   3.583 -0.3749  1.6714 -1.2318
 5338TIP3    H215958   2.994   7.366   3.718 -0.9501  0.1790 -1.4326
 5339TIP3   OH215959   0.051   2.781   6.306 -0.6854  0.8593  0.3310
 5339TIP3    H115960   0.008   2.856   6.348 -1.6484 -0.4503  1.7570
 5339TIP3    H215961  -0.021   2.732   6.266  0.0748  1.3306 -1.6998
 5340TIP3   OH215962   6.840   0.137   1.451 -0.1430  0.8079  0.4328
 5340TIP3    H115963   6.901   0.150   1.379 -0.4134  0.3726  0.1228
 5340TIP3    H215964   6.887   0.167   1.529  0.0398  1.5484  0.0369
 5341TIP3   OH215965   1.169   6.433   1.186  0.2045  0.3776 -0.0592
 5341TIP3    H115966   1.139   6.420   1.276  0.8684  0.7155  0.2206
 5341TIP3    H215967   1.095   6.473   1.141 -0.7754 -1.4610 -0.1420
 5342TIP3   OH215968   5.416   0.517   1.998  0.1770 -0.3844 -0.6586
 5342TIP3    H115969   5.480   0.536   2.067  0.2689  1.3008 -1.1875
 5342TIP3    H215970   5.459   0.451   1.944  1.1964  0.2214 -0.6026
 5343TIP3   OH215971   7.268   1.841   1.926  0.4692 -0.0093 -0.3848
 5343TIP3    H115972   7.181   1.820   1.958  1.0973 -2.4393 -0.1571
 5343TIP3    H215973   7.314   1.879   2.001  0.1124 -0.2490 -0.0468
 5344TIP3   OH215974   2.105   6.060   3.290  0.2456 -0.1840  0.0459
 5344TIP3    H115975   2.173   6.042   3.355 -0.0627 -0.0536  0.4035
 5344TIP3    H215976   2.023   6.062   3.340 -0.2764 -2.3430 -0.6845
 5345TIP3   OH215977   3.753   7.251   0.113  0.3512  0.3795  0.0905
 5345TIP3    H115978   3.775   7.342   0.131  0.5495  0.3362  0.0655
 5345TIP3    H215979   3.658   7.247   0.121  0.3117  0.6633 -0.2323
 5346TIP3   OH215980   3.371   6.730   1.496  0.2991  0.3738 -0.4705
 5346TIP3    H115981   3.294   6.688   1.534  0.2902 -0.9016 -1.8752
 5346TIP3    H215982   3.336   6.800   1.441  0.2915  1.8736  1.3803
 5347TIP3   OH215983   1.826   6.527   3.737  0.1265  0.1705 -0.0855
 5347TIP3    H115984   1.733   6.517   3.759  0.3630  1.1553  1.4932
 5347TIP3    H215985   1.826   6.565   3.649 -0.9843  0.6902  0.1282
 5348TIP3   OH215986   5.123   6.582   2.419  0.3575 -0.2227 -0.2771
 5348TIP3    H115987   5.088   6.521   2.355 -1.2947 -1.8305  2.0652
 5348TIP3    H215988   5.056   6.650   2.428  0.1752 -0.4738  0.3457
 5349TIP3   OH215989   7.911   2.192   0.585 -0.4032 -0.2689  0.0673
 5349TIP3    H115990   7.907   2.099   0.611 -1.1896  0.2700  2.0111
 5349TIP3    H215991   8.001   2.218   0.605 -0.5746 -0.2629  0.8710
 5350TIP3   OH215992   3.650   5.185   0.508  0.4317  0.2857 -0.2006
 5350TIP3    H115993   3.562   5.220   0.519  0.4764  0.1073  0.7300
 5350TIP3    H215994   3.663   5.182   0.413 -1.2815 -1.5348 -0.4011
 5351TIP3   OH215995   1.137   5.602   1.860 -0.4495 -0.0741  0.3181
 5351TIP3    H115996   1.198   5.629   1.791 -2.8824  0.4600 -1.6986
 5351TIP3    H215997   1.170   5.518   1.890  2.5687  1.2674  0.9097
 5352TIP3   OH215998   1.946   5.980   1.149 -0.2257  0.0858 -0.5358
 5352TIP3    H115999   1.890   6.033   1.205  0.6703  1.3451 -0.8194
 5352TIP3    H216000   1.893   5.962   1.072 -1.5031 -1.7489  0.7289
 5353TIP3   OH216001   8.006   0.395   2.608  0.5585  0.2256  0.0659
 5353TIP3    H116002   8.094   0.395   2.573  0.7825 -0.8117  0.6124
 5353TIP3    H216003   7.950   0.377   2.533  1.0008 -1.5305  0.1350
 5354TIP3   OH216004   8.469   3.991   5.589  0.1646  0.1059 -0.9518
 5354TIP3    H116005   8.439   4.080   5.573  1.2120  0.2782 -1.9632
 5354TIP3    H216006   8.436   3.970   5.677  2.0858  2.4156  0.3647
 5355TIP3   OH216007   3.693   0.541   2.967  0.0311  0.4405 -0.4850
 5355TIP3    H116008   3.653   0.512   2.885 -0.2366 -0.2632 -0.1087
 5355TIP3    H216009   3.730   0.627   2.947 -0.4693  0.4870 -1.2047
 5356TIP3   OH216010   1.921   7.803   2.336  0.0478  0.0191 -0.1484
 5356TIP3    H116011   1.937   7.714   2.305  1.3568 -0.2864  1.3107
 5356TIP3    H216012   1.858   7.839   2.275  0.9144 -1.2807 -1.8562
 5357TIP3   OH216013   2.209   6.762   2.835 -0.3125  0.0585 -0.4248
 5357TIP3    H116014   2.114   6.772   2.837 -0.3996 -0.6495 -0.6925
 5357TIP3    H216015   2.223   6.667   2.827  0.4277 -0.0332  1.5317
 5358TIP3   OH216016   0.329   7.566   1.689  0.2678  0.5208  0.4102
 5358TIP3    H116017   0.303   7.656   1.711 -0.1188  0.0765  1.8013
 5358TIP3    H216018   0.247   7.522   1.670  0.4725  0.4877 -0.4307
 5359TIP3   OH216019   3.620   6.841   1.544  0.3075 -0.4332 -0.3800
 5359TIP3    H116020   3.540   6.791   1.529 -0.2239  0.5923 -1.0031
 5359TIP3    H216021   3.633   6.891   1.463  0.1358  1.3960  0.6980
 5360TIP3   OH216022   4.655   1.317   2.097 -0.0183  0.5968  0.0202
 5360TIP3    H116023   4.562   1.296   2.108  0.9663 -3.6324  1.1045
 5360TIP3    H216024   4.685   1.338   2.185  0.4343  0.2435 -0.0481
 5361TIP3   OH216025   7.607   1.438   1.111 -0.7343 -0.3539 -0.3365
 5361TIP3    H116026   7.619   1.444   1.206 -1.5372  0.8192 -0.2948
 5361TIP3    H216027   7.543   1.368   1.099  0.8652 -1.8631 -0.1407
 5362TIP3   OH216028   5.125   1.157   3.632 -0.2762 -0.1801 -0.0044
 5362TIP3    H116029   5.059   1.226   3.644 -0.2845 -0.1785 -0.0578
 5362TIP3    H216030   5.099   1.088   3.692 -1.0884 -0.7368 -0.9882
 5363TIP3   OH216031   4.047   6.621   0.576 -0.6015  0.0674  0.4074
 5363TIP3    H116032   4.005   6.558   0.518  1.2152  1.7830 -2.9355
 5363TIP3    H216033   4.121   6.574   0.614  0.5983  0.0356 -1.8782
 5364TIP3   OH216034   4.691   5.313   0.296 -0.1688  0.6272 -0.4772
 5364TIP3    H116035   4.669   5.344   0.208 -0.9255  0.9079 -0.1932
 5364TIP3    H216036   4.610   5.273   0.328 -0.2424  1.5686  0.5417
 5365TIP3   OH216037   5.332   7.697   1.337  0.1128 -0.0529  0.3913
 5365TIP3    H116038   5.366   7.672   1.251  2.4575  3.7688  0.0700
 5365TIP3    H216039   5.336   7.793   1.337 -0.5326  0.0692  4.5216
 5366TIP3   OH216040   2.711   7.470   0.541  0.6149 -0.3858  0.0625
 5366TIP3    H116041   2.725   7.460   0.447  0.5054 -0.7331  0.0834
 5366TIP3    H216042   2.665   7.554   0.550 -0.1526 -0.7627 -0.2655
 5367TIP3   OH216043   2.293   5.474   2.409 -0.6567 -0.6418 -0.0049
 5367TIP3    H116044   2.248   5.554   2.382  1.5378  2.0414  3.7463
 5367TIP3    H216045   2.274   5.466   2.503  1.0122 -3.2698  0.1721
 5368TIP3   OH216046   0.958   5.344   2.670 -0.5498 -0.4325  1.2750
 5368TIP3    H116047   0.887   5.351   2.606  1.4228  0.3297 -0.8879
 5368TIP3    H216048   0.979   5.251   2.672  0.2911 -0.2904 -0.2376
 5369TIP3   OH216049   2.907   7.006   2.475  0.1422  0.3014 -0.2229
 5369TIP3    H116050   2.828   6.958   2.497 -0.6592  1.4154 -0.6610
 5369TIP3    H216051   2.905   7.083   2.531  1.6582 -0.3878  0.8068
 5370TIP3   OH216052   2.281   7.037   2.878 -0.7212  0.8727  0.5577
 5370TIP3    H116053   2.284   6.948   2.843 -0.6506  1.5165 -1.1410
 5370TIP3    H216054   2.344   7.037   2.949  0.1101 -0.1306 -0.1650
 5371TIP3   OH216055   4.396   5.553   1.482 -0.3157 -0.4448 -0.0836
 5371TIP3    H116056   4.471   5.501   1.453  1.7970  1.8143  1.0694
 5371TIP3    H216057   4.385   5.530   1.574 -0.5194 -0.2087 -0.0491
 5372TIP3   OH216058   3.222   7.344   2.708  0.1260  0.6395  0.3198
 5372TIP3    H116059   3.229   7.260   2.753 -1.0142  0.2008 -0.2914
 5372TIP3    H216060   3.240   7.323   2.616 -0.9004  0.9305  0.0479
 5373TIP3   OH216061   4.960   0.545   2.393  0.7889  0.3168 -0.2419
 5373TIP3    H116062   4.907   0.539   2.473  1.2892 -0.9832  0.0146
 5373TIP3    H216063   4.935   0.467   2.343  1.7643  0.1992 -0.5515
 5374TIP3   OH216064   5.528   0.115   1.370 -0.2787  0.1544 -0.5059
 5374TIP3    H116065   5.486   0.041   1.327 -0.5722  0.4573 -0.7512
 5374TIP3    H216066   5.458   0.180   1.379  0.0099  0.4553 -0.4285
 5375TIP3   OH216067   4.471   7.325   2.348 -0.2875 -0.2132 -0.1084
 5375TIP3    H116068   4.503   7.364   2.266  0.7598  1.5763  1.1116
 5375TIP3    H216069   4.485   7.231   2.337  2.5559  0.2477 -0.8764
 5376TIP3   OH216070   4.828   0.001   3.236 -0.5473  0.3696  0.0118
 5376TIP3    H116071   4.904   0.054   3.261  0.9234 -2.0341  0.7553
 5376TIP3    H216072   4.804   0.034   3.149  1.9627  0.5028 -0.6675
 5377TIP3   OH216073   6.594   0.197   1.253 -0.9506  0.3097 -0.0672
 5377TIP3    H116074   6.667   0.172   1.309 -0.6443 -1.2297 -1.1250
 5377TIP3    H216075   6.635   0.237   1.176 -1.1961 -0.6285 -0.6984
 5378TIP3   OH216076   1.956   7.671   1.011 -0.2355 -0.1838  0.2796
 5378TIP3    H116077   1.909   7.592   0.986  0.2717 -0.2644 -0.4216
 5378TIP3    H216078   1.944   7.731   0.937 -1.3272  0.7082  1.1640
 5379TIP3   OH216079   0.944   0.386   2.694 -0.3714 -0.0437  0.0798
 5379TIP3    H116080   0.902   0.312   2.738 -0.8362 -0.3655 -0.9031
 5379TIP3    H216081   0.895   0.463   2.724  0.6789 -0.0184  1.8107
 5380TIP3   OH216082   4.785   0.628   1.658 -0.2507 -0.5378 -0.0987
 5380TIP3    H116083   4.803   0.650   1.749  0.5288 -0.2858 -0.3097
 5380TIP3    H216084   4.715   0.563   1.662 -0.6564 -0.0658  0.6489
 5381TIP3   OH216085   2.491   7.316   0.635 -0.0903  0.0021 -0.3663
 5381TIP3    H116086   2.571   7.352   0.596 -0.1850  2.0060  1.1995
 5381TIP3    H216087   2.420   7.359   0.587 -0.2534 -1.0661 -1.1118
 5382TIP3   OH216088   0.904   5.892   2.221  0.5332 -0.5767 -0.2512
 5382TIP3    H116089   0.910   5.905   2.126 -2.5934  1.9268 -0.2141
 5382TIP3    H216090   0.811   5.878   2.237  0.6271  1.5648  2.6770
 5383TIP3   OH216091   7.351   0.147   1.830  0.1676 -0.7381 -0.4626
 5383TIP3    H116092   7.396   0.130   1.747  0.7848 -0.5371 -0.1729
 5383TIP3    H216093   7.313   0.234   1.819  0.3467 -0.6629 -0.4940
 5384TIP3   OH216094   2.855   6.256   0.927 -0.3156  0.3536 -0.2620
 5384TIP3    H116095   2.860   6.270   1.022  0.0889 -0.7489 -0.1194
 5384TIP3    H216096   2.763   6.235   0.911 -0.3089  0.1726 -0.0648
 5385TIP3   OH216097   4.552   7.707   2.732 -0.0289  0.7410 -0.5972
 5385TIP3    H116098   4.474   7.651   2.723 -0.3882  1.1159  0.1540
 5385TIP3    H216099   4.517   7.795   2.742  0.4787  0.8531  0.2044
 5386TIP3   OH216100   4.793   0.415   2.131  0.0902 -0.2656  0.3785
 5386TIP3    H116101   4.805   0.510   2.125  1.3148 -0.4730 -0.9004
 5386TIP3    H216102   4.708   0.404   2.172  0.0689  1.3924  0.8122
 5387TIP3   OH216103   3.199   7.714   3.527  0.0807 -0.6931 -0.4486
 5387TIP3    H116104   3.216   7.625   3.496 -2.4609 -0.9292 -1.3024
 5387TIP3    H216105   3.104   7.724   3.518  0.3513  2.1317 -0.4102
 5388TIP3   OH216106   1.364   5.645   4.737  0.3655  0.1599 -0.0770
 5388TIP3    H116107   1.410   5.729   4.748  1.4360  0.0385 -3.0925
 5388TIP3    H216108   1.278   5.670   4.705 -0.0234  0.1662  0.9459
 5389TIP3   OH216109   7.360   1.640   3.836 -0.1468  0.2432 -0.4232
 5389TIP3    H116110   7.328   1.708   3.895  1.3484  0.5326  0.0839
 5389TIP3    H216111   7.454   1.656   3.831  0.7368 -3.4789  1.9915
 5390TIP3   OH216112   5.754   1.401   3.272 -0.0087 -0.3929  0.1519
 5390TIP3    H116113   5.806   1.417   3.350  0.5171  1.5981 -0.5910
 5390TIP3    H216114   5.670   1.444   3.289  0.5326  1.0919 -0.8547
 5391TIP3   OH216115   3.770   7.699   2.282  0.1606 -0.1101 -0.0417
 5391TIP3    H116116   3.850   7.664   2.321  0.9425  1.7924  0.1136
 5391TIP3    H216117   3.763   7.788   2.317 -0.9316  0.4601 -1.6257
 5392TIP3   OH216118   2.174   7.346   3.707  0.4305 -0.4134  0.6636
 5392TIP3    H116119   2.185   7.326   3.614 -1.6071  0.1372  0.2732
 5392TIP3    H216120   2.203   7.437   3.716 -1.6894  0.3716  0.0340
 5393TIP3   OH216121   3.055   6.677   2.463  0.2256  0.0153  0.0416
 5393TIP3    H116122   3.067   6.585   2.442  0.6151  0.1024 -0.1194
 5393TIP3    H216123   3.116   6.694   2.535 -0.2558  0.0077  0.4573
 5394TIP3   OH216124   3.789   0.724   1.942 -1.0396 -0.0366  0.6129
 5394TIP3    H116125   3.797   0.677   1.859 -1.6015  0.5051  0.2519
 5394TIP3    H216126   3.710   0.777   1.933 -1.0868  0.0469  1.4840
 5395TIP3   OH216127   2.036   7.495   1.510  0.3551 -0.4520 -0.4581
 5395TIP3    H116128   1.971   7.466   1.574 -1.0502  0.3810 -1.4825
 5395TIP3    H216129   2.032   7.431   1.439 -0.9654  0.7918 -1.5529
 5396TIP3   OH216130   0.689   5.123   6.884  0.0184  0.6171 -0.0129
 5396TIP3    H116131   0.648   5.149   6.966 -0.5375 -1.8530  0.5406
 5396TIP3    H216132   0.619   5.082   6.833  0.2218  2.6240 -1.9842
 5397TIP3   OH216133   3.697   7.464   1.159  0.5057 -0.8453 -0.1492
 5397TIP3    H116134   3.774   7.515   1.182  0.4567 -0.9927  0.3481
 5397TIP3    H216135   3.697   7.462   1.063  0.8929 -0.5063 -0.1562
 5398TIP3   OH216136   1.183   4.911   6.895 -0.3219 -0.3544  0.2604
 5398TIP3    H116137   1.110   4.915   6.834 -0.9683 -1.3489  0.9402
 5398TIP3    H216138   1.145   4.933   6.980  0.7044  1.6825  0.2125
 5399TIP3   OH216139   3.542   5.883   0.949  0.1105 -0.0819  0.1486
 5399TIP3    H116140   3.525   5.804   0.897  0.6773 -0.8892  1.1622
 5399TIP3    H216141   3.555   5.952   0.884 -2.5074 -0.3508 -0.7215
 5400TIP3   OH216142   5.900   0.177   1.842 -0.0900 -0.2933  0.2156
 5400TIP3    H116143   5.965   0.200   1.776 -1.6511  0.9327 -0.9571
 5400TIP3    H216144   5.901   0.251   1.903 -0.9441  0.1284 -0.2696
 5401TIP3   OH216145   1.811   3.894   6.907  0.3391  0.2204  0.2225
 5401TIP3    H116146   1.790   3.958   6.840  1.6358  1.2103  0.7377
 5401TIP3    H216147   1.860   3.826   6.861 -1.7611 -0.8634 -0.4908
 5402TIP3   OH216148   2.837   7.186   1.870 -0.4823  0.5994  0.1016
 5402TIP3    H116149   2.742   7.174   1.870 -0.5282  0.9245 -1.2086
 5402TIP3    H216150   2.856   7.224   1.785  0.7896  0.8785  0.5087
 5403TIP3   OH216151   1.062   2.817   6.583 -0.2359 -0.4161 -0.5010
 5403TIP3    H116152   1.154   2.837   6.565 -0.7254  1.1693 -1.3651
 5403TIP3    H216153   1.059   2.800   6.677  1.1369 -1.6418 -0.6574
 5404TIP3   OH216154   4.294   6.674   1.358 -0.1217 -0.4113  0.6506
 5404TIP3    H116155   4.235   6.606   1.326 -0.9449  0.9685 -0.8257
 5404TIP3    H216156   4.248   6.756   1.340  2.8074  0.7720 -1.8640
 5405TIP3   OH216157   4.462   7.872   0.513 -0.2124  0.1886 -0.5767
 5405TIP3    H116158   4.462   7.783   0.479 -1.3392 -0.1559  0.2981
 5405TIP3    H216159   4.403   7.920   0.455 -0.9396 -0.0395 -0.0304
 5406TIP3   OH216160   4.398   6.925   0.616  0.7521 -0.3049 -0.2174
 5406TIP3    H116161   4.325   6.946   0.558  0.4013  1.5884  0.8450
 5406TIP3    H216162   4.358   6.880   0.691  0.8197 -0.2426 -0.1429
 5407TIP3   OH216163   3.997   6.898   1.535  0.0855  0.2509 -0.0657
 5407TIP3    H116164   4.019   6.856   1.451  1.0011 -0.6130  0.5911
 5407TIP3    H216165   3.914   6.859   1.560  0.1895 -0.0631 -0.1977
 5408TIP3   OH216166   5.594   1.605   3.007 -0.3387 -0.5038 -0.4567
 5408TIP3    H116167   5.637   1.554   2.939  0.4911 -1.7892  0.9890
 5408TIP3    H216168   5.533   1.543   3.049 -1.6455  0.5662 -0.7289
 5409TIP3   OH216169   2.600   7.043   1.571 -0.1133 -0.4445 -0.4743
 5409TIP3    H116170   2.644   7.013   1.651 -2.0662 -1.4356  0.2609
 5409TIP3    H216171   2.542   7.113   1.601 -1.1986 -1.1367 -0.9501
 5410TIP3   OH216172   4.531   7.667   4.207 -0.5666 -0.4929  0.4162
 5410TIP3    H116173   4.471   7.741   4.217 -0.9626 -0.8096  0.4159
 5410TIP3    H216174   4.489   7.595   4.254 -0.8344 -1.0834 -0.6835
 5411TIP3   OH216175   6.166   0.694   0.957  0.3398  0.2692 -0.8706
 5411TIP3    H116176   6.126   0.619   1.001  0.5165  1.9506  2.3118
 5411TIP3    H216177   6.094   0.756   0.946  0.9898  1.1778  0.0157
 5412TIP3   OH216178   1.983   6.977   2.724  0.0102 -0.2811 -0.2140
 5412TIP3    H116179   2.063   7.016   2.689  1.3302 -1.0940  1.8422
 5412TIP3    H216180   1.986   6.886   2.693  0.0802 -0.4154  0.1857
 5413TIP3   OH216181   8.063   0.079   0.577  0.5250 -0.6801 -0.2591
 5413TIP3    H116182   8.079   0.002   0.631 -0.7498  0.6905  2.1706
 5413TIP3    H216183   7.981   0.060   0.532 -1.5731  0.5169  2.8801
 5414TIP3   OH216184   0.287   1.305   2.788  0.1713  0.2156  0.1037
 5414TIP3    H116185   0.236   1.232   2.823  1.9238 -0.3707  1.4877
 5414TIP3    H216186   0.236   1.383   2.812 -1.5213 -0.5202 -1.0662
 5415TIP3   OH216187   5.542   7.463   0.874  0.3775 -0.1316  0.1653
 5415TIP3    H116188   5.578   7.551   0.887  1.3090 -0.4784  0.0298
 5415TIP3    H216189   5.551   7.448   0.780  2.2057 -1.1915  0.4921
 5416TIP3   OH216190   2.207   6.716   1.851 -0.1678 -0.0890  0.0664
 5416TIP3    H116191   2.213   6.634   1.803 -1.3401 -0.9725  1.3961
 5416TIP3    H216192   2.221   6.692   1.943 -0.2586  1.2296  0.4421
 5417TIP3   OH216193   3.503   6.541   4.603  0.4709  0.0976  0.4340
 5417TIP3    H116194   3.451   6.484   4.660 -0.0416  0.1666  0.0358
 5417TIP3    H216195   3.462   6.627   4.612  1.3470  0.4443  1.1654
 5418TIP3   OH216196   4.467   6.771   1.104 -0.1008 -0.5158  0.1222
 5418TIP3    H116197   4.552   6.808   1.128  0.3279 -1.9815  0.9395
 5418TIP3    H216198   4.420   6.765   1.187 -0.7375 -0.3995 -0.2248
 5419TIP3   OH216199   4.537   6.509   1.786 -0.6742 -0.1155  0.4043
 5419TIP3    H116200   4.464   6.519   1.847 -0.8931 -1.4404  0.3897
 5419TIP3    H216201   4.523   6.423   1.746 -0.1200  0.4145 -0.9684
 5420TIP3   OH216202   4.014   6.958   0.078  0.1062  0.1863 -0.3452
 5420TIP3    H116203   4.025   7.042   0.122 -1.3627 -0.0266  0.4620
 5420TIP3    H216204   3.971   6.903   0.143  0.5850 -1.0337 -1.0520
 5421TIP3   OH216205   4.768   0.047   2.731  0.2179  0.1283 -0.2404
 5421TIP3    H116206   4.719  -0.023   2.689 -1.0105  1.1380 -0.4947
 5421TIP3    H216207   4.843   0.062   2.674  2.4869 -3.3962  1.5923
 5422TIP3   OH216208   2.841   5.330   2.071  0.6082  0.0609  0.3831
 5422TIP3    H116209   2.878   5.242   2.080 -0.9920 -0.5530  1.0882
 5422TIP3    H216210   2.785   5.325   1.993  0.0645  0.2826  0.7547
 5423TIP3   OH216211   4.729   0.154   0.656  0.0284  0.4486  0.0924
 5423TIP3    H116212   4.747   0.239   0.697  1.8664 -0.3032  0.9013
 5423TIP3    H216213   4.806   0.101   0.678 -1.9985 -2.0589  1.3057
 5424TIP3   OH216214   2.564   5.113   0.884 -0.1411 -0.0313  0.2102
 5424TIP3    H116215   2.525   5.197   0.906 -0.7120 -0.3606  0.4771
 5424TIP3    H216216   2.553   5.105   0.789  0.1105  0.2931  0.1558
 5425TIP3   OH216217   3.103   6.154   0.813  0.0194 -0.1470  0.2321
 5425TIP3    H116218   3.014   6.180   0.836 -0.1959 -0.9922  0.3677
 5425TIP3    H216219   3.159   6.215   0.862 -0.4781  0.2984  0.2543
 5426TIP3   OH216220   4.732   6.111   1.198 -0.0963 -0.1671 -0.3174
 5426TIP3    H116221   4.691   6.167   1.265  0.2870 -1.1870  0.7884
 5426TIP3    H216222   4.807   6.073   1.242  0.6070 -0.2555 -1.5842
 5427TIP3   OH216223   4.919   6.468   0.604 -0.3336  0.5352  0.1216
 5427TIP3    H116224   4.951   6.389   0.648 -0.4528  0.9607  0.9765
 5427TIP3    H216225   4.847   6.499   0.659 -0.1609  1.3466 -0.1050
 5428TIP3   OH216226   0.983   4.845   5.614 -0.0023  0.5082  0.0446
 5428TIP3    H116227   0.961   4.909   5.681 -1.1027 -1.5304  1.7151
 5428TIP3    H216228   0.921   4.862   5.543 -0.0216  1.5426  0.3023
 5429TIP3   OH216229   2.486   7.083   3.047 -0.0163  0.1785  0.0943
 5429TIP3    H116230   2.569   7.130   3.044 -0.0069  0.1493 -0.1098
 5429TIP3    H216231   2.511   6.991   3.037  0.0654  0.0232  1.5703
 5430TIP3   OH216232   4.562   7.359   1.241  0.4514  0.1315  0.8241
 5430TIP3    H116233   4.613   7.395   1.169 -2.1038 -1.0251 -1.6593
 5430TIP3    H216234   4.546   7.434   1.299  1.0621  1.4873 -0.7128
 5431TIP3   OH216235   5.953   7.923   0.620  0.1636 -0.2827 -0.5612
 5431TIP3    H116236   5.875   7.878   0.652 -0.7110  0.1691 -2.0137
 5431TIP3    H216237   6.015   7.918   0.693 -1.0596 -1.0250  0.4519
 5432TIP3   OH216238   0.293   0.875   2.805  0.5929  0.1410 -0.4214
 5432TIP3    H116239   0.365   0.890   2.866  0.6755 -0.2347 -0.4198
 5432TIP3    H216240   0.335   0.841   2.726  0.4284  0.0284 -0.4615
 5433TIP3   OH216241   8.393   1.107   0.129  0.5074 -0.2868  0.2915
 5433TIP3    H116242   8.399   1.193   0.171  1.2191 -0.0232 -0.3479
 5433TIP3    H216243   8.398   1.125   0.036  1.8960 -1.1289  0.1916
 5434TIP3   OH216244   3.554   7.319   1.612 -0.4358  0.0459 -0.2161
 5434TIP3    H116245   3.620   7.379   1.578  0.4238 -0.8264 -0.1182
 5434TIP3    H216246   3.602   7.237   1.626 -2.0544 -1.2868 -2.3423
 5435TIP3   OH216247   6.453   1.915   1.605 -0.4858  0.3505  0.1035
 5435TIP3    H116248   6.366   1.952   1.621 -0.9677 -0.3722 -0.7799
 5435TIP3    H216249   6.436   1.826   1.573  0.5655  0.2919 -0.3121
 5436TIP3   OH216250   7.523   7.198   1.847 -1.0917  0.2918 -0.2162
 5436TIP3    H116251   7.579   7.275   1.836  0.8709 -0.6590  2.5161
 5436TIP3    H216252   7.580   7.133   1.888 -3.6541 -1.4549  0.6764
 5437TIP3   OH216253   2.119   2.949   6.592  0.0632 -0.2721 -0.5266
 5437TIP3    H116254   2.025   2.935   6.610  0.5363  0.0253  2.5041
 5437TIP3    H216255   2.161   2.869   6.625  1.1137  0.7748  0.7009
 5438TIP3   OH216256   2.695   2.662   6.937 -0.4511  0.0894 -0.2594
 5438TIP3    H116257   2.767   2.625   6.886 -0.8467 -0.4432 -0.4312
 5438TIP3    H216258   2.732   2.742   6.975 -0.0867  0.3680 -1.1867
 5439TIP3   OH216259   7.639   1.680   1.908 -0.1043  0.2354  0.1507
 5439TIP3    H116260   7.605   1.667   1.996 -0.4700 -1.3320 -0.2048
 5439TIP3    H216261   7.683   1.598   1.887 -0.6265  0.3418 -1.4036
 5440TIP3   OH216262   4.968   5.339   0.304  0.4309  0.2559 -0.2350
 5440TIP3    H116263   4.996   5.352   0.214 -2.1115 -1.2021 -1.2583
 5440TIP3    H216264   4.874   5.353   0.303  0.2352 -0.6955  2.0097
 5441TIP3   OH216265   6.264   7.929   1.680  0.1208  0.3116 -0.4354
 5441TIP3    H116266   6.351   7.912   1.645  0.4809 -0.8328  0.9755
 5441TIP3    H216267   6.236   7.845   1.718 -2.2728  0.1954 -2.3183
 5442TIP3   OH216268   6.914   0.480  -0.009 -0.7134  0.5739 -0.6008
 5442TIP3    H116269   6.874   0.526   0.065 -0.1333  1.7365 -1.0104
 5442TIP3    H216270   7.000   0.453   0.023 -1.0021 -0.1324 -0.4038
 5443TIP3   OH216271   1.580   1.491   6.733 -0.0351  0.1063 -0.0499
 5443TIP3    H116272   1.616   1.422   6.678 -2.1465 -0.1693 -1.1307
 5443TIP3    H216273   1.573   1.451   6.820  2.6768  0.3303  0.3157
 5444TIP3   OH216274   6.419   1.129   2.296  0.3422  0.6532  0.4832
 5444TIP3    H116275   6.351   1.152   2.360  0.6137  1.0020  0.6474
 5444TIP3    H216276   6.466   1.056   2.336  0.3819  0.7381  0.5908
 5445TIP3   OH216277   7.574   0.427   0.866  0.0232  0.0049 -0.4618
 5445TIP3    H116278   7.615   0.509   0.895  1.0573 -0.5017 -0.4964
 5445TIP3    H216279   7.574   0.434   0.770 -2.3160  1.1443 -0.4281
 5446TIP3   OH216280   5.364   5.882   1.147 -0.6983 -0.3315 -0.5340
 5446TIP3    H116281   5.284   5.927   1.119 -0.8470 -0.1978  0.1036
 5446TIP3    H216282   5.417   5.950   1.187  0.1483 -0.2279 -1.7858
 5447TIP3   OH216283   7.843   0.245   1.933  0.1383  0.5313 -0.3344
 5447TIP3    H116284   7.873   0.193   1.859 -0.4755 -1.0240  0.4888
 5447TIP3    H216285   7.772   0.299   1.898 -0.5357 -0.6124 -0.7505
 5448TIP3   OH216286   8.474   0.161   0.333 -0.0933  0.2069 -0.3710
 5448TIP3    H116287   8.433   0.244   0.359  0.1803  0.5523 -1.0460
 5448TIP3    H216288   8.404   0.097   0.342  0.2116  0.1723  2.0254
 5449TIP3   OH216289   4.585   7.861   1.396 -0.2582  0.4254 -0.2790
 5449TIP3    H116290   4.628   7.874   1.312 -0.2430  1.2279 -0.1530
 5449TIP3    H216291   4.655   7.875   1.461 -0.7225  1.8650 -0.0704
 5450TIP3   OH216292   7.330   6.893   0.609  0.1146  0.1637 -0.4793
 5450TIP3    H116293   7.236   6.889   0.630 -0.0999 -1.6614 -1.6521
 5450TIP3    H216294   7.339   6.975   0.560 -1.3046 -0.7099 -2.2781
 5451TIP3   OH216295   6.702   7.434   0.374 -0.3668  0.2292  0.4639
 5451TIP3    H116296   6.658   7.451   0.457 -1.0069  2.6198 -0.3167
 5451TIP3    H216297   6.637   7.456   0.307  1.0171  1.0012 -0.6626
 5452TIP3   OH216298   8.417   0.107   1.138  0.0306 -0.1561 -0.6299
 5452TIP3    H116299   8.475   0.034   1.115  0.2097 -0.0664 -0.4568
 5452TIP3    H216300   8.373   0.128   1.056 -0.5177 -0.9002 -0.5333
 5453TIP3   OH216301   5.870   0.291   0.279  0.8456 -0.0728 -0.3092
 5453TIP3    H116302   5.864   0.347   0.356 -1.0028  2.0582 -1.9314
 5453TIP3    H216303   5.810   0.219   0.296  0.8532  0.1026  0.4626
 5454TIP3   OH216304   1.684   1.754   6.778 -0.2178 -0.2817 -0.8198
 5454TIP3    H116305   1.642   1.672   6.749 -0.8012 -0.2797  0.0103
 5454TIP3    H216306   1.649   1.769   6.866  1.3474 -0.1361 -0.2218
 5455TIP3   OH216307   7.478   0.653   2.153 -0.2407 -0.2853  0.2232
 5455TIP3    H116308   7.454   0.563   2.133  0.1644 -0.2939 -0.2326
 5455TIP3    H216309   7.566   0.647   2.189 -1.0914 -0.3047  2.3713
 5456TIP3   OH216310   4.363   3.621   5.598 -0.5614  0.0176  0.3657
 5456TIP3    H116311   4.388   3.626   5.506  0.7795  1.3950  0.7948
 5456TIP3    H216312   4.293   3.555   5.600 -1.5624  0.9666 -1.8336
 5457TIP3   OH216313   8.065   0.774   1.444 -0.7860 -0.0443  0.2429
 5457TIP3    H116314   8.150   0.814   1.462 -0.7226 -0.3802  0.6861
 5457TIP3    H216315   8.057   0.776   1.348  1.0779 -2.8528 -0.0267
 5458TIP3   OH216316   0.608   0.218   3.461  0.2718 -0.4525 -0.0268
 5458TIP3    H116317   0.692   0.182   3.491 -0.6501 -1.1414  1.8230
 5458TIP3    H216318   0.573   0.150   3.404 -0.7980 -1.9422  2.3171
 5459TIP3   OH216319   1.034   2.777   6.866  0.4987 -0.6562  0.0641
 5459TIP3    H116320   1.069   2.690   6.886 -0.1272 -0.4686  2.1289
 5459TIP3    H216321   1.087   2.837   6.919 -2.3737 -0.3037  2.6852
 5460TIP3   OH216322   6.669   7.033   0.051 -0.0105  0.4913 -0.0419
 5460TIP3    H116323   6.636   7.100   0.112 -1.1537 -0.3108  0.2365
 5460TIP3    H216324   6.615   7.044  -0.027 -0.6378 -0.5242  0.2414
 5461TIP3   OH216325   3.188   7.326   4.568 -0.2122  0.4361 -0.1725
 5461TIP3    H116326   3.203   7.360   4.479 -3.6272  0.9804 -0.5947
 5461TIP3    H216327   3.222   7.236   4.565 -0.6023  0.3315 -2.1388
 5462TIP3   OH216328   5.624   6.755   1.380 -0.2075 -0.4858  0.3357
 5462TIP3    H116329   5.545   6.737   1.431  0.0285  0.5752  1.1102
 5462TIP3    H216330   5.692   6.702   1.422  0.0803  0.7063  1.4316
 5463TIP3   OH216331   2.405   4.338   6.452 -0.5425  0.1879  0.5344
 5463TIP3    H116332   2.488   4.358   6.408 -1.0262  1.1581  0.0480
 5463TIP3    H216333   2.415   4.248   6.483  1.0570  0.6147  1.2907
 5464TIP3   OH216334   1.528   0.551   1.261 -0.2427 -0.5811  0.2612
 5464TIP3    H116335   1.457   0.519   1.205 -1.9147  0.5375  1.6633
 5464TIP3    H216336   1.515   0.504   1.344 -0.2027  0.6545  0.9789
 5465TIP3   OH216337   5.933   0.855   0.877  0.2595 -0.1031 -0.6249
 5465TIP3    H116338   5.963   0.933   0.830  0.9353  0.6826  1.0708
 5465TIP3    H216339   5.841   0.847   0.855  0.1471  1.2701 -0.6956
 5466TIP3   OH216340   4.722   7.170   0.480  0.2841 -0.0090 -0.3932
 5466TIP3    H116341   4.726   7.080   0.511  0.9493 -0.6285 -2.2155
 5466TIP3    H216342   4.806   7.208   0.506 -0.0084  0.0993  0.4017
 5467TIP3   OH216343   6.994   0.495   1.116 -0.3303 -0.8726 -0.2705
 5467TIP3    H116344   7.071   0.501   1.059  1.6016  2.6836  2.4662
 5467TIP3    H216345   6.932   0.559   1.079  0.0855 -0.0776  0.3965
 5468TIP3   OH216346   5.080   6.962   2.601  0.4288 -0.1306 -0.6555
 5468TIP3    H116347   5.012   6.906   2.639 -1.3257  2.0282 -0.5378
 5468TIP3    H216348   5.084   6.934   2.509 -2.8750  1.7302 -1.4798
 5469TIP3   OH216349   2.127   7.479   2.881  0.0423  0.0973  0.2220
 5469TIP3    H116350   2.085   7.473   2.968 -1.7477  0.8203 -0.5587
 5469TIP3    H216351   2.181   7.557   2.886 -0.0959  0.1671  0.6856
 5470TIP3   OH216352   5.652   7.140   2.251 -0.4119 -0.1511 -0.4223
 5470TIP3    H116353   5.573   7.177   2.290 -0.2953  1.6751 -1.8559
 5470TIP3    H216354   5.619   7.085   2.179 -0.5299 -2.1577  1.1110
 5471TIP3   OH216355   8.073   7.143   1.773 -0.3004  1.0447  0.0392
 5471TIP3    H116356   8.159   7.119   1.739 -0.5773  0.3114 -0.1586
 5471TIP3    H216357   8.013   7.079   1.734 -0.9289  1.5335  0.1991
 5472TIP3   OH216358   7.192   0.154   1.039 -0.0642 -0.5253 -0.4210
 5472TIP3    H116359   7.129   0.150   0.968 -0.0410 -0.6694 -0.4335
 5472TIP3    H216360   7.243   0.074   1.030 -1.4962 -1.6462  1.0895
 5473TIP3   OH216361   5.469   6.702   0.395  0.2380 -0.4271  0.8228
 5473TIP3    H116362   5.436   6.622   0.352 -0.5860  0.0073  0.6312
 5473TIP3    H216363   5.415   6.772   0.358  1.8730  0.3965 -0.0393
 5474TIP3   OH216364   8.391   0.008   0.637 -0.3270 -0.0282 -0.0994
 5474TIP3    H116365   8.325   0.027   0.571  0.5290  0.7221 -0.7377
 5474TIP3    H216366   8.399   0.089   0.688  1.7264  0.6687 -1.4518
 5475TIP3   OH216367   0.530   0.255   2.786 -0.1220 -0.0593 -0.7123
 5475TIP3    H116368   0.536   0.294   2.873 -1.2338 -0.2434 -0.5476
 5475TIP3    H216369   0.593   0.183   2.787  0.5054  0.4940 -0.3592
 5476TIP3   OH216370   3.165   2.938   5.516  0.0916 -0.1340  0.0935
 5476TIP3    H116371   3.228   3.008   5.502 -2.0905  1.7566 -0.5660
 5476TIP3    H216372   3.194   2.895   5.596  2.3942  0.4728 -0.3889
 5477TIP3   OH216373   5.144   7.857   0.706 -0.6381 -0.0378 -0.6712
 5477TIP3    H116374   5.085   7.826   0.637 -0.2770  0.4461 -1.2019
 5477TIP3    H216375   5.087   7.902   0.768 -1.0875 -1.2196 -0.2065
 5478TIP3   OH216376   5.409   6.516   0.186 -1.4393  0.6296  0.6561
 5478TIP3    H116377   5.440   6.576   0.119 -1.8736  0.4595  0.3036
 5478TIP3    H216378   5.404   6.431   0.143 -1.3819  0.4492  0.9974
 5479TIP3   OH216379   6.912   0.440   0.841  0.8127 -0.3112 -0.2014
 5479TIP3    H116380   6.946   0.529   0.850 -0.7630  0.4115 -1.1891
 5479TIP3    H216381   6.934   0.414   0.752 -0.4037 -0.1776 -0.5527
 5480TIP3   OH216382   5.310   7.727   0.981 -0.5145  0.0274  0.2760
 5480TIP3    H116383   5.308   7.632   0.996  0.3525 -0.1682 -0.7436
 5480TIP3    H216384   5.248   7.740   0.908 -1.7634  0.4538  1.3888
 5481TIP3   OH216385   5.578   0.974   4.125 -0.1239  0.1223  0.0942
 5481TIP3    H116386   5.633   0.897   4.139  1.9701  1.2645 -1.4394
 5481TIP3    H216387   5.573   0.983   4.030 -2.9456  0.1130  0.2088
 5482TIP3   OH216388   2.690   7.509   0.838  0.2629  0.6331  0.0936
 5482TIP3    H116389   2.666   7.460   0.917  3.5683  2.4808  2.3870
 5482TIP3    H216390   2.750   7.451   0.791 -0.4858  0.1334 -0.2371
 5483TIP3   OH216391   7.957   0.144   1.285 -0.1107  0.1302  0.2136
 5483TIP3    H116392   7.930   0.217   1.340 -0.7341  0.1183 -0.0739
 5483TIP3    H216393   7.962   0.069   1.344 -0.7535  0.1216  0.2556
 5484TIP3   OH216394   4.517   7.128   2.024  0.1162 -0.6122  0.0690
 5484TIP3    H116395   4.539   7.211   1.981 -1.4593 -0.1250  0.1642
 5484TIP3    H216396   4.452   7.088   1.966 -1.6318 -0.1918  1.7090
 5485TIP3   OH216397   7.451   7.606   2.078 -0.5810 -0.4055 -0.2856
 5485TIP3    H116398   7.418   7.520   2.054 -0.2495 -0.1027 -1.8734
 5485TIP3    H216399   7.540   7.608   2.043  0.2770 -0.2975  1.8227
 5486TIP3   OH216400   4.938   6.833   1.069 -0.0118  0.2096  0.0892
 5486TIP3    H116401   5.030   6.824   1.046  0.7312  0.4920  2.7725
 5486TIP3    H216402   4.913   6.747   1.104 -0.9007  0.0029 -1.0099
 5487TIP3   OH216403   5.000   5.479   0.986  0.8689  0.5319 -1.0290
 5487TIP3    H116404   5.034   5.545   0.924 -0.5209  0.1334 -2.2373
 5487TIP3    H216405   4.930   5.435   0.938  1.1706 -1.2239  0.0946
 5488TIP3   OH216406   6.662   1.566   1.155  0.0607 -0.2191 -0.1970
 5488TIP3    H116407   6.577   1.560   1.198  0.5060 -0.2816  0.6988
 5488TIP3    H216408   6.658   1.502   1.084  0.1443 -1.8089  1.2126
 5489TIP3   OH216409   0.705   0.140   1.840  0.4908  0.6613  0.0166
 5489TIP3    H116410   0.784   0.102   1.878  0.7453  0.2881 -0.8804
 5489TIP3    H216411   0.675   0.075   1.776 -0.2562  1.0269 -0.0099
 5490TIP3   OH216412   4.548   6.622   0.707  0.0439  0.0549 -0.3679
 5490TIP3    H116413   4.477   6.661   0.758 -1.9563 -2.9724 -0.6828
 5490TIP3    H216414   4.607   6.584   0.772 -0.6412 -0.7323 -0.2026
 5491TIP3   OH216415   5.478   7.145   1.622  0.0632 -0.0357  0.2078
 5491TIP3    H116416   5.411   7.095   1.670  0.5270  1.3227  2.3385
 5491TIP3    H216417   5.429   7.214   1.577 -0.4537 -1.7080 -1.8641
 5492TIP3   OH216418   8.206   0.406   2.076  0.1688 -0.0115  0.0173
 5492TIP3    H116419   8.194   0.482   2.020  0.9666 -0.6803 -1.1052
 5492TIP3    H216420   8.284   0.427   2.128 -0.1628  0.3251  0.3751
 5493TIP3   OH216421   1.739   3.765   5.910  0.4100 -0.1446 -0.2026
 5493TIP3    H116422   1.651   3.794   5.934  0.1523 -1.5402  0.5703
 5493TIP3    H216423   1.725   3.704   5.837  0.6590 -1.0498  0.5022
 5494TIP3   OH216424   8.128   0.194   1.932  0.0980  0.0986  0.2921
 5494TIP3    H116425   8.056   0.141   1.966  0.0874  0.6003  1.0685
 5494TIP3    H216426   8.143   0.260   1.999  1.5262 -0.2141  0.3039
 5495TIP3   OH216427   0.972   0.668   3.486  0.2636  0.1280 -0.3687
 5495TIP3    H116428   1.011   0.581   3.482 -0.4952 -0.2600  0.6069
 5495TIP3    H216429   1.047   0.728   3.480  0.7420 -0.5664 -1.6321
 5496TIP3   OH216430   7.400   0.221   1.569 -0.3672  0.3564 -0.1966
 5496TIP3    H116431   7.323   0.261   1.529 -0.8916 -0.7589 -0.3199
 5496TIP3    H216432   7.447   0.294   1.609 -1.4010  1.0666 -0.2637
 5497TIP3   OH216433   3.447   7.076   2.037  0.2301  0.0817  0.4720
 5497TIP3    H116434   3.377   7.012   2.031 -0.9445  1.2739  1.1904
 5497TIP3    H216435   3.517   7.031   2.085 -0.2668 -0.9210  0.2461
 5498TIP3   OH216436   8.166   7.387   0.908 -0.5223  0.1319 -0.3371
 5498TIP3    H116437   8.108   7.426   0.973 -0.4761  0.5163 -0.5293
 5498TIP3    H216438   8.204   7.461   0.861  0.9500 -0.0809  0.4911
 5499TIP3   OH216439   4.454   7.612   1.071 -0.2267 -0.1690  0.1438
 5499TIP3    H116440   4.411   7.611   1.156 -0.6545 -2.2946 -0.0719
 5499TIP3    H216441   4.399   7.558   1.015  0.9401 -0.1797 -1.0266
 5500TIP3   OH216442   8.117   1.068   0.555  0.0188  0.2094  0.6923
 5500TIP3    H116443   8.047   1.004   0.546  0.8790 -0.6907  0.3515
 5500TIP3    H216444   8.167   1.039   0.631  1.4486 -0.5306 -0.5099
 5501TIP3   OH216445   5.051   0.190   2.090 -0.2394  0.3073  0.2639
 5501TIP3    H116446   4.968   0.229   2.116 -0.6675  1.2600 -2.3538
 5501TIP3    H216447   5.030   0.141   2.010  1.3490 -0.9777  0.6158
 5502TIP3   OH216448   6.736   6.645   1.353 -0.2893  0.5759  0.4300
 5502TIP3    H116449   6.657   6.591   1.364  0.2159 -0.6010 -1.4261
 5502TIP3    H216450   6.702   6.733   1.334 -1.1432  0.3398  0.8166
 5503TIP3   OH216451   8.354   1.837   0.084  0.1123  0.3176 -0.3966
 5503TIP3    H116452   8.326   1.746   0.069 -1.0178  0.7624 -1.0622
 5503TIP3    H216453   8.445   1.829   0.114  0.2974 -0.9946 -1.2313
 5504TIP3   OH216454   4.487   7.091   1.188 -0.0852 -0.8128  0.1701
 5504TIP3    H116455   4.570   7.053   1.162  0.6436  1.2282 -0.6199
 5504TIP3    H216456   4.507   7.184   1.205 -2.1470 -0.3333  0.1484
 5505TIP3   OH216457   3.375   7.467   0.650  0.3115 -0.6989 -0.0135
 5505TIP3    H116458   3.449   7.418   0.612  0.3745 -0.6854  0.0917
 5505TIP3    H216459   3.316   7.399   0.682  1.3706 -0.6993  2.0089
 5506TIP3   OH216460   1.215   0.311   2.479 -0.3736  0.3981  0.4909
 5506TIP3    H116461   1.292   0.364   2.498 -0.1223  0.5370 -0.8933
 5506TIP3    H216462   1.194   0.330   2.388 -0.8866 -1.1062  0.2745
 5507TIP3   OH216463   2.006   3.778   6.725 -0.1878  0.4768  0.2001
 5507TIP3    H116464   2.028   3.761   6.633 -0.1848 -1.8765  0.6134
 5507TIP3    H216465   2.084   3.753   6.773  0.0110  2.2445  0.8218
 5508TIP3   OH216466   3.388   5.935   1.181  0.2027  0.3874 -0.2206
 5508TIP3    H116467   3.440   5.908   1.105  0.9986 -0.5098  0.6349
 5508TIP3    H216468   3.299   5.909   1.159  0.4735 -0.1342 -0.7234
 5509TIP3   OH216469   4.172   7.130   1.246 -0.0658  0.9706 -0.0597
 5509TIP3    H116470   4.105   7.184   1.286  0.1752  2.3042 -1.4272
 5509TIP3    H216471   4.188   7.170   1.161 -0.0347 -1.3690 -1.1869
 5510TIP3   OH216472   1.880   3.327   5.870  0.0195 -0.3968  0.0995
 5510TIP3    H116473   1.952   3.317   5.932 -0.1273 -3.4963 -0.1657
 5510TIP3    H216474   1.808   3.363   5.922  0.6278 -0.7608  1.1984
 5511TIP3   OH216475   5.519   7.041   1.340 -0.1986 -0.0253  0.0225
 5511TIP3    H116476   5.534   6.955   1.300 -0.4698 -0.2574  0.4184
 5511TIP3    H216477   5.572   7.040   1.420  0.8104  0.6652 -0.6390
 5512TIP3   OH216478   6.138   7.019   2.563 -0.2706  0.0443 -0.1153
 5512TIP3    H116479   6.208   7.081   2.546  1.3460 -1.9663 -0.9572
 5512TIP3    H216480   6.113   6.986   2.477 -0.7918 -0.8212  0.3519
 5513TIP3   OH216481   5.804   6.578   1.486 -0.6333  0.0785  0.3535
 5513TIP3    H116482   5.760   6.493   1.485 -1.6204  0.5636  1.5172
 5513TIP3    H216483   5.885   6.562   1.534  0.4604 -0.7899 -1.7043
 5514TIP3   OH216484   1.298   3.897   6.812 -0.2254 -0.9481 -0.4554
 5514TIP3    H116485   1.237   3.944   6.754  1.2640  0.6627 -0.7655
 5514TIP3    H216486   1.365   3.862   6.753  0.7878 -0.1008  0.1699
 5515TIP3   OH216487   6.361   0.903   0.933 -0.1710 -0.0019 -0.4524
 5515TIP3    H116488   6.311   0.826   0.961  0.6608 -0.6490 -0.7171
 5515TIP3    H216489   6.358   0.962   1.008 -0.2062 -0.5969  0.0218
 5516TIP3   OH216490   5.350   6.898   2.209  0.3689 -0.4042  0.0495
 5516TIP3    H116491   5.392   6.944   2.136 -1.8367  1.2187 -0.2769
 5516TIP3    H216492   5.335   6.809   2.176 -0.0177  0.1329 -1.2680
 5517TIP3   OH216493   0.322   4.685   6.840  0.7400  1.1042 -0.1576
 5517TIP3    H116494   0.268   4.641   6.774 -0.8372  2.3599  0.2677
 5517TIP3    H216495   0.402   4.709   6.793  1.3716 -1.6278 -0.5496
 5518TIP3   OH216496   7.205   1.625   3.590 -0.0481  0.5778 -0.0506
 5518TIP3    H116497   7.276   1.640   3.652  1.1727 -1.1971 -0.9754
 5518TIP3    H216498   7.131   1.595   3.644  0.1550  1.6310  0.8196
 5519TIP3   OH216499   6.111   7.821   2.826 -0.2103 -0.1895 -0.3193
 5519TIP3    H116500   6.171   7.896   2.833 -0.2834 -0.0154 -1.4722
 5519TIP3    H216501   6.029   7.852   2.864  0.3081 -0.3026  0.9170
 5520TIP3   OH216502   5.409   7.951   1.321 -0.6385  0.2839 -0.8652
 5520TIP3    H116503   5.371   7.979   1.238  1.0803  0.7294 -1.5401
 5520TIP3    H216504   5.480   8.014   1.336 -0.6918 -0.0351  0.7398
 5521TIP3   OH216505   6.138   6.808   0.264  0.5004 -0.5735 -0.4759
 5521TIP3    H116506   6.231   6.827   0.248  0.9045  0.2815  2.6697
 5521TIP3    H216507   6.138   6.728   0.316 -0.1739  2.0829  3.8579
 5522TIP3   OH216508   6.028   6.680   5.410 -0.4156  0.1406  0.5087
 5522TIP3    H116509   6.082   6.614   5.365 -0.9580 -0.2536  0.4273
 5522TIP3    H216510   6.043   6.760   5.361  0.1761  0.0514  0.5471
 5523TIP3   OH216511   7.056   2.840   2.857 -0.4428  0.3064  0.1745
 5523TIP3    H116512   7.089   2.873   2.940  0.5293  1.2781 -0.5891
 5523TIP3    H216513   7.103   2.890   2.791 -0.7582 -0.8880 -0.9697
 5524TIP3   OH216514   6.506   6.380   0.023  0.2551  0.4460 -0.5841
 5524TIP3    H116515   6.504   6.323   0.100  1.0385  0.4828 -0.5365
 5524TIP3    H216516   6.434   6.348  -0.032 -0.3443  0.4571  0.1825
 5525TIP3   OH216517   4.719   7.705   3.371  0.7403 -0.5356 -0.8154
 5525TIP3    H116518   4.625   7.691   3.362  0.4930  0.3862  0.1717
 5525TIP3    H216519   4.731   7.799   3.352  1.2305 -0.2981  0.6176
 5526TIP3   OH216520   5.109   7.758   3.678  0.1015  0.1163  0.4002
 5526TIP3    H116521   5.135   7.698   3.608  0.5934  1.9260 -0.9835
 5526TIP3    H216522   5.046   7.708   3.730 -0.3063 -1.2372 -1.3474
 5527TIP3   OH216523   4.936   7.542   2.809 -0.1409 -0.2194 -0.1100
 5527TIP3    H116524   4.927   7.447   2.820  0.7566 -0.3576 -0.4951
 5527TIP3    H216525   5.008   7.566   2.868  1.0535 -0.1263 -1.5611
 5528TIP3   OH216526   0.661   1.112   1.596  0.3563  0.5684 -0.0821
 5528TIP3    H116527   0.584   1.147   1.550  0.0343 -1.8430 -1.5041
 5528TIP3    H216528   0.735   1.152   1.553 -0.0645  1.7218  0.2564
 5529TIP3   OH216529   5.561   5.140   5.396  0.0166  0.6818 -0.4406
 5529TIP3    H116530   5.488   5.149   5.458 -1.3252 -1.7376 -1.6158
 5529TIP3    H216531   5.582   5.231   5.372 -2.4630  1.4422  0.0892
 5530TIP3   OH216532   5.517   7.941   2.640  0.3434  0.0625  0.1118
 5530TIP3    H116533   5.581   7.999   2.597  0.6021 -1.4807 -1.6260
 5530TIP3    H216534   5.565   7.859   2.654 -0.9776 -0.7889 -0.3250
 5531TIP3   OH216535   0.214   0.165   0.912 -0.5708  0.3423 -0.6416
 5531TIP3    H116536   0.159   0.126   0.843 -0.9152 -0.0742 -0.1332
 5531TIP3    H216537   0.152   0.211   0.969 -0.0081  3.0772 -2.1566
 5532TIP3   OH216538   4.701   7.172   0.803  0.0175  0.6345 -0.4468
 5532TIP3    H116539   4.701   7.256   0.758  2.2871  1.0709  0.2916
 5532TIP3    H216540   4.706   7.107   0.733 -1.7358  1.0877 -1.0157
 5533TIP3   OH216541   5.317   6.931   1.731  0.2744 -0.4582  0.4805
 5533TIP3    H116542   5.226   6.925   1.701  0.0634  0.5240  0.8802
 5533TIP3    H216543   5.315   6.898   1.821  0.2586 -0.2109  0.5729
 5534TIP3   OH216544   7.803   1.907   2.785  0.4697 -0.7231 -0.3790
 5534TIP3    H116545   7.736   1.949   2.730 -0.1339  0.4273  1.2147
 5534TIP3    H216546   7.870   1.974   2.797  0.6705 -1.0225  0.1823
 5535TIP3   OH216547   5.582   5.465   2.302 -0.3107 -0.3755  0.2047
 5535TIP3    H116548   5.540   5.381   2.321 -0.8371  0.1742  1.4796
 5535TIP3    H216549   5.649   5.443   2.237 -1.1460 -1.6065 -0.2708
 5536TIP3   OH216550   8.079   1.831   4.136 -0.2210 -0.6866 -0.0631
 5536TIP3    H116551   8.058   1.921   4.111 -1.8355 -1.1663 -0.4818
 5536TIP3    H216552   8.123   1.839   4.220  1.5739  0.6415 -1.0768
 5537TIP3   OH216553   5.668   1.022   1.105 -0.0980 -0.0325 -0.5593
 5537TIP3    H116554   5.616   0.990   1.032 -1.9015  1.8235 -0.1331
 5537TIP3    H216555   5.604   1.054   1.168  1.5107  2.6971 -0.2251
 5538TIP3   OH216556   5.370   6.721   1.476 -0.2447 -0.2355  0.4347
 5538TIP3    H116557   5.363   6.692   1.385  0.9590 -0.1548  0.3007
 5538TIP3    H216558   5.284   6.758   1.496 -0.4865 -0.1440 -0.7095
 5539TIP3   OH216559   5.992   7.058   0.299 -0.1061 -0.1494 -0.0862
 5539TIP3    H116560   6.040   6.993   0.350  1.6918  0.8180 -0.4727
 5539TIP3    H216561   6.010   7.035   0.208  0.0901  0.5495 -0.2301
 5540TIP3   OH216562   3.568   7.001   0.799 -0.6355  0.0464 -0.5844
 5540TIP3    H116563   3.606   6.925   0.844  1.1518  0.1045 -1.9508
 5540TIP3    H216564   3.518   7.046   0.867 -0.5728 -1.5986  0.5825
 5541TIP3   OH216565   5.428   1.018   3.606  0.1002  0.0805  0.2905
 5541TIP3    H116566   5.341   1.044   3.637  0.2392  0.2820  0.5101
 5541TIP3    H216567   5.458   1.092   3.553  0.3499  0.2240  0.6317
 5542TIP3   OH216568   6.388   7.377   2.080  0.1309  0.6683 -0.1079
 5542TIP3    H116569   6.295   7.378   2.100  0.7060  1.7749  2.7876
 5542TIP3    H216570   6.424   7.304   2.130  0.9313  0.6390 -0.6982
 5543TIP3   OH216571   0.499   0.252   2.246  0.1788  0.1410  0.7420
 5543TIP3    H116572   0.411   0.233   2.213  0.6754 -0.5193 -0.2395
 5543TIP3    H216573   0.547   0.281   2.168  1.0906 -0.4182  1.0975
 5544TIP3   OH216574   3.550   4.657   6.115  0.0516  0.1900  0.0486
 5544TIP3    H116575   3.602   4.736   6.102  0.1646  0.2363  0.7312
 5544TIP3    H216576   3.478   4.665   6.052  0.3494  0.5840 -0.2460
 5545TIP3   OH216577   6.530   0.951   1.805  0.2782 -0.4666  0.2224
 5545TIP3    H116578   6.490   0.865   1.791  0.5237 -0.2738 -1.9613
 5545TIP3    H216579   6.455   1.009   1.820  0.1187 -1.0616  1.8215
 5546TIP3   OH216580   5.258   4.758   0.735 -1.0222 -0.4029 -0.1240
 5546TIP3    H116581   5.337   4.712   0.709  0.4644  2.4963 -1.0037
 5546TIP3    H216582   5.193   4.736   0.668  0.8748  1.9127 -2.8627
 5547TIP3   OH216583   0.796   0.939   2.692  0.1679 -0.1393  0.2545
 5547TIP3    H116584   0.888   0.915   2.684  1.4416  4.0311  1.2544
 5547TIP3    H216585   0.779   0.996   2.617 -0.4319  2.2825  2.1621
 5548TIP3   OH216586   3.537   3.937   6.604  0.5105 -0.1046 -0.1626
 5548TIP3    H116587   3.591   4.000   6.556 -1.3375  1.4384 -0.2603
 5548TIP3    H216588   3.456   3.930   6.553 -0.5706 -0.1569  1.5088
 5549TIP3   OH216589   8.165   0.515   0.721 -0.3846  0.2748 -0.0705
 5549TIP3    H116590   8.127   0.428   0.735  0.6573 -0.2632 -0.4977
 5549TIP3    H216591   8.158   0.529   0.626 -2.1561  1.4214  0.2216
 5550TIP3   OH216592   4.733   7.691   1.024  0.3974  0.5896 -0.2619
 5550TIP3    H116593   4.738   7.777   1.067  0.0002 -0.2397  1.4805
 5550TIP3    H216594   4.640   7.669   1.025  0.7202 -0.9169  1.5115
 5551TIP3   OH216595   2.690   8.007   3.866 -0.0865  0.1782  0.2736
 5551TIP3    H116596   2.716   7.934   3.809 -0.4546  0.2840 -0.0254
 5551TIP3    H216597   2.640   7.965   3.937  1.3543 -0.0959  1.1490
 5552TIP3   OH216598   5.797   7.628   1.917 -0.0775 -0.1158  0.2773
 5552TIP3    H116599   5.871   7.573   1.942 -0.3943 -0.4846  0.4265
 5552TIP3    H216600   5.720   7.577   1.944 -0.4432 -0.6936 -1.7364
 5553TIP3   OH216601   1.652   2.523   6.086 -0.6161  0.3496 -0.3432
 5553TIP3    H116602   1.561   2.528   6.057 -0.5219  2.2831 -0.4124
 5553TIP3    H216603   1.647   2.534   6.181 -0.5966 -1.6314 -0.0967
 5554TIP3   OH216604   1.326   3.694   6.158 -0.0513  0.4316 -0.3982
 5554TIP3    H116605   1.294   3.630   6.094 -1.4967  1.1407 -0.3942
 5554TIP3    H216606   1.251   3.750   6.176  0.5909  0.7824  1.2758
 5555TIP3   OH216607   6.096   7.029   1.746 -0.0214 -0.4217 -0.3402
 5555TIP3    H116608   6.024   7.035   1.683  0.8174 -2.2715 -1.5135
 5555TIP3    H216609   6.110   7.119   1.775 -3.6058 -0.1440  0.8577
 5556TIP3   OH216610   6.491   7.062   1.874 -0.3143  0.1574 -1.0403
 5556TIP3    H116611   6.553   7.124   1.836  0.0135  0.3716 -0.1649
 5556TIP3    H216612   6.493   6.986   1.815 -0.1189  0.6489 -1.6651
 5557TIP3   OH216613   4.593   6.296   0.674 -0.3827 -0.5187  0.3556
 5557TIP3    H116614   4.612   6.293   0.767 -0.0908 -0.8920  0.2856
 5557TIP3    H216615   4.564   6.207   0.652 -0.8218 -0.3352  0.1660
 5558TIP3   OH216616   5.884   6.464   2.038 -0.1407 -0.3051  0.7608
 5558TIP3    H116617   5.892   6.374   2.005  0.4993 -0.9719  2.6295
 5558TIP3    H216618   5.840   6.454   2.122 -1.1931  1.2752  0.3953
 5559TIP3   OH216619   6.568   5.980   1.385  0.7666 -0.0288 -0.5927
 5559TIP3    H116620   6.572   5.926   1.464 -0.2292 -0.8229 -1.0785
 5559TIP3    H216621   6.478   5.971   1.354  0.2212  2.8434 -0.0637
 5560TIP3   OH216622   1.096   2.571   6.278 -0.1030 -0.3244 -0.5030
 5560TIP3    H116623   1.157   2.566   6.352  0.2872 -0.7082 -0.8525
 5560TIP3    H216624   1.131   2.510   6.214 -1.2679 -1.1183 -0.4031
 5561TIP3   OH216625   7.554   0.721   1.621  0.0168  0.3453  0.4048
 5561TIP3    H116626   7.535   0.717   1.715 -0.2125  0.2252  0.3548
 5561TIP3    H216627   7.649   0.724   1.616  0.0080  1.3171  0.6776
 5562TIP3   OH216628   6.005   0.654   0.186 -0.3227 -0.0766 -0.4655
 5562TIP3    H116629   6.101   0.655   0.197 -0.2603  0.3642 -1.0378
 5562TIP3    H216630   5.992   0.665   0.092 -0.9708  0.9887 -0.2513
 5563TIP3   OH216631   4.418   3.606   5.342  0.0769  0.3640  0.2778
 5563TIP3    H116632   4.473   3.552   5.286  0.8673  1.2840  0.1523
 5563TIP3    H216633   4.392   3.680   5.287  0.4957  1.0420  0.9743
 5564TIP3   OH216634   2.305   7.134   0.671  0.1890  0.1263 -0.3769
 5564TIP3    H116635   2.390   7.176   0.660  0.3896 -0.6342 -1.9794
 5564TIP3    H216636   2.315   7.078   0.748  1.2840 -0.2982 -0.8178
 5565TIP3   OH216637   1.306   2.871   6.636  0.1438  0.2674 -0.0660
 5565TIP3    H116638   1.306   2.838   6.726 -0.8212 -0.6640 -0.3872
 5565TIP3    H216639   1.379   2.825   6.594 -1.8920 -2.4813 -0.8205
 5566TIP3   OH216640   2.890   8.012   2.576  0.4561  0.8606  0.5078
 5566TIP3    H116641   2.863   8.001   2.485 -0.2849 -2.5449  1.0923
 5566TIP3    H216642   2.941   7.934   2.596  0.9649  1.7618  2.9164
 5567TIP3   OH216643   6.170   0.197   3.433  0.3790 -0.2063 -0.0437
 5567TIP3    H116644   6.167   0.109   3.472  1.2634 -0.2430 -0.0347
 5567TIP3    H216645   6.158   0.256   3.507 -1.2126 -0.3306 -0.1904
 5568TIP3   OH216646   8.097   5.466   1.937 -0.0077  0.1129  0.1067
 5568TIP3    H116647   8.178   5.513   1.957 -0.1248  1.0966 -1.6471
 5568TIP3    H216648   8.115   5.422   1.853 -0.5984 -1.3216  0.7139
 5569TIP3   OH216649   7.077   6.761   2.026  0.3777  0.2559 -0.3851
 5569TIP3    H116650   7.011   6.713   1.978 -1.1673 -0.3821  2.2657
 5569TIP3    H216651   7.046   6.852   2.026 -0.2745  0.0325  0.4897
 5570TIP3   OH216652   1.902   0.460   0.046  0.4218 -0.0835  0.0680
 5570TIP3    H116653   1.933   0.537   0.094 -1.3724  2.3018 -2.4283
 5570TIP3    H216654   1.825   0.431   0.096  0.3874  0.4903  0.3591
 5571TIP3   OH216655   0.943   1.272   0.056 -0.2081  0.2707  0.8308
 5571TIP3    H116656   1.007   1.232   0.114  3.6036  2.9060 -1.3580
 5571TIP3    H216657   0.965   1.239  -0.031 -1.5540  1.5381 -0.0111
 5572TIP3   OH216658   6.242   7.739   0.352 -0.2429 -0.1489 -0.2695
 5572TIP3    H116659   6.279   7.716   0.267 -1.0451 -0.7957 -0.4432
 5572TIP3    H216660   6.211   7.656   0.388 -0.1534  0.1603  0.5422
 5573TIP3   OH216661   5.409   2.878   6.866 -0.2209 -0.5481  0.0008
 5573TIP3    H116662   5.492   2.921   6.846 -0.3538 -1.0137 -1.6689
 5573TIP3    H216663   5.353   2.948   6.901  1.8769 -0.8866  4.3281
 5574TIP3   OH216664   8.191   7.334   0.211 -0.2741 -0.1022  0.2745
 5574TIP3    H116665   8.202   7.412   0.265 -0.3729 -1.9308  3.0600
 5574TIP3    H216666   8.222   7.262   0.267 -1.8672 -2.2502 -1.5254
 5575TIP3   OH216667   5.682   7.740   1.692 -0.1984 -0.0722 -0.3164
 5575TIP3    H116668   5.624   7.800   1.738  1.5136  0.8456  0.7291
 5575TIP3    H216669   5.703   7.672   1.756 -0.8493 -0.8950 -0.9759
 5576TIP3   OH216670   4.833   5.103   6.751  0.8114  0.0761 -0.2400
 5576TIP3    H116671   4.843   5.046   6.827  0.3271  0.0433 -0.1992
 5576TIP3    H216672   4.877   5.185   6.776  0.3596  0.1852  0.2010
 5577TIP3   OH216673   8.330   6.732   1.302 -0.2479 -0.0273  0.1663
 5577TIP3    H116674   8.347   6.644   1.269 -0.4218 -0.0620  0.1714
 5577TIP3    H216675   8.237   6.732   1.324 -0.1878  0.0723  0.4188
 5578TIP3   OH216676   6.727   6.703   2.786 -0.6179  0.0472 -0.0841
 5578TIP3    H116677   6.763   6.791   2.774  0.6080 -0.3624  0.5357
 5578TIP3    H216678   6.690   6.705   2.874  0.1212 -0.2886  0.2420
 5579TIP3   OH216679   7.328   8.025   0.984 -0.0881  0.0690  0.1363
 5579TIP3    H116680   7.411   8.059   0.951  0.1628  0.0347  0.7282
 5579TIP3    H216681   7.338   7.930   0.982 -1.3420 -0.0326 -2.9413
 5580TIP3   OH216682   5.700   7.116   0.814  0.0675  0.0372 -0.2879
 5580TIP3    H116683   5.748   7.193   0.786  0.8886 -0.3997 -0.1082
 5580TIP3    H216684   5.762   7.069   0.870 -0.4505 -0.7072 -0.3354
 5581TIP3   OH216685   5.393   7.917   1.604  0.3628 -0.1209 -0.0775
 5581TIP3    H116686   5.394   7.934   1.510 -1.0461 -1.9270 -0.4512
 5581TIP3    H216687   5.427   7.998   1.643  1.6677  0.3842 -2.1544
 5582TIP3   OH216688   6.123   7.511   3.213 -0.0947 -0.5969 -0.4417
 5582TIP3    H116689   6.143   7.542   3.124 -0.7444 -1.7951 -1.0228
 5582TIP3    H216690   6.090   7.589   3.258 -1.0549 -0.2724 -1.6713
 5583TIP3   OH216691   1.443   0.195   0.225  0.1815 -0.2215 -0.3938
 5583TIP3    H116692   1.383   0.187   0.299  1.4427  1.5431  0.8623
 5583TIP3    H216693   1.503   0.122   0.235  0.9718  0.5952  0.9425
 5584TIP3   OH216694   6.999   7.687   2.040 -0.0860  0.2224 -0.3639
 5584TIP3    H116695   7.048   7.605   2.032  0.5568  0.5953 -0.2584
 5584TIP3    H216696   7.052   7.741   2.098 -0.7001  0.5699 -0.1285
 5585TIP3   OH216697   1.145   2.191   3.136 -0.0300  0.3480  0.1231
 5585TIP3    H116698   1.057   2.193   3.098 -1.2477 -2.9635  2.4657
 5585TIP3    H216699   1.139   2.249   3.212 -0.2485  0.1352  0.2742
 5586TIP3   OH216700   7.349   7.018   2.675  0.6197 -0.0770 -0.4078
 5586TIP3    H116701   7.387   7.040   2.760  0.4782 -0.8357 -0.1417
 5586TIP3    H216702   7.302   6.936   2.690  1.8120 -0.9961 -1.5507
 5587TIP3   OH216703   6.154   5.631  -0.025  0.0778  0.5151 -0.2412
 5587TIP3    H116704   6.111   5.693   0.034  1.4428  0.4145  0.8969
 5587TIP3    H216705   6.133   5.545   0.010  1.3139  0.4712  0.4156
 5588TIP3   OH216706   7.985   7.183   3.024 -0.1870  0.7713 -0.4181
 5588TIP3    H116707   7.983   7.109   2.964 -1.0591  2.2712 -2.2790
 5588TIP3    H216708   8.070   7.177   3.067  0.0143 -0.9239 -1.0229
 5589TIP3   OH216709   7.530   6.213   1.057 -0.7204 -0.0033 -0.2288
 5589TIP3    H116710   7.455   6.154   1.070 -0.6900 -0.2925 -1.2837
 5589TIP3    H216711   7.584   6.201   1.135 -1.6398  0.0026  0.4128
 5590TIP3   OH216712   1.987   2.026   1.349  0.6277 -0.3489  0.0354
 5590TIP3    H116713   2.021   2.063   1.267  0.1237  1.0706  0.4507
 5590TIP3    H216714   1.968   1.935   1.328 -0.3553  0.2364 -1.6798
 5591TIP3   OH216715   8.233   6.443   2.742  0.0645 -0.1704 -0.0396
 5591TIP3    H116716   8.297   6.513   2.754  0.5993 -0.6020 -0.3165
 5591TIP3    H216717   8.231   6.428   2.647  0.2157 -0.7636  0.0464
 5592TIP3   OH216718   5.552   6.252   2.285 -0.4210 -0.1602 -0.2271
 5592TIP3    H116719   5.643   6.280   2.281 -0.2446 -0.7101 -0.1879
 5592TIP3    H216720   5.522   6.276   2.373  0.4060 -2.1178  0.6174
 5593TIP3   OH216721   5.888   6.435   2.935 -0.2282  0.2143 -0.1361
 5593TIP3    H116722   5.870   6.524   2.964  0.7968 -0.0221  1.2639
 5593TIP3    H216723   5.832   6.379   2.990  0.8350 -0.1497  0.5974
 5594TIP3   OH216724   6.741   6.903   1.532 -0.2384 -0.6285 -0.1701
 5594TIP3    H116725   6.701   6.908   1.445 -2.3295 -0.2603  0.7874
 5594TIP3    H216726   6.669   6.884   1.591  1.1836 -0.9949  1.4942
 5595TIP3   OH216727   0.908   0.073   0.065 -0.1686  0.2078 -0.2559
 5595TIP3    H116728   0.814   0.086   0.076 -0.1635  1.7049 -1.7719
 5595TIP3    H216729   0.948   0.122   0.136 -0.5141 -0.0967  0.1500
 5596TIP3   OH216730   5.741   0.244   0.636  0.4832 -0.1733  0.3246
 5596TIP3    H116731   5.807   0.310   0.615  1.2582 -0.7666  0.8531
 5596TIP3    H216732   5.684   0.242   0.559  1.5381 -0.1888 -0.4673
 5597TIP3   OH216733   6.655   7.630   1.742 -0.1719  0.0522  0.4399
 5597TIP3    H116734   6.715   7.572   1.789 -0.5260 -1.5893 -1.0826
 5597TIP3    H216735   6.568   7.596   1.764 -0.3575 -0.3292 -0.8572
 5598TIP3   OH216736   5.287   2.154   6.397 -0.1890 -0.1113 -0.4049
 5598TIP3    H116737   5.235   2.210   6.339  0.7527  0.6591 -0.5233
 5598TIP3    H216738   5.222   2.105   6.448 -1.0257  0.5023 -0.8687
 5599TIP3   OH216739   4.671   6.670   0.473  0.4773  0.6007 -0.3627
 5599TIP3    H116740   4.614   6.671   0.550 -0.0254  0.0967 -0.7180
 5599TIP3    H216741   4.614   6.700   0.402  0.5205 -0.3650 -0.8089
 5600TIP3   OH216742   7.266   7.736   4.001 -0.4363  0.2252  0.0818
 5600TIP3    H116743   7.244   7.801   4.068 -1.9135  1.0187 -1.1175
 5600TIP3    H216744   7.339   7.774   3.953 -1.3255  1.0588 -0.6433
 5601TIP3   OH216745   6.113   7.482   4.036 -0.2967  0.1657  0.6909
 5601TIP3    H116746   6.207   7.501   4.042 -0.6640  2.6238 -0.4823
 5601TIP3    H216747   6.073   7.537   4.104 -1.1016  1.1113 -0.5177
 5602TIP3   OH216748   2.954   1.642   5.815  0.0592  0.2149 -0.3742
 5602TIP3    H116749   2.953   1.588   5.894 -1.5334  1.0629  0.1975
 5602TIP3    H216750   3.028   1.702   5.827 -0.7331  0.9478  0.8884
 5603TIP3   OH216751   4.437   5.112   0.811 -0.0315 -0.4105  0.4746
 5603TIP3    H116752   4.356   5.130   0.763 -0.6753  0.9129  2.0408
 5603TIP3    H216753   4.505   5.160   0.763 -0.2675 -0.9689 -0.4362
 5604TIP3   OH216754   6.448   7.137   2.185 -0.1766  0.0116 -0.1959
 5604TIP3    H116755   6.508   7.076   2.229 -1.0392 -0.1789  0.7274
 5604TIP3    H216756   6.443   7.104   2.095  1.2479  0.1442 -0.3452
 5605TIP3   OH216757   5.395   1.471   6.332  0.0122  0.2480  0.0498
 5605TIP3    H116758   5.450   1.414   6.386 -0.2433 -0.4631 -0.4327
 5605TIP3    H216759   5.305   1.446   6.355 -0.1215  1.7986  1.2539
 5606TIP3   OH216760   1.108   1.157   5.672  0.2129 -0.2677 -0.0617
 5606TIP3    H116761   1.102   1.240   5.625 -1.4515 -0.8654 -0.9287
 5606TIP3    H216762   1.117   1.182   5.764 -1.9678  0.8661 -0.1475
 5607TIP3   OH216763   3.286   0.160   6.303 -0.5331  0.0467 -0.0124
 5607TIP3    H116764   3.193   0.182   6.296 -1.1362 -2.4971 -0.5052
 5607TIP3    H216765   3.297   0.087   6.243  1.5594 -0.3968  0.8928
 5608TIP3   OH216766   5.847   3.985   1.061 -0.1358  0.6353  0.5081
 5608TIP3    H116767   5.887   4.056   1.011  1.0748 -0.0890  0.4204
 5608TIP3    H216768   5.867   3.906   1.010 -2.0365  0.2903  0.2556
 5609TIP3   OH216769   5.011   5.539   1.256 -0.1589 -0.4065 -0.3811
 5609TIP3    H116770   4.998   5.525   1.162  0.8959 -1.2136 -0.4160
 5609TIP3    H216771   4.925   5.566   1.288 -0.5528 -0.2186 -1.5572
 5610TIP3   OH216772   3.234   0.373   4.592 -0.2493  0.6864  0.2899
 5610TIP3    H116773   3.263   0.322   4.667 -1.4793 -0.8798 -0.2727
 5610TIP3    H216774   3.308   0.372   4.531 -0.6507 -1.3991 -0.1988
 5611TIP3   OH216775   0.907   0.810   5.308  0.4634 -0.2212 -0.4262
 5611TIP3    H116776   0.850   0.774   5.240  0.0213  1.1934 -0.8156
 5611TIP3    H216777   0.969   0.866   5.261 -0.2098  1.2242  0.3766
 5612TIP3   OH216778   2.723   0.943   5.703 -0.2679  0.7319 -0.5182
 5612TIP3    H116779   2.759   0.929   5.790 -0.4510  1.3027 -0.3457
 5612TIP3    H216780   2.679   1.028   5.709  0.2293  1.0523 -1.3253
 5613TIP3   OH216781   5.850   1.372   5.399 -0.5113  1.3654 -0.3481
 5613TIP3    H116782   5.761   1.369   5.364 -0.5440 -1.9414 -0.1535
 5613TIP3    H216783   5.840   1.391   5.492 -1.0635  0.2951 -0.1903
 5614TIP3   OH216784   2.988   1.350   6.327  0.0467  0.3708  0.3215
 5614TIP3    H116785   3.049   1.328   6.257  2.2013  0.0987  2.2513
 5614TIP3    H216786   2.944   1.267   6.347  0.9347 -0.0085  0.7185
 5615TIP3   OH216787   8.401   1.317   4.498 -0.0208 -0.0012 -0.9767
 5615TIP3    H116788   8.402   1.411   4.482 -0.0026  0.3713  1.0457
 5615TIP3    H216789   8.486   1.286   4.469 -0.0463  0.5989 -1.6989
 5616TIP3   OH216790   7.491   7.874   4.055 -0.2727  0.1720 -0.4111
 5616TIP3    H116791   7.466   7.961   4.023 -1.2076 -0.1968 -0.7008
 5616TIP3    H216792   7.585   7.869   4.040  0.1524  1.8849  1.3779
 5617TIP3   OH216793   1.687   1.063   3.711 -0.1738  0.1708  0.6039
 5617TIP3    H116794   1.715   0.974   3.735  0.6561  0.5988  1.2377
 5617TIP3    H216795   1.650   1.099   3.792 -1.0497  0.2020  0.1975
 5618TIP3   OH216796   0.711   0.441   5.071 -0.1119  0.1117 -0.4200
 5618TIP3    H116797   0.755   0.357   5.081 -0.3327 -0.0206 -0.5724
 5618TIP3    H216798   0.702   0.453   4.977 -2.1332 -0.7602 -0.3569
 5619TIP3   OH216799   7.391   0.237   6.295 -0.3557 -0.4471  0.0536
 5619TIP3    H116800   7.426   0.155   6.260 -1.0602 -0.6973 -0.0769
 5619TIP3    H216801   7.468   0.293   6.308  0.0011 -0.6460 -1.1251
 5620TIP3   OH216802   2.441   0.536   3.596  0.4496  0.2647 -0.0440
 5620TIP3    H116803   2.393   0.470   3.546  0.2775  0.7040 -0.4558
 5620TIP3    H216804   2.516   0.488   3.632  0.0149 -0.2900  0.1370
 5621TIP3   OH216805   3.749   1.301   5.844 -0.3746  0.2879  0.2542
 5621TIP3    H116806   3.811   1.251   5.792  2.2164  1.7215  1.8832
 5621TIP3    H216807   3.767   1.392   5.823  0.0278  0.8461  2.8572
 5622TIP3   OH216808   3.731   3.484   5.853 -0.4607  0.3211 -0.4554
 5622TIP3    H116809   3.793   3.556   5.868  0.7934 -0.3478 -2.2024
 5622TIP3    H216810   3.770   3.433   5.782 -2.5297 -0.7084 -0.9077
 5623TIP3   OH216811   3.620   1.234   3.432  0.6683 -0.4720 -0.1098
 5623TIP3    H116812   3.622   1.139   3.442  2.1615 -0.5778 -1.1801
 5623TIP3    H216813   3.579   1.248   3.347 -1.4860 -0.0520  0.9687
 5624TIP3   OH216814   7.664   0.360   4.645  0.3823 -0.9351  0.5991
 5624TIP3    H116815   7.672   0.390   4.736 -0.9020  2.6238 -0.3623
 5624TIP3    H216816   7.570   0.368   4.626  0.7637 -0.8659 -1.2859
 5625TIP3   OH216817   6.031  -0.006   5.863 -0.5749  0.2626  0.2768
 5625TIP3    H116818   5.937  -0.015   5.872 -0.6630  1.8772  1.1267
 5625TIP3    H216819   6.058   0.043   5.941  1.1360 -1.2554  0.6956
 5626TIP3   OH216820   3.650   0.976   6.335 -1.2267  0.1197  0.1230
 5626TIP3    H116821   3.638   0.964   6.241 -0.8518 -0.2785  0.1234
 5626TIP3    H216822   3.562   0.987   6.370 -1.3429  0.6411 -0.3256
 5627TIP3   OH216823   2.325   0.734   4.902 -0.0898  0.2384 -0.0917
 5627TIP3    H116824   2.369   0.665   4.952 -0.1117  0.3582  0.0938
 5627TIP3    H216825   2.379   0.812   4.917  0.8054 -0.0958 -1.5606
 5628TIP3   OH216826   3.297   0.216   4.818  0.6970 -0.3148  0.5729
 5628TIP3    H116827   3.323   0.124   4.823 -1.8962 -1.0598  0.8895
 5628TIP3    H216828   3.350   0.259   4.885  1.4856 -1.6731  0.8453
 5629TIP3   OH216829   7.669   2.003   3.409 -0.4302 -0.0767 -0.4102
 5629TIP3    H116830   7.574   1.991   3.420 -0.7298  1.3590 -1.1837
 5629TIP3    H216831   7.686   1.972   3.320 -0.5252  1.3897 -0.9612
 5630TIP3   OH216832   0.919   1.428   6.679 -0.1597  0.2355 -0.2792
 5630TIP3    H116833   0.979   1.357   6.655 -0.0745  1.2490 -3.2859
 5630TIP3    H216834   0.837   1.406   6.635 -0.0509  2.0908 -1.4647
 5631TIP3   OH216835   2.145   1.472   3.303 -0.1060 -0.1307  0.0044
 5631TIP3    H116836   2.157   1.492   3.210  0.5985  0.1778  0.1571
 5631TIP3    H216837   2.065   1.520   3.327 -0.9554 -1.1654 -0.7162
 5632TIP3   OH216838   4.216   2.305   5.389  0.1889  0.9094 -0.1142
 5632TIP3    H116839   4.182   2.216   5.396  0.7465  0.5782 -1.4799
 5632TIP3    H216840   4.154   2.350   5.331 -0.7188  1.7461  1.4577
 5633TIP3   OH216841   3.260   0.407   6.726 -0.4028  0.2763  0.4028
 5633TIP3    H116842   3.229   0.425   6.815 -1.1748  0.7353  0.0463
 5633TIP3    H216843   3.282   0.314   6.727 -1.1227  0.1024  0.8687
 5634TIP3   OH216844   7.580   6.423   4.042  0.2198  0.4048  0.1082
 5634TIP3    H116845   7.650   6.485   4.062  0.6030  0.3635 -1.1069
 5634TIP3    H216846   7.561   6.436   3.949 -0.8244 -0.1526  0.2322
 5635TIP3   OH216847   0.340   2.423   4.133  0.3115  0.3988  0.4559
 5635TIP3    H116848   0.286   2.502   4.135  1.1195  0.9394  0.8442
 5635TIP3    H216849   0.299   2.368   4.066 -0.5479  0.9328  0.5409
 5636TIP3   OH216850   0.789   0.890   4.173 -0.3879 -0.4103  0.0358
 5636TIP3    H116851   0.715   0.879   4.112  0.8531  0.8365 -1.7356
 5636TIP3    H216852   0.826   0.802   4.181 -0.2065 -0.5045 -1.5135
 5637TIP3   OH216853   0.089   1.460   5.491 -0.0502 -0.9599 -0.4116
 5637TIP3    H116854   0.097   1.373   5.530  1.2511 -1.9055 -2.7318
 5637TIP3    H216855   0.155   1.462   5.422 -0.7130  1.5378 -1.0280
 5638TIP3   OH216856   2.324   1.799   2.847  0.0255 -0.3144  0.8063
 5638TIP3    H116857   2.411   1.838   2.834 -0.0852 -0.3755 -0.1710
 5638TIP3    H216858   2.272   1.869   2.886 -0.3121  0.7094 -1.4045
 5639TIP3   OH216859   6.830   2.705   5.648  0.0620 -0.0253  0.2216
 5639TIP3    H116860   6.782   2.756   5.714  0.3371  2.2942 -1.3014
 5639TIP3    H216861   6.917   2.693   5.686 -1.2097 -3.0540  2.3956
 5640TIP3   OH216862   6.875   7.553   3.553  0.0197  0.7758 -0.1843
 5640TIP3    H116863   6.791   7.541   3.598  0.7480  2.5180  1.6774
 5640TIP3    H216864   6.869   7.641   3.515  1.0297  0.9062 -0.0338
 5641TIP3   OH216865   5.227   4.793   0.329 -1.9553 -0.0194 -0.0872
 5641TIP3    H116866   5.234   4.713   0.278  0.1670 -1.4298  2.3040
 5641TIP3    H216867   5.183   4.767   0.410  2.0944  0.2514  2.3890
 5642TIP3   OH216868   1.514   1.794   5.376 -0.3907  0.0835 -0.2213
 5642TIP3    H116869   1.496   1.761   5.288 -1.8131 -0.7648  0.3672
 5642TIP3    H216870   1.545   1.883   5.361  0.4441 -0.4169 -1.6427
 5643TIP3   OH216871   1.468   1.407   4.862  0.8362 -0.4955 -0.4504
 5643TIP3    H116872   1.386   1.370   4.895  0.5382  0.2272 -0.3709
 5643TIP3    H216873   1.523   1.414   4.940  0.9355 -0.8680 -0.4836
 5644TIP3   OH216874   5.627   5.727   0.459  0.1613  0.1952  0.4076
 5644TIP3    H116875   5.549   5.727   0.403 -0.9904  2.2378  1.9487
 5644TIP3    H216876   5.617   5.805   0.514  2.7546 -0.1244  1.3970
 5645TIP3   OH216877   6.936   6.355   0.753 -0.1875 -0.2202  0.0166
 5645TIP3    H116878   7.020   6.401   0.746 -0.9233  0.9332 -1.4900
 5645TIP3    H216879   6.923   6.315   0.667 -0.4794 -1.6700  0.7122
 5646TIP3   OH216880   2.350   1.752   5.940  0.1372  0.3029 -0.1791
 5646TIP3    H116881   2.440   1.782   5.928  0.2210 -0.0600 -0.4749
 5646TIP3    H216882   2.301   1.831   5.961  0.2051  0.7751 -1.7715
 5647TIP3   OH216883   4.247   2.634   6.080 -0.3793 -0.2486 -0.0947
 5647TIP3    H116884   4.279   2.561   6.134  1.4942  1.4116  1.0824
 5647TIP3    H216885   4.298   2.628   5.999  0.9417  0.7239  0.6604
 5648TIP3   OH216886   2.992   1.659   3.697  0.7517 -0.1187  0.2547
 5648TIP3    H116887   2.912   1.644   3.747  0.9676  1.6865  1.1830
 5648TIP3    H216888   2.975   1.621   3.611 -0.2051 -1.8914  1.2033
 5649TIP3   OH216889   2.543   2.276   5.596 -0.1289  0.2474  0.1241
 5649TIP3    H116890   2.492   2.318   5.665  1.1994  0.3365  1.0766
 5649TIP3    H216891   2.596   2.347   5.559 -2.6552  0.7406 -2.7320
 5650TIP3   OH216892   3.404   0.270   3.896  0.2226  0.1067  0.6002
 5650TIP3    H116893   3.340   0.239   3.960  2.2921 -0.9720  2.2271
 5650TIP3    H216894   3.361   0.342   3.851 -2.8539 -1.8791  0.2609
 5651TIP3   OH216895   6.690   7.181   1.659 -0.2058  0.0606  0.0448
 5651TIP3    H116896   6.643   7.147   1.583 -1.2245 -2.5843  1.7854
 5651TIP3    H216897   6.782   7.176   1.635 -0.3545 -3.2087 -0.1369
 5652TIP3   OH216898   3.101   0.908   5.568 -0.2841 -0.1712  0.2351
 5652TIP3    H116899   3.188   0.948   5.568  0.1780 -1.1620  0.2885
 5652TIP3    H216900   3.043   0.977   5.599  0.2926  0.9006 -1.0209
 5653TIP3   OH216901   5.918   4.648   0.510 -0.8249  0.3323 -0.4789
 5653TIP3    H116902   5.869   4.723   0.476 -1.2229 -0.1870 -1.0530
 5653TIP3    H216903   6.009   4.676   0.506 -0.8639  0.2855 -1.9686
 5654TIP3   OH216904   6.162   5.112   0.659 -0.2696  0.6480 -0.0607
 5654TIP3    H116905   6.188   5.020   0.656 -1.2613  0.3927 -1.3848
 5654TIP3    H216906   6.159   5.133   0.752  0.3379 -0.5425  0.2434
 5655TIP3   OH216907   6.674   4.062   1.316  0.2066 -0.3308  0.3894
 5655TIP3    H116908   6.762   4.035   1.340  0.5519  1.3889  1.1790
 5655TIP3    H216909   6.656   4.018   1.234  2.5392  0.7242 -0.7242
 5656TIP3   OH216910   5.807   3.539   0.889 -0.0931  0.5694 -0.5393
 5656TIP3    H116911   5.850   3.542   0.975  2.2162 -0.4848 -1.6196
 5656TIP3    H216912   5.824   3.450   0.857 -1.5347  0.7342 -1.7891
 5657TIP3   OH216913   4.663   2.427   6.463 -0.6928 -0.0627  0.3648
 5657TIP3    H116914   4.604   2.486   6.417 -0.5315 -0.3023 -0.1638
 5657TIP3    H216915   4.633   2.428   6.554 -0.9840  0.4604  0.2647
 5658TIP3   OH216916   0.615   1.371   6.584 -0.7954  0.1705  0.0508
 5658TIP3    H116917   0.574   1.450   6.621  0.6769  1.0826 -0.2498
 5658TIP3    H216918   0.599   1.377   6.490 -0.3682  0.2978 -0.0141
 5659TIP3   OH216919   6.158   5.416   0.163 -0.1030  0.1638 -0.4364
 5659TIP3    H116920   6.092   5.438   0.229 -1.0681 -0.8854 -1.0293
 5659TIP3    H216921   6.182   5.325   0.183  0.9264  0.4344 -0.4269
 5660TIP3   OH216922   0.795   0.708   5.070  0.4935 -0.1183 -0.0303
 5660TIP3    H116923   0.748   0.624   5.069  0.2731 -0.0194  1.0403
 5660TIP3    H216924   0.771   0.750   4.988  2.7383 -2.2430 -1.8267
 5661TIP3   OH216925   7.284   4.239   1.144  0.4293 -0.3178 -0.7360
 5661TIP3    H116926   7.288   4.229   1.049 -1.4183  2.5720 -1.1524
 5661TIP3    H216927   7.247   4.156   1.175  1.8546 -1.6236 -2.4229
 5662TIP3   OH216928   1.996   1.662   5.387  0.0040  0.2029 -0.4300
 5662TIP3    H116929   1.905   1.636   5.386  0.2508 -0.6388 -0.7433
 5662TIP3    H216930   2.002   1.725   5.460 -0.9278  0.6815 -0.7650
 5663TIP3   OH216931   6.584   7.605   4.855 -0.4861 -0.4471  0.2377
 5663TIP3    H116932   6.620   7.599   4.943 -0.8447  0.5398  0.4573
 5663TIP3    H216933   6.572   7.514   4.828 -0.5168 -0.7535  1.2572
 5664TIP3   OH216934   3.053   1.700   4.740  0.8706 -0.0532 -0.5475
 5664TIP3    H116935   3.063   1.722   4.647 -1.1168  0.8691 -0.5622
 5664TIP3    H216936   3.045   1.604   4.741 -1.4409  0.1010 -1.5798
 5665TIP3   OH216937   6.504   3.945   0.138  0.7597 -0.0215 -0.0868
 5665TIP3    H116938   6.427   3.951   0.195  0.3044  1.3111 -0.7969
 5665TIP3    H216939   6.502   3.855   0.105 -1.5256  0.4469 -1.4281
 5666TIP3   OH216940   1.931   7.329   5.388 -0.7132 -0.1874  0.0484
 5666TIP3    H116941   1.976   7.248   5.365  0.8168  0.5964  0.1936
 5666TIP3    H216942   1.911   7.320   5.481 -0.8917 -0.5567 -0.0248
 5667TIP3   OH216943   4.887   3.866   1.772  0.2408  0.0796 -0.5214
 5667TIP3    H116944   4.893   3.906   1.858  2.3236 -0.3746 -0.4464
 5667TIP3    H216945   4.800   3.891   1.741  0.7037  2.9873  0.3446
 5668TIP3   OH216946   3.344   1.020   5.772 -0.2598 -0.7056 -0.0075
 5668TIP3    H116947   3.391   0.937   5.771  1.5355  0.2664 -0.8400
 5668TIP3    H216948   3.395   1.076   5.713 -1.2169  1.0825  0.8267
 5669TIP3   OH216949   2.492   7.247   5.842  0.1280 -0.1502 -0.1698
 5669TIP3    H116950   2.417   7.286   5.888  0.6052  0.8603 -0.2468
 5669TIP3    H216951   2.556   7.318   5.837  0.2367 -0.3705 -2.0455
 5670TIP3   OH216952   1.339   6.964   4.686  0.0795  0.3582  0.3282
 5670TIP3    H116953   1.299   7.025   4.624  0.5736 -1.1235 -1.5039
 5670TIP3    H216954   1.415   6.929   4.639  0.8219 -0.3433  2.0108
 5671TIP3   OH216955   3.307   0.627   5.758  0.3882  0.2572  0.2348
 5671TIP3    H116956   3.373   0.697   5.764  0.7037 -0.0540  0.4299
 5671TIP3    H216957   3.337   0.561   5.821 -1.4770  1.2524  2.2703
 5672TIP3   OH216958   6.468   5.757   0.117 -0.1264  0.1949  0.0114
 5672TIP3    H116959   6.407   5.704   0.066 -0.4319 -1.9401  2.5164
 5672TIP3    H216960   6.413   5.824   0.158 -0.5929 -0.8105  1.0597
 5673TIP3   OH216961   3.993   1.641   6.708  0.1855 -0.2198  0.4461
 5673TIP3    H116962   3.954   1.571   6.760 -0.5522 -0.5680 -0.5447
 5673TIP3    H216963   3.971   1.618   6.617  0.5146  0.9401  0.0635
 5674TIP3   OH216964   7.079   4.609   0.582 -0.3114 -0.1423 -0.1200
 5674TIP3    H116965   7.007   4.646   0.633  1.0899  1.1281  0.9610
 5674TIP3    H216966   7.068   4.646   0.494 -0.4103  0.8077  0.2955
 5675TIP3   OH216967   0.963   7.429   6.867 -0.0092  0.1072  0.4859
 5675TIP3    H116968   0.878   7.397   6.835  0.5252  0.5683 -1.4364
 5675TIP3    H216969   0.986   7.368   6.937 -1.7915 -0.1898  0.8374
 5676TIP3   OH216970   4.254   3.107   5.889  0.1474  0.0922  0.0537
 5676TIP3    H116971   4.159   3.113   5.894  0.1330 -0.1372  0.0646
 5676TIP3    H216972   4.284   3.198   5.880 -0.0136  0.2357  1.0169
 5677TIP3   OH216973   0.357   6.550   5.275  0.6699 -0.1379 -0.1357
 5677TIP3    H116974   0.300   6.506   5.338  1.3868  0.0233  0.6388
 5677TIP3    H216975   0.297   6.603   5.221  0.1877  0.9568  1.4215
 5678TIP3   OH216976   5.059   1.009   4.032  0.0347 -0.2468 -0.5574
 5678TIP3    H116977   5.096   0.974   3.950 -0.6329  1.0920 -1.4397
 5678TIP3    H216978   5.071   1.103   4.025 -1.8128  0.0434  0.0152
 5679TIP3   OH216979   3.823   0.060   5.749 -0.3930 -0.2666 -0.1262
 5679TIP3    H116980   3.768   0.087   5.675 -0.4072  0.4568  0.1492
 5679TIP3    H216981   3.822   0.134   5.809  1.3567 -0.0100 -0.3781
 5680TIP3   OH216982   1.243   6.956   4.321  0.0655  0.0674 -0.1760
 5680TIP3    H116983   1.211   7.015   4.390  0.0648 -0.6391  0.4267
 5680TIP3    H216984   1.253   6.872   4.364 -2.1604 -0.9595 -1.5673
 5681TIP3   OH216985   4.662   1.041   0.361 -0.3879 -0.3062  0.0097
 5681TIP3    H116986   4.632   0.962   0.317 -1.8846  0.3274 -0.1437
 5681TIP3    H216987   4.627   1.034   0.450  1.0884 -0.7138  0.5737
 5682TIP3   OH216988   6.186   4.468   0.698 -0.0110  0.2976  0.3023
 5682TIP3    H116989   6.230   4.513   0.770  1.1235  1.4902 -1.0893
 5682TIP3    H216990   6.254   4.459   0.631 -1.9643  2.6196 -2.1163
 5683TIP3   OH216991   1.054   7.883   5.948 -0.3170 -0.1471  0.3659
 5683TIP3    H116992   0.963   7.858   5.969  0.1313 -1.7718  0.4645
 5683TIP3    H216993   1.048   7.925   5.863 -1.2905  0.5903  0.7846
 5684TIP3   OH216994   4.977   0.575   6.640 -0.8058  0.6745 -1.0077
 5684TIP3    H116995   4.935   0.579   6.554 -1.5212 -1.1307 -0.7615
 5684TIP3    H216996   5.048   0.512   6.630 -1.2447  0.0385 -0.1313
 5685TIP3   OH216997   4.747   1.379   5.274 -0.1490 -0.0027  0.1810
 5685TIP3    H116998   4.812   1.448   5.283 -1.8175  1.5667  0.3945
 5685TIP3    H216999   4.682   1.397   5.342  0.0872 -2.6107  1.1956
 5686TIP3   OH217000   2.043   6.587   4.220  0.5000 -0.4715 -0.6637
 5686TIP3    H117001   2.112   6.530   4.252  0.0994 -1.0077 -0.7312
 5686TIP3    H217002   2.035   6.564   4.127  0.1638 -0.4955 -0.6317
 5687TIP3   OH217003   5.180   3.773   0.817 -0.0763 -0.5971 -0.0009
 5687TIP3    H117004   5.189   3.742   0.907 -0.0931  0.7459  0.4713
 5687TIP3    H217005   5.099   3.733   0.786 -0.4609 -0.4652  0.8349
 5688TIP3   OH217006   4.146   0.609   4.311 -0.9854  0.3560 -0.9515
 5688TIP3    H117007   4.092   0.636   4.385 -0.2965 -0.5285 -0.1031
 5688TIP3    H217008   4.149   0.513   4.317  0.1208  0.3517 -1.3719
 5689TIP3   OH217009   3.084   0.161   4.455 -0.0047  0.2444  0.1740
 5689TIP3    H117010   2.996   0.196   4.442  0.9832  1.8630 -2.6745
 5689TIP3    H217011   3.137   0.237   4.480  0.8520 -0.4527  0.4972
 5690TIP3   OH217012   0.956   7.689   3.704 -0.3952 -0.0340  0.1231
 5690TIP3    H117013   0.907   7.636   3.767 -0.8206  0.7601  0.4626
 5690TIP3    H217014   0.998   7.757   3.757  0.1993 -0.0567 -0.3066
 5691TIP3   OH217015   6.420   1.807   0.432  0.1576 -0.0518  0.1646
 5691TIP3    H117016   6.448   1.727   0.388 -0.6816 -0.7409  0.8471
 5691TIP3    H217017   6.357   1.847   0.371 -0.0045 -0.3171  0.1555
 5692TIP3   OH217018   0.047   7.145   4.832  0.6202  0.4818  0.1831
 5692TIP3    H117019   0.020   7.198   4.757  3.3237  1.2516 -0.2830
 5692TIP3    H217020   0.069   7.209   4.899 -0.0271 -0.1770  1.0361
 5693TIP3   OH217021   2.698   7.620   6.420  0.2132  0.6845  0.0006
 5693TIP3    H117022   2.704   7.528   6.393  1.8210  0.2775  1.6048
 5693TIP3    H217023   2.757   7.666   6.361  0.1219  0.5448 -0.1999
 5694TIP3   OH217024   2.769   1.321   5.429  0.0597  0.3154 -0.6545
 5694TIP3    H117025   2.817   1.383   5.483  0.1373  0.0237 -0.3929
 5694TIP3    H217026   2.699   1.374   5.389  0.9438  0.8590 -1.4944
 5695TIP3   OH217027   2.328   0.745   4.277  0.4503  0.4609  0.4836
 5695TIP3    H117028   2.358   0.825   4.236 -1.7833  1.3344  0.4528
 5695TIP3    H217029   2.363   0.748   4.366  1.6435  0.7178  0.0045
 5696TIP3   OH217030   6.369   3.206  -0.002 -0.5075  0.0400 -0.0921
 5696TIP3    H117031   6.316   3.240   0.070  0.6711 -0.4438  1.0221
 5696TIP3    H217032   6.332   3.120  -0.020 -1.6319  0.6940 -0.9487
 5697TIP3   OH217033   0.795   7.261   4.669  0.1031 -0.0105  0.9019
 5697TIP3    H117034   0.809   7.167   4.683 -0.4411 -0.4968 -1.5330
 5697TIP3    H217035   0.883   7.297   4.668  0.6598 -1.2466 -2.6295
 5698TIP3   OH217036   5.445   1.072   6.759  0.0998 -0.3574  0.2146
 5698TIP3    H117037   5.351   1.070   6.779  0.4835  1.4372  2.3614
 5698TIP3    H217038   5.450   1.115   6.674 -0.9336  1.1081  0.8755
 5699TIP3   OH217039   2.932   0.398   4.689 -0.3545  0.8836  0.1666
 5699TIP3    H117040   2.899   0.360   4.607  2.2851 -2.4290  0.5343
 5699TIP3    H217041   2.984   0.473   4.662  1.1888 -0.6814 -1.2981
 5700TIP3   OH217042   6.108   5.334   1.331 -0.3304  0.1425  0.3403
 5700TIP3    H117043   6.027   5.343   1.282  0.2234  0.5856 -0.5027
 5700TIP3    H217044   6.133   5.243   1.320  0.8329  0.7023 -1.8729
 5701TIP3   OH217045   3.251   0.128   5.475 -0.5061  0.2209  0.2262
 5701TIP3    H117046   3.221   0.217   5.454  1.1979  0.8420  0.3454
 5701TIP3    H217047   3.340   0.124   5.439 -0.0063 -0.9273  1.5587
 5702TIP3   OH217048   2.505   1.844   6.399  0.6444  0.3575 -0.1628
 5702TIP3    H117049   2.464   1.792   6.330 -1.3098  0.1096  1.1418
 5702TIP3    H217050   2.579   1.790   6.429 -0.3350 -0.9175  0.0169
 5703TIP3   OH217051   0.675   6.923   3.152  0.2917  0.3262 -0.5813
 5703TIP3    H117052   0.631   6.896   3.071  0.9707  0.2065 -0.9154
 5703TIP3    H217053   0.664   7.018   3.156  0.7105  0.4001 -1.0921
 5704TIP3   OH217054   3.086   1.066   5.865  0.5918  0.1272  0.1587
 5704TIP3    H117055   3.175   1.071   5.833  0.3582 -1.7859 -0.8900
 5704TIP3    H217056   3.031   1.094   5.792  0.3284  1.7123  0.9355
 5705TIP3   OH217057   1.230   5.400   6.370 -0.0368  0.3559 -0.0496
 5705TIP3    H117058   1.143   5.361   6.382  0.6161 -1.2918 -0.4680
 5705TIP3    H217059   1.250   5.385   6.277  0.3060  1.5552 -0.1754
 5706TIP3   OH217060   6.064   0.861   5.997 -0.0108  0.5883 -0.1455
 5706TIP3    H117061   6.101   0.844   5.910  0.2339  0.7007 -0.0651
 5706TIP3    H217062   6.125   0.923   6.037  0.4722 -0.2782  0.5089
 5707TIP3   OH217063   2.268   5.847   5.438 -0.6770 -0.3253 -0.4834
 5707TIP3    H117064   2.250   5.911   5.368  0.2887  1.6172  1.0116
 5707TIP3    H217065   2.335   5.790   5.401 -0.4656  0.4305 -1.2998
 5708TIP3   OH217066   2.458   1.235   5.234 -0.2463 -0.2318  0.1124
 5708TIP3    H117067   2.412   1.255   5.316 -0.8136 -1.2200  0.0518
 5708TIP3    H217068   2.467   1.319   5.190 -0.3856  0.2350  0.9658
 5709TIP3   OH217069   2.643   0.150   3.262  1.0111  0.1984 -0.0218
 5709TIP3    H117070   2.689   0.098   3.196 -0.2143  0.5279 -1.1696
 5709TIP3    H217071   2.651   0.240   3.232  1.7531  0.5128  1.1040
 5710TIP3   OH217072   4.379   0.194   5.281  0.5290  0.1477 -0.5898
 5710TIP3    H117073   4.405   0.250   5.208 -1.7759  0.6833 -1.0590
 5710TIP3    H217074   4.415   0.108   5.259  1.5990  0.7740 -1.3375
 5711TIP3   OH217075   3.278   1.937   3.464  0.0812 -0.3213  0.4832
 5711TIP3    H117076   3.189   1.971   3.457  0.6918  1.4231  0.9506
 5711TIP3    H217077   3.300   1.945   3.557  0.2159 -2.0899  0.6180
 5712TIP3   OH217078   0.586   6.203   4.846 -0.1977 -0.1769 -0.2298
 5712TIP3    H117079   0.601   6.296   4.865  0.2819 -0.2042 -0.4712
 5712TIP3    H217080   0.637   6.156   4.912 -1.9599 -0.2783  1.0816
 5713TIP3   OH217081   5.478   4.375   0.746 -0.4126 -0.1635  0.1631
 5713TIP3    H117082   5.402   4.337   0.791 -0.7514 -0.2150 -0.4454
 5713TIP3    H217083   5.495   4.315   0.673  2.7085 -2.3933  2.5644
 5714TIP3   OH217084   0.303   3.895   0.554 -0.3784  0.8810 -0.0038
 5714TIP3    H117085   0.358   3.845   0.493 -2.1570  0.0019 -0.9237
 5714TIP3    H217086   0.356   3.903   0.633  1.7559  1.5819 -1.4723
 5715TIP3   OH217087   7.745   7.642   3.961 -0.3764  0.3011 -0.2241
 5715TIP3    H117088   7.763   7.735   3.970 -2.0042  0.7151 -1.0638
 5715TIP3    H217089   7.654   7.638   3.932 -0.7809 -1.5923  1.2193
 5716TIP3   OH217090   7.197   5.926   1.683 -0.2044  0.7038 -0.5239
 5716TIP3    H117091   7.110   5.952   1.653 -0.6855 -1.4399 -1.0426
 5716TIP3    H217092   7.183   5.895   1.773 -0.0016  0.2723 -0.6385
 5717TIP3   OH217093   8.010   6.936   4.351  0.2140  0.2688 -0.3818
 5717TIP3    H117094   8.034   6.849   4.319  1.2600 -0.1412  1.4431
 5717TIP3    H217095   8.087   6.966   4.399 -0.6985  1.5772  0.3119
 5718TIP3   OH217096   1.509   7.114   5.815 -0.2826 -0.3726 -0.4431
 5718TIP3    H117097   1.465   7.099   5.899 -0.2112 -1.9440 -0.6855
 5718TIP3    H217098   1.596   7.147   5.840  0.0606 -1.6630  0.1357
 5719TIP3   OH217099   0.402   7.775   6.213 -0.2801 -0.0316 -0.0810
 5719TIP3    H117100   0.424   7.692   6.171  2.7880 -0.3647  2.0166
 5719TIP3    H217101   0.324   7.757   6.265 -0.7918 -1.0647 -1.2018
 5720TIP3   OH217102   7.002   4.301   0.039  0.0212 -0.0873  0.3949
 5720TIP3    H117103   6.970   4.228  -0.014 -1.9214  1.2270 -0.2718
 5720TIP3    H217104   7.024   4.369  -0.024 -0.8211  0.9105  1.1685
 5721TIP3   OH217105   8.321   7.011   4.910  0.1664 -0.4271  0.5027
 5721TIP3    H117106   8.402   7.061   4.899 -0.6657  0.7746 -0.3166
 5721TIP3    H217107   8.314   6.996   5.004  1.4435 -0.7299  0.5558
 5722TIP3   OH217108   6.085   3.335   0.822 -0.0083 -0.5178 -0.3375
 5722TIP3    H117109   6.120   3.293   0.900 -0.9690 -1.7831 -0.5619
 5722TIP3    H217110   6.062   3.424   0.850  1.5221 -0.3137  0.2959
 5723TIP3   OH217111   4.210   1.908   5.838 -0.2362  0.4389 -0.9349
 5723TIP3    H117112   4.167   1.857   5.769 -1.0948 -0.4348  0.2139
 5723TIP3    H217113   4.137   1.943   5.890  0.3626  2.3547 -1.3433
 5724TIP3   OH217114   0.897   7.275   5.345  0.4148  0.5213  0.2928
 5724TIP3    H117115   0.939   7.238   5.268 -0.6006  3.2280 -1.6223
 5724TIP3    H217116   0.968   7.313   5.396  0.9625 -0.3038  0.1431
 5725TIP3   OH217117   7.332   7.637   3.466  0.0866  0.6755  0.3319
 5725TIP3    H117118   7.404   7.673   3.414 -0.3685 -1.6023 -1.9517
 5725TIP3    H217119   7.253   7.657   3.416 -0.6274  0.7276  1.4545
 5726TIP3   OH217120   5.542   4.672   0.228  0.5101  0.0664  0.1751
 5726TIP3    H117121   5.591   4.740   0.181  2.0817 -1.4745 -0.4812
 5726TIP3    H217122   5.462   4.660   0.176  1.0771  0.1221 -0.7183
 5727TIP3   OH217123   4.611   3.141   1.802  0.7117 -0.4330  0.3931
 5727TIP3    H117124   4.614   3.169   1.893 -0.3772 -0.4545  0.4380
 5727TIP3    H217125   4.558   3.061   1.803 -0.8701  0.5794 -0.5146
 5728TIP3   OH217126   3.834   0.775   5.037 -0.7223 -0.5195  0.0122
 5728TIP3    H117127   3.817   0.859   4.996 -0.6657 -1.1184 -1.2718
 5728TIP3    H217128   3.895   0.794   5.108  0.0081  0.3836 -0.8566
 5729TIP3   OH217129   0.787   7.780   5.952  0.0409  0.4806  0.1776
 5729TIP3    H117130   0.722   7.788   5.883  0.2083 -0.0578 -0.0447
 5729TIP3    H217131   0.756   7.706   6.006  0.8919 -0.3112 -0.3966
 5730TIP3   OH217132   3.674   0.352   4.428  0.0626  0.3549 -0.0986
 5730TIP3    H117133   3.729   0.284   4.388 -0.3612 -0.5197  0.7979
 5730TIP3    H217134   3.736   0.416   4.461  0.7545 -1.8809  3.2476
 5731TIP3   OH217135   6.471   4.024   0.797  0.5370  0.2091  0.5419
 5731TIP3    H117136   6.551   4.022   0.850  0.2592 -0.4273  0.9391
 5731TIP3    H217137   6.424   3.944   0.821 -0.8041  1.1712  1.2019
 5732TIP3   OH217138   0.264   7.073   3.811  0.2821 -0.1345  0.0770
 5732TIP3    H117139   0.235   7.011   3.745  1.2397 -2.2729  1.6198
 5732TIP3    H217140   0.356   7.089   3.791 -0.3316  1.9773 -1.2008
 5733TIP3   OH217141   3.582   0.898   5.170 -0.3222  0.3622  0.1766
 5733TIP3    H117142   3.535   0.827   5.213 -0.5183  0.5710  0.3141
 5733TIP3    H217143   3.521   0.929   5.103  0.7637 -1.2775 -1.6112
 5734TIP3   OH217144   1.296   7.174   2.848 -0.1237  0.0366 -0.4004
 5734TIP3    H117145   1.315   7.237   2.779  0.8653 -1.5226 -1.5853
 5734TIP3    H217146   1.327   7.216   2.928  1.7149  0.5338 -1.3397
 5735TIP3   OH217147   6.351   4.586   0.905 -0.3766  0.8655  0.0034
 5735TIP3    H117148   6.306   4.617   0.984 -0.4177 -1.3739  0.8698
 5735TIP3    H217149   6.390   4.503   0.930  2.5117  1.7461 -1.3720
 5736TIP3   OH217150   0.902   7.261   4.395 -0.1242  0.2700 -0.4284
 5736TIP3    H117151   0.874   7.345   4.361 -1.3789 -0.6125 -1.6227
 5736TIP3    H217152   0.838   7.240   4.464  1.9956  1.7235  2.0885
 5737TIP3   OH217153   5.462   5.698   0.247  0.1674 -0.3013  0.6315
 5737TIP3    H117154   5.422   5.717   0.162  2.7770  1.4566 -0.2674
 5737TIP3    H217155   5.538   5.644   0.227  0.7280 -0.0017  1.8604
 5738TIP3   OH217156   6.574   5.387   1.715 -0.4440 -0.2371 -0.3003
 5738TIP3    H117157   6.589   5.381   1.621 -0.0484 -1.8136 -0.1437
 5738TIP3    H217158   6.493   5.338   1.729 -0.5625  0.0927  0.1687
 5739TIP3   OH217159   8.258   5.575   1.067 -0.0269  0.0978  0.2088
 5739TIP3    H117160   8.179   5.528   1.038 -0.4740  1.3670 -0.6908
 5739TIP3    H217161   8.292   5.615   0.987  0.8214  0.5970  0.8183
 5740TIP3   OH217162   4.672   0.045   5.618 -0.0457  0.2948 -0.1278
 5740TIP3    H117163   4.646  -0.047   5.612 -2.5452  0.9713 -0.0157
 5740TIP3    H217164   4.591   0.092   5.636  1.4383  2.3733  1.4068
 5741TIP3   OH217165   3.092   0.595   4.546  0.7414  0.2766 -0.2257
 5741TIP3    H117166   3.019   0.566   4.491  1.2616 -0.6222 -0.4565
 5741TIP3    H217167   3.149   0.518   4.551  1.2586  0.7162  0.6317
 5742TIP3   OH217168   3.818   0.556   5.554 -0.3002 -0.1130  0.2690
 5742TIP3    H117169   3.870   0.627   5.592 -0.8502  0.3815  0.0939
 5742TIP3    H217170   3.794   0.587   5.467 -0.9259 -0.3195  0.3651
 5743TIP3   OH217171   5.942   0.235   6.692 -0.0339 -0.3077  0.0333
 5743TIP3    H117172   5.895   0.252   6.610 -0.6292  0.4712  0.5250
 5743TIP3    H217173   5.902   0.156   6.727  1.9423 -2.1264 -1.6821
 5744TIP3   OH217174   3.667   1.954   4.878  0.1023  0.8530 -0.4933
 5744TIP3    H117175   3.697   1.970   4.967 -0.0147  2.6267 -0.7406
 5744TIP3    H217176   3.581   1.912   4.888 -0.0860  1.4098  0.2343
 5745TIP3   OH217177   0.607   7.002   5.582 -0.0574 -0.2386  0.0880
 5745TIP3    H117178   0.659   6.969   5.509  1.3946  0.5403  0.7658
 5745TIP3    H217179   0.635   6.949   5.657 -0.6452 -0.1902  0.3451
 5746TIP3   OH217180   4.100   1.845   4.881  0.0893 -0.2066  0.2358
 5746TIP3    H117181   4.057   1.805   4.805  1.9073  0.5258 -1.2421
 5746TIP3    H217182   4.071   1.937   4.879  0.0865 -0.2029  0.4574
 5747TIP3   OH217183   4.484   2.636   6.303 -0.0213  0.2671 -0.0655
 5747TIP3    H117184   4.413   2.573   6.314 -0.7967  0.2289 -4.1741
 5747TIP3    H217185   4.539   2.598   6.234  1.1478  2.6797 -0.5321
 5748TIP3   OH217186   4.768   1.170   6.688 -0.3981  0.1454 -0.0742
 5748TIP3    H117187   4.790   1.163   6.595  0.0629  2.5962 -0.1901
 5748TIP3    H217188   4.674   1.189   6.688 -0.6465 -1.0748  0.0174
 5749TIP3   OH217189   0.325   5.213   1.635 -0.0124 -0.0483  0.2000
 5749TIP3    H117190   0.398   5.273   1.651  0.8299 -0.9201 -0.3305
 5749TIP3    H217191   0.302   5.227   1.543 -1.0424  0.7882  0.5727
 5750TIP3   OH217192   6.263   1.136   3.806  0.2797  0.0278  0.1474
 5750TIP3    H117193   6.212   1.090   3.740  0.0281  0.6923 -0.1266
 5750TIP3    H217194   6.266   1.076   3.880  0.2212 -0.5557 -0.3165
 5751TIP3   OH217195   1.435   6.709   5.429  0.2393  0.4400  0.4635
 5751TIP3    H117196   1.354   6.718   5.480 -0.0819  1.4547 -0.2115
 5751TIP3    H217197   1.488   6.784   5.456 -0.1174  1.2317 -1.0220
 5752TIP3   OH217198   6.268   1.387   3.304 -0.0155  0.4869  0.0832
 5752TIP3    H117199   6.252   1.344   3.388  0.9367 -0.8389 -0.4067
 5752TIP3    H217200   6.346   1.345   3.269  0.1418  1.6687 -1.0550
 5753TIP3   OH217201   3.542   0.873   4.278  0.3893 -0.4700  0.2757
 5753TIP3    H117202   3.584   0.959   4.267 -1.0337  0.2833  0.5212
 5753TIP3    H217203   3.570   0.822   4.203 -0.3424  0.8961 -0.9603
 5754TIP3   OH217204   1.344   6.247   4.979 -0.0490  0.3775  0.1464
 5754TIP3    H117205   1.304   6.334   4.976  1.1135  0.9734  1.4938
 5754TIP3    H217206   1.432   6.260   4.944  0.6299  0.0473  1.6939
 5755TIP3   OH217207   0.471   7.594   3.735 -0.1576  0.2101 -0.1680
 5755TIP3    H117208   0.396   7.636   3.777 -0.5996  0.2669 -0.9999
 5755TIP3    H217209   0.542   7.602   3.799 -1.0110 -0.3599  0.8612
 5756TIP3   OH217210   2.917   1.475   4.128 -0.2212 -0.2545 -0.4049
 5756TIP3    H117211   2.852   1.518   4.072  0.0555 -1.3852 -1.6331
 5756TIP3    H217212   2.926   1.533   4.203 -1.6700  0.5848 -0.8500
 5757TIP3   OH217213   8.399   7.327   3.971 -0.4046  0.2311  0.4177
 5757TIP3    H117214   8.434   7.248   4.013  1.9426  0.2856 -1.2970
 5757TIP3    H217215   8.309   7.334   4.003 -1.7740 -4.9274 -1.7749
 5758TIP3   OH217216   0.622   7.340   5.232  0.1772 -0.3022  0.1824
 5758TIP3    H117217   0.708   7.339   5.272  1.1644  2.1261 -1.7583
 5758TIP3    H217218   0.638   7.325   5.138 -1.3828  1.2608 -0.3696
 5759TIP3   OH217219   2.703   7.328   6.479  0.2908 -0.2774 -0.8029
 5759TIP3    H117220   2.679   7.236   6.480  0.6056 -0.3563 -0.2839
 5759TIP3    H217221   2.792   7.330   6.442  1.5007 -0.4900  2.0060
 5760TIP3   OH217222   7.300   2.764   0.998  0.0365  0.0249  0.0717
 5760TIP3    H117223   7.285   2.854   0.968  0.4160  0.0589 -0.0198
 5760TIP3    H217224   7.325   2.773   1.090 -0.5063 -0.0319  0.2240
 5761TIP3   OH217225   5.775   0.263   5.259  0.2386 -0.1718  0.4519
 5761TIP3    H117226   5.701   0.259   5.319 -1.4853  1.4712 -1.4761
 5761TIP3    H217227   5.838   0.200   5.294 -0.9304  0.3541  3.6303
 5762TIP3   OH217228   0.455   7.944   5.171  0.7418 -0.1792  0.2024
 5762TIP3    H117229   0.418   8.023   5.211  1.6264 -0.5160  1.7291
 5762TIP3    H217230   0.540   7.933   5.213  1.6847 -0.6093 -1.7377
 5763TIP3   OH217231   2.973   2.273   6.065 -0.0909  0.5857  0.2386
 5763TIP3    H117232   2.884   2.250   6.094  0.4453 -2.1675 -0.1912
 5763TIP3    H217233   3.016   2.305   6.144 -1.1604  1.0178  0.6627
 5764TIP3   OH217234   0.260   6.766   4.190 -0.0372 -0.2246 -0.1924
 5764TIP3    H117235   0.245   6.790   4.282 -0.7110 -0.9491 -0.1123
 5764TIP3    H217236   0.293   6.847   4.150 -0.7230  0.3814  0.4505
 5765TIP3   OH217237   7.402   3.822   0.474 -0.2487 -0.5138 -0.2901
 5765TIP3    H117238   7.481   3.769   0.482 -0.1287 -0.1391  1.0032
 5765TIP3    H217239   7.413   3.868   0.391  1.1231 -0.0948  0.1068
 5766TIP3   OH217240   1.326   2.096   4.342 -0.4122 -0.0945 -0.2573
 5766TIP3    H117241   1.351   2.107   4.251 -0.1263  0.9075 -0.0606
 5766TIP3    H217242   1.373   2.165   4.389 -0.0835 -0.9595  0.7326
 5767TIP3   OH217243   3.596   1.178   6.027  0.3599  0.5427  0.2495
 5767TIP3    H117244   3.671   1.212   5.978 -1.3187  1.4814 -1.7661
 5767TIP3    H217245   3.552   1.256   6.060 -1.0703  0.1555 -0.6709
 5768TIP3   OH217246   3.795   2.112   5.496 -0.1685 -0.3229  0.3773
 5768TIP3    H117247   3.710   2.117   5.539 -0.3625  0.3435 -0.0896
 5768TIP3    H217248   3.855   2.157   5.556 -0.2286 -0.3755  0.4775
 5769TIP3   OH217249   2.091   1.968   3.529  0.0411  0.1341  0.0625
 5769TIP3    H117250   2.025   1.938   3.591  0.2839 -0.6345 -0.0505
 5769TIP3    H217251   2.105   2.060   3.553 -1.8888  0.6311 -0.6471
 5770TIP3   OH217252   5.872   5.385   1.188 -0.0784  0.4468 -0.3692
 5770TIP3    H117253   5.833   5.304   1.156 -0.2088  0.5905 -0.5744
 5770TIP3    H217254   5.833   5.454   1.134 -0.4544  0.7075  0.2254
 5771TIP3   OH217255   8.091   7.953   3.662  0.2002 -0.4089  0.4295
 5771TIP3    H117256   8.096   8.007   3.742 -2.1227  0.7800 -0.1766
 5771TIP3    H217257   8.122   7.867   3.690  1.8077  0.6234  1.9962
 5772TIP3   OH217258   6.885   4.390   0.497 -0.4854  0.3282  0.5969
 5772TIP3    H117259   6.942   4.406   0.422  0.5072  0.4992  1.3755
 5772TIP3    H217260   6.868   4.477   0.533 -0.4650  0.1968  0.9253
 5773TIP3   OH217261   0.447   5.763   4.051 -0.3747 -0.2114  0.1002
 5773TIP3    H117262   0.521   5.798   4.002  0.8546 -0.2309  1.8968
 5773TIP3    H217263   0.459   5.797   4.140 -1.5651 -1.6380  0.8232
 5774TIP3   OH217264   4.348   0.382   6.571  0.6670 -0.4230  0.0330
 5774TIP3    H117265   4.431   0.338   6.585  0.5639 -0.4751  0.5018
 5774TIP3    H217266   4.371   0.466   6.531  0.8089 -1.2433 -1.6816
 5775TIP3   OH217267   4.337   1.469   3.463 -0.1725 -0.4318  0.0068
 5775TIP3    H117268   4.392   1.406   3.417  0.9542  0.1151  0.5531
 5775TIP3    H217269   4.348   1.550   3.413  0.6063  0.0187  0.8806
 5776TIP3   OH217270   5.450   1.002   5.695 -0.4414  0.4478  0.1987
 5776TIP3    H117271   5.512   0.937   5.661 -0.9046  0.1877 -0.1423
 5776TIP3    H217272   5.387   0.951   5.746 -2.0742  0.3543 -1.8518
 5777TIP3   OH217273   6.049   2.047   1.322  0.1717  0.7418 -0.2141
 5777TIP3    H117274   6.069   2.140   1.308  0.8405  0.3912 -1.6824
 5777TIP3    H217275   5.955   2.041   1.306  0.0439  1.2520  0.3250
 5778TIP3   OH217276   0.146   7.563   3.966  0.8403  0.0572  0.0166
 5778TIP3    H117277   0.146   7.572   4.061 -2.1222  3.2707 -0.1730
 5778TIP3    H217278   0.077   7.498   3.948  0.6420  0.2586  0.0401
 5779TIP3   OH217279   6.537   5.557   1.069  0.3062  0.1791 -0.1243
 5779TIP3    H117280   6.486   5.609   1.007  2.4846  1.5821 -0.8191
 5779TIP3    H217281   6.628   5.583   1.052  1.0171  0.0471  3.1577
 5780TIP3   OH217282   0.454   6.231   5.615 -0.0998 -0.0587 -0.1085
 5780TIP3    H117283   0.378   6.219   5.558  0.1800 -2.2743 -0.0657
 5780TIP3    H217284   0.419   6.222   5.704  0.2383 -1.3981 -0.0971
 5781TIP3   OH217285   4.367   0.451   6.209 -0.0796  0.0642 -0.5673
 5781TIP3    H117286   4.414   0.472   6.290 -0.1238 -1.3865 -0.1589
 5781TIP3    H217287   4.376   0.356   6.200 -2.7464 -0.2145 -0.5988
 5782TIP3   OH217288   1.313   1.325   3.559 -0.1602  0.0982 -0.1084
 5782TIP3    H117289   1.256   1.254   3.531 -0.7029  0.5176 -0.0886
 5782TIP3    H217290   1.258   1.377   3.618  0.5326 -0.0062  0.6390
 5783TIP3   OH217291   5.769   4.239   0.397 -0.2324  0.2909  0.9211
 5783TIP3    H117292   5.803   4.162   0.351  0.1377 -0.4006  2.3147
 5783TIP3    H217293   5.838   4.262   0.459 -0.1001  2.1026  0.1307
 5784TIP3   OH217294   5.125   0.817   6.665 -0.0399  0.2976  0.1064
 5784TIP3    H117295   5.078   0.873   6.604  0.3982  1.4690  0.8289
 5784TIP3    H217296   5.071   0.737   6.671  0.2973 -0.1425 -2.3409
 5785TIP3   OH217297   1.577   6.961   5.270  0.4569 -0.1961  0.3514
 5785TIP3    H117298   1.645   7.029   5.277  1.4625 -1.0386 -0.9518
 5785TIP3    H217299   1.625   6.879   5.270 -0.6734 -0.8668  0.7014
 5786TIP3   OH217300   5.606   3.896   1.248 -0.3281  0.4857  0.9323
 5786TIP3    H117301   5.689   3.902   1.202 -0.5405 -1.1270  0.2959
 5786TIP3    H217302   5.621   3.938   1.333  2.0414 -2.4725  2.0549
 5787TIP3   OH217303   3.730   0.536   1.263  0.1526 -0.2502 -0.3580
 5787TIP3    H117304   3.822   0.510   1.256  0.5206  0.5745  1.2255
 5787TIP3    H217305   3.733   0.631   1.272 -0.5436 -0.5634  4.2422
 5788TIP3   OH217306   6.284   5.868   0.961  0.0227 -0.4090 -0.0577
 5788TIP3    H117307   6.346   5.798   0.940  0.7301  0.3014 -0.3843
 5788TIP3    H217308   6.307   5.938   0.900 -1.7516 -0.4939 -0.8486
 5789TIP3   OH217309   1.924   2.609   4.541 -0.1907 -0.4384 -0.2595
 5789TIP3    H117310   1.842   2.631   4.584 -0.0969  0.5153 -0.5502
 5789TIP3    H217311   1.898   2.583   4.452 -0.2018 -0.3116 -0.2944
 5790TIP3   OH217312   1.312   1.549   4.283 -0.1118 -0.4103  0.2128
 5790TIP3    H117313   1.341   1.540   4.374  0.2758  2.5544  0.4446
 5790TIP3    H217314   1.235   1.605   4.288 -0.4475 -0.7183 -1.2396
 5791TIP3   OH217315   4.940   0.301   4.965 -0.1650 -0.1264 -0.1921
 5791TIP3    H117316   4.922   0.394   4.952 -0.8409 -0.1516  0.5829
 5791TIP3    H217317   4.914   0.260   4.883 -2.2227  0.0348  0.3639
 5792TIP3   OH217318   2.600   7.790   4.250 -0.1142 -0.2719  0.3062
 5792TIP3    H117319   2.629   7.880   4.266  0.4196 -0.3833 -0.0142
 5792TIP3    H217320   2.563   7.762   4.334 -2.6157  1.0993 -0.2991
 5793TIP3   OH217321   5.993   4.299   0.545  0.2617 -0.1731 -0.0688
 5793TIP3    H117322   6.015   4.217   0.590  1.4869 -0.4093 -1.0666
 5793TIP3    H217323   6.061   4.361   0.573 -1.0043  0.6898  1.1515
 5794TIP3   OH217324   1.912   7.939   6.826  0.3276 -0.1593 -0.0283
 5794TIP3    H117325   1.845   7.872   6.839 -0.1504  0.3264  0.0338
 5794TIP3    H217326   1.863   8.016   6.795  0.8093  0.3055  0.3585
 5795TIP3   OH217327   0.680   7.267   5.509 -0.2698 -0.3785  0.1217
 5795TIP3    H117328   0.734   7.234   5.436 -0.6411  0.2471 -0.4386
 5795TIP3    H217329   0.665   7.190   5.564 -0.1205 -0.8938 -0.5505
 5796TIP3   OH217330   0.363   5.356   6.445 -0.7958  0.2859  0.3319
 5796TIP3    H117331   0.339   5.290   6.380  0.2600 -0.0292  0.2475
 5796TIP3    H217332   0.383   5.306   6.524  3.4639  0.1508 -0.7297
 5797TIP3   OH217333   3.874   7.734   4.646  0.5698 -0.3082 -0.2339
 5797TIP3    H117334   3.785   7.753   4.676  0.8869 -0.9169  1.1550
 5797TIP3    H217335   3.916   7.819   4.638 -0.0304 -0.0398 -0.5475
 5798TIP3   OH217336   4.427   0.189   5.557  0.2801 -0.5487 -0.1562
 5798TIP3    H117337   4.467   0.230   5.480 -1.9137  2.5514  0.2466
 5798TIP3    H217338   4.343   0.155   5.525 -0.6242  0.7148  0.7943
 5799TIP3   OH217339   8.507   6.916   3.659 -0.0233 -0.5975  0.4131
 5799TIP3    H117340   8.445   6.950   3.594  0.0304  0.9755  1.1589
 5799TIP3    H217341   8.543   6.838   3.618  0.8562  0.9702 -1.9584
 5800TIP3   OH217342   1.193   5.919   3.296  0.4642  0.0679 -0.0863
 5800TIP3    H117343   1.158   5.979   3.230  2.5553  1.7914  0.3169
 5800TIP3    H217344   1.241   5.853   3.246 -1.2036 -0.8714 -0.4842
 5801TIP3   OH217345   4.539   0.945   5.352  0.5114  0.3752  0.1614
 5801TIP3    H117346   4.489   0.864   5.359  1.3531 -0.1811 -0.2240
 5801TIP3    H217347   4.600   0.942   5.426  1.1021  0.2624 -0.3280
 5802TIP3   OH217348   3.528   1.305   4.682  0.0268 -0.4093 -0.3583
 5802TIP3    H117349   3.503   1.250   4.756 -1.0037 -0.9321 -1.0819
 5802TIP3    H217350   3.488   1.390   4.700  1.0274 -0.0921  0.4124
 5803TIP3   OH217351   4.397   0.090   6.186 -0.3018  0.7100  0.5266
 5803TIP3    H117352   4.335   0.038   6.135  0.8300  0.4182 -0.5827
 5803TIP3    H217353   4.467   0.029   6.208 -1.7989  0.2386  4.3950
 5804TIP3   OH217354   0.784   6.789   4.964  0.0400 -0.0469 -0.3685
 5804TIP3    H117355   0.867   6.746   4.946  0.1799 -0.9061  2.1340
 5804TIP3    H217356   0.719   6.738   4.915  0.4623 -1.9213  0.9740
 5805TIP3   OH217357   3.923   6.392   4.446 -0.3551  0.8066 -0.3483
 5805TIP3    H117358   3.984   6.464   4.433 -0.4245  0.4231 -3.1049
 5805TIP3    H217359   3.838   6.434   4.456  0.0803  1.2514  1.7934
 5806TIP3   OH217360   1.678   7.984   5.182  0.0959 -0.3989 -0.6621
 5806TIP3    H117361   1.754   7.964   5.236  0.5801  1.7827 -0.4672
 5806TIP3    H217362   1.636   7.900   5.165  1.6477 -1.4282  0.5801
 5807TIP3   OH217363   8.508   3.347   0.692 -0.2958  0.0284  0.0010
 5807TIP3    H117364   8.534   3.438   0.677 -0.5487  0.3304  1.3928
 5807TIP3    H217365   8.412   3.349   0.695 -0.3342 -0.3976 -0.6103
 5808TIP3   OH217366   6.315   5.817   0.496  0.0541  0.4665 -0.5455
 5808TIP3    H117367   6.291   5.732   0.531  0.5333  0.2233 -0.7938
 5808TIP3    H217368   6.393   5.842   0.545 -1.1219  1.5965  0.7853
 5809TIP3   OH217369   8.145   7.151   4.714  0.5045 -0.2212  0.0302
 5809TIP3    H117370   8.203   7.099   4.770  1.0510 -0.0498 -0.3705
 5809TIP3    H217371   8.072   7.093   4.694  0.4335 -0.3687  0.7127
 5810TIP3   OH217372   2.789   6.413   6.808 -0.0857 -0.1605  0.0569
 5810TIP3    H117373   2.745   6.426   6.892 -0.7398 -0.3889 -0.2450
 5810TIP3    H217374   2.718   6.407   6.745  0.4467  1.4951 -0.7233
 5811TIP3   OH217375   0.975   1.511   5.274 -0.3661 -0.4735  0.1459
 5811TIP3    H117376   0.931   1.594   5.291 -1.4418 -0.5349 -2.1180
 5811TIP3    H217377   1.068   1.530   5.286 -0.8785 -0.0521  3.8267
 5812TIP3   OH217378   2.008   7.673   6.285 -0.4562 -0.0349  0.1753
 5812TIP3    H117379   1.990   7.678   6.379 -2.4375 -2.5947 -0.0018
 5812TIP3    H217380   1.922   7.682   6.244  0.4617  1.6994 -1.4579
 5813TIP3   OH217381   4.418   4.091   6.132 -0.3232 -0.3312  0.1936
 5813TIP3    H117382   4.492   4.102   6.191 -1.9200 -0.7578  2.3735
 5813TIP3    H217383   4.403   4.178   6.095  0.7968 -0.0831  0.3075
 5814TIP3   OH217384   4.816   2.053   5.192 -0.0319 -0.4495  0.3001
 5814TIP3    H117385   4.740   1.998   5.178 -0.3347 -0.0312  0.3088
 5814TIP3    H217386   4.837   2.042   5.285 -0.0838 -0.5636  0.2979
 5815TIP3   OH217387   2.988   1.798   5.419 -0.4246  0.2603 -0.0172
 5815TIP3    H117388   2.936   1.845   5.354  0.2386 -0.4046 -1.0518
 5815TIP3    H217389   2.976   1.847   5.500 -1.3349  1.0528 -0.6205
 5816TIP3   OH217390   2.642   3.749   6.319  0.3276  0.1068  0.2734
 5816TIP3    H117391   2.676   3.742   6.229  0.3077 -0.1716  0.2884
 5816TIP3    H217392   2.649   3.661   6.354  0.4141  0.2349  0.5774
 5817TIP3   OH217393   4.799   0.902   4.593 -0.3909 -0.2446 -0.4883
 5817TIP3    H117394   4.708   0.879   4.612 -0.8388  2.1210  0.4474
 5817TIP3    H217395   4.824   0.961   4.664  1.5761 -0.0934 -1.2651
 5818TIP3   OH217396   5.881   1.470   3.504  0.2237 -0.3559 -0.4983
 5818TIP3    H117397   5.871   1.551   3.553  0.2797 -0.1416 -0.8413
 5818TIP3    H217398   5.911   1.406   3.569 -2.4002 -0.7888  0.3603
 5819TIP3   OH217399   2.004   7.809   6.027  0.3576  0.0501  0.0178
 5819TIP3    H117400   2.013   7.750   6.102  0.7534 -1.3318 -1.0830
 5819TIP3    H217401   2.054   7.887   6.051  1.0269 -0.6420  0.9173
 5820TIP3   OH217402   1.508   7.525   6.173  0.3204  0.1736  0.6543
 5820TIP3    H117403   1.587   7.481   6.140  0.5969 -0.0350  1.5698
 5820TIP3    H217404   1.506   7.502   6.266  1.3259  3.3385  1.5275
 5821TIP3   OH217405   4.457   1.247   5.361 -0.1662  0.3243 -0.2485
 5821TIP3    H117406   4.534   1.219   5.410  0.5786 -0.3110 -1.7309
 5821TIP3    H217407   4.384   1.200   5.401  0.2690  0.5897  0.8798
 5822TIP3   OH217408   2.957   1.414   5.684  0.0208  0.2802  0.4118
 5822TIP3    H117409   2.950   1.507   5.709  1.2970  0.9596 -1.6447
 5822TIP3    H217410   3.049   1.403   5.660 -0.9368 -0.5154 -3.1128
 5823TIP3   OH217411   1.564   7.052   2.482 -0.4511  0.0620 -0.1115
 5823TIP3    H117412   1.626   6.980   2.471 -0.1295  0.1365  1.0875
 5823TIP3    H217413   1.499   7.017   2.543 -0.6107  0.5895  0.0202
 5824TIP3   OH217414   4.774   0.781   5.327 -0.4528 -0.0767 -0.1105
 5824TIP3    H117415   4.696   0.821   5.290 -0.1047  0.8764  0.1792
 5824TIP3    H217416   4.758   0.780   5.422 -0.3391 -0.3575 -0.0932
 5825TIP3   OH217417   3.487   0.685   5.298  0.4755  0.0076 -0.6409
 5825TIP3    H117418   3.396   0.695   5.329  1.1617  0.9391  1.1629
 5825TIP3    H217419   3.512   0.598   5.327 -0.0098 -0.4530 -1.5952
 5826TIP3   OH217420   3.191   7.120   5.386 -0.2829 -0.3273  0.6654
 5826TIP3    H117421   3.131   7.062   5.434  0.8828 -1.0940  1.2275
 5826TIP3    H217422   3.213   7.189   5.449 -1.0148  0.2775  0.2691
 5827TIP3   OH217423   1.171   7.482   2.425  0.0768 -0.3024 -0.1713
 5827TIP3    H117424   1.199   7.433   2.503  0.3451  0.4381  0.1959
 5827TIP3    H217425   1.076   7.483   2.430  0.1574  2.2460  1.7053
 5828TIP3   OH217426   2.984   7.223   6.082  0.3586 -0.0292 -0.2884
 5828TIP3    H117427   3.051   7.230   6.150  0.3010 -0.9854 -0.1225
 5828TIP3    H217428   2.935   7.144   6.105  1.8671 -1.7664 -2.7918
 5829TIP3   OH217429   3.679   0.311   3.991 -0.1871 -0.1075  0.3425
 5829TIP3    H117430   3.680   0.399   3.953  1.7808 -0.2129  0.1467
 5829TIP3    H217431   3.586   0.289   3.995 -0.7295  2.0915  0.6561
 5830TIP3   OH217432   7.382   0.406   3.254 -0.2389  0.7404 -0.0757
 5830TIP3    H117433   7.355   0.491   3.290  2.9039  1.6283  0.3457
 5830TIP3    H217434   7.447   0.373   3.316 -0.6640 -1.5072 -0.7919
 5831TIP3   OH217435   3.691   6.118   3.173  0.1839  0.0348  0.3761
 5831TIP3    H117436   3.736   6.065   3.106 -0.3055  0.6494 -0.4526
 5831TIP3    H217437   3.762   6.161   3.221  0.4953  2.3126 -2.0020
 5832TIP3   OH217438   0.712   6.770   5.724 -0.0063 -0.5241  0.4483
 5832TIP3    H117439   0.720   6.728   5.810  0.8285 -1.6201 -0.1607
 5832TIP3    H217440   0.786   6.831   5.721 -0.3276 -0.1207  0.7112
 5833TIP3   OH217441   1.112   7.887   5.375  0.4338  0.4642  0.0959
 5833TIP3    H117442   1.182   7.915   5.434  0.9103  0.5807 -0.5215
 5833TIP3    H217443   1.083   7.803   5.410  1.9344 -0.3242 -0.5383
 5834TIP3   OH217444   5.679   2.863   4.890  0.0787  0.7531  0.1090
 5834TIP3    H117445   5.772   2.884   4.899  0.3235 -0.3217  0.1618
 5834TIP3    H217446   5.657   2.814   4.970 -0.2402 -0.0020 -0.4337
 5835TIP3   OH217447   0.691   7.360   3.444 -0.5592 -0.0206 -0.1758
 5835TIP3    H117448   0.767   7.342   3.499  0.5010  0.3659 -1.4944
 5835TIP3    H217449   0.617   7.327   3.495 -0.0425  3.3998  3.0843
 5836TIP3   OH217450   4.811   0.809   2.353 -0.3569  0.0979 -0.4976
 5836TIP3    H117451   4.878   0.870   2.319 -1.6859  1.6622 -0.3703
 5836TIP3    H217452   4.859   0.729   2.371  1.6024  1.3574  0.0679
 5837TIP3   OH217453   3.697   7.920   5.249  0.2063 -0.2279  0.6719
 5837TIP3    H117454   3.754   7.895   5.176  1.3338  0.3661  1.3453
 5837TIP3    H217455   3.756   7.946   5.319 -0.8863  1.5768  0.9756
 5838TIP3   OH217456   6.343   1.257   4.850 -0.1627 -0.1322 -0.0638
 5838TIP3    H117457   6.309   1.303   4.928  2.7752  2.5736 -0.2610
 5838TIP3    H217458   6.433   1.235   4.873  1.0484  1.4959 -2.9703
 5839TIP3   OH217459   4.354   0.337   3.066 -0.0542  0.5348  0.5184
 5839TIP3    H117460   4.331   0.324   2.974 -0.6223 -0.9641  0.8636
 5839TIP3    H217461   4.323   0.426   3.085  0.0696  0.8620 -0.7313
 5840TIP3   OH217462   5.681   1.322   4.590  0.7865  0.8585 -0.4838
 5840TIP3    H117463   5.674   1.331   4.495 -1.3149  0.5318 -0.3831
 5840TIP3    H217464   5.663   1.229   4.606  0.2757  1.0908  0.3018
 5841TIP3   OH217465   3.407   0.984   6.095 -0.0346 -0.0048  0.5576
 5841TIP3    H117466   3.462   1.049   6.052 -0.2444 -0.6961 -0.8038
 5841TIP3    H217467   3.332   0.973   6.035 -1.4433  0.6058  2.1592
 5842TIP3   OH217468   3.044   7.821   4.329  0.1778 -0.2137 -0.3380
 5842TIP3    H117469   2.988   7.792   4.257 -0.4235  1.0330 -0.3770
 5842TIP3    H217470   3.063   7.741   4.377  0.1137 -0.9713 -1.5507
 5843TIP3   OH217471   4.640   0.516   5.214  0.6789  0.1785 -0.7072
 5843TIP3    H117472   4.623   0.532   5.307 -1.2641  0.6170 -1.1063
 5843TIP3    H217473   4.713   0.455   5.213  1.5988  1.2008  1.0828
 5844TIP3   OH217474   2.568   0.880   5.431 -0.6192 -0.0728  0.4536
 5844TIP3    H117475   2.638   0.885   5.366 -0.4039 -1.2706  0.5671
 5844TIP3    H217476   2.607   0.915   5.511 -1.5304  3.3447 -0.5414
 5845TIP3   OH217477   2.794   1.565   5.037 -0.5381 -0.0082 -0.1318
 5845TIP3    H117478   2.845   1.509   5.096 -0.3752 -1.9039 -2.0237
 5845TIP3    H217479   2.810   1.654   5.069 -2.4657 -1.0943  4.2381
 5846TIP3   OH217480   5.926   1.840   5.172 -0.0141 -0.2954  0.3400
 5846TIP3    H117481   5.886   1.766   5.125 -0.2696 -1.0436  1.7275
 5846TIP3    H217482   5.944   1.806   5.259  1.3184  0.8230  0.5101
 5847TIP3   OH217483   7.024   0.213   4.659 -0.2395 -0.3443 -0.2754
 5847TIP3    H117484   6.971   0.158   4.718 -0.1493 -1.5793 -1.3232
 5847TIP3    H217485   6.964   0.283   4.631  0.6383  2.2357  3.8614
 5848TIP3   OH217486   4.238   0.780   4.130  0.3664 -0.5302  0.4748
 5848TIP3    H117487   4.262   0.717   4.063  1.8980 -0.6015  1.0738
 5848TIP3    H217488   4.204   0.728   4.202  0.1130 -0.5582  0.3349
 5849TIP3   OH217489   7.171   3.621   3.250 -0.5765 -0.3838  0.3505
 5849TIP3    H117490   7.188   3.532   3.219  0.6774 -0.8626  2.3527
 5849TIP3    H217491   7.082   3.618   3.285  0.3571 -1.5493  2.7440
 5850TIP3   OH217492   7.926   1.034   5.456  0.1022  0.1547  0.0997
 5850TIP3    H117493   7.971   0.955   5.428  0.2955  0.0020  0.8314
 5850TIP3    H217494   7.854   1.003   5.511 -0.1330  0.4645 -0.0250
 5851TIP3   OH217495   4.711   1.793   4.486 -0.3772 -0.4047 -0.2395
 5851TIP3    H117496   4.796   1.827   4.513 -0.1814 -0.7612 -0.4109
 5851TIP3    H217497   4.649   1.860   4.515 -0.0849 -0.3696  0.3099
 5852TIP3   OH217498   5.210   1.630   6.495 -0.1149 -0.2837  0.0749
 5852TIP3    H117499   5.149   1.692   6.454 -1.2206 -1.2895  0.1532
 5852TIP3    H217500   5.157   1.551   6.511  1.4282 -1.5067 -0.6506
 5853TIP3   OH217501   1.208   7.933   5.093 -0.6778 -0.5594 -0.1620
 5853TIP3    H117502   1.251   7.904   5.173 -1.7767  1.0729  1.0584
 5853TIP3    H217503   1.210   7.857   5.035  0.6949 -1.5563  1.1769
 5854TIP3   OH217504   5.085   0.477   6.028 -0.4870 -0.3720 -0.1299
 5854TIP3    H117505   5.085   0.404   5.966 -0.8992  0.1801 -0.7799
 5854TIP3    H217506   5.165   0.526   6.008 -1.3267  0.6083 -1.1881
 5855TIP3   OH217507   5.660   0.534   2.178 -0.3633 -0.0290  0.0575
 5855TIP3    H117508   5.694   0.460   2.128  0.9273  0.5677  0.0362
 5855TIP3    H217509   5.732   0.558   2.237 -1.0865  0.6560  0.6727
 5856TIP3   OH217510   5.676   0.311   4.992 -0.3073 -0.1449 -0.1681
 5856TIP3    H117511   5.710   0.275   5.074  0.2489  3.0812  1.0754
 5856TIP3    H217512   5.752   0.312   4.934 -0.1135 -0.1901  0.0788
 5857TIP3   OH217513   2.670   7.170   4.230 -0.0215  0.8356  0.3742
 5857TIP3    H117514   2.726   7.240   4.262  1.2178  0.0223  0.0383
 5857TIP3    H217515   2.607   7.155   4.300  1.6515  0.1790  1.7741
 5858TIP3   OH217516   1.417   6.945   5.016  0.1206  0.3014 -0.2618
 5858TIP3    H117517   1.490   6.935   5.077  0.6526  1.1792 -0.7602
 5858TIP3    H217518   1.339   6.946   5.072  0.5005 -0.3243  0.2891
 5859TIP3   OH217519   4.706   7.627   4.942  0.2039  0.7168  0.1959
 5859TIP3    H117520   4.744   7.709   4.911 -0.6287  0.9968 -0.0937
 5859TIP3    H217521   4.688   7.577   4.863 -0.0232  0.5834  0.3316
 5860TIP3   OH217522   5.923   0.403   4.850  0.3024  0.3099 -0.8654
 5860TIP3    H117523   5.987   0.347   4.805  1.0880 -0.0955  0.7009
 5860TIP3    H217524   5.977   0.463   4.902 -0.5382 -0.8855  1.5024
 5861TIP3   OH217525   3.469   7.833   6.459 -0.7086  0.7581  0.3184
 5861TIP3    H117526   3.481   7.741   6.479 -0.2088  0.4844 -1.1601
 5861TIP3    H217527   3.533   7.879   6.513  1.1981 -0.0161 -1.2350
 5862TIP3   OH217528   0.866   7.031   4.778  0.1227 -0.0251  0.2299
 5862TIP3    H117529   0.959   7.020   4.798  0.3072  0.0598 -0.5508
 5862TIP3    H217530   0.824   6.953   4.814  0.3735  0.3508  1.3425
 5863TIP3   OH217531   3.249   2.167   5.601  0.0991 -0.3523 -0.7602
 5863TIP3    H117532   3.209   2.254   5.603  1.6885  0.3972 -0.6870
 5863TIP3    H217533   3.206   2.123   5.528 -1.4231  0.1385 -0.1709
 5864TIP3   OH217534   8.049   4.251   0.558 -0.8927 -0.0384 -0.1564
 5864TIP3    H117535   8.092   4.166   0.550  0.8030  0.4540  2.8384
 5864TIP3    H217536   8.103   4.310   0.505 -0.2503 -0.2518  0.2484
 5865TIP3   OH217537   5.906   4.020   0.272  0.0933 -0.1268  0.5171
 5865TIP3    H117538   5.902   3.990   0.181 -0.9416 -0.3634  0.6367
 5865TIP3    H217539   5.873   3.946   0.323 -0.7068  0.5279  0.9647
 5866TIP3   OH217540   3.276   1.384   5.162 -0.0161 -0.2043 -0.0325
 5866TIP3    H117541   3.297   1.473   5.132 -0.5066  0.2354  0.8786
 5866TIP3    H217542   3.181   1.378   5.152  0.2006 -1.1858 -1.5418
 5867TIP3   OH217543   6.907   3.930   0.435 -0.1699 -0.1521  0.5245
 5867TIP3    H117544   6.974   3.863   0.418  1.1185  1.2311  0.1097
 5867TIP3    H217545   6.871   3.950   0.348 -1.2242 -0.9686  0.7557
 5868TIP3   OH217546   6.082   0.446   3.925 -0.2652 -0.1889 -0.3168
 5868TIP3    H117547   5.994   0.419   3.950 -0.1908  0.0089  0.1671
 5868TIP3    H217548   6.139   0.408   3.992  0.3035 -2.5191 -2.0391
 5869TIP3   OH217549   0.790   7.472   5.829  0.4724  0.1474 -0.3691
 5869TIP3    H117550   0.835   7.535   5.886  0.3906  0.1686 -0.3283
 5869TIP3    H217551   0.809   7.503   5.740  1.4078 -0.4417 -0.3814
 5870TIP3   OH217552   5.385   0.482   4.787  0.2878  0.1561  0.3027
 5870TIP3    H117553   5.423   0.456   4.703  0.3098 -0.2076  0.4238
 5870TIP3    H217554   5.365   0.575   4.776 -2.2971 -0.4998 -1.0817
 5871TIP3   OH217555   3.044   1.983   4.335  0.1288 -0.2024 -0.2455
 5871TIP3    H117556   3.057   1.904   4.387 -0.0148  0.7065  1.1955
 5871TIP3    H217557   3.007   2.046   4.396  1.3311  1.3506 -1.1007
 5872TIP3   OH217558   5.124   1.768   4.043  0.2253  0.5583  0.0639
 5872TIP3    H117559   5.208   1.799   4.010  1.0941 -1.2552  0.4736
 5872TIP3    H217560   5.078   1.847   4.071  2.4520  1.4490  1.3618
 5873TIP3   OH217561   1.871   6.693   4.914  0.1932 -0.2051 -0.5520
 5873TIP3    H117562   1.775   6.685   4.918 -0.0549  2.7903  0.6718
 5873TIP3    H217563   1.902   6.644   4.990 -0.3522 -1.2361 -0.9779
 5874TIP3   OH217564   5.358   0.053   3.644  0.1829 -0.5599 -0.1163
 5874TIP3    H117565   5.291   0.080   3.706  1.9498 -0.2281  1.6948
 5874TIP3    H217566   5.441   0.081   3.684  1.5499 -2.5240 -1.4456
 5875TIP3   OH217567   1.894   7.343   3.848 -0.3078 -0.2450 -0.1030
 5875TIP3    H117568   1.969   7.356   3.790 -0.8439 -0.3834 -0.8332
 5875TIP3    H217569   1.911   7.259   3.890  0.2124 -0.0215  0.1348
 5876TIP3   OH217570   0.932   6.946   5.701  0.0667 -0.2187  0.4088
 5876TIP3    H117571   0.986   6.978   5.629 -1.8399  0.5542 -0.7229
 5876TIP3    H217572   0.979   6.973   5.780  0.3939  2.1769 -0.5422
 5877TIP3   OH217573   4.846   1.198   6.418 -0.7096  0.6619  0.9050
 5877TIP3    H117574   4.768   1.216   6.365 -0.0553  1.0584  0.0656
 5877TIP3    H217575   4.895   1.280   6.417 -0.8198  0.7685  2.3750
 5878TIP3   OH217576   6.166   1.003   6.711  0.3112 -0.4801 -0.5511
 5878TIP3    H117577   6.083   0.982   6.753  0.3461  0.6716  0.1033
 5878TIP3    H217578   6.187   0.925   6.659 -0.8356 -1.0362 -0.1932
 5879TIP3   OH217579   4.419   1.661   2.897  0.0769 -1.0058 -0.0191
 5879TIP3    H117580   4.484   1.597   2.928 -1.0211 -2.3417 -0.4039
 5879TIP3    H217581   4.413   1.725   2.968  1.5261 -1.0752  0.1806
 5880TIP3   OH217582   0.346   7.765   3.935 -0.2397  0.4939 -0.2916
 5880TIP3    H117583   0.306   7.831   3.877 -0.9541 -1.1454 -1.7195
 5880TIP3    H217584   0.273   7.707   3.958  0.6218 -0.4997 -0.0723
 5881TIP3   OH217585   1.198   7.494   3.788 -0.2868 -0.3890  0.0403
 5881TIP3    H117586   1.125   7.543   3.827 -0.9692 -1.2007 -0.1993
 5881TIP3    H217587   1.255   7.561   3.751  0.4577  0.4388  2.5559
 5882TIP3   OH217588   6.782   0.071   6.693 -0.4813  0.3519  0.2202
 5882TIP3    H117589   6.840   0.008   6.650 -0.0792 -0.2880  1.6638
 5882TIP3    H217590   6.751   0.128   6.623 -2.0165 -2.3504 -1.3870
 5883TIP3   OH217591   0.195   7.943   3.788  0.0434  0.0080 -0.1682
 5883TIP3    H117592   0.106   7.922   3.759  0.7069  0.1826 -2.4669
 5883TIP3    H217593   0.250   7.925   3.712  1.4809  3.6511 -0.1239
 5884TIP3   OH217594   2.016   7.274   4.714  0.8601 -0.2013 -0.0015
 5884TIP3    H117595   2.013   7.346   4.776 -0.0435  0.0822 -0.3603
 5884TIP3    H217596   2.059   7.311   4.636  0.7781 -0.1696 -0.0317
 5885TIP3   OH217597   3.155   7.719   5.119  0.9022  0.0728 -0.3510
 5885TIP3    H117598   3.093   7.660   5.163  1.3918  0.1356  0.4378
 5885TIP3    H217599   3.237   7.671   5.119  1.1137  0.4344 -0.4150
 5886TIP3   OH217600   1.120   5.286   0.078  1.0062  0.2043  0.3617
 5886TIP3    H117601   1.033   5.297   0.040  0.8128 -1.5556  0.2715
 5886TIP3    H217602   1.132   5.365   0.132 -0.2804  0.8682 -0.2904
 5887TIP3   OH217603   1.311   7.768   5.578 -0.8709 -0.6942 -0.0900
 5887TIP3    H117604   1.311   7.801   5.667 -0.6144 -1.7429  0.3078
 5887TIP3    H217605   1.253   7.692   5.580 -1.5340 -0.2188 -1.0069
 5888TIP3   OH217606   2.386   7.728   5.105 -0.0003 -0.3131 -0.0945
 5888TIP3    H117607   2.290   7.729   5.109  0.0287 -1.0118  4.7124
 5888TIP3    H217608   2.412   7.815   5.134  0.7341 -1.3880  2.6825
 5889TIP3   OH217609   4.097   1.313   4.339 -0.3059  0.0416 -0.3824
 5889TIP3    H117610   4.114   1.400   4.375  0.4674  0.7192 -2.2996
 5889TIP3    H217611   4.008   1.318   4.303 -0.8547 -0.4565  0.8599
 5890TIP3   OH217612   3.098   0.014   4.683 -0.0920  0.0639  0.1514
 5890TIP3    H117613   3.072   0.058   4.602  2.4091  0.7058 -0.3486
 5890TIP3    H217614   3.094   0.082   4.750  2.6254  0.8211 -0.3997
 5891TIP3   OH217615   6.252   0.385   4.620 -0.0715  0.2713  0.2300
 5891TIP3    H117616   6.304   0.369   4.541 -2.6592 -0.7376 -1.3026
 5891TIP3    H217617   6.214   0.472   4.607  0.6924  0.7364  1.0590
 5892TIP3   OH217618   3.044   1.138   3.606 -0.5835  0.0634  0.2995
 5892TIP3    H117619   3.048   1.192   3.527 -1.4795 -1.5045 -0.8534
 5892TIP3    H217620   3.088   1.190   3.673  1.1755  0.9725 -1.4959
 5893TIP3   OH217621   6.276   0.805   4.825 -0.2044  0.4661  0.4028
 5893TIP3    H117622   6.185   0.834   4.820 -0.5114 -0.7809 -1.4735
 5893TIP3    H217623   6.289   0.785   4.918 -1.0948  2.9853  1.0926
 5894TIP3   OH217624   6.265   0.744   4.526 -0.5196  0.2765 -0.2683
 5894TIP3    H117625   6.293   0.814   4.585  0.2141  0.0765 -0.3716
 5894TIP3    H217626   6.272   0.782   4.438  0.0901 -0.0001 -0.3383
 5895TIP3   OH217627   4.428   0.932   6.165  0.0301 -0.0313  0.4095
 5895TIP3    H117628   4.478   0.963   6.090  0.0859 -0.7493  0.1499
 5895TIP3    H217629   4.354   0.884   6.127  1.0263 -1.9348  0.8176
 5896TIP3   OH217630   4.739   2.322   4.870  0.1414  0.3572  0.3208
 5896TIP3    H117631   4.740   2.230   4.844  1.8027  0.0072  1.5557
 5896TIP3    H217632   4.826   2.354   4.847  0.2321  1.1085  1.6524
 5897TIP3   OH217633   5.192   0.277   6.645 -0.7777  0.0130 -0.3866
 5897TIP3    H117634   5.217   0.208   6.584 -1.9682 -1.0626  0.3346
 5897TIP3    H217635   5.269   0.290   6.700  0.1117  0.6059 -1.7476
 5898TIP3   OH217636   7.258   0.096   5.284 -0.7534 -0.7101  0.2605
 5898TIP3    H117637   7.195   0.095   5.211 -0.0525  1.9910 -0.4443
 5898TIP3    H217638   7.317   0.023   5.265 -2.0045 -1.5473 -0.5501
 5899TIP3   OH217639   2.919   6.666   3.497  0.1187 -0.0679 -0.3169
 5899TIP3    H117640   2.824   6.652   3.498  0.0300  0.5744  2.3238
 5899TIP3    H217641   2.957   6.578   3.500 -0.4027 -0.2602  0.8166
 5900TIP3   OH217642   3.678   7.954   2.953 -0.0080 -0.0084  0.0047
 5900TIP3    H117643   3.768   7.982   2.968  0.1346 -0.7103  0.5301
 5900TIP3    H217644   3.658   7.981   2.863  0.6439  0.3527 -0.0338
 5901TIP3   OH217645   6.315   0.923   5.348 -0.3599 -0.0127 -0.0537
 5901TIP3    H117646   6.248   0.895   5.409 -0.5599  2.3777  0.8346
 5901TIP3    H217647   6.293   1.013   5.325  1.3639  0.1247 -1.3649
 5902TIP3   OH217648   6.646   3.687   4.114  0.0443 -0.6519 -0.3091
 5902TIP3    H117649   6.622   3.691   4.207 -1.1340 -0.8639 -0.5939
 5902TIP3    H217650   6.700   3.765   4.100  1.4817 -1.4024  0.8908
 5903TIP3   OH217651   5.066   6.331   4.496 -0.2867 -0.2356 -0.7054
 5903TIP3    H117652   5.065   6.275   4.574 -2.1925 -1.3497 -1.4952
 5903TIP3    H217653   5.138   6.297   4.443  1.0603  0.5625  0.5731
 5904TIP3   OH217654   2.309   7.937   4.273 -0.7074  0.3940 -0.0978
 5904TIP3    H117655   2.266   7.861   4.236 -0.7682  0.0378  0.6964
 5904TIP3    H217656   2.325   7.914   4.364  1.2819  0.4511 -0.3945
 5905TIP3   OH217657   1.735   7.981   3.276 -0.1803 -0.3261 -0.3223
 5905TIP3    H117658   1.825   8.013   3.266  0.1860 -0.3092  2.4476
 5905TIP3    H217659   1.716   7.935   3.195  2.2769 -0.1873 -1.0113
 5906TIP3   OH217660   1.076   5.997   4.052  0.2290 -0.1174  0.3735
 5906TIP3    H117661   1.156   5.986   3.999  0.0083 -0.4551  0.1021
 5906TIP3    H217662   1.044   5.907   4.065 -0.7738  0.0941 -0.5633
 5907TIP3   OH217663   3.998   0.861   5.241  0.0370 -0.0691  0.1286
 5907TIP3    H117664   4.074   0.915   5.257 -1.0174  1.3048  0.5947
 5907TIP3    H217665   4.033   0.774   5.223  1.6887  0.5228  0.4583
 5908TIP3   OH217666   5.630   1.201   5.664  0.2037 -0.4060  0.0789
 5908TIP3    H117667   5.580   1.276   5.633  1.9597  1.5730  1.8000
 5908TIP3    H217668   5.565   1.134   5.683 -1.5247  1.1044 -0.3817
 5909TIP3   OH217669   3.945   1.184   6.232  0.3679  0.2260 -0.2134
 5909TIP3    H117670   4.005   1.173   6.306  1.4255  0.5855 -1.0091
 5909TIP3    H217671   3.900   1.266   6.250  0.3608  0.1307  0.2191
 5910TIP3   OH217672   4.028   7.991   5.190  0.2757  0.0297 -0.3963
 5910TIP3    H117673   4.020   7.939   5.110  0.6350 -0.8246  0.1202
 5910TIP3    H217674   4.076   8.069   5.163 -1.4280  0.7337 -1.4630
 5911TIP3   OH217675   6.179   3.208   5.959  0.1030 -0.3312 -0.7494
 5911TIP3    H117676   6.092   3.173   5.940 -0.3168  0.9214 -1.1913
 5911TIP3    H217677   6.220   3.218   5.874  0.5413 -0.5583 -0.5668
 5912TIP3   OH217678   6.339   0.323   4.360  0.1750  0.4288 -0.6471
 5912TIP3    H117679   6.435   0.331   4.355  0.0214  1.8924 -1.2794
 5912TIP3    H217680   6.310   0.325   4.269 -0.6542  2.5428 -0.3499
 5913TIP3   OH217681   4.913   0.360   5.237 -0.2070  0.7030  0.2585
 5913TIP3    H117682   4.918   0.309   5.156 -0.0371 -0.7307  1.1518
 5913TIP3    H217683   5.001   0.396   5.248 -0.5564  1.9502 -0.8339
 5914TIP3   OH217684   7.847   6.071   0.483 -0.1238  0.0141 -0.1229
 5914TIP3    H117685   7.927   6.125   0.481  0.8125 -1.3363  0.1993
 5914TIP3    H217686   7.878   5.983   0.461 -1.2827 -0.8388  1.6127
 5915TIP3   OH217687   4.545   2.162   2.707 -0.4990 -0.0106  0.2997
 5915TIP3    H117688   4.578   2.161   2.796  0.7851 -0.1817 -0.1691
 5915TIP3    H217689   4.611   2.211   2.657  1.6332 -4.5474 -1.6074
 5916TIP3   OH217690   5.889   1.375   4.870  0.1890 -0.7417 -0.3569
 5916TIP3    H117691   5.819   1.405   4.812  1.6590  2.9897 -0.3384
 5916TIP3    H217692   5.946   1.322   4.814 -1.0520 -1.3243 -1.0761
 5917TIP3   OH217693   3.619   0.120   4.808  0.5320 -0.2622  0.4144
 5917TIP3    H117694   3.553   0.189   4.822 -0.4694 -0.9154 -0.9945
 5917TIP3    H217695   3.682   0.133   4.879 -1.8184 -0.4524  2.6558
 5918TIP3   OH217696   2.660   2.046   5.509 -0.1999  0.4323 -0.6790
 5918TIP3    H117697   2.601   1.975   5.533  0.1316 -0.1805 -1.6439
 5918TIP3    H217698   2.620   2.124   5.547 -1.0138 -0.1431 -0.3341
 5919TIP3   OH217699   2.032   7.838   4.790 -0.7949  0.1627 -0.2998
 5919TIP3    H117700   2.077   7.890   4.857  1.4237  0.5405 -1.9919
 5919TIP3    H217701   2.011   7.902   4.721  0.5190 -0.8618 -1.6849
 5920TIP3   OH217702   2.456   7.923   4.010  0.0544  0.2026  0.1813
 5920TIP3    H117703   2.402   7.999   3.991 -1.1890 -0.4946  0.8907
 5920TIP3    H217704   2.453   7.914   4.105  0.5732 -0.4674  0.1424
 5921TIP3   OH217705   3.585   1.793   5.109  0.2457 -0.2128  0.5421
 5921TIP3    H117706   3.671   1.836   5.102 -0.5651  1.3847  0.1286
 5921TIP3    H217707   3.539   1.843   5.176 -1.2665  0.5426 -1.0054
 5922TIP3   OH217708   3.130   1.361   4.487 -0.0906 -0.5412  0.4860
 5922TIP3    H117709   3.164   1.310   4.560  0.7141 -0.8582 -0.0981
 5922TIP3    H217710   3.047   1.320   4.465  1.0652 -2.3373 -0.7036
 5923TIP3   OH217711   5.028   0.010   4.957  0.2180 -0.2434 -0.1051
 5923TIP3    H117712   5.012   0.103   4.940  0.7076 -0.1203  0.0994
 5923TIP3    H217713   5.042   0.005   5.051 -0.5607 -0.6392 -0.0043
 5924TIP3   OH217714   5.722   1.180   5.952 -0.0162 -0.3117 -0.4669
 5924TIP3    H117715   5.707   1.167   5.858 -0.9842 -0.4771 -0.2995
 5924TIP3    H217716   5.642   1.223   5.983  0.3764 -0.0888  0.2517
 5925TIP3   OH217717   1.117   7.335   5.559 -0.0300 -0.1559  0.3029
 5925TIP3    H117718   1.121   7.405   5.624  0.4381 -0.9541  1.1497
 5925TIP3    H217719   1.192   7.350   5.502 -0.1932  0.2948  0.2057
 5926TIP3   OH217720   3.927   2.641   6.171  0.3077 -0.4580 -0.0543
 5926TIP3    H117721   4.006   2.690   6.147  0.6007 -1.4923 -1.2531
 5926TIP3    H217722   3.855   2.687   6.128  0.4135 -0.2516 -0.0089
 5927TIP3   OH217723   4.337   1.275   5.932 -0.0368 -0.3389 -0.9678
 5927TIP3    H117724   4.284   1.231   5.999  1.4951 -0.2017  0.3777
 5927TIP3    H217725   4.274   1.300   5.864 -1.6945 -0.1370  0.5947
 5928TIP3   OH217726   1.789   0.999   4.011 -0.0940  0.0471  0.4251
 5928TIP3    H117727   1.875   0.999   3.969 -0.8184  3.2509 -1.1834
 5928TIP3    H217728   1.731   0.955   3.949 -0.0203 -0.3673  0.6470
 5929TIP3   OH217729   3.401   2.146   2.824 -0.0161 -0.0509 -0.6020
 5929TIP3    H117730   3.323   2.186   2.863 -0.9907 -0.1532 -2.4135
 5929TIP3    H217731   3.450   2.220   2.789 -0.9258 -0.2521 -2.3482
 5930TIP3   OH217732   2.594   1.859   5.969 -0.1053  0.1746  0.5511
 5930TIP3    H117733   2.667   1.892   6.020 -0.1840  0.2771  0.5983
 5930TIP3    H217734   2.619   1.874   5.878 -0.5526  1.2380  0.5977
 5931TIP3   OH217735   1.984   7.520   4.872 -0.1887 -0.5459 -0.3026
 5931TIP3    H117736   2.000   7.610   4.843 -0.0281 -0.8790 -1.2637
 5931TIP3    H217737   1.924   7.530   4.946 -0.1047  0.3606 -0.3420
 5932TIP3   OH217738   0.688   7.753   3.587 -0.5215 -0.1016 -0.1494
 5932TIP3    H117739   0.644   7.750   3.672 -1.2154  1.6578 -0.4150
 5932TIP3    H217740   0.777   7.783   3.606 -0.6048  0.0608 -0.0163
 5933TIP3   OH217741   6.414   4.988   0.318  0.9165  0.5159  0.4731
 5933TIP3    H117742   6.436   4.983   0.225 -0.0515  0.5150  0.2465
 5933TIP3    H217743   6.490   5.030   0.358  1.7862 -0.4256 -0.1615
 5934TIP3   OH217744   2.098   7.412   4.152  0.3452  0.0276  0.0324
 5934TIP3    H117745   2.090   7.371   4.066 -0.1365 -0.5530  0.3524
 5934TIP3    H217746   2.188   7.446   4.154 -0.3814  2.1569 -1.6230
 5935TIP3   OH217747   1.131   7.952   3.702 -0.6090 -0.0881  0.1775
 5935TIP3    H117748   1.118   7.901   3.782  2.8679  1.0516  1.5672
 5935TIP3    H217749   1.221   7.935   3.677 -0.7505  1.9060 -1.8290
 5936TIP3   OH217750   2.591   7.884   4.696  0.2894 -0.6052 -0.0503
 5936TIP3    H117751   2.573   7.889   4.790  3.5968  0.3421  0.6082
 5936TIP3    H217752   2.636   7.966   4.675  1.1357 -1.5469 -2.0861
 5937TIP3   OH217753   2.101   2.619   3.294 -0.7421 -0.1911  0.0148
 5937TIP3    H117754   2.017   2.575   3.312 -0.8160  0.2971  0.8916
 5937TIP3    H217755   2.126   2.657   3.378  1.3041 -1.9243  0.2302
 5938TIP3   OH217756   2.539   6.141   5.722  0.0056  0.0287  0.0536
 5938TIP3    H117757   2.545   6.073   5.655  0.1804  0.3803 -0.2893
 5938TIP3    H217758   2.624   6.184   5.722 -0.9223  1.9530 -1.5675
 5939TIP3   OH217759   6.008   3.549   0.203 -0.4737 -0.0245 -0.0694
 5939TIP3    H117760   6.024   3.616   0.269 -0.9621 -1.4725  1.5835
 5939TIP3    H217761   5.985   3.597   0.124  1.2126  1.7786  0.5032
 5940TIP3   OH217762   0.539   7.392   4.635  0.1728  0.1807 -0.6893
 5940TIP3    H117763   0.628   7.357   4.639  0.2371  0.3209 -0.9044
 5940TIP3    H217764   0.483   7.319   4.661  0.3541  0.1065 -0.5040
 5941TIP3   OH217765   6.650   1.532   2.752  0.4403  0.1289  0.5700
 5941TIP3    H117766   6.683   1.560   2.837  1.6435  0.3784  0.0347
 5941TIP3    H217767   6.652   1.612   2.699 -1.0200  0.1456  0.5134
 5942TIP3   OH217768   4.733   1.625   6.402 -0.1989 -0.3018  0.0714
 5942TIP3    H117769   4.755   1.578   6.322  1.2853  1.1614 -0.4250
 5942TIP3    H217770   4.638   1.619   6.409 -0.2297 -1.4093 -1.1829
 5943TIP3   OH217771   3.326   7.996   3.988  0.1694 -0.2831 -0.4789
 5943TIP3    H117772   3.341   7.952   3.905  3.2078 -1.6045  0.7061
 5943TIP3    H217773   3.279   7.932   4.042  0.5128 -0.3876 -0.3029
 5944TIP3   OH217774   5.149   3.161   5.877  0.0802  0.1399  0.5471
 5944TIP3    H117775   5.178   3.199   5.960 -0.1660  0.1625  0.6265
 5944TIP3    H217776   5.227   3.159   5.822 -0.3787  2.8591 -0.2685
 5945TIP3   OH217777   7.097   0.614   4.193 -0.5520 -0.5502 -0.4868
 5945TIP3    H117778   7.108   0.590   4.285  0.9705  0.5634 -0.3595
 5945TIP3    H217779   7.101   0.709   4.193  1.0012 -0.5982 -1.8933
 5946TIP3   OH217780   2.506   7.723   6.594  0.0285 -0.4029  0.2188
 5946TIP3    H117781   2.569   7.676   6.539 -0.6093  0.6078 -1.4030
 5946TIP3    H217782   2.554   7.799   6.625 -1.2195  2.0327 -3.5043
 5947TIP3   OH217783   2.213   7.490   6.300 -0.0090  0.1903 -0.3123
 5947TIP3    H117784   2.237   7.509   6.391 -1.9508  0.4106  0.1643
 5947TIP3    H217785   2.145   7.552   6.279 -0.0188 -0.2818 -1.7316
 5948TIP3   OH217786   4.805   0.888   4.008  0.5464  0.4080 -0.1154
 5948TIP3    H117787   4.892   0.911   4.043  1.4688 -3.5233  0.4317
 5948TIP3    H217788   4.744   0.911   4.078  1.3127  1.6938  0.1486
 5949TIP3   OH217789   4.495   2.409   6.679  0.3067  0.7055 -0.3722
 5949TIP3    H117790   4.455   2.329   6.646  1.0316  0.4332 -0.6034
 5949TIP3    H217791   4.520   2.387   6.769 -0.4591  1.0177 -0.0803
 5950TIP3   OH217792   2.367   7.542   5.919 -0.3873 -0.2638 -0.3009
 5950TIP3    H117793   2.360   7.484   5.995  0.3102 -0.3525 -0.2988
 5950TIP3    H217794   2.439   7.603   5.942 -1.9250  1.4010  0.2251
 5951TIP3   OH217795   3.676   0.649   6.840 -0.1758  0.1052 -0.0489
 5951TIP3    H117796   3.639   0.561   6.833 -0.9913  0.2426  2.3306
 5951TIP3    H217797   3.643   0.695   6.763 -1.7956 -0.9315  0.0019
 5952TIP3   OH217798   4.962   1.801   3.612  0.3233  0.6567  0.1991
 5952TIP3    H117799   4.878   1.814   3.657  0.3221  1.9421 -0.1549
 5952TIP3    H217800   4.950   1.719   3.563 -0.9474  1.1490 -0.3280
 5953TIP3   OH217801   3.948   0.209   5.222 -0.1691 -0.2125 -0.2308
 5953TIP3    H117802   4.015   0.238   5.159 -0.7799 -1.5793 -1.5167
 5953TIP3    H217803   3.964   0.263   5.299  1.1161  0.9209 -1.2616
 5954TIP3   OH217804   5.415   0.261   4.940 -0.1055 -0.5481 -0.0645
 5954TIP3    H117805   5.383   0.336   4.890 -0.9513 -0.6131  0.3620
 5954TIP3    H217806   5.511   0.266   4.934 -0.1705  0.3488 -0.3496
 5955TIP3   OH217807   0.448   0.588   1.739  0.3060  0.3381 -0.3350
 5955TIP3    H117808   0.359   0.623   1.740  0.6714  1.3127 -0.5636
 5955TIP3    H217809   0.439   0.497   1.765 -1.2599 -0.8230 -4.5909
 5956TIP3   OH217810   5.939   0.592   2.653  0.0794 -0.0133 -0.1596
 5956TIP3    H117811   5.969   0.531   2.720 -1.4891 -0.3716  0.2364
 5956TIP3    H217812   5.858   0.629   2.688 -0.6165  0.0026 -1.7133
 5957TIP3   OH217813   6.196   2.882   4.425  0.4206 -0.0603 -0.2260
 5957TIP3    H117814   6.291   2.894   4.424  0.5396 -0.5558  2.4077
 5957TIP3    H217815   6.164   2.950   4.485 -1.0174  0.7860 -1.8956
 5958TIP3   OH217816   4.810   0.732   3.788  0.0862 -0.0876  0.0380
 5958TIP3    H117817   4.792   0.787   3.863 -3.6680 -0.9971 -0.1272
 5958TIP3    H217818   4.784   0.784   3.712 -1.7164 -1.3516 -0.2351
 5959TIP3   OH217819   7.935   0.653   2.647  0.2062 -0.1974  0.2286
 5959TIP3    H117820   7.943   0.681   2.556 -0.0899  0.6546  0.4528
 5959TIP3    H217821   7.952   0.559   2.646  4.2588  0.4818 -0.1429
 5960TIP3   OH217822   3.544   7.107   4.540 -0.2631  0.3800 -0.3678
 5960TIP3    H117823   3.573   7.018   4.561 -0.5658  0.3355 -0.1455
 5960TIP3    H217824   3.452   7.097   4.516  0.2096  0.3340 -2.2870
 5961TIP3   OH217825   6.681   1.090   4.752  0.4251 -0.8229  0.7673
 5961TIP3    H117826   6.774   1.093   4.730  0.5255  0.6489  1.3291
 5961TIP3    H217827   6.674   1.144   4.831 -1.1569  0.4591 -0.2314
 5962TIP3   OH217828   1.793   7.135   4.605 -0.1287  0.5983  0.0872
 5962TIP3    H117829   1.761   7.216   4.566  2.9395  1.6932 -0.2462
 5962TIP3    H217830   1.873   7.160   4.651 -0.1786 -1.8907  1.6162
 5963TIP3   OH217831   6.582   2.197   5.252  0.0136  0.1548  0.1813
 5963TIP3    H117832   6.656   2.249   5.283  1.0870  0.0415 -2.1340
 5963TIP3    H217833   6.621   2.115   5.222 -1.1184 -0.1203 -0.5721
 5964TIP3   OH217834   6.070   2.450   5.551  0.0116 -0.1705 -0.0354
 5964TIP3    H117835   6.103   2.397   5.623 -0.0429 -0.9659 -0.5891
 5964TIP3    H217836   5.995   2.497   5.589  1.6307  1.5019  1.1626
 5965TIP3   OH217837   5.265   0.362   2.832 -0.6132 -0.4648 -0.5593
 5965TIP3    H117838   5.322   0.310   2.775 -0.2743  0.8356 -1.4188
 5965TIP3    H217839   5.311   0.444   2.845 -1.0134 -0.4652  1.0375
 5966TIP3   OH217840   3.586   6.855   4.624  0.2155 -0.5381 -0.4511
 5966TIP3    H117841   3.676   6.846   4.593  0.1128  0.0561 -0.9272
 5966TIP3    H217842   3.584   6.805   4.706  1.8235  2.0164  1.2358
 5967TIP3   OH217843   7.888   3.958   0.695  0.0843  0.3181  0.2577
 5967TIP3    H117844   7.806   4.007   0.702  0.2758  0.5665  0.7977
 5967TIP3    H217845   7.863   3.867   0.709 -0.2207  0.2961 -0.3973
 5968TIP3   OH217846   1.711   7.418   6.710 -0.3332 -0.4669  0.3810
 5968TIP3    H117847   1.624   7.408   6.749 -0.6555 -1.4847 -0.5554
 5968TIP3    H217848   1.711   7.357   6.636  0.4949  0.9190 -0.7962
 5969TIP3   OH217849   4.117   1.844   3.570 -0.3987 -0.0218  0.4416
 5969TIP3    H117850   4.197   1.839   3.623 -0.3166  0.1278  0.3332
 5969TIP3    H217851   4.081   1.756   3.573 -0.1107 -0.1449  0.3081
 5970TIP3   OH217852   6.052   0.450   4.206  0.4794 -0.1270 -0.1214
 5970TIP3    H117853   6.005   0.421   4.284  0.3004  0.2522 -0.0935
 5970TIP3    H217854   6.040   0.544   4.203  3.1046  0.2904  1.1343
 5971TIP3   OH217855   5.644   0.025   5.538 -0.2291  0.5094 -0.4227
 5971TIP3    H117856   5.634   0.119   5.523  1.9612  0.9263  0.5597
 5971TIP3    H217857   5.588   0.007   5.613 -0.6683  1.0081 -0.6202
 5972TIP3   OH217858   5.011   2.243   5.198  0.2161 -0.5514  0.0511
 5972TIP3    H117859   4.952   2.173   5.169 -0.1925 -0.1733 -0.0477
 5972TIP3    H217860   4.960   2.291   5.263  0.3714 -0.1519 -0.1189
 5973TIP3   OH217861   7.448   0.854   6.496 -0.4479  0.4582 -0.5216
 5973TIP3    H117862   7.358   0.821   6.495  0.0524 -1.1863  2.1983
 5973TIP3    H217863   7.446   0.926   6.560 -0.1299  1.3315 -1.4930
 5974TIP3   OH217864   7.245   4.185   0.124  0.3066  0.2407  0.0254
 5974TIP3    H117865   7.166   4.238   0.130 -0.1479 -0.4739  0.4356
 5974TIP3    H217866   7.237   4.138   0.041  0.8077  0.9657 -0.4378
 5975TIP3   OH217867   5.100   1.054   5.277 -0.4584 -0.1136  0.5257
 5975TIP3    H117868   5.054   1.022   5.200  2.2990  0.9522 -1.6234
 5975TIP3    H217869   5.166   0.988   5.296 -0.8304 -0.1545  1.7036
 5976TIP3   OH217870   4.703   0.174   1.923  0.6032  0.3553 -0.3039
 5976TIP3    H117871   4.728   0.244   1.984 -0.8710 -0.7052  1.5686
 5976TIP3    H217872   4.760   0.101   1.946  1.0801  0.4300 -1.2276
 5977TIP3   OH217873   8.111   5.367   0.099 -0.3160 -0.4703 -0.4246
 5977TIP3    H117874   8.100   5.280   0.135  0.4789 -0.5526 -0.3733
 5977TIP3    H217875   8.064   5.425   0.160  2.0526 -0.4566  1.4422
 5978TIP3   OH217876   5.222   3.892   3.139 -0.5582  0.4554  0.2068
 5978TIP3    H117877   5.187   3.898   3.228  2.5152  1.9033  1.3547
 5978TIP3    H217878   5.248   3.800   3.130 -1.4102  0.1704  0.5699
 5979TIP3   OH217879   4.168   0.812   6.027  0.0195  0.0090  0.4714
 5979TIP3    H117880   4.173   0.721   6.059  0.6558  0.2297  1.0184
 5979TIP3    H217881   4.103   0.853   6.084  0.9392  0.3253  1.3027
 5980TIP3   OH217882   6.579   3.016   3.578  0.5161  0.2492 -0.2133
 5980TIP3    H117883   6.652   3.052   3.628  0.2950 -0.2696  0.4852
 5980TIP3    H217884   6.507   3.077   3.593 -0.0832 -0.8601  1.5890
 5981TIP3   OH217885   3.679   2.292   4.685  0.3052  0.5502 -0.2028
 5981TIP3    H117886   3.619   2.233   4.639 -0.8172  1.0198  0.6304
 5981TIP3    H217887   3.622   2.357   4.726  1.3018  0.3974  1.4812
 5982TIP3   OH217888   3.810   1.368   4.230 -0.2107 -0.1336 -0.0670
 5982TIP3    H117889   3.760   1.387   4.309 -0.6305 -0.0366 -0.3532
 5982TIP3    H217890   3.791   1.441   4.171  0.5540  0.0864 -0.0480
 5983TIP3   OH217891   5.486   0.317   3.175 -0.4836  0.1213 -0.0829
 5983TIP3    H117892   5.557   0.330   3.238  0.5578 -0.3909 -1.1453
 5983TIP3    H217893   5.434   0.245   3.213  0.6152 -0.7516 -0.2014
 5984TIP3   OH217894   7.338   4.661   3.331  0.2464  0.4672  0.0641
 5984TIP3    H117895   7.307   4.709   3.408  0.4826 -0.0698  0.5047
 5984TIP3    H217896   7.262   4.655   3.274  0.0245  0.7403  0.3308
 5985TIP3   OH217897   0.426   7.786   3.293  0.1868 -0.0647 -0.3480
 5985TIP3    H117898   0.430   7.697   3.327  3.2724 -0.2484 -1.0964
 5985TIP3    H217899   0.500   7.831   3.334 -0.4762  1.7534 -1.1025
 5986TIP3   OH217900   5.261   1.559   4.694 -0.1552  0.0929 -0.6332
 5986TIP3    H117901   5.167   1.541   4.702 -0.0903  0.0356  0.0970
 5986TIP3    H217902   5.303   1.475   4.713  0.0742  0.4218  0.3792
 5987TIP3   OH217903   6.893   1.141   5.742  0.0341 -0.0897 -0.1755
 5987TIP3    H117904   6.955   1.129   5.670 -1.7961  2.6044 -2.2569
 5987TIP3    H217905   6.828   1.072   5.729 -0.1401  0.2134 -0.9129
 5988TIP3   OH217906   7.029   0.301   3.200 -0.0928  0.2199  0.1535
 5988TIP3    H117907   7.077   0.228   3.239  2.6551  1.8019 -0.1984
 5988TIP3    H217908   7.086   0.335   3.131 -1.1142  2.9983  0.5974
 5989TIP3   OH217909   3.880   7.823   5.016  0.3361  0.2721  0.5485
 5989TIP3    H117910   3.932   7.867   4.949  0.7318  0.0853  0.7328
 5989TIP3    H217911   3.883   7.731   4.992 -1.4190  0.4549 -0.4777
 5990TIP3   OH217912   7.395   1.249   3.771 -0.2612  0.0383  0.2352
 5990TIP3    H117913   7.340   1.310   3.819 -0.6718  0.4275 -0.7147
 5990TIP3    H217914   7.401   1.286   3.683  0.3473 -0.7433 -0.0642
 5991TIP3   OH217915   5.011   0.998   3.334 -0.0431 -0.5122  0.3261
 5991TIP3    H117916   5.047   0.951   3.409  0.2316  0.3111  0.7185
 5991TIP3    H217917   5.026   0.940   3.260  1.4451 -0.4922  0.5984
 5992TIP3   OH217918   3.298   7.109   5.094 -0.4825  0.2238  0.3404
 5992TIP3    H117919   3.379   7.160   5.089 -0.1433 -0.4843 -2.0348
 5992TIP3    H217920   3.253   7.143   5.172  0.4473  3.0785 -0.2986
 5993TIP3   OH217921   5.406   1.517   2.260 -0.1523  0.2264  0.0215
 5993TIP3    H117922   5.479   1.578   2.270  0.6060 -0.4985 -1.0430
 5993TIP3    H217923   5.344   1.562   2.202 -0.9436  1.1714  1.5546
 5994TIP3   OH217924   6.333   4.614   2.982  0.0008  0.3367  0.2409
 5994TIP3    H117925   6.348   4.704   2.954  1.6957 -0.4152 -1.3576
 5994TIP3    H217926   6.375   4.608   3.068  1.4047  0.6148 -0.4108
 5995TIP3   OH217927   6.702   1.404   4.601 -0.1262 -0.3488 -0.0577
 5995TIP3    H117928   6.615   1.381   4.568  0.0047  0.3215 -0.8780
 5995TIP3    H217929   6.762   1.348   4.550 -0.0390 -0.4036  0.1057
 5996TIP3   OH217930   0.572   1.885   5.492 -0.0861 -0.3478  0.1094
 5996TIP3    H117931   0.518   1.957   5.524 -0.0350 -0.1298 -0.2960
 5996TIP3    H217932   0.575   1.823   5.566 -0.7188 -0.2717  0.2057
 5997TIP3   OH217933   3.790   7.178   3.412  0.4514 -0.1447  0.0687
 5997TIP3    H117934   3.735   7.209   3.339 -0.9008 -0.4260  0.9431
 5997TIP3    H217935   3.860   7.243   3.419  0.5878 -0.1066 -1.4713
 5998TIP3   OH217936   6.843   0.870   5.532  0.1088  0.3088 -0.5902
 5998TIP3    H117937   6.824   0.866   5.438  0.0539  0.6673 -0.5929
 5998TIP3    H217938   6.766   0.909   5.571  0.0319 -0.0711 -0.3624
 5999TIP3   OH217939   7.023   1.865   3.923 -0.4788  0.3920 -0.2138
 5999TIP3    H117940   7.000   1.781   3.884 -0.3898  0.0897  0.3723
 5999TIP3    H217941   6.941   1.896   3.963  0.2600 -1.0930  2.6227
 6000TIP3   OH217942   5.813   2.261   1.503  0.2620 -0.0627 -0.2886
 6000TIP3    H117943   5.835   2.318   1.430  0.8782  0.3345  0.2011
 6000TIP3    H217944   5.814   2.319   1.580 -1.0349 -0.3411 -0.0600
 6001TIP3   OH217945   8.394   0.180   5.223 -0.5354 -0.1764 -0.2659
 6001TIP3    H117946   8.386   0.165   5.317 -2.3409  0.4075 -0.3029
 6001TIP3    H217947   8.428   0.097   5.188  0.2300 -0.3613  0.9028
 6002TIP3   OH217948   5.416   0.387   5.832  0.5631 -0.3936  0.5688
 6002TIP3    H117949   5.332   0.342   5.841  0.3453  0.3817  2.6614
 6002TIP3    H217950   5.404   0.444   5.756 -0.6147 -0.6723  0.5356
 6003TIP3   OH217951   7.162   1.716   4.313 -0.4695 -0.2947 -0.2076
 6003TIP3    H117952   7.212   1.727   4.232 -0.3256 -0.9176 -0.2017
 6003TIP3    H217953   7.107   1.794   4.317  0.8089  0.6057  0.0064
 6004TIP3   OH217954   4.316   7.542   2.647  0.6724  0.1491  0.0494
 6004TIP3    H117955   4.343   7.562   2.557  3.2991 -2.3694  0.2142
 6004TIP3    H217956   4.233   7.494   2.637 -0.0935  1.6384 -0.8888
 6005TIP3   OH217957   6.624   3.390   4.116  0.3298 -0.2854  0.0789
 6005TIP3    H117958   6.638   3.482   4.136  0.7220 -0.3419  0.0646
 6005TIP3    H217959   6.547   3.366   4.168  0.0932  0.1066 -0.0919
 6006TIP3   OH217960   7.055   1.060   4.073  0.0681  0.1824  0.0470
 6006TIP3    H117961   7.095   1.145   4.089  2.1124 -0.7427 -0.0423
 6006TIP3    H217962   7.046   1.056   3.977  1.0522 -0.1814 -0.0319
 6007TIP3   OH217963   7.758   2.885   4.825 -0.0639 -0.5604  0.1743
 6007TIP3    H117964   7.820   2.929   4.883  0.4635 -0.8762 -0.1499
 6007TIP3    H217965   7.720   2.957   4.774 -1.1791 -0.1761  1.5055
 6008TIP3   OH217966   6.747   0.231   4.158 -0.1325 -0.7629  0.6712
 6008TIP3    H117967   6.677   0.170   4.181 -0.6846 -0.8532 -1.1387
 6008TIP3    H217968   6.756   0.222   4.063  1.7557 -0.1207  0.7627
 6009TIP3   OH217969   6.327   7.658   4.029  0.5161 -0.2220 -0.4619
 6009TIP3    H117970   6.349   7.694   3.943 -1.7093  0.0812 -0.9361
 6009TIP3    H217971   6.261   7.717   4.063  0.2225 -1.2525  0.7860
 6010TIP3   OH217972   7.310   0.651   3.400  0.5151 -0.1119  0.0972
 6010TIP3    H117973   7.307   0.620   3.491  0.7707 -0.9632 -0.1790
 6010TIP3    H217974   7.229   0.702   3.389  0.0029 -0.8290  0.5074
 6011TIP3   OH217975   3.168   7.914   5.308  0.2715 -0.5479 -0.3986
 6011TIP3    H117976   3.244   7.882   5.356 -0.2853  0.0389  0.9290
 6011TIP3    H217977   3.150   7.846   5.242  2.5104 -0.2093 -1.3770
 6012TIP3   OH217978   0.302   1.653   4.386  0.6843  0.3018 -0.2618
 6012TIP3    H117979   0.306   1.585   4.453  1.3903  0.7640  0.1613
 6012TIP3    H217980   0.260   1.727   4.429  1.0611  0.5707 -0.3549
 6013TIP3   OH217981   5.812   1.789   5.957  0.2022  0.0056 -0.3434
 6013TIP3    H117982   5.770   1.867   5.993  1.0094 -0.1794  1.0414
 6013TIP3    H217983   5.804   1.723   6.026  2.2726 -0.1946 -0.2572
 6014TIP3   OH217984   4.922   7.896   3.063 -0.8853  0.1192  0.1398
 6014TIP3    H117985   4.873   7.845   2.998  2.3636 -0.7961 -1.6959
 6014TIP3    H217986   4.942   7.978   3.018  0.8331 -0.2744  0.1293
 6015TIP3   OH217987   7.103   2.325   3.395 -0.4599  0.3488  0.0457
 6015TIP3    H117988   7.168   2.341   3.326  0.3718 -1.2641  0.4278
 6015TIP3    H217989   7.084   2.412   3.431 -0.3823  1.1260 -1.7371
 6016TIP3   OH217990   6.100   1.354   5.317  0.2262 -0.1422  0.0204
 6016TIP3    H117991   6.118   1.447   5.305  0.7045 -0.4707 -2.1429
 6016TIP3    H217992   6.010   1.350   5.349  0.5822  1.0955  1.2152
 6017TIP3   OH217993   6.784   0.079   2.172  0.0157 -0.2008 -0.3928
 6017TIP3    H117994   6.848   0.019   2.210 -0.2476 -3.7185 -4.9393
 6017TIP3    H217995   6.703   0.061   2.219  0.4523 -1.8951 -0.2528
 6018TIP3   OH217996   6.475   2.162   3.927  0.0537  0.3573  0.5215
 6018TIP3    H117997   6.557   2.180   3.974  0.4715  2.9248 -1.0667
 6018TIP3    H217998   6.494   2.082   3.878  0.6821 -0.5691  2.2198
 6019TIP3   OH217999   7.230   2.968   4.635  0.0604  0.0072 -0.3370
 6019TIP3    H118000   7.244   3.036   4.701  0.5987 -0.4767  0.0545
 6019TIP3    H218001   7.277   2.892   4.670  0.5261 -0.1851 -1.3898
 6020TIP3   OH218002   5.262   0.785   5.303  0.6993 -0.5404 -0.2641
 6020TIP3    H118003   5.249   0.793   5.208 -0.6802  1.0176  0.0175
 6020TIP3    H218004   5.351   0.819   5.318 -0.1103  1.8879 -0.7110
 6021TIP3   OH218005   6.700   1.014   2.027  0.4123 -0.2658  0.2079
 6021TIP3    H118006   6.620   1.010   1.975  1.2327  1.6818 -1.2812
 6021TIP3    H218007   6.731   0.923   2.031 -1.9176 -1.0700  0.9631
 6022TIP3   OH218008   4.023   7.468   6.095  0.5148  0.3971 -0.5915
 6022TIP3    H118009   4.116   7.463   6.116  1.1497  0.9013 -3.0646
 6022TIP3    H218010   4.013   7.553   6.054 -0.5568 -0.6183 -2.4877
 6023TIP3   OH218011   7.766   1.326   5.390 -0.3072 -0.0721 -0.5534
 6023TIP3    H118012   7.846   1.306   5.342 -0.0064 -1.2752  0.4293
 6023TIP3    H218013   7.757   1.254   5.453 -0.8898  1.2824  0.9461
 6024TIP3   OH218014   5.921   2.117   4.369 -0.2852 -0.3482 -0.3279
 6024TIP3    H118015   5.855   2.086   4.431  0.0426  0.4963  0.4663
 6024TIP3    H218016   5.998   2.063   4.388  0.0663  0.4476  0.5706
 6025TIP3   OH218017   7.615   0.907   2.916  0.3597 -0.4324 -0.0775
 6025TIP3    H118018   7.605   1.001   2.899  1.5844 -0.1133  0.9351
 6025TIP3    H218019   7.704   0.887   2.887  0.2875 -1.1664  0.2125
 6026TIP3   OH218020   7.158   1.709   2.962  0.1656 -0.0402 -0.2733
 6026TIP3    H118021   7.093   1.675   2.901  0.8492  1.8498 -2.1466
 6026TIP3    H218022   7.114   1.710   3.047 -1.9456  0.3867 -1.3440
 6027TIP3   OH218023   5.561  -0.006   5.240 -0.7014  0.1894  0.1480
 6027TIP3    H118024   5.487   0.036   5.282 -0.2606  0.7828  0.3345
 6027TIP3    H218025   5.629  -0.007   5.307 -0.6476 -0.6444  0.0837
 6028TIP3   OH218026   5.092   1.276   2.806  0.7860  0.0298 -0.5573
 6028TIP3    H118027   5.124   1.345   2.748 -0.5610  0.9850 -0.2063
 6028TIP3    H218028   5.019   1.237   2.759 -0.7073  1.2165  0.6976
 6029TIP3   OH218029   6.803   2.669   4.512 -0.4767 -0.4361  0.2497
 6029TIP3    H118030   6.859   2.741   4.483  0.4216 -1.4790 -0.6183
 6029TIP3    H218031   6.715   2.696   4.484 -0.2719  0.7107  0.6744
 6030TIP3   OH218032   7.148   0.715   5.798 -0.0356 -0.2642  0.3243
 6030TIP3    H118033   7.101   0.786   5.843  0.0126 -0.2665  0.3770
 6030TIP3    H218034   7.207   0.759   5.737 -0.1625 -0.2627  0.2023
 6031TIP3   OH218035   8.256   3.233   5.542 -0.0429 -0.4910  0.1519
 6031TIP3    H118036   8.234   3.233   5.635  2.1873  1.8391  0.7580
 6031TIP3    H218037   8.212   3.311   5.507  3.0754  1.4555  0.3706
 6032TIP3   OH218038   3.993   1.547   5.003 -0.0735 -0.6714 -0.1719
 6032TIP3    H118039   3.958   1.600   5.075  0.6598  1.3791 -1.2830
 6032TIP3    H218040   3.920   1.538   4.942  0.3267  0.7160 -0.8805
 6033TIP3   OH218041   0.447   0.646   2.254 -0.0212  0.4733 -0.2542
 6033TIP3    H118042   0.361   0.615   2.227  0.1268  1.4848 -1.9594
 6033TIP3    H218043   0.440   0.660   2.349 -1.4148 -0.4156 -0.2281
 6034TIP3   OH218044   6.318   3.483   4.176  0.9142 -0.3688  0.0864
 6034TIP3    H118045   6.336   3.392   4.155 -1.5531 -1.2739  1.6878
 6034TIP3    H218046   6.317   3.528   4.092 -0.4017 -2.2975 -0.9609
 6035TIP3   OH218047   6.483   2.591   4.591 -0.3942 -0.7949  0.2526
 6035TIP3    H118048   6.406   2.562   4.541 -0.5012 -0.4781  0.2335
 6035TIP3    H218049   6.522   2.509   4.623 -0.6867 -0.9642  0.1849
 6036TIP3   OH218050   6.000   2.424   4.743  0.0598 -0.0216 -0.1997
 6036TIP3    H118051   5.917   2.445   4.699  0.4804 -1.6013 -1.8347
 6036TIP3    H218052   6.013   2.495   4.806 -1.9895  0.8185 -0.6835
 6037TIP3   OH218053   5.272   2.567   3.097 -0.0185  0.1685  0.2273
 6037TIP3    H118054   5.322   2.520   3.031  0.1055  0.3653  0.1797
 6037TIP3    H218055   5.338   2.594   3.162  0.0500  1.0359 -0.1902
 6038TIP3   OH218056   0.215   1.568   2.872  0.3451  0.2880 -0.3990
 6038TIP3    H118057   0.289   1.588   2.929  0.1263  0.4829 -0.1772
 6038TIP3    H218058   0.211   1.641   2.811 -0.1068  0.6455  0.0508
 6039TIP3   OH218059   3.416   7.895   4.282  0.1513 -0.2194 -0.0989
 6039TIP3    H118060   3.364   7.828   4.239  1.4634 -1.2281 -0.1609
 6039TIP3    H218061   3.470   7.933   4.213  0.5387 -0.1790  0.2212
 6040TIP3   OH218062   7.618   1.643   3.571 -0.2691 -0.2052 -0.1314
 6040TIP3    H118063   7.538   1.689   3.543 -1.7788 -2.1510  0.8410
 6040TIP3    H218064   7.654   1.698   3.641 -1.2041  0.2806 -0.0212
 6041TIP3   OH218065   6.654   0.786   4.603 -0.3438 -0.2074 -0.9026
 6041TIP3    H118066   6.743   0.779   4.569 -0.6620 -1.9274 -1.4065
 6041TIP3    H218067   6.629   0.877   4.584  2.1929  1.0839  1.5317
 6042TIP3   OH218068   7.786   2.055   2.310 -0.0575 -0.2286  0.0846
 6042TIP3    H118069   7.712   2.115   2.313 -0.2285 -0.4123 -0.2766
 6042TIP3    H218070   7.746   1.969   2.294  0.3469 -0.0663 -1.9726
 6043TIP3   OH218071   6.746   2.238   3.034  0.4010  0.2000  0.0960
 6043TIP3    H118072   6.751   2.242   2.938 -0.8545 -2.1634 -0.1137
 6043TIP3    H218073   6.720   2.148   3.052 -0.0002  0.8053  2.6584
 6044TIP3   OH218074   7.425   1.117   5.661 -0.0961  0.7671  0.3260
 6044TIP3    H118075   7.418   1.107   5.756 -1.5554 -1.2951  0.0450
 6044TIP3    H218076   7.373   1.195   5.641  0.8190  1.6354  1.2858
 6045TIP3   OH218077   6.079   0.192   5.636 -0.6737 -0.1806 -0.6843
 6045TIP3    H118078   5.995   0.232   5.659 -0.3640 -0.8930  1.8548
 6045TIP3    H218079   6.104   0.143   5.715  2.7683  1.0827 -0.9119
 6046TIP3   OH218080   6.409   0.759   6.243 -0.4047  0.1200  0.2271
 6046TIP3    H118081   6.437   0.848   6.267 -1.2407  0.3205  0.4730
 6046TIP3    H218082   6.392   0.764   6.149  1.1658 -0.2166 -0.0976
 6047TIP3   OH218083   3.976   1.735   4.180  0.1798 -0.1394  0.0549
 6047TIP3    H118084   4.032   1.714   4.254 -0.5507 -0.9720  0.3709
 6047TIP3    H218085   3.992   1.828   4.164  0.3973  0.0272  1.1970
 6048TIP3   OH218086   2.876   7.309   5.459  0.1727  0.0621 -0.3842
 6048TIP3    H118087   2.956   7.289   5.508  0.1238  1.5562  0.3605
 6048TIP3    H218088   2.883   7.403   5.440 -0.6995 -0.1095 -1.6258
 6049TIP3   OH218089   6.168   0.203   4.831  0.1965  0.3753  0.7641
 6049TIP3    H118090   6.197   0.265   4.764  0.5684 -0.0404  0.5448
 6049TIP3    H218091   6.077   0.184   4.808  0.2254  0.4793  0.5628
 6050TIP3   OH218092   7.113   2.717   3.935  0.2648 -0.0801 -0.2246
 6050TIP3    H118093   7.090   2.643   3.878  0.0728  0.3395 -0.6957
 6050TIP3    H218094   7.029   2.749   3.967  0.3815 -0.3979  0.4073
 6051TIP3   OH218095   6.375   0.752   5.967  0.0819  0.7138 -0.1047
 6051TIP3    H118096   6.448   0.814   5.964 -0.4439  1.2589 -2.7323
 6051TIP3    H218097   6.370   0.717   5.877 -1.9339 -0.4280  0.4355
 6052TIP3   OH218098   5.570   0.819   3.457  0.0786  0.3331  0.3421
 6052TIP3    H118099   5.654   0.808   3.501  1.3821  1.2737 -1.8141
 6052TIP3    H218100   5.513   0.859   3.522  0.8999 -1.5034  2.2448
 6053TIP3   OH218101   6.962   1.519   4.373 -0.4364  0.0872  0.0968
 6053TIP3    H118102   6.902   1.559   4.310  0.2653 -0.3604 -0.8636
 6053TIP3    H218103   7.046   1.561   4.357 -0.8269  1.9330  2.5761
 6054TIP3   OH218104   3.479   1.216   3.666 -0.4516  0.0274 -0.1434
 6054TIP3    H118105   3.411   1.173   3.615 -0.1569 -0.3217 -0.2439
 6054TIP3    H218106   3.549   1.233   3.603 -0.8115  1.2123 -0.2444
 6055TIP3   OH218107   7.385   2.071   1.819  0.5896  0.1477 -0.3962
 6055TIP3    H118108   7.312   2.013   1.842 -0.4745  1.7899  0.4175
 6055TIP3    H218109   7.415   2.106   1.902  1.3775  0.6022 -0.8704
 6056TIP3   OH218110   7.313   1.365   2.644  0.0888 -0.3363 -0.5384
 6056TIP3    H118111   7.289   1.286   2.692 -1.2823  0.7973  0.7446
 6056TIP3    H218112   7.403   1.351   2.617 -0.3794 -2.6422 -0.9958
 6057TIP3   OH218113   6.440   3.157   3.353 -0.0271  0.3079 -0.1914
 6057TIP3    H118114   6.383   3.094   3.397 -0.1046  0.4648 -0.0643
 6057TIP3    H218115   6.422   3.145   3.260 -1.0052  1.0501 -0.1098
 6058TIP3   OH218116   7.551   0.087   3.798  0.2879  0.6113 -0.2683
 6058TIP3    H118117   7.525   0.172   3.762  3.6325  2.5416  1.6321
 6058TIP3    H218118   7.624   0.059   3.743 -0.9750 -1.2222 -1.0608
 6059TIP3   OH218119   6.124   0.589   6.031  0.3840  0.0403 -0.3101
 6059TIP3    H118120   6.124   0.679   6.063  1.5067  0.1501 -0.6120
 6059TIP3    H218121   6.216   0.565   6.027  0.0963 -1.0696 -0.3862
 6060TIP3   OH218122   5.802   0.192   3.656 -0.5102  0.0678 -0.0907
 6060TIP3    H118123   5.834   0.171   3.568 -2.4834 -2.0346 -0.3379
 6060TIP3    H218124   5.865   0.150   3.715 -0.0975  0.1041 -0.5052
 6061TIP3   OH218125   4.299   7.484   3.956 -0.5820 -0.5425  0.0370
 6061TIP3    H118126   4.272   7.393   3.967 -2.0599  0.0688  1.5621
 6061TIP3    H218127   4.378   7.478   3.903  0.3827 -2.8590  1.6098
 6062TIP3   OH218128   6.778  -0.026   4.520 -0.2389 -0.0798 -0.1459
 6062TIP3    H118129   6.741   0.060   4.497  0.3208 -0.1430 -1.2668
 6062TIP3    H218130   6.803  -0.017   4.612  2.2043  1.8051 -0.9466
 6063TIP3   OH218131   8.164   0.937   3.461  0.1033  0.1039  0.3425
 6063TIP3    H118132   8.131   0.857   3.419 -0.4044  0.9497 -0.8965
 6063TIP3    H218133   8.176   0.913   3.553  1.2882 -1.8163 -0.2804
 6064TIP3   OH218134   8.301   1.164   3.378  0.1876 -0.2511  0.1988
 6064TIP3    H118135   8.277   1.078   3.412  2.6894 -1.4136 -0.8452
 6064TIP3    H218136   8.333   1.148   3.289  0.5044  1.7666 -0.0863
 6065TIP3   OH218137   8.022   3.557   5.608  0.0701 -0.2415  0.0750
 6065TIP3    H118138   8.112   3.591   5.600 -0.4648  0.6663 -2.7055
 6065TIP3    H218139   8.023   3.476   5.557 -0.8555  0.1813 -0.6446
 6066TIP3   OH218140   7.942   1.213   0.738 -0.2301  0.2443 -0.0850
 6066TIP3    H118141   7.977   1.152   0.674 -1.3552 -0.8547  0.3271
 6066TIP3    H218142   8.015   1.229   0.799  0.5406  0.5512 -1.0707
 6067TIP3   OH218143   0.812   0.112   3.157 -0.0272 -0.3978  0.6019
 6067TIP3    H118144   0.719   0.099   3.137  0.4291 -1.8041 -0.7021
 6067TIP3    H218145   0.815   0.121   3.253 -1.4076 -1.3266  0.7466
 6068TIP3   OH218146   4.131   1.560   3.160 -0.4041 -0.4300 -0.7140
 6068TIP3    H118147   4.054   1.503   3.159 -0.3492 -0.4996 -0.9714
 6068TIP3    H218148   4.205   1.500   3.168 -0.4654 -0.2733  1.2130
 6069TIP3   OH218149   6.575   0.720   3.529  0.2662 -0.0611 -0.4565
 6069TIP3    H118150   6.647   0.698   3.470 -0.1109 -0.5865 -0.7152
 6069TIP3    H218151   6.549   0.809   3.502  1.2051  0.3705  0.0283
 6070TIP3   OH218152   7.534   0.077   4.896 -0.6944 -0.3596  0.9830
 6070TIP3    H118153   7.458   0.066   4.839 -0.0930 -0.4004  0.1892
 6070TIP3    H218154   7.544  -0.008   4.939 -0.9411 -0.4359  0.8911
 6071TIP3   OH218155   7.650   1.727   4.871 -0.1755 -0.0553  0.2839
 6071TIP3    H118156   7.714   1.798   4.867  1.2975 -1.3615  0.1657
 6071TIP3    H218157   7.609   1.736   4.957 -1.6014  2.2709 -0.5890
 6072TIP3   OH218158   3.477   7.788   4.991  0.0667 -0.4894 -0.3023
 6072TIP3    H118159   3.399   7.797   4.936 -0.3052  1.8598  0.5343
 6072TIP3    H218160   3.513   7.876   4.997 -0.2522 -0.5241  3.6718
 6073TIP3   OH218161   8.096   1.086   2.872  0.5186 -0.2188 -0.5337
 6073TIP3    H118162   8.047   1.043   2.942 -0.2621  0.7954 -0.4354
 6073TIP3    H218163   8.185   1.054   2.881  0.1459 -1.0827  0.1192
 6074TIP3   OH218164   7.029   1.761   2.136  0.2285  0.4237 -0.8064
 6074TIP3    H118165   6.971   1.790   2.207  0.2985  0.6298 -0.8314
 6074TIP3    H218166   7.006   1.669   2.122  0.0632  0.4425 -0.6639
 6075TIP3   OH218167   7.382   2.048   3.387 -0.0948  0.1427  0.3911
 6075TIP3    H118168   7.330   2.078   3.462 -0.8912  0.3019 -0.2109
 6075TIP3    H218169   7.317   2.024   3.321  0.5973  1.9418 -1.0042
 6076TIP3   OH218170   7.313   0.841   3.725  0.1433 -0.4449  0.3317
 6076TIP3    H118171   7.357   0.895   3.658 -1.2932 -0.6811 -0.8330
 6076TIP3    H218172   7.380   0.827   3.792  0.7384  2.2796  0.3811
 6077TIP3   OH218173   6.023   6.296   3.467 -0.3651  0.1878 -0.0147
 6077TIP3    H118174   5.945   6.254   3.503 -0.2589 -1.5940 -1.7840
 6077TIP3    H218175   6.094   6.268   3.525 -0.8616  0.9883  0.9999
 6078TIP3   OH218176   6.847   1.609   4.126  0.1290 -0.1614  0.9703
 6078TIP3    H118177   6.860   1.520   4.092  2.7334  0.1507  1.0515
 6078TIP3    H218178   6.879   1.666   4.056 -0.6883  0.6932  1.2870
 6079TIP3   OH218179   5.461   7.110   0.043 -0.6661 -0.0926 -0.2397
 6079TIP3    H118180   5.400   7.149   0.105 -1.2942 -0.5462 -0.5635
 6079TIP3    H218181   5.517   7.053   0.096 -0.5342  0.3121  0.0560
 6080TIP3   OH218182   5.431   3.095   3.887 -0.2110  0.2902  0.3646
 6080TIP3    H118183   5.497   3.131   3.828  0.2327 -0.3323  0.4650
 6080TIP3    H218184   5.466   3.110   3.975 -0.4402  0.4021  0.4384
 6081TIP3   OH218185   5.357   1.121   4.995 -0.0959  0.0059 -0.0694
 6081TIP3    H118186   5.433   1.088   4.947 -0.2412 -1.7335  0.8929
 6081TIP3    H218187   5.328   1.048   5.049 -1.6848  1.0551  0.5405
 6082TIP3   OH218188   6.219   1.285   3.558  0.5568 -0.2534  0.0411
 6082TIP3    H118189   6.134   1.265   3.598  0.9349 -0.6677  0.6566
 6082TIP3    H218190   6.276   1.215   3.589  1.3677  0.5829  0.4589
 6083TIP3   OH218191   5.633   0.919   5.194  0.1750 -0.0372 -0.2063
 6083TIP3    H118192   5.702   0.984   5.209  0.6235 -0.1643 -1.6366
 6083TIP3    H218193   5.557   0.954   5.241  1.3733 -0.2174  1.9428
 6084TIP3   OH218194   6.533   1.321   4.081  0.3409  0.6813 -0.4862
 6084TIP3    H118195   6.618   1.365   4.073  1.1519 -0.8855 -0.5694
 6084TIP3    H218196   6.554   1.230   4.099 -1.3376  0.4790  0.6189
 6085TIP3   OH218197   7.020   0.274   4.317 -0.3153  0.0620 -0.2424
 6085TIP3    H118198   7.023   0.337   4.390  0.1133  0.1132 -0.3014
 6085TIP3    H218199   6.948   0.305   4.262  1.5497  2.0665 -1.6617
 6086TIP3   OH218200   0.307   2.207   4.680  0.5423  0.3781  0.1284
 6086TIP3    H118201   0.239   2.242   4.738 -0.0277  0.5234 -0.6255
 6086TIP3    H218202   0.386   2.257   4.703  0.3873  0.2493  0.9625
 6087TIP3   OH218203   8.168   1.654   2.805  0.2164 -0.0210  0.6046
 6087TIP3    H118204   8.179   1.749   2.815  0.8871  0.1826 -1.7086
 6087TIP3    H218205   8.101   1.645   2.737  1.1289 -1.2003 -0.1566
 6088TIP3   OH218206   1.456   7.715   5.103  0.2507  0.1002  0.3278
 6088TIP3    H118207   1.383   7.654   5.086  1.6444 -1.6598  0.5304
 6088TIP3    H218208   1.453   7.731   5.197  0.5638 -0.5789  0.4614
 6089TIP3   OH218209   7.419   3.230   4.076  0.4719 -0.2909 -0.4226
 6089TIP3    H118210   7.436   3.209   3.984  0.8172 -2.2049  0.0683
 6089TIP3    H218211   7.327   3.258   4.077  0.1812 -1.1916 -1.1851
 6090TIP3   OH218212   6.326   3.211   4.145 -0.1086  0.0855  0.6627
 6090TIP3    H118213   6.391   3.172   4.086 -0.3383 -1.8049  1.6238
 6090TIP3    H218214   6.242   3.191   4.105 -0.2048  0.1954  0.8070
 6091TIP3   OH218215   7.323   2.432   4.232  0.3688 -0.1814  0.2249
 6091TIP3    H118216   7.401   2.468   4.191 -1.1919  1.2012 -1.5785
 6091TIP3    H218217   7.281   2.507   4.275 -1.0996 -0.4590 -0.6759
 6092TIP3   OH218218   5.296   2.984   5.632 -0.0074 -0.4829  0.0632
 6092TIP3    H118219   5.309   3.071   5.669  1.3820 -0.0932 -1.2739
 6092TIP3    H218220   5.351   2.927   5.686  1.0757 -0.1090 -0.6218
 6093TIP3   OH218221   6.241   2.670   2.714  0.2490  0.0209 -0.0360
 6093TIP3    H118222   6.171   2.694   2.654 -0.6421  0.0055  0.9861
 6093TIP3    H218223   6.272   2.585   2.682 -0.4429 -0.1443 -0.2735
 6094TIP3   OH218224   7.577   2.556   4.131 -0.1749 -0.3749 -0.4268
 6094TIP3    H118225   7.671   2.555   4.149  0.3904 -1.6299 -3.1591
 6094TIP3    H218226   7.562   2.640   4.086 -0.3012 -0.3218 -0.2852
 6095TIP3   OH218227   7.531   1.396   4.064  0.5774 -0.0644  0.0603
 6095TIP3    H118228   7.586   1.445   4.004 -0.9539  1.3781 -0.2002
 6095TIP3    H218229   7.445   1.395   4.022  0.0668 -1.1157  1.0994
 6096TIP3   OH218230   6.408   0.482   6.140 -0.4869 -0.3064 -0.1491
 6096TIP3    H118231   6.434   0.567   6.174 -0.3426 -0.3492 -0.1524
 6096TIP3    H218232   6.344   0.449   6.203  0.2746 -0.6798  0.4414
 6097TIP3   OH218233   8.060   1.470   3.706  0.0740  0.2288 -0.2846
 6097TIP3    H118234   7.997   1.537   3.733 -1.8689 -1.3037 -0.9300
 6097TIP3    H218235   8.088   1.498   3.618 -0.3771  0.4358 -0.3631
 6098TIP3   OH218236   6.617   0.874   2.998  0.1068 -0.7033 -0.2232
 6098TIP3    H118237   6.587   0.961   2.973 -0.0232 -0.7422 -0.2034
 6098TIP3    H218238   6.539   0.819   2.992 -0.0430 -0.6052  0.7508
 6099TIP3   OH218239   7.327   1.015   3.073  0.2879  0.4070  0.0680
 6099TIP3    H118240   7.380   1.095   3.073  1.0904 -0.0910  2.0858
 6099TIP3    H218241   7.390   0.944   3.064 -0.2815 -0.0855 -0.1127
 6100TIP3   OH218242   7.973   1.912   2.091 -0.2156 -0.1226  0.3980
 6100TIP3    H118243   8.023   1.993   2.087 -0.0330 -0.0862  2.7418
 6100TIP3    H218244   7.914   1.924   2.166 -2.3620 -0.9290 -1.1168
 6101TIP3   OH218245   7.177   0.284   6.097 -0.2346 -1.1043  0.4751
 6101TIP3    H118246   7.234   0.319   6.166  1.6581 -0.1249 -1.5329
 6101TIP3    H218247   7.098   0.339   6.101 -0.4665 -1.5254  2.3040
 6102TIP3   OH218248   3.538   7.206   5.439  0.3506 -0.1806  0.2199
 6102TIP3    H118249   3.523   7.127   5.388  1.9435 -0.1916 -0.2521
 6102TIP3    H218250   3.458   7.217   5.491 -0.6395 -1.0408 -1.1055
 6103TIP3   OH218251   6.561   2.871   2.905  0.5910  0.0055 -0.1867
 6103TIP3    H118252   6.515   2.937   2.853  0.1902  1.7615  2.2742
 6103TIP3    H218253   6.654   2.888   2.888  0.4947  1.3016  0.4983
 6104TIP3   OH218254   4.021   7.847   4.045 -0.2365 -0.4525 -0.4639
 6104TIP3    H118255   4.000   7.853   4.138 -1.6944 -0.5530 -0.7822
 6104TIP3    H218256   4.018   7.753   4.025 -1.2759 -0.3325 -0.9102
 6105TIP3   OH218257   5.448   1.403   5.568 -0.1580  0.1452  0.2492
 6105TIP3    H118258   5.360   1.439   5.559 -0.7749 -1.7520 -1.9783
 6105TIP3    H218259   5.500   1.474   5.604 -2.3764  1.6206  0.6312
 6106TIP3   OH218260   7.748   0.141   2.925  0.0995  0.0207 -0.2577
 6106TIP3    H118261   7.653   0.136   2.918  0.0857  0.0030 -0.0637
 6106TIP3    H218262   7.764   0.192   3.004  0.2445 -1.8664  0.9741
 6107TIP3   OH218263   6.591   0.458   4.458  0.0792 -0.1882 -0.3258
 6107TIP3    H118264   6.539   0.536   4.476  0.9823  0.5304 -0.7462
 6107TIP3    H218265   6.648   0.484   4.385  1.7902 -0.5724  0.8288
 6108TIP3   OH218266   6.379   1.279   5.296 -0.0295  0.0756  0.4973
 6108TIP3    H118267   6.293   1.301   5.260 -0.6772 -0.4845  1.6290
 6108TIP3    H218268   6.424   1.363   5.306 -1.7937  0.7894  3.1420
 6109TIP3   OH218269   6.701   2.641   3.957  0.3097  0.0925 -0.2873
 6109TIP3    H118270   6.627   2.692   3.924  1.0398  2.5769  1.7484
 6109TIP3    H218271   6.668   2.600   4.037  0.8025  0.2221 -0.0196
 6110TIP3   OH218272   6.262   0.570   3.764 -0.0192  0.3539  0.7539
 6110TIP3    H118273   6.179   0.536   3.799 -0.3915  1.4781  0.9902
 6110TIP3    H218274   6.300   0.620   3.837  1.5160 -1.2565  1.0771
 6111TIP3   OH218275   5.659   1.959   4.905  0.0643 -0.2635  0.5779
 6111TIP3    H118276   5.658   1.871   4.868 -1.7320  0.3263 -0.9006
 6111TIP3    H218277   5.739   1.999   4.870  0.1714 -0.8658  0.1228
 6112TIP3   OH218278   6.532   1.868   5.365  0.3009  0.0011 -0.0624
 6112TIP3    H118279   6.530   1.921   5.445  1.2427  0.9573 -0.6578
 6112TIP3    H218280   6.442   1.838   5.354  0.1874 -0.2079  1.4000
 6113TIP3   OH218281   1.619   6.237   0.051  0.3900  0.2999 -0.4842
 6113TIP3    H118282   1.623   6.253  -0.043  0.3527 -0.0421 -0.5418
 6113TIP3    H218283   1.541   6.285   0.080 -1.7229 -2.5507 -1.2108
 6114TIP3   OH218284   4.705   0.139   4.404 -0.0579  0.4589 -0.2525
 6114TIP3    H118285   4.791   0.144   4.362  1.4528 -0.5286  2.5788
 6114TIP3    H218286   4.678   0.048   4.392 -1.2367  1.0197 -2.0575
 6115TIP3   OH218287   4.426   1.846   4.093 -0.0700 -0.4970 -0.5620
 6115TIP3    H118288   4.383   1.769   4.056  0.5411 -0.0211 -2.2941
 6115TIP3    H218289   4.507   1.812   4.132  0.5462 -0.6551 -1.9403
 6116TIP3   OH218290   5.137   2.995   4.149  0.4990  0.4453 -0.7830
 6116TIP3    H118291   5.122   2.942   4.071 -1.3670  0.7993 -0.6799
 6116TIP3    H218292   5.110   2.940   4.222  1.2264  0.5146 -0.4494
 6117TIP3   OH218293   7.022   0.770   3.074  0.6699 -0.2137 -0.9001
 6117TIP3    H118294   6.937   0.813   3.068  0.1649 -1.2912 -1.5399
 6117TIP3    H218295   7.045   0.777   3.167 -1.0686 -1.7196 -0.3383
 6118TIP3   OH218296   1.099   1.156   3.480  0.0435 -0.3428  0.6819
 6118TIP3    H118297   1.082   1.084   3.420  3.5320  0.6926 -1.7241
 6118TIP3    H218298   1.037   1.224   3.454 -0.7379 -1.1082  0.5100
 6119TIP3   OH218299   7.459   1.902   4.570  0.1369 -0.1721 -0.2736
 6119TIP3    H118300   7.415   1.873   4.490  1.2771 -2.2085 -0.1894
 6119TIP3    H218301   7.449   1.828   4.630  1.3240  0.4230  0.6564
 6120TIP3   OH218302   4.115   7.247   4.216  0.1342  0.0603  0.0694
 6120TIP3    H118303   4.197   7.249   4.167 -0.0868 -0.4249 -0.3261
 6120TIP3    H218304   4.070   7.169   4.184  0.3395 -0.7064  1.6224
 6121TIP3   OH218305   0.770   0.244   4.863  0.1914 -0.1266  0.4355
 6121TIP3    H118306   0.865   0.253   4.868  0.0390  1.0651  1.2755
 6121TIP3    H218307   0.738   0.329   4.834 -0.6614 -0.3388  0.7167
 6122TIP3   OH218308   0.347   1.000   3.674  0.1129  0.0438 -0.3973
 6122TIP3    H118309   0.376   0.921   3.628  1.3950  0.3339 -0.0885
 6122TIP3    H218310   0.256   1.012   3.645  0.1131 -1.1796 -0.9347
 6123TIP3   OH218311   6.606   1.317   2.306 -0.9471 -0.2223 -0.3120
 6123TIP3    H118312   6.532   1.256   2.299 -0.3277 -0.9299 -0.7076
 6123TIP3    H218313   6.635   1.307   2.397  1.1095 -2.8310 -1.1948
 6124TIP3   OH218314   8.427   2.045   4.572 -0.0588  0.2049  0.2457
 6124TIP3    H118315   8.358   2.100   4.610  0.4961 -0.3773  2.1651
 6124TIP3    H218316   8.388   1.957   4.570  0.6311 -0.1439  1.4291
 6125TIP3   OH218317   6.875   1.269   4.452 -0.4788  0.6866  0.1127
 6125TIP3    H118318   6.946   1.330   4.430 -0.5506  0.2194 -1.4500
 6125TIP3    H218319   6.920   1.192   4.488 -0.3170  1.1624  0.9432
 6126TIP3   OH218320   4.910   7.627   3.849 -0.1480  0.0120  0.3564
 6126TIP3    H118321   4.872   7.700   3.899  0.8772  0.7197  0.1131
 6126TIP3    H218322   4.853   7.553   3.868 -1.7943  1.1103 -0.1659
 6127TIP3   OH218323   6.022   0.629   5.049 -0.0375  0.1914  0.4208
 6127TIP3    H118324   6.059   0.551   5.090 -0.1865 -0.1877 -0.1633
 6127TIP3    H218325   6.088   0.697   5.061  1.2973 -0.7407 -1.5315
 6128TIP3   OH218326   0.478   1.114   5.630  0.3560 -0.0522  0.0922
 6128TIP3    H118327   0.469   1.204   5.600  0.0113 -0.3190 -0.6236
 6128TIP3    H218328   0.538   1.074   5.567  0.3540 -0.3765  0.2933
 6129TIP3   OH218329   7.289   2.236   3.594  0.1808  0.1282 -0.1164
 6129TIP3    H118330   7.253   2.219   3.681 -0.3447 -1.6238 -0.6551
 6129TIP3    H218331   7.212   2.247   3.538  0.4289 -3.4530 -1.2434
 6130TIP3   OH218332   0.221   0.314   2.937  0.0551 -0.1937  0.2183
 6130TIP3    H118333   0.271   0.285   2.861  1.3736 -0.2626  1.0985
 6130TIP3    H218334   0.196   0.404   2.916  0.9572  0.0043 -0.0198
 6131TIP3   OH218335   8.015   1.651   2.559 -0.3238 -0.3420 -0.3124
 6131TIP3    H118336   8.074   1.715   2.519 -1.5753  0.7109 -0.5236
 6131TIP3    H218337   8.004   1.584   2.492  0.4208 -0.4145 -0.3670
 6132TIP3   OH218338   0.144   0.102   4.864 -0.1588 -0.2789 -0.5128
 6132TIP3    H118339   0.123   0.181   4.913  0.9729  1.0968 -2.2008
 6132TIP3    H218340   0.212   0.129   4.803  1.1246 -2.8480 -0.2833
 6133TIP3   OH218341   3.054   7.640   3.095 -0.0035  0.5615 -0.2604
 6133TIP3    H118342   3.141   7.620   3.060  0.8823  1.3625  1.3992
 6133TIP3    H218343   3.034   7.564   3.150 -1.2097 -0.5052 -2.1312
 6134TIP3   OH218344   5.155   7.086   5.431  0.1623  0.4042  0.5030
 6134TIP3    H118345   5.187   7.008   5.476  0.5093  0.2758  0.0346
 6134TIP3    H218346   5.228   7.148   5.435 -0.3727  0.9633  1.5086
 6135TIP3   OH218347   7.494   1.162   4.232  0.0198  0.1845  0.3098
 6135TIP3    H118348   7.541   1.158   4.315  0.2753  0.1100  0.1619
 6135TIP3    H218349   7.538   1.231   4.183 -0.0911  0.1851  0.2102
 6136TIP3   OH218350   5.626   0.563   3.301  0.4480 -0.1136  0.3968
 6136TIP3    H118351   5.621   0.628   3.371  0.6991 -0.8586  1.1305
 6136TIP3    H218352   5.615   0.612   3.220 -0.4415  0.6859  0.9982
 6137TIP3   OH218353   1.694   7.682   4.195 -0.2975 -0.2421 -0.0033
 6137TIP3    H118354   1.758   7.684   4.123 -0.1146  0.1614  0.1672
 6137TIP3    H218355   1.725   7.612   4.253  1.1156  1.2512  1.0959
 6138TIP3   OH218356   7.442   2.092   2.960 -0.6586 -0.3364 -0.2833
 6138TIP3    H118357   7.411   2.183   2.966  1.2016  0.3969 -1.2866
 6138TIP3    H218358   7.390   2.045   3.026 -0.7738  1.7046  1.1507
 6139TIP3   OH218359   7.380   2.962   4.928 -0.8170  0.1343  0.2646
 6139TIP3    H118360   7.293   2.974   4.966 -1.2478 -0.6933 -0.4580
 6139TIP3    H218361   7.389   2.868   4.918  0.3231  0.2003  0.7032
 6140TIP3   OH218362   6.220   4.048   1.782  0.3415 -0.0138 -0.1066
 6140TIP3    H118363   6.207   3.954   1.765  0.4082  0.3971 -2.6237
 6140TIP3    H218364   6.260   4.051   1.869  2.1758 -2.4574 -0.7836
 6141TIP3   OH218365   6.172   0.928   1.346 -0.4037 -0.6500 -0.1811
 6141TIP3    H118366   6.221   0.957   1.270 -0.6207  2.0643  0.6642
 6141TIP3    H218367   6.088   0.897   1.311  1.1585 -3.6617 -1.4445
 6142TIP3   OH218368   7.887   0.870   4.279  0.1660 -0.3677  0.0494
 6142TIP3    H118369   7.831   0.947   4.291 -0.5735 -0.7733 -0.7730
 6142TIP3    H218370   7.826   0.797   4.270  0.8731 -1.2200  1.8149
 6143TIP3   OH218371   0.686   2.450   6.636 -0.0304  0.1228 -0.2362
 6143TIP3    H118372   0.671   2.467   6.542  0.8709  0.2720 -0.3518
 6143TIP3    H218373   0.758   2.388   6.637  0.6536  0.9340  0.4063
 6144TIP3   OH218374   0.092   2.809   3.351 -0.4625 -0.4537  0.4241
 6144TIP3    H118375   0.165   2.835   3.406  1.1860  0.9683 -2.3226
 6144TIP3    H218376   0.048   2.891   3.328 -0.4505 -0.8893 -1.2425
 6145TIP3   OH218377   3.788   7.667   3.495  0.0072  0.8047 -0.2082
 6145TIP3    H118378   3.741   7.639   3.574  0.2762 -2.2183 -1.0643
 6145TIP3    H218379   3.880   7.648   3.514 -0.1223 -1.8509 -1.9467
 6146TIP3   OH218380   5.562   2.953   2.359  0.2027  0.3734 -0.2070
 6146TIP3    H118381   5.639   3.006   2.344  0.4107  0.0521 -0.2863
 6146TIP3    H218382   5.523   2.989   2.439  1.0884 -0.2140  0.5040
 6147TIP3   OH218383   6.690   2.003   2.234 -0.0171 -0.3135 -0.0242
 6147TIP3    H118384   6.662   2.034   2.320  0.0846 -2.5622  0.8698
 6147TIP3    H218385   6.609   1.976   2.190 -0.2424  2.2558 -1.2738
 6148TIP3   OH218386   6.072   0.140   3.754 -0.2825 -0.0849  0.7520
 6148TIP3    H118387   6.166   0.155   3.741  0.0074 -2.4153 -0.2489
 6148TIP3    H218388   6.063   0.125   3.848  0.4394 -0.3149  0.7922
 6149TIP3   OH218389   7.841   2.635   4.193  0.1258  0.2865  0.4997
 6149TIP3    H118390   7.899   2.577   4.243  0.3670  0.9967  1.0405
 6149TIP3    H218391   7.821   2.707   4.253 -1.4723 -0.0320  0.3962
 6150TIP3   OH218392   4.030   7.614   2.347 -0.3346  0.2458 -0.2301
 6150TIP3    H118393   4.119   7.640   2.371 -1.7048  2.6839  2.4429
 6150TIP3    H218394   4.008   7.543   2.407 -0.8018  0.8277  0.2971
 6151TIP3   OH218395   6.585   1.678   4.050  0.3230  0.2191 -0.2371
 6151TIP3    H118396   6.630   1.755   4.015  0.8251  0.0300 -0.0174
 6151TIP3    H218397   6.652   1.632   4.101 -0.0996 -0.1080  0.0325
 6152TIP3   OH218398   7.783   1.463   3.406  0.3467 -0.0841 -0.0595
 6152TIP3    H118399   7.745   1.537   3.454 -0.1007 -0.6452  0.4652
 6152TIP3    H218400   7.876   1.485   3.398  0.2000  0.5670  0.0349
 6153TIP3   OH218401   0.860   0.562   1.992  0.0400 -0.2637  0.0433
 6153TIP3    H118402   0.842   0.481   1.945  0.3707  0.1322 -0.7838
 6153TIP3    H218403   0.798   0.562   2.065 -0.3434 -0.9801 -0.2754
 6154TIP3   OH218404   8.143   0.749   1.158  0.1784 -0.3528  0.2912
 6154TIP3    H118405   8.202   0.676   1.174  0.9762  0.3575  0.6306
 6154TIP3    H218406   8.093   0.723   1.081  0.8243 -1.0300  0.0942
 6155TIP3   OH218407   7.430   2.714   3.579 -0.7903 -0.5220 -0.2767
 6155TIP3    H118408   7.464   2.802   3.592  0.4336 -0.9748 -0.2645
 6155TIP3    H218409   7.345   2.726   3.538 -0.5257  0.6606 -0.4838
 6156TIP3   OH218410   6.746   1.666   4.999  0.1034  0.4014  0.0381
 6156TIP3    H118411   6.806   1.622   5.059 -0.0236  0.0877 -0.0627
 6156TIP3    H218412   6.802   1.697   4.927 -0.1050 -1.5447 -1.0037
 6157TIP3   OH218413   7.848   2.542   5.840 -0.8713  0.8360  0.2928
 6157TIP3    H118414   7.763   2.526   5.882 -1.2687  0.6143 -0.5939
 6157TIP3    H218415   7.826   2.593   5.762 -0.2863 -0.0759 -0.4687
 6158TIP3   OH218416   1.929   1.316   3.825 -0.1446  0.2223  0.3167
 6158TIP3    H118417   1.970   1.230   3.837  0.0528 -0.0778 -2.2371
 6158TIP3    H218418   1.953   1.365   3.903  2.1293 -1.1103  0.4995
 6159TIP3   OH218419   0.056   2.543   2.235  0.2094  0.0250 -0.1337
 6159TIP3    H118420   0.151   2.535   2.223  0.2859 -0.1460  0.5708
 6159TIP3    H218421   0.019   2.481   2.173  0.6275 -1.4569  1.0738
 6160TIP3   OH218422   6.537   7.807   4.354  0.0520 -0.4142  0.1729
 6160TIP3    H118423   6.447   7.799   4.385 -0.1018 -0.5498 -0.3098
 6160TIP3    H218424   6.575   7.720   4.369 -0.4159 -0.8691 -1.2623
 6161TIP3   OH218425   7.730   2.648   4.681  0.2751  0.3449  0.2689
 6161TIP3    H118426   7.748   2.739   4.705  1.6857  0.3005 -0.5522
 6161TIP3    H218427   7.709   2.651   4.588 -0.6289 -0.0491  0.4587
 6162TIP3   OH218428   8.447   1.818   2.374 -0.0646 -0.0763  0.0108
 6162TIP3    H118429   8.466   1.758   2.302  0.2928 -1.0851  0.9174
 6162TIP3    H218430   8.505   1.893   2.360 -1.3931  0.6313 -1.8153
 6163TIP3   OH218431   0.439   3.212   3.440  0.6559  0.0452 -0.3441
 6163TIP3    H118432   0.422   3.232   3.348  0.4910 -0.3129 -0.3930
 6163TIP3    H218433   0.471   3.294   3.477  1.2399  0.0533 -0.8482
 6164TIP3   OH218434   7.555   1.387   2.538  0.2139 -0.8844  0.0219
 6164TIP3    H118435   7.562   1.466   2.592  3.1399  0.1793 -1.7481
 6164TIP3    H218436   7.635   1.338   2.556  1.0680 -0.7047 -2.9051
 6165TIP3   OH218437   5.085   7.833   4.084  0.6767 -0.3303 -0.5830
 6165TIP3    H118438   5.047   7.919   4.066 -0.3755 -1.0406 -1.8290
 6165TIP3    H218439   5.046   7.805   4.166  2.6619  1.3076  0.9627
 6166TIP3   OH218440   8.283   0.920   4.137  0.7951 -0.2811 -0.3828
 6166TIP3    H118441   8.197   0.948   4.105 -0.3414 -1.4181  1.5853
 6166TIP3    H218442   8.272   0.827   4.158  1.8822  0.0378  1.8219
 6167TIP3   OH218443   6.644   0.326   2.885 -0.2308 -0.0854  0.1594
 6167TIP3    H118444   6.692   0.308   2.966 -1.7481  0.0851  1.1135
 6167TIP3    H218445   6.674   0.259   2.824  1.7830  0.4792  0.4881
 6168TIP3   OH218446   0.135   3.134   3.490  0.0608  0.6309  0.0777
 6168TIP3    H118447   0.082   3.072   3.539 -0.5603  1.0940  0.0059
 6168TIP3    H218448   0.202   3.163   3.553  0.6252 -0.4298 -0.0255
 6169TIP3   OH218449   0.800   0.979   3.505  0.0083 -0.1644 -0.0106
 6169TIP3    H118450   0.876   0.982   3.447 -0.6644  1.5941 -0.8364
 6169TIP3    H218451   0.747   0.906   3.473 -1.0783  1.6967 -2.5769
 6170TIP3   OH218452   5.182   7.014   3.223 -0.0208  0.1065 -0.1040
 6170TIP3    H118453   5.164   6.922   3.242 -1.2497 -0.1534 -2.3126
 6170TIP3    H218454   5.187   7.056   3.309 -0.4974 -1.8259  0.8935
 6171TIP3   OH218455   0.413   0.194   4.072  0.8501  0.1527 -0.2333
 6171TIP3    H118456   0.408   0.174   4.165 -0.6141 -0.0929 -0.3580
 6171TIP3    H218457   0.456   0.118   4.033 -0.5277 -0.7410 -0.0551
 6172TIP3   OH218458   7.119   3.067   3.620 -0.6972  0.3688 -0.2098
 6172TIP3    H118459   7.088   3.156   3.637  0.4468  0.5937  0.7963
 6172TIP3    H218460   7.204   3.079   3.578 -0.1939 -0.2484  0.6171
 6173TIP3   OH218461   7.498   0.682   5.437  0.3602 -0.5729 -0.4536
 6173TIP3    H118462   7.494   0.776   5.420 -1.6857 -0.3498  1.1396
 6173TIP3    H218463   7.592   0.662   5.436  0.9359  1.8325  0.9788
 6174TIP3   OH218464   6.569   0.495   2.660 -0.1627 -0.4179 -0.3993
 6174TIP3    H118465   6.584   0.461   2.748 -0.7658 -0.2419 -0.2271
 6174TIP3    H218466   6.622   0.439   2.603  1.4372  0.4252  0.2326
 6175TIP3   OH218467   7.060   2.069   4.621 -0.0516 -0.1777 -0.3801
 6175TIP3    H118468   6.973   2.062   4.661 -0.4506 -0.4939 -1.2987
 6175TIP3    H218469   7.121   2.054   4.694 -0.7682 -1.4671 -0.0302
 6176TIP3   OH218470   7.726   2.080   3.056  0.4849  0.1708 -0.4524
 6176TIP3    H118471   7.753   2.171   3.062  2.6970 -0.4222 -0.9080
 6176TIP3    H218472   7.645   2.082   3.005 -1.4264  2.1816  2.5214
 6177TIP3   OH218473   4.826   7.568   3.568 -0.1980  0.1112  0.4070
 6177TIP3    H118474   4.840   7.624   3.644  0.8915  1.0567 -0.4728
 6177TIP3    H218475   4.787   7.626   3.503 -0.8139 -0.6191  0.1175
 6178TIP3   OH218476   0.849   3.006   5.323 -0.0811 -0.6439 -0.0426
 6178TIP3    H118477   0.873   2.916   5.302  0.3020 -0.3849 -0.7245
 6178TIP3    H218478   0.784   2.998   5.393 -0.5976 -1.4717 -0.6165
 6179TIP3   OH218479   6.777   7.587   2.179  0.0837  0.2502 -0.1568
 6179TIP3    H118480   6.806   7.518   2.238  0.2889 -0.1047 -0.6710
 6179TIP3    H218481   6.857   7.624   2.143 -0.0321  0.6089 -0.0452
 6180TIP3   OH218482   0.329   1.940   4.581 -0.3386 -0.0988 -1.0605
 6180TIP3    H118483   0.303   1.989   4.503  1.3651  0.4427 -1.3094
 6180TIP3    H218484   0.381   2.001   4.633  0.1776 -1.0444 -0.4309
 6181TIP3   OH218485   0.032   2.914   5.161 -0.9656 -0.5555 -0.6009
 6181TIP3    H118486   0.052   2.877   5.075  0.7778  1.6137 -1.1946
 6181TIP3    H218487   0.045   3.008   5.150 -4.5783  0.1989  1.0313
 6182TIP3   OH218488   7.188   2.401   2.330  0.3365 -0.2127 -0.8431
 6182TIP3    H118489   7.221   2.334   2.389  0.0639 -0.3511 -0.8445
 6182TIP3    H218490   7.095   2.407   2.350  0.2026 -0.3970 -1.3888
 6183TIP3   OH218491   1.189   1.593   2.358  0.1052  0.6991  0.1284
 6183TIP3    H118492   1.237   1.547   2.427 -1.4736 -0.6901  0.3406
 6183TIP3    H218493   1.189   1.685   2.385  2.1398  0.6395  0.3870
 6184TIP3   OH218494   1.653   1.411   4.200 -0.6588 -0.0094 -0.5914
 6184TIP3    H118495   1.742   1.422   4.167  0.0020 -0.6010  0.9426
 6184TIP3    H218496   1.642   1.316   4.209 -0.5246  0.1666  1.6257
 6185TIP3   OH218497   1.888   3.007   2.538  0.1585  0.7375  0.1350
 6185TIP3    H118498   1.924   2.949   2.605  0.4882  1.5399  0.6478
 6185TIP3    H218499   1.843   2.947   2.477 -1.1468  0.1093  1.6698
 6186TIP3   OH218500   5.275   7.916   2.006  0.1333 -0.2706 -0.3093
 6186TIP3    H118501   5.328   7.994   1.992  0.6711 -0.8263 -1.4699
 6186TIP3    H218502   5.265   7.910   2.101  0.9433  0.6354 -0.1580
 6187TIP3   OH218503   7.876   2.304   4.830  0.6369 -0.5221 -0.4473
 6187TIP3    H118504   7.803   2.243   4.842  0.0687 -0.0002 -1.1809
 6187TIP3    H218505   7.834   2.390   4.818  1.3795 -0.1880 -0.6913
 6188TIP3   OH218506   6.119   6.038   0.464 -0.6051  1.0218  0.0542
 6188TIP3    H118507   6.113   6.021   0.558  2.8051  3.2260  0.7824
 6188TIP3    H218508   6.192   5.982   0.435 -1.1148  0.9557 -1.1009
 6189TIP3   OH218509   6.305   5.564   0.660  0.0531 -0.2484  0.2253
 6189TIP3    H118510   6.323   5.486   0.608  0.2257  0.5475 -0.9263
 6189TIP3    H218511   6.220   5.594   0.629 -0.3477 -0.3756  1.1772
 6190TIP3   OH218512   1.265   2.350   3.850  0.1666 -0.0628  0.4317
 6190TIP3    H118513   1.191   2.378   3.904  2.0828 -0.2922  3.2846
 6190TIP3    H218514   1.318   2.429   3.837 -0.2939 -0.0018 -1.1684
 6191TIP3   OH218515   0.024   1.614   6.297 -0.4904  0.2015 -0.8021
 6191TIP3    H118516   0.062   1.630   6.211  1.6468  2.1800  0.4502
 6191TIP3    H218517   0.070   1.535   6.329 -0.3803  0.1990 -0.9658
 6192TIP3   OH218518   0.917   1.299   6.944 -0.3426  0.0572 -0.3953
 6192TIP3    H118519   0.857   1.310   6.871  0.6546  2.5017 -0.8875
 6192TIP3    H218520   1.002   1.331   6.912  0.1354  1.0942  1.7511
 6193TIP3   OH218521   1.009   4.251   6.803  0.0271  0.3116 -0.4081
 6193TIP3    H118522   1.066   4.321   6.773 -1.0573 -0.0457 -3.4796
 6193TIP3    H218523   0.923   4.273   6.768 -0.7006 -1.6660  0.0399
 6194TIP3   OH218524   1.284   2.531   4.639  0.2111  0.3772 -0.0055
 6194TIP3    H118525   1.331   2.551   4.557 -0.1755 -1.7362 -0.7807
 6194TIP3    H218526   1.347   2.481   4.691 -0.7358 -1.3996 -0.5330
 6195TIP3   OH218527   3.711   1.101   4.160  0.9360  0.0606 -0.1653
 6195TIP3    H118528   3.671   1.132   4.079 -0.0148 -1.1462 -0.1742
 6195TIP3    H218529   3.764   1.175   4.191  0.7968  0.7453 -1.5430
 6196TIP3   OH218530   0.588   6.931   4.336 -0.2967  0.5058 -0.2247
 6196TIP3    H118531   0.636   6.870   4.392 -0.0884  1.0496  0.1886
 6196TIP3    H218532   0.533   6.875   4.281 -0.9198 -0.0164  0.9053
 6197TIP3   OH218533   7.110   1.717   3.232  0.2004 -0.5205 -0.3159
 6197TIP3    H118534   7.019   1.735   3.209  0.1591 -2.5537 -1.8516
 6197TIP3    H218535   7.133   1.785   3.296 -1.8502  1.0475 -1.2076
 6198TIP3   OH218536   5.748   3.701   0.679  0.0818 -0.3207 -0.0972
 6198TIP3    H118537   5.655   3.697   0.654 -0.7743  0.7169  2.6414
 6198TIP3    H218538   5.752   3.653   0.762  1.8123  0.4528  0.2759
 6199TIP3   OH218539   1.208   3.248   2.193 -0.3900 -0.5379 -0.0224
 6199TIP3    H118540   1.234   3.324   2.142 -1.1151 -1.1568 -1.3388
 6199TIP3    H218541   1.161   3.285   2.268 -0.4502  0.3344 -0.4816
 6200TIP3   OH218542   0.898   2.007   6.326  0.2271  0.0801  0.0318
 6200TIP3    H118543   0.825   1.946   6.324  1.3201 -1.2975  1.2719
 6200TIP3    H218544   0.861   2.088   6.361 -0.5396 -0.8352  1.3665
 6201TIP3   OH218545   1.359   1.522   6.068 -0.0666 -0.2046  0.2250
 6201TIP3    H118546   1.360   1.617   6.058 -0.8982 -0.1254  0.7890
 6201TIP3    H218547   1.275   1.504   6.112  0.8147 -1.0375  1.5882
 6202TIP3   OH218548   3.857   7.082   0.382 -0.1014  0.4015  0.2323
 6202TIP3    H118549   3.918   7.101   0.453 -1.4979  2.0505  1.0228
 6202TIP3    H218550   3.902   7.113   0.303  2.1707 -2.9445  0.0963
 6203TIP3   OH218551   0.269   0.008   4.524 -0.5483 -0.1974 -0.1924
 6203TIP3    H118552   0.251   0.081   4.465 -1.0633 -0.3221 -0.1852
 6203TIP3    H218553   0.185  -0.014   4.563 -0.0189  0.6808  1.5239
 6204TIP3   OH218554   1.475   0.199   4.553 -0.0279 -0.2628  0.0366
 6204TIP3    H118555   1.543   0.227   4.614  0.3601 -1.2825  0.0756
 6204TIP3    H218556   1.506   0.226   4.467  0.3503 -0.5723  0.0730
 6205TIP3   OH218557   3.954   1.893   5.404 -0.4700 -0.1218  0.1877
 6205TIP3    H118558   3.898   1.971   5.408  2.4472  2.0702 -0.1251
 6205TIP3    H218559   4.007   1.905   5.325  0.4094 -2.1429  0.4491
 6206TIP3   OH218560   2.322   1.565   6.271  0.5181  0.3992  0.3215
 6206TIP3    H118561   2.304   1.494   6.210  1.2295  0.4231  0.0858
 6206TIP3    H218562   2.406   1.602   6.242  0.9070  0.3495  1.3646
 6207TIP3   OH218563   6.832   1.681   4.596  0.0911 -0.2271  0.2552
 6207TIP3    H118564   6.927   1.693   4.597  0.2864 -1.6924  0.2560
 6207TIP3    H218565   6.820   1.586   4.602 -1.3606 -0.0852 -0.2972
 6208TIP3   OH218566   2.571   0.645   4.183 -0.5726  0.2319 -0.0812
 6208TIP3    H118567   2.598   0.672   4.095  1.2203  2.0582  0.9974
 6208TIP3    H218568   2.510   0.714   4.211 -0.7302 -0.0698  0.3116
 6209TIP3   OH218569   3.340   2.406   5.873  0.1859 -0.3999  0.7516
 6209TIP3    H118570   3.408   2.406   5.805 -0.8004  1.4197 -0.2869
 6209TIP3    H218571   3.258   2.413   5.824 -0.5474  0.7581  2.1170
 6210TIP3   OH218572   3.470   1.763   6.704 -0.0273 -0.4733  0.6014
 6210TIP3    H118573   3.404   1.747   6.636 -0.1485  0.3874  0.5082
 6210TIP3    H218574   3.435   1.718   6.781  0.1171 -1.4630  0.0959
 6211TIP3   OH218575   1.061   0.997   4.800 -0.0192 -0.5510 -0.4461
 6211TIP3    H118576   1.011   0.967   4.724  0.3845 -0.3892 -0.7821
 6211TIP3    H218577   1.138   0.940   4.802 -0.4188 -1.0793  0.3173
 6212TIP3   OH218578   1.511   2.043   4.778  0.0812  0.0708 -0.5658
 6212TIP3    H118579   1.448   2.022   4.709 -1.6359 -1.0102  1.2471
 6212TIP3    H218580   1.465   2.019   4.859  2.1724  0.9634  0.9136
 6213TIP3   OH218581   1.544   2.223   5.606 -0.0705 -0.0661 -0.0241
 6213TIP3    H118582   1.639   2.212   5.605  0.0255 -0.0136  3.2447
 6213TIP3    H218583   1.511   2.140   5.641 -1.0138  0.8878  1.4193
 6214TIP3   OH218584   3.777   1.930   6.134 -0.1242  0.3005  0.0154
 6214TIP3    H118585   3.772   1.952   6.227 -0.4581 -0.1114  0.0970
 6214TIP3    H218586   3.688   1.944   6.101  0.5310  2.7769 -0.7737
 6215TIP3   OH218587   2.651   2.848   5.189 -0.3633  0.3723  0.0343
 6215TIP3    H118588   2.600   2.884   5.262  1.8286 -1.4643  2.5574
 6215TIP3    H218589   2.591   2.785   5.147 -1.2714  0.6299  0.9154
 6216TIP3   OH218590   0.454   0.347   5.031  0.3464  0.0659  0.5647
 6216TIP3    H118591   0.413   0.431   5.011  1.4070  0.0490 -1.9179
 6216TIP3    H218592   0.538   0.369   5.070  0.2346  0.1556  0.7529
 6217TIP3   OH218593   4.892   4.601   0.248  0.7268  0.3796 -0.5565
 6217TIP3    H118594   4.825   4.563   0.192  1.7874 -1.2706 -0.7445
 6217TIP3    H218595   4.929   4.527   0.296  1.6151  1.4111  0.4119
 6218TIP3   OH218596   2.291   1.378   5.771  0.7950  0.3837  0.4731
 6218TIP3    H118597   2.314   1.359   5.861  2.4549 -2.1043 -0.4195
 6218TIP3    H218598   2.215   1.322   5.753  1.5638 -0.4533 -0.1901
 6219TIP3   OH218599   3.521   2.771   6.751 -0.0827 -0.0610  0.0217
 6219TIP3    H118600   3.472   2.709   6.806  0.3463  0.8164  1.4383
 6219TIP3    H218601   3.526   2.729   6.666  0.1634 -1.9504  0.9405
 6220TIP3   OH218602   2.048   1.736   6.506  0.2708  0.1595 -0.3822
 6220TIP3    H118603   1.981   1.730   6.437 -0.8771 -0.2938  0.7347
 6220TIP3    H218604   2.097   1.655   6.499 -0.1853 -0.1249 -0.3472
 6221TIP3   OH218605   2.603   1.447   5.740  0.1491 -0.4275 -0.0607
 6221TIP3    H118606   2.515   1.416   5.762 -0.1841  0.7893  0.3671
 6221TIP3    H218607   2.637   1.381   5.679 -0.6905 -1.3987  0.5071
 6222TIP3   OH218608   0.223   3.435   5.837  0.0095  0.0076  0.1877
 6222TIP3    H118609   0.273   3.516   5.844  0.7617 -0.5075  0.9405
 6222TIP3    H218610   0.205   3.410   5.928  0.0044 -0.8001 -0.0289
 6223TIP3   OH218611   6.762   0.937   0.225  0.0864 -0.4292  0.0488
 6223TIP3    H118612   6.684   0.972   0.182 -0.3407 -2.8502 -1.1756
 6223TIP3    H218613   6.730   0.903   0.309 -0.1134 -1.1101 -0.3038
 6224TIP3   OH218614   7.883   2.003   6.935  0.1196 -0.2241 -0.4988
 6224TIP3    H118615   7.888   2.032   6.844 -0.0713  1.0880 -0.1130
 6224TIP3    H218616   7.790   1.985   6.949 -0.1835  1.6067  0.0133
 6225TIP3   OH218617   8.422   2.488   5.051 -0.2972 -0.3980  0.0831
 6225TIP3    H118618   8.358   2.554   5.025 -0.3001 -0.1404  0.7337
 6225TIP3    H218619   8.478   2.532   5.115  0.5595 -0.6148 -0.5162
 6226TIP3   OH218620   0.257   0.986   6.248  0.0993  0.0187 -0.1875
 6226TIP3    H118621   0.162   0.992   6.255 -0.0248 -2.3841  0.6135
 6226TIP3    H218622   0.273   0.925   6.176  1.0047 -0.6402  0.5600
 6227TIP3   OH218623   0.959   4.206   5.455  0.1619 -0.0267 -0.8633
 6227TIP3    H118624   0.975   4.230   5.364  0.3340  2.5458 -0.2000
 6227TIP3    H218625   1.046   4.191   5.492  0.0229 -2.5994 -1.4635
 6228TIP3   OH218626   0.747   6.567   0.782  0.1140 -0.3324 -0.1138
 6228TIP3    H118627   0.678   6.632   0.766  0.3330  0.2620  1.3317
 6228TIP3    H218628   0.765   6.530   0.695 -0.0467  1.4980 -0.9538
 6229TIP3   OH218629   5.312   1.846   5.665 -0.7597  0.3737 -0.4278
 6229TIP3    H118630   5.268   1.854   5.750 -0.5105  1.0638 -0.3601
 6229TIP3    H218631   5.401   1.879   5.681 -0.2683 -0.8234 -0.6108
 6230TIP3   OH218632   4.610   5.978   0.710 -0.2802 -1.2991  0.2426
 6230TIP3    H118633   4.673   5.912   0.678 -0.5426 -1.8555  0.8581
 6230TIP3    H218634   4.647   6.007   0.793 -0.8319 -1.6163  0.5986
 6231TIP3   OH218635   3.305   3.008   5.789 -0.1677  0.6335 -0.2098
 6231TIP3    H118636   3.373   2.992   5.855 -1.2887  0.3686  0.8990
 6231TIP3    H218637   3.300   3.104   5.784 -0.0196  0.6549  0.0169
 6232TIP3   OH218638   0.299   0.710   5.725  0.2921  0.2852  0.4129
 6232TIP3    H118639   0.372   0.676   5.673 -0.3279 -1.4712  0.6460
 6232TIP3    H218640   0.323   0.691   5.815 -0.7549 -0.9516  0.4443
 6233TIP3   OH218641   8.268   2.176   6.142  0.6205  0.0713  0.2214
 6233TIP3    H118642   8.222   2.096   6.171  0.8124 -0.1606 -0.1098
 6233TIP3    H218643   8.213   2.211   6.073  0.1748  0.6131  0.8464
 6234TIP3   OH218644   8.211   2.799   5.289 -0.3972  0.4124  0.4972
 6234TIP3    H118645   8.144   2.863   5.313 -0.5194  0.8186 -0.8690
 6234TIP3    H218646   8.294   2.846   5.302 -0.4334  0.3839  0.8279
 6235TIP3   OH218647   4.876   5.993   0.081 -0.0257 -0.1563  0.5817
 6235TIP3    H118648   4.786   5.998   0.112 -0.0686  0.1392  0.4047
 6235TIP3    H218649   4.869   5.956  -0.006 -0.2167  2.4962 -0.5758
 6236TIP3   OH218650   7.172   2.134   6.456 -0.1179 -0.8958  0.1316
 6236TIP3    H118651   7.116   2.190   6.509 -0.7882 -1.7899  0.3763
 6236TIP3    H218652   7.226   2.195   6.406  0.9259 -0.0221  2.2309
 6237TIP3   OH218653   7.634   2.233   4.939 -0.1663 -0.2075 -0.4323
 6237TIP3    H118654   7.574   2.227   5.013  0.5104 -0.2111  0.1213
 6237TIP3    H218655   7.612   2.316   4.896 -0.0819  0.1399  0.1915
 6238TIP3   OH218656   2.455   1.348   4.064  0.6844  0.2231 -0.1219
 6238TIP3    H118657   2.422   1.300   3.988  0.8161  0.6092 -0.4188
 6238TIP3    H218658   2.479   1.279   4.127  0.1447 -0.0838 -0.2455
 6239TIP3   OH218659   1.497   3.115   5.887 -0.2643  0.3591 -0.0016
 6239TIP3    H118660   1.570   3.060   5.916 -0.6003 -0.6730 -1.0815
 6239TIP3    H218661   1.431   3.053   5.854 -2.3984  1.1570  2.6021
 6240TIP3   OH218662   0.801   1.737   5.365 -0.3252  0.0002  0.5565
 6240TIP3    H118663   0.774   1.787   5.442 -0.8080  1.2566 -0.3988
 6240TIP3    H218664   0.730   1.676   5.349 -0.6841  0.4209  0.5341
 6241TIP3   OH218665   1.379   0.862   4.347 -0.4975  0.4921  0.1288
 6241TIP3    H118666   1.472   0.857   4.323 -0.2943 -0.2033  1.0230
 6241TIP3    H218667   1.371   0.945   4.393 -0.1267  0.1562  0.8138
 6242TIP3   OH218668   3.952   1.398   4.649  0.5921  0.2232  0.6175
 6242TIP3    H118669   4.041   1.433   4.656  0.4682  0.1181  3.2706
 6242TIP3    H218670   3.899   1.473   4.620  1.2075  0.8066  0.9882
 6243TIP3   OH218671   5.503   4.252   0.479  0.2463 -0.2609 -0.5218
 6243TIP3    H118672   5.514   4.335   0.433  0.7900 -0.7234 -1.2386
 6243TIP3    H218673   5.584   4.205   0.462  0.2191 -0.6699  0.4468
 6244TIP3   OH218674   0.990   3.626   6.159 -0.3874  0.2861  0.2551
 6244TIP3    H118675   0.905   3.586   6.179 -0.6214  0.1990 -0.8718
 6244TIP3    H218676   0.991   3.634   6.063  0.1251  1.9200  0.3704
 6245TIP3   OH218677   0.227   0.227   4.295 -0.5819 -0.3642  0.4393
 6245TIP3    H118678   0.157   0.228   4.361 -1.9509 -1.1347 -0.9703
 6245TIP3    H218679   0.182   0.245   4.212  0.7828 -1.5722 -0.5866
 6246TIP3   OH218680   3.579   6.079   0.249 -0.2156  0.2134  0.0094
 6246TIP3    H118681   3.661   6.049   0.287 -0.1917 -1.1218 -1.0659
 6246TIP3    H218682   3.571   6.170   0.278  2.0548  0.6213 -0.5597
 6247TIP3   OH218683   7.864   1.298   4.219 -0.0855 -0.2919 -0.0935
 6247TIP3    H118684   7.909   1.265   4.141 -1.9613 -0.0763 -1.2918
 6247TIP3    H218685   7.893   1.389   4.226 -0.7549  0.0223 -1.2017
 6248TIP3   OH218686   3.302   0.990   4.354 -0.2964 -0.0867 -0.4339
 6248TIP3    H118687   3.367   0.937   4.308 -0.5203  0.2109 -1.0978
 6248TIP3    H218688   3.348   1.071   4.377  0.3787 -1.0047  1.5827
 6249TIP3   OH218689   0.160   2.277   5.302  0.6999 -0.8213 -0.1413
 6249TIP3    H118690   0.066   2.267   5.287  0.4464  0.4157  0.5826
 6249TIP3    H218691   0.177   2.231   5.383  0.5322 -0.2084  0.2475
 6250TIP3   OH218692   0.845   0.687   4.694 -0.2680  0.1544 -0.2011
 6250TIP3    H118693   0.830   0.751   4.764  1.6452  0.3055  0.0911
 6250TIP3    H218694   0.835   0.737   4.613 -3.8870 -0.3190 -0.1141
 6251TIP3   OH218695   0.742   0.882   4.856 -0.5682 -0.3953 -0.7014
 6251TIP3    H118696   0.652   0.874   4.889  0.4413 -0.3693  2.2355
 6251TIP3    H218697   0.769   0.970   4.882  1.7386 -1.9184  2.3558
 6252TIP3   OH218698   1.615   1.526   2.982 -0.0336 -0.7183 -0.0391
 6252TIP3    H118699   1.665   1.608   2.980 -0.2497 -0.6215 -1.9880
 6252TIP3    H218700   1.550   1.541   3.051  1.6751 -0.3104  1.5222
 6253TIP3   OH218701   3.209   0.228   5.922  0.3085 -0.0200 -0.1476
 6253TIP3    H118702   3.222   0.158   5.986  0.4719 -0.0136 -0.1734
 6253TIP3    H218703   3.279   0.215   5.858 -1.4261 -1.6620 -1.7863
 6254TIP3   OH218704   1.456   7.860   5.360  0.7054 -1.1063  0.1342
 6254TIP3    H118705   1.444   7.955   5.371 -0.2324 -1.1633 -0.3801
 6254TIP3    H218706   1.409   7.821   5.434  0.0480 -1.2189 -0.3419
 6255TIP3   OH218707   2.677   1.265   6.658  0.2791 -0.5295  0.1775
 6255TIP3    H118708   2.679   1.296   6.568 -3.2531  0.0874  0.2254
 6255TIP3    H218709   2.753   1.305   6.700  0.5711  1.1479 -1.8961
 6256TIP3   OH218710   6.899   3.063   6.036 -0.0591  0.1106  0.2528
 6256TIP3    H118711   6.959   3.064   6.111  1.6417  3.2396 -1.0434
 6256TIP3    H218712   6.874   3.155   6.024 -1.7940 -0.6013 -1.8475
 6257TIP3   OH218713   8.393   2.136   3.814 -0.4074  0.1715 -0.1006
 6257TIP3    H118714   8.299   2.151   3.822 -0.4857 -0.5301  0.2975
 6257TIP3    H218715   8.422   2.201   3.749 -0.7574  1.9389  1.4692
 6258TIP3   OH218716   5.154   5.815   0.529  0.1212  0.2717  0.3636
 6258TIP3    H118717   5.122   5.783   0.444 -0.3874  1.4778  0.0969
 6258TIP3    H218718   5.220   5.750   0.555 -0.5298 -0.7246 -0.4077
 6259TIP3   OH218719   6.485   3.677   6.746  0.0655 -0.0549 -0.1568
 6259TIP3    H118720   6.549   3.638   6.687 -0.1237 -0.4810 -0.0805
 6259TIP3    H218721   6.471   3.765   6.712  0.3086 -0.1390 -0.4722
 6260TIP3   OH218722   1.589   1.750   4.498 -0.8496  0.3889 -0.0309
 6260TIP3    H118723   1.612   1.728   4.407 -0.0639 -0.3885  0.3476
 6260TIP3    H218724   1.627   1.679   4.550  0.3870  1.8435  1.0879
 6261TIP3   OH218725   5.705   7.791   4.193 -0.0373  0.8654  0.4001
 6261TIP3    H118726   5.625   7.773   4.243 -1.7999  2.2794 -1.7775
 6261TIP3    H218727   5.684   7.761   4.104  1.1338  2.9969 -0.6317
 6262TIP3   OH218728   3.633   3.047   5.329  0.2581  0.2872  0.3313
 6262TIP3    H118729   3.714   3.098   5.341  1.1056 -0.8764 -0.3802
 6262TIP3    H218730   3.596   3.081   5.247 -0.1196  1.0057  0.7938
 6263TIP3   OH218731   8.143   0.709   4.779 -0.1813  0.2811 -0.3181
 6263TIP3    H118732   8.172   0.744   4.695  0.2441 -1.2411 -0.8283
 6263TIP3    H218733   8.182   0.621   4.783 -1.1151 -0.0887  0.9687
 6264TIP3   OH218734   5.188   6.085   0.594 -0.0788  0.1959 -0.0066
 6264TIP3    H118735   5.111   6.126   0.633  0.3038  0.6819  0.2373
 6264TIP3    H218736   5.165   5.992   0.588 -1.0790  0.4911 -0.8945
 6265TIP3   OH218737   1.870   0.332   3.350  0.4433 -0.2767  0.1857
 6265TIP3    H118738   1.851   0.334   3.444  0.6978 -1.0077  0.2516
 6265TIP3    H218739   1.883   0.424   3.326  1.8397 -0.2111  1.1616
 6266TIP3   OH218740   3.126   3.994   3.344  0.0732 -0.2560 -0.0274
 6266TIP3    H118741   3.107   4.053   3.271 -0.6748  0.6558  0.8914
 6266TIP3    H218742   3.093   3.909   3.314  1.2769 -0.2511 -1.4076
 6267TIP3   OH218743   3.562   1.630   5.653  0.0153  0.1950  0.0512
 6267TIP3    H118744   3.544   1.536   5.653 -2.1798  0.5751  2.0512
 6267TIP3    H218745   3.558   1.656   5.745 -1.9812  2.6804 -0.6729
 6268TIP3   OH218746   0.787   6.947   1.002  0.2456 -0.6899 -0.0872
 6268TIP3    H118747   0.756   6.857   1.011  0.4988 -0.8600 -0.8954
 6268TIP3    H218748   0.882   6.940   0.999  0.2051 -0.6977 -3.1246
 6269TIP3   OH218749   0.375   1.640   3.547  0.5540 -0.3416 -0.2145
 6269TIP3    H118750   0.358   1.674   3.636  1.0931  2.3580 -1.0852
 6269TIP3    H218751   0.289   1.611   3.516  0.1396 -0.1651  0.7381
 6270TIP3   OH218752   7.261   7.191   4.489  0.1666  0.3204  0.8166
 6270TIP3    H118753   7.194   7.175   4.556 -0.0035  0.2793  0.6392
 6270TIP3    H218754   7.237   7.133   4.417  0.9319 -0.3745  1.1152
 6271TIP3   OH218755   0.255   1.184   4.193 -0.4029  0.9859 -0.3696
 6271TIP3    H118756   0.250   1.137   4.110  0.2590 -0.8180  0.5865
 6271TIP3    H218757   0.331   1.242   4.183  1.0143 -0.8104 -0.2592
 6272TIP3   OH218758   1.375   2.619   6.010 -0.0355  0.0725 -0.4986
 6272TIP3    H118759   1.322   2.541   6.026  0.9288 -0.4281  0.3121
 6272TIP3    H218760   1.333   2.661   5.935 -0.0386 -1.7341 -1.5606
 6273TIP3   OH218761   4.610   1.474   4.727  0.3677  0.4260 -0.1250
 6273TIP3    H118762   4.540   1.475   4.662 -0.1350  1.7986  0.4332
 6273TIP3    H218763   4.676   1.414   4.691 -0.6567 -0.1210 -1.0968
 6274TIP3   OH218764   8.130   3.382   6.272 -0.4052 -0.0840 -0.3185
 6274TIP3    H118765   8.211   3.432   6.282 -0.6851  0.7351 -1.9233
 6274TIP3    H218766   8.076   3.410   6.346  0.9756 -1.0563  1.0773
 6275TIP3   OH218767   2.552   1.472   5.117  0.1329  0.1227  0.0134
 6275TIP3    H118768   2.634   1.512   5.088 -0.6819  1.7911 -0.0268
 6275TIP3    H218769   2.488   1.499   5.052 -0.4892 -1.0417  0.1395
 6276TIP3   OH218770   3.216   2.810   5.253  0.2672  0.0439  0.2777
 6276TIP3    H118771   3.123   2.802   5.236  0.0885  2.0527  0.2664
 6276TIP3    H218772   3.222   2.867   5.330  1.5026  0.2737  0.0286
 6277TIP3   OH218773   0.940   2.518   4.385  0.9636  0.1897 -0.3642
 6277TIP3    H118774   0.988   2.600   4.382 -0.4167  1.0977  1.5090
 6277TIP3    H218775   0.979   2.470   4.458 -0.4232  0.5997  0.6590
 6278TIP3   OH218776   4.663   7.831   3.731 -0.3520 -0.0399  0.2088
 6278TIP3    H118777   4.667   7.926   3.721 -1.2701 -0.0676 -0.4078
 6278TIP3    H218778   4.674   7.816   3.825 -1.1639  0.7252  0.4202
 6279TIP3   OH218779   0.180   1.676   5.045  0.4048 -0.1246 -0.0674
 6279TIP3    H118780   0.165   1.689   4.951  1.4286  0.8357 -0.1103
 6279TIP3    H218781   0.156   1.585   5.061 -0.7570 -0.0080 -1.0627
 6280TIP3   OH218782   0.967   1.741   4.000  0.1326 -0.0341  0.6769
 6280TIP3    H118783   0.894   1.801   4.015  0.8162  0.8682  0.3783
 6280TIP3    H218784   1.039   1.776   4.052  0.6633 -0.3615  0.1695
 6281TIP3   OH218785   0.652   2.080   5.856  0.4397  0.2402  0.0752
 6281TIP3    H118786   0.592   2.011   5.884  1.0545 -0.9172 -1.3396
 6281TIP3    H218787   0.595   2.152   5.829 -0.2430 -0.0659  0.6837
 6282TIP3   OH218788   2.061   1.191   5.745 -0.1502  0.0286  0.4044
 6282TIP3    H118789   2.082   1.120   5.685 -1.0095  0.7469 -0.7764
 6282TIP3    H218790   1.996   1.153   5.805 -0.3528 -0.2799 -0.0071
 6283TIP3   OH218791   0.977   3.126   4.946  0.0023  0.6436  0.5458
 6283TIP3    H118792   0.933   3.045   4.922 -0.7440  0.6633  1.8242
 6283TIP3    H218793   1.068   3.100   4.962 -0.1297  0.1539  0.5032
 6284TIP3   OH218794   7.259   1.777   5.001 -0.1358  0.0213  0.0042
 6284TIP3    H118795   7.337   1.797   5.052  0.9765 -1.0783 -1.2167
 6284TIP3    H218796   7.190   1.831   5.040  1.1659  0.8159  1.2619
 6285TIP3   OH218797   0.605   1.438   2.990  0.2736 -0.0733 -0.0821
 6285TIP3    H118798   0.658   1.377   2.938  0.6942  0.7215 -0.5885
 6285TIP3    H218799   0.630   1.524   2.958  0.3923  0.4107  1.3100
 6286TIP3   OH218800   1.293   1.789   5.725 -0.3876 -0.0705 -0.2206
 6286TIP3    H118801   1.236   1.783   5.802 -1.5008 -1.6737 -1.1295
 6286TIP3    H218802   1.234   1.776   5.651  0.9446 -0.2989 -1.2600
 6287TIP3   OH218803   1.546   3.212   5.130 -0.2811 -0.0822 -0.4157
 6287TIP3    H118804   1.498   3.232   5.210 -0.8475 -0.0602 -0.7527
 6287TIP3    H218805   1.574   3.121   5.140 -2.2859 -0.8099 -1.1373
 6288TIP3   OH218806   7.509   2.315   2.694 -0.2707  0.6259 -0.7315
 6288TIP3    H118807   7.463   2.327   2.777 -0.0496  0.4346 -0.5818
 6288TIP3    H218808   7.558   2.397   2.682  1.9392 -0.4384  0.7289
 6289TIP3   OH218809   1.094   2.150   4.938  0.4037 -0.3263  0.1336
 6289TIP3    H118810   0.999   2.152   4.924  0.4415  1.8612 -0.0220
 6289TIP3    H218811   1.131   2.166   4.851  0.8881  0.1814  0.4323
 6290TIP3   OH218812   7.463   1.964   5.180  0.0955 -0.0575 -0.5827
 6290TIP3    H118813   7.510   1.942   5.260  0.1162  1.6857 -0.0904
 6290TIP3    H218814   7.508   2.042   5.147 -2.3968  1.6160 -0.1504
 6291TIP3   OH218815   4.110   1.825   5.607 -0.1865  0.6274 -0.3000
 6291TIP3    H118816   4.056   1.853   5.533 -0.5661 -1.2292 -0.7474
 6291TIP3    H218817   4.177   1.768   5.568 -0.3015 -0.2481  0.7591
 6292TIP3   OH218818   4.291   1.104   6.721  1.2345  0.5931  0.0167
 6292TIP3    H118819   4.329   1.177   6.672 -0.4416  0.7705 -1.0509
 6292TIP3    H218820   4.211   1.141   6.760  0.8621 -0.4228  0.2093
 6293TIP3   OH218821   1.217   4.221   5.587  0.0745 -0.3257 -0.1406
 6293TIP3    H118822   1.191   4.310   5.562 -0.0145 -0.9100 -2.2562
 6293TIP3    H218823   1.300   4.207   5.540  0.6869 -0.9494  1.1080
 6294TIP3   OH218824   2.119   0.493   4.874  0.0247  0.3383 -0.2637
 6294TIP3    H118825   2.194   0.441   4.904  0.6253  1.4435  0.1830
 6294TIP3    H218826   2.154   0.582   4.866 -1.6858  1.2227  1.7379
 6295TIP3   OH218827   0.387   2.919   3.549 -0.1346 -0.0784 -0.2575
 6295TIP3    H118828   0.437   2.840   3.528  0.4422 -0.0892  1.1099
 6295TIP3    H218829   0.440   2.991   3.514  1.4900  0.0045  2.2580
 6296TIP3   OH218830   4.927   5.972   0.373 -0.2663  0.6591  0.2206
 6296TIP3    H118831   4.988   5.901   0.356  0.0272  0.9769 -0.0661
 6296TIP3    H218832   4.902   6.003   0.286  0.8817  1.9941  0.3605
 6297TIP3   OH218833   7.420   2.403   6.452  0.4253  0.2592  0.0953
 6297TIP3    H118834   7.459   2.490   6.466 -3.1776  1.5406  2.8960
 6297TIP3    H218835   7.348   2.419   6.391 -1.0910 -0.4686  1.6455
 6298TIP3   OH218836   5.437   7.461   3.642 -0.1394 -0.0881  0.4591
 6298TIP3    H118837   5.430   7.531   3.577  0.5483  1.0497  1.5821
 6298TIP3    H218838   5.510   7.488   3.698 -0.8906 -0.9116  1.8600
 6299TIP3   OH218839   0.162   0.866   3.330  0.3505  0.3913  0.0258
 6299TIP3    H118840   0.208   0.924   3.268 -0.2921  0.9779  0.0939
 6299TIP3    H218841   0.226   0.797   3.349  0.3364 -0.1465 -1.7678
 6300TIP3   OH218842   4.380   2.520   5.269 -0.3268 -0.0485  0.3452
 6300TIP3    H118843   4.342   2.490   5.187  1.0754 -1.5105  0.2142
 6300TIP3    H218844   4.371   2.446   5.329  1.0089  0.0777  0.7256
 6301TIP3   OH218845   7.942   1.915   3.068  0.4725 -0.3048 -0.3587
 6301TIP3    H118846   7.933   1.872   2.983  0.6652  0.9581 -1.0413
 6301TIP3    H218847   7.862   1.967   3.077  0.3811 -0.5528  0.3095
 6302TIP3   OH218848   1.287   2.321   2.121 -0.2909 -0.8397 -0.3235
 6302TIP3    H118849   1.266   2.414   2.130 -1.5229 -0.9394 -2.0293
 6302TIP3    H218850   1.336   2.300   2.201  1.4022  1.6372 -0.6548
 6303TIP3   OH218851   2.821   3.314   4.855 -0.1740 -0.5912 -0.6466
 6303TIP3    H118852   2.733   3.341   4.879  0.3940  0.0942  0.7642
 6303TIP3    H218853   2.813   3.221   4.833 -1.0851 -0.7909  0.4734
 6304TIP3   OH218854   7.996   1.195   4.013  0.5313 -0.2481 -0.0374
 6304TIP3    H118855   8.014   1.169   3.923 -0.4257 -0.5230 -0.1569
 6304TIP3    H218856   8.052   1.271   4.028  0.4311  0.0103 -0.9785
 6305TIP3   OH218857   0.060   4.893   6.817  0.5571 -0.2916  0.0851
 6305TIP3    H118858   0.022   4.852   6.894  1.8092  0.1772  0.9638
 6305TIP3    H218859   0.146   4.853   6.808  1.0910  0.8657 -0.0665
 6306TIP3   OH218860   1.854   2.384   6.885 -0.0061  0.0182  0.0454
 6306TIP3    H118861   1.829   2.323   6.816  0.3180  0.6408 -0.6311
 6306TIP3    H218862   1.817   2.347   6.965 -0.6467 -0.5425 -0.5101
 6307TIP3   OH218863   0.401   5.754   6.021  0.9021  0.2043  0.1800
 6307TIP3    H118864   0.353   5.835   6.038 -0.3443 -0.4244 -0.3677
 6307TIP3    H218865   0.360   5.689   6.078  1.1790 -0.3145 -0.2105
 6308TIP3   OH218866   4.623   7.543   0.165 -0.0643  0.1911 -0.2322
 6308TIP3    H118867   4.541   7.586   0.188  0.1340  0.7967 -0.6555
 6308TIP3    H218868   4.678   7.613   0.131 -0.4603 -0.6944 -2.8103
 6309TIP3   OH218869   0.678   2.092   2.896  0.1601 -0.0645 -0.8086
 6309TIP3    H118870   0.766   2.057   2.915 -0.4349  0.3144  2.8337
 6309TIP3    H218871   0.625   2.064   2.970 -2.0134  2.6018 -1.3155
 6310TIP3   OH218872   0.836   2.827   6.016  0.5016 -0.2651  0.3696
 6310TIP3    H118873   0.772   2.883   5.973  0.9932 -0.2256 -0.3332
 6310TIP3    H218874   0.892   2.797   5.944  0.5482 -1.2391  0.8141
 6311TIP3   OH218875   8.053   1.700   5.284  0.5584 -0.0756 -0.0636
 6311TIP3    H118876   8.108   1.694   5.362  0.2147  1.1733  0.2876
 6311TIP3    H218877   8.091   1.772   5.234 -0.7107  0.7293  0.1375
 6312TIP3   OH218878   0.527   0.884   6.327 -0.2086  0.4350  0.5850
 6312TIP3    H118879   0.525   0.863   6.420 -0.6588  1.5067  0.8304
 6312TIP3    H218880   0.439   0.862   6.296 -0.0226 -0.0276  0.3951
 6313TIP3   OH218881   8.130   2.682   2.629  0.5208  0.0034 -0.2197
 6313TIP3    H118882   8.112   2.639   2.546  1.0178  1.6153 -1.1605
 6313TIP3    H218883   8.198   2.746   2.610 -0.5503  1.5758  1.0738
 6314TIP3   OH218884   1.103   3.127   5.626  0.1892 -0.0332  0.8873
 6314TIP3    H118885   1.025   3.075   5.644  1.3846 -1.8232  1.0349
 6314TIP3    H218886   1.101   3.142   5.531 -0.2364 -0.1978  0.8703
 6315TIP3   OH218887   0.482   1.381   3.995  0.4987  0.0017 -0.0370
 6315TIP3    H118888   0.441   1.454   4.041 -1.3683 -1.6615  1.0193
 6315TIP3    H218889   0.536   1.338   4.061 -0.3292 -0.9930  0.0036
 6316TIP3   OH218890   0.680   1.838   6.375 -0.0025  0.3166  0.2084
 6316TIP3    H118891   0.690   1.882   6.459 -1.2431  1.4615 -0.2259
 6316TIP3    H218892   0.608   1.776   6.388 -1.4563  1.8172 -0.5100
 6317TIP3   OH218893   2.744   1.726   6.462  0.1811  0.6106  0.2126
 6317TIP3    H118894   2.765   1.654   6.521 -1.4488  1.6414  2.1293
 6317TIP3    H218895   2.781   1.804   6.504 -1.3799  1.4197  0.1534
 6318TIP3   OH218896   1.174   1.168   5.348 -0.0384  0.7177 -0.3020
 6318TIP3    H118897   1.160   1.240   5.409  0.1665 -0.8697  1.6805
 6318TIP3    H218898   1.269   1.166   5.336  0.0608  0.1072  0.5174
 6319TIP3   OH218899   4.824   4.600   0.696  0.0688 -0.4244 -0.0244
 6319TIP3    H118900   4.788   4.664   0.759 -1.7722 -0.0610 -1.3978
 6319TIP3    H218901   4.824   4.517   0.744  0.1037  0.1228  0.9496
 6320TIP3   OH218902   0.475   0.852   5.374 -0.1575 -0.5590 -0.1505
 6320TIP3    H118903   0.527   0.796   5.431 -1.0634 -0.0029  1.2375
 6320TIP3    H218904   0.538   0.912   5.335  0.4854 -1.0521  0.1255
 6321TIP3   OH218905   2.049   1.820   5.617  0.3330  0.3245  0.5209
 6321TIP3    H118906   2.102   1.900   5.614  1.9993 -0.8339 -1.7280
 6321TIP3    H218907   2.047   1.797   5.710  1.1884  2.0784  1.0076
 6322TIP3   OH218908   7.850   7.940   2.835 -0.3442 -0.0057 -0.4208
 6322TIP3    H118909   7.903   7.998   2.780  0.6741  1.0323  1.5966
 6322TIP3    H218910   7.781   7.997   2.870 -0.3560 -0.4133  0.2223
 6323TIP3   OH218911   2.277   1.622   5.435  0.4065 -0.0413 -0.7155
 6323TIP3    H118912   2.192   1.662   5.418  1.1208  1.5044 -0.7323
 6323TIP3    H218913   2.284   1.617   5.530  0.2396 -0.3223 -0.7158
 6324TIP3   OH218914   2.685   1.413   6.418 -0.3275 -0.3077  0.0076
 6324TIP3    H118915   2.775   1.406   6.386 -0.7571 -1.1921 -1.0431
 6324TIP3    H218916   2.668   1.507   6.423  0.7574 -0.1308  0.5255
 6325TIP3   OH218917   3.918   2.033   6.615 -0.2828  0.2674 -0.0014
 6325TIP3    H118918   3.826   2.033   6.589 -0.1997  2.2669 -0.3934
 6325TIP3    H218919   3.924   2.101   6.682  0.9957  0.4936 -0.3257
 6326TIP3   OH218920   2.610   2.389   6.171 -0.5937  0.1164 -0.3460
 6326TIP3    H118921   2.671   2.330   6.214 -0.0810  0.4290 -0.6324
 6326TIP3    H218922   2.573   2.337   6.099  2.1893  1.0773 -2.5433
 6327TIP3   OH218923   2.244   2.211   6.744 -0.3972  0.3249 -0.2399
 6327TIP3    H118924   2.283   2.151   6.680 -1.5882  0.4590 -1.1029
 6327TIP3    H218925   2.193   2.272   6.692 -1.3743  0.4460  0.8434
 6328TIP3   OH218926   1.722   1.273   6.628 -0.0980 -0.7105 -0.2930
 6328TIP3    H118927   1.759   1.192   6.662  0.0929 -1.5118 -2.3402
 6328TIP3    H218928   1.797   1.323   6.596 -0.3869 -0.5430 -0.7166
 6329TIP3   OH218929   7.218   2.496   5.129 -0.3184 -0.3042  0.1312
 6329TIP3    H118930   7.123   2.483   5.120 -0.5189  1.6086 -0.8175
 6329TIP3    H218931   7.234   2.482   5.222 -1.7053  0.2359  0.4768
 6330TIP3   OH218932   4.147   0.669   6.374 -0.5826  0.5582  0.0278
 6330TIP3    H118933   4.144   0.735   6.443  0.0075  0.2716  0.3309
 6330TIP3    H218934   4.226   0.689   6.325  0.1240 -0.4969  0.7091
 6331TIP3   OH218935   3.322   4.542   0.125  0.2452 -0.4977 -0.1962
 6331TIP3    H118936   3.319   4.625   0.172 -0.5447 -1.0332  0.7356
 6331TIP3    H218937   3.389   4.491   0.171  0.3694 -0.5492 -0.4389
 6332TIP3   OH218938   0.256   0.654   5.239  0.9582  0.4036 -0.3560
 6332TIP3    H118939   0.259   0.582   5.302 -1.8331  1.1161  0.6398
 6332TIP3    H218940   0.334   0.706   5.259 -0.6071  1.3931  3.4565
 6333TIP3   OH218941   0.689   1.550   4.991  0.6540  0.0712  0.3420
 6333TIP3    H118942   0.718   1.467   5.029 -0.6112 -0.3369  0.4187
 6333TIP3    H218943   0.634   1.590   5.059 -0.0747  0.2133 -0.3271
 6334TIP3   OH218944   0.520   1.284   3.209 -0.0329 -0.4734  0.6805
 6334TIP3    H118945   0.443   1.340   3.225 -0.1715 -0.8060  1.2201
 6334TIP3    H218946   0.579   1.338   3.157 -1.7212 -1.0983 -2.0003
 6335TIP3   OH218947   2.049   5.272   0.004  0.7518  0.1782 -0.1201
 6335TIP3    H118948   2.138   5.265   0.038 -0.2858 -1.6820  2.2968
 6335TIP3    H218949   1.997   5.306   0.077 -0.6926  0.3980 -1.2216
 6336TIP3   OH218950   7.799   3.388   6.707 -0.2009  0.5312 -0.0150
 6336TIP3    H118951   7.728   3.379   6.770 -0.3542  2.1204  0.0590
 6336TIP3    H218952   7.762   3.357   6.624 -0.0157 -1.5148  0.6211
 6337TIP3   OH218953   2.719   4.113   4.255  0.6046  0.3685  0.5260
 6337TIP3    H118954   2.792   4.173   4.240  0.2338  0.6699 -0.0863
 6337TIP3    H218955   2.731   4.042   4.192  1.7865 -0.9097  2.1407
 6338TIP3   OH218956   0.016   3.111   4.408  0.1468  0.3657  0.6204
 6338TIP3    H118957   0.105   3.140   4.426 -0.1767  1.7181  0.1704
 6338TIP3    H218958  -0.037   3.147   4.479 -0.1703  0.3724  0.3887
 6339TIP3   OH218959   1.536   2.292   3.520 -0.8154 -0.1375  0.3484
 6339TIP3    H118960   1.472   2.357   3.494 -1.4897 -1.3132 -0.9980
 6339TIP3    H218961   1.504   2.210   3.482  0.4320 -1.1062  1.3326
 6340TIP3   OH218962   2.056   0.848   4.767  0.1770 -0.6518  0.3948
 6340TIP3    H118963   2.082   0.846   4.859  0.4179 -0.1780  0.3356
 6340TIP3    H218964   1.983   0.910   4.764 -0.7931 -1.7464  0.5085
 6341TIP3   OH218965   8.314   8.000   3.053 -0.2526  0.0211  0.1905
 6341TIP3    H118966   8.368   7.944   3.109 -0.5912 -1.4991 -0.9607
 6341TIP3    H218967   8.226   7.965   3.061 -0.5034  0.4964 -0.3971
 6342TIP3   OH218968   2.941   2.715   5.501  0.3431 -0.2973 -0.0887
 6342TIP3    H118969   2.970   2.633   5.540  0.7174 -0.6500 -1.1015
 6342TIP3    H218970   3.020   2.768   5.493  0.1669  0.0126  0.1932
 6343TIP3   OH218971   1.228   3.077   4.314  0.5462  0.2773 -0.2680
 6343TIP3    H118972   1.254   2.999   4.364 -0.4585 -1.5095 -2.4599
 6343TIP3    H218973   1.294   3.084   4.245 -0.1874  0.5380 -0.9470
 6344TIP3   OH218974   1.468   2.568   5.028  0.2403  0.5116  0.5116
 6344TIP3    H118975   1.432   2.488   4.989 -0.1770 -0.2566  2.4299
 6344TIP3    H218976   1.419   2.639   4.987 -0.2225 -0.2836 -0.3213
 6345TIP3   OH218977   2.075   0.834   5.034 -0.2709  0.5538 -0.7983
 6345TIP3    H118978   2.051   0.857   5.124  0.8183 -1.1442 -0.0376
 6345TIP3    H218979   2.170   0.830   5.035 -0.2545  0.4539 -2.0210
 6346TIP3   OH218980   2.420   3.401   3.256  0.0832 -0.7045  0.2015
 6346TIP3    H118981   2.481   3.417   3.184 -1.2007 -0.4340 -0.8401
 6346TIP3    H218982   2.369   3.481   3.263  0.7902 -0.3763  2.0398
 6347TIP3   OH218983   8.307   3.633   6.105  0.3809 -0.0608 -0.0011
 6347TIP3    H118984   8.399   3.611   6.089  0.9180  2.4478 -0.6545
 6347TIP3    H218985   8.265   3.622   6.019  0.5441  0.8830 -0.2102
 6348TIP3   OH218986   2.916   5.856   5.518  0.2024 -0.6194 -0.1075
 6348TIP3    H118987   2.938   5.782   5.461 -0.9998 -2.6358  1.9717
 6348TIP3    H218988   2.948   5.829   5.604 -0.4813  1.1903  0.7268
 6349TIP3   OH218989   1.813   1.259   6.291 -0.2786 -0.1229 -0.5042
 6349TIP3    H118990   1.726   1.288   6.318  0.4380 -0.1141  1.9351
 6349TIP3    H218991   1.872   1.300   6.354  1.2753 -1.9579 -0.7268
 6350TIP3   OH218992   1.020   1.003   4.408  0.5082 -0.3458 -0.3502
 6350TIP3    H118993   1.086   0.976   4.471 -0.4037 -0.2414  0.6530
 6350TIP3    H218994   0.949   0.939   4.417 -1.1206  1.6154  1.1706
 6351TIP3   OH218995   2.489   1.353   4.801 -0.1489 -0.5825  0.1898
 6351TIP3    H118996   2.477   1.339   4.707 -2.4660  0.6791  0.2643
 6351TIP3    H218997   2.581   1.379   4.810  0.2096 -1.1455 -1.6584
 6352TIP3   OH218998   2.829   1.231   4.224  0.1913 -0.2246 -0.1746
 6352TIP3    H118999   2.883   1.233   4.304  1.3207  0.0255 -0.9316
 6352TIP3    H219000   2.862   1.304   4.172 -0.9486 -0.0210 -0.6168
 6353TIP3   OH219001   0.780   0.616   3.011 -0.3408  0.0151  0.0681
 6353TIP3    H119002   0.856   0.669   3.037  0.1917 -0.3612 -0.7039
 6353TIP3    H219003   0.779   0.621   2.915  1.3781 -3.5833 -0.2312
 6354TIP3   OH219004   1.393   1.808   6.057  0.7524 -0.2624 -0.1479
 6354TIP3    H119005   1.355   1.808   6.146  0.2678 -0.9232 -0.3488
 6354TIP3    H219006   1.335   1.865   6.007  0.1275 -1.1147 -0.4074
 6355TIP3   OH219007   2.812   0.111   4.976 -0.5350  0.4226  0.0967
 6355TIP3    H119008   2.860   0.183   4.935 -0.7970  0.4389 -0.1791
 6355TIP3    H219009   2.869   0.083   5.048 -0.4074  0.8679  0.1692
 6356TIP3   OH219010   4.534   1.422   6.069  0.1445  0.1612 -0.1530
 6356TIP3    H119011   4.465   1.373   6.024  0.5487  0.7915 -1.4928
 6356TIP3    H219012   4.603   1.357   6.084 -0.7056 -0.4581  1.1537
 6357TIP3   OH219013   0.525   7.953   4.895  0.6904 -0.0116 -0.1978
 6357TIP3    H119014   0.482   7.951   4.981  0.8390  0.9079 -0.0928
 6357TIP3    H219015   0.606   7.904   4.908 -0.2557 -1.6593 -0.3650
 6358TIP3   OH219016   1.487   3.136   3.745 -0.0328 -0.2981  0.1366
 6358TIP3    H119017   1.562   3.140   3.803  0.4768  0.7992 -0.5829
 6358TIP3    H219018   1.452   3.225   3.744  0.4884 -0.0720 -1.8803
 6359TIP3   OH219019   7.804   1.995   5.241 -0.2444 -0.0588 -0.3872
 6359TIP3    H119020   7.776   2.045   5.318 -0.1553 -2.3518  1.2031
 6359TIP3    H219021   7.898   1.983   5.254 -0.7323 -3.0874  0.8009
 6360TIP3   OH219022   1.482   2.840   6.150 -0.5547 -0.0683  0.0824
 6360TIP3    H119023   1.402   2.863   6.197 -0.6241  0.9149 -0.5122
 6360TIP3    H219024   1.458   2.765   6.095 -1.3021  0.8055 -0.7834
 6361TIP3   OH219025   4.036   7.532   0.843  0.5148  0.0086 -0.1298
 6361TIP3    H119026   4.059   7.521   0.936  0.6378 -1.5917 -0.3394
 6361TIP3    H219027   3.972   7.603   0.843  1.5958  0.9958  1.0258
 6362TIP3   OH219028   5.158   5.743   0.870  0.0436 -0.1272  0.0916
 6362TIP3    H119029   5.186   5.831   0.895 -3.0199  0.3873  1.9965
 6362TIP3    H219030   5.070   5.755   0.835 -0.2887 -2.3816  0.0660
 6363TIP3   OH219031   1.364   3.314   6.896 -0.3118 -0.0926  0.5266
 6363TIP3    H119032   1.375   3.271   6.811  0.1700  4.6721 -2.0077
 6363TIP3    H219033   1.451   3.312   6.935  0.0044 -0.3137 -0.1711
 6364TIP3   OH219034   1.488   2.324   6.513 -0.0249  0.5690  0.0875
 6364TIP3    H119035   1.520   2.233   6.509 -1.0394  0.2438 -0.7481
 6364TIP3    H219036   1.437   2.327   6.594 -0.3910  0.2515 -0.1261
 6365TIP3   OH219037   2.682   6.483   0.631  0.2391 -0.0133  0.1811
 6365TIP3    H119038   2.738   6.416   0.592  0.4585  1.1229 -1.4999
 6365TIP3    H219039   2.644   6.530   0.557 -1.5010  0.4328  1.3200
 6366TIP3   OH219040   7.309   4.805   5.780  0.1667 -0.1814 -0.0737
 6366TIP3    H119041   7.352   4.733   5.734 -1.6683  0.3702 -2.7329
 6366TIP3    H219042   7.347   4.884   5.742 -1.8686  0.2834 -1.1614
 6367TIP3   OH219043   1.708   3.576   5.716  0.4524  0.1156  0.5938
 6367TIP3    H119044   1.686   3.489   5.749 -0.3267  0.0737 -0.0326
 6367TIP3    H219045   1.664   3.582   5.631  1.6294  0.6013  0.0045
 6368TIP3   OH219046   1.134   2.720   4.362 -0.1667  0.1926  0.4294
 6368TIP3    H119047   1.221   2.726   4.400  0.2250 -1.7052 -0.1154
 6368TIP3    H219048   1.143   2.762   4.276  0.3271 -0.3862  0.1946
 6369TIP3   OH219049   4.397   2.028   5.455  0.1081 -0.1409 -0.2854
 6369TIP3    H119050   4.466   2.079   5.413 -0.0988  1.2287  1.0097
 6369TIP3    H219051   4.410   2.043   5.549 -0.9382 -1.2106  0.0447
 6370TIP3   OH219052   8.432   2.759   6.802 -0.2630  0.3488  0.2583
 6370TIP3    H119053   8.523   2.788   6.798 -0.0676 -0.1590  0.9421
 6370TIP3    H219054   8.433   2.671   6.762 -0.2328 -0.1695  1.3928
 6371TIP3   OH219055   8.308   2.719   3.441 -0.0744 -0.5349  0.3429
 6371TIP3    H119056   8.225   2.733   3.488  0.3087 -2.3757  1.5801
 6371TIP3    H219057   8.305   2.628   3.413  0.0766  0.2951 -2.5477
 6372TIP3   OH219058   1.667   2.129   6.420 -1.0267 -0.3820 -0.5939
 6372TIP3    H119059   1.711   2.163   6.342 -1.0219  0.8136 -0.0883
 6372TIP3    H219060   1.603   2.067   6.386 -0.5132 -0.4368 -1.4974
 6373TIP3   OH219061   1.443   2.279   4.536  0.4381 -0.2655 -0.8737
 6373TIP3    H119062   1.491   2.314   4.610 -1.1460  1.2885 -0.5556
 6373TIP3    H219063   1.481   2.322   4.460 -0.6738  1.2334 -0.5915
 6374TIP3   OH219064   6.706   5.853   0.014  0.3746 -0.2926 -0.3093
 6374TIP3    H119065   6.722   5.786  -0.052 -1.4671 -0.1087 -0.9889
 6374TIP3    H219066   6.624   5.827   0.055 -0.1482  1.3006 -0.3037
 6375TIP3   OH219067   0.923   0.927   3.830  0.3114 -0.4288  0.3471
 6375TIP3    H119068   0.979   0.912   3.754 -0.7120  2.4726 -1.0379
 6375TIP3    H219069   0.899   0.839   3.860  0.7076 -1.6186 -2.6885
 6376TIP3   OH219070   1.304   7.715   6.620 -0.1192 -0.0992 -0.2759
 6376TIP3    H119071   1.253   7.641   6.654 -0.5025  0.5872  0.6555
 6376TIP3    H219072   1.281   7.718   6.527  1.3807 -2.3421 -0.7602
 6377TIP3   OH219073   2.464   1.677   6.919 -0.2198 -0.5506  0.0050
 6377TIP3    H119074   2.467   1.590   6.960 -0.2440 -1.0214 -0.9740
 6377TIP3    H219075   2.398   1.668   6.851 -1.1628  0.6282  0.7531
 6378TIP3   OH219076   0.563   2.523   4.326 -0.1472  0.6627 -0.1274
 6378TIP3    H119077   0.560   2.607   4.279 -3.4552  0.9326  0.4779
 6378TIP3    H219078   0.487   2.475   4.295  2.2989 -2.6622 -1.2921
 6379TIP3   OH219079   2.042   1.141   2.267 -0.0386 -0.1481  0.2339
 6379TIP3    H119080   2.078   1.140   2.178 -1.2464 -0.6452 -0.2539
 6379TIP3    H219081   2.030   1.234   2.287  1.1648  0.0121  0.2708
 6380TIP3   OH219082   2.142   2.457   6.603 -0.3757 -0.2089 -0.2447
 6380TIP3    H119083   2.097   2.483   6.683 -0.2340 -0.8796  0.0535
 6380TIP3    H219084   2.115   2.523   6.538 -0.5628  0.2802  0.3226
 6381TIP3   OH219085   0.716   2.562   4.574 -0.0060  0.2513 -0.8237
 6381TIP3    H119086   0.728   2.544   4.481 -0.7206 -0.5026 -0.7794
 6381TIP3    H219087   0.792   2.524   4.616 -1.7440 -3.2158 -0.6798
 6382TIP3   OH219088   7.940   2.652   4.973 -0.5563 -0.0614 -0.2707
 6382TIP3    H119089   7.898   2.582   4.923 -1.0853  0.0950 -0.0462
 6382TIP3    H219090   7.893   2.731   4.946 -0.0457  0.1872 -0.4251
 6383TIP3   OH219091   1.846   1.716   5.033 -0.8978 -0.2057 -0.3877
 6383TIP3    H119092   1.820   1.736   4.943 -0.7596  0.2223 -0.3344
 6383TIP3    H219093   1.836   1.799   5.079  0.3603 -0.0803 -0.3206
 6384TIP3   OH219094   7.958   3.858   5.839 -0.3853  0.0893 -0.1798
 6384TIP3    H119095   7.925   3.927   5.782  0.0718  0.5535  0.1111
 6384TIP3    H219096   7.920   3.777   5.804 -0.8684  0.4788 -0.5607
 6385TIP3   OH219097   5.336   1.926   4.063 -0.0018 -0.3230  0.2871
 6385TIP3    H119098   5.422   1.909   4.102  0.2448 -0.3686 -0.2707
 6385TIP3    H219099   5.306   2.007   4.104  0.0436 -0.6163  0.9170
 6386TIP3   OH219100   3.822   3.356   5.604 -0.2809 -0.3670  0.3900
 6386TIP3    H119101   3.733   3.328   5.582 -0.7710  2.3206 -1.2834
 6386TIP3    H219102   3.830   3.442   5.564  2.7983 -0.1946  1.2842
 6387TIP3   OH219103   2.962   2.257   5.570  0.2371  0.2697  0.2445
 6387TIP3    H119104   2.903   2.249   5.494  0.1747  0.1704  0.3021
 6387TIP3    H219105   2.977   2.166   5.597  0.6764  0.2787  0.0319
 6388TIP3   OH219106   3.393   1.898   5.867 -0.4113 -0.1551 -0.5140
 6388TIP3    H119107   3.390   1.919   5.960 -3.1617 -1.5693 -0.2335
 6388TIP3    H219108   3.441   1.970   5.827  2.7229 -0.6137  2.2667
 6389TIP3   OH219109   0.433   3.131   6.366  0.4216  0.0525 -0.0349
 6389TIP3    H119110   0.371   3.099   6.431  1.4594 -2.7172 -0.2961
 6389TIP3    H219111   0.391   3.206   6.326 -2.3057 -1.1260  0.5192
 6390TIP3   OH219112   3.193   1.157   6.367 -0.3305  0.3253 -0.0814
 6390TIP3    H119113   3.119   1.098   6.370  0.3786 -0.5200  1.6139
 6390TIP3    H219114   3.203   1.180   6.275 -0.2204 -2.6915 -0.8486
 6391TIP3   OH219115   1.016   0.275   5.228 -0.0303  0.3253 -0.2590
 6391TIP3    H119116   0.997   0.339   5.296  0.1495 -3.2346  3.3365
 6391TIP3    H219117   1.110   0.285   5.211 -0.0180  1.0780  0.2488
 6392TIP3   OH219118   4.192   4.818   4.521  0.1098  0.8107  0.4813
 6392TIP3    H119119   4.200   4.808   4.616 -0.3708 -1.2972  0.3372
 6392TIP3    H219120   4.110   4.866   4.508  1.1283  2.7964  1.1692
 6393TIP3   OH219121   3.297   2.554   6.701 -0.0278 -0.1610 -0.3893
 6393TIP3    H119122   3.289   2.548   6.797 -0.5468 -1.0850 -0.4865
 6393TIP3    H219123   3.245   2.631   6.678 -0.3112 -0.2284  0.0142
 6394TIP3   OH219124   3.814   2.278   4.272  0.1902  0.4159 -0.3722
 6394TIP3    H119125   3.850   2.245   4.354 -1.0150 -1.8693 -0.7321
 6394TIP3    H219126   3.720   2.261   4.279  0.1171 -0.0328 -2.3171
 6395TIP3   OH219127   2.815   2.071   6.774  0.1482  0.0024  0.2788
 6395TIP3    H119128   2.818   2.166   6.786  0.6353  0.3938 -2.6120
 6395TIP3    H219129   2.810   2.036   6.863  2.4187  2.6514  1.5397
 6396TIP3   OH219130   4.376   1.421   5.580  0.5948 -0.0036 -0.1032
 6396TIP3    H119131   4.350   1.438   5.670  0.0894  1.2347 -0.4728
 6396TIP3    H219132   4.340   1.335   5.560  1.2266 -0.5528  1.0675
 6397TIP3   OH219133   5.870   0.878   4.496  0.2209 -0.0123  0.2495
 6397TIP3    H119134   5.876   0.947   4.431  0.0579  0.6482  0.9249
 6397TIP3    H219135   5.784   0.839   4.483  0.8321 -0.9731 -1.0027
 6398TIP3   OH219136   1.472   1.692   4.849 -0.0636  0.1064 -0.0058
 6398TIP3    H119137   1.384   1.721   4.825  0.2891  0.7975 -0.4915
 6398TIP3    H219138   1.465   1.597   4.856 -0.0944 -0.2232 -3.4371
 6399TIP3   OH219139   3.898   1.613   6.397  0.6694  0.6841 -0.3468
 6399TIP3    H119140   3.895   1.615   6.302 -0.3366 -3.4198 -0.4976
 6399TIP3    H219141   3.813   1.646   6.425  0.3980  0.4607 -0.9124
 6400TIP3   OH219142   3.076   2.617   4.514 -0.1393  0.2584 -0.6738
 6400TIP3    H119143   3.064   2.542   4.456 -0.5057 -1.9781  2.1666
 6400TIP3    H219144   2.988   2.654   4.525  0.0252  1.0817 -1.9808
 6401TIP3   OH219145   4.965   1.534   4.772  0.2217  0.2678 -0.0917
 6401TIP3    H119146   4.932   1.459   4.722 -1.2176  0.7565  0.1106
 6401TIP3    H219147   4.921   1.528   4.857  1.2575  0.4906  0.4715
 6402TIP3   OH219148   2.557   2.266   3.468  0.5716  0.0474  0.0560
 6402TIP3    H119149   2.567   2.203   3.398 -1.4709  0.9713 -1.1272
 6402TIP3    H219150   2.551   2.213   3.548  0.9184 -1.1112 -0.6799
 6403TIP3   OH219151   3.390   1.649   6.332 -0.2148  0.4014 -0.3827
 6403TIP3    H119152   3.342   1.700   6.266 -0.0060  1.8641  0.5753
 6403TIP3    H219153   3.323   1.620   6.393 -0.0608  1.4251  0.2901
 6404TIP3   OH219154   5.530   2.160   5.058  0.7984  0.3435  0.3092
 6404TIP3    H119155   5.575   2.081   5.029  0.9483  0.6995 -0.4535
 6404TIP3    H219156   5.440   2.132   5.077  1.1848 -0.2520  1.2660
 6405TIP3   OH219157   0.714   1.762   6.118 -0.3427  0.9102  0.4350
 6405TIP3    H119158   0.795   1.806   6.091 -0.3594  2.9152  3.3268
 6405TIP3    H219159   0.699   1.795   6.207 -1.5610 -3.3775  1.9089
 6406TIP3   OH219160   5.637   6.888   0.109  0.2093  0.0917  0.1757
 6406TIP3    H119161   5.683   6.946   0.047  0.2911 -1.4816 -1.2764
 6406TIP3    H219162   5.707   6.844   0.157  0.1403  2.3039  2.3811
 6407TIP3   OH219163   0.923   7.896   4.320  0.0298  0.1951  0.2307
 6407TIP3    H119164   0.995   7.887   4.257 -2.1957 -1.5899 -2.1425
 6407TIP3    H219165   0.951   7.846   4.396  1.3208 -0.4176 -0.6306
 6408TIP3   OH219166   2.173   2.672   2.790 -0.0440  0.1707 -0.1093
 6408TIP3    H119167   2.267   2.671   2.771 -0.3905  0.0223 -1.8650
 6408TIP3    H219168   2.138   2.594   2.747 -0.8784 -0.1473  1.1061
 6409TIP3   OH219169   5.346   0.584   5.637 -0.6107 -0.4340  0.0593
 6409TIP3    H119170   5.257   0.577   5.602 -0.5294 -0.4205 -0.1523
 6409TIP3    H219171   5.402   0.584   5.559 -0.3005 -2.5560  0.2552
 6410TIP3   OH219172   2.638   0.423   5.071 -0.5919 -0.7617 -0.2359
 6410TIP3    H119173   2.724   0.429   5.030 -0.6640 -3.2300 -0.7848
 6410TIP3    H219174   2.656   0.431   5.165  0.3342 -1.9274 -0.2988
 6411TIP3   OH219175   8.128   3.868   5.483 -0.0416 -0.6017  0.2623
 6411TIP3    H119176   8.124   3.963   5.470 -2.1363 -0.5989  0.7752
 6411TIP3    H219177   8.189   3.837   5.416 -1.1080  0.8418 -1.4034
 6412TIP3   OH219178   3.053   3.264   5.315  0.2412 -0.4323  0.2956
 6412TIP3    H119179   3.026   3.231   5.229  0.6380 -0.9957  0.3892
 6412TIP3    H219180   3.109   3.339   5.295 -0.1788 -0.1720  0.0774
 6413TIP3   OH219181   2.202   2.186   5.473 -0.1262 -0.0297 -0.3141
 6413TIP3    H119182   2.121   2.139   5.452 -0.6786  0.1376  1.3607
 6413TIP3    H219183   2.255   2.121   5.519  0.2051  0.2098 -0.3599
 6414TIP3   OH219184   4.685   1.984   5.869  0.2644 -0.5590 -0.1216
 6414TIP3    H119185   4.632   2.061   5.887 -0.4441 -0.8067 -1.1218
 6414TIP3    H219186   4.713   1.953   5.955 -1.0913 -0.3411  0.4073
 6415TIP3   OH219187   1.699   0.789   3.130 -0.3648 -0.0840  0.0344
 6415TIP3    H119188   1.767   0.841   3.173 -1.7111  0.6075  1.4165
 6415TIP3    H219189   1.704   0.814   3.038 -0.4457  1.9346  0.5401
 6416TIP3   OH219190   2.924   1.829   6.640 -0.0996  0.0297 -0.0313
 6416TIP3    H119191   2.912   1.909   6.692 -0.9065 -0.3005  0.2965
 6416TIP3    H219192   2.937   1.760   6.705  0.0938 -0.1948 -0.3057
 6417TIP3   OH219193   3.884   1.852   3.871 -0.0960  0.4546 -0.7662
 6417TIP3    H119194   3.895   1.776   3.812 -0.1508 -1.1327  1.2177
 6417TIP3    H219195   3.945   1.835   3.943 -1.1480  1.5920  0.4118
 6418TIP3   OH219196   6.777   5.749   0.279 -0.1094 -0.0929 -0.2292
 6418TIP3    H119197   6.770   5.773   0.187 -1.2947  1.1711  0.1620
 6418TIP3    H219198   6.864   5.778   0.305  0.0874 -0.1146 -0.8533
 6419TIP3   OH219199   4.382   3.748   6.316  0.3759  0.2000  0.2976
 6419TIP3    H119200   4.474   3.764   6.299  0.0151  1.2403 -0.7488
 6419TIP3    H219201   4.342   3.745   6.229 -0.6046 -0.0656  0.7470
 6420TIP3   OH219202   0.656   1.743   5.722 -0.4867  0.3080 -0.6736
 6420TIP3    H119203   0.632   1.656   5.753 -1.6028  0.6161 -0.6508
 6420TIP3    H219204   0.612   1.803   5.783  0.3923  0.8811 -0.6030
 6421TIP3   OH219205   0.444   4.675   0.472  0.2359  0.0579  0.2584
 6421TIP3    H119206   0.512   4.608   0.476  0.1741 -0.1813 -2.1153
 6421TIP3    H219207   0.378   4.639   0.412 -1.6807  0.5685  2.0210
 6422TIP3   OH219208   3.568   2.729   4.838 -0.7575 -0.4947  0.0048
 6422TIP3    H119209   3.616   2.666   4.892  2.3959  3.6613  2.2677
 6422TIP3    H219210   3.594   2.708   4.748  3.0487 -0.2711  0.9629
 6423TIP3   OH219211   2.309   3.192   4.549 -0.0742 -0.3430 -0.2295
 6423TIP3    H119212   2.236   3.252   4.533 -0.2474 -0.0072  1.6850
 6423TIP3    H219213   2.386   3.239   4.516 -0.6664 -0.5580 -1.9420
 6424TIP3   OH219214   2.032   1.985   5.390  0.0483 -0.4923  0.3804
 6424TIP3    H119215   1.971   1.928   5.344  0.1050  1.5123 -2.2901
 6424TIP3    H219216   2.118   1.950   5.370  0.0067 -0.3835  0.0105
 6425TIP3   OH219217   0.612   6.477   5.624  0.1114 -0.0098 -0.3271
 6425TIP3    H119218   0.598   6.394   5.579  1.4533 -0.3578 -0.1254
 6425TIP3    H219219   0.672   6.525   5.567  2.4327 -0.7492  1.3978
 6426TIP3   OH219220   1.333   3.271   3.416  0.0715  0.0065  0.0060
 6426TIP3    H119221   1.407   3.264   3.356  0.4785  0.7745  0.4125
 6426TIP3    H219222   1.323   3.365   3.431 -1.4523 -0.0252 -0.6189
 6427TIP3   OH219223   1.823   2.809   5.413  0.5166 -0.7583 -0.7945
 6427TIP3    H119224   1.872   2.758   5.348  0.1027  0.4179 -2.0548
 6427TIP3    H219225   1.877   2.886   5.429 -1.0954  0.7837 -2.5510
 6428TIP3   OH219226   4.153   1.500   4.080  0.2419  0.3417 -0.4513
 6428TIP3    H119227   4.131   1.439   4.150  0.4033  2.1628  1.2062
 6428TIP3    H219228   4.070   1.539   4.054  0.5176  1.7014  0.6550
 6429TIP3   OH219229   3.360   2.015   6.409  0.3065  0.0601 -0.8037
 6429TIP3    H119230   3.301   1.961   6.463  2.7233 -0.5543  1.3546
 6429TIP3    H219231   3.341   2.105   6.436 -0.1117 -0.0888 -0.5882
 6430TIP3   OH219232   3.194   2.726   3.065  0.4959  0.0249  0.1154
 6430TIP3    H119233   3.212   2.733   3.159 -0.7401 -0.5199  0.4018
 6430TIP3    H219234   3.278   2.746   3.023  1.3789 -0.9657  1.3613
 6431TIP3   OH219235   2.570   0.967   4.870 -1.2610  0.3656 -0.4314
 6431TIP3    H119236   2.646   1.013   4.835 -1.3225  0.5924 -0.2655
 6431TIP3    H219237   2.571   0.985   4.964 -1.6255  0.5206 -0.4565
 6432TIP3   OH219238   1.292   3.492   5.938  0.2785  0.6839 -0.5587
 6432TIP3    H119239   1.235   3.465   5.866  1.1166  0.1352 -1.0283
 6432TIP3    H219240   1.301   3.415   5.993 -0.5796  1.1833  0.2870
 6433TIP3   OH219241   5.366   2.857   4.927  0.3250 -0.3550  0.7872
 6433TIP3    H119242   5.368   2.891   4.837 -0.3563 -0.7756  0.6120
 6433TIP3    H219243   5.419   2.777   4.923  1.9032  0.6424  1.1917
 6434TIP3   OH219244   2.790   2.416   3.887  0.1169  0.0389  0.2593
 6434TIP3    H119245   2.833   2.354   3.826 -3.3330 -0.9694 -1.2774
 6434TIP3    H219246   2.780   2.496   3.836 -1.3264 -0.2859  0.0146
 6435TIP3   OH219247   0.672   3.898   3.930  0.1141  0.0263  0.3164
 6435TIP3    H119248   0.612   3.881   3.857 -0.0594 -0.4889  0.5751
 6435TIP3    H219249   0.752   3.930   3.889  0.0541 -0.3648 -0.1132
 6436TIP3   OH219250   3.072   2.989   1.705  0.2235 -0.1876  0.0216
 6436TIP3    H119251   2.982   2.993   1.673  0.4124 -0.8492 -0.6208
 6436TIP3    H219252   3.079   3.060   1.769 -1.8107 -2.4587  2.8627
 6437TIP3   OH219253   0.064   2.540   4.644  0.0164  0.0822  0.1005
 6437TIP3    H119254  -0.012   2.519   4.590  0.5544 -1.7511  0.0389
 6437TIP3    H219255   0.080   2.462   4.697  2.7209 -0.1069 -0.9093
 6438TIP3   OH219256   2.074   3.077   3.046 -0.0911  0.4605  0.4040
 6438TIP3    H119257   2.145   3.103   3.105 -0.9281 -0.6430  1.9097
 6438TIP3    H219258   2.072   2.982   3.051 -1.3424  0.4561 -0.0169
 6439TIP3   OH219259   3.069   1.113   6.665  0.3489 -0.3643  0.0357
 6439TIP3    H119260   3.035   1.024   6.667  1.7312 -1.0057 -2.8115
 6439TIP3    H219261   3.161   1.103   6.638  0.8248  1.8331  0.7574
 6440TIP3   OH219262   2.530   3.225   6.725  0.3833 -0.0339  0.1729
 6440TIP3    H119263   2.572   3.241   6.810 -0.8799  1.5001  0.5343
 6440TIP3    H219264   2.466   3.156   6.743  1.9944 -1.6214 -0.1422
 6441TIP3   OH219265   4.197   0.012   5.860  0.2656  0.4639  0.3294
 6441TIP3    H119266   4.119   0.057   5.892 -0.1399  1.3935 -1.9036
 6441TIP3    H219267   4.201   0.033   5.767  0.8622 -2.9668 -0.4993
 6442TIP3   OH219268   3.528   0.804   5.731 -0.0034 -0.3423  0.1833
 6442TIP3    H119269   3.608   0.835   5.689  1.7557 -1.5183  2.6121
 6442TIP3    H219270   3.508   0.722   5.687  0.9554 -0.7847  0.5672
 6443TIP3   OH219271   3.686   0.137   6.855  0.1662  0.0142  0.2240
 6443TIP3    H119272   3.691   0.082   6.933 -0.6421 -1.6224 -0.8211
 6443TIP3    H219273   3.594   0.164   6.851  0.1360 -0.1559 -0.3049
 6444TIP3   OH219274   2.705   2.974   4.507  0.3038  0.6519 -0.1770
 6444TIP3    H119275   2.691   3.004   4.418  1.5184  0.1035 -0.5653
 6444TIP3    H219276   2.646   2.898   4.516 -0.5702  1.3211 -0.1625
 6445TIP3   OH219277   2.639   1.967   4.443  0.7087  0.9594 -0.7203
 6445TIP3    H119278   2.588   2.032   4.492 -1.2617 -0.2067 -1.1470
 6445TIP3    H219279   2.593   1.961   4.359  1.9439  0.3245 -1.3561
 6446TIP3   OH219280   3.920   2.548   5.382  0.1266 -0.6855  0.1417
 6446TIP3    H119281   3.970   2.589   5.311 -3.1455  1.2145 -1.1289
 6446TIP3    H219282   3.945   2.597   5.460 -2.0081  2.3182 -0.9922
 6447TIP3   OH219283   1.390   1.589   3.518  0.2746 -0.3423  0.6711
 6447TIP3    H119284   1.369   1.499   3.545 -0.1842  0.3632  2.8075
 6447TIP3    H219285   1.469   1.611   3.568  0.0609  0.6269  0.5835
 6448TIP3   OH219286   5.658   2.195   4.215 -0.1838  0.4166 -0.2515
 6448TIP3    H119287   5.677   2.223   4.125  0.2020 -3.0195 -1.3330
 6448TIP3    H219288   5.742   2.206   4.261  0.0019  0.8174 -0.6748
 6449TIP3   OH219289   2.324   1.703   3.649  0.4081  0.0701 -0.1120
 6449TIP3    H119290   2.232   1.678   3.656  0.5435 -0.6006 -0.7106
 6449TIP3    H219291   2.326   1.771   3.582  0.7726 -2.2098 -2.4923
 6450TIP3   OH219292   4.227   3.615   4.463  0.1603 -0.4370 -0.3302
 6450TIP3    H119293   4.290   3.608   4.391  1.0562 -1.7448  0.5879
 6450TIP3    H219294   4.142   3.603   4.420  0.7071 -1.5603 -1.1265
 6451TIP3   OH219295   3.384   1.538   4.640 -0.1301  0.1219  0.0545
 6451TIP3    H119296   3.379   1.509   4.549 -0.3519 -2.2047  0.7786
 6451TIP3    H219297   3.424   1.625   4.636  0.1179 -0.0822 -2.2264
 6452TIP3   OH219298   4.474   1.708   5.222  0.4237 -0.1105 -0.0951
 6452TIP3    H119299   4.450   1.776   5.159  1.6297 -0.0025 -0.4333
 6452TIP3    H219300   4.491   1.630   5.169 -1.3282 -0.8089  0.3195
 6453TIP3   OH219301   0.848   5.449   6.396 -0.0741 -0.7834  0.1847
 6453TIP3    H119302   0.810   5.363   6.410 -2.2579  0.2054  0.6258
 6453TIP3    H219303   0.882   5.446   6.306 -1.2926 -1.6895 -0.2620
 6454TIP3   OH219304   3.874   3.772   5.172 -0.2121 -0.3434  0.3645
 6454TIP3    H119305   3.943   3.706   5.182  0.4543  0.0602 -1.3345
 6454TIP3    H219306   3.920   3.849   5.137 -1.8683 -0.8687 -3.2896
 6455TIP3   OH219307   0.330   7.929   4.291 -0.0080 -0.0145 -0.1144
 6455TIP3    H119308   0.296   8.016   4.312  0.0658  0.8547 -3.4415
 6455TIP3    H219309   0.263   7.868   4.325 -0.1787  1.2838  1.9866
 6456TIP3   OH219310   3.891   1.028   4.976 -0.2856 -0.0106  0.1495
 6456TIP3    H119311   3.895   1.087   4.900 -0.6086  1.5846  1.3413
 6456TIP3    H219312   3.888   1.087   5.051  2.0553 -1.5690  1.5281
 6457TIP3   OH219313   1.525   1.977   3.475 -0.2706 -0.1405 -0.3376
 6457TIP3    H119314   1.456   1.952   3.536 -0.2249 -1.3997 -0.7976
 6457TIP3    H219315   1.479   2.008   3.397 -0.3219  0.9058  0.0960
 6458TIP3   OH219316   0.418   7.378   5.635  0.3622 -0.1771  0.3359
 6458TIP3    H119317   0.327   7.362   5.612  0.2423  2.8186 -1.5527
 6458TIP3    H219318   0.469   7.341   5.563  0.4673  0.6675 -0.0353
 6459TIP3   OH219319   7.984   2.657   3.476  0.3559  0.0952  0.0233
 6459TIP3    H119320   7.904   2.708   3.481 -0.4811 -1.1347 -0.5858
 6459TIP3    H219321   7.993   2.617   3.563  0.0157 -0.1841 -0.0671
 6460TIP3   OH219322   1.945   5.362   5.358  0.2068 -0.2133 -0.3724
 6460TIP3    H119323   1.995   5.329   5.283 -0.6790 -0.7931 -0.7237
 6460TIP3    H219324   1.939   5.456   5.343  1.8218 -0.0347  0.0618
 6461TIP3   OH219325   2.793   2.935   6.721  0.0145 -0.0449  0.4651
 6461TIP3    H119326   2.706   2.918   6.685  0.4093  0.4973 -0.7788
 6461TIP3    H219327   2.799   3.030   6.724  1.4566 -0.0241 -1.7458
 6462TIP3   OH219328   2.820   2.565   4.763 -0.5620 -0.4482  0.3081
 6462TIP3    H119329   2.801   2.659   4.767  0.1833 -0.2641 -0.3161
 6462TIP3    H219330   2.884   2.550   4.832 -0.7525 -0.5127  0.4702
 6463TIP3   OH219331   3.889   1.836   4.725  0.4857  0.4052 -0.4632
 6463TIP3    H119332   3.814   1.871   4.774  0.2188 -0.3658 -0.3185
 6463TIP3    H219333   3.917   1.909   4.670  0.3770  1.0696  0.3526
 6464TIP3   OH219334   5.940   0.488   6.819 -0.0562  0.1971  0.2833
 6464TIP3    H119335   6.005   0.536   6.768 -1.2239  0.7060 -0.7483
 6464TIP3    H219336   5.917   0.413   6.763  0.7533 -0.8125  1.2938
 6465TIP3   OH219337   5.498   0.507   5.115  0.0736  0.7750 -0.3646
 6465TIP3    H119338   5.571   0.567   5.098 -0.0045  0.3581 -2.3089
 6465TIP3    H219339   5.523   0.426   5.071  0.4553 -0.8643  2.7737
 6466TIP3   OH219340   2.351   1.004   4.748  0.6551 -0.1798  0.1243
 6466TIP3    H119341   2.424   0.993   4.809  0.0173  2.0282  1.3733
 6466TIP3    H219342   2.343   1.099   4.737  1.2932 -0.5174 -4.1269
 6467TIP3   OH219343   2.642   3.065   4.198 -0.2661  0.5427 -0.6887
 6467TIP3    H119344   2.706   3.131   4.224 -0.2359 -0.0615  0.8188
 6467TIP3    H219345   2.686   3.015   4.129  1.2539 -0.4322  0.9477
 6468TIP3   OH219346   3.683   1.955   6.449  0.4092  0.1655  0.5766
 6468TIP3    H119347   3.691   1.861   6.463  1.1845  0.5101  2.6717
 6468TIP3    H219348   3.599   1.978   6.489 -0.0024  0.2982 -0.3559
 6469TIP3   OH219349   5.180   2.819   5.140 -0.3674  0.1017 -0.0725
 6469TIP3    H119350   5.232   2.851   5.066  2.8897  0.4086  2.2397
 6469TIP3    H219351   5.222   2.736   5.164 -0.8035  0.4763  2.0245
 6470TIP3   OH219352   3.643   2.589   5.795 -0.2929 -0.9801  0.0923
 6470TIP3    H119353   3.733   2.590   5.762 -0.1093 -0.7978  0.5973
 6470TIP3    H219354   3.593   2.545   5.726 -0.1617  0.6618 -1.0727
 6471TIP3   OH219355   1.098   0.014   4.838  0.4580 -0.8335 -0.0429
 6471TIP3    H119356   1.075  -0.060   4.783  0.7536 -0.8948 -0.0846
 6471TIP3    H219357   1.123   0.083   4.777  2.6271 -1.4957  0.0303
 6472TIP3   OH219358   1.732   3.825   6.262 -0.0768 -0.2805 -0.3955
 6472TIP3    H119359   1.713   3.841   6.354 -1.0432  0.5080 -0.7207
 6472TIP3    H219360   1.777   3.904   6.233  0.2197 -0.5251 -0.6114
 6473TIP3   OH219361   4.073   2.719   5.896  0.4982  0.3844  0.0769
 6473TIP3    H119362   4.049   2.810   5.877 -0.6812  0.3316  1.3006
 6473TIP3    H219363   4.125   2.725   5.976  1.0086  0.0450 -0.2274
 6474TIP3   OH219364   3.348   1.972   3.723  0.2013 -0.5400  0.4428
 6474TIP3    H119365   3.313   1.885   3.737 -0.3107 -0.5162 -0.6378
 6474TIP3    H219366   3.307   2.026   3.790 -2.4160 -0.3661 -1.2173
 6475TIP3   OH219367   3.498   1.348   5.655  0.3988  0.2152  0.2294
 6475TIP3    H119368   3.560   1.319   5.588 -0.1329 -3.2547  1.1409
 6475TIP3    H219369   3.532   1.313   5.737 -2.1824 -0.8889  0.8987
 6476TIP3   OH219370   2.871   3.743   5.778  1.0134 -0.7216 -0.3574
 6476TIP3    H119371   2.965   3.756   5.782  1.0027  0.4392 -2.7537
 6476TIP3    H219372   2.860   3.654   5.744  1.3054  0.0352 -2.5140
 6477TIP3   OH219373   2.833   1.950   6.071 -0.4204  0.2477  0.1438
 6477TIP3    H119374   2.879   1.868   6.091  1.0120  1.5074  2.1146
 6477TIP3    H219375   2.871   1.979   5.988 -2.1540 -1.9296 -1.4698
 6478TIP3   OH219376   3.702   0.148   5.513 -0.1785  0.7768  0.0786
 6478TIP3    H119377   3.654   0.095   5.449 -0.4408 -0.1940  1.0703
 6478TIP3    H219378   3.656   0.232   5.513  0.5375  1.2008 -1.8598
 6479TIP3   OH219379   1.524   2.009   6.214 -0.0080  0.5298  0.1186
 6479TIP3    H119380   1.536   2.002   6.120 -0.4993  2.6667 -0.1182
 6479TIP3    H219381   1.470   2.087   6.226 -2.0688 -1.0951  2.0185
 6480TIP3   OH219382   3.385   1.078   2.985 -0.1372 -0.0359 -0.3002
 6480TIP3    H119383   3.364   1.029   3.064  1.1741 -1.1227 -0.6092
 6480TIP3    H219384   3.326   1.153   2.986 -0.4760 -0.3257  1.4416
 6481TIP3   OH219385   1.197   0.797   5.127 -0.5308  0.7471  0.1996
 6481TIP3    H119386   1.138   0.730   5.093 -1.2516  1.5742 -0.2037
 6481TIP3    H219387   1.168   0.878   5.085  1.8922  0.9172 -1.2642
 6482TIP3   OH219388   4.616   4.069   5.362  0.1195  0.0521 -0.2252
 6482TIP3    H119389   4.654   4.143   5.315  1.6927 -0.1609  0.6882
 6482TIP3    H219390   4.671   4.058   5.440 -0.7703 -1.3568  0.2336
 6483TIP3   OH219391   0.668   1.832   3.815 -0.0570  0.2416  0.0343
 6483TIP3    H119392   0.670   1.824   3.910 -1.3105  0.3770  0.0899
 6483TIP3    H219393   0.720   1.759   3.783 -0.3026 -0.2712  0.8078
 6484TIP3   OH219394   5.448   2.526   5.864  1.1232  0.0131 -0.2264
 6484TIP3    H119395   5.442   2.443   5.818 -1.2879 -0.2539  0.5174
 6484TIP3    H219396   5.444   2.502   5.957 -0.5949  0.9900 -0.0235
 6485TIP3   OH219397   3.530   1.435   2.777 -0.0091 -0.0557  0.0373
 6485TIP3    H119398   3.597   1.494   2.744 -1.2936  1.0061 -0.7214
 6485TIP3    H219399   3.481   1.487   2.841 -0.8352 -0.4583 -0.2585
 6486TIP3   OH219400   3.796   3.704   4.256 -0.2976  0.5008 -0.3582
 6486TIP3    H119401   3.728   3.650   4.296 -1.6193  1.3767 -1.3649
 6486TIP3    H219402   3.798   3.783   4.310  1.0013 -0.1423  0.5706
 6487TIP3   OH219403   1.507   4.783   3.436  0.0235 -0.9611 -0.4709
 6487TIP3    H119404   1.568   4.740   3.495  0.6336 -0.3444 -0.6477
 6487TIP3    H219405   1.423   4.739   3.452 -0.0417 -0.1498  1.5689
 6488TIP3   OH219406   1.411   0.468   5.277  0.1499  0.0866 -0.4377
 6488TIP3    H119407   1.361   0.511   5.347  2.0128 -0.5187  1.2898
 6488TIP3    H219408   1.456   0.540   5.232 -1.6092  0.5524 -1.5050
 6489TIP3   OH219409   4.039   4.024   4.530 -0.0302 -0.8463  0.0675
 6489TIP3    H119410   4.056   4.109   4.489 -0.2050  0.7054  3.0517
 6489TIP3    H219411   3.961   3.991   4.485  0.7655 -0.0573 -1.9848
 6490TIP3   OH219412   3.057   3.114   3.991  0.3069  0.5674 -0.0906
 6490TIP3    H119413   3.114   3.038   4.004  0.2373  0.1904 -1.8337
 6490TIP3    H219414   3.088   3.179   4.054  1.8560 -0.0947 -0.1397
 6491TIP3   OH219415   3.759   2.959   2.816  0.0480  0.2563  0.5994
 6491TIP3    H119416   3.707   2.938   2.892 -1.0235 -1.9534 -0.6926
 6491TIP3    H219417   3.697   2.958   2.743  1.3612  0.5403 -0.5460
 6492TIP3   OH219418   4.249   6.151  -0.014 -0.0105  0.6608 -0.0453
 6492TIP3    H119419   4.231   6.140   0.079 -0.1475  0.5430 -0.0855
 6492TIP3    H219420   4.337   6.116  -0.026  0.0612  0.8038  0.0656
 6493TIP3   OH219421   1.961   3.069   4.287 -0.0318  0.3513 -0.7826
 6493TIP3    H119422   1.918   2.995   4.243 -1.2139  1.1059 -0.9140
 6493TIP3    H219423   1.930   3.065   4.377  1.6618 -0.6368 -0.2329
 6494TIP3   OH219424   0.775   1.879   4.914 -0.4315  0.0215  0.1280
 6494TIP3    H119425   0.680   1.884   4.920 -0.3389 -0.4034  2.0154
 6494TIP3    H219426   0.791   1.825   4.837 -1.6972  1.2629 -1.0408
 6495TIP3   OH219427   3.171   1.044   5.165  0.0360 -0.1549 -0.3082
 6495TIP3    H119428   3.170   1.033   5.070  2.1371 -1.3271 -0.2364
 6495TIP3    H219429   3.121   0.970   5.199  0.0668 -0.2496 -0.4692
 6496TIP3   OH219430   1.993   1.377   6.544  0.3448  0.1934 -0.2168
 6496TIP3    H119431   1.947   1.455   6.513 -0.8137  0.0162  1.0412
 6496TIP3    H219432   2.081   1.409   6.567  0.4847  0.7602 -1.4590
 6497TIP3   OH219433   4.034   0.909   6.235 -0.0678  0.2699 -0.1098
 6497TIP3    H119434   4.025   0.897   6.329  0.8493 -2.2301 -0.3095
 6497TIP3    H219435   3.999   0.997   6.218 -2.4709 -0.1896  2.2016
 6498TIP3   OH219436   4.137   0.351   5.074  0.1476 -0.0172 -0.3199
 6498TIP3    H119437   4.227   0.343   5.042  0.3347  0.5687  0.0424
 6498TIP3    H219438   4.096   0.414   5.016  0.4555  0.9613  0.5014
 6499TIP3   OH219439   2.432   2.046   6.593 -0.0329 -0.1075  0.1505
 6499TIP3    H119440   2.514   2.088   6.620 -0.3337  1.0908 -0.7531
 6499TIP3    H219441   2.456   1.996   6.515 -0.6401  2.2656 -1.6271
 6500TIP3   OH219442   3.958   6.663   4.798  0.4844  0.0404 -0.1241
 6500TIP3    H119443   3.928   6.573   4.782 -0.1232  0.3596 -0.7737
 6500TIP3    H219444   3.967   6.667   4.894 -1.4895 -0.0906  0.1022
 6501TIP3   OH219445   3.903   2.657   6.781  0.7557  0.5572 -0.1144
 6501TIP3    H119446   3.905   2.580   6.837 -0.1472  0.7590  0.2050
 6501TIP3    H219447   3.963   2.637   6.709  0.9577 -0.2077  0.2673
 6502TIP3   OH219448   2.926   2.859   5.204 -0.0160  0.3316  0.1977
 6502TIP3    H119449   2.831   2.854   5.195  0.0592 -1.0607  0.0184
 6502TIP3    H219450   2.953   2.920   5.135 -0.7139  0.1661 -0.2304
 6503TIP3   OH219451   2.003  -0.018   3.644 -0.4490  0.3678  0.3343
 6503TIP3    H119452   1.914   0.017   3.652 -0.6612 -0.5545  2.4231
 6503TIP3    H219453   2.060   0.058   3.644 -1.2268  0.9602 -0.8427
 6504TIP3   OH219454   4.415   5.212   4.632  0.3809  0.6203  0.1994
 6504TIP3    H119455   4.348   5.183   4.569  0.5317  2.0579 -0.6401
 6504TIP3    H219456   4.377   5.290   4.672  1.7067  1.6617 -0.5454
 6505TIP3   OH219457   2.621   1.536   5.448 -1.0543  0.5134  0.5846
 6505TIP3    H119458   2.537   1.489   5.452 -0.8767  0.2669  1.4797
 6505TIP3    H219459   2.636   1.565   5.538 -0.1289  0.4699  0.4445
 6506TIP3   OH219460   8.171   1.246   4.613  0.7011 -0.1758  0.0112
 6506TIP3    H119461   8.101   1.309   4.630  0.8608  0.1249 -0.4036
 6506TIP3    H219462   8.241   1.299   4.574  1.3096 -0.4004  0.7764
 6507TIP3   OH219463   2.750   4.028   5.095 -0.7617 -0.5320 -0.4879
 6507TIP3    H119464   2.708   3.974   5.162  1.4594  0.4480  1.7684
 6507TIP3    H219465   2.732   4.118   5.122 -0.4007 -0.1178 -1.5826
 6508TIP3   OH219466   2.110   1.929   5.126  0.1940  0.1579 -0.3137
 6508TIP3    H119467   2.204   1.950   5.131  0.1500  0.6524 -1.4821
 6508TIP3    H219468   2.066   2.010   5.152  0.0676  0.6339 -1.9649
 6509TIP3   OH219469   1.998   2.711   5.189  0.0577 -0.4697 -0.2120
 6509TIP3    H119470   1.972   2.629   5.147 -1.1766 -0.4644  0.5230
 6509TIP3    H219471   2.014   2.771   5.116  1.2387 -1.4287 -0.7636
 6510TIP3   OH219472   4.119   3.865   3.385  0.0532 -0.2294 -0.6982
 6510TIP3    H119473   4.126   3.770   3.374  1.6130  0.0469 -2.2373
 6510TIP3    H219474   4.080   3.897   3.304  0.8004  0.5807 -0.7543
 6511TIP3   OH219475   1.436   2.601   4.396  0.4643  0.0215 -0.1659
 6511TIP3    H119476   1.439   2.547   4.317  0.5805  0.6695 -0.6145
 6511TIP3    H219477   1.483   2.681   4.372  0.2536  0.3434  0.4682
 6512TIP3   OH219478   0.291   1.194   4.718  0.9548 -0.0323 -0.0132
 6512TIP3    H119479   0.198   1.207   4.735  1.0440  1.5225 -0.6730
 6512TIP3    H219480   0.297   1.103   4.686  0.0807 -1.1370  2.8627
 6513TIP3   OH219481   1.503   1.734   6.430  0.4077 -0.7558  0.6192
 6513TIP3    H119482   1.457   1.725   6.513 -0.7891 -2.5495 -0.1953
 6513TIP3    H219483   1.435   1.760   6.368  1.4535  1.4120  0.3571
 6514TIP3   OH219484   2.361   2.529   4.773  0.1191 -0.2905  0.1570
 6514TIP3    H119485   2.364   2.566   4.861  1.0238  0.2458 -0.0983
 6514TIP3    H219486   2.308   2.591   4.723  1.1578  0.3781 -0.1294
 6515TIP3   OH219487   3.803   2.302   5.286  0.3051 -0.0625 -0.5716
 6515TIP3    H119488   3.809   2.385   5.334  2.4522 -0.7961  0.5022
 6515TIP3    H219489   3.783   2.237   5.353  1.3419 -0.7985 -0.9632
 6516TIP3   OH219490   2.269   4.894   4.576 -0.5990 -0.5038  0.1604
 6516TIP3    H119491   2.332   4.863   4.512 -0.3916  2.3338 -1.0731
 6516TIP3    H219492   2.312   4.882   4.661  0.1702 -1.8086 -0.4043
 6517TIP3   OH219493   1.893   1.988   3.166 -0.6608  0.0748 -0.2527
 6517TIP3    H119494   1.967   2.048   3.177  0.7085 -1.4565 -0.9209
 6517TIP3    H219495   1.870   1.961   3.256  2.2008 -2.4977 -0.2144
 6518TIP3   OH219496   2.654   3.771   6.922 -0.0679  0.4125 -0.2818
 6518TIP3    H119497   2.730   3.767   6.981 -1.2257  0.2174  1.2171
 6518TIP3    H219498   2.678   3.716   6.848  0.8212 -0.5341  0.6969
 6519TIP3   OH219499   2.667   4.723   6.014  0.0657 -0.5994  0.4946
 6519TIP3    H119500   2.700   4.750   5.928 -2.4554 -1.3417 -0.7452
 6519TIP3    H219501   2.651   4.629   6.006 -1.1036 -0.5031  1.4491
 6520TIP3   OH219502   5.342   3.552   6.328 -0.5040  0.5966  0.0438
 6520TIP3    H119503   5.284   3.567   6.402 -0.0295  1.4084  0.2536
 6520TIP3    H219504   5.294   3.584   6.252 -0.5183  0.8258  0.1517
 6521TIP3   OH219505   2.331   2.847   3.336  0.3115  0.3562 -0.0434
 6521TIP3    H119506   2.417   2.829   3.374 -0.0156 -1.5105 -0.1308
 6521TIP3    H219507   2.338   2.817   3.245 -0.8783 -1.3151  0.3731
 6522TIP3   OH219508   2.283   2.172   5.041  0.1732 -0.0969  0.3369
 6522TIP3    H119509   2.317   2.090   5.006 -0.8802 -0.5948  0.4448
 6522TIP3    H219510   2.336   2.190   5.119 -0.5106 -1.4299  1.1303
 6523TIP3   OH219511   4.809   1.843   4.943  0.0442  0.3987 -0.6381
 6523TIP3    H119512   4.747   1.896   4.995 -0.0261  0.0302 -0.3465
 6523TIP3    H219513   4.756   1.770   4.911  0.6984 -0.7545  0.8997
 6524TIP3   OH219514   6.250   6.592   0.001 -0.1101 -0.4778  0.3395
 6524TIP3    H119515   6.235   6.571   0.093 -0.2767  0.1728  0.4612
 6524TIP3    H219516   6.327   6.539  -0.023  0.6348  0.2232  1.1684
 6525TIP3   OH219517   1.568   2.332   4.275  0.3137  0.4373 -0.5407
 6525TIP3    H119518   1.549   2.404   4.215  0.4995 -0.6935 -1.9540
 6525TIP3    H219519   1.572   2.254   4.220 -0.2348 -0.7266  1.0297
 6526TIP3   OH219520   4.057   3.474   6.549 -0.3351 -0.1079  0.3240
 6526TIP3    H119521   4.017   3.454   6.464 -1.1742  1.5846  0.2912
 6526TIP3    H219522   4.081   3.567   6.542 -0.7378  0.1416  2.0709
 6527TIP3   OH219523   4.556   5.096   0.063  0.0296  0.1388  0.5239
 6527TIP3    H119524   4.481   5.106   0.121 -0.9390  0.0438 -0.6941
 6527TIP3    H219525   4.627   5.144   0.107 -0.3580 -0.9029  2.3359
 6528TIP3   OH219526   4.156   0.844   5.761  0.4182  0.0417  0.1418
 6528TIP3    H119527   4.245   0.874   5.780  0.7972 -0.9405 -0.0304
 6528TIP3    H219528   4.123   0.813   5.845 -0.5859  2.4576  0.6679
 6529TIP3   OH219529   4.898   2.436   6.083  0.3426 -0.4194  0.3857
 6529TIP3    H119530   4.958   2.504   6.115 -0.5804  0.6567 -0.1557
 6529TIP3    H219531   4.948   2.389   6.017  0.9199 -0.1560  0.6280
 6530TIP3   OH219532   4.546   3.139   5.256  0.5443  0.2779  0.5066
 6530TIP3    H119533   4.588   3.155   5.171 -0.6916 -3.2370 -0.8404
 6530TIP3    H219534   4.610   3.087   5.305 -1.1892 -3.1186 -0.6947
 6531TIP3   OH219535   7.738   7.209   0.102  0.6746 -0.4150 -0.0749
 6531TIP3    H119536   7.789   7.183   0.025 -1.3893 -0.1304 -1.6008
 6531TIP3    H219537   7.661   7.152   0.100 -0.1814  0.6835  0.8726
 6532TIP3   OH219538   0.414   2.156   5.513  0.4397  0.6638 -0.0334
 6532TIP3    H119539   0.333   2.106   5.521  1.5059 -0.7984  2.0835
 6532TIP3    H219540   0.407   2.223   5.581  0.2535  1.6694 -1.0205
 6533TIP3   OH219541   6.241   3.322   0.463 -0.1956  0.1078 -0.2619
 6533TIP3    H119542   6.242   3.404   0.512  1.4660  0.3790 -0.7204
 6533TIP3    H219543   6.218   3.256   0.528  1.5865  0.5116  0.8022
 6534TIP3   OH219544   5.714   0.562   4.672 -0.0913 -0.5045  0.0400
 6534TIP3    H119545   5.726   0.633   4.734  0.7818  0.0265 -0.7237
 6534TIP3    H219546   5.790   0.506   4.684 -0.0527 -0.5407 -0.3789
 6535TIP3   OH219547   1.183   4.241   4.300 -0.4261  0.2488  0.3943
 6535TIP3    H119548   1.173   4.330   4.266 -2.5548  0.8804  2.5508
 6535TIP3    H219549   1.142   4.186   4.233 -3.2442  1.3318  1.1681
 6536TIP3   OH219550   1.698   0.850   5.569 -0.4148  0.0935 -0.0379
 6536TIP3    H119551   1.766   0.808   5.623  1.2199  0.5891 -1.6677
 6536TIP3    H219552   1.631   0.877   5.632  0.1605 -1.7870  1.4375
 6537TIP3   OH219553   8.342   3.262   3.667 -0.3719 -0.0703 -0.1637
 6537TIP3    H119554   8.326   3.335   3.607  0.0481 -0.5828 -0.9058
 6537TIP3    H219555   8.352   3.304   3.753 -0.5159  0.7078 -0.5159
 6538TIP3   OH219556   2.878   2.165   4.485  0.2878  0.5442  0.3890
 6538TIP3    H119557   2.791   2.133   4.461  0.0213  1.1799  0.4826
 6538TIP3    H219558   2.874   2.179   4.579  1.2057 -1.5544  0.7725
 6539TIP3   OH219559   2.219   2.050   4.130  0.4492  0.2680 -0.2572
 6539TIP3    H119560   2.267   1.978   4.091  0.3020  0.1798 -0.2760
 6539TIP3    H219561   2.145   2.008   4.174 -2.0514  0.7364 -3.8538
 6540TIP3   OH219562   2.714   1.966   4.026 -0.4820 -0.4022 -0.1264
 6540TIP3    H119563   2.774   1.906   3.982  2.6948  2.0092  0.6771
 6540TIP3    H219564   2.636   1.966   3.972  0.5856 -2.9225 -1.7792
 6541TIP3   OH219565   4.267   1.664   6.319 -0.0105 -0.2452 -0.0817
 6541TIP3    H119566   4.214   1.738   6.350 -0.4411  0.0745 -1.5794
 6541TIP3    H219567   4.299   1.692   6.233  1.5127 -0.9741  0.2298
 6542TIP3   OH219568   3.039   3.856   3.751 -0.2377 -0.1739  0.7841
 6542TIP3    H119569   2.984   3.874   3.827  1.5816 -1.5433  2.4807
 6542TIP3    H219570   3.091   3.935   3.739 -0.1878 -0.1358  1.2660
 6543TIP3   OH219571   0.532   1.368   5.490  0.6243  0.0039 -0.2724
 6543TIP3    H119572   0.627   1.358   5.489  0.4202 -2.3819 -0.0373
 6543TIP3    H219573   0.505   1.352   5.400  0.5663  2.4043 -0.7065
 6544TIP3   OH219574   3.317   1.236   5.404  0.0135  0.0033 -0.0270
 6544TIP3    H119575   3.303   1.278   5.320  0.7013  0.3578  0.0311
 6544TIP3    H219576   3.276   1.295   5.468 -0.4610 -0.2388 -0.1084
 6545TIP3   OH219577   1.749   7.657   5.740  0.2373 -0.3837  0.1381
 6545TIP3    H119578   1.717   7.568   5.724  1.1244 -0.5896 -0.5452
 6545TIP3    H219579   1.742   7.700   5.654  3.6713 -1.0500 -0.5303
 6546TIP3   OH219580   3.619   3.540   4.711  0.3381  0.0282  0.1987
 6546TIP3    H119581   3.704   3.506   4.741  0.5318  1.0243  0.7920
 6546TIP3    H219582   3.626   3.540   4.615  1.4764  1.2896  0.2773
 6547TIP3   OH219583   2.114   1.786   4.349 -0.3103 -1.1666  0.0254
 6547TIP3    H119584   2.025   1.821   4.360 -0.1263 -1.0707  1.3201
 6547TIP3    H219585   2.136   1.750   4.435  0.3172 -2.5910 -0.7098
 6548TIP3   OH219586   4.033   3.897   4.781  0.2638  0.1290 -0.2373
 6548TIP3    H119587   4.094   3.959   4.821  0.2011  0.4835 -0.6774
 6548TIP3    H219588   4.012   3.937   4.696  1.1483 -1.0724 -1.0434
 6549TIP3   OH219589   4.484   3.259   5.543 -0.0379  0.0693 -0.7443
 6549TIP3    H119590   4.409   3.270   5.485  0.4065 -0.7467 -1.4706
 6549TIP3    H219591   4.492   3.165   5.555 -1.4561  0.2662  2.3906
 6550TIP3   OH219592   5.376   3.242   5.741  0.0748  0.0808 -0.0817
 6550TIP3    H119593   5.349   3.331   5.764 -1.7883 -0.7206  0.8849
 6550TIP3    H219594   5.458   3.254   5.692  0.0617  2.2925  0.3876
 6551TIP3   OH219595   3.064   2.272   4.763  0.4509  0.0977 -0.2086
 6551TIP3    H119596   2.987   2.214   4.766 -0.6243  1.5258  0.2999
 6551TIP3    H219597   3.049   2.335   4.833  1.1121  1.6217 -1.4262
 6552TIP3   OH219598   0.638   7.109   6.035  0.2219 -0.0487  0.4281
 6552TIP3    H119599   0.608   7.181   5.979 -3.0151 -0.3372  1.6988
 6552TIP3    H219600   0.600   7.031   5.995  1.8160 -0.8416  0.3928
 6553TIP3   OH219601   3.807   0.621   6.512  0.1838  0.0991  0.0932
 6553TIP3    H119602   3.886   0.602   6.563 -0.0833 -1.7845 -0.1371
 6553TIP3    H219603   3.771   0.534   6.492 -1.2509  0.9074 -0.8821
 6554TIP3   OH219604   0.750   6.359   1.309  0.0652 -0.7522 -0.0562
 6554TIP3    H119605   0.807   6.296   1.265  0.1306 -0.0302 -1.0229
 6554TIP3    H219606   0.665   6.315   1.315 -0.1170 -0.6062 -1.5063
 6555TIP3   OH219607   3.635   1.670   6.486 -0.7890 -0.2488  0.2712
 6555TIP3    H119608   3.594   1.695   6.568 -0.9468 -1.6634  0.6209
 6555TIP3    H219609   3.562   1.648   6.428 -0.6521  0.2166 -0.0893
 6556TIP3   OH219610   2.640   0.711   4.717  0.5462 -0.5030 -0.2086
 6556TIP3    H119611   2.628   0.762   4.797 -1.2116 -0.0177 -0.7635
 6556TIP3    H219612   2.688   0.769   4.658  0.7974 -0.4297  0.0691
 6557TIP3   OH219613   3.427   2.760   5.627  0.5508  0.0323  0.2757
 6557TIP3    H119614   3.418   2.829   5.693  2.0448  1.4369 -0.9571
 6557TIP3    H219615   3.501   2.788   5.573 -0.0999 -1.5436 -1.4722
 6558TIP3   OH219616   5.283   0.755   1.871 -0.0968  0.1362  0.3432
 6558TIP3    H119617   5.272   0.706   1.790 -0.0191  1.1455 -0.2829
 6558TIP3    H219618   5.348   0.705   1.921 -1.7448 -1.6799  0.7483
 6559TIP3   OH219619   3.485   0.406   5.449 -0.3400 -0.5526 -0.2830
 6559TIP3    H119620   3.519   0.444   5.530  1.7622 -0.7742 -1.0206
 6559TIP3    H219621   3.390   0.409   5.459 -0.2181  2.8139  0.6395
 6560TIP3   OH219622   2.517   2.382   4.384 -0.4119 -0.5859  0.1358
 6560TIP3    H119623   2.551   2.299   4.349 -0.8606 -0.1887 -1.2885
 6560TIP3    H219624   2.437   2.356   4.431  0.5839 -1.2192  1.5034
 6561TIP3   OH219625   5.147   0.475   5.235 -0.9684 -0.5454  0.2013
 6561TIP3    H119626   5.164   0.550   5.292 -2.7235  1.1320 -1.3981
 6561TIP3    H219627   5.150   0.511   5.147  0.3248 -2.8262 -0.7196
 6562TIP3   OH219628   7.779   7.108   3.181 -0.6414 -0.0065 -0.0315
 6562TIP3    H119629   7.826   7.082   3.261 -0.1933  2.4490  0.5577
 6562TIP3    H219630   7.847   7.145   3.124 -1.4279  1.1271 -0.2590
 6563TIP3   OH219631   2.187   2.326   4.214 -0.6193 -0.0502 -0.0632
 6563TIP3    H119632   2.199   2.234   4.191  1.6503 -0.1294  1.2511
 6563TIP3    H219633   2.243   2.339   4.290 -1.9005  2.1228  0.5524
 6564TIP3   OH219634   2.263   1.157   6.885 -0.4718  0.0823 -0.6263
 6564TIP3    H119635   2.324   1.119   6.820 -1.4559 -1.8256 -0.4791
 6564TIP3    H219636   2.290   1.117   6.968 -2.8746 -2.0070 -0.8004
 6565TIP3   OH219637   3.154   0.385   6.136 -0.2368  0.1650  0.5110
 6565TIP3    H119638   3.177   0.348   6.051  0.6526  1.9859 -0.0473
 6565TIP3    H219639   3.238   0.403   6.179 -0.6755 -0.6061  1.7246
 6566TIP3   OH219640   4.441   6.491   1.140  0.2296  0.0769 -0.2117
 6566TIP3    H119641   4.455   6.585   1.135 -0.9789  0.3104  0.4693
 6566TIP3    H219642   4.436   6.472   1.234 -0.1985 -0.5550 -0.3556
 6567TIP3   OH219643   2.076   0.975   5.324  0.0726  0.2069  0.1466
 6567TIP3    H119644   2.075   1.012   5.412 -1.5943 -0.8159  0.5854
 6567TIP3    H219645   2.164   0.939   5.314  0.9832  2.2883  0.5460
 6568TIP3   OH219646   2.470   2.514   5.802 -0.6839 -0.4994  0.3054
 6568TIP3    H119647   2.399   2.516   5.738 -0.4089  1.5035  0.0254
 6568TIP3    H219648   2.464   2.599   5.847  1.7841 -0.0943 -0.0254
 6569TIP3   OH219649   1.757   2.351   5.002  0.4441 -0.2684 -0.1917
 6569TIP3    H119650   1.683   2.290   4.997 -0.0323  0.2414  0.5436
 6569TIP3    H219651   1.827   2.300   5.042 -0.6420  0.2765  2.5453
 6570TIP3   OH219652   2.903   1.998   5.611 -0.0794 -0.3041  0.6756
 6570TIP3    H119653   2.870   1.948   5.686 -2.2387 -2.8715 -1.8870
 6570TIP3    H219654   2.827   2.012   5.555  1.5110  1.4335 -1.1593
 6571TIP3   OH219655   7.859   3.097   4.532 -0.3512  0.2209 -0.4335
 6571TIP3    H119656   7.891   3.144   4.609  0.0319  0.7356 -0.9029
 6571TIP3    H219657   7.764   3.111   4.533 -0.5313 -0.9563  0.7276
 6572TIP3   OH219658   3.159   1.730   2.309 -0.1541 -0.4597  0.2885
 6572TIP3    H119659   3.116   1.661   2.258  0.9425 -1.8886  1.2729
 6572TIP3    H219660   3.252   1.712   2.300  0.3391  2.9949 -2.3453
 6573TIP3   OH219661   3.854   2.423   6.054  0.0108  0.3506  0.4041
 6573TIP3    H119662   3.934   2.374   6.071 -0.3740  0.1034  1.5702
 6573TIP3    H219663   3.863   2.503   6.106 -0.5023  0.3088  0.5602
 6574TIP3   OH219664   2.161   0.959   5.621 -0.1960 -0.6124  0.5807
 6574TIP3    H119665   2.239   0.971   5.675 -0.3535 -0.8240  0.8576
 6574TIP3    H219666   2.168   0.869   5.588  1.1441  0.3041 -1.7411
 6575TIP3   OH219667   3.772   3.286   5.222 -0.5664 -0.4071  0.0778
 6575TIP3    H119668   3.844   3.224   5.211 -0.6974 -0.4999 -0.2537
 6575TIP3    H219669   3.701   3.250   5.169 -0.3858  0.4440 -0.7633
 6576TIP3   OH219670   1.662   3.319   6.728 -0.5902  0.0269 -0.1155
 6576TIP3    H119671   1.621   3.304   6.813  0.9981 -2.4199  0.2510
 6576TIP3    H219672   1.602   3.277   6.666 -0.9617  0.4819 -0.0743
 6577TIP3   OH219673   3.066   2.160   3.115  0.5323 -0.0313  0.5067
 6577TIP3    H119674   3.108   2.171   3.030  0.2561 -0.1570  0.3511
 6577TIP3    H219675   3.023   2.074   3.109  0.1696  0.1441  0.6249
 6578TIP3   OH219676   1.844   3.664   3.941  0.2693 -0.9904  0.3121
 6578TIP3    H119677   1.785   3.592   3.962 -0.3955 -0.4223  0.3831
 6578TIP3    H219678   1.931   3.630   3.964 -0.0560 -1.7025  0.5195
 6579TIP3   OH219679   6.330   4.472   0.462 -0.7860  0.2580 -0.4085
 6579TIP3    H119680   6.405   4.414   0.447 -0.0004  1.4527 -1.1993
 6579TIP3    H219681   6.308   4.505   0.375 -3.6946 -1.8159 -0.5555
 6580TIP3   OH219682   4.054   0.533   4.707 -0.3105 -0.5006 -0.2155
 6580TIP3    H119683   4.091   0.468   4.647  1.7553  1.1077 -0.7441
 6580TIP3    H219684   4.023   0.603   4.650 -1.6551 -0.5791  0.4054
 6581TIP3   OH219685   4.785   0.293   6.564  0.3858  0.2604  0.2272
 6581TIP3    H119686   4.830   0.316   6.645  0.8376  1.2012 -0.2734
 6581TIP3    H219687   4.823   0.209   6.538  1.1790  0.5903  0.3037
 6582TIP3   OH219688   6.740   4.078   0.806 -0.6748  0.4037 -0.0060
 6582TIP3    H119689   6.728   4.137   0.731 -1.9862 -0.4360 -0.4790
 6582TIP3    H219690   6.813   4.022   0.781 -0.2291  1.0212 -0.0843
 6583TIP3   OH219691   1.867   0.672   4.280 -0.1427 -0.1022 -0.2898
 6583TIP3    H119692   1.953   0.693   4.244 -0.3611  0.6833 -0.3555
 6583TIP3    H219693   1.868   0.577   4.291  1.2025  0.0350  0.9094
 6584TIP3   OH219694   5.441   1.705   3.846 -0.0889 -0.4652 -0.4516
 6584TIP3    H119695   5.496   1.783   3.855 -0.0031 -0.6524  0.6730
 6584TIP3    H219696   5.358   1.739   3.812 -0.7863  0.4275  2.0446
 6585TIP3   OH219697   0.778   7.531   5.540 -0.0143  0.5035  0.3522
 6585TIP3    H119698   0.700   7.583   5.561 -0.7968  0.4844 -2.3393
 6585TIP3    H219699   0.746   7.441   5.536  0.5145  0.2848  0.9751
 6586TIP3   OH219700   1.639   7.862   4.834  0.3134  0.0500 -0.0122
 6586TIP3    H119701   1.662   7.953   4.850  2.8463 -0.3768 -0.9461
 6586TIP3    H219702   1.680   7.813   4.905  2.3582 -0.7273 -1.6732
 6587TIP3   OH219703   2.254   1.930   4.874 -1.1854 -0.0136  0.5158
 6587TIP3    H119704   2.213   1.896   4.954 -1.8309  1.4717  0.8505
 6587TIP3    H219705   2.215   1.879   4.803 -0.1912 -1.7306  1.1857
 6588TIP3   OH219706   1.237   0.436   4.247 -0.4042  0.2480  0.2361
 6588TIP3    H119707   1.221   0.377   4.321  1.3871 -1.4253 -0.6631
 6588TIP3    H219708   1.178   0.405   4.179 -0.2677  0.2018  0.1384
 6589TIP3   OH219709   0.488   1.908   4.942  0.1320  0.2339 -0.2649
 6589TIP3    H119710   0.443   1.833   4.981  1.4416 -0.5886 -0.2976
 6589TIP3    H219711   0.496   1.971   5.013 -1.3435  0.5067 -0.3422
 6590TIP3   OH219712   3.023   4.519   5.305 -0.3958 -0.0779 -0.8550
 6590TIP3    H119713   3.043   4.470   5.385  1.0746 -0.4483 -1.4401
 6590TIP3    H219714   3.107   4.531   5.263 -1.3154 -1.0084 -3.0037
 6591TIP3   OH219715   4.563   2.284   5.828  0.0874  0.0740 -0.2406
 6591TIP3    H119716   4.498   2.260   5.762  1.6822 -2.3936 -0.9993
 6591TIP3    H219717   4.620   2.346   5.783  0.3828 -0.5787 -0.7888
 6592TIP3   OH219718   3.227   0.439   5.427 -0.1772 -0.0280 -0.1683
 6592TIP3    H119719   3.236   0.534   5.420  0.2932 -0.1189 -0.9286
 6592TIP3    H219720   3.183   0.424   5.511  0.3255  0.8294  0.2504
 6593TIP3   OH219721   1.513   3.135   4.426 -0.0249  0.2535  0.6269
 6593TIP3    H119722   1.563   3.165   4.350 -0.3582  3.3228  1.5194
 6593TIP3    H219723   1.565   3.164   4.501 -0.3366 -1.5997  1.5728
 6594TIP3   OH219724   2.838   3.890   5.423 -0.0230 -0.0911 -0.4138
 6594TIP3    H119725   2.916   3.845   5.455 -0.6921 -0.0610  1.3279
 6594TIP3    H219726   2.865   3.982   5.415  0.2485 -0.1558 -0.2418
 6595TIP3   OH219727   1.799   2.879   5.725  0.9385 -0.1563  0.8137
 6595TIP3    H119728   1.864   2.889   5.795  0.9720  2.6617  0.4463
 6595TIP3    H219729   1.849   2.841   5.652  1.4965 -0.6970  1.4686
 6596TIP3   OH219730   4.599   0.787   5.111 -0.0765 -0.4675  0.5479
 6596TIP3    H119731   4.505   0.794   5.093 -0.1824 -1.1995  0.7966
 6596TIP3    H219732   4.616   0.692   5.115  1.1599 -0.4078 -2.0312
 6597TIP3   OH219733   5.549   3.535   4.461  0.3630 -0.3230 -0.5309
 6597TIP3    H119734   5.637   3.499   4.451 -0.5965 -3.3170  0.9490
 6597TIP3    H219735   5.492   3.470   4.420 -1.4493 -0.4642  2.0792
 6598TIP3   OH219736   5.580   3.425   5.789  0.6831  0.3175  0.3267
 6598TIP3    H119737   5.615   3.418   5.700 -0.4322  1.5625 -0.2369
 6598TIP3    H219738   5.514   3.494   5.783 -0.5786 -0.7336  1.7567
 6599TIP3   OH219739   5.727   2.960   5.306 -0.2473  0.3025  0.4523
 6599TIP3    H119740   5.646   2.910   5.290  0.4425 -1.1598  1.4790
 6599TIP3    H219741   5.721   2.986   5.397 -0.6388  2.2065 -0.1027
 6600TIP3   OH219742   3.008   2.564   5.275 -0.2513 -0.3935 -0.5976
 6600TIP3    H119743   2.967   2.605   5.351 -0.9986 -1.5658 -0.3486
 6600TIP3    H219744   3.084   2.517   5.311  0.7477  0.9487 -0.9156
 6601TIP3   OH219745   5.779   3.453   4.976 -0.6106  0.4420  0.0517
 6601TIP3    H119746   5.721   3.507   5.030 -0.5838 -0.8574  1.4205
 6601TIP3    H219747   5.722   3.388   4.936 -0.4357  0.5708 -0.4038
 6602TIP3   OH219748   2.168   7.286   6.551 -0.1986 -0.2960  0.3658
 6602TIP3    H119749   2.185   7.220   6.618  0.6786 -0.4182  0.0281
 6602TIP3    H219750   2.245   7.283   6.493 -1.2607 -0.6753 -1.0413
 6603TIP3   OH219751   6.942   5.277   4.833 -0.1743 -0.7994  0.0612
 6603TIP3    H119752   6.875   5.337   4.801  0.5096  0.1153  0.3382
 6603TIP3    H219753   6.932   5.278   4.928  0.7363 -0.0582  0.1556
 6604TIP3   OH219754   5.030   4.301   5.406 -0.0246  0.2107  0.3693
 6604TIP3    H119755   5.056   4.371   5.465 -0.7242 -0.2501  1.2591
 6604TIP3    H219756   5.005   4.344   5.325  2.1363  0.7554 -0.0151
 6605TIP3   OH219757   5.245   0.631   4.996  0.2789  0.3890  0.6645
 6605TIP3    H119758   5.213   0.589   4.916 -1.2850  1.4046  0.7284
 6605TIP3    H219759   5.324   0.582   5.019 -1.5742 -2.6565  0.8434
 6606TIP3   OH219760   4.526   4.783   5.657 -0.1704 -0.2678 -0.0509
 6606TIP3    H119761   4.514   4.744   5.744 -2.0736  1.1478  0.3658
 6606TIP3    H219762   4.448   4.755   5.608 -0.6726  1.5249 -0.2995
 6607TIP3   OH219763   5.450   2.644   4.746  0.8088 -0.2267 -0.0427
 6607TIP3    H119764   5.446   2.675   4.656 -1.0666 -1.1081 -0.2807
 6607TIP3    H219765   5.471   2.551   4.738  0.7740 -0.2768  0.4417
 6608TIP3   OH219766   4.789   1.383   4.988 -0.2539 -0.2616  0.3965
 6608TIP3    H119767   4.747   1.332   5.057 -2.6577 -0.5859 -1.2228
 6608TIP3    H219768   4.718   1.405   4.928  1.2552  2.4455 -0.5165
 6609TIP3   OH219769   3.091   5.854   3.646  0.1179  0.0059 -0.2810
 6609TIP3    H119770   3.025   5.837   3.713 -0.4207  1.1852 -0.5064
 6609TIP3    H219771   3.041   5.889   3.572  0.4530 -2.9314 -1.9846
 6610TIP3   OH219772   3.557   4.357   6.100 -0.0561  0.3058  0.0226
 6610TIP3    H119773   3.477   4.308   6.120  0.3158 -0.6952 -0.8871
 6610TIP3    H219774   3.536   4.447   6.124 -1.0541 -0.1500  0.8897
 6611TIP3   OH219775   4.542   1.675   2.631 -0.6790  0.1647  0.1400
 6611TIP3    H119776   4.491   1.666   2.711 -2.4212  0.4407 -0.9188
 6611TIP3    H219777   4.506   1.609   2.572  0.3231  0.2258 -0.5518
 6612TIP3   OH219778   4.388   1.927   6.515  0.4967  0.2329 -0.4877
 6612TIP3    H119779   4.415   1.897   6.601  2.1948 -2.0865 -1.7743
 6612TIP3    H219780   4.293   1.915   6.515  0.6037 -0.7554  0.6978
 6613TIP3   OH219781   2.920   3.486   4.373 -0.5026  0.3312 -0.1394
 6613TIP3    H119782   2.990   3.520   4.318 -0.4183 -2.2261 -1.6496
 6613TIP3    H219783   2.948   3.506   4.462  1.1519  1.1284 -0.8188
 6614TIP3   OH219784   0.583   7.435   6.412 -0.0886  0.1353  0.0241
 6614TIP3    H119785   0.542   7.355   6.379 -0.8091  1.1498 -1.6040
 6614TIP3    H219786   0.670   7.407   6.442 -0.6178 -1.3796  0.1715
 6615TIP3   OH219787   5.023   1.341   5.391 -0.0196 -0.1943  0.7661
 6615TIP3    H119788   5.082   1.402   5.435 -0.5050  0.9181 -0.1064
 6615TIP3    H219789   5.069   1.315   5.312 -0.3659  0.0482  0.4860
 6616TIP3   OH219790   3.570   0.478   5.700  0.0569  0.2437 -0.7802
 6616TIP3    H119791   3.661   0.464   5.675  0.0807  0.6298 -0.9260
 6616TIP3    H219792   3.569   0.470   5.795 -0.0413 -1.2824 -0.9078
 6617TIP3   OH219793   5.833   5.431   4.554 -0.2645  0.1738 -0.5526
 6617TIP3    H119794   5.865   5.364   4.493  0.3133 -0.8864  0.8856
 6617TIP3    H219795   5.786   5.381   4.621  0.1916  1.1957  0.5440
 6618TIP3   OH219796   2.836   3.414   2.877 -0.0918  0.2302  0.0106
 6618TIP3    H119797   2.854   3.505   2.851 -1.6290  0.5818  0.1288
 6618TIP3    H219798   2.922   3.379   2.901  0.3473  2.0115  1.1260
 6619TIP3   OH219799   4.317   4.056   3.173 -0.4759  0.3431 -0.0595
 6619TIP3    H119800   4.227   4.070   3.143 -0.2093  1.2652 -0.4229
 6619TIP3    H219801   4.370   4.067   3.094 -0.1031 -0.9093  0.0102
 6620TIP3   OH219802   3.566   1.535   5.087  0.6683  0.3382  0.1445
 6620TIP3    H119803   3.552   1.629   5.099 -0.6853  0.0162  1.1565
 6620TIP3    H219804   3.582   1.526   4.993  0.2040  1.5080 -0.0607
 6621TIP3   OH219805   0.465   5.056   4.154 -0.3009 -0.1913 -0.0137
 6621TIP3    H119806   0.556   5.029   4.142 -0.0529  0.3632  0.6009
 6621TIP3    H219807   0.457   5.137   4.104 -0.8168 -0.9257 -1.1502
 6622TIP3   OH219808   4.057   2.572   3.305  0.3683  0.3858  0.0320
 6622TIP3    H119809   4.017   2.580   3.218  0.4981 -0.8877 -0.1538
 6622TIP3    H219810   4.150   2.591   3.290  0.2880  0.7413 -0.0092
 6623TIP3   OH219811   3.456   3.420   5.901  0.2362  0.8857 -1.0457
 6623TIP3    H119812   3.431   3.485   5.967 -0.3947  0.0682 -0.4828
 6623TIP3    H219813   3.545   3.445   5.876  0.4907  1.1857  0.1358
 6624TIP3   OH219814   7.348   3.250   5.505  0.2511 -0.3817  0.5232
 6624TIP3    H119815   7.387   3.319   5.451  0.7452 -1.0763 -0.0087
 6624TIP3    H219816   7.330   3.293   5.589  0.8369  0.3221  0.2958
 6625TIP3   OH219817   5.503   3.712   4.689 -0.4270 -0.3468 -0.7906
 6625TIP3    H119818   5.417   3.693   4.725 -0.3191  0.0561 -0.3122
 6625TIP3    H219819   5.529   3.632   4.644 -1.3825 -0.1991 -1.5925
 6626TIP3   OH219820   3.394   2.971   3.801  0.2040  0.4564  0.1998
 6626TIP3    H119821   3.347   2.944   3.881 -0.0216 -0.6301 -0.2915
 6626TIP3    H219822   3.345   3.047   3.770 -0.8533 -0.2735  0.0526
 6627TIP3   OH219823   6.441   1.762   4.676  0.4855 -0.3605  0.3997
 6627TIP3    H119824   6.369   1.699   4.674 -0.5300  0.7874  0.2335
 6627TIP3    H219825   6.504   1.729   4.612 -0.4316 -0.7615 -0.3029
 6628TIP3   OH219826   6.768   2.069   5.966 -0.0083 -0.1568  0.3097
 6628TIP3    H119827   6.712   1.993   5.988  0.2994 -0.6160 -0.4939
 6628TIP3    H219828   6.846   2.030   5.928  1.6668  0.3795  3.0510
 6629TIP3   OH219829   5.455   3.053   5.089  0.1920  0.0598  0.0675
 6629TIP3    H119830   5.468   2.960   5.068  3.0571  0.1548  1.2392
 6629TIP3    H219831   5.423   3.053   5.179  0.7269  0.2166  0.2611
 6630TIP3   OH219832   2.001   2.556   6.192 -0.2190 -0.2950  0.3276
 6630TIP3    H119833   1.937   2.621   6.220 -0.7306 -0.7806  0.3025
 6630TIP3    H219834   1.952   2.473   6.190  0.2719 -0.5773 -0.2240
 6631TIP3   OH219835   3.823   1.444   3.907 -0.8223  0.4305 -0.0214
 6631TIP3    H119836   3.761   1.373   3.922  0.6376 -0.9900 -0.5795
 6631TIP3    H219837   3.815   1.499   3.985 -0.9723 -1.1079  1.0748
 6632TIP3   OH219838   5.798   3.789   3.651 -0.2116 -0.3292  0.1292
 6632TIP3    H119839   5.862   3.722   3.675 -1.4955 -0.4946  3.3085
 6632TIP3    H219840   5.842   3.872   3.668 -1.0613 -0.4438  3.1570
 6633TIP3   OH219841   6.947   3.916   4.614 -0.0490  1.0525 -0.0839
 6633TIP3    H119842   6.984   3.918   4.703  0.6638  0.9037 -0.3745
 6633TIP3    H219843   6.862   3.874   4.624 -0.1619  1.4403  0.6043
 6634TIP3   OH219844   7.165   3.020   5.486  0.8142  0.4487  0.1952
 6634TIP3    H119845   7.089   3.041   5.539  0.6050  1.1060 -0.3648
 6634TIP3    H219846   7.208   3.104   5.470  0.6531  0.3147 -1.0056
 6635TIP3   OH219847   5.613   1.663   4.749  0.0107  0.7444  0.0491
 6635TIP3    H119848   5.534   1.717   4.758  0.1078  0.8211  0.4258
 6635TIP3    H219849   5.605   1.598   4.819 -0.7650 -0.5549 -1.2061
 6636TIP3   OH219850   4.962   1.587   5.178  0.3994  0.3195  0.0607
 6636TIP3    H119851   4.971   1.516   5.115 -0.6930 -0.0463  0.3050
 6636TIP3    H219852   5.005   1.662   5.136 -1.0247  0.3032 -1.4726
 6637TIP3   OH219853   2.973   3.203   3.462 -0.3444 -0.1491 -0.1828
 6637TIP3    H119854   3.038   3.168   3.401 -1.3420 -0.5937 -1.0004
 6637TIP3    H219855   3.000   3.170   3.548  0.4036 -0.4907 -0.5486
 6638TIP3   OH219856   3.104   3.541   5.539  0.1890 -0.6569  0.2209
 6638TIP3    H119857   3.032   3.593   5.574  0.4871 -0.6086  0.7575
 6638TIP3    H219858   3.069   3.452   5.535 -0.7326 -0.2367 -1.8288
 6639TIP3   OH219859   2.207   2.769   5.351 -0.6271 -0.5964  0.8059
 6639TIP3    H119860   2.168   2.823   5.420 -2.2375 -0.9809  0.2105
 6639TIP3    H219861   2.144   2.773   5.279  0.8305 -0.5640 -0.4844
 6640TIP3   OH219862   2.873   2.074   4.820  0.1934 -0.1212  0.0457
 6640TIP3    H119863   2.802   2.010   4.828 -2.9189  3.1334 -0.5330
 6640TIP3    H219864   2.888   2.105   4.909 -1.5675  1.6792 -0.2492
 6641TIP3   OH219865   5.359   5.754   2.045 -0.1804 -0.2518  0.1546
 6641TIP3    H119866   5.363   5.663   2.016 -2.0000 -0.3443  0.1242
 6641TIP3    H219867   5.406   5.755   2.129  1.4704 -0.8164 -0.7450
 6642TIP3   OH219868   4.408   2.199   5.079  0.0935  0.1233  0.0765
 6642TIP3    H119869   4.390   2.283   5.036 -0.9858 -0.5978 -0.9291
 6642TIP3    H219870   4.478   2.218   5.141 -0.4918  1.8800  0.2291
 6643TIP3   OH219871   2.663   5.185   3.113 -0.0712 -0.8171  0.4982
 6643TIP3    H119872   2.662   5.138   3.196  0.8772 -1.2166  0.2953
 6643TIP3    H219873   2.750   5.168   3.077 -0.0075  0.4344  0.0400
 6644TIP3   OH219874   4.836   2.962   3.999  0.2196  0.3477 -0.9997
 6644TIP3    H119875   4.763   2.920   4.043  1.4293 -0.5514  0.1985
 6644TIP3    H219876   4.836   3.052   4.032  0.9857 -0.2644  0.6950
 6645TIP3   OH219877   5.995   3.616   3.379 -0.2325  0.3730 -0.2964
 6645TIP3    H119878   6.063   3.597   3.444 -1.1688 -3.5780 -0.3305
 6645TIP3    H219879   6.027   3.576   3.299 -1.1478  1.3178 -1.1459
 6646TIP3   OH219880   3.968   3.556   2.200  0.3731 -0.0243  0.0512
 6646TIP3    H119881   3.979   3.649   2.183  0.2069  0.0047  0.1057
 6646TIP3    H219882   4.058   3.522   2.207  0.5009  0.9630  4.6025
 6647TIP3   OH219883   5.665   4.126   3.627  0.2642 -0.6010 -0.2847
 6647TIP3    H119884   5.602   4.060   3.597  1.3453 -1.4617 -0.6717
 6647TIP3    H219885   5.640   4.206   3.582 -2.6500 -0.0731  2.0855
 6648TIP3   OH219886   4.421   3.589   3.471 -0.6376 -0.3363 -0.1023
 6648TIP3    H119887   4.495   3.646   3.450 -0.1958 -1.5382 -1.8909
 6648TIP3    H219888   4.461   3.504   3.487 -1.3319 -0.2657  2.1560
 6649TIP3   OH219889   4.901   3.758   3.756  0.4190 -0.3710 -0.5726
 6649TIP3    H119890   4.844   3.810   3.813  0.9183 -0.3704 -0.0700
 6649TIP3    H219891   4.848   3.742   3.677 -1.1240 -2.3604  0.8342
 6650TIP3   OH219892   3.577   2.074   4.602  0.0928 -0.5128 -0.5698
 6650TIP3    H119893   3.602   2.028   4.682 -0.9565 -1.6303 -0.8777
 6650TIP3    H219894   3.490   2.109   4.621 -0.1472 -0.7584 -1.2035
 6651TIP3   OH219895   5.436   2.819   5.795  0.4435 -0.4297  0.2205
 6651TIP3    H119896   5.384   2.839   5.873  1.6056  1.4916  0.5467
 6651TIP3    H219897   5.509   2.767   5.828  1.7691  1.6714  0.7160
 6652TIP3   OH219898   3.362   1.471   4.102  0.1475 -0.6831 -0.1340
 6652TIP3    H119899   3.400   1.558   4.091 -1.7658  0.2045  0.0070
 6652TIP3    H219900   3.292   1.467   4.037  0.4487 -2.2552 -0.3733
 6653TIP3   OH219901   6.426   0.463   5.868 -0.1960  1.1446  0.0187
 6653TIP3    H119902   6.429   0.446   5.962  0.4137 -0.2822 -0.2373
 6653TIP3    H219903   6.353   0.409   5.836  1.6674 -0.9915 -0.7902
 6654TIP3   OH219904   7.220   2.239   5.782 -0.8490  0.5389 -0.2689
 6654TIP3    H119905   7.203   2.166   5.842 -0.0757  0.5335 -0.0528
 6654TIP3    H219906   7.263   2.305   5.836  1.3965 -0.1332 -1.1895
 6655TIP3   OH219907   5.586   0.430   3.638 -0.5296 -0.1722 -0.1170
 6655TIP3    H119908   5.580   0.369   3.564 -0.2362 -0.7923  0.3623
 6655TIP3    H219909   5.499   0.428   3.678 -0.5730 -0.1413 -0.2110
 6656TIP3   OH219910   3.701   2.711   5.153  0.0949  0.2944  0.4424
 6656TIP3    H119911   3.756   2.731   5.229 -1.1429  0.6745  1.2615
 6656TIP3    H219912   3.737   2.765   5.083  2.9300 -2.0533 -0.0107
 6657TIP3   OH219913   4.000   1.158   5.675 -0.2513  0.1237  0.0469
 6657TIP3    H119914   3.966   1.091   5.733  0.4290  1.5655  2.1895
 6657TIP3    H219915   3.937   1.163   5.603 -2.2997 -0.1818  1.7728
 6658TIP3   OH219916   4.050   2.483   6.352  0.4985  0.3984 -0.1746
 6658TIP3    H119917   4.000   2.523   6.281 -0.8929 -0.3899  0.3467
 6658TIP3    H219918   4.031   2.538   6.428 -1.5996 -1.3094  0.5985
 6659TIP3   OH219919   3.453   2.439   4.187 -0.1561  0.4122 -0.1716
 6659TIP3    H119920   3.363   2.449   4.216  0.1384  0.9605  0.5654
 6659TIP3    H219921   3.469   2.345   4.193 -0.6206  0.3341 -0.1268
 6660TIP3   OH219922   6.702   5.174   0.022  0.0064  0.0697  0.2744
 6660TIP3    H119923   6.763   5.120  -0.028  0.4091 -0.5800  1.4552
 6660TIP3    H219924   6.757   5.219   0.086 -0.5476  0.6521  0.3440
 6661TIP3   OH219925   6.279   3.890   3.952  0.0440  0.0289  0.1831
 6661TIP3    H119926   6.327   3.858   3.876  0.1793 -1.1199  0.7431
 6661TIP3    H219927   6.263   3.982   3.933 -2.3783 -0.8516 -2.5249
 6662TIP3   OH219928   8.115   4.659   0.417  0.2211  0.4463 -0.1427
 6662TIP3    H119929   8.156   4.735   0.456 -0.4889 -0.4579  2.4843
 6662TIP3    H219930   8.179   4.589   0.427 -0.9104 -0.3602  1.6359
 6663TIP3   OH219931   3.420   3.292   3.546 -0.6875 -0.4973  0.6753
 6663TIP3    H119932   3.336   3.336   3.533  0.0251  0.1910 -1.8685
 6663TIP3    H219933   3.413   3.212   3.494  0.8060  0.3793 -0.9265
 6664TIP3   OH219934   6.087   0.443   5.277 -0.2411 -0.3911  0.0941
 6664TIP3    H119935   6.061   0.356   5.306 -0.9110  0.2873  1.5655
 6664TIP3    H219936   6.132   0.428   5.194  2.5101 -2.4919  1.8668
 6665TIP3   OH219937   3.572   0.263   3.313 -0.2186  0.1286 -0.5242
 6665TIP3    H119938   3.664   0.279   3.337 -0.0692 -1.1166 -0.2332
 6665TIP3    H219939   3.572   0.271   3.217 -0.4826  3.3979 -0.3133
 6666TIP3   OH219940   6.012   3.415   4.843  0.5155 -0.6452  0.0461
 6666TIP3    H119941   5.924   3.443   4.867  0.2811 -0.3606 -1.1278
 6666TIP3    H219942   6.063   3.496   4.837  0.3191 -0.6087 -1.3997
 6667TIP3   OH219943   4.434   0.711   5.397  0.1834  0.2857 -0.3096
 6667TIP3    H119944   4.497   0.652   5.438 -1.6420 -1.5134  0.0395
 6667TIP3    H219945   4.351   0.663   5.401 -0.9020  1.9304 -2.1412
 6668TIP3   OH219946   3.379   1.956   4.432  0.3682 -0.1243 -0.6172
 6668TIP3    H119947   3.471   1.950   4.456  0.2012 -1.1806 -0.2191
 6668TIP3    H219948   3.342   2.022   4.490  0.2350 -1.7862  1.2331
 6669TIP3   OH219949   4.963   3.878   2.910 -0.2804  0.3146 -0.0861
 6669TIP3    H119950   5.048   3.920   2.896  0.3811 -1.0416 -0.2714
 6669TIP3    H219951   4.984   3.800   2.963 -1.1753 -0.8737 -1.4382
 6670TIP3   OH219952   4.114   2.994   3.504  0.1791  0.6351 -0.0145
 6670TIP3    H119953   4.149   2.985   3.415 -0.9079 -1.4601 -0.2546
 6670TIP3    H219954   4.030   3.039   3.492  0.0688  0.4223 -0.0368
 6671TIP3   OH219955   2.523   1.840   3.815  0.0496 -0.0542 -0.0432
 6671TIP3    H119956   2.463   1.775   3.777  1.4872 -1.4037 -0.0591
 6671TIP3    H219957   2.588   1.788   3.862  0.3107  1.4548  1.3299
 6672TIP3   OH219958   4.811   3.430   5.263 -0.4457 -0.6233  0.2710
 6672TIP3    H119959   4.716   3.420   5.273 -0.4989 -0.8126 -0.3878
 6672TIP3    H219960   4.841   3.458   5.349 -1.5859  3.1693 -0.4897
 6673TIP3   OH219961   4.561   2.725   5.532  0.0357  0.2319  0.0943
 6673TIP3    H119962   4.567   2.820   5.547 -0.0779  0.2326  0.1336
 6673TIP3    H219963   4.648   2.701   5.501  0.0644  0.3508  0.0791
 6674TIP3   OH219964   3.747   1.629   6.120 -0.6621 -0.6116  0.1795
 6674TIP3    H119965   3.776   1.720   6.122 -1.9398 -0.1946  1.6871
 6674TIP3    H219966   3.768   1.597   6.033  1.5925  0.5338  0.2898
 6675TIP3   OH219967   4.618   1.492   4.384  0.3256 -0.0168  0.0326
 6675TIP3    H119968   4.630   1.561   4.450 -0.2952 -1.2861  1.5239
 6675TIP3    H219969   4.527   1.501   4.357  0.7414  0.8668 -1.0831
 6676TIP3   OH219970   4.626   4.203   5.635 -0.4513 -0.2520 -0.2429
 6676TIP3    H119971   4.680   4.126   5.618 -1.5983 -0.9120 -0.9145
 6676TIP3    H219972   4.664   4.272   5.580 -0.5567 -0.8317 -1.0490
 6677TIP3   OH219973   4.661   3.468   4.838 -0.3926  0.0336 -0.2153
 6677TIP3    H119974   4.721   3.411   4.886 -1.0277 -0.4113  0.0605
 6677TIP3    H219975   4.689   3.460   4.747 -1.3170 -1.7909 -0.3709
 6678TIP3   OH219976   6.038   2.497   4.029 -0.1583 -0.0457 -0.4472
 6678TIP3    H119977   6.063   2.408   4.053  3.4399  0.4476 -2.0485
 6678TIP3    H219978   6.084   2.553   4.092 -0.9529  0.7532 -0.5677
 6679TIP3   OH219979   5.790   2.916   4.019  0.4903  0.2045  0.2791
 6679TIP3    H119980   5.746   2.883   3.940 -0.6105  1.6840  0.2475
 6679TIP3    H219981   5.875   2.946   3.987 -0.2078  1.4081 -0.4767
 6680TIP3   OH219982   4.675   2.603   5.188 -0.5579  0.3098 -0.5407
 6680TIP3    H119983   4.609   2.580   5.254 -2.5052  0.2602 -2.4675
 6680TIP3    H219984   4.653   2.692   5.162  1.9350  1.3856  0.8778
 6681TIP3   OH219985   6.160   2.634   3.552  0.5257  0.0133 -0.2793
 6681TIP3    H119986   6.146   2.598   3.639 -0.2040 -1.7874 -1.1218
 6681TIP3    H219987   6.127   2.567   3.492  1.8212  0.8355 -1.9722
 6682TIP3   OH219988   2.646   3.710   3.558  0.2287 -0.2519  0.3005
 6682TIP3    H119989   2.730   3.685   3.596 -0.3194 -0.7448  1.1931
 6682TIP3    H219990   2.665   3.791   3.510  0.8450  0.6088  1.9551
 6683TIP3   OH219991   3.542   3.174   4.537 -0.1750 -0.2784  0.3632
 6683TIP3    H119992   3.489   3.099   4.510 -0.0027 -0.2385 -0.0940
 6683TIP3    H219993   3.583   3.206   4.456  0.1649 -0.0116  0.6329
 6684TIP3   OH219994   4.788   3.872   6.916  0.0752 -0.2112 -0.1785
 6684TIP3    H119995   4.751   3.843   6.832  2.8629 -0.3749 -1.3995
 6684TIP3    H219996   4.816   3.791   6.959 -0.0667 -0.0112  0.2992
 6685TIP3   OH219997   4.916   1.933   4.194  0.1603  0.5617 -0.2019
 6685TIP3    H119998   4.973   1.883   4.253 -0.8485  1.6558  1.7599
 6685TIP3    H219999   4.919   2.022   4.227  0.0973  1.3515 -2.2488
 6686TIP3   OH220000   5.475   2.377   4.634 -0.2357 -0.4200  0.1087
 6686TIP3    H120001   5.516   2.292   4.645  0.8247  0.0750  0.0081
 6686TIP3    H220002   5.381   2.358   4.627  0.0161 -1.5849 -0.1093
 6687TIP3   OH220003   6.081   1.616   3.380 -0.1205 -0.0300 -0.3116
 6687TIP3    H120004   6.004   1.563   3.401 -0.1446  0.1757  0.1068
 6687TIP3    H220005   6.155   1.557   3.397 -0.2027 -0.4663 -1.3912
 6688TIP3   OH220006   4.964   3.810   5.423 -0.4936  0.0299 -0.0006
 6688TIP3    H120007   4.907   3.745   5.464  0.4450 -1.9307 -1.7319
 6688TIP3    H220008   4.955   3.795   5.329  1.4850  0.8942 -0.3547
 6689TIP3   OH220009   1.081   7.246   0.066  0.5458 -0.5912  0.1888
 6689TIP3    H120010   1.138   7.266  -0.008  0.8731 -0.2199  0.5393
 6689TIP3    H220011   1.115   7.299   0.138 -0.2981 -0.2927  0.3742
 6690TIP3   OH220012   5.780   3.895   5.937  0.2276 -0.6171  0.5172
 6690TIP3    H120013   5.828   3.957   5.880 -1.0001 -0.1643 -0.0376
 6690TIP3    H220014   5.847   3.833   5.965  1.1511 -0.0074 -0.2707
 6691TIP3   OH220015   4.608   2.507   3.191  0.2748  0.2721 -0.5708
 6691TIP3    H120016   4.575   2.443   3.254  0.2789  0.2522 -0.5894
 6691TIP3    H220017   4.678   2.552   3.238 -1.3562  1.9637  0.3357
 6692TIP3   OH220018   0.696   1.960   3.515 -0.1931 -0.2344 -0.4008
 6692TIP3    H120019   0.744   2.023   3.461 -0.1588  0.1972  0.1296
 6692TIP3    H220020   0.739   1.963   3.600 -0.8758 -0.1757 -0.0493
 6693TIP3   OH220021   6.124   5.622   6.149 -0.1490 -0.2680 -0.3929
 6693TIP3    H120022   6.136   5.698   6.205 -1.2849 -0.4986  0.1702
 6693TIP3    H220023   6.144   5.654   6.061 -1.4968  0.9086 -0.2773
 6694TIP3   OH220024   4.501   2.315   4.078 -0.0734  0.2040 -0.0589
 6694TIP3    H120025   4.503   2.353   4.166 -1.2991 -0.5815  0.3156
 6694TIP3    H220026   4.440   2.370   4.029 -1.0817 -0.6582  0.2061
 6695TIP3   OH220027   6.784   4.465   2.802  0.7333  0.2605  0.4009
 6695TIP3    H120028   6.739   4.544   2.774  1.7012  0.9645  0.7839
 6695TIP3    H220029   6.808   4.482   2.894 -0.8254 -1.2931  1.1256
 6696TIP3   OH220030   5.297   3.172   4.898 -0.0771 -0.1273 -0.3978
 6696TIP3    H120031   5.233   3.117   4.852  0.5154 -0.6830 -0.5738
 6696TIP3    H220032   5.357   3.110   4.939 -1.1604  0.3343  1.9872
 6697TIP3   OH220033   2.768   4.864   5.778 -0.2040  0.0627  0.2829
 6697TIP3    H120034   2.829   4.804   5.734  0.6671 -0.2206  1.8161
 6697TIP3    H220035   2.825   4.928   5.821 -1.0611  0.7874  0.3589
 6698TIP3   OH220036   5.591   3.603   5.118  0.2087  0.3810 -0.2327
 6698TIP3    H120037   5.532   3.642   5.054  1.7345  1.1346 -1.1889
 6698TIP3    H220038   5.614   3.675   5.176  1.5409  0.4903 -0.8851
 6699TIP3   OH220039   2.292   3.314   5.572  0.0823 -0.5022  0.0193
 6699TIP3    H120040   2.335   3.308   5.487  1.6609 -0.0263  0.7629
 6699TIP3    H220041   2.212   3.363   5.555  1.5433  1.6602 -0.7923
 6700TIP3   OH220042   5.692   2.028   3.554  0.6225  0.1086 -0.0660
 6700TIP3    H120043   5.754   2.007   3.623  0.8573 -2.2940 -0.9298
 6700TIP3    H220044   5.612   1.981   3.579 -0.2616  1.6571  0.0854
 6701TIP3   OH220045   4.241   3.048   5.304  0.5513 -0.5588  0.5348
 6701TIP3    H120046   4.296   3.049   5.226  0.0264 -1.1922  0.1524
 6701TIP3    H220047   4.292   2.998   5.369  1.4954  0.9644  0.9855
 6702TIP3   OH220048   3.726   2.985   4.896  0.5313 -0.4983  0.3036
 6702TIP3    H120049   3.810   2.941   4.902 -0.5686 -2.5123  1.5258
 6702TIP3    H220050   3.666   2.919   4.862 -0.9015  0.4100  0.9997
 6703TIP3   OH220051   1.995   4.442   3.003 -0.9962 -0.6526  0.0984
 6703TIP3    H120052   2.077   4.420   3.048 -0.8497  0.1309  0.2195
 6703TIP3    H220053   1.967   4.525   3.043 -1.0159 -0.0944 -1.0517
 6704TIP3   OH220054   2.135   4.076   2.672 -0.9015 -0.0413  0.7233
 6704TIP3    H120055   2.216   4.121   2.652 -1.1145 -0.3607 -0.9286
 6704TIP3    H220056   2.081   4.142   2.716  0.2467  0.1496  1.9026
 6705TIP3   OH220057   5.910   3.584   4.307 -0.0715 -0.0973 -0.4343
 6705TIP3    H120058   5.859   3.509   4.337 -0.6221  0.4678  0.0557
 6705TIP3    H220059   6.000   3.565   4.336 -0.5452  0.2953  1.3247
 6706TIP3   OH220060   1.049   0.518   5.369  0.1849 -0.5353 -0.5861
 6706TIP3    H120061   1.140   0.523   5.397 -0.3751 -2.5229  1.6963
 6706TIP3    H220062   1.006   0.589   5.417 -0.3104 -2.4427  1.8670
 6707TIP3   OH220063   6.107   3.023   4.635  0.0839  0.3154 -0.3757
 6707TIP3    H120064   6.025   3.024   4.684 -0.3211 -0.7755 -1.0152
 6707TIP3    H220065   6.109   3.108   4.590 -0.0480  0.8811  0.6773
 6708TIP3   OH220066   4.070   2.318   5.163  0.1736  0.0789 -0.0481
 6708TIP3    H120067   3.983   2.320   5.202  0.8774  1.6774  1.5284
 6708TIP3    H220068   4.057   2.282   5.076 -1.7839 -1.4315  0.8471
 6709TIP3   OH220069   6.025   2.984   6.880  0.1376 -0.2342  0.4097
 6709TIP3    H120070   5.996   3.071   6.909 -0.4806 -0.1327 -0.4908
 6709TIP3    H220071   6.066   2.945   6.957 -1.4097  0.0629  1.4050
 6710TIP3   OH220072   6.262   3.344   4.991 -0.0576 -0.2736  0.0673
 6710TIP3    H120073   6.321   3.417   4.977 -0.3464 -0.0213  0.1638
 6710TIP3    H220074   6.183   3.367   4.942 -0.0066 -0.6932 -0.2159
 6711TIP3   OH220075   3.966   3.678   5.831 -0.1077 -0.3542 -0.3921
 6711TIP3    H120076   4.033   3.736   5.868  0.4169 -0.9339 -0.4272
 6711TIP3    H220077   3.976   3.687   5.737 -0.4727  0.0002 -0.4019
 6712TIP3   OH220078   3.126   1.822   5.905 -0.0054 -0.7279  0.1643
 6712TIP3    H120079   3.076   1.903   5.912 -0.8252 -1.2553  0.5240
 6712TIP3    H220080   3.214   1.850   5.883 -0.5820  0.1981 -1.0551
 6713TIP3   OH220081   4.364   3.450   3.098  0.3617 -0.0284 -0.4291
 6713TIP3    H120082   4.408   3.526   3.060  3.1378 -0.1182  2.4399
 6713TIP3    H220083   4.433   3.402   3.144 -1.7896 -3.0221 -0.1880
 6714TIP3   OH220084   4.799   1.883   3.935  0.2485  0.2269 -0.3630
 6714TIP3    H120085   4.726   1.945   3.928 -1.0876 -1.0516  1.7393
 6714TIP3    H220086   4.844   1.907   4.015  0.2591 -0.9408 -0.0140
 6715TIP3   OH220087   4.921   2.018   5.731 -0.2057  0.5652 -0.4900
 6715TIP3    H120088   4.893   1.993   5.643 -0.2025  0.8431 -0.5727
 6715TIP3    H220089   4.840   2.019   5.782 -0.2794  0.8771 -0.6085
 6716TIP3   OH220090   4.331   3.485   2.655 -0.0619  0.3151 -0.0251
 6716TIP3    H120091   4.311   3.393   2.673  0.0084 -0.3382 -3.0845
 6716TIP3    H220092   4.427   3.489   2.658 -0.1192  0.8948  2.6690
 6717TIP3   OH220093   3.706   5.804   6.157 -0.2452  0.4815  0.1370
 6717TIP3    H120094   3.713   5.739   6.087  0.0240 -0.8441  1.3659
 6717TIP3    H220095   3.757   5.879   6.126  1.7207 -0.9472 -0.1199
 6718TIP3   OH220096   4.993   0.194   5.624  0.2744  0.1288 -0.1922
 6718TIP3    H120097   4.918   0.185   5.684  2.1798  1.4223  2.4806
 6718TIP3    H220098   4.977   0.276   5.578  0.4130  0.8282  0.9714
 6719TIP3   OH220099   3.950   4.816   6.841  0.2550  0.1352  0.2925
 6719TIP3    H120100   3.866   4.809   6.887 -0.3238 -1.1057 -0.9015
 6719TIP3    H220101   3.981   4.726   6.835  2.4152  0.7237  2.0244
 6720TIP3   OH220102   3.628   4.775   3.155  0.5717  0.7197  0.3531
 6720TIP3    H120103   3.572   4.703   3.183  3.3251 -0.7046  2.4999
 6720TIP3    H220104   3.584   4.811   3.078 -0.7140 -3.5488 -1.1018
 6721TIP3   OH220105   5.231   3.567   4.632  0.6858  0.2249 -0.2580
 6721TIP3    H120106   5.179   3.644   4.611  0.1439  0.0588  0.4676
 6721TIP3    H220107   5.183   3.493   4.595 -0.4073 -0.0957  1.7642
 6722TIP3   OH220108   4.938   3.011   3.719  0.1105  0.0841 -0.4267
 6722TIP3    H120109   4.951   3.104   3.700  3.0346 -0.3616 -0.8011
 6722TIP3    H220110   4.928   3.007   3.814 -0.1001  0.7716 -0.4164
 6723TIP3   OH220111   1.336   7.179   0.249 -0.0099  0.1381  0.1938
 6723TIP3    H120112   1.326   7.274   0.253 -0.9266  0.1225 -1.3756
 6723TIP3    H220113   1.430   7.165   0.241  0.2478  0.8452  1.7926
 6724TIP3   OH220114   3.591   3.129   3.025  0.1560  0.1173  1.0947
 6724TIP3    H120115   3.581   3.034   3.017  1.7844 -0.0774  1.3311
 6724TIP3    H220116   3.553   3.151   3.110 -3.5774  0.2058 -0.4635
 6725TIP3   OH220117   4.333   2.496   4.971  0.1211  0.0942  0.2335
 6725TIP3    H120118   4.255   2.481   4.918  1.2028  0.5807 -1.5572
 6725TIP3    H220119   4.337   2.591   4.982  0.4683  0.0783  0.2707
 6726TIP3   OH220120   1.672   2.143   6.001 -0.2134 -0.1499 -0.3463
 6726TIP3    H120121   1.642   2.056   5.974 -2.4251  1.0842 -2.0230
 6726TIP3    H220122   1.703   2.184   5.920 -0.4441  1.1072  0.1826
 6727TIP3   OH220123   3.477   3.757   4.763  0.8776  0.0996  0.7734
 6727TIP3    H120124   3.498   3.670   4.731  1.7359  0.4657  0.3202
 6727TIP3    H220125   3.526   3.764   4.845  1.6928  0.5564  0.2554
 6728TIP3   OH220126   4.121   3.262   4.138  0.6944 -0.1730 -0.0012
 6728TIP3    H120127   4.166   3.273   4.054  1.2719 -0.5827  0.2516
 6728TIP3    H220128   4.046   3.206   4.118  0.7584 -0.1624 -0.2683
 6729TIP3   OH220129   7.311   6.537   0.329 -0.7012  0.0799 -0.4149
 6729TIP3    H120130   7.343   6.627   0.321  0.4434 -0.3117 -0.4021
 6729TIP3    H220131   7.281   6.514   0.241 -0.4652  0.2823 -0.5502
 6730TIP3   OH220132   4.009   3.761   4.090  0.2903  0.2591 -0.1053
 6730TIP3    H120133   4.012   3.669   4.064  2.3621  0.1364  0.4605
 6730TIP3    H220134   3.950   3.763   4.165  0.3099 -0.6127 -0.0624
 6731TIP3   OH220135   5.982   2.844   4.947  0.4256  0.4653 -0.3023
 6731TIP3    H120136   5.989   2.833   5.041  1.0574  1.1573 -0.2622
 6731TIP3    H220137   6.031   2.771   4.909  1.5034  1.0656 -0.0790
 6732TIP3   OH220138   5.269   2.091   5.110 -0.0157  0.1680  0.6354
 6732TIP3    H120139   5.224   2.009   5.088  1.6454 -1.2225  2.2117
 6732TIP3    H220140   5.212   2.133   5.175  0.5662 -1.2143  2.0623
 6733TIP3   OH220141   0.859   7.615   0.804 -0.0283  0.4499  0.4232
 6733TIP3    H120142   0.873   7.619   0.709  0.4742  0.7166  0.5073
 6733TIP3    H220143   0.771   7.650   0.816 -0.5439 -0.6484 -0.0530
 6734TIP3   OH220144   4.713   3.933   3.863 -0.6776  0.4990 -0.5301
 6734TIP3    H120145   4.657   3.968   3.794 -0.9675 -0.1120 -0.6047
 6734TIP3    H220146   4.655   3.920   3.937 -0.1984  1.9618  0.1106
 6735TIP3   OH220147   4.835   0.488   5.751 -0.1946  0.0191 -0.4833
 6735TIP3    H120148   4.852   0.501   5.658  2.8881 -0.6765 -0.0688
 6735TIP3    H220149   4.833   0.393   5.762  1.1155  0.0829  0.4141
 6736TIP3   OH220150   4.791   0.484   4.243  0.1500 -0.1893 -0.4622
 6736TIP3    H120151   4.868   0.428   4.233  1.2109  0.9286  1.0984
 6736TIP3    H220152   4.783   0.497   4.338 -1.1774  0.7880 -0.6888
 6737TIP3   OH220153   7.941   6.814  -0.012 -0.1778  0.3662  0.1753
 6737TIP3    H120154   7.908   6.757   0.058  0.6026  0.8267  0.9366
 6737TIP3    H220155   7.961   6.896   0.033 -0.3423  0.8963 -0.7306
 6738TIP3   OH220156   5.374   1.379   4.068  0.4176  0.1442 -0.4112
 6738TIP3    H120157   5.282   1.396   4.044 -0.2075 -1.5710  0.6785
 6738TIP3    H220158   5.416   1.360   3.984 -0.4278  0.0493 -0.8289
 6739TIP3   OH220159   0.437   5.571   0.122 -0.0465  0.2156  0.2540
 6739TIP3    H120160   0.492   5.642   0.153 -1.8660  1.1720  1.3817
 6739TIP3    H220161   0.423   5.516   0.199  0.1149 -0.5332 -0.2507
 6740TIP3   OH220162   2.610   2.766   3.407 -0.0156 -0.1061 -0.0288
 6740TIP3    H120163   2.642   2.794   3.322 -1.6110  0.5958 -0.4219
 6740TIP3    H220164   2.670   2.806   3.470  0.0056  1.0276 -0.7489
 6741TIP3   OH220165   5.233   1.007   4.622 -0.1091  0.1213  0.4373
 6741TIP3    H120166   5.228   1.096   4.588  0.3008  1.0467  2.6712
 6741TIP3    H220167   5.214   0.951   4.547 -1.6326  2.1259 -0.7193
 6742TIP3   OH220168   4.279   1.667   5.431 -0.3268  0.3479  0.3218
 6742TIP3    H120169   4.328   1.695   5.354 -1.8171  0.6822 -0.5133
 6742TIP3    H220170   4.303   1.575   5.443 -0.2522  0.2352 -0.6600
 6743TIP3   OH220171   7.741   5.797   0.049  0.1886 -0.4436  0.7375
 6743TIP3    H120172   7.733   5.765  -0.041 -0.4475 -1.7341  1.2355
 6743TIP3    H220173   7.833   5.787   0.069  0.1561 -1.1032  0.5702
 6744TIP3   OH220174   5.195   1.898   5.898  0.7061  0.2756  0.1551
 6744TIP3    H120175   5.207   1.992   5.886 -0.0716  0.2638 -0.7676
 6744TIP3    H220176   5.176   1.888   5.991 -2.1819  1.3652 -0.2824
 6745TIP3   OH220177   6.304   5.906   1.244  0.0758  0.0885 -0.0835
 6745TIP3    H120178   6.312   5.813   1.267  0.9166  0.2679  0.3834
 6745TIP3    H220179   6.299   5.906   1.148  2.7307 -0.2917 -0.2653
 6746TIP3   OH220180   5.033   2.977   5.304 -0.1202  0.0966  0.4282
 6746TIP3    H120181   5.031   3.069   5.276 -0.7133  0.5319  1.8400
 6746TIP3    H220182   5.089   2.934   5.240 -1.2309  1.1024 -1.2700
 6747TIP3   OH220183   3.249   2.279   5.052  0.7956  0.0262 -0.0642
 6747TIP3    H120184   3.226   2.284   5.145  2.0568  1.1590  0.2023
 6747TIP3    H220185   3.174   2.317   5.006  0.6008  0.3982  0.5533
 6748TIP3   OH220186   4.251   5.092   4.405 -0.0810 -0.2073 -0.1384
 6748TIP3    H120187   4.274   5.090   4.312 -0.4149 -1.7403 -0.1907
 6748TIP3    H220188   4.244   5.000   4.430 -0.6707  0.2083  1.2367
 6749TIP3   OH220189   1.864   3.079   4.545 -0.0204 -0.2102  0.4764
 6749TIP3    H120190   1.769   3.088   4.559 -0.6017 -1.7289 -2.1652
 6749TIP3    H220191   1.891   3.013   4.608 -0.7250  0.2095  1.2306
 6750TIP3   OH220192   2.911   2.696   3.758 -0.1121 -0.5852  0.3056
 6750TIP3    H120193   2.963   2.689   3.838 -0.6974  1.1733  0.8651
 6750TIP3    H220194   2.840   2.756   3.781 -0.0183  0.3122 -1.6605
 6751TIP3   OH220195   3.136   1.936   4.852  0.0957  0.2129  0.1408
 6751TIP3    H120196   3.058   1.976   4.813 -0.3397 -0.8048 -0.0584
 6751TIP3    H220197   3.120   1.842   4.846  1.5600 -0.0144 -0.3234
 6752TIP3   OH220198   7.189   3.032   2.668  0.0535 -0.2953 -0.1290
 6752TIP3    H120199   7.150   2.989   2.592  1.9472 -1.2177 -0.6260
 6752TIP3    H220200   7.229   3.112   2.632 -0.1200 -0.0916  0.1263
 6753TIP3   OH220201   5.831   4.318   5.325 -0.3839 -0.2651 -0.1282
 6753TIP3    H120202   5.756   4.267   5.294  0.4526 -1.3093 -0.4964
 6753TIP3    H220203   5.845   4.383   5.256  0.3570 -1.4398 -1.1245
 6754TIP3   OH220204   4.617   2.983   3.351 -0.3844 -0.2912 -0.2189
 6754TIP3    H120205   4.658   2.923   3.413 -1.2310 -1.0140 -0.3468
 6754TIP3    H220206   4.566   3.043   3.406  0.8555  0.6361 -0.0570
 6755TIP3   OH220207   4.211   3.355   3.696 -0.0028 -0.2499 -0.3705
 6755TIP3    H120208   4.165   3.437   3.714  0.2154 -0.5518  1.6901
 6755TIP3    H220209   4.277   3.378   3.630  1.0174  1.5699  1.2353
 6756TIP3   OH220210   3.399   0.939   4.942 -0.8620  0.3801 -0.0612
 6756TIP3    H120211   3.418   1.032   4.946 -1.0314  0.4815 -1.5326
 6756TIP3    H220212   3.306   0.934   4.919 -0.9222 -0.1564  0.2827
 6757TIP3   OH220213   7.800   3.568   4.898  0.0524  0.2919  0.4305
 6757TIP3    H120214   7.776   3.587   4.989 -0.5623 -0.4418  0.4271
 6757TIP3    H220215   7.742   3.496   4.873  1.1756 -0.4496 -0.0842
 6758TIP3   OH220216   7.132   2.448   2.925 -0.0728  0.2609 -0.1224
 6758TIP3    H120217   7.050   2.465   2.973 -0.1171 -0.1228 -0.0648
 6758TIP3    H220218   7.104   2.429   2.836 -0.0388  0.2167 -0.1237
 6759TIP3   OH220219   3.546   3.167   4.814 -0.1836  0.6489 -0.4372
 6759TIP3    H120220   3.514   3.167   4.724 -0.4925 -1.7486 -0.3582
 6759TIP3    H220221   3.634   3.131   4.808 -0.2397  0.4007  0.2209
 6760TIP3   OH220222   4.870   1.543   4.239  0.1437  0.0711 -0.1241
 6760TIP3    H120223   4.822   1.571   4.160  1.0436  1.0013 -0.3460
 6760TIP3    H220224   4.801   1.528   4.304 -0.4159  2.1609 -0.2036
 6761TIP3   OH220225   5.452   1.978   4.477 -0.1064 -0.3517 -0.0610
 6761TIP3    H120226   5.430   1.999   4.568 -0.5074 -2.8071  0.4342
 6761TIP3    H220227   5.464   1.883   4.477  0.2290 -0.3242 -2.5160
 6762TIP3   OH220228   3.086   3.354   2.914  0.7884  0.7971 -0.1455
 6762TIP3    H120229   3.111   3.278   2.967  2.3379  1.0579 -0.4543
 6762TIP3    H220230   3.168   3.380   2.871 -0.4937  0.3588 -2.9629
 6763TIP3   OH220231   4.277   1.696   6.027  0.0548 -0.6269  0.6132
 6763TIP3    H120232   4.253   1.785   6.000 -0.0993 -0.0848  2.4427
 6763TIP3    H220233   4.368   1.686   5.999  0.0223  0.0504  0.2552
 6764TIP3   OH220234   5.973   3.935   4.690  0.4845 -0.3542  0.3089
 6764TIP3    H120235   6.002   3.865   4.631 -0.6656  1.4912 -2.5620
 6764TIP3    H220236   6.052   3.987   4.705  0.9878 -1.3464  1.1651
 6765TIP3   OH220237   6.384   1.445   6.092 -0.2200  0.3858  0.1152
 6765TIP3    H120238   6.343   1.446   6.006 -0.8409  0.4598  0.4114
 6765TIP3    H220239   6.315   1.472   6.152  0.1922  0.2644  0.6464
 6766TIP3   OH220240   3.797   0.347   3.478 -0.1841 -0.3937 -0.3817
 6766TIP3    H120241   3.714   0.370   3.519 -0.4410 -0.1355 -1.0444
 6766TIP3    H220242   3.801   0.252   3.483 -1.4418 -0.5634 -2.1138
 6767TIP3   OH220243   4.689   4.553   5.977  0.1589  0.4971  0.1000
 6767TIP3    H120244   4.700   4.490   5.906 -1.0359 -0.2851  0.5939
 6767TIP3    H220245   4.631   4.620   5.940 -1.0433 -0.2773  0.5513
 6768TIP3   OH220246   3.646   1.949   4.014 -0.0962 -0.0797  0.0437
 6768TIP3    H120247   3.649   1.982   3.924 -1.6717 -0.6445 -0.2330
 6768TIP3    H220248   3.705   1.874   4.014  0.4047  0.3105 -0.3522
 6769TIP3   OH220249   3.675   3.925   4.662  0.4720 -0.0440  0.8548
 6769TIP3    H120250   3.711   3.957   4.745 -1.1327 -0.8488  1.8785
 6769TIP3    H220251   3.612   3.857   4.688  0.1114 -0.4528 -1.0355
 6770TIP3   OH220252   8.451   2.153   5.820  0.0975 -0.9110 -0.0953
 6770TIP3    H120253   8.419   2.164   5.730 -0.8169 -0.3913  0.2809
 6770TIP3    H220254   8.417   2.067   5.847  1.3394 -1.5813 -0.6334
 6771TIP3   OH220255   2.719   0.545   5.333  0.0528  0.0957 -0.0392
 6771TIP3    H120256   2.641   0.546   5.390 -0.1000 -0.9930 -0.2226
 6771TIP3    H220257   2.778   0.610   5.373  0.2689 -1.2022  1.8256
 6772TIP3   OH220258   3.885   2.571   4.670 -0.3806 -0.0191  0.0107
 6772TIP3    H120259   3.797   2.563   4.707 -0.5832 -1.5956 -0.7695
 6772TIP3    H220260   3.870   2.599   4.580 -0.0958 -0.6913 -0.2425
 6773TIP3   OH220261   5.010   2.441   4.839  0.4013 -0.4891  0.3446
 6773TIP3    H120262   5.072   2.417   4.769  0.4731 -1.4926  0.7523
 6773TIP3    H220263   5.056   2.420   4.920 -0.9041 -2.3623  0.6400
 6774TIP3   OH220264   4.928   0.426   5.494  0.1884 -0.6566 -0.0365
 6774TIP3    H120265   4.922   0.404   5.401 -1.2277 -0.7739  0.0693
 6774TIP3    H220266   4.991   0.498   5.497  0.4589 -0.8357 -1.0553
 6775TIP3   OH220267   4.322   3.042   5.052 -0.5571 -0.3663  0.0786
 6775TIP3    H120268   4.402   3.087   5.079  0.4821 -1.2490 -1.4913
 6775TIP3    H220269   4.275   3.107   4.999 -0.9036  0.1421  0.9808
 6776TIP3   OH220270   5.573   1.249   4.206  0.0318  0.0875 -0.0742
 6776TIP3    H120271   5.501   1.292   4.161 -2.3678 -1.0179  2.5685
 6776TIP3    H220272   5.566   1.157   4.180  0.8554  0.0492 -0.2051
 6777TIP3   OH220273   3.861   2.546   4.170  0.7436  0.1702 -0.2517
 6777TIP3    H120274   3.822   2.459   4.183  0.1991  0.5360  0.6138
 6777TIP3    H220275   3.907   2.539   4.086  0.8131 -0.9889 -0.1284
 6778TIP3   OH220276   4.893   1.108   4.762  0.2428  0.2171  0.3894
 6778TIP3    H120277   4.984   1.124   4.789  0.3075  0.6530 -0.0659
 6778TIP3    H220278   4.854   1.060   4.835  0.8046  0.1446  0.6455
 6779TIP3   OH220279   2.800   1.990   5.290  0.4905  0.5098 -0.2113
 6779TIP3    H120280   2.758   1.987   5.376  1.3367 -0.0618  0.1840
 6779TIP3    H220281   2.789   2.081   5.262 -0.3070  0.5547  0.2422
 6780TIP3   OH220282   2.563   3.083   6.243 -0.0681  0.4282  0.9119
 6780TIP3    H120283   2.468   3.078   6.252 -0.2754  0.8529 -0.8653
 6780TIP3    H220284   2.591   3.134   6.319 -1.2908  0.5089  1.3278
 6781TIP3   OH220285   4.732   2.948   5.329 -0.1629 -0.0577 -0.2164
 6781TIP3    H120286   4.683   2.906   5.259  0.7983 -1.4044 -0.1066
 6781TIP3    H220287   4.824   2.936   5.304  0.1619  0.8453  0.4856
 6782TIP3   OH220288   4.965   2.374   2.895  0.0997 -0.1168 -0.1132
 6782TIP3    H120289   5.030   2.403   2.831  0.1004 -0.1248 -0.1163
 6782TIP3    H220290   4.976   2.279   2.899 -0.0539 -0.1413 -0.2702
 6783TIP3   OH220291   5.605   0.180   5.864 -0.9479 -0.0241  0.1205
 6783TIP3    H120292   5.534   0.239   5.835 -0.6662 -0.1721 -0.8855
 6783TIP3    H220293   5.565   0.127   5.933 -0.9516  1.9603  1.7091
 6784TIP3   OH220294   4.130   5.001   5.437 -0.3208 -0.0180 -0.0824
 6784TIP3    H120295   4.101   4.917   5.472  1.3644 -0.4899  0.2316
 6784TIP3    H220296   4.167   5.047   5.512  0.7294  0.1199 -0.6825
 6785TIP3   OH220297   4.118   5.512   5.262  0.1228  0.2210  0.4502
 6785TIP3    H120298   4.058   5.466   5.203  0.9532  1.2748 -1.2461
 6785TIP3    H220299   4.060   5.563   5.318 -0.6506 -0.0427 -0.0873
 6786TIP3   OH220300   4.205   4.045   4.930 -0.1787  0.0171  0.6158
 6786TIP3    H120301   4.200   4.137   4.958 -3.1136 -0.0692  0.5545
 6786TIP3    H220302   4.186   3.995   5.009 -0.9363 -0.4392  0.1535
 6787TIP3   OH220303   3.904   2.528   3.896  0.2928 -0.4960 -0.3410
 6787TIP3    H120304   3.867   2.450   3.855 -3.5102  0.4282  1.1144
 6787TIP3    H220305   3.846   2.599   3.869  2.2119  1.4269  0.4205
 6788TIP3   OH220306   1.013   7.678   0.019  0.2634  0.3239  0.3172
 6788TIP3    H120307   0.924   7.663  -0.014  1.1897  0.1605 -2.2543
 6788TIP3    H220308   1.035   7.596   0.064 -0.0623 -0.5640 -1.0762
 6789TIP3   OH220309   3.015   5.077   6.200  0.0419  0.4868 -0.3071
 6789TIP3    H120310   2.986   5.078   6.291  0.7442  0.8464 -0.0845
 6789TIP3    H220311   3.103   5.040   6.203 -1.1607 -2.6661 -1.2347
 6790TIP3   OH220312   4.744   2.087   4.725  0.5041  0.1150  0.6987
 6790TIP3    H120313   4.766   1.994   4.735 -0.5674 -0.2332 -0.0317
 6790TIP3    H220314   4.767   2.108   4.635 -0.3585  0.2304  0.4943
 6791TIP3   OH220315   5.835   4.376   5.029  0.7158 -0.3254  0.0712
 6791TIP3    H120316   5.866   4.458   4.992  0.8575 -0.0918  0.6971
 6791TIP3    H220317   5.915   4.324   5.041  0.5848 -0.7150 -0.7003
 6792TIP3   OH220318   5.732   0.757   5.394 -0.3954  0.2824 -0.6267
 6792TIP3    H120319   5.690   0.794   5.316 -0.2271  1.7704 -0.0301
 6792TIP3    H220320   5.771   0.675   5.363 -0.6205  0.6817 -2.0248
 6793TIP3   OH220321   6.459   2.067   5.656  0.2267 -0.3161 -0.6699
 6793TIP3    H120322   6.391   2.097   5.596  0.0295  0.0628 -0.2632
 6793TIP3    H220323   6.412   2.034   5.732  0.4910 -0.1514 -0.4312
 6794TIP3   OH220324   4.472   4.434   5.394 -0.0664  0.2974 -0.3377
 6794TIP3    H120325   4.533   4.361   5.390  0.6613  0.8134  0.9432
 6794TIP3    H220326   4.394   4.398   5.436  1.1810  0.8035  2.5555
 6795TIP3   OH220327   0.878   7.496   5.028  0.0114 -0.2189  0.3293
 6795TIP3    H120328   0.907   7.405   5.025 -0.3493 -0.3235  0.0076
 6795TIP3    H220329   0.861   7.513   5.120  1.4887 -0.0341  0.5804
 6796TIP3   OH220330   0.260   7.457   3.128 -0.5494 -0.1927  0.3445
 6796TIP3    H120331   0.233   7.422   3.043  0.1304  0.7477 -0.2692
 6796TIP3    H220332   0.323   7.393   3.162  1.8469  1.1305 -1.4523
 6797TIP3   OH220333   5.697   2.386   4.961  0.0373  0.0535  0.0363
 6797TIP3    H120334   5.638   2.320   4.996 -0.2764 -0.4049 -1.3368
 6797TIP3    H220335   5.782   2.364   5.000 -0.7953  1.1293  2.5453
 6798TIP3   OH220336   3.952   0.712   4.511  0.1494 -0.9364 -0.4128
 6798TIP3    H120337   3.865   0.747   4.492  0.1575 -0.5557  0.2446
 6798TIP3    H220338   3.988   0.771   4.577  0.6369 -1.4954 -0.1752
 6799TIP3   OH220339   6.554   1.183   3.732  0.5071 -0.8097 -0.1705
 6799TIP3    H120340   6.579   1.273   3.709 -1.8844 -0.2551 -0.6807
 6799TIP3    H220341   6.514   1.190   3.818 -0.2445 -1.2911 -0.4749
 6800TIP3   OH220342   3.069   4.875   3.504  0.0046  0.1797 -0.0783
 6800TIP3    H120343   3.142   4.872   3.442  1.3439 -0.0228  1.4603
 6800TIP3    H220344   3.002   4.819   3.465  0.4861  0.7087 -1.7286
 6801TIP3   OH220345   3.609   0.764   4.036 -0.0279 -0.1745 -0.4181
 6801TIP3    H120346   3.699   0.733   4.039  0.3226  0.8526 -0.1822
 6801TIP3    H220347   3.600   0.803   3.949 -0.2185 -0.2079 -0.4135
 6802TIP3   OH220348   5.417   2.011   4.740  0.9360  0.2650  0.1455
 6802TIP3    H120349   5.492   1.995   4.797 -1.2030 -0.0226  2.9783
 6802TIP3    H220350   5.354   1.943   4.764 -1.8382  2.9681  0.7485
 6803TIP3   OH220351   5.907   4.046   3.741 -0.2121  0.4389 -0.5481
 6803TIP3    H120352   5.921   4.122   3.797 -1.4586 -0.2579  0.7330
 6803TIP3    H220353   5.824   4.064   3.696 -1.1823 -0.7423  0.7453
 6804TIP3   OH220354   4.106   4.274   3.174 -0.0576  0.0438 -0.1174
 6804TIP3    H120355   4.103   4.366   3.199  0.5118 -0.0682  0.3713
 6804TIP3    H220356   4.133   4.274   3.082 -0.4581  0.3802 -0.2343
 6805TIP3   OH220357   0.029   4.776   0.283 -0.1008 -0.0927 -0.2251
 6805TIP3    H120358   0.084   4.784   0.361 -1.1767 -0.8767  0.6316
 6805TIP3    H220359   0.076   4.716   0.226  1.9154  2.4055 -1.2780
 6806TIP3   OH220360   6.857   6.048   0.426  0.8201 -0.3933  0.2742
 6806TIP3    H120361   6.894   6.113   0.366  1.7337  0.8105  2.1039
 6806TIP3    H220362   6.915   5.972   0.417  1.3867  0.0497  0.1585
 6807TIP3   OH220363   3.233   3.050   3.591  0.1778 -0.0586  0.6096
 6807TIP3    H120364   3.190   2.967   3.574  0.2941  0.0198 -0.0750
 6807TIP3    H220365   3.306   3.053   3.530  0.4265  0.3608  0.9181
 6808TIP3   OH220366   5.476   3.064   4.332  0.0876 -0.0271  0.3175
 6808TIP3    H120367   5.387   3.035   4.311  0.0116  0.3943  0.0600
 6808TIP3    H220368   5.518   3.078   4.247 -0.1337  1.4008  0.4210
 6809TIP3   OH220369   6.060   4.083   6.149 -0.0362  0.1799  0.0954
 6809TIP3    H120370   6.117   4.010   6.125 -0.1970 -0.3714  1.3691
 6809TIP3    H220371   5.981   4.071   6.097  0.0552 -0.3901  0.0903
 6810TIP3   OH220372   5.881   2.737   3.110 -0.0180 -0.3158  0.1721
 6810TIP3    H120373   5.838   2.820   3.129 -1.1176 -1.0551  1.0089
 6810TIP3    H220374   5.869   2.725   3.015 -0.5830  0.0668  0.1933
 6811TIP3   OH220375   6.915   1.083   2.201  0.4408  0.3977  0.4358
 6811TIP3    H120376   6.830   1.063   2.161 -0.1887  0.5140  1.6791
 6811TIP3    H220377   6.967   1.120   2.130  0.1162 -1.4727 -0.8013
 6812TIP3   OH220378   6.918   0.230   3.617 -0.0057 -0.0284 -0.0183
 6812TIP3    H120379   6.964   0.147   3.602  0.8863  0.3228  0.7850
 6812TIP3    H220380   6.881   0.221   3.704 -1.0998 -0.1262 -0.4809
 6813TIP3   OH220381   4.362   2.338   2.860  0.6737 -0.1800 -0.3004
 6813TIP3    H120382   4.442   2.302   2.823  1.9568  3.4888 -1.3381
 6813TIP3    H220383   4.310   2.365   2.784  0.2513  1.0767  0.4109
 6814TIP3   OH220384   5.858   1.506   3.831  0.1697  0.8819 -0.3107
 6814TIP3    H120385   5.869   1.583   3.775 -0.0727  1.1042 -0.0514
 6814TIP3    H220386   5.765   1.484   3.823 -0.2939  2.0548  1.4835
 6815TIP3   OH220387   4.655   2.620   4.505  0.4140  0.3554 -0.1788
 6815TIP3    H120388   4.718   2.651   4.569 -0.7905  0.9614  0.7450
 6815TIP3    H220389   4.593   2.568   4.556 -0.8450  1.2610 -0.7515
 6816TIP3   OH220390   6.961   4.015   5.705 -0.2027  0.4270 -0.0536
 6816TIP3    H120391   6.955   4.096   5.654  1.5758 -0.0886 -1.1180
 6816TIP3    H220392   6.892   3.959   5.671  0.3678  0.4460 -1.2679
 6817TIP3   OH220393   5.977   4.258   3.928  0.2971  0.5214 -0.1328
 6817TIP3    H120394   5.892   4.247   3.971 -1.4473  1.8865 -3.0529
 6817TIP3    H220395   5.979   4.350   3.902  3.2449  0.7989  0.9494
 6818TIP3   OH220396   4.597   2.097   4.276  0.1387 -0.2258  0.1938
 6818TIP3    H120397   4.562   2.053   4.354  0.7001  0.7685  1.0122
 6818TIP3    H220398   4.680   2.134   4.305  0.1190  0.5705 -0.7606
 6819TIP3   OH220399   0.314   3.367   4.358 -0.2382 -0.1403  0.1992
 6819TIP3    H120400   0.230   3.376   4.313  1.0252 -1.3600 -2.5506
 6819TIP3    H220401   0.364   3.444   4.333  0.4883 -0.8487 -0.6038
 6820TIP3   OH220402   6.425   2.912   6.504 -0.8219 -0.3038 -0.0083
 6820TIP3    H120403   6.469   2.996   6.519  0.9790 -1.3425  0.6508
 6820TIP3    H220404   6.333   2.936   6.488 -0.3346  1.7834  0.1402
 6821TIP3   OH220405   5.864   2.108   5.238  0.2350  0.1947 -0.6733
 6821TIP3    H120406   5.896   2.153   5.160  2.5339 -0.2550 -0.0317
 6821TIP3    H220407   5.862   2.015   5.213  0.1222  0.1435 -0.4734
 6822TIP3   OH220408   6.806   3.064   3.753  0.1381  0.0109 -0.4114
 6822TIP3    H120409   6.866   3.133   3.726 -0.1544  0.1878 -0.6109
 6822TIP3    H220410   6.794   3.078   3.847  1.2483 -0.6764 -0.1551
 6823TIP3   OH220411   4.816   2.623   2.189  0.2506 -0.3482  0.0177
 6823TIP3    H120412   4.848   2.608   2.100  0.0990  0.0541 -0.1039
 6823TIP3    H220413   4.866   2.698   2.221  0.1492 -0.3543  0.1918
 6824TIP3   OH220414   6.430   2.699   3.600 -0.4752 -0.8608  0.4478
 6824TIP3    H120415   6.433   2.650   3.682 -0.2993 -0.3302  0.7583
 6824TIP3    H220416   6.342   2.682   3.565 -1.0603  0.0581  1.4538
 6825TIP3   OH220417   7.868   2.623   3.154 -0.2618  0.6671 -0.5956
 6825TIP3    H120418   7.812   2.680   3.101  0.4436  1.5415 -0.4034
 6825TIP3    H220419   7.950   2.670   3.162  0.0896 -0.0613  0.1698
 6826TIP3   OH220420   7.981   3.634   3.969  0.0214  0.1372 -0.3978
 6826TIP3    H120421   7.939   3.720   3.963  1.5898  0.8563 -1.4000
 6826TIP3    H220422   8.074   3.653   3.967  0.3858 -1.5701 -0.1972
 6827TIP3   OH220423   5.593   3.686   3.897  0.1133  0.4903 -0.3754
 6827TIP3    H120424   5.655   3.631   3.945 -0.1216 -1.1919 -1.9598
 6827TIP3    H220425   5.637   3.706   3.815 -1.0080  0.1550 -1.0672
 6828TIP3   OH220426   5.918   1.798   4.861  0.2243  0.3215 -0.0527
 6828TIP3    H120427   5.970   1.850   4.923 -1.8029 -0.1800  2.1629
 6828TIP3    H220428   5.891   1.721   4.911 -3.9746  1.3387 -0.5604
 6829TIP3   OH220429   5.544   1.210   3.460 -0.2805 -0.0827  0.6457
 6829TIP3    H120430   5.525   1.244   3.372 -2.7734  1.2916  1.6547
 6829TIP3    H220431   5.555   1.289   3.514 -1.8528 -0.8752  2.1648
 6830TIP3   OH220432   6.089   2.958   5.334  0.2418 -0.5471  0.2958
 6830TIP3    H120433   6.075   3.006   5.253 -1.3410 -1.2038  0.1644
 6830TIP3    H220434   6.020   2.988   5.393  1.1294 -0.3672  1.2759
 6831TIP3   OH220435   7.722   4.184   4.503  0.2943  0.2442  0.4848
 6831TIP3    H120436   7.635   4.190   4.543  0.0202 -0.2922 -0.0240
 6831TIP3    H220437   7.707   4.140   4.419  0.8771  1.2622 -0.1641
 6832TIP3   OH220438   7.071   2.271   5.565 -0.1348  0.0496  0.2708
 6832TIP3    H120439   7.114   2.286   5.649  0.1849 -0.0555  0.1288
 6832TIP3    H220440   7.016   2.348   5.552  0.4032  0.4281  0.2184
 6833TIP3   OH220441   6.768   1.351   2.549  0.2138 -0.0633  0.1125
 6833TIP3    H120442   6.836   1.411   2.518 -0.7141 -0.4491 -2.8285
 6833TIP3    H220443   6.704   1.407   2.592  0.9775  0.6389  0.3445
 6834TIP3   OH220444   5.902   2.534   3.799 -0.3417 -0.6474  0.3914
 6834TIP3    H120445   5.957   2.478   3.745 -0.7156 -0.9086  0.2762
 6834TIP3    H220446   5.933   2.520   3.888  0.0455 -0.4852  0.2817
 6835TIP3   OH220447   6.921   3.442   4.008  0.1873  0.1671  0.3136
 6835TIP3    H120448   6.907   3.534   3.986  0.2424  0.6138  2.0653
 6835TIP3    H220449   6.889   3.433   4.098  1.8921 -1.0819  0.8380
 6836TIP3   OH220450   0.690   3.209   1.844 -0.1623 -0.5310 -0.0866
 6836TIP3    H120451   0.670   3.303   1.838  0.3356 -0.3696  0.6199
 6836TIP3    H220452   0.771   3.206   1.895 -0.6970 -1.3946  0.7158
 6837TIP3   OH220453   6.267   1.617   3.934 -0.5401  0.4327  0.4328
 6837TIP3    H120454   6.349   1.635   3.887 -1.1385  0.7832 -0.4807
 6837TIP3    H220455   6.269   1.522   3.950  0.0727  0.4490  0.4590
 6838TIP3   OH220456   7.937   2.787   1.925  0.2867  0.1347 -0.1759
 6838TIP3    H120457   7.919   2.749   1.839  0.9286  0.5965 -0.5192
 6838TIP3    H220458   7.874   2.859   1.933 -0.5450 -0.6342  0.2335
 6839TIP3   OH220459   5.315   0.764   4.746 -0.2631  0.2249  0.7028
 6839TIP3    H120460   5.285   0.851   4.719 -0.0255  0.1164  0.0730
 6839TIP3    H220461   5.352   0.778   4.834 -1.2100  0.5440  1.0569
 6840TIP3   OH220462   4.895   3.698   3.164  0.3600 -0.0274  0.0234
 6840TIP3    H120463   4.808   3.739   3.166 -0.1191 -0.9967 -0.4795
 6840TIP3    H220464   4.943   3.740   3.235 -0.7283  0.0793  0.7040
 6841TIP3   OH220465   6.713   4.840   3.379 -0.6951 -0.4849 -0.0888
 6841TIP3    H120466   6.654   4.827   3.452 -1.1535  1.6765 -0.0281
 6841TIP3    H220467   6.723   4.935   3.373  1.8407 -0.7545 -0.8267
 6842TIP3   OH220468   7.760   4.411   4.911 -0.0548 -0.0882  0.3771
 6842TIP3    H120469   7.833   4.467   4.884 -0.4875 -0.2981 -1.2245
 6842TIP3    H220470   7.783   4.324   4.879 -0.3415 -0.4514  1.1308
 6843TIP3   OH220471   6.715   3.758   5.000 -0.1527 -0.4059 -0.4793
 6843TIP3    H120472   6.703   3.771   4.906  1.4167  0.7997 -0.5390
 6843TIP3    H220473   6.667   3.678   5.019 -2.8870  0.8758 -1.7508
 6844TIP3   OH220474   5.712   4.948   3.902  0.4965  0.7908  0.3332
 6844TIP3    H120475   5.642   5.011   3.889  0.8919  1.0801 -0.4460
 6844TIP3    H220476   5.764   4.953   3.821  0.7505 -0.2503  0.4244
 6845TIP3   OH220477   6.093   1.857   3.241  0.0402 -0.2879 -0.4051
 6845TIP3    H120478   6.109   1.777   3.293  0.7854 -0.3208 -0.6700
 6845TIP3    H220479   6.096   1.928   3.306  1.2987 -0.2977 -0.4301
 6846TIP3   OH220480   5.869   3.389   3.310  0.0284  0.0492 -0.3203
 6846TIP3    H120481   5.862   3.471   3.359  2.3938 -0.5937  1.1803
 6846TIP3    H220482   5.881   3.417   3.219  0.1889  1.3840  0.0903
 6847TIP3   OH220483   7.974   2.500   4.374  0.5869 -0.2256  0.1175
 6847TIP3    H120484   7.983   2.515   4.468  1.8112  0.7377 -0.1431
 6847TIP3    H220485   8.060   2.520   4.338 -0.3487  1.1598 -1.4335
 6848TIP3   OH220486   4.287   1.460   0.092  0.4297  0.3913 -0.5098
 6848TIP3    H120487   4.211   1.491   0.043 -1.2385  0.0788  1.8071
 6848TIP3    H220488   4.340   1.539   0.105  0.0763  0.7826 -1.3569
 6849TIP3   OH220489   5.914   3.661   5.883 -0.1942  0.4959  0.3571
 6849TIP3    H120490   5.994   3.616   5.858  0.6001  1.1365  1.6565
 6849TIP3    H220491   5.851   3.592   5.901  0.0566 -0.0102 -0.6683
 6850TIP3   OH220492   5.285   2.707   1.694 -0.4319 -0.3711  0.2369
 6850TIP3    H120493   5.227   2.696   1.769 -1.1375  2.2820  0.1353
 6850TIP3    H220494   5.275   2.799   1.669  1.8106 -0.5370 -1.4542
 6851TIP3   OH220495   6.631   2.246   4.822  0.1056 -0.2406 -0.4616
 6851TIP3    H120496   6.653   2.153   4.830  0.7073 -0.1198 -0.6542
 6851TIP3    H220497   6.565   2.249   4.753  0.1059 -0.5269 -0.4768
 6852TIP3   OH220498   5.658   2.808   0.856 -0.0773  0.2077 -1.2715
 6852TIP3    H120499   5.700   2.894   0.847 -0.1398  0.2186 -1.4652
 6852TIP3    H220500   5.581   2.825   0.911  1.6896 -0.3128  1.4506
 6853TIP3   OH220501   6.609   3.070   4.486  0.5411 -0.2574  0.4819
 6853TIP3    H120502   6.528   3.120   4.477  0.8728  0.1806 -0.0638
 6853TIP3    H220503   6.670   3.111   4.424  0.6032 -1.7673 -0.4750
 6854TIP3   OH220504   5.164   3.287   6.621  0.2059  0.1393 -0.2740
 6854TIP3    H120505   5.236   3.350   6.631  0.6051  0.0735 -2.4350
 6854TIP3    H220506   5.184   3.241   6.539 -1.4434 -1.0154 -0.0479
 6855TIP3   OH220507   6.234   2.963   3.385  0.1910 -0.7410  0.2436
 6855TIP3    H120508   6.151   3.007   3.368  0.6911  0.6573  1.3458
 6855TIP3    H220509   6.225   2.878   3.342 -1.6427 -0.4430 -0.0027
 6856TIP3   OH220510   6.612   3.939   3.384  0.3274 -0.1111 -0.4481
 6856TIP3    H120511   6.573   3.868   3.333 -1.0797  0.7722 -0.6230
 6856TIP3    H220512   6.537   3.987   3.419  1.2567  2.0259 -1.3460
 6857TIP3   OH220513   5.844   2.957   3.530  0.4856 -0.6693 -0.7248
 6857TIP3    H120514   5.877   3.018   3.465  0.0087  1.0909  0.6463
 6857TIP3    H220515   5.894   2.977   3.610 -1.6866 -0.0306  0.5366
 6858TIP3   OH220516   4.614   4.619   3.474 -0.5080 -0.1205 -0.8566
 6858TIP3    H120517   4.657   4.587   3.553 -1.6490 -1.1960 -0.6577
 6858TIP3    H220518   4.656   4.703   3.456 -0.0443 -0.0006  0.7208
 6859TIP3   OH220519   5.302   1.575   4.309 -0.5172  0.4520  0.5453
 6859TIP3    H120520   5.383   1.557   4.262 -0.0033  0.2409  1.5025
 6859TIP3    H220521   5.326   1.641   4.374 -1.3356  1.1154  0.1910
 6860TIP3   OH220522   4.416   3.835   6.036  0.2232 -0.5735 -1.0205
 6860TIP3    H120523   4.419   3.919   6.081  0.8918 -1.2228  0.1741
 6860TIP3    H220524   4.458   3.851   5.952 -1.0244  0.6453 -1.4165
 6861TIP3   OH220525   4.425   4.152   2.945  0.2496  0.5027  0.0459
 6861TIP3    H120526   4.500   4.212   2.950  0.1841  0.8782 -2.7465
 6861TIP3    H220527   4.349   4.210   2.935  0.2666  0.0222 -3.4971
 6862TIP3   OH220528   7.286   2.392   5.368  0.7171 -0.8008  0.4485
 6862TIP3    H120529   7.376   2.389   5.400  0.2952  0.0995  1.7782
 6862TIP3    H220530   7.232   2.373   5.445 -0.3552  2.1906  0.5135
 6863TIP3   OH220531   5.330   1.782   4.844 -0.0704  0.2319  0.5072
 6863TIP3    H120532   5.269   1.791   4.918 -0.7738  0.5003 -0.0994
 6863TIP3    H220533   5.294   1.711   4.792  0.9496 -0.5887  0.9175
 6864TIP3   OH220534   7.579   3.211   3.397  0.3135  0.3804 -0.3980
 6864TIP3    H120535   7.588   3.266   3.319 -3.4930 -0.3946 -1.4603
 6864TIP3    H220536   7.647   3.144   3.387  1.8920  2.0869 -1.4400
 6865TIP3   OH220537   6.790   2.480   2.046  0.0298  0.0697  0.7335
 6865TIP3    H120538   6.695   2.475   2.059  0.1158 -0.9153  1.0040
 6865TIP3    H220539   6.825   2.405   2.094  1.0479  1.0632  1.5665
 6866TIP3   OH220540   5.698   3.924   2.313 -0.1305 -0.8640 -0.1585
 6866TIP3    H120541   5.612   3.961   2.333 -0.1291  0.7542 -2.7977
 6866TIP3    H220542   5.758   3.967   2.374 -0.8561 -0.2165  0.1079
 6867TIP3   OH220543   0.545   1.185   4.580 -0.1164 -0.0149 -0.3101
 6867TIP3    H120544   0.521   1.131   4.505 -1.1086  2.6234 -1.9472
 6867TIP3    H220545   0.461   1.217   4.615  0.5124  2.3039 -0.8090
 6868TIP3   OH220546   4.888   2.107   4.486 -0.2245 -0.0251 -0.2771
 6868TIP3    H120547   4.931   2.140   4.407 -0.5061  2.0021  0.4110
 6868TIP3    H220548   4.950   2.043   4.521  0.2174 -0.4152 -1.7459
 6869TIP3   OH220549   5.844   2.458   1.711  0.5189  0.2576 -0.5692
 6869TIP3    H120550   5.930   2.437   1.676  0.5306  1.0420 -1.0251
 6869TIP3    H220551   5.842   2.416   1.797  0.5588 -1.5366 -1.4271
 6870TIP3   OH220552   4.920   4.043   3.998 -0.4206  0.2135 -0.5581
 6870TIP3    H120553   4.857   4.010   3.933 -0.7959 -0.4237  0.1224
 6870TIP3    H220554   4.873   4.113   4.044 -0.7984 -0.5632  0.2521
 6871TIP3   OH220555   4.292   1.990   5.213 -0.5539 -0.2233  0.5948
 6871TIP3    H120556   4.311   2.075   5.175 -0.1746 -0.3208  0.5689
 6871TIP3    H220557   4.330   1.992   5.300 -1.7994  0.1562  1.1438
 6872TIP3   OH220558   5.425   4.957   2.410 -0.5154  0.0707  0.1103
 6872TIP3    H120559   5.338   4.941   2.446 -0.5970  1.8544  0.7280
 6872TIP3    H220560   5.485   4.923   2.477 -0.7138  0.3567  0.4337
 6873TIP3   OH220561   6.492   3.350   3.852 -0.2081  0.5347  0.7040
 6873TIP3    H120562   6.451   3.434   3.877  0.4722  1.0502  0.1030
 6873TIP3    H220563   6.561   3.337   3.917  1.2301  1.6260 -0.5506
 6874TIP3   OH220564   7.267   1.420   2.124 -0.0018 -0.0110 -0.0131
 6874TIP3    H120565   7.207   1.444   2.054  0.8628  1.2375 -0.3324
 6874TIP3    H220566   7.241   1.331   2.149 -0.1332 -0.5735 -2.1010
 6875TIP3   OH220567   6.195   2.403   3.741 -0.5628 -0.1175  0.2522
 6875TIP3    H120568   6.185   2.316   3.702 -2.5224  0.9487 -1.6703
 6875TIP3    H220569   6.271   2.394   3.799 -0.2679 -2.9002 -0.5011
 6876TIP3   OH220570   6.487   2.565   4.205 -0.2401 -0.1040 -1.0785
 6876TIP3    H120571   6.469   2.654   4.234 -0.4181 -0.5331  0.1553
 6876TIP3    H220572   6.401   2.524   4.195 -0.1386 -0.3861 -0.8267
 6877TIP3   OH220573   3.983   3.136   5.141 -0.1495  0.0489  0.1284
 6877TIP3    H120574   4.074   3.109   5.158 -0.0616  0.3777  0.1779
 6877TIP3    H220575   3.977   3.138   5.045 -0.3504 -0.8060  0.1199
 6878TIP3   OH220576   7.319   2.396   5.996 -0.4065  0.2966 -0.3262
 6878TIP3    H120577   7.253   2.403   6.065  1.1447  0.6111  1.1759
 6878TIP3    H220578   7.382   2.332   6.030  0.0875  0.0507 -1.6915
 6879TIP3   OH220579   5.205   2.321   4.554 -0.5666 -0.2534 -0.1685
 6879TIP3    H120580   5.199   2.360   4.467 -3.4962 -0.1829  0.0240
 6879TIP3    H220581   5.148   2.245   4.551 -2.4087  0.9616  2.2847
 6880TIP3   OH220582   2.659   1.813   3.319 -0.3749 -0.0810  0.6213
 6880TIP3    H120583   2.590   1.750   3.297 -0.0943 -0.2060  0.0871
 6880TIP3    H220584   2.737   1.779   3.276 -0.1405  0.4498  0.6191
 6881TIP3   OH220585   6.054   2.382   3.468 -0.2431  0.2329  0.3666
 6881TIP3    H120586   5.979   2.351   3.521 -0.3775  0.1714  0.1422
 6881TIP3    H220587   6.036   2.348   3.380 -0.7541  1.5503 -0.0516
 6882TIP3   OH220588   6.837   2.788   2.582 -0.2335  0.6299 -0.1542
 6882TIP3    H120589   6.827   2.875   2.622  1.8399  0.6750  0.2951
 6882TIP3    H220590   6.776   2.790   2.508 -2.0932  1.5327  1.3454
 6883TIP3   OH220591   6.745   2.647   3.612  0.1417  0.2767  0.1091
 6883TIP3    H120592   6.769   2.572   3.667 -1.4490 -0.6854 -0.4632
 6883TIP3    H220593   6.795   2.635   3.531  0.6847  0.3997  0.4301
 6884TIP3   OH220594   8.332   0.324   3.628 -0.0808 -0.0902  0.0215
 6884TIP3    H120595   8.368   0.399   3.676 -1.4081  0.0101  0.8616
 6884TIP3    H220596   8.306   0.360   3.543 -2.2370  0.7557  1.0257
 6885TIP3   OH220597   3.793   3.223   4.640  0.0519 -0.2794 -0.0749
 6885TIP3    H120598   3.827   3.294   4.694 -1.1639  1.6226 -1.7328
 6885TIP3    H220599   3.700   3.241   4.632  0.0105 -1.1603 -1.8400
 6886TIP3   OH220600   6.955   3.515   3.003 -0.1273  0.4042  0.1808
 6886TIP3    H120601   6.870   3.520   2.960 -0.4380  1.3932  0.8996
 6886TIP3    H220602   7.018   3.530   2.932 -0.6178  1.5624 -0.0318
 6887TIP3   OH220603   5.209   2.272   5.408  1.1248 -0.0238 -0.0457
 6887TIP3    H120604   5.196   2.202   5.472 -0.2829  1.4884  1.3695
 6887TIP3    H220605   5.131   2.270   5.353  0.8429  0.7375  0.3145
 6888TIP3   OH220606   5.440   2.832   3.954  0.7468 -0.0353 -0.5103
 6888TIP3    H120607   5.523   2.831   3.907  1.2706  0.5991  0.3869
 6888TIP3    H220608   5.413   2.924   3.953  0.9848  0.0598  0.8049
 6889TIP3   OH220609   6.643   2.968   2.211 -0.1742  0.2492 -0.4128
 6889TIP3    H120610   6.566   3.008   2.171 -1.1683  0.9425  2.0985
 6889TIP3    H220611   6.717   3.001   2.159 -1.4321  0.9425 -1.7894
 6890TIP3   OH220612   6.097   2.271   2.648 -0.4815  0.1004 -0.0496
 6890TIP3    H120613   6.123   2.335   2.714 -0.2725  0.3541 -0.3794
 6890TIP3    H220614   6.085   2.322   2.568  0.1423 -0.3418 -0.4271
 6891TIP3   OH220615   5.775   2.038   3.304 -1.1975  0.3748  0.2960
 6891TIP3    H120616   5.755   2.041   3.398 -1.0068 -1.0531  0.3965
 6891TIP3    H220617   5.775   1.945   3.283  1.6543  0.5328 -0.5002
 6892TIP3   OH220618   7.193   3.354   3.113 -0.2867 -0.1148  0.3339
 6892TIP3    H120619   7.107   3.385   3.084 -0.4446 -0.3684  0.5239
 6892TIP3    H220620   7.204   3.270   3.069  1.0825  1.1729 -1.8673
 6893TIP3   OH220621   4.986   3.906   3.378 -0.3058 -0.1474 -0.1205
 6893TIP3    H120622   5.026   3.943   3.457 -0.2736 -1.6260  0.5608
 6893TIP3    H220623   4.953   3.983   3.330 -0.3008  0.7647  1.3051
 6894TIP3   OH220624   4.594   2.610   4.230  0.0837  0.7823  0.2580
 6894TIP3    H120625   4.644   2.638   4.307  0.4764 -1.1731  0.7416
 6894TIP3    H220626   4.520   2.561   4.266  1.1539 -1.5585 -0.6029
 6895TIP3   OH220627   6.366   2.438   2.622 -0.1463  0.1133  0.4002
 6895TIP3    H120628   6.369   2.359   2.675 -0.6966  0.0833  0.3864
 6895TIP3    H220629   6.441   2.490   2.652 -0.1420 -0.1430  0.8291
 6896TIP3   OH220630   7.118   0.279   2.255  0.1862  0.4539 -0.2401
 6896TIP3    H120631   7.198   0.232   2.278 -1.3127 -1.3565  1.4527
 6896TIP3    H220632   7.085   0.233   2.177  0.0817  0.3228 -0.1193
 6897TIP3   OH220633   4.933   1.547   2.023  0.2171 -0.2844  0.2563
 6897TIP3    H120634   4.853   1.596   2.043  0.3309 -0.6161  1.5843
 6897TIP3    H220635   4.901   1.470   1.975 -0.2097 -0.1854  0.3758
 6898TIP3   OH220636   7.572   3.316   4.525  0.5899 -0.1662  0.2638
 6898TIP3    H120637   7.509   3.384   4.502  2.3056  1.8308  1.3199
 6898TIP3    H220638   7.563   3.251   4.455 -1.5452  0.7913 -0.4022
 6899TIP3   OH220639   7.663   4.764   2.395 -0.6096 -0.0401 -0.2943
 6899TIP3    H120640   7.632   4.786   2.307 -1.0365 -1.2493 -0.4548
 6899TIP3    H220641   7.600   4.804   2.454  0.0377  1.3282 -0.5210
 6900TIP3   OH220642   5.642   3.207   2.836  0.3921  0.0787 -0.6733
 6900TIP3    H120643   5.547   3.215   2.842  0.4224 -0.3045  0.3881
 6900TIP3    H220644   5.669   3.284   2.785 -0.3425  1.0275  0.3326
 6901TIP3   OH220645   7.751   3.112   2.110 -0.0702 -0.2717  0.1551
 6901TIP3    H120646   7.773   3.065   2.190  1.1498  0.4359  0.2524
 6901TIP3    H220647   7.712   3.046   2.053 -1.2374 -0.7159  1.4351
 6902TIP3   OH220648   6.491   2.779   3.912 -0.5773 -0.3307 -0.0821
 6902TIP3    H120649   6.501   2.874   3.922  1.2553 -0.3569 -1.3328
 6902TIP3    H220650   6.397   2.764   3.917 -0.9584  1.6668 -0.7442
 6903TIP3   OH220651   5.975   3.152   2.556 -0.0515 -0.3380  0.6311
 6903TIP3    H120652   6.053   3.104   2.530  0.1661 -0.1301  0.9052
 6903TIP3    H220653   5.959   3.213   2.484  0.9835  0.7595  1.3146
 6904TIP3   OH220654   7.045   4.581   4.416  0.3106 -0.0927  0.0787
 6904TIP3    H120655   7.024   4.648   4.350  0.3436  0.6116  0.7710
 6904TIP3    H220656   7.062   4.631   4.496  1.8010 -0.8356  0.2451
 6905TIP3   OH220657   7.300   3.331   5.166 -0.2575 -0.0740  0.2372
 6905TIP3    H120658   7.258   3.382   5.235 -0.2656  0.3796 -0.1067
 6905TIP3    H220659   7.323   3.395   5.099  4.1405  0.3233  1.9049
 6906TIP3   OH220660   0.115   3.087   5.804  0.0453 -0.0821 -0.2278
 6906TIP3    H120661   0.175   3.123   5.738  0.9920  1.0009  1.2016
 6906TIP3    H220662   0.030   3.084   5.759  0.4612  1.5783 -1.2014
 6907TIP3   OH220663   5.246   2.885   2.843 -0.1698  0.4197  0.4023
 6907TIP3    H120664   5.204   2.931   2.916  0.1381 -1.4051  1.7789
 6907TIP3    H220665   5.185   2.814   2.821  1.8373 -1.8870  2.0241
 6908TIP3   OH220666   5.251   2.955   3.584 -0.6999  0.1648  0.1166
 6908TIP3    H120667   5.220   2.951   3.674  0.7943  2.3736  0.7585
 6908TIP3    H220668   5.344   2.931   3.588 -0.2742  1.5907 -0.6112
 6909TIP3   OH220669   3.828   0.347   6.154  0.1098  0.0064  0.3511
 6909TIP3    H120670   3.756   0.332   6.215  0.5641  0.1913  0.9449
 6909TIP3    H220671   3.877   0.420   6.193  0.8099 -0.3484  0.1337
 6910TIP3   OH220672   5.953   2.063   5.510  0.4108 -0.0780 -0.1116
 6910TIP3    H120673   5.940   2.045   5.417  0.4797 -0.7238  0.0011
 6910TIP3    H220674   5.974   1.978   5.548  1.0757  0.2939  0.3746
 6911TIP3   OH220675   7.774   0.997   2.616 -0.3593  0.6298  0.0880
 6911TIP3    H120676   7.731   0.988   2.531  1.6529  0.1340 -0.9291
 6911TIP3    H220677   7.792   1.090   2.624 -0.7445  0.7065  0.0654
 6912TIP3   OH220678   4.854   2.463   4.245 -0.0870 -0.0560  0.3979
 6912TIP3    H120679   4.812   2.493   4.164  0.9130 -0.7550 -0.3926
 6912TIP3    H220680   4.793   2.488   4.314 -1.3813 -0.2562 -0.6542
 6913TIP3   OH220681   4.454   4.386   3.320 -0.0077 -0.5312 -0.1279
 6913TIP3    H120682   4.488   4.467   3.356 -1.7577  0.5127 -0.7248
 6913TIP3    H220683   4.391   4.355   3.385 -0.3258 -0.6898 -0.5060
 6914TIP3   OH220684   5.424   1.335   4.749  0.2906  0.3538 -0.4855
 6914TIP3    H120685   5.510   1.335   4.707  0.1106 -1.7127 -0.8826
 6914TIP3    H220686   5.435   1.282   4.828 -1.1477 -1.7828 -1.6773
 6915TIP3   OH220687   5.560   2.589   5.584 -0.1283  0.3476 -0.3656
 6915TIP3    H120688   5.508   2.571   5.663 -3.2031  2.0581 -1.8826
 6915TIP3    H220689   5.540   2.680   5.562  3.2207  0.9131 -1.3230
 6916TIP3   OH220690   6.420   1.685   3.102  0.1339 -0.2317  0.0109
 6916TIP3    H120691   6.343   1.735   3.076  0.5015 -0.3681 -1.3945
 6916TIP3    H220692   6.433   1.707   3.195 -2.0011 -0.7879  0.4595
 6917TIP3   OH220693   7.154   0.015   3.612 -0.2850 -0.0434 -0.7480
 6917TIP3    H120694   7.233   0.009   3.558  0.7311  0.2619  0.6517
 6917TIP3    H220695   7.183  -0.016   3.698 -1.1160  2.1473  0.3582
 6918TIP3   OH220696   4.966   3.252   2.995  0.3819  0.3979  0.3503
 6918TIP3    H120697   4.920   3.231   2.914 -1.1048  2.0482  0.7330
 6918TIP3    H220698   4.910   3.218   3.065 -0.5469  2.8431  0.8419
 6919TIP3   OH220699   3.614   1.419   5.361 -0.3303  0.4078 -0.5239
 6919TIP3    H120700   3.529   1.381   5.341  0.7039 -2.0118 -0.4946
 6919TIP3    H220701   3.638   1.468   5.283 -1.3084  0.2912 -0.9042
 6920TIP3   OH220702   4.331   4.334   2.091 -0.6177  0.0298 -0.3920
 6920TIP3    H120703   4.288   4.324   2.006 -1.3420 -1.8802  0.1869
 6920TIP3    H220704   4.282   4.404   2.135 -1.8888 -0.7742 -0.5141
 6921TIP3   OH220705   7.910   0.533   3.749 -0.2917  0.1386  0.0305
 6921TIP3    H120706   8.005   0.540   3.761 -0.4898  0.6591  1.3589
 6921TIP3    H220707   7.883   0.621   3.722 -0.1276 -0.5246 -2.4140
 6922TIP3   OH220708   5.687   2.955   3.128  0.3245  0.0037 -0.0184
 6922TIP3    H120709   5.669   3.045   3.157  1.0050  0.1238  0.0343
 6922TIP3    H220710   5.600   2.914   3.122  0.0804  0.3860  0.8508
 6923TIP3   OH220711   3.674   1.572   4.759  0.3113  0.2050  0.2405
 6923TIP3    H120712   3.704   1.482   4.744 -2.5367 -0.5912 -0.9965
 6923TIP3    H220713   3.720   1.624   4.693  1.7306 -0.3884  0.7537
 6924TIP3   OH220714   7.328   3.365   3.369  0.0690 -0.2498 -0.4398
 6924TIP3    H120715   7.421   3.383   3.360 -0.1498  0.8301 -0.5820
 6924TIP3    H220716   7.294   3.369   3.280 -0.5699  1.9686 -0.1312
 6925TIP3   OH220717   5.412   3.362   2.671  0.4518 -0.3000 -0.1768
 6925TIP3    H120718   5.390   3.392   2.759  0.4441  0.6161 -0.4910
 6925TIP3    H220719   5.336   3.311   2.642 -0.4636  1.2517 -0.5172
 6926TIP3   OH220720   6.374   3.038   3.897  0.4935  0.1848  0.0505
 6926TIP3    H120721   6.382   3.114   3.840 -2.3254  0.6361  0.1810
 6926TIP3    H220722   6.325   2.974   3.845 -0.6329 -0.0348  1.3357
 6927TIP3   OH220723   5.859   4.797   3.171  0.0319 -0.7467  0.0126
 6927TIP3    H120724   5.950   4.789   3.141  0.0344 -1.3916  0.1768
 6927TIP3    H220725   5.857   4.879   3.219  0.7452 -1.1403  0.7458
 6928TIP3   OH220726   6.159   5.042   3.302 -0.3980  0.3286  0.0633
 6928TIP3    H120727   6.166   5.025   3.395 -0.0469 -0.1317 -0.0494
 6928TIP3    H220728   6.168   4.956   3.260 -1.9003  0.3436 -0.3242
 6929TIP3   OH220729   6.194   0.927   4.019 -0.5141  0.7041 -0.4275
 6929TIP3    H120730   6.257   0.862   3.987 -0.4880  0.3475  0.3364
 6929TIP3    H220731   6.115   0.912   3.966 -0.2599  0.5464 -0.7639
 6930TIP3   OH220732   6.346   3.640   4.609  0.0173 -0.5824  0.2799
 6930TIP3    H120733   6.346   3.704   4.537  1.0614 -1.6401 -0.6897
 6930TIP3    H220734   6.433   3.648   4.648  0.3052 -1.6967 -0.1178
 6931TIP3   OH220735   4.264   3.644   3.714 -0.0328 -0.0386  0.1227
 6931TIP3    H120736   4.312   3.614   3.637  1.2545 -0.2908  1.0092
 6931TIP3    H220737   4.274   3.739   3.714  0.4933 -0.0955  0.3299
 6932TIP3   OH220738   6.074   3.803   4.478  0.0552  0.4934 -0.2935
 6932TIP3    H120739   6.015   3.745   4.429  0.5843 -2.2195  2.1096
 6932TIP3    H220740   6.043   3.891   4.458 -4.3975 -0.8082  0.2929
 6933TIP3   OH220741   6.038   4.672   5.138  0.4344  0.4487  0.2057
 6933TIP3    H120742   6.128   4.643   5.118  0.4574  0.4148  0.3574
 6933TIP3    H220743   5.992   4.665   5.055  0.4896  0.1495  0.1976
 6934TIP3   OH220744   0.513   3.440   5.281 -0.5639  0.1421  0.3286
 6934TIP3    H120745   0.562   3.378   5.336 -2.2757  0.3022  2.1031
 6934TIP3    H220746   0.484   3.507   5.343 -2.5633  0.3164 -0.7736
 6935TIP3   OH220747   5.855   1.024   0.648 -0.3239 -0.2361 -0.7296
 6935TIP3    H120748   5.905   1.016   0.567 -0.0916 -0.8434 -0.5274
 6935TIP3    H220749   5.767   0.994   0.625 -0.2816 -0.3213 -0.7822
 6936TIP3   OH220750   8.158   4.764   4.067  0.4612  0.0454 -0.5386
 6936TIP3    H120751   8.199   4.805   4.143 -2.4758  3.2991 -0.6042
 6936TIP3    H220752   8.091   4.707   4.103  0.3818  0.0769 -0.6343
 6937TIP3   OH220753   4.298   3.222   2.756  0.0242 -0.1417 -0.2005
 6937TIP3    H120754   4.378   3.228   2.809 -0.6662 -0.0614  0.8358
 6937TIP3    H220755   4.249   3.149   2.794 -0.5465  0.0182 -0.6252
 6938TIP3   OH220756   4.857   3.334   5.022  0.1004 -0.1805 -0.5385
 6938TIP3    H120757   4.951   3.334   5.003  0.2676 -1.7011  0.1835
 6938TIP3    H220758   4.849   3.382   5.104  0.1504  0.5951 -0.9802
 6939TIP3   OH220759   5.409   4.281   4.502 -0.1913 -0.3117  0.4552
 6939TIP3    H120760   5.348   4.237   4.442 -1.6861 -0.7251  2.2103
 6939TIP3    H220761   5.460   4.211   4.541  0.8055 -0.0419 -0.3459
 6940TIP3   OH220762   4.736   4.397   1.934 -0.0646  0.6005 -0.7317
 6940TIP3    H120763   4.731   4.339   2.010 -0.0887 -0.8691 -1.8217
 6940TIP3    H220764   4.672   4.465   1.952 -1.1574 -0.5610 -0.1138
 6941TIP3   OH220765   6.245   4.305   5.267  0.0354  0.2505 -0.1579
 6941TIP3    H120766   6.319   4.352   5.305 -0.1817  0.2699  0.2412
 6941TIP3    H220767   6.227   4.351   5.185  0.4974  0.2135 -0.2812
 6942TIP3   OH220768   4.831   3.229   2.768 -0.1460  0.3849 -0.2121
 6942TIP3    H120769   4.853   3.156   2.710  0.5750  0.6851 -0.3101
 6942TIP3    H220770   4.854   3.307   2.718  1.8657  0.6268  1.0390
 6943TIP3   OH220771   5.728   3.794   5.285  0.3390 -0.3793 -0.4390
 6943TIP3    H120772   5.800   3.740   5.320  0.1766 -0.3263 -0.0236
 6943TIP3    H220773   5.772   3.869   5.244  0.4751  0.2343  0.8137
 6944TIP3   OH220774   4.190   1.945   4.501  0.1099 -0.0721 -0.4276
 6944TIP3    H120775   4.192   1.853   4.473 -0.8088 -0.6326  1.2619
 6944TIP3    H220776   4.106   1.978   4.469  0.5782  0.2808 -1.3084
 6945TIP3   OH220777   5.228   4.720   2.186  0.4633  0.0195  0.2085
 6945TIP3    H120778   5.270   4.758   2.108  0.6823 -0.4549  0.0898
 6945TIP3    H220779   5.164   4.659   2.151 -0.0867  0.4889  0.3972
 6946TIP3   OH220780   5.918   4.216   2.877 -0.1097 -0.2308 -0.2674
 6946TIP3    H120781   5.886   4.298   2.840  1.6908  0.0822 -1.2257
 6946TIP3    H220782   5.950   4.239   2.964  1.0815  0.2443 -0.8266
 6947TIP3   OH220783   6.789   3.480   4.695  0.3051  0.3173 -0.0624
 6947TIP3    H120784   6.732   3.427   4.751  2.3540 -0.2957  1.4963
 6947TIP3    H220785   6.743   3.563   4.687 -1.5502 -0.6736 -0.1295
 6948TIP3   OH220786   6.577   3.167   6.190  0.1539 -0.0357 -0.2073
 6948TIP3    H120787   6.670   3.190   6.184 -0.0545  0.9561  0.3194
 6948TIP3    H220788   6.532   3.250   6.201 -0.8237 -0.4971 -0.6215
 6949TIP3   OH220789   5.944   5.220   3.246 -0.0990 -0.5414  0.0910
 6949TIP3    H120790   6.029   5.176   3.244  0.0996 -0.1236 -0.6654
 6949TIP3    H220791   5.881   5.150   3.264  0.4866 -0.7241  1.5119
 6950TIP3   OH220792   8.091   5.178   5.199 -0.4398  0.1296 -0.1126
 6950TIP3    H120793   8.004   5.209   5.177 -0.8121 -0.0609  1.0603
 6950TIP3    H220794   8.149   5.252   5.178 -0.9946  0.5935 -0.0045
 6951TIP3   OH220795   5.682   1.395   2.854 -0.6262  0.1587  0.3564
 6951TIP3    H120796   5.674   1.315   2.905  3.3500  0.4647  1.6639
 6951TIP3    H220797   5.743   1.373   2.784  2.1548  2.4986  1.9259
 6952TIP3   OH220798   2.006   2.987   0.052 -0.4195  0.1845  0.2461
 6952TIP3    H120799   1.943   3.004  -0.018  0.6330  0.8417 -0.5626
 6952TIP3    H220800   2.085   2.959   0.006 -0.2311 -0.9741  1.2685
 6953TIP3   OH220801   7.038   2.670   4.729 -0.3403  0.4755  0.2322
 6953TIP3    H120802   7.067   2.593   4.679  0.2023  1.3430 -0.8089
 6953TIP3    H220803   7.057   2.744   4.672 -4.5817  1.1182 -0.4432
 6954TIP3   OH220804   4.662   0.979   4.228 -0.1490 -0.0547 -0.0004
 6954TIP3    H120805   4.650   1.073   4.215  0.2707 -0.1385 -1.0126
 6954TIP3    H220806   4.579   0.950   4.264 -1.4626  0.1507 -2.7203
 6955TIP3   OH220807   6.723   0.849   5.288 -0.4508  0.0931  0.4565
 6955TIP3    H120808   6.664   0.819   5.357  1.2840 -0.5766  1.6854
 6955TIP3    H220809   6.691   0.936   5.266 -2.0357 -0.3578  0.9415
 6956TIP3   OH220810   6.608   2.021   3.122  0.3306  0.0096 -0.0216
 6956TIP3    H120811   6.575   1.994   3.036  0.1057 -0.9000  0.3438
 6956TIP3    H220812   6.535   2.069   3.161 -0.2113 -1.0986  0.3639
 6957TIP3   OH220813   5.818   3.159   2.229  0.1740 -0.1579  0.0118
 6957TIP3    H120814   5.807   3.205   2.146  1.1153 -1.1836 -0.6961
 6957TIP3    H220815   5.850   3.226   2.290 -2.3316  1.0458  0.0757
 6958TIP3   OH220816   5.514   2.184   3.413  1.1548 -0.1802  0.8892
 6958TIP3    H120817   5.580   2.157   3.478  0.4658 -3.1755  0.4340
 6958TIP3    H220818   5.461   2.105   3.399  0.0275  1.0048 -1.8075
 6959TIP3   OH220819   7.831   4.677   0.394 -0.0913  0.4492 -0.5223
 6959TIP3    H120820   7.918   4.650   0.365 -1.1589 -1.4542 -2.0669
 6959TIP3    H220821   7.817   4.631   0.476 -0.6678 -1.3982 -1.6115
 6960TIP3   OH220822   5.239   2.319   3.247 -0.2547  0.2348  0.5756
 6960TIP3    H120823   5.264   2.403   3.207 -2.0177  0.6206  0.2226
 6960TIP3    H220824   5.267   2.327   3.338 -1.0034  1.4941  0.7107
 6961TIP3   OH220825   4.652   5.181   3.960  0.0712  0.1761 -0.2182
 6961TIP3    H120826   4.665   5.257   3.904 -0.4611  1.0632  0.8386
 6961TIP3    H220827   4.704   5.200   4.038 -1.5061  0.3223  0.8353
 6962TIP3   OH220828   4.793   4.759   4.939  0.0915  0.1015 -0.0344
 6962TIP3    H120829   4.793   4.663   4.932  0.9701  0.0074  1.0116
 6962TIP3    H220830   4.719   4.779   4.996 -1.2230  0.1869 -1.7499
 6963TIP3   OH220831   6.241   4.127   4.188 -0.4392  0.0471  0.6947
 6963TIP3    H120832   6.288   4.047   4.212 -1.1687 -1.0978 -1.4930
 6963TIP3    H220833   6.280   4.153   4.104 -2.5679 -0.0354 -0.3710
 6964TIP3   OH220834   7.188   4.014   3.329  0.0936 -0.5051  0.0157
 6964TIP3    H120835   7.167   4.108   3.326  0.3006 -0.4066  1.1407
 6964TIP3    H220836   7.276   4.011   3.366  0.7525 -1.0790 -1.5695
 6965TIP3   OH220837   7.963   2.238   4.550  0.0799 -0.2231 -0.3482
 6965TIP3    H120838   7.948   2.299   4.477 -0.1556 -0.6742 -0.6760
 6965TIP3    H220839   7.905   2.270   4.619  0.3414  0.2385 -0.3342
 6966TIP3   OH220840   7.198   2.010   3.157  0.1187  0.0785  0.2551
 6966TIP3    H120841   7.132   1.996   3.090  1.2690  1.3423 -1.1699
 6966TIP3    H220842   7.215   2.105   3.155  1.6483 -0.1661  0.9040
 6967TIP3   OH220843   7.901   0.718   3.065 -0.4673  0.3006 -0.4266
 6967TIP3    H120844   7.887   0.770   2.985 -0.1721  1.1993  0.0938
 6967TIP3    H220845   7.925   0.631   3.033  0.5732  0.9026 -1.3302
 6968TIP3   OH220846   5.148   3.354   3.382  0.7550  0.3963 -0.0148
 6968TIP3    H120847   5.149   3.427   3.444 -0.1711  0.1722  0.2735
 6968TIP3    H220848   5.100   3.388   3.306 -1.9242 -0.6850  1.1213
 6969TIP3   OH220849   5.250   5.149   3.326  0.2053  0.5283  0.5654
 6969TIP3    H120850   5.253   5.055   3.346  0.3505  0.2276 -0.8732
 6969TIP3    H220851   5.287   5.156   3.238 -1.7032  1.6994 -0.1689
 6970TIP3   OH220852   5.652   4.413   3.289 -1.1273 -0.2260  0.1350
 6970TIP3    H120853   5.602   4.378   3.362 -1.6117  0.7780  0.2812
 6970TIP3    H220854   5.676   4.502   3.315  0.3402 -0.5334 -0.1216
 6971TIP3   OH220855   6.225   1.855   3.652 -0.8056  0.1326 -0.3817
 6971TIP3    H120856   6.196   1.765   3.637 -2.2342  0.8474 -1.9426
 6971TIP3    H220857   6.302   1.865   3.596  1.0958 -0.9702  1.9096
 6972TIP3   OH220858   5.783   2.641   4.184  0.5752 -0.0524 -0.0214
 6972TIP3    H120859   5.699   2.684   4.201 -0.4543 -1.7066 -0.7802
 6972TIP3    H220860   5.849   2.702   4.217 -0.9816  0.5585  2.0488
 6973TIP3   OH220861   4.444   2.354   3.334 -0.8914  0.3763  0.2738
 6973TIP3    H120862   4.426   2.397   3.417 -0.1792  1.4542 -0.1124
 6973TIP3    H220863   4.387   2.397   3.271 -1.6246 -0.6216  0.2419
 6974TIP3   OH220864   7.039   5.453   3.695  0.1099 -0.5575 -0.3254
 6974TIP3    H120865   7.072   5.537   3.728 -1.4332 -0.6252  1.4209
 6974TIP3    H220866   7.116   5.397   3.692  1.1475  0.8702 -1.4106
 6975TIP3   OH220867   6.551   4.163   4.096  0.2472  0.6398  0.1221
 6975TIP3    H120868   6.620   4.202   4.150  0.8245  2.2373 -1.7229
 6975TIP3    H220869   6.502   4.237   4.061  0.4693 -0.3092 -2.2821
 6976TIP3   OH220870   5.524   3.508   3.159  0.1718 -0.1385 -0.6966
 6976TIP3    H120871   5.596   3.483   3.100  1.1462  0.8716  0.0456
 6976TIP3    H220872   5.567   3.550   3.233 -1.3456  3.5354 -1.7590
 6977TIP3   OH220873   4.145   2.567   4.243  0.6137  0.1914  0.2682
 6977TIP3    H120874   4.055   2.577   4.273  0.2882  0.4740 -0.7690
 6977TIP3    H220875   4.151   2.625   4.166  1.4144 -0.5201 -0.2156
 6978TIP3   OH220876   4.108   1.368   3.803 -0.6279  0.4020 -0.4324
 6978TIP3    H120877   4.129   1.283   3.766 -1.4320  0.0949 -0.1833
 6978TIP3    H220878   4.016   1.362   3.828 -0.4496  1.0306  0.4219
 6979TIP3   OH220879   6.814   2.854   3.405 -0.6193 -0.6550  0.2482
 6979TIP3    H120880   6.873   2.892   3.340 -1.5111 -0.3179 -0.3648
 6979TIP3    H220881   6.866   2.850   3.485 -1.2998  4.3517  1.0636
 6980TIP3   OH220882   7.377   3.695   3.648  0.3295  0.3851 -0.0542
 6980TIP3    H120883   7.458   3.652   3.619  0.0675 -0.5964  0.6547
 6980TIP3    H220884   7.342   3.735   3.569  1.3269  0.5114 -0.4415
 6981TIP3   OH220885   6.153   1.869   6.232 -0.2429 -0.3856  0.2970
 6981TIP3    H120886   6.114   1.818   6.304 -2.6459  0.0127 -0.6656
 6981TIP3    H220887   6.130   1.960   6.253  0.6596 -0.0879 -0.0147
 6982TIP3   OH220888   6.850   2.502   3.005  0.4744 -0.2090 -0.1313
 6982TIP3    H120889   6.792   2.427   2.992 -0.1412 -0.1267  1.9486
 6982TIP3    H220890   6.838   2.556   2.927 -2.8655  0.2100  0.5972
 6983TIP3   OH220891   6.699   1.332   2.053 -0.5518  0.4371  0.0359
 6983TIP3    H120892   6.686   1.314   2.147  1.8731 -0.1158  0.3086
 6983TIP3    H220893   6.705   1.245   2.014  1.1167  0.6336 -0.1957
 6984TIP3   OH220894   7.751   3.544   3.770 -0.0940 -0.1514 -0.3147
 6984TIP3    H120895   7.805   3.557   3.848 -1.5301  0.3113  0.6116
 6984TIP3    H220896   7.727   3.451   3.773 -0.8615  0.0650  0.2592
 6985TIP3   OH220897   5.817   2.219   3.973  0.0395 -0.1950 -0.2476
 6985TIP3    H120898   5.817   2.144   3.913 -0.7324  1.0896 -1.8799
 6985TIP3    H220899   5.910   2.236   3.989  0.2582 -0.5398 -1.0995
 6986TIP3   OH220900   4.136   3.370   2.968  0.8743 -0.4424 -0.5140
 6986TIP3    H120901   4.218   3.377   3.015  0.2185  3.7424  0.1927
 6986TIP3    H220902   4.162   3.360   2.876  2.2444  1.3610 -0.3630
 6987TIP3   OH220903   4.568   4.720   3.139  0.2886 -0.3229 -0.9202
 6987TIP3    H120904   4.499   4.751   3.081  0.0548  0.7273 -0.0754
 6987TIP3    H220905   4.525   4.703   3.222  1.2516  1.5149 -0.0189
 6988TIP3   OH220906   5.653   2.437   4.066 -0.1252  0.4455 -0.7981
 6988TIP3    H120907   5.709   2.391   4.003  2.0695 -0.9312  2.0214
 6988TIP3    H220908   5.714   2.489   4.118 -1.9459  1.9304 -0.0776
 6989TIP3   OH220909   5.827   4.034   3.167  0.7529  0.5693  0.1374
 6989TIP3    H120910   5.762   4.101   3.149 -0.5343 -0.8307 -0.5522
 6989TIP3    H220911   5.868   4.016   3.083  0.5579 -0.0468  0.1677
 6990TIP3   OH220912   6.594   1.887   4.255 -0.2765  0.2868  0.2715
 6990TIP3    H120913   6.600   1.846   4.341  1.7059 -2.4248 -1.1001
 6990TIP3    H220914   6.516   1.847   4.214 -0.8574  1.1169  0.5478
 6991TIP3   OH220915   6.360   2.928   5.229 -0.0618  0.5769  0.6024
 6991TIP3    H120916   6.272   2.930   5.267 -0.4293 -2.8721  0.0507
 6991TIP3    H220917   6.354   2.986   5.153 -2.6462 -1.5370 -0.8948
 6992TIP3   OH220918   1.760   7.457   0.110 -0.4600  0.5706 -0.4118
 6992TIP3    H120919   1.802   7.431   0.192 -0.4400  2.1726  0.1075
 6992TIP3    H220920   1.813   7.417   0.042 -0.4263 -0.7069  0.3495
 6993TIP3   OH220921   0.100   3.500   4.223 -0.3293  0.3962 -0.0902
 6993TIP3    H120922   0.006   3.488   4.204 -0.1728  0.8434 -1.1898
 6993TIP3    H220923   0.115   3.593   4.209  0.9047 -0.1539 -2.8436
 6994TIP3   OH220924   6.839   4.470   6.181 -0.2041 -0.0757 -0.3426
 6994TIP3    H120925   6.760   4.417   6.189  0.5083 -1.0877  0.2803
 6994TIP3    H220926   6.910   4.410   6.208  0.8119  0.6671 -1.3414
 6995TIP3   OH220927   0.071   0.322   4.049 -0.3909  0.4709  0.7726
 6995TIP3    H120928   0.080   0.351   3.958  1.0803 -0.0888  0.7208
 6995TIP3    H220929   0.075   0.402   4.101 -1.5262  0.8197  0.3363
 6996TIP3   OH220930   8.153   3.103   4.250 -0.3193  0.3428  0.4440
 6996TIP3    H120931   8.220   3.129   4.188 -0.9718  1.2831  0.1162
 6996TIP3    H220932   8.172   3.154   4.329 -0.3232  0.2146  0.5273
 6997TIP3   OH220933   6.783   3.642   2.553  0.3053  0.0021 -0.2884
 6997TIP3    H120934   6.764   3.666   2.644 -3.0530 -1.1008 -0.6120
 6997TIP3    H220935   6.817   3.722   2.513  1.9147  0.4623  1.9520
 6998TIP3   OH220936   7.056   4.422   2.735  0.1301 -0.1725 -0.3067
 6998TIP3    H120937   7.056   4.327   2.745 -0.7201  0.0332  1.7732
 6998TIP3    H220938   6.969   4.442   2.700  0.2607 -0.1321 -0.6136
 6999TIP3   OH220939   6.029   3.031   3.892 -0.3565  0.7490  0.1726
 6999TIP3    H120940   6.077   2.992   3.819 -0.6772 -0.0358  0.3842
 6999TIP3    H220941   6.070   3.117   3.904 -0.0364  0.7145 -0.6647
 7000TIP3   OH220942   6.323   3.923   4.503 -0.4291  0.1363 -0.1921
 7000TIP3    H120943   6.344   3.937   4.410  1.4998 -3.2122 -0.3440
 7000TIP3    H220944   6.240   3.876   4.502 -0.0828 -0.4787 -0.2614
 7001TIP3   OH220945   6.739   2.160   4.398 -0.2115  0.2644 -0.4161
 7001TIP3    H120946   6.737   2.083   4.455  0.3053  0.5955  0.0538
 7001TIP3    H220947   6.812   2.143   4.337 -0.3150  0.2309 -0.5315
 7002TIP3   OH220948   6.446   4.104   6.225  0.4922  0.5376  0.4186
 7002TIP3    H120949   6.420   4.070   6.311  2.5065  1.7172  1.5326
 7002TIP3    H220950   6.406   4.045   6.162 -0.8693 -0.4451  2.1871
 7003TIP3   OH220951   6.919   3.544   3.355  0.0372  0.4343  0.1770
 7003TIP3    H120952   6.843   3.596   3.381 -0.6201 -0.5821  0.3366
 7003TIP3    H220953   6.899   3.456   3.387  0.1264 -0.3985 -2.0076
 7004TIP3   OH220954   6.336   1.286   2.600  0.1702  0.7393 -0.2589
 7004TIP3    H120955   6.395   1.361   2.589  0.5134  0.6578  1.0075
 7004TIP3    H220956   6.336   1.269   2.694  0.5222 -1.2151 -0.5976
 7005TIP3   OH220957   8.139   0.887   2.173 -0.2543 -0.2278 -0.3326
 7005TIP3    H120958   8.054   0.928   2.154 -0.0461  0.3254 -0.0844
 7005TIP3    H220959   8.188   0.894   2.091 -0.3905 -0.3977 -0.4279
 7006TIP3   OH220960   0.645   1.519   3.423  0.2375  0.1968 -0.2056
 7006TIP3    H120961   0.740   1.513   3.414  0.0205 -0.5071 -2.1112
 7006TIP3    H220962   0.623   1.607   3.394  0.3799  0.6846  1.1058
 7007TIP3   OH220963   5.705   0.280   4.311 -0.1104 -0.2175  0.2242
 7007TIP3    H120964   5.773   0.278   4.379  1.1607 -0.2835 -1.0241
 7007TIP3    H220965   5.683   0.188   4.296  0.5820 -0.2829 -0.4041
 7008TIP3   OH220966   6.002   2.232   3.234  0.4205 -0.2884  0.8291
 7008TIP3    H120967   6.068   2.183   3.283  0.5043  0.4191  1.4284
 7008TIP3    H220968   5.934   2.168   3.215  1.3406 -1.0687  0.0609
 7009TIP3   OH220969   5.801   2.056   2.909 -0.3004  0.1622  0.4246
 7009TIP3    H120970   5.734   2.014   2.964 -1.6339  0.4526 -0.9270
 7009TIP3    H220971   5.784   2.150   2.920 -0.0427  0.2377  0.1523
 7010TIP3   OH220972   6.008   1.278   3.724 -0.0869  0.5257 -0.4150
 7010TIP3    H120973   5.954   1.336   3.776  0.2599  1.6186 -1.2607
 7010TIP3    H220974   6.034   1.209   3.785  0.0337  1.5988  0.7711
 7011TIP3   OH220975   6.788   2.431   3.759  0.2113 -0.0771 -0.0391
 7011TIP3    H120976   6.764   2.511   3.807 -0.8549 -0.3808 -0.0484
 7011TIP3    H220977   6.852   2.387   3.816 -1.2298 -0.5693  1.2522
 7012TIP3   OH220978   3.830   0.707   5.992  0.3627  0.3035 -0.3556
 7012TIP3    H120979   3.856   0.670   6.076  0.3750  0.2035 -0.4026
 7012TIP3    H220980   3.736   0.722   6.001  0.5130  1.0620 -0.0362
 7013TIP3   OH220981   7.040   1.263   3.673 -0.3135 -0.3308  0.2550
 7013TIP3    H120982   7.034   1.352   3.709 -1.6326 -0.8102  1.2657
 7013TIP3    H220983   6.970   1.258   3.609  1.0169 -0.0152 -1.2680
 7014TIP3   OH220984   0.047   1.697   3.451 -0.0083  0.3499  0.3121
 7014TIP3    H120985   0.055   1.643   3.373 -1.1373  1.5372 -0.6439
 7014TIP3    H220986   0.077   1.783   3.424  0.2426  0.6004  1.3762
 7015TIP3   OH220987   3.166   3.427   3.465  0.0626  0.4585 -0.0706
 7015TIP3    H120988   3.082   3.381   3.467  0.7148 -0.7786 -0.9111
 7015TIP3    H220989   3.203   3.408   3.379  2.1204 -0.6686  1.0354
 7016TIP3   OH220990   8.071   4.250   3.183  0.7938 -0.0690  0.4701
 7016TIP3    H120991   8.112   4.325   3.225  0.7683  0.3451 -0.2411
 7016TIP3    H220992   7.977   4.266   3.189  0.8114  0.5714 -0.7800
 7017TIP3   OH220993   6.942   2.169   3.569  0.4109  0.5449 -0.2856
 7017TIP3    H120994   6.980   2.223   3.500  0.3667 -1.2623 -1.7618
 7017TIP3    H220995   6.995   2.190   3.646  1.1480  1.8072 -1.0997
 7018TIP3   OH220996   6.179   1.642   4.635  0.0568  0.3237  0.2557
 7018TIP3    H120997   6.098   1.675   4.673 -0.5810 -1.6054  0.6045
 7018TIP3    H220998   6.151   1.581   4.567  1.2160 -0.5805  0.5774
 7019TIP3   OH220999   3.320   3.008   3.140 -1.1214 -0.4484 -0.1116
 7019TIP3    H121000   3.244   3.066   3.134  0.0275  1.1733  0.4767
 7019TIP3    H221001   3.347   2.994   3.049  0.2658  2.2701 -0.1692
 7020TIP3   OH221002   5.563   1.004   4.842  0.0297 -0.5890 -0.6075
 7020TIP3    H121003   5.542   0.911   4.850 -1.3150 -0.2817 -0.4175
 7020TIP3    H221004   5.563   1.020   4.748  1.7046 -1.0942 -0.6996
 7021TIP3   OH221005   7.628   4.071   4.281 -0.2102  0.2042  0.6519
 7021TIP3    H121006   7.610   3.980   4.256 -0.9668  0.0489  1.7247
 7021TIP3    H221007   7.603   4.122   4.204 -3.2756 -0.2092  1.3056
 7022TIP3   OH221008   6.867   1.511   3.259  0.2125  0.0463 -0.3317
 7022TIP3    H121009   6.836   1.583   3.203 -0.6028  1.9310  2.4481
 7022TIP3    H221010   6.867   1.547   3.347  1.1481 -2.9687  0.9760
 7023TIP3   OH221011   8.165   3.572   2.988 -0.3426  0.4075 -0.0816
 7023TIP3    H121012   8.188   3.482   2.966  0.6445 -0.0415  2.5787
 7023TIP3    H221013   8.070   3.572   2.999 -0.4565 -0.0611 -0.9807
 7024TIP3   OH221014   5.903   2.424   4.316  0.4773 -0.0822  0.2884
 7024TIP3    H121015   5.890   2.485   4.243 -1.5351 -1.6226 -0.6873
 7024TIP3    H221016   5.994   2.395   4.307  1.1101  1.8669  0.0874
 7025TIP3   OH221017   4.421   3.799   3.219  0.7593  0.0425 -0.3151
 7025TIP3    H121018   4.511   3.831   3.210  0.5284  1.4926  1.9734
 7025TIP3    H221019   4.372   3.874   3.252 -0.8568 -1.3104  0.4561
 7026TIP3   OH221020   0.679   2.027   1.180 -0.0270 -0.2824  0.3201
 7026TIP3    H121021   0.635   1.966   1.121 -0.5958 -0.0167  0.4635
 7026TIP3    H221022   0.749   1.976   1.221  1.0133 -0.2124 -1.3292
 7027TIP3   OH221023   5.138   7.459   2.258  0.6987 -0.3856 -0.1829
 7027TIP3    H121024   5.202   7.425   2.321  1.1935 -0.0216 -0.4858
 7027TIP3    H221025   5.185   7.529   2.212 -0.1535  0.3692  0.0891
 7028TIP3   OH221026   0.463   2.790   1.616  0.5062  0.6270  0.4326
 7028TIP3    H121027   0.371   2.763   1.609  1.3825 -2.5471  0.2966
 7028TIP3    H221028   0.463   2.881   1.588 -2.2612 -0.0407 -2.0326
 7029TIP3   OH221029   7.732   1.516   2.275  0.0212 -0.4519  0.1054
 7029TIP3    H121030   7.675   1.526   2.199  1.4455  1.4159 -0.7415
 7029TIP3    H221031   7.676   1.538   2.350 -0.2127  1.9584 -0.7642
 7030TIP3   OH221032   6.510   2.576   2.847  0.3032  0.1272  0.5630
 7030TIP3    H121033   6.444   2.535   2.903 -0.4870  0.6608  0.0361
 7030TIP3    H221034   6.505   2.669   2.870  0.3784  0.2675  0.0156
 7031TIP3   OH221035   1.428   0.708   3.105 -0.1205 -0.1047 -0.2237
 7031TIP3    H121036   1.521   0.720   3.122 -0.3846  0.3169  1.0001
 7031TIP3    H221037   1.391   0.686   3.190 -1.0510 -0.8451 -0.8122
 7032TIP3   OH221038   7.701   3.834   4.448  0.0174  0.0984 -0.1755
 7032TIP3    H121039   7.684   3.890   4.525 -0.0971  0.9557 -0.8152
 7032TIP3    H221040   7.718   3.747   4.485  0.0072  0.5120  0.8273
 7033TIP3   OH221041   5.058   7.693   1.333 -0.1207  0.5059  0.0168
 7033TIP3    H121042   5.149   7.706   1.358  0.4263 -0.3301 -1.4641
 7033TIP3    H221043   5.048   7.598   1.328 -0.6032  0.6232 -1.4421
 7034TIP3   OH221044   5.079   3.556   1.740 -0.0543  0.1932 -0.0872
 7034TIP3    H121045   4.986   3.563   1.760  0.0135 -0.6122  0.5298
 7034TIP3    H221046   5.115   3.641   1.765 -0.4560  0.1739  0.5502
 7035TIP3   OH221047   7.193   3.492   3.592 -0.6139 -0.1293 -0.3407
 7035TIP3    H121048   7.242   3.444   3.526 -0.7224  1.9076 -1.9617
 7035TIP3    H221049   7.245   3.572   3.607 -0.2816 -0.8222  2.4885
 7036TIP3   OH221050   8.380   1.129   3.722  0.0367  0.2227  0.4021
 7036TIP3    H121051   8.451   1.123   3.658  0.7637 -0.6921  1.2839
 7036TIP3    H221052   8.334   1.046   3.714  0.6498 -0.2493  1.6584
 7037TIP3   OH221053   8.048   1.637   3.454  0.0391 -0.5348 -0.4062
 7037TIP3    H121054   7.990   1.677   3.389  0.6814 -1.6730 -1.6941
 7037TIP3    H221055   8.109   1.584   3.403  3.2918  1.9313  0.7972
 7038TIP3   OH221056   0.106   4.418   3.400  0.0751  0.9856  0.0067
 7038TIP3    H121057   0.103   4.445   3.492  1.2446  1.6343 -0.1286
 7038TIP3    H221058   0.093   4.323   3.403 -1.4971  1.2002  0.7016
 7039TIP3   OH221059   7.736   2.160   4.109 -0.1382 -0.1544  0.1914
 7039TIP3    H121060   7.727   2.076   4.065  0.9150 -0.9184  1.3819
 7039TIP3    H221061   7.828   2.183   4.098 -0.5919  1.2639 -0.8341
 7040TIP3   OH221062   5.694   2.629   3.604  0.0839  0.0087  0.0121
 7040TIP3    H121063   5.761   2.597   3.665  0.7876 -2.2012 -1.8412
 7040TIP3    H221064   5.612   2.600   3.643  0.3645  0.5658  1.0453
 7041TIP3   OH221065   7.001   1.971   1.956 -0.6436 -0.0957 -0.1315
 7041TIP3    H121066   6.999   1.893   2.011  3.5981 -1.6342 -1.9650
 7041TIP3    H221067   7.028   2.042   2.014 -0.1878 -0.8881  0.6354
 7042TIP3   OH221068   1.165   1.404   5.509  0.4300 -0.0453 -0.9616
 7042TIP3    H121069   1.196   1.458   5.437 -1.1746  1.6474 -0.4280
 7042TIP3    H221070   1.157   1.465   5.583 -0.7256 -1.1467 -0.1524
 7043TIP3   OH221071   3.997   7.532   1.649 -0.0957 -0.0215  0.4013
 7043TIP3    H121072   3.936   7.461   1.669 -0.0757 -1.2637 -3.5536
 7043TIP3    H221073   3.956   7.610   1.686 -2.8311 -1.2617  0.0949
 7044TIP3   OH221074   5.126   3.957   4.132  0.5491  0.1196  0.2199
 7044TIP3    H121075   5.189   4.028   4.138 -0.7368  1.3169  0.0099
 7044TIP3    H221076   5.063   3.987   4.066 -0.5594 -0.7895  0.8498
 7045TIP3   OH221077   7.754   3.361   1.089  0.0166  0.4455  0.5850
 7045TIP3    H121078   7.831   3.407   1.055 -0.7621  1.5400  0.2690
 7045TIP3    H221079   7.776   3.342   1.180  1.6051 -1.3728 -0.1371
 7046TIP3   OH221080   6.468   1.976   2.896 -0.3952  0.0170  0.5705
 7046TIP3    H121081   6.394   1.942   2.945 -1.0634 -0.0840 -0.4804
 7046TIP3    H221082   6.461   1.934   2.810  0.5648  0.4240  0.2868
 7047TIP3   OH221083   5.885   3.179   3.022  0.0953 -0.0363 -0.0873
 7047TIP3    H121084   5.802   3.133   3.006 -0.6047  0.7128  1.2909
 7047TIP3    H221085   5.892   3.241   2.950 -0.3861 -0.3237 -0.3838
 7048TIP3   OH221086   6.046   2.713   2.501 -0.1875  0.9321  1.0025
 7048TIP3    H121087   5.974   2.652   2.517  0.0267  0.2352 -0.5778
 7048TIP3    H221088   6.003   2.791   2.465 -0.1319  0.3137 -0.4582
 7049TIP3   OH221089   7.794   1.837   1.355 -0.3064 -0.2753  0.7402
 7049TIP3    H121090   7.820   1.927   1.375 -0.7104 -0.0569  0.2934
 7049TIP3    H221091   7.700   1.836   1.369 -0.5502 -0.1960 -0.8574
 7050TIP3   OH221092   7.127   2.492   3.771 -0.5747  0.4764  0.1868
 7050TIP3    H121093   7.129   2.501   3.676  0.9485 -2.4364 -0.1228
 7050TIP3    H221094   7.215   2.518   3.800 -1.1732  1.7912  0.8578
 7051TIP3   OH221095   6.651   1.766   2.631 -0.2991  0.1637  0.0464
 7051TIP3    H121096   6.579   1.827   2.618 -0.7398 -0.5101 -0.7146
 7051TIP3    H221097   6.725   1.821   2.656 -0.4650  1.1075 -1.4718
 7052TIP3   OH221098   7.943   2.399   3.339 -0.3663 -0.2283  0.6040
 7052TIP3    H121099   7.935   2.491   3.363  1.6652 -0.0338  0.6896
 7052TIP3    H221100   7.903   2.351   3.411  0.6476  0.5333  1.6922
 7053TIP3   OH221101   7.536   2.510   0.496  0.0058 -0.5351  0.8671
 7053TIP3    H121102   7.475   2.562   0.550 -0.4645  1.1606 -1.2129
 7053TIP3    H221103   7.611   2.567   0.484 -0.8504  0.0407 -2.1169
 7054TIP3   OH221104   0.321   3.705   6.332  0.3526  0.5854  0.5854
 7054TIP3    H121105   0.353   3.623   6.368 -1.6867 -0.4838  0.0684
 7054TIP3    H221106   0.337   3.770   6.400  1.2776 -0.3838  1.3050
 7055TIP3   OH221107   7.251   1.756   2.320 -0.1175  0.0930  0.2826
 7055TIP3    H121108   7.215   1.677   2.359  0.2363  0.4243  1.3028
 7055TIP3    H221109   7.198   1.771   2.242 -0.1117 -1.2046  0.0291
 7056TIP3   OH221110   5.782   0.914   5.950  0.5716 -0.1057  0.1075
 7056TIP3    H121111   5.875   0.896   5.964  0.6132 -0.0045 -0.0480
 7056TIP3    H221112   5.775   1.009   5.950  0.5039 -0.1108 -0.1395
 7057TIP3   OH221113   5.530   2.556   2.813  0.0062  0.5817 -0.1744
 7057TIP3    H121114   5.492   2.491   2.872 -0.5703  0.6750 -0.4357
 7057TIP3    H221115   5.598   2.599   2.864  1.2945 -1.1357 -0.4041
 7058TIP3   OH221116   5.794   2.545   2.545 -0.3433  0.2381  0.3562
 7058TIP3    H121117   5.811   2.476   2.609  3.2078 -0.1563 -0.9302
 7058TIP3    H221118   5.734   2.504   2.482  0.4482 -1.1673  0.4911
 7059TIP3   OH221119   8.056   1.319   3.148  0.3743 -0.0065 -0.3121
 7059TIP3    H121120   8.089   1.407   3.129 -2.1096  0.6695 -1.7241
 7059TIP3    H221121   8.087   1.265   3.075  0.1194  0.1617 -0.5442
 7060TIP3   OH221122   6.743   2.544   2.713 -0.3799 -0.0083 -0.4434
 7060TIP3    H121123   6.658   2.563   2.753 -0.0515 -1.2112  0.8712
 7060TIP3    H221124   6.759   2.618   2.655 -1.8955  0.6960  0.0020
 7061TIP3   OH221125   8.163   3.973   3.113 -0.5454  0.3333 -0.1350
 7061TIP3    H121126   8.102   3.938   3.178 -0.6960  0.1549 -0.3714
 7061TIP3    H221127   8.134   4.063   3.100 -2.5771 -0.5879 -2.3912
 7062TIP3   OH221128   6.263   0.827   5.100  0.4118 -0.0513 -0.3361
 7062TIP3    H121129   6.298   0.827   5.189  3.3209 -1.0054 -1.4277
 7062TIP3    H221130   6.277   0.916   5.068  0.0158  0.1037 -0.0714
 7063TIP3   OH221131   4.960   7.737   4.663  0.4287  0.5654  0.0890
 7063TIP3    H121132   4.888   7.674   4.661  1.1423 -0.2188 -1.3540
 7063TIP3    H221133   4.920   7.820   4.638 -0.7679  1.0022  3.1568
 7064TIP3   OH221134   1.234   1.930   1.160 -0.3944  0.1312  0.4925
 7064TIP3    H121135   1.218   1.926   1.066  3.1812 -0.8626 -0.1710
 7064TIP3    H221136   1.231   1.838   1.188 -1.3157  0.4146  1.3239
 7065TIP3   OH221137   7.684   1.229   3.796 -0.1031  0.1439 -0.2241
 7065TIP3    H121138   7.590   1.217   3.801 -0.0900  0.3555  0.6142
 7065TIP3    H221139   7.696   1.323   3.789 -0.0692 -0.0303 -3.5980
 7066TIP3   OH221140   7.058   0.933   2.380  0.1655  0.3644  0.4818
 7066TIP3    H121141   7.008   0.951   2.459 -0.0187 -0.1173  0.4794
 7066TIP3    H221142   6.998   0.953   2.308 -1.0297 -2.8659  0.4821
 7067TIP3   OH221143   8.291   3.327   1.002 -0.2325  0.0756  0.3826
 7067TIP3    H121144   8.318   3.322   0.910 -0.7663  0.1375  0.2243
 7067TIP3    H221145   8.197   3.342   0.999  0.0160  1.9539  0.9148
 7068TIP3   OH221146   6.764   4.144   0.535  0.4037 -0.1895  0.5416
 7068TIP3    H121147   6.800   4.226   0.499  0.4398  0.3330  1.7411
 7068TIP3    H221148   6.821   4.076   0.499 -2.1296 -0.1508 -3.8701
 7069TIP3   OH221149   6.929   2.883   4.411  0.4502 -1.1664 -0.2053
 7069TIP3    H121150   6.933   2.874   4.316 -0.0493  0.2001 -0.3559
 7069TIP3    H221151   6.957   2.972   4.429  1.7179 -1.7871  1.0301
 7070TIP3   OH221152   7.879   3.354   2.467  0.2646  0.0296  0.1935
 7070TIP3    H121153   7.904   3.263   2.449 -1.6088 -0.2909 -0.9775
 7070TIP3    H221154   7.943   3.406   2.419 -0.1931 -0.7402 -1.3036
 7071TIP3   OH221155   6.987   2.048   2.296  0.0609  0.1598  0.1084
 7071TIP3    H121156   6.896   2.053   2.267 -0.1825 -2.7263  0.1445
 7071TIP3    H221157   7.035   2.105   2.236 -1.4178 -0.3784 -1.6515
 7072TIP3   OH221158   7.764   4.021   2.297 -0.4792 -0.3934 -0.1098
 7072TIP3    H121159   7.751   4.058   2.209  0.3429  1.0655  0.3639
 7072TIP3    H221160   7.755   3.927   2.285 -0.1827 -0.2263 -1.7998
 7073TIP3   OH221161   0.003   2.879   5.427  0.4535  0.3031 -0.2147
 7073TIP3    H121162   0.037   2.883   5.337  0.0946 -1.3347 -0.4491
 7073TIP3    H221163   0.051   2.806   5.467 -0.3473  0.1627  0.5048
 7074TIP3   OH221164   5.376   4.127   3.358  0.2689  0.3995 -0.3084
 7074TIP3    H121165   5.360   4.179   3.280 -0.9094  0.1987 -0.2033
 7074TIP3    H221166   5.357   4.186   3.431  1.1285  0.5121 -0.1745
 7075TIP3   OH221167   0.603  -0.020   4.375 -0.4086  0.0812 -0.2926
 7075TIP3    H121168   0.575  -0.003   4.465 -0.6935  0.5871 -0.4801
 7075TIP3    H221169   0.674   0.042   4.359  0.4512 -0.8142 -0.0140
 7076TIP3   OH221170   7.553   3.648   2.831  0.2340 -0.2068 -0.0073
 7076TIP3    H121171   7.609   3.705   2.884  1.7235 -1.0753 -0.5950
 7076TIP3    H221172   7.601   3.637   2.749 -0.5130 -1.4645 -0.2953
 7077TIP3   OH221173   8.026   3.214   3.144  0.1188 -0.0545  0.8665
 7077TIP3    H121174   7.987   3.191   3.059 -0.1513  1.5332  0.5489
 7077TIP3    H221175   8.013   3.136   3.198  0.6185 -1.2281 -0.6597
 7078TIP3   OH221176   0.062   1.564   3.723  0.6225  0.1453  0.2075
 7078TIP3    H121177   0.016   1.485   3.750  1.7222 -0.3975  0.5490
 7078TIP3    H221178   0.086   1.548   3.632  0.1026  0.4411  0.0191
 7079TIP3   OH221179   5.963   1.446   4.235  0.4138  0.2889 -0.3690
 7079TIP3    H121180   5.874   1.470   4.259 -0.2295 -0.3172 -2.1295
 7079TIP3    H221181   5.980   1.494   4.154  0.1454 -2.8593 -2.3549
 7080TIP3   OH221182   1.708   1.062   2.531  0.2256  0.0741 -0.3069
 7080TIP3    H121183   1.625   1.073   2.486 -1.3041 -0.8791  2.2086
 7080TIP3    H221184   1.730   1.149   2.564  0.1250  0.2760 -0.7682
 7081TIP3   OH221185   6.168   0.563   2.482 -0.0877 -0.0766  0.5361
 7081TIP3    H121186   6.089   0.556   2.537  0.6024 -0.5138  1.4852
 7081TIP3    H221187   6.159   0.648   2.440 -1.2915 -0.3142  0.2925
 7082TIP3   OH221188   7.352   2.345   2.092  0.3570  0.3205  0.5524
 7082TIP3    H121189   7.302   2.366   2.171 -0.3578 -0.9644  0.4676
 7082TIP3    H221190   7.385   2.429   2.061 -1.0722  1.0929  1.0840
 7083TIP3   OH221191   6.526   2.837   3.235  0.9186  0.2547 -0.2396
 7083TIP3    H121192   6.522   2.920   3.187 -0.9335  0.0675 -0.4372
 7083TIP3    H221193   6.502   2.770   3.171  1.2876 -0.3193  0.2131
 7084TIP3   OH221194   5.597   2.447   3.395 -0.4178 -0.2144  0.4324
 7084TIP3    H121195   5.670   2.454   3.457 -0.0724 -0.5750  0.0677
 7084TIP3    H221196   5.561   2.360   3.409 -1.3369  0.2815  1.2203
 7085TIP3   OH221197   6.107   2.429   1.642  0.0698 -0.1383 -0.4844
 7085TIP3    H121198   6.121   2.521   1.620 -0.8692  0.1392  0.0391
 7085TIP3    H221199   6.117   2.425   1.737 -0.8621 -0.3832 -0.3852
 7086TIP3   OH221200   6.776   3.446   1.741  0.6772  0.3297 -0.3996
 7086TIP3    H121201   6.803   3.363   1.781  0.0254  0.2710 -0.0758
 7086TIP3    H221202   6.819   3.447   1.656  0.7761 -0.2930 -0.3571
 7087TIP3   OH221203   5.425   1.191   2.115  0.1823  0.9445 -0.3815
 7087TIP3    H121204   5.499   1.206   2.174  1.8064 -3.4119 -1.1172
 7087TIP3    H221205   5.348   1.191   2.172  1.1608  1.9188  0.9616
 7088TIP3   OH221206   7.541   2.687   3.237 -0.4861  0.2345 -0.5191
 7088TIP3    H121207   7.477   2.750   3.269 -2.2927 -0.4515 -2.6715
 7088TIP3    H221208   7.617   2.741   3.213 -1.2889  1.3658 -0.5577
 7089TIP3   OH221209   7.594   2.249   2.254 -0.1203 -0.2627  0.0532
 7089TIP3    H121210   7.512   2.216   2.218 -1.1672  2.1538  0.1134
 7089TIP3    H221211   7.619   2.320   2.195  1.5600 -0.5124  0.4469
 7090TIP3   OH221212   0.644   1.950   3.142 -0.1174 -0.3456 -0.8299
 7090TIP3    H121213   0.738   1.938   3.154  0.0976 -1.7281 -3.5034
 7090TIP3    H221214   0.604   1.904   3.216  1.2946  0.2841  0.3433
 7091TIP3   OH221215   7.785   3.070   0.231  0.5102 -0.0422  0.1567
 7091TIP3    H121216   7.701   3.112   0.212  0.2193 -0.7363 -0.1101
 7091TIP3    H221217   7.810   3.103   0.317 -0.9558 -1.2860  1.0734
 7092TIP3   OH221218   8.202   1.562   3.080 -0.3247 -0.5330  0.2022
 7092TIP3    H121219   8.220   1.575   2.987  0.5878  1.5847  0.6271
 7092TIP3    H221220   8.207   1.650   3.117  0.0226 -1.4378  2.3681
 7093TIP3   OH221221   7.207   0.797   1.307 -0.1278  0.2046  0.0469
 7093TIP3    H121222   7.236   0.804   1.216 -0.6468 -0.4350 -0.1733
 7093TIP3    H221223   7.191   0.888   1.334  1.0563  0.4769 -0.1537
 7094TIP3   OH221224   8.441   3.233   1.204  0.7733  0.1835 -0.4982
 7094TIP3    H121225   8.404   3.151   1.235  0.9622  0.1128 -0.4654
 7094TIP3    H221226   8.381   3.261   1.134 -0.0013  0.6567  0.3477
 7095TIP3   OH221227   7.617   2.905   1.992 -0.0090 -0.0383  0.7923
 7095TIP3    H121228   7.576   2.862   1.917 -0.7010  3.5861 -1.0484
 7095TIP3    H221229   7.556   2.891   2.064 -0.6057 -1.3724  0.0433
 7096TIP3   OH221230   8.073   2.447   5.758  0.1977 -0.1064 -0.5373
 7096TIP3    H121231   8.101   2.377   5.818  1.0343  0.3775 -0.3496
 7096TIP3    H221232   7.993   2.482   5.798  0.2600 -0.3712 -0.1712
 7097TIP3   OH221233   1.316   1.142   2.573  0.0959 -0.1248  0.7611
 7097TIP3    H121234   1.397   1.190   2.551 -1.8866  2.5392 -1.0250
 7097TIP3    H221235   1.310   1.149   2.668  0.1859  2.7363  0.6166
 7098TIP3   OH221236   0.625   2.034   4.267  0.2837  0.2612  0.1219
 7098TIP3    H121237   0.553   2.096   4.276 -0.4976 -0.2978 -1.9461
 7098TIP3    H221238   0.697   2.086   4.232 -0.0667  0.2098 -0.6861
 7099TIP3   OH221239   0.517   0.682   4.226 -0.2687 -0.3413 -0.0511
 7099TIP3    H121240   0.502   0.619   4.155 -1.7632 -0.5519  0.4283
 7099TIP3    H221241   0.557   0.757   4.183  0.9265 -1.3554 -0.7398
 7100TIP3   OH221242   0.306   2.247   1.724 -0.0009 -0.2084 -0.5797
 7100TIP3    H121243   0.224   2.218   1.686  0.6373 -1.5282 -0.9519
 7100TIP3    H221244   0.372   2.231   1.656  0.7102 -0.0436  0.0605
 7101TIP3   OH221245   0.064   2.078   4.816 -0.3768 -0.0927 -0.4605
 7101TIP3    H121246   0.127   2.007   4.833 -0.5954 -0.5540 -1.5066
 7101TIP3    H221247   0.029   2.057   4.729 -0.0451  1.5949 -1.0101
 7102TIP3   OH221248   6.590   2.116   2.463 -0.0530  0.2735  0.7865
 7102TIP3    H121249   6.507   2.161   2.483 -0.3383  0.1321 -0.0593
 7102TIP3    H221250   6.647   2.137   2.537 -0.8721  0.3160  1.4108
 7103TIP3   OH221251   8.054   2.193   2.111 -0.2517 -0.2734  0.2150
 7103TIP3    H121252   8.093   2.266   2.062 -1.3421  0.4782  0.4413
 7103TIP3    H221253   8.039   2.230   2.199 -0.4198 -0.9090  0.4516
 7104TIP3   OH221254   8.081   0.633   1.667  0.3405 -0.0667  0.5215
 7104TIP3    H121255   8.061   0.672   1.582 -0.2527  0.7812  1.0363
 7104TIP3    H221256   8.062   0.540   1.656 -1.6406  0.3404  0.2863
 7105TIP3   OH221257   0.283   3.351   3.976 -0.1955  0.0034  0.0714
 7105TIP3    H121258   0.323   3.332   3.891 -0.0606 -0.3239  0.2068
 7105TIP3    H221259   0.262   3.444   3.973  0.6619  0.1967  0.0342
 7106TIP3   OH221260   4.760   2.097   3.568  0.2399 -0.1107 -0.0723
 7106TIP3    H121261   4.745   2.071   3.477  1.3794  0.7384 -0.5140
 7106TIP3    H221262   4.672   2.117   3.601 -0.3407 -1.6858 -0.5722
 7107TIP3   OH221263   6.422   3.310   2.563  0.3908 -0.0607 -0.5203
 7107TIP3    H121264   6.504   3.261   2.555  0.4948  0.3959 -2.6156
 7107TIP3    H221265   6.449   3.401   2.576  0.2058 -0.1655  0.6156
 7108TIP3   OH221266   8.199   3.564   2.671  0.1633  0.2733 -0.3047
 7108TIP3    H121267   8.171   3.638   2.617  0.9827 -0.6742 -2.0811
 7108TIP3    H221268   8.284   3.539   2.635 -0.0274 -1.4263  0.3645
 7109TIP3   OH221269   4.853   2.878   2.968  0.0821 -0.1948  0.2389
 7109TIP3    H121270   4.845   2.945   3.037 -0.7658  0.8883 -0.8982
 7109TIP3    H221271   4.766   2.839   2.962  0.0477  0.0005 -0.5070
 7110TIP3   OH221272   5.990   3.604   4.009 -0.2713 -0.6147 -0.0314
 7110TIP3    H121273   5.958   3.615   4.099  0.8143 -1.3171  0.4421
 7110TIP3    H221274   5.998   3.694   3.976  2.5475 -0.1692  1.7241
 7111TIP3   OH221275   3.633   2.906   2.223  0.6981 -0.0449  0.1753
 7111TIP3    H121276   3.696   2.836   2.236  1.3779  0.8429  1.7177
 7111TIP3    H221277   3.649   2.937   2.133  0.6070 -1.6295 -0.3920
 7112TIP3   OH221278   7.553   2.255   3.560  0.1569  0.8362 -0.1681
 7112TIP3    H121279   7.462   2.235   3.582  0.5533  1.9680  2.6429
 7112TIP3    H221280   7.578   2.185   3.500 -1.6733 -1.1556  1.2922
 7113TIP3   OH221281   7.761   1.750   2.559 -0.5511 -0.4095  0.2684
 7113TIP3    H121282   7.847   1.715   2.537 -0.8505 -1.5813  0.9177
 7113TIP3    H221283   7.776   1.803   2.637 -0.0820  0.9839 -0.7596
 7114TIP3   OH221284   6.690   3.833   3.644 -0.2124 -0.3143 -0.3531
 7114TIP3    H121285   6.700   3.838   3.549  0.7334  0.6937 -0.2117
 7114TIP3    H221286   6.736   3.910   3.677 -1.2963 -0.1748  0.8772
 7115TIP3   OH221287   8.076   4.922   4.878 -0.1988  0.2887  0.0574
 7115TIP3    H121288   8.024   4.854   4.921 -0.2564  1.3976  1.8131
 7115TIP3    H221289   8.050   5.003   4.921  1.4894  1.1363 -0.4484
 7116TIP3   OH221290   7.826   4.783   6.196 -0.4985 -0.1388  0.0830
 7116TIP3    H121291   7.868   4.733   6.126  1.2648  0.4144  0.7186
 7116TIP3    H221292   7.811   4.720   6.265  0.7655 -0.0174  0.4749
 7117TIP3   OH221293   7.009   2.429   2.691 -0.7265  0.3897 -0.2793
 7117TIP3    H121294   7.012   2.398   2.601  0.5851  0.7721 -0.3742
 7117TIP3    H221295   6.926   2.477   2.697 -0.7018  0.5753 -1.3404
 7118TIP3   OH221296   7.041   3.845   3.120 -0.0860 -0.0281 -0.3646
 7118TIP3    H121297   7.057   3.904   3.193  1.3668  0.3080 -0.9352
 7118TIP3    H221298   7.095   3.768   3.138  1.4660  0.6838 -1.8039
 7119TIP3   OH221299   7.767   3.797   2.917 -0.1484  0.7368 -0.5478
 7119TIP3    H121300   7.777   3.862   2.986  1.0813 -0.9767  0.9500
 7119TIP3    H221301   7.810   3.836   2.841  0.3600  1.7768  0.2517
 7120TIP3   OH221302   5.771   2.854   2.019 -0.1939 -0.2718 -0.1973
 7120TIP3    H121303   5.741   2.786   2.079  0.1360  0.5915  0.9741
 7120TIP3    H221304   5.715   2.846   1.942  0.1454 -2.1619 -0.2681
 7121TIP3   OH221305   3.718   3.064   3.330 -0.5180  0.7394  0.0801
 7121TIP3    H121306   3.730   3.156   3.353 -1.1335  0.5828  1.0554
 7121TIP3    H221307   3.783   3.048   3.262  0.7512  1.4446  1.1102
 7122TIP3   OH221308   7.386   2.531   3.797  0.0130 -0.8474 -0.5463
 7122TIP3    H121309   7.380   2.545   3.703 -2.0010  0.8777 -0.2067
 7122TIP3    H221310   7.437   2.606   3.829 -0.4846 -0.6913 -0.1118
 7123TIP3   OH221311   7.962   1.120   3.326  0.1219  0.3082  0.1998
 7123TIP3    H121312   8.037   1.134   3.384 -0.3862  1.2643  0.6527
 7123TIP3    H221313   7.965   1.194   3.265  0.4691 -0.5254 -0.7937
 7124TIP3   OH221314   6.911   0.920   3.612  0.4724  1.1647  0.2004
 7124TIP3    H121315   6.988   0.948   3.663  2.3828  1.1090 -2.5577
 7124TIP3    H221316   6.901   0.827   3.633  0.2324  1.5028  1.6809
 7125TIP3   OH221317   0.434   1.874   2.778 -0.3997  1.0827  0.2438
 7125TIP3    H121318   0.348   1.842   2.749 -0.2458  0.3125  0.6195
 7125TIP3    H221319   0.462   1.810   2.842  0.7856  0.9598 -0.3957
 7126TIP3   OH221320   6.726   4.703   1.518 -0.1504  0.0648 -0.0119
 7126TIP3    H121321   6.758   4.643   1.585  1.6564 -1.3345 -2.1083
 7126TIP3    H221322   6.701   4.647   1.444 -0.7898  1.6923 -1.0618
 7127TIP3   OH221323   7.746   0.947   3.240 -0.0500 -0.5376  0.3659
 7127TIP3    H121324   7.681   0.879   3.222 -0.5782 -0.2700  1.2409
 7127TIP3    H221325   7.827   0.914   3.201 -0.7048 -0.8812 -0.7025
 7128TIP3   OH221326   0.047   2.246   1.909 -0.1800  0.2202 -0.3918
 7128TIP3    H121327   0.107   2.291   1.849 -0.6246  1.3260 -0.0165
 7128TIP3    H221328  -0.027   2.222   1.854 -0.5188  1.0991 -0.3322
 7129TIP3   OH221329   8.234   2.237   4.637 -0.1516 -0.0698  0.1619
 7129TIP3    H121330   8.146   2.227   4.603  0.0288  4.3512 -2.0406
 7129TIP3    H221331   8.224   2.293   4.714  0.2776 -3.8157  3.0748
 7130TIP3   OH221332   5.957   7.584   3.806 -0.1455 -0.0309  0.1820
 7130TIP3    H121333   5.997   7.529   3.873  0.4897 -0.6387 -0.6837
 7130TIP3    H221334   6.010   7.569   3.728  0.1387  1.9481 -0.0339
 7131TIP3   OH221335   5.483   4.569   2.589  0.2215  0.0318  0.2898
 7131TIP3    H121336   5.421   4.499   2.606 -0.5892  0.3808 -1.1159
 7131TIP3    H221337   5.505   4.558   2.496  0.4709  1.3309  0.1937
 7132TIP3   OH221338   0.611   1.311   6.263  0.1071 -0.6037  0.0725
 7132TIP3    H121339   0.623   1.218   6.245 -0.5467 -0.6734 -0.0333
 7132TIP3    H221340   0.688   1.354   6.225 -0.2893 -0.9522 -1.1613
 7133TIP3   OH221341   0.922   4.159   4.420  0.5119  0.4393  0.0494
 7133TIP3    H121342   0.931   4.194   4.509  1.0024 -0.7940  0.4862
 7133TIP3    H221343   1.010   4.162   4.383  0.5545 -0.3280  0.0859
 7134TIP3   OH221344   8.417   5.485   6.951 -0.6577  0.7694  0.0367
 7134TIP3    H121345   8.354   5.552   6.976 -1.7989 -0.0063 -0.7311
 7134TIP3    H221346   8.421   5.490   6.855  1.5059  1.7539  0.1464
 7135TIP3   OH221347   1.815   4.031   5.561 -0.1560  0.6203 -0.1787
 7135TIP3    H121348   1.819   4.127   5.553  0.1851  0.5322 -1.1734
 7135TIP3    H221349   1.866   4.012   5.639  1.6873  1.1083 -1.2129
 7136TIP3   OH221350   1.039   3.329   5.447 -0.4473 -0.2477  0.5738
 7136TIP3    H121351   1.016   3.309   5.357  0.6006 -1.0372  0.4824
 7136TIP3    H221352   0.956   3.355   5.488 -1.0781 -0.7942 -0.3659
 7137TIP3   OH221353   8.299   4.693   5.327 -0.6052 -0.1219 -1.0864
 7137TIP3    H121354   8.258   4.779   5.339  0.3853  0.1698  0.4318
 7137TIP3    H221355   8.231   4.630   5.349  0.1070  0.3720  2.8973
 7138TIP3   OH221356   7.893   5.950   6.240 -0.4240  0.7191  0.1975
 7138TIP3    H121357   7.955   6.021   6.221  1.0613 -0.8272 -0.8838
 7138TIP3    H221358   7.836   5.946   6.163  0.7242 -0.5058 -0.6113
 7139TIP3   OH221359  -0.002   3.787   5.127  0.0019  0.1948 -0.1897
 7139TIP3    H121360   0.035   3.808   5.212  0.6046  1.8944 -0.8498
 7139TIP3    H221361   0.033   3.700   5.106  0.2313 -0.0183  1.0632
 7140TIP3   OH221362   2.599   3.317   5.072  0.1823 -0.1619 -0.3177
 7140TIP3    H121363   2.524   3.360   5.031 -0.5685  0.4853  1.6646
 7140TIP3    H221364   2.598   3.228   5.037  0.1237  0.6261 -2.3842
 7141TIP3   OH221365   0.320   5.374   5.742  0.6202 -0.6511 -0.3571
 7141TIP3    H121366   0.323   5.299   5.683 -1.1296 -0.7289 -0.3515
 7141TIP3    H221367   0.228   5.397   5.748  1.1761  1.8097 -0.7400
 7142TIP3   OH221368   1.751   6.582   1.416  0.8576 -0.3354  0.4899
 7142TIP3    H121369   1.788   6.532   1.343  0.8430 -0.3030  0.4597
 7142TIP3    H221370   1.813   6.654   1.428  1.6662 -1.1852  1.5039
 7143TIP3   OH221371   7.680   2.028   4.492 -0.6520  0.2982 -0.3013
 7143TIP3    H121372   7.603   1.974   4.510 -1.0953  0.1936 -2.4560
 7143TIP3    H221373   7.652   2.117   4.510  0.2046 -0.1420  3.6925
 7144TIP3   OH221374   7.613   2.865   4.129  0.3674  0.0297  0.0495
 7144TIP3    H121375   7.702   2.887   4.102 -0.2437  1.7648 -0.6126
 7144TIP3    H221376   7.565   2.854   4.047 -0.2348 -0.0026  0.4019
 7145TIP3   OH221377   0.008   3.678   5.748  0.0638  0.1548 -0.1784
 7145TIP3    H121378  -0.030   3.762   5.773 -0.5197  0.3656 -1.7315
 7145TIP3    H221379   0.081   3.702   5.690  0.6712 -0.3756  0.3520
 7146TIP3   OH221380   0.291   2.466   6.801  0.2454 -0.3407  0.3650
 7146TIP3    H121381   0.248   2.393   6.756  1.1297 -0.7010  0.1080
 7146TIP3    H221382   0.332   2.427   6.877 -0.8790  0.2030  1.2655
 7147TIP3   OH221383   1.765   1.414   6.016  0.7467  0.4737  0.1266
 7147TIP3    H121384   1.742   1.402   6.108 -0.4895  1.1212 -0.0834
 7147TIP3    H221385   1.860   1.401   6.013  0.7803  0.3433  1.4731
 7148TIP3   OH221386   7.463   4.200   3.291  0.6494  0.3654 -0.1517
 7148TIP3    H121387   7.552   4.229   3.310  0.4817 -0.5790  2.2404
 7148TIP3    H221388   7.434   4.156   3.371 -0.9884 -1.7360 -1.8269
 7149TIP3   OH221389   1.242   3.239   5.067 -0.0020  0.0540 -0.0105
 7149TIP3    H121390   1.323   3.264   5.025 -0.0531  0.6607  0.2511
 7149TIP3    H221391   1.242   3.286   5.151 -0.0190 -0.9274  0.5600
 7150TIP3   OH221392   0.493   2.498   4.723 -0.1656 -0.5735  0.5409
 7150TIP3    H121393   0.429   2.552   4.676  0.6465 -0.2517 -0.2081
 7150TIP3    H221394   0.576   2.517   4.680  0.2073 -2.0590  0.5852
 7151TIP3   OH221395   7.607   4.900   5.290  0.2384 -0.0046 -0.1446
 7151TIP3    H121396   7.535   4.866   5.237 -0.6681  1.0511  0.4066
 7151TIP3    H221397   7.584   4.876   5.380  1.3265 -0.9943 -0.1131
 7152TIP3   OH221398   1.038   3.641   5.845 -0.0858 -0.2530  0.4566
 7152TIP3    H121399   1.043   3.661   5.752  2.1473 -0.8963  0.4060
 7152TIP3    H221400   1.127   3.615   5.869 -0.7379 -0.5857  2.6582
 7153TIP3   OH221401   0.533   4.432   5.714  0.2023 -0.4175  0.5220
 7153TIP3    H121402   0.587   4.365   5.755 -1.1587 -1.4917  0.6105
 7153TIP3    H221403   0.472   4.459   5.783  1.9639  2.3595  1.1065
 7154TIP3   OH221404   2.514   1.754   5.302  0.0960 -0.1176  0.7805
 7154TIP3    H121405   2.574   1.696   5.351 -0.8954  0.2608  2.4917
 7154TIP3    H221406   2.427   1.723   5.327 -0.4239  0.8355  0.1291
 7155TIP3   OH221407   1.080   1.784   5.924 -0.0433  0.2880  0.0322
 7155TIP3    H121408   1.043   1.701   5.955  0.5208  1.0006  2.7168
 7155TIP3    H221409   1.012   1.849   5.944  0.2935  0.7511 -0.3237
 7156TIP3   OH221410   0.907   4.784   5.049 -0.3557  0.0637 -0.4241
 7156TIP3    H121411   0.855   4.765   4.971 -1.0274 -1.0199  0.2749
 7156TIP3    H221412   0.842   4.801   5.117  0.2089 -0.7711  0.3258
 7157TIP3   OH221413   3.854   4.530   4.026  0.1748 -0.2392  0.1967
 7157TIP3    H121414   3.797   4.453   4.018  0.8920 -0.4388 -4.0805
 7157TIP3    H221415   3.940   4.498   3.997  0.9480  1.6864  0.3366
 7158TIP3   OH221416   1.952   3.810   5.058 -0.0950 -0.0250 -0.3546
 7158TIP3    H121417   1.901   3.856   4.992 -1.2459 -2.0572 -0.9087
 7158TIP3    H221418   1.913   3.835   5.141  0.5641  1.5568 -0.5082
 7159TIP3   OH221419   8.108   3.010   4.727 -0.0001  0.1382  0.5319
 7159TIP3    H121420   8.022   2.990   4.691 -1.3965  3.5591  1.7980
 7159TIP3    H221421   8.098   3.001   4.822  2.0089 -2.7277  0.5537
 7160TIP3   OH221422   1.152   2.132   5.693 -0.0211 -0.0377  0.1850
 7160TIP3    H121423   1.114   2.216   5.719 -0.0023 -0.0537  0.2662
 7160TIP3    H221424   1.202   2.104   5.770  1.4331  0.7171 -0.4515
 7161TIP3   OH221425   1.633   2.154   3.123  0.3251  0.3637 -0.2175
 7161TIP3    H121426   1.575   2.119   3.190 -0.8818  1.8125 -0.4626
 7161TIP3    H221427   1.717   2.113   3.140 -0.3514 -0.4845  1.2035
 7162TIP3   OH221428   1.257   3.774   4.884 -0.0466  0.0254  0.0027
 7162TIP3    H121429   1.207   3.730   4.953  0.7939 -2.0465 -0.6672
 7162TIP3    H221430   1.241   3.721   4.806  1.3498  0.6744 -0.7332
 7163TIP3   OH221431   1.181   2.968   5.382  0.1869 -0.7988  0.0719
 7163TIP3    H121432   1.174   2.930   5.469 -1.7299  0.0798  0.3144
 7163TIP3    H221433   1.131   2.909   5.326 -1.3044  0.3918  0.1392
 7164TIP3   OH221434   1.266   3.554   4.618 -0.3686 -0.5607  0.2262
 7164TIP3    H121435   1.245   3.539   4.710  2.1215  0.2486  0.9889
 7164TIP3    H221436   1.303   3.471   4.587 -0.1422 -0.4883  0.2982
 7165TIP3   OH221437   1.817   4.666   4.393  0.1297 -0.4162 -0.8107
 7165TIP3    H121438   1.791   4.575   4.384 -0.5471 -0.8727  4.3198
 7165TIP3    H221439   1.908   4.663   4.423 -0.3074  0.4886  0.6961
 7166TIP3   OH221440   0.472   2.644   6.063 -0.1057  0.7091 -0.0213
 7166TIP3    H121441   0.525   2.707   6.111  0.2286 -1.2041  2.2409
 7166TIP3    H221442   0.385   2.651   6.103 -0.0587 -0.2408  0.2709
 7167TIP3   OH221443   0.256   4.348   6.567 -0.2329  0.3264 -0.2053
 7167TIP3    H121444   0.180   4.373   6.515 -0.2767  0.9401  0.1428
 7167TIP3    H221445   0.280   4.428   6.614  0.2313 -0.0345  0.1808
 7168TIP3   OH221446   0.459   3.795   4.988  0.2715  0.3143 -0.0743
 7168TIP3    H121447   0.442   3.815   5.080 -1.0212 -0.4222 -0.1307
 7168TIP3    H221448   0.553   3.780   4.984  0.8396  3.3341  0.5319
 7169TIP3   OH221449   0.983   2.970   4.574  0.5895  0.0146  0.2356
 7169TIP3    H121450   1.033   2.890   4.588  0.5059 -0.1739 -0.5404
 7169TIP3    H221451   0.957   2.967   4.482  1.0235  1.1900  0.0700
 7170TIP3   OH221452   3.139   6.375   0.136 -0.0748 -0.0232  0.1622
 7170TIP3    H121453   3.142   6.466   0.166  0.3437 -0.2910  0.9619
 7170TIP3    H221454   3.156   6.323   0.215 -1.2318 -0.8331 -0.1055
 7171TIP3   OH221455   0.629   2.513   5.480 -0.2196  0.0358  0.0695
 7171TIP3    H121456   0.624   2.439   5.541 -0.1065 -0.4909 -0.5427
 7171TIP3    H221457   0.644   2.471   5.395 -1.9019  0.6479 -0.5583
 7172TIP3   OH221458   5.399   0.565   0.700 -0.2607 -0.3955  0.2171
 7172TIP3    H121459   5.362   0.625   0.635 -0.7112 -1.3451 -0.4276
 7172TIP3    H221460   5.445   0.499   0.647 -2.3537 -2.3412  0.7204
 7173TIP3   OH221461   7.656   1.734   4.084 -1.1153  0.4313  0.0861
 7173TIP3    H121462   7.568   1.753   4.118 -1.7277 -0.1102 -1.1565
 7173TIP3    H221463   7.715   1.780   4.144 -2.0590 -1.6867  2.7802
 7174TIP3   OH221464   7.979   4.656   4.229  0.5189 -0.2517  0.6215
 7174TIP3    H121465   7.998   4.700   4.313  1.1599 -1.4678  1.1307
 7174TIP3    H221466   7.884   4.652   4.225  0.4795 -0.0181  1.2167
 7175TIP3   OH221467   2.920   4.585   4.971  0.2089 -0.6308 -0.3381
 7175TIP3    H121468   2.845   4.593   4.912  0.0504 -1.3642 -0.2387
 7175TIP3    H221469   2.995   4.610   4.917  0.1153 -1.7042 -0.9951
 7176TIP3   OH221470   1.581   3.738   4.043 -0.4554 -0.6336  0.2348
 7176TIP3    H121471   1.495   3.745   4.002 -0.5127 -0.3695  0.4000
 7176TIP3    H221472   1.608   3.648   4.027 -0.2740 -0.4045 -0.7928
 7177TIP3   OH221473   8.313   5.923   3.204 -0.0830 -0.7757 -0.0958
 7177TIP3    H121474   8.294   5.876   3.284  0.5581 -2.5997 -0.9839
 7177TIP3    H221475   8.383   5.873   3.162  2.0515  2.0643 -0.1149
 7178TIP3   OH221476   1.023   3.083   4.116 -0.4040 -0.6370  0.1199
 7178TIP3    H121477   1.095   3.046   4.167 -1.3782 -0.4108  1.6944
 7178TIP3    H221478   1.066   3.129   4.043  1.1947  1.2294  2.1652
 7179TIP3   OH221479   0.729   3.825   4.897  0.2609  0.1442 -0.2384
 7179TIP3    H121480   0.790   3.864   4.961  2.4497  0.7063 -2.5911
 7179TIP3    H221481   0.782   3.762   4.849 -1.9693 -1.9814  0.0009
 7180TIP3   OH221482   0.891   2.938   5.658  0.1873 -0.2364 -0.4115
 7180TIP3    H121483   0.863   2.853   5.622  3.4188 -2.1625  1.4171
 7180TIP3    H221484   0.817   2.966   5.713 -0.7137 -2.1384 -0.6136
 7181TIP3   OH221485   1.347   0.989   5.554  0.2739  0.4892  0.3129
 7181TIP3    H121486   1.271   1.043   5.572 -0.2087 -0.4179  1.0370
 7181TIP3    H221487   1.404   1.002   5.631  0.1735  0.0093  0.4709
 7182TIP3   OH221488   3.190   4.112   6.318 -0.2349  0.1414 -0.3742
 7182TIP3    H121489   3.125   4.065   6.265  0.8149 -0.3845 -1.2150
 7182TIP3    H221490   3.138   4.164   6.380 -1.5195  1.1060 -2.2064
 7183TIP3   OH221491   1.333   3.335   4.496 -0.1507 -0.1524  0.0907
 7183TIP3    H121492   1.260   3.352   4.435  0.0516 -0.0301 -0.1192
 7183TIP3    H221493   1.386   3.268   4.452  1.2562  1.5947 -0.9307
 7184TIP3   OH221494   0.629   5.890   3.584  0.5694  0.1034 -0.3608
 7184TIP3    H121495   0.665   5.862   3.501  1.2411 -1.0452  0.3039
 7184TIP3    H221496   0.680   5.968   3.608 -1.4437  2.0779 -2.3139
 7185TIP3   OH221497   4.410   7.208   0.611 -0.2643 -0.6209  0.3896
 7185TIP3    H121498   4.414   7.129   0.557  1.6222  0.7639 -1.6306
 7185TIP3    H221499   4.343   7.262   0.570  0.4331 -0.0133  0.0171
 7186TIP3   OH221500   0.137   2.052   4.380  0.3958 -0.7553 -0.4337
 7186TIP3    H121501   0.061   2.056   4.439  0.4977 -0.2629 -0.3379
 7186TIP3    H221502   0.116   1.981   4.319 -2.3013  2.3997 -3.3961
 7187TIP3   OH221503   7.862   3.115   4.162  0.3551 -0.2139  0.5022
 7187TIP3    H121504   7.866   3.053   4.088  0.5305  1.8477 -1.2742
 7187TIP3    H221505   7.951   3.119   4.196  0.4240 -0.6501  0.3712
 7188TIP3   OH221506   0.427   3.635   5.886 -0.3345  0.0480  0.3034
 7188TIP3    H121507   0.468   3.568   5.941  0.7571  2.4329  2.4920
 7188TIP3    H221508   0.391   3.699   5.948  0.5549  2.6052 -1.7028
 7189TIP3   OH221509   1.098   1.034   4.147  0.3341 -0.2226  0.7395
 7189TIP3    H121510   1.027   0.995   4.096  0.4248  2.0820 -1.2504
 7189TIP3    H221511   1.067   1.030   4.238 -0.5022 -2.9994  0.3707
 7190TIP3   OH221512   7.767   2.352   6.627  0.2519  0.5394  0.6606
 7190TIP3    H121513   7.803   2.309   6.705  1.2680  1.6311  0.8071
 7190TIP3    H221514   7.673   2.358   6.645 -0.1141 -2.6279  0.1255
 7191TIP3   OH221515   0.582   3.660   6.881 -0.6668 -0.1741  0.2519
 7191TIP3    H121516   0.611   3.573   6.910  0.6673  0.7366  1.7550
 7191TIP3    H221517   0.577   3.712   6.961  0.1563  1.5942 -0.8095
 7192TIP3   OH221518   0.728   6.170   4.407  0.1530 -0.3616 -0.1694
 7192TIP3    H121519   0.710   6.243   4.467 -1.0417  0.9882 -2.1365
 7192TIP3    H221520   0.643   6.127   4.395  0.8961 -2.2888  1.1854
 7193TIP3   OH221521   0.992   2.500   5.557  0.1300  0.2260 -0.6843
 7193TIP3    H121522   1.070   2.450   5.533  0.1202  0.7530 -1.8709
 7193TIP3    H221523   0.976   2.557   5.482 -1.1713  0.4066 -0.2912
 7194TIP3   OH221524   0.632   1.437   4.613 -0.1741  0.0554 -0.0860
 7194TIP3    H121525   0.726   1.439   4.630 -0.1807 -0.7498  0.0723
 7194TIP3    H221526   0.609   1.344   4.617 -0.3388 -0.0981 -3.6264
 7195TIP3   OH221527   0.455   0.467   5.526 -0.2406  0.1176 -0.5126
 7195TIP3    H121528   0.523   0.500   5.468  0.5637 -0.9334 -0.1785
 7195TIP3    H221529   0.388   0.432   5.467 -1.1286  2.3292 -0.8743
 7196TIP3   OH221530   7.186   2.059   5.097 -0.4535 -0.2654  0.0957
 7196TIP3    H121531   7.115   2.123   5.094  0.5228  0.9263  1.9716
 7196TIP3    H221532   7.265   2.111   5.114  0.7969 -1.6418 -1.2996
 7197TIP3   OH221533   0.131   4.056   6.230 -0.4567  0.1206  0.0716
 7197TIP3    H121534   0.079   3.993   6.180 -0.0617  0.0012 -0.1884
 7197TIP3    H221535   0.089   4.059   6.316 -2.0772  1.4499 -0.7187
 7198TIP3   OH221536   8.489   2.345   3.649  0.4525  0.7463 -0.3085
 7198TIP3    H121537   8.544   2.351   3.571  0.8623  0.7221 -0.0183
 7198TIP3    H221538   8.403   2.376   3.620  0.7827  1.4067 -0.5868
 7199TIP3   OH221539   2.270   5.396   5.489  0.1052  0.5852  0.4448
 7199TIP3    H121540   2.241   5.442   5.568  1.5052  1.1515  0.6290
 7199TIP3    H221541   2.222   5.313   5.492  1.8582 -0.3978  3.1359
 7200TIP3   OH221542   1.053   4.359   6.260  0.5659  0.1257  0.0128
 7200TIP3    H121543   1.096   4.444   6.270  1.3976 -0.2335 -0.4513
 7200TIP3    H221544   1.101   4.316   6.189 -0.6853 -0.2083 -0.6486
 7201TIP3   OH221545   1.209   2.408   6.082 -0.5403  0.4305  0.1699
 7201TIP3    H121546   1.151   2.382   6.010 -0.4206  0.4674  0.0593
 7201TIP3    H221547   1.261   2.330   6.100 -0.9504  0.2561  0.5847
 7202TIP3   OH221548   1.014   1.700   1.738  0.0251 -0.3766  0.4279
 7202TIP3    H121549   1.042   1.730   1.651 -2.9979 -0.0286 -0.4920
 7202TIP3    H221550   1.028   1.775   1.796 -2.1263  0.9732 -0.7118
 7203TIP3   OH221551   8.069   4.326   5.077  0.2138  0.4101  0.1518
 7203TIP3    H121552   7.980   4.307   5.108  0.6954 -0.3555  1.0866
 7203TIP3    H221553   8.070   4.295   4.987  0.0757 -1.2483  0.7031
 7204TIP3   OH221554   1.669   3.515   3.679  0.3349 -0.5183 -0.3468
 7204TIP3    H121555   1.583   3.485   3.652  0.9409 -1.7109 -0.9719
 7204TIP3    H221556   1.672   3.498   3.773 -0.5186  0.5538 -0.1167
 7205TIP3   OH221557   0.908   4.666   4.324  0.1310 -0.5019  0.9753
 7205TIP3    H121558   0.815   4.689   4.324  0.5386  1.2990 -0.2423
 7205TIP3    H221559   0.921   4.621   4.241  0.3536 -0.7107  1.1258
 7206TIP3   OH221560   0.261   3.665   3.872 -0.1763 -0.2891 -0.3514
 7206TIP3    H121561   0.356   3.669   3.881 -0.3678  2.1031  1.0078
 7206TIP3    H221562   0.233   3.756   3.872 -2.3187 -0.8906 -2.8117
 7207TIP3   OH221563   2.282   3.046   5.579  0.0316  0.3383 -0.1899
 7207TIP3    H121564   2.281   3.008   5.667 -0.5975 -2.4461 -1.3506
 7207TIP3    H221565   2.295   3.139   5.593  1.0618 -0.2238  2.8045
 7208TIP3   OH221566   2.836   0.856   5.960  0.2772  0.4201  0.0678
 7208TIP3    H121567   2.892   0.868   6.037  1.7094  0.3479 -0.9438
 7208TIP3    H221568   2.862   0.771   5.924 -0.2430  0.5394 -0.6095
 7209TIP3   OH221569   7.525   3.116   5.727 -0.8248  0.5486  0.2138
 7209TIP3    H121570   7.451   3.122   5.667  0.9527  1.3356 -2.0041
 7209TIP3    H221571   7.504   3.044   5.786 -2.5103 -0.4344 -1.5486
 7210TIP3   OH221572   8.033   1.658   3.943  0.0724  0.1266 -0.5174
 7210TIP3    H121573   8.060   1.726   4.005 -1.2808 -1.0973  1.5054
 7210TIP3    H221574   8.012   1.706   3.863 -0.1190  2.0144  0.6208
 7211TIP3   OH221575   7.940   3.668   5.317  0.2274  0.1529 -0.4347
 7211TIP3    H121576   7.999   3.742   5.302 -0.6073  0.7803 -0.6073
 7211TIP3    H221577   7.989   3.593   5.283  1.1511  0.5893 -0.0973
 7212TIP3   OH221578   1.728   2.187   4.726  0.2125 -0.1047 -0.4421
 7212TIP3    H121579   1.796   2.146   4.779  1.0168 -0.5782 -1.8103
 7212TIP3    H221580   1.662   2.119   4.716  0.5098 -0.3349 -0.8523
 7213TIP3   OH221581   3.578   5.986   3.423 -0.0490 -0.4928 -0.4535
 7213TIP3    H121582   3.489   6.019   3.435 -0.5391 -1.4776 -1.2783
 7213TIP3    H221583   3.608   6.027   3.342  0.5160  0.3900  0.1973
 7214TIP3   OH221584   2.163   3.930   6.487 -0.4913 -0.0826 -0.5172
 7214TIP3    H121585   2.226   3.884   6.431  1.4833  1.4556  0.3772
 7214TIP3    H221586   2.093   3.956   6.427  1.5254  1.4581 -2.3166
 7215TIP3   OH221587   1.824   5.422   2.888  0.1572 -0.5560  0.3134
 7215TIP3    H121588   1.754   5.487   2.890  1.1246  0.5378 -0.5368
 7215TIP3    H221589   1.801   5.359   2.956 -1.0968  0.3686  0.7534
 7216TIP3   OH221590   0.534   3.375   5.650  0.4452  0.4464  0.0823
 7216TIP3    H121591   0.595   3.370   5.723  0.3583  0.9040  0.1891
 7216TIP3    H221592   0.454   3.333   5.681  0.5788  0.1944  0.0778
 7217TIP3   OH221593   7.897   3.881   6.665  0.0010  0.3904 -0.5441
 7217TIP3    H121594   7.824   3.822   6.682  1.2861 -1.0999 -0.1280
 7217TIP3    H221595   7.863   3.943   6.600 -2.1573  0.7680  0.9195
 7218TIP3   OH221596   4.065   2.651   3.029 -0.4917 -0.4878 -0.1536
 7218TIP3    H121597   4.146   2.604   3.008  0.4329  1.7368 -1.7444
 7218TIP3    H221598   4.021   2.661   2.945 -2.0962 -1.0598  0.6048
 7219TIP3   OH221599   1.567   4.280   2.940 -0.3194  0.5095 -0.4686
 7219TIP3    H121600   1.631   4.301   3.009  0.4754 -0.8563 -0.7744
 7219TIP3    H221601   1.492   4.244   2.987  0.2338 -0.4504 -0.3108
 7220TIP3   OH221602   0.590   5.006   5.946  0.4688 -0.1644 -0.0435
 7220TIP3    H121603   0.565   4.987   5.855 -1.7734 -1.1255  0.7492
 7220TIP3    H221604   0.629   4.924   5.977 -0.4905 -0.4435  0.4351
 7221TIP3   OH221605   1.147   5.233   5.866 -0.6490  0.5535 -0.5937
 7221TIP3    H121606   1.131   5.172   5.793 -2.3165 -0.7742  0.8427
 7221TIP3    H221607   1.200   5.183   5.928 -4.1474 -0.4206  1.7727
 7222TIP3   OH221608   0.491   4.397   6.836 -0.1545 -0.2978  0.4784
 7222TIP3    H121609   0.544   4.406   6.757  0.5886 -0.7185  0.9183
 7222TIP3    H221610   0.538   4.448   6.902 -0.3691 -0.5611  0.8343
 7223TIP3   OH221611   8.226   4.525   4.456 -0.3126 -0.1036  0.1005
 7223TIP3    H121612   8.193   4.444   4.418  1.7124 -0.6536 -0.5398
 7223TIP3    H221613   8.261   4.499   4.542  0.3073  0.0981 -0.0898
 7224TIP3   OH221614   1.933   4.352   5.057  0.0315  0.1695  0.1605
 7224TIP3    H121615   2.006   4.395   5.101 -0.0215  0.3721  0.0495
 7224TIP3    H221616   1.855   4.383   5.104  0.0699 -0.6764  0.8054
 7225TIP3   OH221617   0.250   5.755   3.432 -0.1491 -0.5781 -0.4031
 7225TIP3    H121618   0.270   5.831   3.378 -0.3809 -0.6417 -0.5770
 7225TIP3    H221619   0.177   5.711   3.387 -0.0095 -0.9091 -0.3131
 7226TIP3   OH221620   1.057   6.059   0.111  0.0583 -0.3681 -0.1373
 7226TIP3    H121621   1.016   6.135   0.072  0.8836 -0.9923 -2.3327
 7226TIP3    H221622   1.149   6.085   0.124 -0.3010 -0.0174  1.8559
 7227TIP3   OH221623   1.213   2.361   4.266 -0.1692  0.3533  0.0940
 7227TIP3    H121624   1.188   2.447   4.233  0.3032  0.0845 -0.9655
 7227TIP3    H221625   1.307   2.355   4.248 -0.2102 -0.4012  0.1340
 7228TIP3   OH221626   0.531   1.852   2.301 -0.2396  0.5902 -0.0084
 7228TIP3    H121627   0.450   1.841   2.352  0.7177  0.5849  1.5222
 7228TIP3    H221628   0.597   1.805   2.351  0.1784 -1.7658 -2.6556
 7229TIP3   OH221629   0.462   4.899   5.227 -0.0555  0.2103  0.3174
 7229TIP3    H121630   0.452   4.984   5.269  0.3683  0.8327 -0.8264
 7229TIP3    H221631   0.409   4.905   5.148  1.0096 -0.1245 -0.4340
 7230TIP3   OH221632   4.244   6.142   0.268 -0.4699 -0.4932 -0.1610
 7230TIP3    H121633   4.175   6.209   0.262  0.1031  0.1799  0.7185
 7230TIP3    H221634   4.234   6.105   0.356  0.5394 -0.1291  0.1104
 7231TIP3   OH221635   4.770   7.871   0.399  0.6796 -0.0296 -0.5144
 7231TIP3    H121636   4.677   7.886   0.414  1.2439  1.3955  1.7197
 7231TIP3    H221637   4.785   7.780   0.426 -0.4039 -0.8962 -2.7146
 7232TIP3   OH221638   2.256   1.192   1.994 -0.6206  0.2312  0.3580
 7232TIP3    H121639   2.301   1.277   1.988 -2.2444  1.0869  0.0970
 7232TIP3    H221640   2.193   1.194   1.923 -0.8433 -1.1065  0.5211
 7233TIP3   OH221641   0.936   4.662   6.714  0.2266  0.1302 -0.4559
 7233TIP3    H121642   1.009   4.609   6.684  0.0192  0.3953 -1.4273
 7233TIP3    H221643   0.975   4.747   6.737  0.1092  0.5396 -1.7401
 7234TIP3   OH221644   2.755   7.933   0.788  0.0192  0.1310 -0.4713
 7234TIP3    H121645   2.826   7.943   0.851  0.0396 -1.5337 -0.1851
 7234TIP3    H221646   2.682   7.899   0.841 -0.0268 -1.0801 -1.2861
 7235TIP3   OH221647   0.744   4.258   6.714 -0.0372 -0.0793  0.0708
 7235TIP3    H121648   0.780   4.268   6.625  0.4219 -0.0412  0.2627
 7235TIP3    H221649   0.738   4.163   6.726  3.9710 -0.2073  1.6342
 7236TIP3   OH221650   8.475   2.484   6.046  0.0400 -0.1665 -0.7026
 7236TIP3    H121651   8.419   2.508   6.120  1.2267  0.9810 -0.1673
 7236TIP3    H221652   8.489   2.390   6.057 -0.9916 -0.2794 -0.2967
 7237TIP3   OH221653   1.170   4.729   5.449 -0.5268  0.2670 -0.1960
 7237TIP3    H121654   1.164   4.769   5.362 -0.2326 -0.1941 -0.4341
 7237TIP3    H221655   1.111   4.781   5.504  0.0876  1.2100 -0.4224
 7238TIP3   OH221656   0.333   3.288   3.088  0.5369 -0.1787 -0.5939
 7238TIP3    H121657   0.388   3.264   3.014 -1.9211  0.3380 -2.6599
 7238TIP3    H221658   0.348   3.381   3.101 -0.3777  0.1284 -1.6512
 7239TIP3   OH221659   0.660   4.994   6.625  0.5570 -0.1724 -0.0486
 7239TIP3    H121660   0.594   4.960   6.685 -1.5176  1.5055 -1.3098
 7239TIP3    H221661   0.686   4.918   6.573 -2.1432 -0.4230 -1.1134
 7240TIP3   OH221662   2.098   4.877   5.517 -0.5426 -0.7277  0.1957
 7240TIP3    H121663   2.091   4.855   5.424 -3.8529  0.6443  0.0745
 7240TIP3    H221664   2.008   4.875   5.549  0.4286  0.1571  3.0770
 7241TIP3   OH221665   7.319   4.516   4.681 -0.4383  0.2100  0.6745
 7241TIP3    H121666   7.290   4.449   4.618  0.5463 -1.3479  1.8397
 7241TIP3    H221667   7.248   4.519   4.745 -0.4584  0.2458  0.6516
 7242TIP3   OH221668   1.514   0.943   5.777 -0.2576 -0.1857 -0.1219
 7242TIP3    H121669   1.473   0.891   5.846 -0.0964  0.9246  0.8184
 7242TIP3    H221670   1.521   1.031   5.814 -0.4018  0.4765 -1.6430
 7243TIP3   OH221671   7.719   4.877   3.961  0.9915  0.1581 -0.2114
 7243TIP3    H121672   7.754   4.966   3.960  1.0530  0.1237 -1.3215
 7243TIP3    H221673   7.644   4.879   3.901  0.3599 -0.2836  0.5576
 7244TIP3   OH221674   1.608   3.376   5.873 -0.0765 -0.1507  0.1151
 7244TIP3    H121675   1.522   3.415   5.889 -1.5145 -2.9098 -0.4211
 7244TIP3    H221676   1.592   3.281   5.875  2.7416 -0.7231 -1.1310
 7245TIP3   OH221677   0.513   2.953   6.183  0.0456  0.6247  0.5735
 7245TIP3    H121678   0.506   3.008   6.261  0.2193 -0.1058  1.1086
 7245TIP3    H221679   0.457   2.996   6.118 -0.2481  1.1333  1.1579
 7246TIP3   OH221680   0.517   2.607   5.164 -0.1288  0.0629  0.3833
 7246TIP3    H121681   0.575   2.681   5.178 -1.4343  1.3979 -1.0921
 7246TIP3    H221682   0.453   2.612   5.235  1.3327 -1.2383  1.8378
 7247TIP3   OH221683   2.625   4.507   5.276 -0.4338  0.0003  0.1116
 7247TIP3    H121684   2.557   4.479   5.214 -0.1645 -2.7084  0.9610
 7247TIP3    H221685   2.581   4.507   5.361  0.4548 -1.1348  0.5797
 7248TIP3   OH221686   1.343   3.319   3.016 -0.2240  0.2100 -0.0996
 7248TIP3    H121687   1.326   3.372   2.938 -0.4636 -0.3754 -0.4509
 7248TIP3    H221688   1.436   3.329   3.032 -0.2170  0.5188 -0.3264
 7249TIP3   OH221689   0.369   1.930   4.023  0.1112  0.1434  0.1290
 7249TIP3    H121690   0.276   1.951   4.024  0.0063 -0.3200  0.4489
 7249TIP3    H221691   0.373   1.837   4.046  0.7773  0.6219  2.0063
 7250TIP3   OH221692   7.120   4.433   6.285 -0.4957  0.2692 -0.6914
 7250TIP3    H121693   7.121   4.512   6.231 -0.0034 -0.2747 -1.4969
 7250TIP3    H221694   7.180   4.373   6.240 -2.6177 -1.4011 -1.3560
 7251TIP3   OH221695   0.638   4.934   4.489  0.2316  0.2295 -0.1591
 7251TIP3    H121696   0.567   4.998   4.495  0.8570  1.0560 -1.2204
 7251TIP3    H221697   0.601   4.853   4.522 -0.7365  1.0231  0.7497
 7252TIP3   OH221698   0.682   5.266   5.910 -0.3217 -0.0343 -0.0269
 7252TIP3    H121699   0.634   5.183   5.902  2.2818 -1.4780 -1.3326
 7252TIP3    H221700   0.745   5.251   5.980  0.1145  0.8816 -0.2134
 7253TIP3   OH221701   0.166   5.132   6.715  0.3232  0.2136  0.9561
 7253TIP3    H121702   0.127   5.072   6.778 -1.8991  1.2905  0.6850
 7253TIP3    H221703   0.236   5.176   6.763 -0.5167  0.1078  2.3063
 7254TIP3   OH221704   7.719   2.342   4.328 -0.1178 -0.2446 -0.1616
 7254TIP3    H121705   7.697   2.297   4.246 -0.9845  0.2879 -0.2407
 7254TIP3    H221706   7.812   2.363   4.320  0.2818 -1.9271 -0.1565
 7255TIP3   OH221707   3.717   7.732   1.299 -0.0510  0.5017 -0.2689
 7255TIP3    H121708   3.650   7.783   1.345 -1.8644 -1.1573 -1.0002
 7255TIP3    H221709   3.796   7.786   1.304 -1.4883  2.6099  0.4206
 7256TIP3   OH221710   1.734   3.234   4.141 -0.1127 -0.5792  0.0018
 7256TIP3    H121711   1.825   3.208   4.156 -0.0835  0.1805  1.2062
 7256TIP3    H221712   1.710   3.190   4.060  1.4016 -0.6068 -0.4564
 7257TIP3   OH221713   1.964   4.953   6.827 -0.0192 -0.2676  0.2152
 7257TIP3    H121714   2.010   5.026   6.786  0.9522 -0.6061  0.6771
 7257TIP3    H221715   2.033   4.903   6.871 -0.7343 -1.2103  0.2825
 7258TIP3   OH221716   7.531   4.230   6.755  0.1940 -0.6878 -0.1870
 7258TIP3    H121717   7.505   4.163   6.817 -1.4481 -0.8088 -0.9917
 7258TIP3    H221718   7.514   4.192   6.669  1.1995 -0.0233 -0.7052
 7259TIP3   OH221719   7.309   4.726   4.898  0.3791  0.0405 -0.3882
 7259TIP3    H121720   7.361   4.648   4.918  0.6414 -0.1597 -1.8098
 7259TIP3    H221721   7.322   4.784   4.973 -1.1769 -1.9775  1.5195
 7260TIP3   OH221722   1.114   2.780   4.092 -0.3491  0.7004  0.2162
 7260TIP3    H121723   1.153   2.843   4.031  1.5764  0.2003  0.8780
 7260TIP3    H221724   1.020   2.788   4.078  0.0324  0.9072 -2.5202
 7261TIP3   OH221725   0.173   5.280   4.781 -0.2572  0.0826 -0.2185
 7261TIP3    H121726   0.208   5.309   4.697 -1.7982  0.8700 -0.6061
 7261TIP3    H221727   0.176   5.357   4.838  0.8731 -0.4734  0.4830
 7262TIP3   OH221728   0.361   4.166   6.381  0.1567  0.3565  0.1210
 7262TIP3    H121729   0.282   4.143   6.332  0.4824  0.7692 -0.6080
 7262TIP3    H221730   0.330   4.224   6.450 -0.4775 -1.1839  1.1651
 7263TIP3   OH221731   1.627   4.611   6.610  0.0280 -0.3991  0.4429
 7263TIP3    H121732   1.602   4.703   6.605  0.3017 -0.3731 -0.3989
 7263TIP3    H221733   1.706   4.604   6.556  0.4469 -0.9731  1.1178
 7264TIP3   OH221734   1.459   4.173   5.383 -0.1068 -0.1740 -0.6474
 7264TIP3    H121735   1.546   4.178   5.342  0.5330  0.7602  0.7754
 7264TIP3    H221736   1.427   4.086   5.359  1.4079 -0.7005 -0.8528
 7265TIP3   OH221737   1.097   1.711   6.717 -0.0472  0.3197 -0.6677
 7265TIP3    H121738   1.069   1.796   6.682 -1.0620 -0.3468 -1.5190
 7265TIP3    H221739   1.022   1.682   6.770  0.2783 -0.0644 -0.4202
 7266TIP3   OH221740   2.455   6.731   1.138 -0.3602  0.0672  0.0965
 7266TIP3    H121741   2.515   6.757   1.068 -1.5647  0.6471 -0.7287
 7266TIP3    H221742   2.447   6.809   1.193 -0.6528  0.1081 -0.0035
 7267TIP3   OH221743   8.301   2.775   6.550  0.9813 -0.1938 -0.2930
 7267TIP3    H121744   8.268   2.686   6.543  0.7062 -0.2406  1.2864
 7267TIP3    H221745   8.393   2.764   6.577  1.1779 -0.0152 -0.8924
 7268TIP3   OH221746   0.961   0.012   5.198 -0.5861  0.0272 -0.0593
 7268TIP3    H121747   0.997   0.099   5.218 -1.3302  0.1277  0.8324
 7268TIP3    H221748   1.037  -0.038   5.166  0.4486  0.1388  2.1154
 7269TIP3   OH221749   4.262   6.564   0.272 -0.2967  0.2601  0.1547
 7269TIP3    H121750   4.206   6.498   0.230  1.1459 -0.1373 -1.2184
 7269TIP3    H221751   4.294   6.520   0.351 -1.8235  0.4582  0.9021
 7270TIP3   OH221752   7.851   3.605   6.947  0.3807 -0.7199  0.3119
 7270TIP3    H121753   7.813   3.646   6.869  0.8882 -1.1808 -0.1862
 7270TIP3    H221754   7.939   3.643   6.953  0.6519 -1.3271  0.1669
 7271TIP3   OH221755   7.468   4.616   6.717 -0.8392 -0.3505  0.2056
 7271TIP3    H121756   7.526   4.634   6.643 -0.0589 -2.2381  0.3261
 7271TIP3    H221757   7.391   4.575   6.677 -1.4834  0.8319  0.2036
 7272TIP3   OH221758   0.446   1.834   5.908  0.7148 -0.1394  0.0170
 7272TIP3    H121759   0.407   1.844   5.995  2.0585  1.0167  0.5033
 7272TIP3    H221760   0.377   1.792   5.856  0.0568 -1.2357  1.7337
 7273TIP3   OH221761   1.870   3.149   5.661  0.0679 -0.4936 -0.4901
 7273TIP3    H121762   1.846   3.061   5.692  0.8867 -0.8223 -0.7756
 7273TIP3    H221763   1.848   3.207   5.734  0.8840 -1.1135  0.2515
 7274TIP3   OH221764   1.148   3.650   5.143 -0.0195 -0.0936 -0.0405
 7274TIP3    H121765   1.053   3.639   5.148  0.1406 -0.4529  3.0654
 7274TIP3    H221766   1.178   3.642   5.233  2.8499  1.2599 -0.8195
 7275TIP3   OH221767   1.832   2.905   4.752 -0.5211  0.1514 -0.3507
 7275TIP3    H121768   1.794   2.962   4.819  0.3971  0.9113 -0.4606
 7275TIP3    H221769   1.913   2.873   4.791 -0.8147 -0.7376 -0.4621
 7276TIP3   OH221770   0.668   5.809   3.919 -0.0124 -0.1862  0.0089
 7276TIP3    H121771   0.755   5.839   3.891  0.0283 -0.5345 -0.2365
 7276TIP3    H221772   0.623   5.786   3.838 -0.5198  0.4884  0.0939
 7277TIP3   OH221773   2.271   3.819   5.545  0.0550  0.3714  0.0579
 7277TIP3    H121774   2.306   3.773   5.621  0.5549 -1.0100 -0.9795
 7277TIP3    H221775   2.334   3.888   5.526  1.3593 -1.0232 -0.7622
 7278TIP3   OH221776   2.792   1.793   4.822 -0.0188 -0.2078 -0.4162
 7278TIP3    H121777   2.871   1.754   4.861  1.1404  1.7497 -0.7106
 7278TIP3    H221778   2.725   1.784   4.890  1.3824  1.1270  1.2047
 7279TIP3   OH221779   1.727   3.768   3.670  0.4568  0.2974 -0.1786
 7279TIP3    H121780   1.723   3.673   3.671  1.7753  0.2145 -1.0632
 7279TIP3    H221781   1.777   3.791   3.749  0.7327  0.2212 -0.3317
 7280TIP3   OH221782   1.250   3.533   3.502 -0.0649  0.0637 -0.6874
 7280TIP3    H121783   1.160   3.552   3.530  0.3878  1.1648  0.0239
 7280TIP3    H221784   1.300   3.610   3.528  1.3012 -1.0079 -0.0948
 7281TIP3   OH221785   0.686   4.951   2.853  0.5766 -0.3838 -0.3599
 7281TIP3    H121786   0.644   5.031   2.822  2.1638  0.9762  0.9264
 7281TIP3    H221787   0.732   4.917   2.776 -1.5551 -1.0675 -1.3841
 7282TIP3   OH221788   0.052   2.843   4.892 -0.2409 -0.2852 -0.0387
 7282TIP3    H121789   0.043   2.915   4.830  1.0760 -0.2158 -0.1667
 7282TIP3    H221790   0.031   2.764   4.841 -0.5961 -0.0900 -0.1914
 7283TIP3   OH221791   3.113   6.568   5.426  0.4961  0.4875 -0.1567
 7283TIP3    H121792   3.097   6.508   5.499  1.8432  0.9846  0.5856
 7283TIP3    H221793   3.133   6.511   5.352 -2.0589 -0.0500 -0.4589
 7284TIP3   OH221794   1.620   2.910   5.175 -0.1676 -0.4037  0.0207
 7284TIP3    H121795   1.552   2.843   5.183 -0.1747 -0.4803 -0.7246
 7284TIP3    H221796   1.673   2.899   5.255  0.6163 -2.1667 -0.7193
 7285TIP3   OH221797   1.262   4.432   5.898 -0.4501  0.0141  0.1873
 7285TIP3    H121798   1.234   4.524   5.894  0.0783  0.1377 -0.8390
 7285TIP3    H221799   1.252   4.400   5.809 -0.2486 -0.8138  0.4583
 7286TIP3   OH221800   1.633   0.603   4.935  0.3957 -0.8222  0.1505
 7286TIP3    H121801   1.693   0.675   4.951 -0.6875 -0.0445  0.7548
 7286TIP3    H221802   1.572   0.605   5.008 -1.3872 -0.5412 -1.3073
 7287TIP3   OH221803   2.138   2.209   3.696  0.0420 -0.1674 -0.7236
 7287TIP3    H121804   2.057   2.179   3.738  0.0207  0.1009 -0.5701
 7287TIP3    H221805   2.205   2.199   3.764  0.2815 -1.0887 -1.0844
 7288TIP3   OH221806   0.419   4.130   5.224  0.1524  0.0297  0.1955
 7288TIP3    H121807   0.456   4.213   5.193 -0.6051 -0.1924 -1.3456
 7288TIP3    H221808   0.366   4.155   5.300  0.6485  0.8295  0.2956
 7289TIP3   OH221809   7.416   3.881   5.511 -0.4926 -0.0267  0.1689
 7289TIP3    H121810   7.353   3.954   5.511  0.0749  0.4760 -0.6764
 7289TIP3    H221811   7.381   3.819   5.447  0.6632  0.9754 -1.4818
 7290TIP3   OH221812   1.479   2.018   5.768 -0.4161  0.5557 -0.2821
 7290TIP3    H121813   1.505   1.958   5.838  0.6654 -1.0756 -2.0235
 7290TIP3    H221814   1.421   1.966   5.712  0.8239  0.9940 -2.0182
 7291TIP3   OH221815   1.644   2.476   6.358  0.5990 -0.0579  0.5061
 7291TIP3    H121816   1.646   2.542   6.427  0.9088  0.9597 -0.4615
 7291TIP3    H221817   1.585   2.408   6.392 -0.2970  1.0483  1.2218
 7292TIP3   OH221818   6.750   0.497   0.521  0.0527  0.2487 -0.6306
 7292TIP3    H121819   6.677   0.500   0.460  0.7398  0.6123 -1.4402
 7292TIP3    H221820   6.711   0.515   0.607 -0.8731 -0.0308 -0.9975
 7293TIP3   OH221821   0.133   3.065   6.481 -0.1226  0.3161 -0.1001
 7293TIP3    H121822   0.149   3.106   6.566  2.8537  1.6939 -1.2509
 7293TIP3    H221823   0.050   3.104   6.451  0.7456  2.7063  0.5074
 7294TIP3   OH221824   1.238   4.830   4.196 -0.1786 -0.3303 -0.7668
 7294TIP3    H121825   1.237   4.787   4.281  1.9140 -1.8162 -1.4666
 7294TIP3    H221826   1.147   4.858   4.182 -0.7065 -0.8300  1.5537
 7295TIP3   OH221827   7.916   3.291   6.021  0.6978 -0.9716  0.0116
 7295TIP3    H121828   7.896   3.200   6.043  1.2534 -0.5055  2.4999
 7295TIP3    H221829   8.006   3.304   6.051  0.2476  0.7097  0.6649
 7296TIP3   OH221830   0.785   5.913   6.070 -0.3497 -0.6776  0.3608
 7296TIP3    H121831   0.765   5.836   6.122 -1.6557 -0.1877  0.5780
 7296TIP3    H221832   0.704   5.964   6.067  0.1670  0.1276 -0.7408
 7297TIP3   OH221833   3.065   7.959   0.504  0.8673  0.3060 -0.0469
 7297TIP3    H121834   3.059   8.055   0.495  0.7449  0.3211  0.1846
 7297TIP3    H221835   2.979   7.933   0.539  1.3787  0.2693  1.2088
 7298TIP3   OH221836   0.060   4.074   6.794  0.1848  0.5361  0.5104
 7298TIP3    H121837   0.097   4.015   6.860  0.0436 -0.2573 -0.1027
 7298TIP3    H221838   0.122   4.146   6.788  0.9293 -0.0992  0.4912
 7299TIP3   OH221839   0.279   4.909   6.559 -0.1658 -0.3941 -0.0916
 7299TIP3    H121840   0.219   4.973   6.597 -0.1179 -0.2610 -0.2369
 7299TIP3    H221841   0.282   4.931   6.466  0.5407 -0.0424  0.0095
 7300TIP3   OH221842   0.495   5.641   5.745 -0.3371  0.0227 -0.2985
 7300TIP3    H121843   0.417   5.606   5.701 -0.1319 -0.7904 -0.0216
 7300TIP3    H221844   0.465   5.660   5.834 -0.7489  1.6571 -0.7633
 7301TIP3   OH221845   0.563   3.522   6.114  0.3599 -0.7158  0.0155
 7301TIP3    H121846   0.574   3.444   6.169  2.0269 -0.0621  0.6175
 7301TIP3    H221847   0.544   3.592   6.176 -0.8564 -0.5723 -0.5080
 7302TIP3   OH221848   7.541   3.058   6.066  0.5523 -0.4520  0.1211
 7302TIP3    H121849   7.519   2.977   6.020  1.8271 -1.0605  0.5542
 7302TIP3    H221850   7.483   3.124   6.028 -2.2489 -2.0683  1.4951
 7303TIP3   OH221851   0.197   3.701   6.785 -0.2099 -0.3504 -0.2813
 7303TIP3    H121852   0.241   3.770   6.836 -1.5405  0.2930  0.0291
 7303TIP3    H221853   0.195   3.626   6.844  1.8134 -0.8762 -0.8472
 7304TIP3   OH221854   8.504   4.380   6.429 -0.0033  0.6854 -0.3999
 7304TIP3    H121855   8.465   4.398   6.343 -1.3335 -0.4998 -0.0761
 7304TIP3    H221856   8.468   4.448   6.486 -0.1999  0.6606 -0.4920
 7305TIP3   OH221857   3.857   4.956   5.742 -0.3595 -0.0048  0.4244
 7305TIP3    H121858   3.911   4.987   5.815  0.1780  1.0294 -0.4029
 7305TIP3    H221859   3.821   5.035   5.702  1.3370 -0.3597 -1.9394
 7306TIP3   OH221860   8.537   1.837   4.241  0.2622  0.3184  0.2558
 7306TIP3    H121861   8.463   1.891   4.213  2.0980  2.9965  0.4659
 7306TIP3    H221862   8.499   1.779   4.308 -1.9251  0.7261 -0.5823
 7307TIP3   OH221863   7.354   5.410   6.831 -0.5358  0.1328 -0.1987
 7307TIP3    H121864   7.418   5.391   6.900  1.1529 -0.7313 -1.9266
 7307TIP3    H221865   7.307   5.327   6.820 -1.1614  0.4263  0.2782
 7308TIP3   OH221866   7.113   3.458   4.357 -0.9168  0.3067 -0.0720
 7308TIP3    H121867   7.028   3.495   4.330 -0.8560  0.3173 -0.2495
 7308TIP3    H221868   7.095   3.418   4.442 -1.5067 -1.1534 -0.8555
 7309TIP3   OH221869   2.283   1.981   5.654 -0.5614 -0.3983 -0.0829
 7309TIP3    H121870   2.360   1.935   5.621 -1.1206 -1.2491 -0.2218
 7309TIP3    H221871   2.305   2.004   5.745  1.0307  2.0573 -1.0303
 7310TIP3   OH221872   2.261   4.541   6.804 -0.6226 -1.0931  0.5490
 7310TIP3    H121873   2.220   4.534   6.718  1.1834 -1.6107 -0.2743
 7310TIP3    H221874   2.270   4.451   6.834 -0.7801 -0.9377  1.0782
 7311TIP3   OH221875   6.421   3.986   5.920  0.4501  0.3485 -0.2027
 7311TIP3    H121876   6.515   3.984   5.936  0.3192 -1.5421  0.5183
 7311TIP3    H221877   6.401   4.078   5.902  1.9943  1.2101  2.2008
 7312TIP3   OH221878   7.962   1.795   6.622  0.3156 -0.0924 -0.1976
 7312TIP3    H121879   7.922   1.740   6.689  0.0369  0.8149  0.4010
 7312TIP3    H221880   8.045   1.752   6.602 -0.5541 -1.4998 -0.7999
 7313TIP3   OH221881   1.135   1.808   5.487 -0.1450 -0.2653 -0.1442
 7313TIP3    H121882   1.041   1.790   5.493 -0.2484 -0.5088 -2.1645
 7313TIP3    H221883   1.140   1.893   5.442  0.6133 -0.2406 -0.0247
 7314TIP3   OH221884   0.441   0.581   4.718 -0.1975  0.1478 -0.3737
 7314TIP3    H121885   0.468   0.618   4.634  0.9304  0.2479  0.0163
 7314TIP3    H221886   0.346   0.586   4.717 -0.2118  0.0114 -1.7101
 7315TIP3   OH221887   1.359   1.645   3.835 -0.6514 -0.0878 -0.2674
 7315TIP3    H121888   1.389   1.600   3.914  0.7670 -1.1410 -1.3786
 7315TIP3    H221889   1.418   1.719   3.825  0.8423 -1.4368 -1.7511
 7316TIP3   OH221890   0.964   1.468   3.923 -0.5067 -0.3040  0.2149
 7316TIP3    H121891   0.953   1.425   4.007  3.2376 -0.3197  0.7895
 7316TIP3    H221892   0.949   1.560   3.940  1.3644 -0.1564  1.2054
 7317TIP3   OH221893   6.928   1.595   5.227  0.4424  0.4431 -0.4021
 7317TIP3    H121894   7.002   1.570   5.283 -0.7279  0.0511  0.9945
 7317TIP3    H221895   6.861   1.626   5.288 -1.0299 -0.4078 -1.5519
 7318TIP3   OH221896   0.607   2.811   4.557  0.0693  0.0868  0.4500
 7318TIP3    H121897   0.646   2.725   4.539  0.0321  0.3192 -0.7965
 7318TIP3    H221898   0.577   2.842   4.471 -0.3882  1.1191  0.9728
 7319TIP3   OH221899   0.857   2.904   4.304 -0.3273 -0.4371  0.2288
 7319TIP3    H121900   0.766   2.882   4.322 -0.0428 -0.9990  0.9919
 7319TIP3    H221901   0.871   2.877   4.213 -0.7620 -0.8546  0.2903
 7320TIP3   OH221902   8.235   2.677   5.030  0.1500  0.0181 -0.2974
 7320TIP3    H121903   8.150   2.656   4.991  0.4727 -2.3997  0.1961
 7320TIP3    H221904   8.213   2.714   5.116 -0.4219 -1.2449  0.1189
 7321TIP3   OH221905   3.038   6.960   0.282  0.4078  0.1538  0.1721
 7321TIP3    H121906   2.987   6.882   0.304 -1.6019  1.3576 -0.1046
 7321TIP3    H221907   3.124   6.927   0.258 -0.8250 -2.0883 -1.2881
 7322TIP3   OH221908   5.610   6.565   0.837 -0.3948  0.0662  0.6558
 7322TIP3    H121909   5.568   6.531   0.916  0.7008 -1.5116  0.5862
 7322TIP3    H221910   5.542   6.559   0.770 -0.4072 -1.4462  0.7912
 7323TIP3   OH221911   0.382   3.835   5.230 -0.2418 -0.1554 -1.0564
 7323TIP3    H121912   0.408   3.815   5.320  1.2215 -0.3297 -1.5040
 7323TIP3    H221913   0.384   3.931   5.226  1.2533 -0.1858 -1.3350
 7324TIP3   OH221914   1.898   5.287   4.229  0.1302  0.1243 -0.1306
 7324TIP3    H121915   1.969   5.232   4.196  0.9342  1.8105 -1.2841
 7324TIP3    H221916   1.826   5.225   4.246  1.0548 -1.2964 -1.2495
 7325TIP3   OH221917   8.079   2.639   6.181 -0.4359 -0.2201  0.1591
 7325TIP3    H121918   8.082   2.727   6.219 -1.4334  0.3090 -0.9724
 7325TIP3    H221919   7.991   2.608   6.201 -0.5529 -0.4156 -0.6675
 7326TIP3   OH221920   1.295   3.377   2.505 -0.9268  0.3656  0.3143
 7326TIP3    H121921   1.270   3.446   2.444  2.2466  2.1636  0.9168
 7326TIP3    H221922   1.391   3.372   2.497 -0.9607 -3.0493  1.2828
 7327TIP3   OH221923   0.718   3.201   3.551 -0.1798  0.2782  0.2425
 7327TIP3    H121924   0.631   3.183   3.515 -0.2353  2.0785 -0.5864
 7327TIP3    H221925   0.712   3.174   3.643 -1.2032 -0.8060 -0.1248
 7328TIP3   OH221926   2.232   4.906   5.198  0.3278 -0.1988 -0.1459
 7328TIP3    H121927   2.261   4.960   5.272  0.0433  1.6138 -1.3330
 7328TIP3    H221928   2.311   4.861   5.168  0.9396  0.9367 -0.2623
 7329TIP3   OH221929   2.955   3.165   5.085 -0.1614 -0.7120 -0.0283
 7329TIP3    H121930   2.947   3.117   5.002 -0.0697 -0.6506 -0.0727
 7329TIP3    H221931   2.901   3.242   5.074 -0.5962 -0.9873  0.1753
 7330TIP3   OH221932   3.192   3.337   4.079  0.2796 -0.3022  0.2994
 7330TIP3    H121933   3.155   3.424   4.068 -0.3491 -0.3730  1.7394
 7330TIP3    H221934   3.281   3.344   4.045 -0.0083  0.7154 -0.2447
 7331TIP3   OH221935   2.416   3.452   4.435 -0.3123  0.5971 -0.0659
 7331TIP3    H121936   2.496   3.499   4.460  1.0955 -1.7325 -0.0787
 7331TIP3    H221937   2.442   3.401   4.358 -1.7132 -0.4770  0.1705
 7332TIP3   OH221938   8.230   2.906   3.781  0.3095  0.1938 -0.4103
 7332TIP3    H121939   8.326   2.909   3.784  0.3614 -0.6107 -1.0665
 7332TIP3    H221940   8.205   2.859   3.860  0.4097  1.1292  0.1876
 7333TIP3   OH221941   2.380   5.501   5.060  0.1661  0.4823 -0.0799
 7333TIP3    H121942   2.303   5.508   5.116 -1.1601  0.2577 -1.8032
 7333TIP3    H221943   2.368   5.419   5.012  2.0936 -0.1572  0.5036
 7334TIP3   OH221944   1.711   4.334   4.785  0.8552 -0.5507 -1.1321
 7334TIP3    H121945   1.715   4.384   4.703 -0.5360 -0.4014 -1.1122
 7334TIP3    H221946   1.623   4.298   4.787  0.0346  1.4169  1.4326
 7335TIP3   OH221947   1.092   3.604   3.696 -0.3086 -0.5138  0.1808
 7335TIP3    H121948   1.053   3.528   3.654  1.1198 -0.5497 -1.1354
 7335TIP3    H221949   1.037   3.678   3.669  1.2024 -0.3723 -2.7168
 7336TIP3   OH221950   0.354   2.392   3.713 -0.4461  0.0452 -0.6307
 7336TIP3    H121951   0.339   2.396   3.619 -0.3309  0.8465 -0.6240
 7336TIP3    H221952   0.322   2.477   3.745 -1.6440 -0.7094  0.2126
 7337TIP3   OH221953   4.972   3.679   4.800  0.6348 -0.4731 -0.1643
 7337TIP3    H121954   4.881   3.656   4.821  0.1780  1.5624  0.2118
 7337TIP3    H221955   4.979   3.662   4.706  0.0212 -1.1857 -0.0857
 7338TIP3   OH221956   0.947   4.520   4.104  0.5483  0.1013 -0.0520
 7338TIP3    H121957   0.933   4.428   4.080  1.2071 -0.2700  0.9421
 7338TIP3    H221958   1.043   4.528   4.111  0.4064  0.2862  2.0262
 7339TIP3   OH221959   0.268   4.609   4.540  0.1609  0.2809  0.3133
 7339TIP3    H121960   0.324   4.618   4.463 -0.0790  0.8771  0.2087
 7339TIP3    H221961   0.279   4.690   4.589  0.1140  0.0116  0.7789
 7340TIP3   OH221962   1.386   3.423   3.720  0.2193  0.1563 -0.0745
 7340TIP3    H121963   1.350   3.448   3.805  0.3548  1.5625 -0.4062
 7340TIP3    H221964   1.326   3.462   3.656 -0.8535 -2.3680 -0.6390
 7341TIP3   OH221965   2.135   6.079   3.030  0.5647  0.1281 -0.0738
 7341TIP3    H121966   2.122   6.091   3.124  2.6425  0.5646  0.1858
 7341TIP3    H221967   2.088   5.999   3.009 -1.2139  0.8526  1.0277
 7342TIP3   OH221968   3.338   3.357   5.258 -0.1671 -0.3166 -0.2458
 7342TIP3    H121969   3.352   3.308   5.177 -0.5070 -0.0043 -0.4972
 7342TIP3    H221970   3.341   3.291   5.327 -1.5185 -0.8314 -0.6569
 7343TIP3   OH221971   0.831   5.187   3.866 -0.0479  0.1680 -0.7535
 7343TIP3    H121972   0.763   5.126   3.837  0.2020  0.2997 -1.6488
 7343TIP3    H221973   0.785   5.249   3.922 -0.6977  0.3016 -1.4200
 7344TIP3   OH221974   2.177   4.537   3.525  0.4990  0.0288  0.3645
 7344TIP3    H121975   2.253   4.593   3.540  1.0322 -0.7104  0.4786
 7344TIP3    H221976   2.177   4.477   3.600  0.5737 -0.8232 -0.3094
 7345TIP3   OH221977   3.374   6.090   5.430  0.4144 -0.4006  0.2681
 7345TIP3    H121978   3.280   6.108   5.434  0.7369  1.8891 -1.5279
 7345TIP3    H221979   3.394   6.091   5.336  2.1035 -1.6134  0.6061
 7346TIP3   OH221980   1.942   3.080   5.194  0.5325 -0.5310  0.1859
 7346TIP3    H121981   2.010   3.048   5.253  1.9736  1.7750 -0.1712
 7346TIP3    H221982   1.888   3.138   5.249  0.1105 -0.6846 -0.0616
 7347TIP3   OH221983   4.904   3.635   4.545 -0.0353  0.4594  0.1224
 7347TIP3    H121984   4.823   3.674   4.514 -0.0591 -1.3249 -2.2352
 7347TIP3    H221985   4.884   3.542   4.556  1.8320 -0.1406 -1.1630
 7348TIP3   OH221986   2.743   5.306   5.792  0.2674  0.3084  0.1448
 7348TIP3    H121987   2.681   5.322   5.863  0.9255  1.7796  0.4019
 7348TIP3    H221988   2.718   5.368   5.724  0.3229 -0.3476 -0.4854
 7349TIP3   OH221989   2.402   4.236   6.039  0.4556 -0.2255  0.1352
 7349TIP3    H121990   2.454   4.307   6.002  0.6944  0.2785  1.4104
 7349TIP3    H221991   2.463   4.187   6.093 -0.0580 -0.4768  0.4929
 7350TIP3   OH221992   1.380   2.718   5.472  0.1598  0.0538  0.0968
 7350TIP3    H121993   1.459   2.770   5.486 -0.4609  1.3190 -1.0103
 7350TIP3    H221994   1.344   2.750   5.389 -1.3157 -0.7655  0.3988
 7351TIP3   OH221995   3.839   6.317   6.658 -1.2542  0.1542 -0.2736
 7351TIP3    H121996   3.852   6.336   6.565 -1.1503  1.0648 -0.0816
 7351TIP3    H221997   3.815   6.225   6.660  1.2745 -0.5710 -0.9749
 7352TIP3   OH221998   1.953   1.503   4.521 -0.1379 -0.3643  0.2748
 7352TIP3    H121999   2.029   1.477   4.573 -0.0508 -0.0891  0.2873
 7352TIP3    H222000   1.988   1.515   4.433  0.0988  1.0573  0.5538
 7353TIP3   OH222001   1.847   4.570   4.075 -0.2863 -0.0884 -0.5793
 7353TIP3    H122002   1.831   4.639   4.011 -1.5783 -0.2739 -0.4757
 7353TIP3    H222003   1.810   4.491   4.036  0.4663 -0.5582 -0.3517
 7354TIP3   OH222004   1.224   3.638   5.405 -0.0772  0.3744 -0.1350
 7354TIP3    H122005   1.245   3.547   5.386 -1.0280  0.1796 -0.3142
 7354TIP3    H222006   1.235   3.647   5.500  0.1487  0.1081 -0.1380
 7355TIP3   OH222007   1.706   4.336   4.507  0.7511 -0.2910  0.8691
 7355TIP3    H122008   1.767   4.334   4.434  0.7494  0.5797  0.8419
 7355TIP3    H222009   1.625   4.297   4.473  0.9968 -0.6051  0.6444
 7356TIP3   OH222010   1.888   4.995   4.652  0.1467  0.6557 -0.4803
 7356TIP3    H122011   1.899   4.900   4.656  0.5786  0.7584  0.7827
 7356TIP3    H222012   1.961   5.030   4.702 -0.3760  1.6439 -0.4010
 7357TIP3   OH222013   3.972   5.074   3.842 -0.3351 -0.2853 -0.6138
 7357TIP3    H122014   4.018   5.151   3.809  0.1619 -0.5837 -0.6233
 7357TIP3    H222015   4.010   5.059   3.928 -0.7794 -0.2290 -0.4065
 7358TIP3   OH222016   3.113   4.863   5.542 -0.1157  0.2931 -0.1099
 7358TIP3    H122017   3.107   4.850   5.447  1.1621  1.6560 -0.3874
 7358TIP3    H222018   3.126   4.957   5.552  0.2429  0.0844  1.4025
 7359TIP3   OH222019   4.081   5.272   4.662  0.1822 -0.0933 -0.4955
 7359TIP3    H122020   3.986   5.272   4.676  0.1937 -0.1883 -0.4140
 7359TIP3    H222021   4.093   5.216   4.585  0.2948 -1.2948  0.3847
 7360TIP3   OH222022   2.206   5.159   5.762 -0.5348  0.3366 -0.4922
 7360TIP3    H122023   2.172   5.245   5.735 -0.6138  0.2348 -0.7216
 7360TIP3    H222024   2.284   5.179   5.813  0.5689  0.4765 -2.2013
 7361TIP3   OH222025   7.601   3.316   6.889 -0.1579  0.1138  0.1546
 7361TIP3    H122026   7.568   3.227   6.899 -1.4588  0.7549  1.7209
 7361TIP3    H222027   7.675   3.321   6.950 -0.2004  0.1595  0.2021
 7362TIP3   OH222028   1.563   6.080   5.746  0.3717  0.6675  0.0184
 7362TIP3    H122029   1.502   6.010   5.722 -0.0958  0.8268  0.7186
 7362TIP3    H222030   1.563   6.139   5.671  1.1324 -0.3236 -0.7778
 7363TIP3   OH222031   1.848   4.142   6.016  0.7926 -0.4437 -0.0774
 7363TIP3    H122032   1.904   4.219   6.017  0.6414 -0.3187 -1.1493
 7363TIP3    H222033   1.771   4.169   5.966  0.0005 -0.7662  0.9577
 7364TIP3   OH222034   2.012   6.286   2.889  0.4353 -0.1697  0.6106
 7364TIP3    H122035   1.976   6.316   2.972  0.7445  1.1500  0.2852
 7364TIP3    H222036   2.070   6.213   2.912  0.7887  0.4181  1.5988
 7365TIP3   OH222037   2.606   3.799   4.276 -0.2835  0.4585  0.2010
 7365TIP3    H122038   2.544   3.814   4.347 -0.6563 -0.4192  0.0709
 7365TIP3    H222039   2.553   3.798   4.197 -0.2381 -1.1334  0.1700
 7366TIP3   OH222040   0.924   2.512   5.133 -0.3457  0.8706 -0.1728
 7366TIP3    H122041   0.856   2.450   5.105  0.0967  0.0797  0.4794
 7366TIP3    H222042   0.984   2.459   5.186 -1.1139  2.3105  2.2106
 7367TIP3   OH222043   1.944   5.003   5.253  0.0973  0.3244  0.1403
 7367TIP3    H122044   2.021   4.972   5.205 -0.3712  0.5115 -0.7309
 7367TIP3    H222045   1.894   5.053   5.189 -1.7928 -1.4951  0.1698
 7368TIP3   OH222046   2.636   5.228   4.287  0.1669  0.1405  0.0432
 7368TIP3    H122047   2.664   5.139   4.308  0.4267  0.1932 -0.0724
 7368TIP3    H222048   2.542   5.221   4.271  0.1772 -0.1024  0.0896
 7369TIP3   OH222049   2.361   1.279   5.523  0.0693  0.2180  0.5450
 7369TIP3    H122050   2.328   1.313   5.606 -1.8183 -1.4787  0.5330
 7369TIP3    H222051   2.289   1.293   5.462  0.6201 -0.5284 -0.2843
 7370TIP3   OH222052   1.440   2.169   4.070  0.0819 -0.6096  0.0901
 7370TIP3    H122053   1.499   2.203   4.003  2.1152  0.0813  2.1530
 7370TIP3    H222054   1.352   2.183   4.035  0.9897  2.6217 -1.0722
 7371TIP3   OH222055   3.616   4.997   5.275  0.4056 -0.1627  0.2176
 7371TIP3    H122056   3.634   4.955   5.359 -0.9537  0.0962  0.6502
 7371TIP3    H222057   3.692   5.054   5.260  0.3994  0.2018  1.5226
 7372TIP3   OH222058   2.186   3.623   4.464 -0.1508  0.7599 -0.2197
 7372TIP3    H122059   2.256   3.560   4.447  0.4312  0.7014  2.2007
 7372TIP3    H222060   2.154   3.600   4.552 -1.8151  2.0821 -0.4616
 7373TIP3   OH222061   1.485   2.713   3.497 -0.1706  0.0488 -0.1450
 7373TIP3    H122062   1.432   2.766   3.437 -0.3827  0.3048  0.2688
 7373TIP3    H222063   1.454   2.738   3.584  0.1951 -0.2655  0.0726
 7374TIP3   OH222064   1.827   4.587   5.662 -0.2693  0.4576  0.5558
 7374TIP3    H122065   1.855   4.670   5.623  0.7569  0.6715  1.7133
 7374TIP3    H222066   1.750   4.609   5.714 -0.6523  0.4826 -0.0249
 7375TIP3   OH222067   0.804   2.516   3.973  0.1490  0.2588  0.1134
 7375TIP3    H122068   0.798   2.513   3.878  0.4977  0.2625  0.0918
 7375TIP3    H222069   0.753   2.441   4.003 -1.1170  1.0480 -0.0266
 7376TIP3   OH222070   2.165   3.594   5.013  0.3364 -0.0261  1.3187
 7376TIP3    H122071   2.248   3.592   5.061  1.1316  0.5776 -0.0090
 7376TIP3    H222072   2.115   3.665   5.054  0.5962 -0.1918  1.9227
 7377TIP3   OH222073   1.979   2.248   5.136 -0.8506 -0.0633 -0.1669
 7377TIP3    H122074   2.071   2.250   5.108 -1.0956 -2.3598 -1.3377
 7377TIP3    H222075   1.981   2.266   5.229  0.8681 -0.5649 -0.0915
 7378TIP3   OH222076   7.449   3.299   5.992  0.0080 -0.2627 -0.0272
 7378TIP3    H122077   7.369   3.295   6.044  0.4689 -0.4054  0.6730
 7378TIP3    H222078   7.511   3.348   6.046  0.5447 -0.5563 -0.3684
 7379TIP3   OH222079   1.211   4.045   2.801  0.7264  0.1558 -0.1112
 7379TIP3    H122080   1.165   3.961   2.803 -0.1285  0.6233  0.7426
 7379TIP3    H222081   1.148   4.107   2.839  1.6798  1.0097  0.0958
 7380TIP3   OH222082   1.302   2.325   5.042 -0.5532 -0.2378  0.0866
 7380TIP3    H122083   1.229   2.271   5.012 -1.2846  0.8437 -0.1061
 7380TIP3    H222084   1.270   2.367   5.122 -0.4575  0.9216 -0.4726
 7381TIP3   OH222085   1.436   3.334   4.875 -0.0141  0.4721  0.0724
 7381TIP3    H122086   1.512   3.333   4.934  0.4778  0.5001 -0.5531
 7381TIP3    H222087   1.461   3.396   4.807 -0.7618  0.7685  0.0701
 7382TIP3   OH222088   1.761   4.887   4.181 -0.0105 -0.2146  0.1351
 7382TIP3    H122089   1.801   4.800   4.181 -0.3788 -0.3861  0.5488
 7382TIP3    H222090   1.668   4.871   4.168  0.0113  0.1700 -0.5576
 7383TIP3   OH222091   3.517   4.507   3.735 -0.4668  0.7155  0.0627
 7383TIP3    H122092   3.493   4.439   3.798 -0.6544  0.9223  0.2148
 7383TIP3    H222093   3.549   4.580   3.788  0.7236  0.3615 -0.1443
 7384TIP3   OH222094   2.953   4.298   5.108 -0.0931 -0.2920 -0.0190
 7384TIP3    H122095   3.004   4.364   5.156 -0.8342  0.8300 -0.7476
 7384TIP3    H222096   2.874   4.345   5.081 -0.5902 -1.4711 -0.6165
 7385TIP3   OH222097   2.699   5.805   2.253  0.9535 -0.3819 -0.0098
 7385TIP3    H122098   2.737   5.772   2.334  0.1570 -0.8759  0.1667
 7385TIP3    H222099   2.717   5.737   2.188  0.0157 -0.8044  0.1688
 7386TIP3   OH222100   1.320   3.837   4.366  0.0705 -0.4045 -0.2525
 7386TIP3    H122101   1.259   3.802   4.301 -0.2935 -1.1612  0.4827
 7386TIP3    H222102   1.263   3.870   4.436  0.5032 -1.7482  0.7650
 7387TIP3   OH222103   1.991   2.966   5.926 -0.1520  0.4824 -0.1692
 7387TIP3    H122104   1.977   3.034   5.993  0.9230 -0.1140  0.6922
 7387TIP3    H222105   2.086   2.968   5.911 -0.1161 -0.8249 -0.1348
 7388TIP3   OH222106   0.880   3.802   3.621 -0.6134  0.1363  0.2907
 7388TIP3    H122107   0.808   3.746   3.652 -1.1815  0.5962 -0.1974
 7388TIP3    H222108   0.844   3.847   3.544 -0.3427  1.6105  1.0200
 7389TIP3   OH222109   2.659   2.240   4.970 -0.3833 -0.1629 -0.5077
 7389TIP3    H122110   2.653   2.305   4.900  0.6495 -0.5812 -0.9994
 7389TIP3    H222111   2.624   2.160   4.930 -1.9613  0.1600  0.1984
 7390TIP3   OH222112   2.307   4.911   3.421 -0.1892  0.6876  0.1380
 7390TIP3    H122113   2.344   4.853   3.354 -2.2661 -1.8313  1.0677
 7390TIP3    H222114   2.227   4.945   3.381  0.3784  1.9599  0.0686
 7391TIP3   OH222115   3.105   4.091   4.820 -0.5294  0.4668 -0.0568
 7391TIP3    H122116   3.132   4.133   4.739  2.1881 -1.9383 -0.4663
 7391TIP3    H222117   3.075   4.004   4.794 -0.4832 -0.0121  1.4175
 7392TIP3   OH222118   1.611   2.081   3.738 -0.5353 -0.4080  0.1424
 7392TIP3    H122119   1.586   2.170   3.764  2.9463  0.8405 -0.5153
 7392TIP3    H222120   1.568   2.068   3.654  0.2060  1.3184 -0.5400
 7393TIP3   OH222121   2.233   4.782   5.964  0.5358  0.2130 -0.3001
 7393TIP3    H122122   2.281   4.861   5.987  0.8823  0.3103 -1.3212
 7393TIP3    H222123   2.211   4.793   5.871  1.5371 -1.3691 -0.7507
 7394TIP3   OH222124   3.465   3.549   5.029  0.2020 -0.5421 -0.1584
 7394TIP3    H122125   3.409   3.472   5.018 -0.3381 -0.0787 -0.6994
 7394TIP3    H222126   3.524   3.546   4.954 -0.4925  0.1221 -0.7445
 7395TIP3   OH222127   2.786   5.487   3.003  0.4481 -0.1515 -0.0589
 7395TIP3    H122128   2.751   5.400   2.982 -1.2091  0.8291 -1.5540
 7395TIP3    H222129   2.812   5.523   2.918  1.0627  0.8468  0.5433
 7396TIP3   OH222130   0.439   2.241   6.221  0.2129  0.2828 -0.3869
 7396TIP3    H122131   0.501   2.313   6.235  1.6345 -0.6297 -1.8929
 7396TIP3    H222132   0.440   2.226   6.127 -0.0342 -1.7261 -0.0972
 7397TIP3   OH222133   4.398   2.453   4.318 -0.5030  0.0868  0.8643
 7397TIP3    H122134   4.378   2.414   4.403 -1.5945 -0.8760  0.1799
 7397TIP3    H222135   4.312   2.479   4.283 -0.1390 -0.2527 -0.2882
 7398TIP3   OH222136   1.167   1.937   4.712  0.0069 -0.0895  0.2385
 7398TIP3    H122137   1.190   1.906   4.800  0.0942 -0.9390 -0.0747
 7398TIP3    H222138   1.250   1.934   4.664 -0.1769 -0.3145 -0.0687
 7399TIP3   OH222139   4.315   3.086   3.241  0.2193 -0.2694 -0.0867
 7399TIP3    H122140   4.391   3.077   3.184  1.6105  0.4539  1.6105
 7399TIP3    H222141   4.259   3.012   3.218  1.2548 -0.6032 -1.6082
 7400TIP3   OH222142   3.538   4.307   3.902  0.1151  0.1116  0.2651
 7400TIP3    H122143   3.614   4.293   3.958  1.6328  0.9653 -1.5156
 7400TIP3    H222144   3.463   4.288   3.958  1.6420 -1.2720  1.9089
 7401TIP3   OH222145   3.737   5.608   3.469 -0.4570  0.2034  0.2638
 7401TIP3    H122146   3.777   5.660   3.539 -0.1942 -0.5764  0.6906
 7401TIP3    H222147   3.655   5.576   3.507 -2.0060  2.5990 -0.9243
 7402TIP3   OH222148   1.119   5.715   3.818 -0.2176  0.3843 -0.2695
 7402TIP3    H122149   1.164   5.631   3.813  3.0340  2.0517 -0.6880
 7402TIP3    H222150   1.166   5.763   3.887 -3.1944  1.2148  1.2538
 7403TIP3   OH222151   1.738   4.066   3.640  0.1370 -0.2661 -0.0161
 7403TIP3    H122152   1.705   3.976   3.646  0.9447 -0.6034 -0.4906
 7403TIP3    H222153   1.679   4.117   3.695 -1.1260 -0.8711 -0.7921
 7404TIP3   OH222154   7.030   2.283   1.032  0.3996 -0.6867 -0.0410
 7404TIP3    H122155   7.031   2.379   1.024  0.4764 -0.7198 -0.4598
 7404TIP3    H222156   6.937   2.260   1.027  0.4742 -0.7519 -1.5368
 7405TIP3   OH222157   2.784   6.257   4.186 -0.1729 -0.3805  0.1632
 7405TIP3    H122158   2.779   6.236   4.093  3.4215 -1.0890  0.0581
 7405TIP3    H222159   2.743   6.183   4.230 -1.7606 -0.1116 -0.8316
 7406TIP3   OH222160   2.809   4.574   6.474 -0.0777  0.3503 -0.4395
 7406TIP3    H122161   2.880   4.620   6.517  1.6587 -1.9540 -0.7650
 7406TIP3    H222162   2.804   4.489   6.518 -2.3224  0.2923 -0.7193
 7407TIP3   OH222163   3.763   3.888   2.768 -0.1896  0.1374  0.0489
 7407TIP3    H122164   3.731   3.974   2.740 -0.0484 -0.4894 -2.1474
 7407TIP3    H222165   3.857   3.900   2.778  0.0369 -0.0825 -1.6315
 7408TIP3   OH222166   0.579   2.549   0.981  0.2873 -0.9422  0.2326
 7408TIP3    H122167   0.639   2.507   1.043 -0.1025  0.8643  1.8973
 7408TIP3    H222168   0.634   2.608   0.930  0.1804 -0.3940  0.7437
 7409TIP3   OH222169   2.214   4.921   3.719  0.4521 -0.3354  0.0692
 7409TIP3    H122170   2.145   4.859   3.694 -0.2432  0.8543 -0.9464
 7409TIP3    H222171   2.168   5.002   3.740  1.5775  0.6819 -1.2823
 7410TIP3   OH222172   0.348   3.687   3.599  0.2470 -0.2232 -0.0594
 7410TIP3    H122173   0.282   3.712   3.533 -0.3340 -0.3570  0.4629
 7410TIP3    H222174   0.390   3.770   3.623  0.7282 -0.2257 -0.8795
 7411TIP3   OH222175   7.816   2.322   3.109  0.0137 -0.2059 -0.3586
 7411TIP3    H122176   7.808   2.389   3.041  1.5459 -0.3636 -0.7126
 7411TIP3    H222177   7.854   2.368   3.183  0.5545 -0.5524 -0.4165
 7412TIP3   OH222178   0.345   4.084   3.216 -0.2520  0.2881  0.4722
 7412TIP3    H122179   0.300   4.155   3.170 -1.9448 -0.7695  0.4499
 7412TIP3    H222180   0.311   4.004   3.175  2.6197 -0.5248 -0.4000
 7413TIP3   OH222181   1.150   4.688   4.423  0.5543  0.0465  0.5815
 7413TIP3    H122182   1.175   4.602   4.457  0.8266 -1.0847 -2.3726
 7413TIP3    H222183   1.055   4.685   4.417  0.4554  0.4877  1.8169
 7414TIP3   OH222184   3.167   6.532   4.210 -0.5892 -0.5454 -0.5263
 7414TIP3    H122185   3.167   6.627   4.209 -1.1576 -0.5550 -1.5089
 7414TIP3    H222186   3.084   6.508   4.250 -0.4717 -0.6297 -0.3323
 7415TIP3   OH222187   7.028   0.136   0.103  0.3156  0.2360  0.4661
 7415TIP3    H122188   7.052   0.207   0.044  0.9596  0.2983  0.7897
 7415TIP3    H222189   7.110   0.113   0.146  0.4560 -1.8770 -0.8805
 7416TIP3   OH222190   3.105   3.437   5.944 -0.7639  0.0605  0.3554
 7416TIP3    H122191   3.149   3.518   5.919 -2.0563  0.2801 -1.3678
 7416TIP3    H222192   3.012   3.454   5.926 -1.0508 -1.8039 -0.0868
 7417TIP3   OH222193   0.722   2.307   5.657  0.2361 -0.6656 -0.1151
 7417TIP3    H122194   0.698   2.346   5.741 -0.6097 -2.6882  0.5994
 7417TIP3    H222195   0.795   2.249   5.678  0.2152 -0.9551 -0.8426
 7418TIP3   OH222196   0.259   1.729   4.771  0.1982 -0.1073  0.0538
 7418TIP3    H122197   0.344   1.700   4.804 -0.4364 -3.1804 -0.8979
 7418TIP3    H222198   0.280   1.806   4.718  2.1098  0.4595  1.5629
 7419TIP3   OH222199   4.140   4.685   3.622  0.5452  0.7542 -0.1169
 7419TIP3    H122200   4.146   4.732   3.539  1.4106 -0.4947 -0.7675
 7419TIP3    H222201   4.069   4.729   3.670  0.7691  2.1494 -1.0740
 7420TIP3   OH222202   3.665   3.171   3.689  0.1915  0.9726  0.0012
 7420TIP3    H122203   3.730   3.234   3.659 -0.0518  0.4015 -1.8017
 7420TIP3    H222204   3.582   3.204   3.656 -0.3904  1.4067  1.8319
 7421TIP3   OH222205   1.628   4.836   3.198  0.5373  0.1897  0.2336
 7421TIP3    H122206   1.573   4.781   3.142 -2.7992  2.9390  0.5984
 7421TIP3    H222207   1.589   4.827   3.285  0.9288  1.7887  0.5933
 7422TIP3   OH222208   1.863   5.059   5.505 -0.5155  0.1816 -0.3706
 7422TIP3    H122209   1.866   5.150   5.534 -0.4924 -0.2865  1.1490
 7422TIP3    H222210   1.881   5.063   5.411 -0.2127  1.7108 -0.2635
 7423TIP3   OH222211   4.424   3.604   3.972  0.3713 -0.3539 -0.0339
 7423TIP3    H122212   4.462   3.518   3.952  0.9040  0.0431 -0.7403
 7423TIP3    H222213   4.389   3.635   3.889  0.9363  0.4810  0.0307
 7424TIP3   OH222214   0.656   4.313   3.968 -0.1759 -0.5468 -0.2352
 7424TIP3    H122215   0.710   4.344   3.896  1.2888 -0.2684  0.9508
 7424TIP3    H222216   0.718   4.276   4.031 -1.1992  1.1185  1.8282
 7425TIP3   OH222217   0.629   1.714   4.559 -0.1415  0.2247 -0.2351
 7425TIP3    H122218   0.575   1.698   4.637 -0.8112  0.7945 -0.5779
 7425TIP3    H222219   0.686   1.637   4.553 -1.1393 -0.5389 -0.0512
 7426TIP3   OH222220   1.375   4.917   5.032 -0.1421 -0.0708 -0.6704
 7426TIP3    H122221   1.354   5.009   5.018 -0.0067 -0.2189 -1.8193
 7426TIP3    H222222   1.438   4.895   4.964 -0.7535 -1.2135 -0.8790
 7427TIP3   OH222223   1.144   3.258   6.438  0.4667 -0.2375 -0.0760
 7427TIP3    H122224   1.102   3.268   6.523  0.1999  0.1934 -0.2582
 7427TIP3    H222225   1.163   3.348   6.410 -1.5140 -0.2535 -1.5212
 7428TIP3   OH222226   2.791   5.672   4.064 -0.0808 -0.0428 -0.3168
 7428TIP3    H122227   2.766   5.581   4.083 -1.9797 -0.3020 -3.6659
 7428TIP3    H222228   2.779   5.718   4.147  0.0631 -2.6540  1.2098
 7429TIP3   OH222229   4.917   1.414   0.398 -0.4782  0.2405  0.0047
 7429TIP3    H122230   4.914   1.500   0.440  0.0901  0.6056 -0.6831
 7429TIP3    H222231   5.002   1.378   0.424  0.9006  1.4115 -2.5974
 7430TIP3   OH222232   8.003   0.797   0.324 -0.1049  0.2303 -0.0130
 7430TIP3    H122233   7.985   0.723   0.267  0.0613  0.0267  0.1962
 7430TIP3    H222234   8.090   0.827   0.298 -0.2466  0.4620 -0.2180
 7431TIP3   OH222235   2.973   5.459   3.767  0.0842  0.3263  0.3111
 7431TIP3    H122236   2.946   5.370   3.744 -0.1570  0.7558 -1.0922
 7431TIP3    H222237   2.900   5.514   3.740  0.6894  1.0596  0.1704
 7432TIP3   OH222238   2.391   5.505   3.399 -0.5574  0.7305 -0.5011
 7432TIP3    H122239   2.438   5.505   3.482 -2.1383  3.1007  0.4504
 7432TIP3    H222240   2.459   5.497   3.333  0.7596 -0.7550  0.9730
 7433TIP3   OH222241   2.419   2.781   3.090 -0.3884  0.1529 -0.4800
 7433TIP3    H122242   2.510   2.754   3.106 -0.4413  0.0430 -0.3603
 7433TIP3    H222243   2.426   2.868   3.050 -0.2588  0.5172  0.3308
 7434TIP3   OH222244   0.262   4.006   4.410 -0.3370  0.2115 -0.0729
 7434TIP3    H122245   0.346   4.031   4.449 -1.2571  0.4648  1.8119
 7434TIP3    H222246   0.282   3.992   4.317  1.3627  2.4114 -0.0987
 7435TIP3   OH222247   1.320   5.207   2.860 -0.1807 -0.1255 -0.1092
 7435TIP3    H122248   1.401   5.178   2.818 -0.5253  1.1652 -1.6923
 7435TIP3    H222249   1.329   5.302   2.867 -0.4389 -0.2223  2.1405
 7436TIP3   OH222250   4.348   4.295   4.684 -0.2226  0.4437 -0.3099
 7436TIP3    H122251   4.364   4.202   4.671  0.6348  0.7347 -1.3338
 7436TIP3    H222252   4.425   4.326   4.733 -0.5323  0.6112  0.0807
 7437TIP3   OH222253   1.589   5.177   4.029 -0.3907 -0.1595 -0.0769
 7437TIP3    H122254   1.604   5.093   4.071 -0.6641 -0.2079 -0.0743
 7437TIP3    H222255   1.531   5.224   4.089 -1.1928 -0.4243 -0.6449
 7438TIP3   OH222256   3.647   5.976   5.802  0.3319 -0.5817  0.3875
 7438TIP3    H122257   3.594   6.027   5.741  1.6917  0.2153 -0.1553
 7438TIP3    H222258   3.698   5.918   5.746  1.6635  0.2261  0.7318
 7439TIP3   OH222259   1.468   4.415   6.545  0.4135 -0.0787  0.6124
 7439TIP3    H122260   1.527   4.481   6.580 -1.6373  1.9303  0.3891
 7439TIP3    H222261   1.511   4.385   6.465  0.7132  2.0094 -0.0408
 7440TIP3   OH222262   1.379   2.645   2.310  0.3111  0.0337  0.1248
 7440TIP3    H122263   1.314   2.604   2.252  1.6038  0.7603 -1.8738
 7440TIP3    H222264   1.345   2.733   2.325  0.5968  0.2712 -0.5787
 7441TIP3   OH222265   3.427   3.650   4.086  0.4187 -1.1035  0.2348
 7441TIP3    H122266   3.357   3.664   4.023 -0.5829 -0.8906  1.3725
 7441TIP3    H222267   3.387   3.597   4.155  1.1760 -0.4072  1.2318
 7442TIP3   OH222268   0.619   3.703   3.730 -0.0887  0.4270 -0.1463
 7442TIP3    H122269   0.562   3.776   3.707  1.0804  1.0426 -1.1281
 7442TIP3    H222270   0.574   3.660   3.803 -1.9231  0.7539 -1.0321
 7443TIP3   OH222271   7.119   1.497   0.146  0.3164  0.7155  0.5820
 7443TIP3    H122272   7.158   1.453   0.071  2.2884  0.7400  1.5545
 7443TIP3    H222273   7.092   1.582   0.113  0.2591  0.3528 -0.3280
 7444TIP3   OH222274   1.635   5.364   3.803 -0.3900 -0.0828 -0.1632
 7444TIP3    H122275   1.574   5.429   3.838 -1.0744 -0.9340  0.2583
 7444TIP3    H222276   1.664   5.315   3.881  1.4243  0.7971 -0.2536
 7445TIP3   OH222277   1.409   4.588   5.383 -0.1834 -0.2901  0.1789
 7445TIP3    H122278   1.321   4.597   5.418 -0.5743 -0.5678 -0.7000
 7445TIP3    H222279   1.420   4.665   5.326 -0.6970 -1.3757 -1.4280
 7446TIP3   OH222280   3.588   3.138   5.087  0.2285 -0.4657  0.9003
 7446TIP3    H122281   3.641   3.092   5.023  2.1639  1.8578  0.7569
 7446TIP3    H222282   3.508   3.161   5.040  1.8656  1.7094 -0.9361
 7447TIP3   OH222283   1.149   2.810   4.961  0.7035 -0.2005  0.5677
 7447TIP3    H122284   1.113   2.754   4.891  0.8148 -0.7665  0.9593
 7447TIP3    H222285   1.218   2.861   4.918 -0.4449  0.7662 -0.1481
 7448TIP3   OH222286   2.623   3.859   5.279  0.3070  0.4597  0.7136
 7448TIP3    H122287   2.705   3.852   5.328 -0.8610  0.2433  2.6992
 7448TIP3    H222288   2.559   3.888   5.344 -1.1957  0.6322 -0.8092
 7449TIP3   OH222289   3.379   4.034   5.020 -0.2785  0.3476  0.0627
 7449TIP3    H122290   3.466   4.048   5.056 -0.5231 -1.5171  1.4286
 7449TIP3    H222291   3.381   3.944   4.986 -1.8191  0.1253  0.5392
 7450TIP3   OH222292   0.636   2.787   4.828 -0.4454  0.1156 -0.0235
 7450TIP3    H122293   0.710   2.729   4.845  0.1553  1.4043  1.9138
 7450TIP3    H222294   0.642   2.806   4.735  2.3089  1.0432  0.2876
 7451TIP3   OH222295   0.322   4.006   4.116  0.1296 -0.3174 -0.2657
 7451TIP3    H122296   0.300   3.980   4.027 -0.4376  2.2244 -0.9088
 7451TIP3    H222297   0.414   3.982   4.126  0.9499  1.7197 -2.4744
 7452TIP3   OH222298   2.392   2.562   5.471 -0.0868 -0.1225  0.8727
 7452TIP3    H122299   2.324   2.623   5.443  0.3837 -1.3796 -3.3338
 7452TIP3    H222300   2.346   2.499   5.526 -1.8360  0.4464  0.0884
 7453TIP3   OH222301   3.975   4.697   4.793 -0.2824  0.7650 -0.5349
 7453TIP3    H122302   4.038   4.668   4.727 -1.4555 -1.4642 -0.7320
 7453TIP3    H222303   3.997   4.788   4.809  2.4402  0.2618 -1.2214
 7454TIP3   OH222304   5.855   5.079   6.618 -0.1679 -0.2005 -0.5555
 7454TIP3    H122305   5.867   5.083   6.523 -1.7014 -1.0339 -0.7988
 7454TIP3    H222306   5.887   5.163   6.649  0.4420  0.0482 -1.8031
 7455TIP3   OH222307   2.058   6.370   0.541  0.4159 -0.3158 -0.2456
 7455TIP3    H122308   2.114   6.448   0.547  0.2874 -0.3274  1.1453
 7455TIP3    H222309   1.969   6.405   0.544  0.2978 -0.2210 -3.3404
 7456TIP3   OH222310   3.820   3.534   5.346  0.2222 -0.4642  0.1023
 7456TIP3    H122311   3.800   3.443   5.321  1.4240 -0.6487 -0.2360
 7456TIP3    H222312   3.736   3.578   5.344  0.0618 -0.7630 -3.1075
 7457TIP3   OH222313   3.744   4.026   4.916  1.2703 -0.2528 -0.5386
 7457TIP3    H122314   3.833   4.042   4.947  0.7929 -1.4417  1.6077
 7457TIP3    H222315   3.689   4.080   4.973  0.4858 -1.1361 -0.4364
 7458TIP3   OH222316   2.045   4.799   1.698 -0.0384  0.2137 -0.0031
 7458TIP3    H122317   2.021   4.758   1.781  0.5149  0.5835  0.3420
 7458TIP3    H222318   1.966   4.846   1.670 -0.2346  0.0595  0.2914
 7459TIP3   OH222319   3.353   4.442   4.767 -0.2382 -0.1534 -0.2995
 7459TIP3    H122320   3.276   4.498   4.763 -0.7458 -0.9653 -2.5661
 7459TIP3    H222321   3.326   4.360   4.726  1.6148 -0.6916 -0.5111
 7460TIP3   OH222322   8.299   2.402   3.290 -0.0095  0.6016  0.4130
 7460TIP3    H122323   8.313   2.308   3.291 -0.6950  0.4896  0.0630
 7460TIP3    H222324   8.211   2.413   3.253  0.3816  1.4138 -0.2869
 7461TIP3   OH222325   2.427   3.661   5.791 -0.0347 -0.2222  0.0417
 7461TIP3    H122326   2.341   3.619   5.799  1.1456 -2.6392  0.3126
 7461TIP3    H222327   2.439   3.705   5.876 -1.2320  0.6278 -0.2061
 7462TIP3   OH222328   4.160   5.534   3.040 -0.2701 -0.2766 -0.1520
 7462TIP3    H122329   4.113   5.607   2.999  0.2371  0.2283  0.1593
 7462TIP3    H222330   4.131   5.534   3.131  1.4185  0.9820  0.4312
 7463TIP3   OH222331   4.049   6.681   4.152 -0.4231 -0.2437  0.0228
 7463TIP3    H122332   4.071   6.628   4.229 -1.1869 -1.4785 -0.5907
 7463TIP3    H222333   3.959   6.657   4.132 -0.2298  0.0836 -1.2572
 7464TIP3   OH222334   3.769   4.431   3.629  0.5086 -0.6638 -0.6228
 7464TIP3    H122335   3.778   4.344   3.666  0.9405  0.3078  1.6712
 7464TIP3    H222336   3.677   4.454   3.643  0.9245  0.1412  0.9242
 7465TIP3   OH222337   3.090   4.690   4.293  1.2214  0.7718 -0.2058
 7465TIP3    H122338   3.043   4.607   4.279  1.2168  0.5072  1.2667
 7465TIP3    H222339   3.065   4.745   4.219 -0.7149  0.3227  0.0989
 7466TIP3   OH222340   2.935   3.684   3.592 -0.0914  0.1173 -0.2520
 7466TIP3    H122341   2.938   3.601   3.639  0.7472  0.5561  0.5039
 7466TIP3    H222342   2.977   3.746   3.652 -1.6207  1.2954 -0.3879
 7467TIP3   OH222343   3.506   5.829   2.759 -0.3758  0.3696 -0.2072
 7467TIP3    H122344   3.439   5.776   2.715 -0.2313  0.4708 -0.5489
 7467TIP3    H222345   3.555   5.766   2.812  0.6769 -0.0761 -1.6754
 7468TIP3   OH222346   0.420   5.131   5.376 -0.3436  0.1346  0.2248
 7468TIP3    H122347   0.380   5.136   5.463 -1.8657  2.2821 -0.5658
 7468TIP3    H222348   0.475   5.209   5.370  1.5945 -1.1959  0.0960
 7469TIP3   OH222349   3.758   2.755   6.471  0.1823 -0.2624  0.0901
 7469TIP3    H122350   3.845   2.731   6.501  0.7872  0.0135 -1.3846
 7469TIP3    H222351   3.710   2.672   6.466  0.0119 -0.3001  1.9053
 7470TIP3   OH222352   3.162   4.199   2.827  0.0621  0.0025  0.5299
 7470TIP3    H122353   3.256   4.200   2.844  0.2058 -2.1038  0.0064
 7470TIP3    H222354   3.138   4.291   2.816  2.0895  0.5418  0.5152
 7471TIP3   OH222355   1.339   2.876   4.473 -0.2375  0.6778  0.1585
 7471TIP3    H122356   1.313   2.940   4.539 -2.5339  1.5266 -1.5074
 7471TIP3    H222357   1.432   2.891   4.460 -0.0347  1.3522  2.2700
 7472TIP3   OH222358   1.999   3.308   4.599  0.0137 -0.3759  0.1247
 7472TIP3    H122359   1.962   3.220   4.590  1.4903 -1.0031  0.0572
 7472TIP3    H222360   2.027   3.332   4.511  1.6754 -0.7801  0.5280
 7473TIP3   OH222361   1.119   3.361   4.310  0.1618 -0.3050  0.3206
 7473TIP3    H122362   1.057   3.370   4.237  0.6784 -1.4534 -0.2706
 7473TIP3    H222363   1.146   3.269   4.308  0.8956 -0.1228  1.3841
 7474TIP3   OH222364   0.618   2.448   5.918  0.3024  0.4640 -0.3602
 7474TIP3    H122365   0.705   2.484   5.936  0.6125 -0.4236 -0.0477
 7474TIP3    H222366   0.557   2.512   5.955  0.9056 -1.1666  3.6739
 7475TIP3   OH222367   2.686   3.057   4.989  0.4506  0.0348 -0.0508
 7475TIP3    H122368   2.730   3.023   4.911 -0.1727  0.1814 -0.4703
 7475TIP3    H222369   2.675   2.980   5.045  1.1627 -0.0181  0.0159
 7476TIP3   OH222370   4.707   5.325   3.503  0.3608  0.0746 -0.2758
 7476TIP3    H122371   4.791   5.353   3.467  0.5242  0.1399  0.1545
 7476TIP3    H222372   4.644   5.390   3.469  0.3996 -0.2612 -1.0040
 7477TIP3   OH222373   1.702   3.087   3.909 -0.0884 -0.0704  0.7393
 7477TIP3    H122374   1.662   3.004   3.936  0.4283 -0.3244  0.7272
 7477TIP3    H222375   1.785   3.062   3.869  0.0084  0.4453  0.6138
 7478TIP3   OH222376   0.868   3.793   4.481 -0.1270 -0.1822 -0.1463
 7478TIP3    H122377   0.836   3.750   4.560 -3.1892 -1.5071 -2.0308
 7478TIP3    H222378   0.942   3.739   4.452  0.8183  0.1407  1.5777
 7479TIP3   OH222379   4.220   3.027   4.589 -0.4321 -0.9331 -0.1859
 7479TIP3    H122380   4.154   2.965   4.618 -0.4968 -0.4781  0.6736
 7479TIP3    H222381   4.170   3.099   4.550 -0.5459  0.1914  1.9878
 7480TIP3   OH222382   2.344   1.636   5.699  0.2850 -0.2796 -0.1560
 7480TIP3    H122383   2.315   1.682   5.778 -0.6232  0.3488 -0.8316
 7480TIP3    H222384   2.318   1.545   5.713  0.2255 -0.1864  0.3264
 7481TIP3   OH222385   2.894   5.458   2.625  0.3441  0.5611  0.5747
 7481TIP3    H122386   2.856   5.430   2.541 -0.5609  0.8488  0.8841
 7481TIP3    H222387   2.975   5.408   2.632  0.6373  0.8530 -0.6749
 7482TIP3   OH222388   2.033   6.073   4.610  0.2783  0.1067 -0.2024
 7482TIP3    H122389   2.043   6.168   4.601 -0.2471  0.1174 -0.7043
 7482TIP3    H222390   2.077   6.037   4.533 -0.3085 -0.0110 -0.4862
 7483TIP3   OH222391   2.447   4.281   4.895 -0.0916  0.1807 -0.2117
 7483TIP3    H122392   2.439   4.308   4.803 -1.6839  1.6372  0.3197
 7483TIP3    H222393   2.437   4.186   4.893 -1.9410  0.3572 -1.3883
 7484TIP3   OH222394   2.591   3.544   6.092 -0.3651 -0.3944  0.1229
 7484TIP3    H122395   2.678   3.509   6.072 -0.5142 -0.4594 -0.4190
 7484TIP3    H222396   2.552   3.563   6.006 -0.1233  1.5080  0.4098
 7485TIP3   OH222397   2.019   4.342   4.795 -0.0053 -0.1234 -0.0948
 7485TIP3    H122398   1.981   4.356   4.882 -0.7204 -0.6920 -0.3056
 7485TIP3    H222399   1.944   4.317   4.740  0.4146  0.3589 -0.9060
 7486TIP3   OH222400   1.221   7.019   4.022 -0.3079 -0.3103  0.4749
 7486TIP3    H122401   1.282   7.092   4.017  2.9291 -2.7894  1.8206
 7486TIP3    H222402   1.224   6.991   4.114 -1.5110 -2.0931  0.0181
 7487TIP3   OH222403   6.018   4.194   1.007 -0.6077 -0.2699  0.8859
 7487TIP3    H122404   6.107   4.195   1.042 -0.2022 -1.1533 -0.0596
 7487TIP3    H222405   5.990   4.285   1.009  0.8059  0.1993  0.0199
 7488TIP3   OH222406   2.283   2.199   3.910  0.3145 -0.0020  0.2141
 7488TIP3    H122407   2.260   2.153   3.990 -0.9862  0.6730  0.2289
 7488TIP3    H222408   2.378   2.185   3.901  0.4827  0.0049  1.9030
 7489TIP3   OH222409   0.050   4.713   3.707  0.2493  0.3572 -0.3192
 7489TIP3    H122410   0.032   4.691   3.799 -0.2358 -1.9623 -0.9420
 7489TIP3    H222411   0.134   4.672   3.689 -0.6242 -0.9519 -1.4925
 7490TIP3   OH222412   1.963   3.607   5.999 -0.1477 -0.3094 -0.3062
 7490TIP3    H122413   1.901   3.678   5.980  1.9898  1.1829 -2.0429
 7490TIP3    H222414   1.931   3.568   6.080 -2.0145  1.9342  0.1035
 7491TIP3   OH222415   3.377   5.462   5.767 -0.2839  0.3223 -0.7251
 7491TIP3    H122416   3.440   5.530   5.792 -0.6720  1.4998 -2.8699
 7491TIP3    H222417   3.370   5.469   5.672 -1.8244 -1.4334 -0.7714
 7492TIP3   OH222418   2.333   4.533   6.219 -0.0425  0.3222 -0.0062
 7492TIP3    H122419   2.357   4.443   6.242 -1.8542  0.2887  1.8969
 7492TIP3    H222420   2.366   4.544   6.130 -0.5397 -2.5150 -0.5903
 7493TIP3   OH222421   4.385   5.525   2.895 -0.3715  0.5505 -0.1958
 7493TIP3    H122422   4.361   5.524   2.803 -0.7631 -0.7648 -0.0783
 7493TIP3    H222423   4.303   5.538   2.942 -0.4106 -0.5730  0.0512
 7494TIP3   OH222424   0.437   6.933   5.931 -0.7978 -0.0643 -0.4022
 7494TIP3    H122425   0.427   6.841   5.907 -1.1677 -0.3598  0.8480
 7494TIP3    H222426   0.387   6.981   5.865 -1.7863 -0.8467 -0.2278
 7495TIP3   OH222427   1.593   3.063   3.482  0.8852 -0.2372 -0.0623
 7495TIP3    H122428   1.543   3.084   3.561  0.5042 -0.4421 -0.2491
 7495TIP3    H222429   1.615   2.970   3.491  0.6471 -0.3179 -0.3049
 7496TIP3   OH222430   2.228   4.045   5.973 -0.0487 -0.1275 -0.5403
 7496TIP3    H122431   2.290   4.118   5.971  1.6688 -1.5674 -0.8552
 7496TIP3    H222432   2.204   4.032   5.881  0.2553 -0.4613 -0.5735
 7497TIP3   OH222433   4.081   2.692   4.001  0.1650  0.1489  0.1551
 7497TIP3    H122434   4.095   2.749   3.925 -0.9682  1.3397  0.8270
 7497TIP3    H222435   4.003   2.641   3.978  1.4164 -1.4690 -0.6219
 7498TIP3   OH222436   3.261   4.346   5.004 -0.9520 -0.1104  0.0712
 7498TIP3    H122437   3.335   4.356   4.944  0.1135 -1.5999  1.1068
 7498TIP3    H222438   3.273   4.417   5.068  0.4713 -1.2854  1.1360
 7499TIP3   OH222439   3.128   4.132   3.753 -0.5584  0.9045  0.3197
 7499TIP3    H122440   3.057   4.190   3.726 -0.3550  0.5616 -0.9900
 7499TIP3    H222441   3.151   4.161   3.841 -2.8941  0.4674  1.0998
 7500TIP3   OH222442   0.640   1.203   3.581 -0.2035 -0.4320  0.1621
 7500TIP3    H122443   0.641   1.108   3.576  0.4091 -0.4004 -0.3928
 7500TIP3    H222444   0.731   1.227   3.596 -0.2660  0.0960 -0.2740
 7501TIP3   OH222445   1.100   2.728   4.698  0.7491 -0.0746 -0.1281
 7501TIP3    H122446   1.174   2.688   4.651  0.5403  1.5242 -1.8566
 7501TIP3    H222447   1.033   2.660   4.698  1.9760 -1.3069  0.8715
 7502TIP3   OH222448   2.840   2.532   2.986 -0.2212 -0.4788 -0.0768
 7502TIP3    H122449   2.828   2.464   3.053  1.6082  0.0036  0.7631
 7502TIP3    H222450   2.796   2.609   3.022 -1.0759 -0.8091 -0.3985
 7503TIP3   OH222451   0.871   2.531   5.820 -0.0665  0.2015  0.0208
 7503TIP3    H122452   0.888   2.503   5.730 -2.0213  2.4680 -1.1093
 7503TIP3    H222453   0.923   2.611   5.830  0.8432 -0.5237  1.2314
 7504TIP3   OH222454   6.426   6.869   0.206  0.0555  0.1092 -0.6770
 7504TIP3    H122455   6.458   6.941   0.153  1.1997  0.4036  0.3913
 7504TIP3    H222456   6.463   6.790   0.166  0.3695  0.2740 -0.7071
 7505TIP3   OH222457   2.146   5.752   2.662  0.4600  0.0614 -0.2170
 7505TIP3    H122458   2.171   5.765   2.571  0.2071 -1.8403 -0.5661
 7505TIP3    H222459   2.159   5.659   2.678 -0.9432  0.0969  1.2538
 7506TIP3   OH222460   2.591   0.937   5.960 -0.3854 -0.0663  0.0331
 7506TIP3    H122461   2.539   0.871   6.005  0.6940 -1.6440 -0.9872
 7506TIP3    H222462   2.681   0.903   5.963  0.4420  2.1128  0.8626
 7507TIP3   OH222463   0.211   2.029   3.641 -0.3882 -0.3382  0.5471
 7507TIP3    H122464   0.271   2.076   3.699  0.1816  0.4823 -0.7107
 7507TIP3    H222465   0.143   1.995   3.700  0.9185 -0.6859  1.8786
 7508TIP3   OH222466   2.054   4.173   3.338  0.3539  0.0349  0.3292
 7508TIP3    H122467   2.067   4.104   3.403 -1.4088 -0.9853 -0.3374
 7508TIP3    H222468   1.967   4.209   3.359 -0.4121 -0.5900 -1.6592
 7509TIP3   OH222469   1.329   5.868   3.981  0.0761  0.2016  0.6078
 7509TIP3    H122470   1.325   5.773   3.993  0.2232  0.2495  1.0387
 7509TIP3    H222471   1.396   5.897   4.043  1.2795  0.3741 -0.7643
 7510TIP3   OH222472   3.091   3.420   4.836 -0.1957 -0.6240 -0.5859
 7510TIP3    H122473   3.005   3.387   4.806 -0.0100 -0.4279 -1.3473
 7510TIP3    H222474   3.070   3.495   4.891 -0.5033 -0.4144 -0.9888
 7511TIP3   OH222475   2.588   2.875   6.555 -0.3650  0.3026 -0.2717
 7511TIP3    H122476   2.578   2.918   6.471 -0.8499  0.1654 -0.2865
 7511TIP3    H222477   2.562   2.784   6.539  1.3056 -0.1614 -0.4027
 7512TIP3   OH222478   0.842   3.382   4.516  0.1601  0.1215 -0.4035
 7512TIP3    H122479   0.838   3.310   4.453 -0.5751 -0.3402  0.1557
 7512TIP3    H222480   0.887   3.453   4.470  0.5799 -0.5775 -1.0767
 7513TIP3   OH222481   1.342   5.031   6.671  0.1580 -0.7105  0.0605
 7513TIP3    H122482   1.271   5.082   6.633  0.2918 -0.3829  0.2433
 7513TIP3    H222483   1.302   4.985   6.745  0.3429  0.2381  0.7749
 7514TIP3   OH222484   1.480   5.594   6.068 -0.2729  0.3173 -0.1875
 7514TIP3    H122485   1.530   5.658   6.118  0.3593  0.1887 -0.6562
 7514TIP3    H222486   1.546   5.536   6.031 -0.7754  0.1146 -0.7644
 7515TIP3   OH222487   3.707   4.806   4.900 -0.3472 -0.2095 -0.3600
 7515TIP3    H122488   3.632   4.751   4.877  0.1780 -0.8172 -0.6298
 7515TIP3    H222489   3.783   4.759   4.865  0.0241  1.0951 -1.3460
 7516TIP3   OH222490   6.813   3.847   2.970  0.3165 -0.2199  0.4347
 7516TIP3    H122491   6.803   3.921   2.911 -0.4251 -0.1673  0.6166
 7516TIP3    H222492   6.898   3.860   3.012  0.1067  0.6305  0.6013
 7517TIP3   OH222493   4.891   3.723   5.150  0.4751  0.0835 -0.5130
 7517TIP3    H122494   4.842   3.805   5.143  0.5725  0.1578 -0.3086
 7517TIP3    H222495   4.842   3.662   5.094  1.1950  0.6510 -1.7929
 7518TIP3   OH222496   5.677   3.355   4.053  0.2356  0.1921  0.5200
 7518TIP3    H122497   5.683   3.355   3.957  1.2299  0.4857  0.5807
 7518TIP3    H222498   5.695   3.445   4.078 -2.1120  0.5982  0.8708
 7519TIP3   OH222499   4.820   5.008   5.684  0.3756  0.4035 -0.2120
 7519TIP3    H122500   4.790   4.994   5.774 -0.8636 -1.1461 -0.8375
 7519TIP3    H222501   4.873   4.930   5.665 -0.9203 -0.1880 -1.4435
 7520TIP3   OH222502   5.379   3.696   4.977 -0.0301 -0.3046 -0.0669
 7520TIP3    H122503   5.369   3.603   4.954 -0.9620 -0.1490 -0.3147
 7520TIP3    H222504   5.291   3.732   4.969  0.1404  0.3766  1.0574
 7521TIP3   OH222505   2.776   6.124   5.040 -0.0384 -0.6540  0.1485
 7521TIP3    H122506   2.848   6.114   4.978 -2.4973 -0.7775 -2.8265
 7521TIP3    H222507   2.761   6.218   5.045 -1.9702 -0.7952 -2.1045
 7522TIP3   OH222508   6.395   5.543   5.681 -0.2887  0.4174  0.1165
 7522TIP3    H122509   6.427   5.452   5.680 -1.5361 -0.0338 -1.4487
 7522TIP3    H222510   6.469   5.595   5.648  0.5997  0.0539  1.4715
 7523TIP3   OH222511   2.495   2.817   4.360 -0.0087  0.6438  0.3911
 7523TIP3    H122512   2.508   2.852   4.272  0.3012  2.0741  0.9914
 7523TIP3    H222513   2.540   2.733   4.359  0.6686  1.0088 -0.5726
 7524TIP3   OH222514   2.737   5.379   4.981 -0.0225 -0.0868 -0.1973
 7524TIP3    H122515   2.738   5.284   4.979  1.8453 -0.1084  0.2711
 7524TIP3    H222516   2.666   5.402   5.040  0.9468 -1.2463  1.4426
 7525TIP3   OH222517   2.686   3.932   3.392  0.1060  0.2888 -0.1492
 7525TIP3    H122518   2.650   3.998   3.332 -0.5199 -0.8564 -1.0413
 7525TIP3    H222519   2.755   3.979   3.439 -1.5723  2.1230  0.5752
 7526TIP3   OH222520   5.429   3.226   4.545 -0.2916  0.0095  0.0465
 7526TIP3    H122521   5.511   3.269   4.570 -0.1737 -0.8241  1.1242
 7526TIP3    H222522   5.450   3.180   4.464 -0.8564  3.2862 -2.0481
 7527TIP3   OH222523   3.771   2.944   4.584  0.3694  0.2967  0.2479
 7527TIP3    H122524   3.764   2.949   4.489 -0.3188 -1.9129  0.1653
 7527TIP3    H222525   3.782   3.035   4.612  0.9871  0.9223 -1.9589
 7528TIP3   OH222526   4.276   4.826   4.836 -0.2891 -0.4446 -0.5041
 7528TIP3    H122527   4.220   4.851   4.909 -0.1350 -0.2832 -0.4409
 7528TIP3    H222528   4.335   4.901   4.824  0.2310 -0.8157 -0.2562
 7529TIP3   OH222529   5.944   3.384   5.188  0.4389  0.2260 -0.3118
 7529TIP3    H122530   5.984   3.310   5.143  2.4885  0.2820  1.3284
 7529TIP3    H222531   5.930   3.450   5.120  1.6225 -0.4414 -1.2024
 7530TIP3   OH222532   4.686   5.710   4.337  0.0081  0.7080  0.2960
 7530TIP3    H122533   4.595   5.712   4.365 -0.1215  0.9536 -0.1408
 7530TIP3    H222534   4.736   5.735   4.415 -0.2552 -0.0136  0.7027
 7531TIP3   OH222535   5.746   4.069   4.886 -0.3583 -0.1767 -0.1055
 7531TIP3    H122536   5.773   4.075   4.795  1.6794  1.9777  0.6128
 7531TIP3    H222537   5.693   3.989   4.890 -1.0779  0.0937 -3.2943
 7532TIP3   OH222538   4.801   7.148   3.856 -0.4588 -0.5402 -0.2297
 7532TIP3    H122539   4.809   7.054   3.871  1.0932 -0.3878 -0.0569
 7532TIP3    H222540   4.775   7.155   3.764 -0.9019 -1.1508 -0.1558
 7533TIP3   OH222541   5.164   5.934   4.137 -0.2745 -0.5888 -0.5455
 7533TIP3    H122542   5.077   5.902   4.160  0.0066 -1.5114 -0.7412
 7533TIP3    H222543   5.223   5.862   4.160  0.2193 -0.7563 -2.2249
 7534TIP3   OH222544   3.295   5.439   2.268 -0.4283  0.1104 -0.0502
 7534TIP3    H122545   3.361   5.467   2.205  1.4727 -0.1540  1.7447
 7534TIP3    H222546   3.344   5.386   2.332 -2.4239 -0.3142  1.1781
 7535TIP3   OH222547   4.576   5.975   4.177 -0.2107 -0.0133  0.2275
 7535TIP3    H122548   4.575   5.900   4.236  0.8933 -0.8816 -0.8419
 7535TIP3    H222549   4.555   5.939   4.091  3.8545  0.2248 -0.9988
 7536TIP3   OH222550   4.750   6.024   6.490  0.2644 -0.4316 -0.0058
 7536TIP3    H122551   4.813   6.035   6.419 -1.6233  0.2347 -1.6538
 7536TIP3    H222552   4.677   5.976   6.450 -0.8408 -0.0356  1.4662
 7537TIP3   OH222553   3.924   5.879   4.367 -0.1592 -0.2468  0.4638
 7537TIP3    H122554   3.860   5.809   4.376  1.1194 -1.4455  0.5429
 7537TIP3    H222555   3.884   5.955   4.409 -1.8730 -0.7277 -0.2590
 7538TIP3   OH222556   4.182   4.289   6.146  0.1698  0.5102 -0.3492
 7538TIP3    H122557   4.146   4.230   6.080 -0.7931 -1.1076  1.5585
 7538TIP3    H222558   4.133   4.269   6.225  3.8197 -0.2896  1.8398
 7539TIP3   OH222559   3.224   6.953   4.126 -0.1927 -0.7853  0.2090
 7539TIP3    H122560   3.232   6.919   4.037  0.9056  0.5439 -0.2100
 7539TIP3    H222561   3.313   6.979   4.151 -0.8262  0.7966  0.9001
 7540TIP3   OH222562   2.658   6.768   6.071 -0.8408  0.2479  0.1718
 7540TIP3    H122563   2.618   6.713   6.138 -0.6185  0.7950  0.7502
 7540TIP3    H222564   2.678   6.707   6.000  2.0747 -0.9625  1.9623
 7541TIP3   OH222565   5.248   4.344   1.180  0.3523  0.5357 -0.5760
 7541TIP3    H122566   5.181   4.369   1.243 -0.4342 -1.8250 -0.4467
 7541TIP3    H222567   5.316   4.411   1.190  0.9701 -0.5946  3.8281
 7542TIP3   OH222568   1.531   3.920   5.535  0.1117  0.4317  0.4617
 7542TIP3    H122569   1.606   3.978   5.520 -0.3980  1.1568  0.6397
 7542TIP3    H222570   1.559   3.835   5.502  1.8687  0.1187  2.6529
 7543TIP3   OH222571   3.852   4.580   3.394 -0.0707 -0.4438 -0.0917
 7543TIP3    H122572   3.811   4.661   3.425 -1.2451 -0.9285 -0.3457
 7543TIP3    H222573   3.806   4.511   3.441  0.4494 -1.0077 -0.4031
 7544TIP3   OH222574   2.704   6.176   3.899 -0.6338 -0.2841 -0.0526
 7544TIP3    H122575   2.687   6.087   3.867  0.0885 -0.1952 -0.6980
 7544TIP3    H222576   2.622   6.202   3.942 -0.2926 -1.9097  1.6704
 7545TIP3   OH222577   4.253   3.876   4.448 -0.7163 -0.6607  0.0397
 7545TIP3    H122578   4.217   3.791   4.471 -1.1537 -0.3264  0.6113
 7545TIP3    H222579   4.221   3.935   4.517 -1.2423  0.1608 -0.9016
 7546TIP3   OH222580   6.598   5.062   4.508 -0.0993  0.7176 -0.0893
 7546TIP3    H122581   6.545   5.022   4.577 -1.3957  2.7750  0.1383
 7546TIP3    H222582   6.536   5.083   4.439  1.0436 -0.3816 -1.4890
 7547TIP3   OH222583   5.112   5.118   3.963  1.1647 -0.0608 -0.3583
 7547TIP3    H122584   5.061   5.153   4.036 -1.2316 -0.0173 -2.0019
 7547TIP3    H222585   5.088   5.025   3.960  1.2109 -0.0465 -1.1408
 7548TIP3   OH222586   4.289   6.950   3.038 -0.0269  0.5307 -0.1203
 7548TIP3    H122587   4.334   6.871   3.009 -0.0935 -0.1215  1.4665
 7548TIP3    H222588   4.221   6.965   2.973  0.3694 -0.3929 -0.7478
 7549TIP3   OH222589   5.265   5.320   3.589 -0.4415 -0.7894  0.2408
 7549TIP3    H122590   5.339   5.273   3.550  0.0070 -0.0403  0.1705
 7549TIP3    H222591   5.223   5.363   3.515 -0.4309 -0.5118  0.3963
 7550TIP3   OH222592   4.076   6.633   4.449  0.4154  0.6352 -0.2792
 7550TIP3    H122593   4.167   6.620   4.474  0.4250  0.6127 -0.3263
 7550TIP3    H222594   4.060   6.727   4.462  0.0694  0.4105  1.0036
 7551TIP3   OH222595   5.170   5.503   2.978 -0.5326 -0.6504 -0.2835
 7551TIP3    H122596   5.195   5.425   2.928  0.1903  0.8187 -2.2835
 7551TIP3    H222597   5.082   5.524   2.947 -0.3068 -0.0532 -0.5155
 7552TIP3   OH222598   5.598   3.740   5.774 -0.2146 -0.0744  0.2836
 7552TIP3    H122599   5.517   3.761   5.821  0.0651  0.8058  0.3795
 7552TIP3    H222600   5.666   3.789   5.820  0.1983  0.0975 -0.5009
 7553TIP3   OH222601   2.514   3.479   6.407 -0.1376 -0.0703 -0.3367
 7553TIP3    H122602   2.456   3.447   6.476  1.0883  0.0810  0.7842
 7553TIP3    H222603   2.456   3.498   6.333 -1.7295  1.7124  1.3217
 7554TIP3   OH222604   4.444   5.438   4.417 -0.3198  0.5367  0.3501
 7554TIP3    H122605   4.525   5.429   4.366  0.1823 -0.4149  1.2981
 7554TIP3    H222606   4.468   5.409   4.505 -1.9516 -0.6822  0.4112
 7555TIP3   OH222607   3.657   1.679   3.270  0.2262 -0.6578 -0.0091
 7555TIP3    H122608   3.680   1.638   3.186  2.8887  1.3518 -0.3175
 7555TIP3    H222609   3.609   1.758   3.246  0.3940 -0.4300  0.4040
 7556TIP3   OH222610   2.999   4.382   3.199 -0.0187 -0.3233  0.5980
 7556TIP3    H122611   3.076   4.411   3.249  0.2136 -1.3427  0.8617
 7556TIP3    H222612   2.942   4.343   3.264 -0.0959 -0.8954  0.1921
 7557TIP3   OH222613   3.772   3.952   3.297  0.4580 -0.0348 -0.1986
 7557TIP3    H122614   3.817   4.011   3.237 -1.4061 -0.8626 -2.4678
 7557TIP3    H222615   3.684   3.989   3.306  0.7145  0.0726  2.0370
 7558TIP3   OH222616   4.900   5.654   3.848 -0.0270  0.1003  0.6923
 7558TIP3    H122617   4.851   5.647   3.767  0.4322 -0.1140  0.4290
 7558TIP3    H222618   4.992   5.656   3.820  0.1091  0.6482  1.1637
 7559TIP3   OH222619   3.630   4.948   3.811 -0.2155 -0.5452 -0.2381
 7559TIP3    H122620   3.547   4.977   3.774  0.5396  0.4341 -1.1763
 7559TIP3    H222621   3.697   4.976   3.748  0.8968 -0.6763  0.8475
 7560TIP3   OH222622   4.427   2.665   2.601 -0.1463 -0.2914  0.9378
 7560TIP3    H122623   4.499   2.602   2.604 -0.2954 -0.4437  1.3936
 7560TIP3    H222624   4.462   2.743   2.644 -0.1606 -0.2650  0.9014
 7561TIP3   OH222625   2.256   0.254   0.292  0.5084  0.2294 -0.1624
 7561TIP3    H122626   2.295   0.318   0.233  1.1149  0.9774  1.0246
 7561TIP3    H222627   2.314   0.178   0.288  1.6374  1.0150  0.9351
 7562TIP3   OH222628   5.123   3.761   5.020  0.2590 -0.3336 -0.2420
 7562TIP3    H122629   5.089   3.729   4.937 -0.2125  0.4604 -0.3519
 7562TIP3    H222630   5.059   3.732   5.085  0.2254 -0.2692 -0.2474
 7563TIP3   OH222631   5.734   1.746   3.291  0.3949 -0.2245 -0.6506
 7563TIP3    H122632   5.762   1.690   3.219 -0.2715  0.6392 -1.6114
 7563TIP3    H222633   5.766   1.703   3.370  1.0934 -1.2134 -1.4654
 7564TIP3   OH222634   3.451   5.260   5.933 -0.0940 -0.1348 -0.2275
 7564TIP3    H122635   3.446   5.171   5.897 -0.0695 -0.5351  0.7338
 7564TIP3    H222636   3.420   5.316   5.863 -1.4706 -1.0288 -0.3495
 7565TIP3   OH222637   3.620   3.068   3.968  0.3450  0.0055 -0.2942
 7565TIP3    H122638   3.646   3.109   3.886  0.1867 -0.1387 -0.4176
 7565TIP3    H222639   3.564   2.995   3.941  0.5656 -0.2463 -0.0734
 7566TIP3   OH222640   5.353   4.475   4.265  0.5159  0.8723  0.2086
 7566TIP3    H122641   5.435   4.518   4.243  0.4085  1.1784  0.3947
 7566TIP3    H222642   5.345   4.486   4.360  1.1502 -0.7311  0.4684
 7567TIP3   OH222643   3.533   4.222   3.633  0.0168 -0.1687  0.5849
 7567TIP3    H122644   3.520   4.128   3.645  0.6377 -0.3728 -0.3341
 7567TIP3    H222645   3.520   4.259   3.721 -1.2496 -0.9846  0.7582
 7568TIP3   OH222646   2.901   4.080   3.491  0.0560 -0.1719  0.2036
 7568TIP3    H122647   2.891   4.168   3.455  0.1736  0.0111  0.6103
 7568TIP3    H222648   2.981   4.046   3.451 -0.0937 -0.1665 -0.0993
 7569TIP3   OH222649   3.972   3.471   3.413 -0.0110 -0.4212 -0.1470
 7569TIP3    H122650   3.929   3.553   3.388  0.1624 -0.9115 -2.1999
 7569TIP3    H222651   4.060   3.478   3.375  0.6109 -0.8383  1.1771
 7570TIP3   OH222652   5.000   6.804   5.541  0.3203 -0.4296 -0.1177
 7570TIP3    H122653   4.931   6.779   5.479  0.6516 -1.9067  0.0954
 7570TIP3    H222654   5.066   6.736   5.532  0.8273 -0.1133  1.1641
 7571TIP3   OH222655   4.867   4.154   4.920  0.0252  0.2280  0.2119
 7571TIP3    H122656   4.802   4.092   4.889 -0.7072  1.4890 -0.8066
 7571TIP3    H222657   4.832   4.188   5.002 -0.8520  1.2587 -0.5732
 7572TIP3   OH222658   3.449   3.359   4.022 -0.1753 -0.1195 -0.1924
 7572TIP3    H122659   3.528   3.349   3.968  0.5052 -2.9436  1.2563
 7572TIP3    H222660   3.469   3.434   4.078  1.4110 -0.6836  0.0290
 7573TIP3   OH222661   3.916   4.653   5.897 -0.0182  0.8313 -0.2816
 7573TIP3    H122662   3.884   4.697   5.976  2.0970  0.4213  0.8750
 7573TIP3    H222663   3.901   4.560   5.914 -1.8346  0.8818 -1.4721
 7574TIP3   OH222664   3.824   4.978   4.088 -0.0933  0.3034  0.4063
 7574TIP3    H122665   3.913   5.006   4.110  0.3140 -0.4659 -0.2745
 7574TIP3    H222666   3.820   4.981   3.993 -1.0557  1.1154  0.4585
 7575TIP3   OH222667   4.624   4.236   3.871 -0.4075 -0.4375 -0.2086
 7575TIP3    H122668   4.532   4.241   3.844 -0.9966 -1.5857  1.5458
 7575TIP3    H222669   4.621   4.233   3.966  1.3897 -1.8780 -0.1829
 7576TIP3   OH222670   4.885   4.990   4.726  0.2384  0.1003 -0.2902
 7576TIP3    H122671   4.862   4.911   4.774 -0.1009 -0.9022 -2.0526
 7576TIP3    H222672   4.848   5.062   4.777 -0.7307 -0.9973  0.5555
 7577TIP3   OH222673   3.443   6.203   3.073 -0.1469 -0.5209  0.0283
 7577TIP3    H122674   3.426   6.133   3.009 -0.4747  0.9913 -1.5961
 7577TIP3    H222675   3.526   6.179   3.114 -0.7488 -2.3592  0.1926
 7578TIP3   OH222676   3.845   6.774   4.571  0.2184 -0.6057  0.4083
 7578TIP3    H122677   3.918   6.831   4.549  0.6666 -0.3744  2.4951
 7578TIP3    H222678   3.864   6.741   4.658 -1.9412 -0.8874  0.8114
 7579TIP3   OH222679   3.466   6.292   6.160 -0.1236 -0.2804 -0.1456
 7579TIP3    H122680   3.434   6.221   6.216 -2.5684  1.2770  0.5313
 7579TIP3    H222681   3.444   6.264   6.071 -1.1675 -0.3337  0.1230
 7580TIP3   OH222682   3.724   4.047   6.434  0.0803 -0.1030  0.2997
 7580TIP3    H122683   3.754   4.118   6.378  0.2965  1.0471  1.8500
 7580TIP3    H222684   3.804   4.004   6.463  0.0216 -0.0128  0.5984
 7581TIP3   OH222685   1.931   6.306   5.503 -0.2548 -0.1892 -0.3503
 7581TIP3    H122686   1.954   6.257   5.582  1.0645 -0.9869 -1.2043
 7581TIP3    H222687   1.925   6.239   5.435  0.9858  0.7613 -1.4149
 7582TIP3   OH222688   4.089   5.315   3.297  0.1085 -0.2477  0.3942
 7582TIP3    H122689   4.005   5.361   3.296  0.4532  0.3805 -0.4270
 7582TIP3    H222690   4.153   5.382   3.319  0.3816 -0.7584  1.1730
 7583TIP3   OH222691   4.875   5.462   6.231 -0.3492  0.1269  0.1229
 7583TIP3    H122692   4.797   5.450   6.285 -0.3484  0.0872  0.1147
 7583TIP3    H222693   4.842   5.497   6.149 -0.4405 -0.6727 -0.1812
 7584TIP3   OH222694   6.206   4.349   6.311 -0.6533  0.1740  0.0107
 7584TIP3    H122695   6.173   4.274   6.260 -1.7757  0.8921 -0.3409
 7584TIP3    H222696   6.132   4.374   6.366  0.3763 -0.2511  1.6327
 7585TIP3   OH222697   3.829   3.967   2.360  0.7063 -0.3051  0.3303
 7585TIP3    H122698   3.802   3.878   2.382  0.0105 -0.1848 -0.0138
 7585TIP3    H222699   3.758   4.023   2.393  0.6722  0.0387 -0.3144
 7586TIP3   OH222700   4.311   7.811   3.773 -0.0503  0.3773  0.3410
 7586TIP3    H122701   4.316   7.765   3.857 -0.5212 -1.0230 -0.3731
 7586TIP3    H222702   4.298   7.741   3.708 -0.2131  1.4759 -0.8375
 7587TIP3   OH222703   2.846   4.029   3.990  0.4827  0.3264  0.6245
 7587TIP3    H122704   2.887   4.103   4.033  0.3227  0.7641  0.0346
 7587TIP3    H222705   2.830   4.059   3.900  1.7849 -0.9267 -0.0535
 7588TIP3   OH222706   2.438   5.175   2.949 -0.0564  0.4825  0.2805
 7588TIP3    H122707   2.513   5.170   3.008 -0.8535  2.0469  1.4594
 7588TIP3    H222708   2.366   5.207   3.004 -0.3886  3.7100 -1.8679
 7589TIP3   OH222709   4.823   5.262   2.453 -0.0248  0.1049 -0.2096
 7589TIP3    H122710   4.798   5.223   2.537 -0.1892 -0.8299 -0.6847
 7589TIP3    H222711   4.867   5.192   2.406  0.6083  0.8073 -0.6679
 7590TIP3   OH222712   4.566   4.904   2.147 -0.0018  0.8858 -0.1427
 7590TIP3    H122713   4.631   4.917   2.078 -0.6788  2.1107 -0.5625
 7590TIP3    H222714   4.576   4.980   2.205 -1.0433  1.0933 -0.2163
 7591TIP3   OH222715   2.275   6.172   5.374  0.3612  0.6003  0.3914
 7591TIP3    H122716   2.361   6.205   5.347 -0.3169  1.3246 -0.9298
 7591TIP3    H222717   2.257   6.217   5.457  1.3070  0.3618  0.7259
 7592TIP3   OH222718   4.279   4.266   5.525 -0.2718  0.5319 -0.1134
 7592TIP3    H122719   4.294   4.302   5.613  0.6957 -0.4504  0.1285
 7592TIP3    H222720   4.325   4.182   5.525 -2.2817 -0.5913 -0.7841
 7593TIP3   OH222721   4.220   5.837   4.807  0.1430 -0.1915 -0.1810
 7593TIP3    H122722   4.178   5.797   4.731 -2.4580 -0.3603  1.2900
 7593TIP3    H222723   4.249   5.763   4.860 -2.2847 -0.1842  1.2400
 7594TIP3   OH222724   6.090   6.578   1.920  0.3500 -0.1094  0.0739
 7594TIP3    H122725   6.002   6.540   1.924  0.4079 -0.2367  0.1300
 7594TIP3    H222726   6.135   6.545   1.997  0.7849 -0.9030 -0.5048
 7595TIP3   OH222727   3.202   5.615   3.801 -0.2374 -0.0983 -0.3177
 7595TIP3    H122728   3.212   5.664   3.719  1.1527  0.9714  0.4716
 7595TIP3    H222729   3.126   5.559   3.786  0.9426 -1.0998 -2.9301
 7596TIP3   OH222730   4.683   6.489   3.346  0.2565  0.3263  0.3437
 7596TIP3    H122731   4.640   6.530   3.421  2.5075 -0.2965  2.0142
 7596TIP3    H222732   4.654   6.541   3.271 -3.3538 -0.0558  1.3831
 7597TIP3   OH222733   4.236   5.537   3.366  0.6765 -0.1762 -0.2968
 7597TIP3    H122734   4.201   5.559   3.452 -1.5985 -0.4393 -1.1161
 7597TIP3    H222735   4.213   5.613   3.311  1.8533 -0.1312 -0.7478
 7598TIP3   OH222736   3.787   3.951   4.413  0.1309  0.1338 -0.0354
 7598TIP3    H122737   3.731   3.943   4.491  2.5078 -0.7214  1.6248
 7598TIP3    H222738   3.774   4.042   4.384 -0.4596  0.5955  1.5931
 7599TIP3   OH222739   4.324   1.226   3.911  0.7633 -0.3405 -0.5567
 7599TIP3    H122740   4.287   1.314   3.909  1.6029  0.1029  1.8856
 7599TIP3    H222741   4.293   1.189   3.993  1.1375 -2.0333 -1.1533
 7600TIP3   OH222742   5.866   5.129   4.282 -0.1108  0.3203  0.2288
 7600TIP3    H122743   5.797   5.179   4.326  2.5009  4.2866  0.0595
 7600TIP3    H222744   5.848   5.139   4.189  1.0966  2.0051  0.1669
 7601TIP3   OH222745   2.334   4.904   0.911  0.0253  0.1778  0.5378
 7601TIP3    H122746   2.302   4.994   0.912  2.3372  1.0068  2.0230
 7601TIP3    H222747   2.424   4.910   0.943  0.8440 -2.4251 -1.1830
 7602TIP3   OH222748   3.733   5.625   4.682  0.0667  0.0390  0.4016
 7602TIP3    H122749   3.729   5.658   4.593 -1.4337  0.7243  0.6992
 7602TIP3    H222750   3.758   5.701   4.735 -0.4981  0.0001  0.7330
 7603TIP3   OH222751   5.461   5.641   4.580  0.3801 -0.3400  0.5237
 7603TIP3    H122752   5.406   5.603   4.649  1.1902 -1.7010  0.4316
 7603TIP3    H222753   5.463   5.575   4.511 -1.2302  1.4199 -1.2759
 7604TIP3   OH222754   3.651   2.402   3.097 -0.0229 -0.3807  0.3077
 7604TIP3    H122755   3.742   2.409   3.068 -0.8059 -0.3440 -2.2756
 7604TIP3    H222756   3.653   2.337   3.166  1.8615 -0.9227 -0.2196
 7605TIP3   OH222757   4.595   6.646   5.710  0.0765 -0.4587  0.2463
 7605TIP3    H122758   4.627   6.731   5.681 -0.9533 -0.1738 -0.0714
 7605TIP3    H222759   4.515   6.665   5.758 -0.1848 -1.2417  0.1299
 7606TIP3   OH222760   3.765   6.377   3.032 -0.2915 -0.1176  0.7219
 7606TIP3    H122761   3.846   6.380   3.082  0.7155 -0.9069 -0.8149
 7606TIP3    H222762   3.696   6.373   3.097  1.0571 -2.9213  2.0272
 7607TIP3   OH222763   2.582   2.390   4.743 -0.6446  0.3910 -0.1479
 7607TIP3    H122764   2.503   2.443   4.755  0.3188  1.9708 -0.6174
 7607TIP3    H222765   2.653   2.454   4.735  0.6548 -0.9973 -0.0008
 7608TIP3   OH222766   7.171   4.712   2.405 -0.1065  0.4785 -0.7991
 7608TIP3    H122767   7.227   4.641   2.436 -2.2558 -0.6757  0.5572
 7608TIP3    H222768   7.173   4.706   2.310 -1.3625 -2.3148 -0.6890
 7609TIP3   OH222769   3.849   4.138   6.752  0.4455  0.1553  0.2806
 7609TIP3    H122770   3.807   4.202   6.695  1.6932  0.3647 -0.4162
 7609TIP3    H222771   3.793   4.135   6.830 -0.8339  0.4420 -0.6108
 7610TIP3   OH222772   3.851   5.109   5.037  0.4719 -0.0739  0.1990
 7610TIP3    H122773   3.836   5.054   4.959 -1.1904  1.4421 -0.6000
 7610TIP3    H222774   3.919   5.063   5.086  1.4653 -1.1277 -2.0914
 7611TIP3   OH222775   7.471   2.078   0.253  0.1380 -0.4954  0.1455
 7611TIP3    H122776   7.484   2.102   0.345  1.1043 -1.1127  0.1824
 7611TIP3    H222777   7.518   2.145   0.204 -0.5686 -0.0368  0.0845
 7612TIP3   OH222778   2.067   5.884   6.408 -0.3326 -0.2840 -0.1270
 7612TIP3    H122779   2.161   5.870   6.401 -0.1241  0.4589  1.0482
 7612TIP3    H222780   2.033   5.865   6.321  0.7814 -1.5002 -0.2996
 7613TIP3   OH222781   3.009   7.431   5.711  0.1999  0.0443 -0.0585
 7613TIP3    H122782   3.082   7.373   5.693  1.2123  1.3070 -0.1137
 7613TIP3    H222783   2.933   7.373   5.717  1.1344 -1.2387 -0.3824
 7614TIP3   OH222784   5.226   4.233   5.137  0.1695 -0.2233 -0.1436
 7614TIP3    H122785   5.169   4.156   5.145 -0.1805 -0.0422 -0.8889
 7614TIP3    H222786   5.313   4.197   5.119  0.3583 -0.5141  1.2463
 7615TIP3   OH222787   2.386   4.862   6.356 -0.8951  0.0286  0.5080
 7615TIP3    H122788   2.467   4.813   6.368 -0.4149  0.4205 -1.0120
 7615TIP3    H222789   2.407   4.950   6.388 -0.5309  0.2781 -0.3857
 7616TIP3   OH222790   4.865   6.705   5.308  0.0887 -0.1419 -0.4532
 7616TIP3    H122791   4.918   6.730   5.232  0.4057 -0.0875 -0.2201
 7616TIP3    H222792   4.795   6.771   5.311 -0.2786 -0.5021 -1.0510
 7617TIP3   OH222793   2.461   5.960   3.503 -0.5051  0.1871  0.4714
 7617TIP3    H122794   2.384   6.004   3.538 -2.8019  0.1881 -4.2635
 7617TIP3    H222795   2.525   6.030   3.491 -1.0860  0.7947  0.8856
 7618TIP3   OH222796   6.258   4.164   3.912 -0.5357  0.1442  0.3702
 7618TIP3    H122797   6.284   4.233   3.851 -0.6309 -0.6371 -0.5840
 7618TIP3    H222798   6.163   4.170   3.917 -0.4370  0.9466  1.3496
 7619TIP3   OH222799   3.624   5.220   3.423  0.2040  0.2316 -0.1319
 7619TIP3    H122800   3.683   5.170   3.480  0.4213  0.6008 -0.0321
 7619TIP3    H222801   3.639   5.184   3.336  1.4854  1.1506 -0.3140
 7620TIP3   OH222802   4.141   4.035   5.643  0.3359 -0.3724  0.3768
 7620TIP3    H122803   4.056   4.054   5.603  0.3346 -0.9192  0.1159
 7620TIP3    H222804   4.198   4.012   5.569  0.9157  0.7054  0.4650
 7621TIP3   OH222805   3.867   2.663   4.423 -0.9631  0.2057  0.0510
 7621TIP3    H122806   3.868   2.758   4.426 -0.6548  0.2323 -0.7488
 7621TIP3    H222807   3.842   2.642   4.333 -0.1045 -0.4583 -0.0425
 7622TIP3   OH222808   4.419   4.463   4.995 -0.2840  0.1591  0.3153
 7622TIP3    H122809   4.461   4.515   4.926  1.3177  0.4444  1.4607
 7622TIP3    H222810   4.420   4.520   5.072 -2.1362 -0.1243  0.5605
 7623TIP3   OH222811   4.751   4.921   3.817  0.4269  0.2626 -0.4328
 7623TIP3    H122812   4.722   4.984   3.883 -0.5678  0.1318 -0.7412
 7623TIP3    H222813   4.733   4.964   3.733  1.4902  0.3434 -0.6258
 7624TIP3   OH222814   6.528   3.416   6.118  0.6211 -0.6924 -0.4524
 7624TIP3    H122815   6.614   3.415   6.077 -0.4085 -1.5536 -2.6954
 7624TIP3    H222816   6.537   3.475   6.192  2.6009  0.8118 -1.8401
 7625TIP3   OH222817   7.249   7.048   4.262  0.1887  0.5229 -0.4509
 7625TIP3    H122818   7.337   7.080   4.284 -0.1056  0.0393  1.4289
 7625TIP3    H222819   7.262   6.956   4.241  0.0374  0.2931  0.4536
 7626TIP3   OH222820   4.204   5.859   5.779 -0.6112  0.1258 -0.5438
 7626TIP3    H122821   4.181   5.778   5.735  1.8406 -0.2005 -1.2775
 7626TIP3    H222822   4.294   5.846   5.810 -1.0397  1.6532  1.4614
 7627TIP3   OH222823   5.105   3.707   4.281 -0.0349 -0.1434  0.4843
 7627TIP3    H122824   5.127   3.776   4.220  0.2226 -0.5395  0.1271
 7627TIP3    H222825   5.169   3.716   4.352  0.5223 -0.5341  0.0345
 7628TIP3   OH222826   4.471   5.423   5.129 -0.3397 -0.2042 -0.0015
 7628TIP3    H122827   4.383   5.404   5.096 -1.2168 -1.3223  2.7786
 7628TIP3    H222828   4.519   5.341   5.117 -0.7075 -0.6635  1.5439
 7629TIP3   OH222829   4.874   3.756   4.117 -0.5593  0.3909 -0.1082
 7629TIP3    H122830   4.943   3.807   4.076  0.2152 -1.6752 -1.4679
 7629TIP3    H222831   4.913   3.724   4.199  0.7040 -2.0289 -1.5852
 7630TIP3   OH222832   3.665   6.488   6.140 -0.4361 -0.1864 -0.0659
 7630TIP3    H122833   3.588   6.447   6.179 -1.5106  1.5030 -0.3517
 7630TIP3    H222834   3.736   6.470   6.201 -1.7131  0.8929  1.7757
 7631TIP3   OH222835   4.167   3.860   5.844 -0.0760  0.1531  0.2483
 7631TIP3    H122836   4.148   3.909   5.764 -1.3924 -2.6190 -1.2022
 7631TIP3    H222837   4.259   3.834   5.835 -0.3787 -0.6229 -0.6285
 7632TIP3   OH222838   6.816   4.344   3.318 -0.0817 -0.6371  0.3228
 7632TIP3    H122839   6.825   4.435   3.291  2.0274 -0.5569  1.2108
 7632TIP3    H222840   6.786   4.349   3.409  2.5336 -0.7705  1.2227
 7633TIP3   OH222841   4.638   5.422   6.338 -0.0291 -0.6742 -0.3634
 7633TIP3    H122842   4.584   5.500   6.347  0.4578 -0.4045  0.3181
 7633TIP3    H222843   4.653   5.393   6.428  2.1300  0.0914 -0.4452
 7634TIP3   OH222844   5.708   6.203   4.878  0.4281  0.1422 -0.0842
 7634TIP3    H122845   5.710   6.234   4.787 -2.0702 -0.1159 -0.2604
 7634TIP3    H222846   5.790   6.155   4.888  1.2995  1.1950 -1.8265
 7635TIP3   OH222847   2.579   2.716   2.482  0.2348 -0.1660  0.2435
 7635TIP3    H122848   2.665   2.676   2.487  0.2700 -0.2045 -0.6145
 7635TIP3    H222849   2.572   2.768   2.563  1.1475  0.0279  0.2054
 7636TIP3   OH222850   4.480   2.942   4.575 -0.1554  0.0130  0.0588
 7636TIP3    H122851   4.398   2.988   4.592  1.0000  2.1730 -0.0238
 7636TIP3    H222852   4.467   2.900   4.490 -1.6903 -0.9590  0.7412
 7637TIP3   OH222853   3.702   4.051   5.451  0.7552 -0.5193  0.8577
 7637TIP3    H122854   3.684   4.136   5.490 -0.6731  0.0493 -0.9910
 7637TIP3    H222855   3.650   3.989   5.503  1.6739 -0.2668  2.0966
 7638TIP3   OH222856   3.281   5.668   4.638  0.0933  0.4500 -0.0744
 7638TIP3    H122857   3.314   5.666   4.728 -0.2348  2.1332  0.1043
 7638TIP3    H222858   3.353   5.707   4.588 -0.0132  0.2053 -0.4163
 7639TIP3   OH222859   3.258   4.744   3.944  0.0469 -0.0090  0.5692
 7639TIP3    H122860   3.335   4.717   3.895 -0.2093  0.4211 -0.0672
 7639TIP3    H222861   3.203   4.790   3.881  0.6747  2.4203  1.7271
 7640TIP3   OH222862   2.855   4.522   4.523  0.6460 -0.1828  0.0776
 7640TIP3    H122863   2.897   4.605   4.542 -0.5469  0.2662  0.8275
 7640TIP3    H222864   2.863   4.511   4.428  0.3389  1.0479 -0.0942
 7641TIP3   OH222865   2.081   4.929   4.386  0.7082 -0.3328  0.0483
 7641TIP3    H122866   2.077   5.018   4.421 -0.1563 -0.1020 -0.6252
 7641TIP3    H222867   2.115   4.877   4.459 -0.4397  0.2540  1.0277
 7642TIP3   OH222868   3.064   5.198   4.554  0.1162  0.1410 -0.6295
 7642TIP3    H122869   3.079   5.202   4.460  1.2054 -1.1166 -0.5202
 7642TIP3    H222870   3.136   5.247   4.592  0.9114 -1.2216 -0.3567
 7643TIP3   OH222871   6.145   5.299   4.839 -0.0731 -0.1943 -0.2992
 7643TIP3    H122872   6.191   5.262   4.914  1.0205  0.8064 -0.4654
 7643TIP3    H222873   6.125   5.389   4.864 -1.5314 -0.4616 -0.4260
 7644TIP3   OH222874   6.213   5.778   3.983  0.4228 -0.4207  0.2492
 7644TIP3    H122875   6.263   5.850   3.943 -0.8489  0.7766  0.8158
 7644TIP3    H222876   6.177   5.730   3.908  0.1721  0.3047 -0.0957
 7645TIP3   OH222877   6.219   5.024   6.142  0.4752 -0.3000  0.4369
 7645TIP3    H122878   6.264   5.062   6.067  4.0211 -0.7948  2.1817
 7645TIP3    H222879   6.151   4.968   6.105  1.5890  0.1476 -2.3387
 7646TIP3   OH222880   4.165   4.852   6.554  0.3607  0.4388 -0.1679
 7646TIP3    H122881   4.240   4.911   6.543  1.7020 -1.3269 -0.9178
 7646TIP3    H222882   4.155   4.811   6.468 -1.0850  0.2163  0.1021
 7647TIP3   OH222883   6.240   4.802   3.531 -0.0643 -0.5426 -0.0293
 7647TIP3    H122884   6.182   4.848   3.592 -1.7670  0.0133 -2.0126
 7647TIP3    H222885   6.260   4.719   3.575  0.4461  0.7040  2.1687
 7648TIP3   OH222886   4.066   4.480   6.600 -0.1837  0.5363  0.4808
 7648TIP3    H122887   4.134   4.475   6.668  0.7597 -0.5075 -0.5314
 7648TIP3    H222888   4.086   4.561   6.553 -1.9271  2.2333  2.5648
 7649TIP3   OH222889   4.947   3.007   2.624 -0.3716  0.2825 -0.3784
 7649TIP3    H122890   4.938   3.002   2.528 -2.6779  1.6337 -0.2818
 7649TIP3    H222891   4.985   2.923   2.649  0.0450 -0.1811 -2.4764
 7650TIP3   OH222892   7.988   5.758   2.856 -0.0314 -0.1606 -0.0273
 7650TIP3    H122893   8.066   5.796   2.817 -0.5548  0.0148 -0.9341
 7650TIP3    H222894   7.995   5.778   2.949  1.2268 -0.5566 -0.0313
 7651TIP3   OH222895   6.159   4.395   4.222 -0.1901 -0.1990 -0.1369
 7651TIP3    H122896   6.182   4.305   4.247 -1.2612  0.0522  1.8599
 7651TIP3    H222897   6.220   4.449   4.271  1.2301  0.1536 -2.2445
 7652TIP3   OH222898   4.794   2.642   3.305 -0.2513 -0.0619 -0.0835
 7652TIP3    H122899   4.794   2.713   3.369  1.2668 -0.3990  0.3079
 7652TIP3    H222900   4.877   2.652   3.258  0.3951 -2.0886  0.5631
 7653TIP3   OH222901   4.555   4.704   3.870 -0.0403 -0.0960  0.1101
 7653TIP3    H122902   4.551   4.679   3.962  2.1889 -0.8077  0.0525
 7653TIP3    H222903   4.622   4.772   3.867 -1.9473  1.7932 -0.6181
 7654TIP3   OH222904   3.772   3.256   2.802 -0.0129  0.1372  0.5787
 7654TIP3    H122905   3.736   3.207   2.876 -3.7059 -2.2684 -2.5956
 7654TIP3    H222906   3.745   3.346   2.817 -1.3289 -0.4467  1.8416
 7655TIP3   OH222907   5.186   4.227   4.269  0.0956  0.0829 -0.7089
 7655TIP3    H122908   5.241   4.291   4.223  0.1002  0.0756 -0.7153
 7655TIP3    H222909   5.097   4.245   4.238  0.1181 -0.0186 -0.8349
 7656TIP3   OH222910   2.521   4.253   4.369  0.1335 -0.0466  0.0040
 7656TIP3    H122911   2.588   4.185   4.361  0.9630  0.9667 -1.7508
 7656TIP3    H222912   2.538   4.293   4.455  1.6610  0.0599 -0.3362
 7657TIP3   OH222913   6.188   4.088   4.792  0.2662 -0.1152 -0.3233
 7657TIP3    H122914   6.214   4.172   4.754 -0.2635  0.5425  0.7648
 7657TIP3    H222915   6.270   4.052   4.827  0.7508 -0.6981 -1.9815
 7658TIP3   OH222916   3.424   3.891   3.754 -0.4775  0.3633 -0.3907
 7658TIP3    H122917   3.378   3.905   3.671  0.6343  0.3607 -1.0091
 7658TIP3    H222918   3.507   3.936   3.744  0.5514 -1.3937 -0.0860
 7659TIP3   OH222919   4.388   4.650   5.249 -0.4717  0.5045 -0.0780
 7659TIP3    H122920   4.295   4.658   5.273 -0.9830  0.8875 -2.1278
 7659TIP3    H222921   4.423   4.588   5.312 -2.0449  0.6267  0.9518
 7660TIP3   OH222922   6.356   4.428   4.037  0.0391 -0.0419 -0.6836
 7660TIP3    H122923   6.270   4.409   4.074 -0.2004  1.6435 -0.3511
 7660TIP3    H222924   6.340   4.434   3.943 -0.7453  2.9858 -0.3920
 7661TIP3   OH222925   5.371   3.596   3.473 -0.6306 -0.1343  0.1501
 7661TIP3    H122926   5.458   3.560   3.457 -0.4109  0.4870 -0.0960
 7661TIP3    H222927   5.373   3.682   3.430 -1.6134 -0.4281 -0.4767
 7662TIP3   OH222928   3.344   4.790   4.207 -0.3930 -0.5851 -0.4417
 7662TIP3    H122929   3.282   4.748   4.267  0.6689 -0.4175  0.8000
 7662TIP3    H222930   3.307   4.775   4.120 -1.4937 -1.6259  0.1861
 7663TIP3   OH222931   4.683   4.903   5.891  0.7785  0.3507  0.5601
 7663TIP3    H122932   4.617   4.967   5.917  1.3859  0.5819  1.5440
 7663TIP3    H222933   4.659   4.879   5.801 -0.9208  0.0527  1.0857
 7664TIP3   OH222934   5.225   4.317   6.783 -0.7008  0.3332 -0.3010
 7664TIP3    H122935   5.233   4.378   6.709  0.6658 -0.3348 -0.7261
 7664TIP3    H222936   5.313   4.281   6.793 -1.3904 -1.2163  0.2421
 7665TIP3   OH222937   4.302   5.172   3.627 -0.2258 -0.7247 -0.2398
 7665TIP3    H122938   4.352   5.251   3.647  1.6294 -2.0807  0.6368
 7665TIP3    H222939   4.211   5.201   3.628  0.3274  1.0936  1.5825
 7666TIP3   OH222940   5.074   6.958   4.145  0.0494 -0.3251 -0.1965
 7666TIP3    H122941   5.158   6.950   4.099 -0.1732  2.4942 -1.1740
 7666TIP3    H222942   5.074   6.884   4.206  1.8448 -2.2211 -2.3428
 7667TIP3   OH222943   3.349   3.822   5.288 -0.3865 -0.4340  0.2546
 7667TIP3    H122944   3.326   3.850   5.199 -0.4048  0.5438  0.5561
 7667TIP3    H222945   3.338   3.727   5.287  0.0361 -0.4805 -0.9071
 7668TIP3   OH222946   7.564   2.679   5.192  0.1749  0.4786  0.6053
 7668TIP3    H122947   7.493   2.744   5.187 -0.6883 -0.5573 -0.8362
 7668TIP3    H222948   7.533   2.615   5.257  0.0111  0.2865  0.3366
 7669TIP3   OH222949   2.961   2.378   0.884  0.3110  0.4351  0.4055
 7669TIP3    H122950   2.964   2.405   0.792  0.6969  1.4666  0.7148
 7669TIP3    H222951   2.922   2.290   0.882 -0.2963  0.7197 -0.6777
 7670TIP3   OH222952   3.037   5.397   4.044  0.2897 -0.6128  0.2620
 7670TIP3    H122953   2.988   5.427   4.120  0.3850 -1.6528  0.7481
 7670TIP3    H222954   2.989   5.432   3.969 -0.4467 -0.5302  0.7694
 7671TIP3   OH222955   3.408   5.631   5.258  0.5647  0.0447 -0.3634
 7671TIP3    H122956   3.370   5.656   5.174  2.5818 -0.6191 -1.5230
 7671TIP3    H222957   3.437   5.713   5.298 -1.0395  0.4390  0.0498
 7672TIP3   OH222958   4.427   5.375   5.998 -0.1186  0.0428 -0.0238
 7672TIP3    H122959   4.353   5.347   5.945 -0.0791 -0.8886  0.4026
 7672TIP3    H222960   4.393   5.379   6.087  0.0603  0.6837  0.0205
 7673TIP3   OH222961   4.958   0.142   4.296 -0.1588 -0.4248 -0.1210
 7673TIP3    H122962   5.002   0.065   4.261  0.3939 -0.0679 -0.2124
 7673TIP3    H222963   5.019   0.214   4.281 -0.7984  0.0846 -0.3167
 7674TIP3   OH222964   4.967   5.272   4.156 -0.1197  0.3402 -0.3459
 7674TIP3    H122965   4.949   5.366   4.156 -0.8269  0.2132 -0.9496
 7674TIP3    H222966   4.897   5.234   4.208  0.4968  0.2053  0.3858
 7675TIP3   OH222967   2.713   5.829   4.270 -0.7316  0.1596 -0.2362
 7675TIP3    H122968   2.718   5.757   4.332 -0.4580 -1.2668 -1.8955
 7675TIP3    H222969   2.632   5.875   4.293 -2.9777 -2.9680 -1.6382
 7676TIP3   OH222970   3.043   3.643   4.545 -0.0930  0.9508 -0.5888
 7676TIP3    H122971   2.989   3.707   4.498 -0.0255  1.9501  0.6827
 7676TIP3    H222972   3.080   3.692   4.618  2.2854  0.2096 -1.2438
 7677TIP3   OH222973   5.693   3.126   6.219  0.1488  0.1298  0.0070
 7677TIP3    H122974   5.631   3.061   6.253 -0.8167  1.1181  0.1583
 7677TIP3    H222975   5.655   3.156   6.137  1.2927 -0.5000 -0.7788
 7678TIP3   OH222976   6.725   4.342   5.651 -0.4476 -0.8706 -0.0230
 7678TIP3    H122977   6.741   4.349   5.745  2.1071 -1.4881 -0.3811
 7678TIP3    H222978   6.707   4.432   5.623 -0.7117 -0.6122  0.9644
 7679TIP3   OH222979   3.313   3.055   6.552  0.5434  0.4332  0.1604
 7679TIP3    H122980   3.255   3.127   6.525 -0.2372  0.3347  1.5124
 7679TIP3    H222981   3.317   2.998   6.476 -0.9776  0.5620 -0.0459
 7680TIP3   OH222982   4.530   4.802   2.523 -0.4853 -0.1050 -0.5550
 7680TIP3    H122983   4.514   4.724   2.469  0.0155 -0.2939 -0.4428
 7680TIP3    H222984   4.621   4.791   2.553  0.2305  1.4564 -2.0709
 7681TIP3   OH222985   2.472   4.006   3.874 -0.5621 -0.6717 -0.0834
 7681TIP3    H122986   2.505   4.068   3.809  0.2602 -1.3938 -0.3698
 7681TIP3    H222987   2.546   3.948   3.890 -1.9295 -2.8110 -1.3083
 7682TIP3   OH222988   5.207   4.012   4.919 -0.1660  0.7264 -0.2412
 7682TIP3    H122989   5.151   4.012   4.841 -0.4032  2.2437 -0.0850
 7682TIP3    H222990   5.173   3.939   4.972 -2.1075  1.6852 -0.0998
 7683TIP3   OH222991   3.584   2.606   4.581 -0.1597 -0.4041 -0.2655
 7683TIP3    H122992   3.544   2.524   4.555 -0.9460  0.5059 -2.0409
 7683TIP3    H222993   3.520   2.673   4.557  1.3702  0.8768 -0.9055
 7684TIP3   OH222994   3.671   3.651   6.193 -0.7055  0.0897  0.2293
 7684TIP3    H122995   3.672   3.704   6.272 -0.2913  1.3612 -0.6131
 7684TIP3    H222996   3.764   3.642   6.169 -0.8421 -0.0529 -0.2516
 7685TIP3   OH222997   3.255   4.392   3.297 -0.1975 -0.7379  0.2981
 7685TIP3    H122998   3.226   4.420   3.384 -0.4996  3.5786 -1.0576
 7685TIP3    H222999   3.347   4.368   3.309 -0.0082  0.5891  1.7114
 7686TIP3   OH223000   5.230   5.219   2.221  0.5907  0.0165  0.1163
 7686TIP3    H123001   5.292   5.216   2.148  0.8141 -1.8997  0.3515
 7686TIP3    H223002   5.264   5.154   2.283 -0.7430  0.1387  0.9887
 7687TIP3   OH223003   3.267   5.028   2.883  0.3906 -0.1277  0.1561
 7687TIP3    H123004   3.298   4.984   2.804  1.0715  0.9014 -0.1666
 7687TIP3    H223005   3.172   5.031   2.872  0.3748 -1.1221 -0.0189
 7688TIP3   OH223006   4.063   6.919   4.494 -0.3474 -0.4062  0.0289
 7688TIP3    H123007   4.135   6.912   4.556  0.1106  0.1315 -0.4387
 7688TIP3    H223008   4.040   7.012   4.494 -1.6365 -0.7043  0.8410
 7689TIP3   OH223009   3.225   1.658   5.077  0.0812 -0.0462 -0.1339
 7689TIP3    H123010   3.270   1.719   5.134  0.8850 -2.5329  1.9438
 7689TIP3    H223011   3.140   1.644   5.119 -0.1906 -0.2347 -0.7310
 7690TIP3   OH223012   4.980   3.249   5.691 -0.1486  0.6286 -0.1738
 7690TIP3    H123013   5.045   3.209   5.749 -0.2783  1.5152  0.6125
 7690TIP3    H223014   4.912   3.183   5.681  1.0248 -0.4280 -1.2612
 7691TIP3   OH223015   5.136   6.160   3.998  0.0726 -0.2081  0.0960
 7691TIP3    H123016   5.150   6.075   4.040  2.0398  0.1439  0.1882
 7691TIP3    H223017   5.210   6.170   3.938 -0.8443  0.8617 -0.8699
 7692TIP3   OH223018   5.644   4.187   5.189  0.0228  0.0462  0.2162
 7692TIP3    H123019   5.700   4.118   5.153  1.2245  0.9143  0.4030
 7692TIP3    H223020   5.600   4.145   5.263  2.5541  0.1451  1.8233
 7693TIP3   OH223021   3.312   6.083   5.090 -0.0948  0.0504 -0.3369
 7693TIP3    H123022   3.404   6.110   5.088  0.6030 -2.3078 -1.5686
 7693TIP3    H223023   3.263   6.163   5.073  1.7212  1.3529  0.4117
 7694TIP3   OH223024   6.242   3.186   1.587 -0.1446 -0.1072 -0.5420
 7694TIP3    H123025   6.322   3.177   1.535 -0.7267  0.5801 -1.5887
 7694TIP3    H223026   6.181   3.232   1.529 -0.7350  0.9052  0.8484
 7695TIP3   OH223027   6.469   4.933   3.267  0.6382 -0.1761  0.3508
 7695TIP3    H123028   6.435   5.016   3.301 -0.1759 -0.1091 -0.5898
 7695TIP3    H223029   6.545   4.913   3.322 -0.4957  0.0562  2.0416
 7696TIP3   OH223030   7.229   3.983   0.612  0.3546  0.0132 -0.3298
 7696TIP3    H123031   7.284   3.913   0.578  1.1122  0.4262  0.0393
 7696TIP3    H223032   7.290   4.055   0.630 -0.1722  0.1583  0.9322
 7697TIP3   OH223033   6.951   4.199   5.255 -0.1417  0.0075 -0.2281
 7697TIP3    H123034   6.952   4.174   5.347 -0.7077 -1.7180 -0.6777
 7697TIP3    H223035   6.888   4.139   5.214 -1.1757  1.8649 -1.4316
 7698TIP3   OH223036   6.643   2.763   2.375  0.5238  0.2054 -0.5119
 7698TIP3    H123037   6.576   2.706   2.337  0.5104  1.0927 -1.8475
 7698TIP3    H223038   6.651   2.835   2.313  0.0128  2.0613  1.5068
 7699TIP3   OH223039   5.874   4.615   4.900  0.7783  0.2235 -0.2664
 7699TIP3    H123040   5.906   4.637   4.812  1.0081 -2.1220 -0.7872
 7699TIP3    H223041   5.787   4.654   4.905  1.0025  0.8699 -1.3120
 7700TIP3   OH223042   6.064   5.789   4.434  0.3626 -0.0469 -0.1616
 7700TIP3    H123043   6.044   5.883   4.438 -0.4810 -0.2287  0.0015
 7700TIP3    H223044   6.045   5.757   4.522 -2.0434 -0.8979 -0.9523
 7701TIP3   OH223045   5.115   4.708   5.390  0.4587 -0.0637  0.2921
 7701TIP3    H123046   5.113   4.655   5.311 -2.4136  1.6089 -0.8257
 7701TIP3    H223047   5.157   4.790   5.362  1.3613 -0.2653  1.0381
 7702TIP3   OH223048   5.923   5.677   5.581 -0.4699 -0.8271 -0.2032
 7702TIP3    H123049   5.912   5.610   5.648 -2.2480  1.1694  1.5892
 7702TIP3    H223050   5.995   5.731   5.612 -1.3597  0.1584  0.2014
 7703TIP3   OH223051   6.921   4.002   4.318  0.1045 -0.0049  0.4063
 7703TIP3    H123052   6.852   4.042   4.370 -0.3143 -2.0038  1.4207
 7703TIP3    H223053   6.877   3.972   4.238  0.2035  0.5162  0.1512
 7704TIP3   OH223054   5.860   4.889   5.799 -0.8588  0.1874  0.3466
 7704TIP3    H123055   5.848   4.930   5.885 -0.0445 -0.1819  0.6398
 7704TIP3    H223056   5.869   4.796   5.817 -0.1170  0.1692 -0.0886
 7705TIP3   OH223057   4.764   6.658   3.684  0.0983  0.4619 -0.2211
 7705TIP3    H123058   4.837   6.602   3.655 -0.1027 -0.0559  0.2602
 7705TIP3    H223059   4.706   6.662   3.608 -0.8958 -1.6687  0.3805
 7706TIP3   OH223060   5.333   5.222   5.548  0.2724  0.0433  0.3039
 7706TIP3    H123061   5.362   5.309   5.575  0.9591  0.1847 -0.8597
 7706TIP3    H223062   5.279   5.191   5.620  2.0676  0.4024  1.8302
 7707TIP3   OH223063   8.461   5.264   3.906 -0.3533  0.1747  0.2548
 7707TIP3    H123064   8.373   5.297   3.924  0.3378  2.4458 -0.4227
 7707TIP3    H223065   8.452   5.168   3.910 -2.5946  0.4041  1.3136
 7708TIP3   OH223066   6.589   4.774   4.418  0.0793 -0.0753 -0.0135
 7708TIP3    H123067   6.650   4.741   4.352  0.8830 -0.5843  0.9607
 7708TIP3    H223068   6.617   4.732   4.499  0.3772  2.0549  1.0375
 7709TIP3   OH223069   7.045   4.709   3.873  0.2189  0.5656  0.2730
 7709TIP3    H123070   6.989   4.782   3.845 -0.5589  0.5229  1.6775
 7709TIP3    H223071   6.984   4.639   3.895  0.9452 -0.3777 -0.6343
 7710TIP3   OH223072   6.314   5.773   4.513 -0.2108  0.3769  0.0668
 7710TIP3    H123073   6.307   5.824   4.594 -1.6986  1.4137 -0.6741
 7710TIP3    H223074   6.231   5.789   4.468  1.0109  0.6737 -2.1523
 7711TIP3   OH223075   5.078   4.147   3.675 -0.2191 -0.3613 -0.3689
 7711TIP3    H123076   5.115   4.063   3.649 -2.1728 -0.8960 -1.5046
 7711TIP3    H223077   5.130   4.212   3.627  0.8277 -0.9437 -0.0394
 7712TIP3   OH223078   7.206   5.346   3.920 -0.1791 -0.2730 -0.7109
 7712TIP3    H123079   7.265   5.417   3.943 -2.6505  1.1969  1.3936
 7712TIP3    H223080   7.183   5.306   4.004 -2.3903 -0.5802 -1.4318
 7713TIP3   OH223081   5.075   4.030   2.643 -0.5763  0.2967  0.2864
 7713TIP3    H123082   5.050   4.110   2.596 -1.3129  0.2354  0.5697
 7713TIP3    H223083   5.005   3.968   2.622  0.4193 -0.5458 -0.6174
 7714TIP3   OH223084   5.293   6.021   2.961  0.3339 -0.5430 -0.0846
 7714TIP3    H123085   5.377   6.034   2.916  0.7731  0.6946  1.0742
 7714TIP3    H223086   5.316   5.974   3.041 -0.0214  0.2658  0.4904
 7715TIP3   OH223087   7.234   5.292   4.211  0.1730 -0.3009 -0.4020
 7715TIP3    H123088   7.178   5.359   4.250 -2.2516 -0.8877 -2.7408
 7715TIP3    H223089   7.238   5.223   4.277  0.3593  0.9056  0.8658
 7716TIP3   OH223090   0.083   6.614   4.052 -0.6703 -0.6294  0.3874
 7716TIP3    H123091   0.146   6.642   4.118  0.2796 -1.2950 -0.2347
 7716TIP3    H223092   0.042   6.536   4.089 -0.3932 -0.7965  0.3381
 7717TIP3   OH223093   7.128   4.806   3.485 -0.2346  0.3831 -0.5662
 7717TIP3    H123094   7.043   4.839   3.454 -0.7081 -0.4199 -0.1242
 7717TIP3    H223095   7.147   4.858   3.564 -1.2577 -0.7921  0.4625
 7718TIP3   OH223096   5.138   4.886   4.697 -1.1555 -0.1117 -0.2054
 7718TIP3    H123097   5.047   4.914   4.699 -1.7964 -1.9502 -1.9592
 7718TIP3    H223098   5.139   4.811   4.637  1.2573 -0.9915  0.8557
 7719TIP3   OH223099   6.962   6.181   3.046 -0.4241  0.7364  0.0936
 7719TIP3    H123100   7.019   6.232   2.989  0.1993 -1.6341 -1.4633
 7719TIP3    H223101   6.882   6.166   2.995  0.0067 -1.1158 -0.0810
 7720TIP3   OH223102   5.046   5.278   3.732  0.3504  0.7219 -0.0461
 7720TIP3    H123103   5.067   5.239   3.817 -0.4976 -0.0110 -0.1678
 7720TIP3    H223104   5.130   5.285   3.687  0.7009  0.4240  0.5650
 7721TIP3   OH223105   4.536   4.818   4.496  1.0327 -0.0506  0.0805
 7721TIP3    H123106   4.489   4.736   4.482  1.5833 -0.1679 -1.1732
 7721TIP3    H223107   4.506   4.849   4.581 -1.3666 -0.0698 -0.7212
 7722TIP3   OH223108   5.927   7.098   3.155  0.6388  0.5356  0.0207
 7722TIP3    H123109   5.858   7.108   3.220  1.9812  1.2658  1.3690
 7722TIP3    H223110   5.942   7.187   3.123  0.2652  0.2373 -1.0224
 7723TIP3   OH223111   1.385   0.667   3.589 -0.1595  0.4098 -0.4413
 7723TIP3    H123112   1.324   0.593   3.581  1.1371 -0.6695 -0.6044
 7723TIP3    H223113   1.357   0.713   3.668 -0.1999 -0.9929  0.3733
 7724TIP3   OH223114   7.374   3.128   3.759  0.1063 -0.2653  0.0303
 7724TIP3    H123115   7.315   3.072   3.810  0.3422  0.8244  1.5434
 7724TIP3    H223116   7.334   3.214   3.763  1.8897  0.5441  1.2838
 7725TIP3   OH223117   3.067   4.469   3.510  0.0713 -0.4561  0.4932
 7725TIP3    H123118   3.130   4.537   3.535 -0.0970 -0.4322  0.8638
 7725TIP3    H223119   3.033   4.436   3.594 -1.7752  0.8116  0.2934
 7726TIP3   OH223120   8.052   3.754   1.773  0.1718 -0.6200  0.4105
 7726TIP3    H123121   8.125   3.723   1.720 -0.6241 -1.7795 -0.0464
 7726TIP3    H223122   7.983   3.774   1.709 -0.8940 -2.2932  1.0054
 7727TIP3   OH223123   5.248   5.522   4.746  0.0851  0.2258 -0.0735
 7727TIP3    H123124   5.295   5.464   4.806  0.5740  0.9437  0.2476
 7727TIP3    H223125   5.166   5.476   4.726 -0.1868  0.0999  1.3348
 7728TIP3   OH223126   2.314   4.397   3.950  0.0757 -0.5879 -0.3589
 7728TIP3    H123127   2.382   4.374   4.014  0.3319 -0.5599 -0.6209
 7728TIP3    H223128   2.260   4.462   3.996 -0.4492 -1.4410  0.2572
 7729TIP3   OH223129   7.205   3.782   1.713 -0.0678  0.2347  0.3736
 7729TIP3    H123130   7.167   3.701   1.677 -0.1340  0.5365 -0.2436
 7729TIP3    H223131   7.233   3.831   1.636  1.0371  0.2795  0.8019
 7730TIP3   OH223132   6.092   7.072   4.686  0.4000  0.1958 -0.2081
 7730TIP3    H123133   6.156   7.064   4.615 -0.2650 -1.7035 -0.6182
 7730TIP3    H223134   6.010   7.039   4.649  0.0433 -0.8123  1.4203
 7731TIP3   OH223135   7.106   6.371   2.913 -0.1781 -0.6398 -0.2636
 7731TIP3    H123136   7.193   6.369   2.874 -0.2180 -0.3309 -0.3664
 7731TIP3    H223137   7.116   6.424   2.992 -0.9868  2.2334 -2.0073
 7732TIP3   OH223138   5.148   2.671   4.525 -0.3129  0.4724  0.1892
 7732TIP3    H123139   5.144   2.592   4.471 -0.5781 -0.3062  1.3385
 7732TIP3    H223140   5.241   2.690   4.533 -0.2889  0.7901 -0.8277
 7733TIP3   OH223141   8.423   4.653   3.967 -0.3573 -0.1787 -0.3160
 7733TIP3    H123142   8.419   4.567   4.009 -0.2502  0.6292  1.4152
 7733TIP3    H223143   8.349   4.701   4.005  0.0701  0.7534 -0.6536
 7734TIP3   OH223144   6.452   4.459   2.691  0.1189  0.0158  0.1930
 7734TIP3    H123145   6.508   4.537   2.694  0.0494  0.1022 -0.7507
 7734TIP3    H223146   6.457   4.423   2.780 -0.6553  1.6540  0.9090
 7735TIP3   OH223147   4.976   4.173   5.827  0.1468  0.3369  0.6988
 7735TIP3    H123148   4.943   4.259   5.801 -0.1379 -0.6907 -2.5596
 7735TIP3    H223149   4.990   4.127   5.744  4.4093 -1.2607  2.1856
 7736TIP3   OH223150   5.095   5.088   6.005  0.0418 -0.0364  0.3209
 7736TIP3    H123151   5.017   5.123   5.962 -0.6104  0.0392  1.5356
 7736TIP3    H223152   5.120   5.155   6.068  0.4806 -0.5003  0.6515
 7737TIP3   OH223153   1.550   7.599   0.854 -0.4729 -0.4606 -0.2938
 7737TIP3    H123154   1.477   7.541   0.872 -0.8814  0.2290  0.3133
 7737TIP3    H223155   1.511   7.687   0.853  0.0283 -0.2492 -1.7758
 7738TIP3   OH223156   5.947   1.037   2.636  0.3300  0.1455 -0.2099
 7738TIP3    H123157   6.036   1.008   2.615  1.0013  1.7476  0.3381
 7738TIP3    H223158   5.947   1.131   2.617 -1.2185  0.1874 -0.1049
 7739TIP3   OH223159   7.072   4.276   3.336  0.3860 -0.2698  0.5478
 7739TIP3    H123160   7.081   4.224   3.416  0.0921 -2.1954 -0.6364
 7739TIP3    H223161   6.979   4.295   3.329  0.2436 -1.1699  0.0050
 7740TIP3   OH223162   5.160   3.544   3.842 -0.3390  0.3002 -0.3828
 7740TIP3    H123163   5.221   3.604   3.886 -0.0598 -0.7900  0.7466
 7740TIP3    H223164   5.086   3.536   3.902 -0.2514 -0.7018 -0.4023
 7741TIP3   OH223165   7.225   5.618   5.175 -0.2642 -0.0679 -0.1307
 7741TIP3    H123166   7.177   5.700   5.186 -2.0227 -1.0369 -0.4426
 7741TIP3    H223167   7.232   5.607   5.081 -2.9246 -1.9112 -0.1445
 7742TIP3   OH223168   6.380   5.127   4.367 -0.0486  0.0484  0.3878
 7742TIP3    H123169   6.359   5.143   4.275  1.9714  3.4003  0.4340
 7742TIP3    H223170   6.321   5.184   4.416  0.5114  0.0671  1.0593
 7743TIP3   OH223171   6.180   3.304   2.757 -0.3089  0.0123 -0.4213
 7743TIP3    H123172   6.145   3.230   2.708  0.8419 -0.2928 -0.7831
 7743TIP3    H223173   6.262   3.326   2.714 -0.9617  1.9529 -0.7427
 7744TIP3   OH223174   5.869   4.388   4.305 -0.5115  0.3927  0.2484
 7744TIP3    H123175   5.945   4.391   4.247 -1.6128  1.1620 -1.2000
 7744TIP3    H223176   5.815   4.317   4.271  0.2203 -1.1311  2.1680
 7745TIP3   OH223177   4.603   4.050   3.622 -0.6781  0.3547  0.6367
 7745TIP3    H123178   4.619   4.066   3.529  0.9496 -1.4361  0.5836
 7745TIP3    H223179   4.634   4.130   3.665  0.1960  0.4968 -0.2281
 7746TIP3   OH223180   6.120   5.920   5.015 -0.1295  0.0897  0.1889
 7746TIP3    H123181   6.050   5.896   5.076 -0.9967  2.4148  0.1598
 7746TIP3    H223182   6.201   5.895   5.060 -0.8107  0.7660  1.8154
 7747TIP3   OH223183   5.748   4.332   6.764 -0.2258  0.3750  0.1848
 7747TIP3    H123184   5.818   4.396   6.779  0.1760  0.7359 -2.9676
 7747TIP3    H223185   5.790   4.260   6.718 -1.4614 -0.4750  0.3585
 7748TIP3   OH223186   7.537   5.379   3.368 -0.2087  0.2111 -0.0872
 7748TIP3    H123187   7.620   5.378   3.415 -0.4764  0.0619  0.3939
 7748TIP3    H223188   7.523   5.289   3.342  0.0105  0.3190 -0.5807
 7749TIP3   OH223189   2.612   2.883   3.798  0.0901  0.1339 -0.0856
 7749TIP3    H123190   2.657   2.907   3.717  1.1649  1.6820  0.9328
 7749TIP3    H223191   2.520   2.879   3.773  0.4355  0.3328 -1.4478
 7750TIP3   OH223192   5.353   2.555   6.147  0.3801 -0.0313  0.1353
 7750TIP3    H123193   5.370   2.646   6.123  0.7858  0.2062  1.2532
 7750TIP3    H223194   5.419   2.536   6.213  0.2691 -1.1311 -0.0753
 7751TIP3   OH223195   5.020   5.081   3.468  0.3214  0.3441 -0.5129
 7751TIP3    H123196   4.980   5.151   3.521  2.8764  0.6909  1.0669
 7751TIP3    H223197   5.087   5.126   3.417  1.1334 -0.7553 -0.4197
 7752TIP3   OH223198   0.188   4.860   3.308  0.4103  0.2148 -0.0549
 7752TIP3    H123199   0.267   4.832   3.355  0.5403  1.1565  0.2929
 7752TIP3    H223200   0.153   4.779   3.270  0.7194 -0.4363  1.0282
 7753TIP3   OH223201   6.663   3.378   5.759 -0.0724 -0.3636 -0.0252
 7753TIP3    H123202   6.576   3.398   5.795  0.2960 -0.0483  0.6859
 7753TIP3    H223203   6.716   3.354   5.835  0.7248  0.3485 -0.3515
 7754TIP3   OH223204   5.571   2.514   5.173 -0.5348  0.1829 -0.0734
 7754TIP3    H123205   5.608   2.486   5.089  0.4485  0.3219  0.3135
 7754TIP3    H223206   5.607   2.453   5.237  0.4949  1.4527  0.5737
 7755TIP3   OH223207   7.852   4.657   3.568  0.8063 -0.5422 -0.1136
 7755TIP3    H123208   7.876   4.740   3.608  2.7800 -1.0797 -0.0943
 7755TIP3    H223209   7.820   4.603   3.640 -0.3523  0.1442 -0.1065
 7756TIP3   OH223210   6.558   5.825   2.265 -0.4505 -0.4987 -0.5287
 7756TIP3    H123211   6.468   5.845   2.241 -1.3296 -1.4979  1.8473
 7756TIP3    H223212   6.611   5.879   2.206 -2.6142  0.9581 -1.1758
 7757TIP3   OH223213   7.939   3.866   2.707 -0.0293 -0.3199  0.3297
 7757TIP3    H123214   7.973   3.812   2.635 -0.7831 -1.2053  0.6232
 7757TIP3    H223215   8.012   3.871   2.769  0.1763 -0.6898  0.1253
 7758TIP3   OH223216   4.601   3.605   2.590  0.0145 -0.9787  0.2965
 7758TIP3    H123217   4.617   3.655   2.509  2.0794  0.2631  1.4210
 7758TIP3    H223218   4.544   3.662   2.642  0.3696 -0.8568  0.5574
 7759TIP3   OH223219   5.457   3.364   4.262 -0.1077 -0.2920 -0.3664
 7759TIP3    H123220   5.365   3.379   4.240 -0.2750 -2.5167 -1.3293
 7759TIP3    H223221   5.505   3.386   4.182  0.0634 -0.5863 -0.3451
 7760TIP3   OH223222   7.425   5.068   3.944  0.1172  0.1947 -0.7363
 7760TIP3    H123223   7.443   4.999   3.881  1.9386  0.0288 -0.0573
 7760TIP3    H223224   7.347   5.037   3.991  1.0254 -1.5120 -0.2986
 7761TIP3   OH223225   7.364   4.056   3.039  0.3002 -0.0868 -0.6113
 7761TIP3    H123226   7.313   4.069   3.119  1.2805 -0.6794  0.1189
 7761TIP3    H223227   7.302   4.020   2.976  0.1337 -2.1490  0.7012
 7762TIP3   OH223228   6.947   6.183   3.335  0.2148  0.3956  0.0471
 7762TIP3    H123229   6.977   6.211   3.249 -0.1329 -3.2744 -1.3333
 7762TIP3    H223230   6.870   6.129   3.318 -0.3669  0.2842  2.7466
 7763TIP3   OH223231   4.281   5.261   5.514 -0.4923 -0.5137  0.0596
 7763TIP3    H123232   4.278   5.206   5.435 -0.7849 -1.0331  0.4233
 7763TIP3    H223233   4.299   5.349   5.481 -1.2800 -0.6055 -0.6475
 7764TIP3   OH223234   3.679   6.299   3.575 -0.4674  0.5939 -0.1157
 7764TIP3    H123235   3.736   6.263   3.507 -0.4806  0.9617 -0.3209
 7764TIP3    H223236   3.725   6.378   3.605 -1.5330  1.6740 -1.2474
 7765TIP3   OH223237   5.544   4.828   2.629 -0.5669  0.1137  0.0372
 7765TIP3    H123238   5.636   4.845   2.649 -0.3105 -0.8903 -0.3071
 7765TIP3    H223239   5.535   4.733   2.631 -1.6336  0.2052  0.2312
 7766TIP3   OH223240   5.282   3.948   4.412 -0.3634 -0.3489  0.5364
 7766TIP3    H123241   5.224   3.995   4.352  0.5238  1.3482  0.9784
 7766TIP3    H223242   5.223   3.907   4.475 -1.1925 -0.4335 -0.2838
 7767TIP3   OH223243   6.631   6.425   5.451  0.0286  0.1015  0.0627
 7767TIP3    H123244   6.676   6.429   5.367 -2.5963 -1.7412 -1.4873
 7767TIP3    H223245   6.568   6.496   5.448  0.1239  0.2111  0.5999
 7768TIP3   OH223246   5.500   6.835   4.700 -0.3238 -0.2018  0.3716
 7768TIP3    H123247   5.419   6.878   4.729 -0.5569  0.4111 -1.1724
 7768TIP3    H223248   5.538   6.895   4.637  0.2145 -1.5032 -0.5587
 7769TIP3   OH223249   6.388   4.061   2.511  0.0818 -0.2148 -0.3655
 7769TIP3    H123250   6.403   4.027   2.423  1.9557 -0.0941 -0.0998
 7769TIP3    H223251   6.432   4.146   2.512  2.0571 -1.2373  1.4103
 7770TIP3   OH223252   6.373   5.085   1.423 -0.8800 -0.2127  0.1400
 7770TIP3    H123253   6.419   5.005   1.448  0.3390  0.5985  0.5800
 7770TIP3    H223254   6.311   5.058   1.355  0.6110 -1.2668 -0.8224
 7771TIP3   OH223255   4.751   5.338   3.767  0.5709 -0.2460 -0.0945
 7771TIP3    H123256   4.748   5.329   3.672  0.2849 -0.4184 -0.0695
 7771TIP3    H223257   4.838   5.306   3.791 -0.3924 -2.9386 -0.0105
 7772TIP3   OH223258   7.522   5.835   3.886  0.4013  0.5843 -0.2607
 7772TIP3    H123259   7.605   5.787   3.888  0.0063 -0.1482 -0.9722
 7772TIP3    H223260   7.518   5.870   3.797 -1.3120 -1.6478 -1.0953
 7773TIP3   OH223261   6.908   4.968   3.866  0.6453  0.2117 -0.1929
 7773TIP3    H123262   6.863   5.026   3.804  1.8660  1.9450  0.5082
 7773TIP3    H223263   6.867   4.985   3.950 -1.0493 -2.1844 -0.4710
 7774TIP3   OH223264   7.319   7.789   3.723  0.5567  0.1953  0.3128
 7774TIP3    H123265   7.311   7.866   3.666 -0.2691  0.3517  0.6287
 7774TIP3    H223266   7.315   7.715   3.662 -0.6059  0.3540  0.1672
 7775TIP3   OH223267   6.316   2.352   3.453 -0.4677 -0.1548 -0.1292
 7775TIP3    H123268   6.222   2.365   3.466 -0.3462 -1.4190  2.3904
 7775TIP3    H223269   6.357   2.426   3.498 -0.2386 -0.0970 -0.4327
 7776TIP3   OH223270   6.898   4.965   4.157 -0.3919 -0.1657  0.2012
 7776TIP3    H123271   6.846   5.020   4.215 -1.5092 -0.0469 -0.8796
 7776TIP3    H223272   6.859   4.878   4.166 -0.5838 -0.1427 -0.3708
 7777TIP3   OH223273   7.023   4.107   2.688 -0.0155  0.2220  0.3892
 7777TIP3    H123274   7.098   4.059   2.723  0.4507  0.9752  0.4319
 7777TIP3    H223275   7.041   4.115   2.594 -0.2666  0.0013  0.3219
 7778TIP3   OH223276   4.407   5.028   3.400  0.1680 -0.0600 -0.0992
 7778TIP3    H123277   4.360   5.091   3.455  0.8608 -1.0835  1.7104
 7778TIP3    H223278   4.499   5.042   3.423  0.2881 -2.0957  0.7427
 7779TIP3   OH223279   1.458   4.812   6.835  0.3888 -0.7011  0.2472
 7779TIP3    H123280   1.432   4.740   6.778 -1.2226  0.5280 -0.6311
 7779TIP3    H223281   1.376   4.841   6.875  1.1658  0.0010  1.3606
 7780TIP3   OH223282   6.626   5.974   3.998  0.1205  0.0424  0.6133
 7780TIP3    H123283   6.669   5.892   3.977 -0.5901 -0.3197  0.5649
 7780TIP3    H223284   6.662   6.037   3.936 -2.1489 -1.0628 -1.8823
 7781TIP3   OH223285   5.553   6.210   1.036 -0.6674  0.2315 -0.0615
 7781TIP3    H123286   5.497   6.191   0.960 -1.6302  1.1274  0.4105
 7781TIP3    H223287   5.504   6.175   1.111  0.4396 -0.9515  0.1040
 7782TIP3   OH223288   5.090   3.286   3.744 -0.1847  0.8591 -0.4750
 7782TIP3    H123289   5.118   3.377   3.737 -0.3591  1.0598  1.3557
 7782TIP3    H223290   5.115   3.260   3.832  1.6229 -1.4700 -1.6300
 7783TIP3   OH223291   3.975   3.602   3.831 -0.4095 -0.0290 -0.3411
 7783TIP3    H123292   4.062   3.636   3.808 -0.5341  1.1425  0.7838
 7783TIP3    H223293   3.914   3.664   3.791 -0.6656  0.3845  0.6549
 7784TIP3   OH223294   3.902   3.753   3.623 -0.3029  0.0861 -0.7038
 7784TIP3    H123295   3.941   3.837   3.600  0.3388  0.2390  0.8895
 7784TIP3    H223296   3.908   3.702   3.542 -1.3148  1.7710 -1.8754
 7785TIP3   OH223297   6.419   3.810   3.721  0.3457  0.1078 -0.1870
 7785TIP3    H123298   6.513   3.803   3.705  0.4962  1.6300 -0.0074
 7785TIP3    H223299   6.379   3.799   3.635  0.7621  0.7425 -0.4704
 7786TIP3   OH223300   7.718   6.313   2.353  0.3535 -0.0076 -0.2375
 7786TIP3    H123301   7.758   6.232   2.383 -1.1897 -0.7334 -0.0909
 7786TIP3    H223302   7.755   6.381   2.410 -1.5886 -1.2036  2.5794
 7787TIP3   OH223303   7.482   4.477   2.230 -0.0894 -0.3598  0.2775
 7787TIP3    H123304   7.574   4.492   2.253 -0.2116  0.8029  0.0058
 7787TIP3    H223305   7.434   4.502   2.309 -0.1784 -0.9900  0.4266
 7788TIP3   OH223306   6.973   3.875   2.447  0.3812 -0.4920 -0.5241
 7788TIP3    H123307   7.015   3.960   2.465 -0.4016  0.0060 -1.0189
 7788TIP3    H223308   6.945   3.881   2.356 -0.4282 -0.9703 -0.3041
 7789TIP3   OH223309   6.957   6.614   3.231  0.7199 -0.1092  0.4790
 7789TIP3    H123310   7.046   6.625   3.199  0.1078  0.5284 -1.0638
 7789TIP3    H223311   6.940   6.691   3.286  1.3960 -0.6579  1.4756
 7790TIP3   OH223312   4.720   4.508   3.700  0.3071  0.3230 -0.4151
 7790TIP3    H123313   4.646   4.474   3.750 -0.8875  0.1609 -2.2559
 7790TIP3    H223314   4.763   4.431   3.663  0.4899  0.5042 -0.5869
 7791TIP3   OH223315   7.088   7.130   2.854 -0.3585 -0.1850 -0.4302
 7791TIP3    H123316   7.112   7.205   2.908 -0.6005  0.3903 -1.1317
 7791TIP3    H223317   7.125   7.148   2.768  1.3806 -1.8232 -0.0801
 7792TIP3   OH223318   5.265   2.611   3.985  0.6943 -0.0402  0.0023
 7792TIP3    H123319   5.185   2.662   3.995 -0.4352 -1.4823 -1.4329
 7792TIP3    H223320   5.336   2.675   3.998 -0.6713  1.4239  0.4065
 7793TIP3   OH223321   6.175   4.587   5.597 -0.5820 -0.4753  0.0052
 7793TIP3    H123322   6.201   4.563   5.686  0.1523 -1.3856 -0.4485
 7793TIP3    H223323   6.114   4.518   5.570 -1.4313  0.2225  0.0757
 7794TIP3   OH223324   6.631   5.198   5.467  0.1099  0.1116 -0.0080
 7794TIP3    H123325   6.716   5.241   5.462  0.0663  0.0682 -1.2529
 7794TIP3    H223326   6.649   5.107   5.443 -0.1619 -0.0631  0.4525
 7795TIP3   OH223327   6.833   5.069   3.621  0.6528  0.1562 -0.6834
 7795TIP3    H123328   6.752   5.020   3.606  0.3281  0.7913 -1.0590
 7795TIP3    H223329   6.878   5.069   3.537  1.4334 -0.8797 -0.2685
 7796TIP3   OH223330   4.330   6.405   1.947 -0.1216 -0.0816  0.1322
 7796TIP3    H123331   4.398   6.341   1.970 -0.1056 -0.6072 -1.3202
 7796TIP3    H223332   4.250   6.354   1.940 -0.2928  0.2201 -0.0932
 7797TIP3   OH223333   7.121   7.055   4.715  0.3565  0.0938 -0.2794
 7797TIP3    H123334   7.099   6.982   4.657  0.5425  2.3360 -3.3015
 7797TIP3    H223335   7.201   7.026   4.760 -0.1047 -1.9252 -0.6903
 7798TIP3   OH223336   6.706   5.102   3.324 -0.1716 -0.2993  0.6928
 7798TIP3    H123337   6.682   5.127   3.235 -0.0896  0.6162  0.9230
 7798TIP3    H223338   6.800   5.119   3.329 -0.4203  0.9700  1.3729
 7799TIP3   OH223339   6.223   6.696   3.298  0.7036 -0.2189  0.5894
 7799TIP3    H123340   6.212   6.602   3.284 -1.7816  0.2658 -1.0271
 7799TIP3    H223341   6.169   6.716   3.374 -3.6935  0.8519 -2.6651
 7800TIP3   OH223342   3.899   4.977   3.076  0.0370 -0.4293  0.0843
 7800TIP3    H123343   3.970   4.976   3.140 -0.2699 -0.5071  0.4267
 7800TIP3    H223344   3.880   4.885   3.059 -0.0548 -0.4090  0.0754
 7801TIP3   OH223345   5.572   5.042   4.358 -0.3959  0.0787 -0.1178
 7801TIP3    H123346   5.488   5.063   4.398  0.0198  0.2898  0.6602
 7801TIP3    H223347   5.632   5.033   4.433  0.3514  0.3150 -0.6842
 7802TIP3   OH223348   6.571   6.564   2.155 -0.3283  0.3954  0.1093
 7802TIP3    H123349   6.537   6.512   2.228 -0.3291  0.4380  0.1393
 7802TIP3    H223350   6.493   6.590   2.106 -0.3695  0.8165  0.3948
 7803TIP3   OH223351   5.879   4.882   4.391 -0.2787 -0.0556  0.2780
 7803TIP3    H123352   5.889   4.972   4.359  1.1348 -0.2304  0.1735
 7803TIP3    H223353   5.961   4.839   4.364 -1.2580 -1.5680 -0.3229
 7804TIP3   OH223354   5.817   3.458   5.434 -0.1010 -0.1350 -0.1853
 7804TIP3    H123355   5.864   3.439   5.353 -0.9214  0.9336 -0.9349
 7804TIP3    H223356   5.851   3.543   5.462 -1.2704  0.4652 -0.5293
 7805TIP3   OH223357   7.716   6.543   1.673  0.1267 -0.1146 -0.2851
 7805TIP3    H123358   7.743   6.452   1.673  2.5164  0.5436 -1.4108
 7805TIP3    H223359   7.703   6.565   1.765 -1.5342 -1.8638 -0.0796
 7806TIP3   OH223360   6.367   4.597   5.236  0.0532 -0.3243  0.1571
 7806TIP3    H123361   6.379   4.548   5.318  1.3555  1.3718  1.0260
 7806TIP3    H223362   6.445   4.576   5.184 -0.3231 -0.6774 -0.2663
 7807TIP3   OH223363   6.009   3.883   3.351  0.1012  0.3725 -0.0724
 7807TIP3    H123364   5.965   3.912   3.271  2.2278 -0.3222 -1.5519
 7807TIP3    H223365   5.974   3.795   3.367  1.0243 -0.2419 -1.3274
 7808TIP3   OH223366   5.444   6.166   4.736  0.4648  0.2271  0.3514
 7808TIP3    H123367   5.425   6.089   4.789 -0.5060  1.4925  1.8971
 7808TIP3    H223368   5.517   6.209   4.780 -1.6942  2.4033  1.9071
 7809TIP3   OH223369   6.603   4.092   2.140 -0.0729  0.4042 -0.0335
 7809TIP3    H123370   6.631   4.183   2.151  1.7398 -0.1051 -0.2310
 7809TIP3    H223371   6.642   4.046   2.214  0.6196 -0.5478 -0.9859
 7810TIP3   OH223372   7.198   3.628   5.507  0.2203  0.0201 -0.4104
 7810TIP3    H123373   7.282   3.582   5.509  2.0543  3.1639  1.3565
 7810TIP3    H223374   7.154   3.601   5.588  0.2867 -0.3364 -0.4939
 7811TIP3   OH223375   5.510   3.765   4.341 -0.4692  0.5888 -0.4180
 7811TIP3    H123376   5.506   3.687   4.398  0.1980  1.2281  0.5040
 7811TIP3    H223377   5.464   3.833   4.390 -0.0629  1.0956 -0.7351
 7812TIP3   OH223378   8.283   3.467   3.509  0.7530 -0.3698 -0.9191
 7812TIP3    H123379   8.250   3.450   3.420 -0.1365 -0.3289 -0.6051
 7812TIP3    H223380   8.335   3.547   3.500 -0.8680  0.6959 -1.0572
 7813TIP3   OH223381   8.155   2.102   6.635 -0.1276 -0.4631  0.5472
 7813TIP3    H123382   8.206   2.150   6.569 -0.2047 -0.4250  0.5150
 7813TIP3    H223383   8.214   2.094   6.710 -0.3490  0.3038  0.8147
 7814TIP3   OH223384   6.487   4.398   5.373  0.7597 -0.3430 -0.8423
 7814TIP3    H123385   6.575   4.372   5.346  1.0685 -0.4354  0.2269
 7814TIP3    H223386   6.490   4.398   5.468 -0.5430 -0.8559 -0.7798
 7815TIP3   OH223387   7.039   3.666   5.737  0.4416 -0.0511 -0.2664
 7815TIP3    H123388   7.106   3.713   5.788 -0.2651  1.6170 -0.8349
 7815TIP3    H223389   6.960   3.718   5.748 -0.6592 -1.7300 -0.0281
 7816TIP3   OH223390   7.091   4.288   4.319 -0.2510  0.1025  0.3385
 7816TIP3    H123391   7.102   4.368   4.370 -0.2662  0.7295 -0.6343
 7816TIP3    H223392   7.141   4.303   4.239  1.0688 -1.4847  0.8192
 7817TIP3   OH223393   6.707   5.091   4.831  0.0084  0.1398  0.4168
 7817TIP3    H123394   6.628   5.144   4.832 -0.4352 -0.5237  1.1479
 7817TIP3    H223395   6.779   5.152   4.847 -0.6518  0.2600  2.9990
 7818TIP3   OH223396   7.722   4.107   5.401  0.1513  0.2388 -0.2187
 7818TIP3    H123397   7.771   4.040   5.448  1.6130  2.2130  1.1477
 7818TIP3    H223398   7.646   4.124   5.456  1.1991  1.6396  0.8052
 7819TIP3   OH223399   5.899   2.700   5.212 -0.0561  0.7826 -0.2662
 7819TIP3    H123400   5.834   2.732   5.274  0.0657  2.5663 -1.0217
 7819TIP3    H223401   5.887   2.605   5.211 -2.7764  1.0946 -0.5402
 7820TIP3   OH223402   5.881   3.980   5.144  0.6722  0.1652 -0.2453
 7820TIP3    H123403   5.965   3.990   5.099  1.4833  0.6034  1.3086
 7820TIP3    H223404   5.815   3.990   5.076  1.8759  0.3325 -1.4003
 7821TIP3   OH223405   6.410   4.076   3.457 -0.3359 -0.6236 -0.8225
 7821TIP3    H123406   6.323   4.041   3.479 -0.4660 -0.1009 -0.4918
 7821TIP3    H223407   6.450   4.095   3.541 -0.4365  0.4290 -0.9973
 7822TIP3   OH223408   7.085   3.826   5.349  0.0540 -0.8843 -0.0813
 7822TIP3    H123409   7.136   3.777   5.283 -0.4055 -1.3868 -0.0722
 7822TIP3    H223410   7.126   3.804   5.432 -0.3215 -1.4920 -0.0480
 7823TIP3   OH223411   4.162   5.258   0.937 -0.6731  0.1860 -0.4651
 7823TIP3    H123412   4.209   5.306   1.005 -1.1187  0.6962 -0.5157
 7823TIP3    H223413   4.104   5.323   0.898 -0.4917 -0.1282 -1.2642
 7824TIP3   OH223414   2.785   5.775   2.511  0.4170  0.6910 -0.4101
 7824TIP3    H123415   2.709   5.759   2.568 -0.5076  1.5756 -1.3685
 7824TIP3    H223416   2.855   5.724   2.550 -0.5005  0.3915  0.8884
 7825TIP3   OH223417   3.278   4.598   3.625  0.0988  0.5316  0.2211
 7825TIP3    H123418   3.351   4.540   3.647  0.5624  0.7564 -0.7000
 7825TIP3    H223419   3.319   4.671   3.579 -0.7559  0.4387 -0.7031
 7826TIP3   OH223420   7.559   5.960   3.659 -0.2426 -0.2818  0.1887
 7826TIP3    H123421   7.500   6.014   3.605  0.5554 -0.9811 -1.4311
 7826TIP3    H223422   7.595   6.021   3.723 -0.0369  0.9210 -1.0489
 7827TIP3   OH223423   5.603   6.551   3.988  0.0322  0.2343 -0.0407
 7827TIP3    H123424   5.611   6.530   4.081  1.2428 -0.3871 -0.2799
 7827TIP3    H223425   5.540   6.488   3.954  1.3167 -1.0255 -0.1090
 7828TIP3   OH223426   7.690   6.657   3.198 -0.4750  0.5283  0.2711
 7828TIP3    H123427   7.733   6.573   3.213 -0.3566  0.7386  1.1161
 7828TIP3    H223428   7.755   6.723   3.220  0.6730  0.9017 -3.8728
 7829TIP3   OH223429   7.470   6.424   2.176 -0.4801  0.0155  0.2055
 7829TIP3    H123430   7.520   6.392   2.252  0.6094  1.5001  0.1415
 7829TIP3    H223431   7.507   6.510   2.159 -2.4361  0.7272 -0.4753
 7830TIP3   OH223432   5.157   3.614   1.029 -0.0561 -0.1283 -0.6896
 7830TIP3    H123433   5.230   3.560   0.997 -0.8433 -0.2705 -2.3281
 7830TIP3    H223434   5.113   3.560   1.094 -0.2992 -1.1358 -1.6677
 7831TIP3   OH223435   7.079   5.203   4.490 -0.0666  0.3774  0.4073
 7831TIP3    H123436   7.093   5.109   4.478 -0.5889  0.3074  0.3245
 7831TIP3    H223437   6.987   5.216   4.468 -0.3051  0.7237  1.5678
 7832TIP3   OH223438   7.442   6.386   3.794  0.2360 -0.0729 -0.3636
 7832TIP3    H123439   7.368   6.381   3.854 -0.3633 -0.7956 -1.1439
 7832TIP3    H223440   7.411   6.441   3.722  0.7425  0.3099 -0.2875
 7833TIP3   OH223441   7.920   5.310   2.596 -0.1832  0.3375  0.8133
 7833TIP3    H123442   7.871   5.306   2.514  0.3306 -0.0566  0.5303
 7833TIP3    H223443   7.910   5.401   2.625  0.3408  0.6859 -0.1064
 7834TIP3   OH223444   6.057   4.707   3.011 -0.1599  0.0072 -0.5109
 7834TIP3    H123445   6.121   4.698   2.941 -0.7966  0.0758 -1.0959
 7834TIP3    H223446   6.109   4.703   3.091  0.5648 -0.0449 -0.9849
 7835TIP3   OH223447   5.020   4.990   3.183  0.5064 -0.0879  0.2930
 7835TIP3    H123448   4.937   4.945   3.167 -0.4059  1.6639 -0.0084
 7835TIP3    H223449   5.050   4.956   3.268 -1.1715  0.2578  1.0374
 7836TIP3   OH223450   6.436   6.428   2.345  0.0892 -0.4317  0.1314
 7836TIP3    H123451   6.424   6.333   2.341  0.5654 -0.4915  0.1149
 7836TIP3    H223452   6.391   6.454   2.426 -0.8839 -0.5404 -0.3718
 7837TIP3   OH223453   6.909   6.839   3.363 -0.2323  0.2867  0.4855
 7837TIP3    H123454   6.870   6.835   3.451  1.4434 -0.5456  1.2015
 7837TIP3    H223455   6.965   6.917   3.365 -3.0046  2.4380 -1.0679
 7838TIP3   OH223456   6.821   3.512   5.226 -0.1088 -0.6449 -0.5554
 7838TIP3    H123457   6.763   3.491   5.299 -0.2264  0.4940 -0.3195
 7838TIP3    H223458   6.766   3.563   5.166  0.2457 -0.7972 -1.0082
 7839TIP3   OH223459   5.205   3.580   2.840 -0.7879  0.0411 -0.0198
 7839TIP3    H123460   5.259   3.501   2.840 -0.3437  0.3394 -0.6814
 7839TIP3    H223461   5.210   3.612   2.931  0.6425  0.3843 -0.1976
 7840TIP3   OH223462   5.551   4.372   3.533 -0.1493 -0.3166  0.1423
 7840TIP3    H123463   5.598   4.392   3.614  1.0121  2.4939 -1.1731
 7840TIP3    H223464   5.459   4.392   3.553  0.0735 -0.0335  0.8921
 7841TIP3   OH223465   7.089   5.562   4.756 -0.0336 -0.2815  0.6987
 7841TIP3    H123466   7.094   5.528   4.666 -0.3155 -0.0880  0.6098
 7841TIP3    H223467   7.153   5.510   4.804  0.4240 -0.0961  0.2926
 7842TIP3   OH223468   6.517   4.359   2.947 -0.3774  0.6601 -0.3918
 7842TIP3    H123469   6.589   4.412   2.980  0.1888 -1.0817  1.3219
 7842TIP3    H223470   6.560   4.286   2.903 -1.0506 -0.5981  0.9823
 7843TIP3   OH223471   5.823   4.394   6.118 -0.1005 -0.3928  0.0330
 7843TIP3    H123472   5.901   4.390   6.063  0.2428  1.1797  0.3758
 7843TIP3    H223473   5.760   4.337   6.075  0.7616 -0.5611 -1.0216
 7844TIP3   OH223474   7.489   2.721   5.512  0.5778 -0.9011  0.1147
 7844TIP3    H123475   7.450   2.808   5.501  2.0847 -0.1358  0.6051
 7844TIP3    H223476   7.425   2.673   5.565 -1.6230 -1.0796 -2.6095
 7845TIP3   OH223477   7.061   4.478   1.192 -0.3926 -0.1549 -0.2026
 7845TIP3    H123478   7.136   4.533   1.167  0.5111 -1.8631 -1.3581
 7845TIP3    H223479   7.044   4.425   1.114 -0.8956 -1.8893  1.0491
 7846TIP3   OH223480   7.066   2.379   6.122  0.2472 -0.6612  0.7184
 7846TIP3    H123481   7.001   2.310   6.137  0.1729 -0.7257  0.1456
 7846TIP3    H223482   7.018   2.447   6.075  0.5412 -0.6262  0.4638
 7847TIP3   OH223483   3.998   3.129   2.953  0.2357  0.2295  0.6922
 7847TIP3    H123484   4.025   3.218   2.977  2.4335 -0.1682 -0.1119
 7847TIP3    H223485   3.926   3.141   2.892  2.2572  1.5845 -1.5215
 7848TIP3   OH223486   4.310   1.005   2.706 -0.8288 -0.3171  0.0122
 7848TIP3    H123487   4.254   1.067   2.659 -0.9934  1.2259  2.1885
 7848TIP3    H223488   4.391   1.053   2.722 -0.8530 -0.7242  1.4711
 7849TIP3   OH223489   8.264   6.999   4.417 -0.3265  0.2148 -0.1496
 7849TIP3    H123490   8.316   7.048   4.480 -2.4979  0.0706  1.8067
 7849TIP3    H223491   8.260   6.911   4.452 -1.0927 -0.0098 -0.7793
 7850TIP3   OH223492   4.649   4.907   6.173  0.6775 -0.1357  0.2466
 7850TIP3    H123493   4.682   4.996   6.188 -1.0426  0.7801 -1.2545
 7850TIP3    H223494   4.683   4.882   6.088  1.4370 -1.0733  0.8125
 7851TIP3   OH223495   4.336   5.975   3.730 -0.2359  0.0358  0.2242
 7851TIP3    H123496   4.306   5.925   3.654 -1.8767  0.4033  0.6235
 7851TIP3    H223497   4.382   6.050   3.692 -0.4466 -0.1426 -0.3974
 7852TIP3   OH223498   5.240   6.348   3.629 -0.1354  0.5173  0.7358
 7852TIP3    H123499   5.145   6.359   3.639 -0.4488 -1.3584  0.0610
 7852TIP3    H223500   5.249   6.266   3.580  1.8677  0.1937  1.6166
 7853TIP3   OH223501   5.815   7.016   4.306 -0.7051  0.3459  1.2733
 7853TIP3    H123502   5.856   6.990   4.223  0.1969 -2.5751  2.5908
 7853TIP3    H223503   5.721   7.011   4.288 -0.5233 -1.4844  0.7835
 7854TIP3   OH223504   6.551   6.456   2.727 -0.0198 -0.1228 -0.4370
 7854TIP3    H123505   6.487   6.386   2.714 -1.1051  0.9057 -0.6903
 7854TIP3    H223506   6.518   6.504   2.803  0.8541 -0.0199 -0.1196
 7855TIP3   OH223507   6.339   3.577   3.910  0.2857  0.0337  0.7613
 7855TIP3    H123508   6.426   3.611   3.892  0.8957 -1.3292  1.0839
 7855TIP3    H223509   6.280   3.647   3.884  1.5233  1.4412  1.6524
 7856TIP3   OH223510   6.872   4.584   2.535  0.0237 -0.5022  0.0425
 7856TIP3    H123511   6.792   4.584   2.589  0.0085  0.4583  0.0382
 7856TIP3    H223512   6.921   4.660   2.567  1.3978 -1.6426  0.7129
 7857TIP3   OH223513   6.648   3.694   1.862  0.4365 -0.1243  0.4801
 7857TIP3    H123514   6.674   3.611   1.821 -2.1057 -0.0320 -1.4486
 7857TIP3    H223515   6.684   3.761   1.804 -1.5284  0.0240 -0.6224
 7858TIP3   OH223516   6.456   5.679   4.305 -0.4744  0.2673  0.2265
 7858TIP3    H123517   6.484   5.761   4.264 -1.4010 -0.3142 -1.6157
 7858TIP3    H223518   6.419   5.706   4.389  1.5425  1.4774  0.7729
 7859TIP3   OH223519   6.077   5.640   4.194 -0.1993 -0.0198  0.1643
 7859TIP3    H123520   6.115   5.700   4.129 -0.5935  0.8562  0.7244
 7859TIP3    H223521   6.089   5.685   4.278  1.7470 -1.8558  0.9224
 7860TIP3   OH223522   7.070   5.439   2.454  0.2819  0.3420 -0.1319
 7860TIP3    H123523   7.018   5.400   2.525  0.4109  1.3760  0.5334
 7860TIP3    H223524   7.160   5.415   2.474  0.4223  1.4539  0.5866
 7861TIP3   OH223525   4.282   5.537   2.657 -0.0333 -0.1868  0.5413
 7861TIP3    H123526   4.222   5.560   2.586  1.0829  0.5919 -0.1556
 7861TIP3    H223527   4.354   5.491   2.615  0.5853  0.1905  1.1659
 7862TIP3   OH223528   6.628   5.849   4.509 -0.2475 -0.5067 -0.2520
 7862TIP3    H123529   6.704   5.803   4.476 -0.0982  0.1545 -0.8531
 7862TIP3    H223530   6.589   5.890   4.431  0.2052  1.2119  0.3889
 7863TIP3   OH223531   5.314   4.877   3.882  0.1288  0.3652 -0.1228
 7863TIP3    H123532   5.314   4.972   3.893  0.8709  0.2295  1.1580
 7863TIP3    H223533   5.349   4.843   3.965 -0.6322 -1.0446 -0.3604
 7864TIP3   OH223534   6.805   4.672   5.425  0.2159  0.0576  0.2643
 7864TIP3    H123535   6.881   4.657   5.480 -0.4373 -0.1519  1.1197
 7864TIP3    H223536   6.787   4.587   5.385 -0.0451 -0.0783  0.6734
 7865TIP3   OH223537   6.175   3.526   2.448  0.4065 -0.2557 -0.2013
 7865TIP3    H123538   6.118   3.577   2.505 -0.0182 -1.2691  0.3022
 7865TIP3    H223539   6.261   3.568   2.455  0.0273  0.4797  0.0623
 7866TIP3   OH223540   7.580   2.804   4.429 -0.0462 -0.3189  0.3210
 7866TIP3    H123541   7.582   2.837   4.339  1.1238 -0.7843  0.1657
 7866TIP3    H223542   7.660   2.838   4.468 -0.8726  0.4103  1.3862
 7867TIP3   OH223543   4.881   5.220   3.031 -0.3889 -0.1450 -0.2300
 7867TIP3    H123544   4.929   5.227   2.948  0.1159 -2.2773 -0.1613
 7867TIP3    H223545   4.912   5.137   3.069 -1.3410  0.3306  1.6268
 7868TIP3   OH223546   3.531   4.818   1.704  0.0373 -0.5544  0.0397
 7868TIP3    H123547   3.444   4.825   1.744 -0.3965  1.4017 -1.1629
 7868TIP3    H223548   3.513   4.802   1.611  0.9536  0.0838 -0.2542
 7869TIP3   OH223549   5.652   2.782   3.374  0.1196 -0.7233 -0.1691
 7869TIP3    H123550   5.683   2.728   3.447 -0.6461 -1.1564 -0.1555
 7869TIP3    H223551   5.722   2.845   3.359  1.1538 -1.9038 -0.3774
 7870TIP3   OH223552   6.518   4.539   3.434  0.3754  0.0811 -0.4621
 7870TIP3    H123553   6.552   4.451   3.453 -1.0292 -0.4680 -0.3981
 7870TIP3    H223554   6.445   4.550   3.495  0.4131  1.2133 -0.6108
 7871TIP3   OH223555   6.312   2.935   2.792  0.0278  0.1565 -0.7784
 7871TIP3    H123556   6.308   2.839   2.786 -0.5384  0.2219 -1.4850
 7871TIP3    H223557   6.233   2.959   2.840 -0.4626  0.3475 -1.6551
 7872TIP3   OH223558   5.638   5.838   3.882 -0.1319  0.1246  0.7051
 7872TIP3    H123559   5.687   5.757   3.892 -0.1510 -0.0374 -0.4703
 7872TIP3    H223560   5.546   5.812   3.888 -0.1088  0.2244  1.4861
 7873TIP3   OH223561   6.571   4.067   3.054 -0.0020  0.7341 -0.4201
 7873TIP3    H123562   6.577   4.007   2.979  0.3890  0.0954  0.1151
 7873TIP3    H223563   6.662   4.082   3.080 -0.2172 -1.0474  1.4890
 7874TIP3   OH223564   6.469   3.375   1.752 -0.2306 -0.3530 -0.5434
 7874TIP3    H123565   6.563   3.358   1.763 -0.4652 -1.0252  0.4082
 7874TIP3    H223566   6.445   3.428   1.828 -0.5285  0.1860 -1.0137
 7875TIP3   OH223567   6.384   5.365   2.056  0.2934  0.4190  0.0945
 7875TIP3    H123568   6.304   5.312   2.056 -0.2133  1.0374  4.2097
 7875TIP3    H223569   6.359   5.446   2.013 -1.6902  1.0553  2.3225
 7876TIP3   OH223570   7.784   5.763   3.904 -0.7501 -0.3083  0.3108
 7876TIP3    H123571   7.777   5.677   3.946 -1.2580 -0.8509 -0.8457
 7876TIP3    H223572   7.820   5.743   3.817 -1.5671  0.5725 -0.2293
 7877TIP3   OH223573   4.541   3.486   5.889  0.2777  0.7935  0.0040
 7877TIP3    H123574   4.625   3.443   5.870  0.4524  0.2333  1.9333
 7877TIP3    H223575   4.560   3.542   5.964 -1.0531  0.7617  0.3697
 7878TIP3   OH223576   5.999   5.021   4.668 -0.1484 -0.2103 -0.0766
 7878TIP3    H123577   5.976   4.946   4.614  0.3834 -0.7622  0.4641
 7878TIP3    H223578   6.049   5.078   4.610 -2.0331  0.5610 -0.9918
 7879TIP3   OH223579   6.384   4.877   2.931 -0.5999  0.7287  0.4209
 7879TIP3    H123580   6.352   4.958   2.971  0.0354  0.2589  1.9079
 7879TIP3    H223581   6.479   4.884   2.935 -0.5182  0.5694 -0.8359
 7880TIP3   OH223582   8.072   3.135   5.218 -0.6573 -0.0133  0.0871
 7880TIP3    H123583   8.163   3.164   5.203 -0.4791 -0.9575 -0.6797
 7880TIP3    H223584   8.070   3.112   5.311  0.1126 -0.7849 -0.0804
 7881TIP3   OH223585   8.290   6.087   2.979  0.5721  0.3495 -0.4931
 7881TIP3    H123586   8.320   6.040   3.056 -0.9655  0.5782  0.2663
 7881TIP3    H223587   8.316   6.177   2.993  2.0456  0.0402 -1.1740
 7882TIP3   OH223588   0.652   3.228   5.416 -0.3719  0.3098  0.3802
 7882TIP3    H123589   0.603   3.154   5.452 -1.2176  0.5335 -0.2784
 7882TIP3    H223590   0.679   3.279   5.492 -0.7577 -0.0836  0.7794
 7883TIP3   OH223591   7.365   4.988   6.008 -0.3752 -0.1584  0.5111
 7883TIP3    H123592   7.349   5.007   5.916 -0.2747  4.2900  1.2984
 7883TIP3    H223593   7.441   4.929   6.008 -1.5150 -1.6947 -2.2575
 7884TIP3   OH223594   6.603   5.559   5.491 -0.5555 -0.1598  0.3300
 7884TIP3    H123595   6.581   5.648   5.465  1.5611  0.6306  1.1019
 7884TIP3    H223596   6.589   5.506   5.412 -2.2478  0.7698 -0.0066
 7885TIP3   OH223597   8.120   4.028   2.351 -0.3842  0.2824 -0.0384
 7885TIP3    H123598   8.178   4.096   2.319  0.6374  0.0942  1.3736
 7885TIP3    H223599   8.073   4.068   2.425 -1.0637 -0.0003 -0.3058
 7886TIP3   OH223600   7.260   4.741   2.128  0.6474  0.3614  0.2053
 7886TIP3    H123601   7.209   4.821   2.113 -0.4594 -0.3816 -0.0615
 7886TIP3    H223602   7.351   4.769   2.122  0.2725  0.9931 -3.2175
 7887TIP3   OH223603   7.211   2.965   3.059  0.4612 -0.4890  0.4249
 7887TIP3    H123604   7.139   3.026   3.041 -0.0536 -0.8631  1.1519
 7887TIP3    H223605   7.290   3.011   3.031  0.2122  1.0207  2.0963
 7888TIP3   OH223606   6.764   4.889   2.491  0.3588 -0.3373  0.7033
 7888TIP3    H123607   6.737   4.868   2.401 -0.3018  0.8127  0.6098
 7888TIP3    H223608   6.784   4.983   2.488  1.5551 -0.5484  1.4754
 7889TIP3   OH223609   8.185   6.037   4.140 -0.0165  0.2388 -0.3144
 7889TIP3    H123610   8.169   6.120   4.095 -1.8877  0.6720  1.1002
 7889TIP3    H223611   8.207   6.061   4.229 -0.8740 -0.7840  0.1867
 7890TIP3   OH223612   6.694   5.123   3.952 -0.2505  0.1174 -0.2643
 7890TIP3    H123613   6.722   5.189   3.888 -0.7401 -0.9674 -1.6204
 7890TIP3    H223614   6.647   5.173   4.019 -0.2914  1.1981 -1.0855
 7891TIP3   OH223615   7.857   2.965   2.319  0.4365 -0.0932  0.1575
 7891TIP3    H123616   7.907   2.885   2.303 -3.2516 -2.3833 -0.6756
 7891TIP3    H223617   7.833   2.960   2.411  0.0080 -0.1015  0.0483
 7892TIP3   OH223618   8.430   3.249   4.196 -0.0443 -0.2667 -0.0782
 7892TIP3    H123619   8.485   3.198   4.136  3.1552  3.2654 -0.3580
 7892TIP3    H223620   8.450   3.213   4.282  0.9754 -0.5343 -0.4141
 7893TIP3   OH223621   5.717   4.192   2.621 -0.1071  0.1000 -0.3411
 7893TIP3    H123622   5.741   4.276   2.658 -2.0284  0.3038  0.5161
 7893TIP3    H223623   5.628   4.205   2.587  0.3790 -0.9960 -2.0808
 7894TIP3   OH223624   7.245   4.249   1.935 -0.5768  0.4185  0.5427
 7894TIP3    H123625   7.288   4.229   2.018  0.0834  2.8313  0.8014
 7894TIP3    H223626   7.153   4.224   1.948 -0.5237  1.0148  2.0686
 7895TIP3   OH223627   8.330   5.326   4.262 -0.1077  0.1803  0.3538
 7895TIP3    H123628   8.339   5.235   4.234  1.0932 -0.7116  3.3890
 7895TIP3    H223629   8.258   5.360   4.209 -0.1850 -2.3627 -1.2701
 7896TIP3   OH223630   0.644   3.373   6.943 -0.4873 -0.4326 -0.1810
 7896TIP3    H123631   0.630   3.313   6.870 -2.2684 -1.0523  0.6641
 7896TIP3    H223632   0.578   3.350   7.007  0.3289  0.8713  1.1692
 7897TIP3   OH223633   7.883   4.712   2.554 -0.0679 -0.5072  0.2342
 7897TIP3    H123634   7.871   4.627   2.597 -0.2118 -0.4927  0.2225
 7897TIP3    H223635   7.794   4.741   2.534 -0.1502  0.5752  2.0288
 7898TIP3   OH223636   7.619   6.776   4.634  0.3402  0.3893  0.1331
 7898TIP3    H123637   7.659   6.697   4.670 -1.4052 -0.1824  0.9020
 7898TIP3    H223638   7.636   6.844   4.699  0.8858  0.3831 -0.0005
 7899TIP3   OH223639   6.962   5.428   4.272  0.1075 -0.0981  0.2094
 7899TIP3    H123640   6.961   5.470   4.186  0.1916 -0.5962 -0.0395
 7899TIP3    H223641   6.893   5.362   4.267  1.2098 -1.2638 -0.0634
 7900TIP3   OH223642   8.334   3.718   3.684 -0.5350 -0.1097  0.3179
 7900TIP3    H123643   8.307   3.792   3.630 -0.3184 -0.0256  0.3228
 7900TIP3    H223644   8.407   3.680   3.637 -0.8277 -0.4903  0.1759
 7901TIP3   OH223645   7.126   5.748   3.040  0.9574  0.1802 -0.3432
 7901TIP3    H123646   7.110   5.665   2.994  1.5353 -0.7092  1.0211
 7901TIP3    H223647   7.039   5.787   3.050  0.8294  0.4200 -2.2185
 7902TIP3   OH223648   0.220   5.088   3.564  0.0135 -0.4906  0.7382
 7902TIP3    H123649   0.141   5.082   3.511 -0.7236  0.4188  1.7186
 7902TIP3    H223650   0.290   5.106   3.501 -0.7280 -0.2145 -0.0133
 7903TIP3   OH223651   6.651   1.020   2.731 -0.3659 -0.1492  0.2611
 7903TIP3    H123652   6.648   0.925   2.744 -2.0772 -0.2925 -1.0743
 7903TIP3    H223653   6.636   1.056   2.818 -0.0681 -1.0983  0.7146
 7904TIP3   OH223654   8.144   5.564   4.668 -0.0535  0.0521 -0.0785
 7904TIP3    H123655   8.089   5.579   4.591 -1.0791 -2.7288  0.0523
 7904TIP3    H223656   8.105   5.488   4.712  3.0599 -1.1607  0.7785
 7905TIP3   OH223657   8.090   4.907   4.500  0.5630 -0.1519 -0.3350
 7905TIP3    H123658   8.012   4.900   4.446  0.3338 -1.0485  0.1093
 7905TIP3    H223659   8.082   4.992   4.543 -0.3796 -0.4245  0.0383
 7906TIP3   OH223660   1.279   4.408   2.388  0.0516 -0.2786  0.4522
 7906TIP3    H123661   1.202   4.444   2.431 -0.1688  0.7157 -0.7327
 7906TIP3    H223662   1.346   4.476   2.400  0.1157 -0.1920 -0.3516
 7907TIP3   OH223663   7.105   3.567   2.771  0.6710  0.0209 -0.5826
 7907TIP3    H123664   7.153   3.649   2.759 -0.1486  0.6156  0.1332
 7907TIP3    H223665   7.068   3.548   2.685  2.7207 -0.7838 -1.2962
 7908TIP3   OH223666   0.740   3.852   2.455  0.3384 -0.5768  0.4623
 7908TIP3    H123667   0.740   3.883   2.364  0.3135  2.8726  1.5640
 7908TIP3    H223668   0.823   3.804   2.464  0.1828 -1.2437 -1.4575
 7909TIP3   OH223669   7.951   0.518   6.916  0.1565 -0.0199 -0.0205
 7909TIP3    H123670   7.903   0.586   6.870  0.7506  0.4570  0.0579
 7909TIP3    H223671   7.990   0.464   6.847 -0.3985 -0.3449 -0.0822
 7910TIP3   OH223672   0.544   5.613   2.698  0.1923  0.1634 -0.4506
 7910TIP3    H123673   0.492   5.686   2.733  0.6036 -0.0856  0.7249
 7910TIP3    H223674   0.625   5.654   2.667 -0.3794  0.4510 -1.5563
 7911TIP3   OH223675   0.251   6.291   3.419  0.0265  0.4067  0.6598
 7911TIP3    H123676   0.278   6.321   3.332 -1.7280 -2.1320 -0.8149
 7911TIP3    H223677   0.333   6.268   3.462  0.8988  1.3274 -0.4626
 7912TIP3   OH223678   7.799   5.154   2.889 -0.2974  0.0495  0.0988
 7912TIP3    H123679   7.811   5.135   2.796  0.9718 -0.1313  0.2934
 7912TIP3    H223680   7.856   5.092   2.934 -1.8616 -0.7290  1.0646
 7913TIP3   OH223681   7.574   7.281   3.236  0.8399  0.1142 -0.1188
 7913TIP3    H123682   7.650   7.338   3.250  2.2294 -1.6084 -0.3483
 7913TIP3    H223683   7.608   7.193   3.252 -1.6247 -0.5507  1.7543
 7914TIP3   OH223684   7.161   5.104   4.753 -0.3849 -0.6213 -0.6157
 7914TIP3    H123685   7.186   5.065   4.669 -0.2820 -0.5051 -0.6406
 7914TIP3    H223686   7.103   5.177   4.729  0.4359  0.0337 -0.6522
 7915TIP3   OH223687   5.490   5.070   4.946 -0.8333 -0.0975  0.1648
 7915TIP3    H123688   5.474   4.976   4.932  0.0423 -0.2428  0.0918
 7915TIP3    H223689   5.552   5.072   5.019 -0.0843  0.3970 -0.4880
 7916TIP3   OH223690   7.881   3.721   0.439 -0.3846  0.5776 -0.2416
 7916TIP3    H123691   7.829   3.740   0.517  0.5728 -1.9084  1.0761
 7916TIP3    H223692   7.970   3.709   0.472 -0.2168 -1.9512 -1.4696
 7917TIP3   OH223693   7.699   2.782   2.914 -0.4705  0.0030 -0.2190
 7917TIP3    H123694   7.791   2.767   2.893 -0.3251 -0.0325  0.4395
 7917TIP3    H223695   7.692   2.877   2.924 -0.9029  0.1801 -2.1114
 7918TIP3   OH223696   8.377   5.040   3.220 -0.2281  0.0715 -0.4486
 7918TIP3    H123697   8.390   4.957   3.174 -2.0263 -1.3105  1.4279
 7918TIP3    H223698   8.306   5.083   3.173  1.1401  0.8763 -1.8193
 7919TIP3   OH223699   8.074   4.871   3.761  0.3390  0.0680  0.6568
 7919TIP3    H123700   7.983   4.902   3.760 -0.0845 -1.1630  0.0017
 7919TIP3    H223701   8.078   4.810   3.835  0.6903  0.2781  0.8129
 7920TIP3   OH223702   0.405   2.959   4.803 -0.2022  0.0567  0.1704
 7920TIP3    H123703   0.359   2.930   4.724  0.0354 -0.2593  0.1467
 7920TIP3    H223704   0.473   2.894   4.817  0.0971  0.3998  0.3349
 7921TIP3   OH223705   1.586   5.515   0.989 -0.1294  0.2295 -0.4795
 7921TIP3    H123706   1.604   5.605   1.018 -1.1914  0.5012 -0.6456
 7921TIP3    H223707   1.665   5.467   1.012 -0.5420  0.6628  1.9775
 7922TIP3   OH223708   6.763   4.177   4.896  0.0285  0.7076  0.0182
 7922TIP3    H123709   6.785   4.152   4.986  2.1428  1.9489 -0.1284
 7922TIP3    H223710   6.800   4.106   4.843  0.1156  0.7489  0.0243
 7923TIP3   OH223711   7.480   5.948   3.325 -0.4358  0.7506 -0.2322
 7923TIP3    H123712   7.444   5.882   3.266  0.5325 -1.0972  1.1786
 7923TIP3    H223713   7.407   6.007   3.342 -1.4832 -0.2588 -1.0993
 7924TIP3   OH223714   8.161   5.944   2.250  0.9801 -0.6342 -0.0346
 7924TIP3    H123715   8.129   5.859   2.220 -0.5379 -0.1087  0.0525
 7924TIP3    H223716   8.164   5.997   2.170  0.0383 -0.1971  0.2114
 7925TIP3   OH223717   7.742   7.754   1.993  0.8585  0.6118  0.1852
 7925TIP3    H123718   7.819   7.785   2.040 -1.2684  0.3081  4.0955
 7925TIP3    H223719   7.685   7.830   1.986 -0.0859 -0.0430  0.6871
 7926TIP3   OH223720   0.890   2.998   3.734  0.2844  0.0290  0.5380
 7926TIP3    H123721   0.885   2.903   3.746  0.0233  0.0097  0.2758
 7926TIP3    H223722   0.976   3.013   3.695 -0.1126 -0.2002 -0.4271
 7927TIP3   OH223723   2.092   4.991   2.681 -0.4784  0.2320 -0.2261
 7927TIP3    H123724   2.106   5.075   2.725 -1.0636 -0.1768  0.7455
 7927TIP3    H223725   2.156   4.932   2.721  0.8942  0.5469 -1.8862
 7928TIP3   OH223726   8.043   6.247   3.928  0.4899  1.1188  0.0619
 7928TIP3    H123727   8.057   6.288   4.013  0.4906  0.3759  0.4183
 7928TIP3    H223728   7.969   6.188   3.941  2.6996 -1.6255  0.4545
 7929TIP3   OH223729   7.821   4.206   2.833 -0.0586  0.0783  0.2941
 7929TIP3    H123730   7.834   4.177   2.743 -0.0963 -0.3341  0.4209
 7929TIP3    H223731   7.726   4.216   2.842 -0.0341  0.4087  0.2001
 7930TIP3   OH223732   7.170   4.402   4.070 -0.0357  0.2182  0.1321
 7930TIP3    H123733   7.078   4.430   4.066 -0.0085  0.3354  0.3476
 7930TIP3    H223734   7.171   4.321   4.019 -0.4233 -0.2133  0.7897
 7931TIP3   OH223735   6.662   2.344   2.313 -0.2655  0.5525  0.3818
 7931TIP3    H123736   6.647   2.266   2.366 -1.3430 -0.3148 -1.1873
 7931TIP3    H223737   6.591   2.403   2.336 -1.1210 -0.0921 -0.5832
 7932TIP3   OH223738   7.647   2.078   2.634  0.5283  0.1134 -0.5727
 7932TIP3    H123739   7.622   2.164   2.668  0.7740  1.0025 -2.5953
 7932TIP3    H223740   7.636   2.085   2.539  0.0196 -2.2604 -0.7290
 7933TIP3   OH223741   8.260   2.815   4.053 -0.5339 -0.0142  0.6421
 7933TIP3    H123742   8.348   2.790   4.025 -1.3624 -1.7228 -0.5697
 7933TIP3    H223743   8.274   2.870   4.130  1.5373 -2.0386  1.8031
 7934TIP3   OH223744   8.013   4.101   4.220 -0.3195  0.2438  0.1386
 7934TIP3    H123745   8.057   4.164   4.277  1.2823 -0.6318 -0.1160
 7934TIP3    H223746   8.008   4.021   4.271 -0.7561  0.0573 -0.1932
 7935TIP3   OH223747   6.813   2.964   2.829  0.1705 -0.2463  0.6491
 7935TIP3    H123748   6.800   3.049   2.870 -0.8520 -1.2455  2.4798
 7935TIP3    H223749   6.899   2.935   2.860  0.4354  0.0365  0.1780
 7936TIP3   OH223750   7.948   4.782   2.965 -0.2453 -0.3557  0.3574
 7936TIP3    H123751   7.997   4.812   2.888 -0.3238 -0.3713  0.3012
 7936TIP3    H223752   7.924   4.692   2.945  0.0914 -0.4915  0.5779
 7937TIP3   OH223753   6.544   4.900   3.866  0.0436  0.3355 -0.1598
 7937TIP3    H123754   6.479   4.865   3.927  1.0698 -1.5710 -0.1161
 7937TIP3    H223755   6.568   4.985   3.902  0.9398 -0.9233  2.3196
 7938TIP3   OH223756   0.347   3.573   3.140 -0.5126 -0.2701 -0.0771
 7938TIP3    H123757   0.356   3.536   3.227 -1.7331 -2.0686 -0.6890
 7938TIP3    H223758   0.267   3.626   3.144 -0.5122 -0.2701 -0.0672
 7939TIP3   OH223759   8.276   4.727   2.533  0.1223 -0.2031 -0.7492
 7939TIP3    H123760   8.264   4.632   2.523  1.0308 -0.4580  0.4610
 7939TIP3    H223761   8.308   4.756   2.448  2.7299 -1.4777 -0.2447
 7940TIP3   OH223762   0.019   2.687   1.376  0.5008  0.3987 -0.1485
 7940TIP3    H123763   0.048   2.687   1.467  1.6901  0.5219 -0.5249
 7940TIP3    H223764  -0.066   2.643   1.379  0.6779  0.1018  0.9692
 7941TIP3   OH223765   6.792   4.705   4.226 -0.6291  0.2550 -0.0876
 7941TIP3    H123766   6.837   4.625   4.253 -0.7735  0.2841  0.2515
 7941TIP3    H223767   6.742   4.681   4.149  0.1747  0.2846 -0.6234
 7942TIP3   OH223768   5.565   4.685   3.050  0.1579  0.4643  0.0190
 7942TIP3    H123769   5.587   4.756   3.111  0.1240  2.1285 -1.8409
 7942TIP3    H223770   5.649   4.659   3.012  0.0322  0.3805 -0.2047
 7943TIP3   OH223771   0.106   3.898   5.371  0.4772 -0.2886 -0.1869
 7943TIP3    H123772   0.190   3.944   5.374 -0.1682  0.8820  0.4062
 7943TIP3    H223773   0.059   3.928   5.449 -1.1173  0.2673 -1.3292
 7944TIP3   OH223774   7.543   3.665   3.250 -0.1094 -0.0251  0.2392
 7944TIP3    H123775   7.499   3.699   3.171 -0.9522 -0.5223  0.4928
 7944TIP3    H223776   7.546   3.571   3.237  1.6670  0.0729 -0.1637
 7945TIP3   OH223777   7.328   2.663   2.379 -0.2185  0.1038  0.0410
 7945TIP3    H123778   7.284   2.674   2.463  1.3542 -1.8276  1.1673
 7945TIP3    H223779   7.297   2.578   2.347  2.1353 -0.9918  0.5552
 7946TIP3   OH223780   7.738   3.256   2.730  0.4221 -0.3939  0.0744
 7946TIP3    H123781   7.829   3.283   2.745 -0.0266  1.2725 -0.1129
 7946TIP3    H223782   7.725   3.268   2.636 -0.8922  2.2704  0.5718
 7947TIP3   OH223783   8.334   4.310   3.492 -0.2377 -0.1252 -0.3851
 7947TIP3    H123784   8.331   4.359   3.410 -0.9438 -0.5922 -0.6415
 7947TIP3    H223785   8.334   4.377   3.560  2.8337  0.3406 -0.7866
 7948TIP3   OH223786   0.805   3.206   1.118 -0.4451 -0.0581 -0.6364
 7948TIP3    H123787   0.743   3.275   1.095 -1.1669  0.1940  1.9500
 7948TIP3    H223788   0.828   3.224   1.209  1.2509 -1.8173 -0.6953
 7949TIP3   OH223789   7.503   7.077   2.397  0.8700  0.6446  0.2796
 7949TIP3    H123790   7.429   7.025   2.430  1.1674 -1.4843 -2.2413
 7949TIP3    H223791   7.475   7.168   2.409 -1.2093 -0.1081  1.4593
 7950TIP3   OH223792   7.032   3.144   2.946 -0.7090 -0.3280 -0.2069
 7950TIP3    H123793   7.046   3.173   2.856 -0.2304  0.3744  0.0862
 7950TIP3    H223794   6.937   3.152   2.959 -0.5572  1.5303 -0.0108
 7951TIP3   OH223795   7.129   3.213   1.691  0.2664  0.1270  0.5397
 7951TIP3    H123796   7.181   3.216   1.611 -0.2008 -0.3688  0.2074
 7951TIP3    H223797   7.083   3.129   1.686  0.2325  0.0933  1.3286
 7952TIP3   OH223798   8.491   4.993   2.794  0.3183  0.1359  0.2235
 7952TIP3    H123799   8.409   5.033   2.769 -0.4311 -0.6763  1.3107
 7952TIP3    H223800   8.541   5.063   2.836 -0.6998  0.1234  1.4833
 7953TIP3   OH223801   6.935   3.709   3.916  0.6667  0.2161  0.2413
 7953TIP3    H123802   6.900   3.791   3.950  2.3282 -0.0665  2.7994
 7953TIP3    H223803   7.009   3.735   3.862  0.5773  0.4368  0.2232
 7954TIP3   OH223804   8.247   5.716   4.980 -0.1092  0.2517  0.5367
 7954TIP3    H123805   8.310   5.785   5.002  1.0725 -0.1684 -1.4849
 7954TIP3    H223806   8.265   5.695   4.889 -2.4273 -0.6890  0.2693
 7955TIP3   OH223807   7.566   3.762   3.934 -0.7380 -0.7062 -0.3189
 7955TIP3    H123808   7.605   3.782   3.849  0.8901  1.0483  0.8203
 7955TIP3    H223809   7.603   3.677   3.958  0.6298 -0.1280 -0.3157
 7956TIP3   OH223810   8.243   7.032   2.251 -0.1133  0.1241 -0.6603
 7956TIP3    H123811   8.155   7.018   2.287 -0.5504 -0.6163 -1.9794
 7956TIP3    H223812   8.229   7.088   2.175  0.6203  0.4353 -0.5674
 7957TIP3   OH223813   7.106   4.136   2.426  0.3866 -0.0646  0.5719
 7957TIP3    H123814   7.192   4.116   2.390  1.0623  1.6452  1.2045
 7957TIP3    H223815   7.086   4.223   2.392 -1.7204 -0.9980 -0.7096
 7958TIP3   OH223816   6.744   4.067   5.145 -0.0265  0.0274 -0.2189
 7958TIP3    H123817   6.748   3.978   5.181  0.8438  0.1816  0.0665
 7958TIP3    H223818   6.651   4.088   5.144 -0.5636 -2.0491 -3.1140
 7959TIP3   OH223819   8.050   5.308   4.765 -0.1647  0.3969  0.3502
 7959TIP3    H123820   7.955   5.308   4.757 -0.1366  0.2623  0.0253
 7959TIP3    H223821   8.081   5.253   4.693  0.1433  0.1754  0.6467
 7960TIP3   OH223822   7.859   4.625   5.934 -0.1349 -0.5852  0.0225
 7960TIP3    H123823   7.777   4.608   5.888  1.0116 -0.2987 -2.1746
 7960TIP3    H223824   7.905   4.541   5.932  0.4908 -0.2375 -0.5682
 7961TIP3   OH223825   7.667   3.837   5.067  0.0409  0.0238  0.1255
 7961TIP3    H123826   7.729   3.894   5.111  0.3684  0.1062 -0.4372
 7961TIP3    H223827   7.686   3.750   5.100 -1.7610  0.4813  2.4828
 7962TIP3   OH223828   7.617   5.826   3.001  0.3672  0.2016 -0.8091
 7962TIP3    H123829   7.631   5.750   3.057 -2.3548  0.1597 -0.1389
 7962TIP3    H223830   7.691   5.884   3.020  0.8146 -0.9267  0.9429
 7963TIP3   OH223831   2.203   2.844   0.741  0.0709  0.0557 -0.0757
 7963TIP3    H123832   2.238   2.933   0.729 -0.3614  0.3239  0.6484
 7963TIP3    H223833   2.163   2.823   0.656 -0.4710  0.8428 -0.0270
 7964TIP3   OH223834   0.940   4.567   2.276  0.3889  0.3217 -0.6440
 7964TIP3    H123835   0.956   4.551   2.369  0.3414 -0.9592 -0.8512
 7964TIP3    H223836   0.991   4.500   2.231 -0.6227  0.1198 -1.5051
 7965TIP3   OH223837   7.183   3.780   3.850  0.4946 -0.0516 -0.4671
 7965TIP3    H123838   7.217   3.868   3.836 -1.7839  0.8509 -0.5616
 7965TIP3    H223839   7.246   3.722   3.806  1.9968  1.5090 -0.4295
 7966TIP3   OH223840   6.331   4.861   4.338  0.4943 -0.0385  0.2918
 7966TIP3    H123841   6.359   4.951   4.355 -1.0092  0.7837 -1.4405
 7966TIP3    H223842   6.393   4.807   4.388  0.4778  1.9892  2.6159
 7967TIP3   OH223843   8.089   5.601   2.299 -0.0096 -0.3962  0.3445
 7967TIP3    H123844   8.064   5.654   2.223 -1.1943  0.7902  1.5433
 7967TIP3    H223845   8.050   5.646   2.374  1.3729 -1.4183  1.6980
 7968TIP3   OH223846   7.835   4.901   4.385 -0.4379 -0.0050  0.2513
 7968TIP3    H123847   7.741   4.886   4.384 -0.7999  2.1251 -0.8908
 7968TIP3    H223848   7.845   4.994   4.409  1.2842  0.1413 -0.8990
 7969TIP3   OH223849   7.107   5.845   5.315 -0.4790  0.5710  0.0734
 7969TIP3    H123850   7.025   5.872   5.273  0.4203  0.1033 -2.0287
 7969TIP3    H223851   7.080   5.815   5.402 -2.5233  0.4993 -0.5564
 7970TIP3   OH223852   0.445   4.334   4.954 -0.1134  0.0600 -0.1489
 7970TIP3    H123853   0.435   4.377   5.039  0.6594 -0.7877  0.3797
 7970TIP3    H223854   0.539   4.317   4.946  0.2457  2.8347 -2.5350
 7971TIP3   OH223855   6.779   3.595   1.266 -0.3937 -0.1909  0.2727
 7971TIP3    H123856   6.715   3.656   1.302 -0.2162  0.0448  0.1933
 7971TIP3    H223857   6.774   3.518   1.323 -0.2159  0.1236  0.7194
 7972TIP3   OH223858   8.336   3.083   3.048  0.2728  0.1063 -0.2882
 7972TIP3    H123859   8.423   3.114   3.021  0.8847 -1.0569  0.3335
 7972TIP3    H223860   8.353   3.025   3.122 -1.2717  2.0979  1.6733
 7973TIP3   OH223861   0.733   3.455   2.017  0.1396  0.1556 -0.2920
 7973TIP3    H123862   0.785   3.532   2.041 -0.1470  0.1059  0.4956
 7973TIP3    H223863   0.798   3.388   1.996  0.4107 -0.0833  1.2495
 7974TIP3   OH223864   7.790   6.034   3.089  0.0309 -0.2693  0.4390
 7974TIP3    H123865   7.853   6.051   3.019 -0.0760 -3.1836 -0.4195
 7974TIP3    H223866   7.843   6.025   3.168  0.2586  1.8220  0.5482
 7975TIP3   OH223867   8.442   3.451   2.173 -0.2467  0.1655 -0.3006
 7975TIP3    H123868   8.426   3.400   2.252  0.5297 -0.6995 -0.6969
 7975TIP3    H223869   8.528   3.492   2.187 -0.6594  1.0077 -0.1786
 7976TIP3   OH223870   7.830   4.942   3.668 -0.1065 -0.0744 -0.4471
 7976TIP3    H123871   7.842   5.035   3.687 -0.2456 -0.1831  0.1819
 7976TIP3    H223872   7.736   4.932   3.656 -0.0722 -0.1038 -0.7045
 7977TIP3   OH223873   1.214   0.801   3.420 -0.1215  0.1200  0.2126
 7977TIP3    H123874   1.299   0.797   3.464  0.9186 -0.4806 -1.7981
 7977TIP3    H223875   1.224   0.871   3.356 -1.5018  0.7322  0.6463
 7978TIP3   OH223876   7.841   4.502   2.315  0.5400 -1.0155  0.4512
 7978TIP3    H123877   7.773   4.456   2.365  1.5079 -1.8128  1.0753
 7978TIP3    H223878   7.852   4.586   2.360 -2.1959  0.4354 -1.5029
 7979TIP3   OH223879   7.511   4.848   3.778 -0.1493  0.0011  0.2647
 7979TIP3    H123880   7.443   4.780   3.775  0.4229 -0.6969  2.3156
 7979TIP3    H223881   7.534   4.863   3.686 -2.3178 -0.5017 -0.3910
 7980TIP3   OH223882   7.184   3.726   1.135  0.1128 -0.1323  0.6381
 7980TIP3    H123883   7.214   3.765   1.053  0.8194 -0.2747  0.8283
 7980TIP3    H223884   7.097   3.691   1.115 -0.0532  0.5390  0.1657
 7981TIP3   OH223885   6.428   3.085   2.105  0.1417  0.2416  0.1434
 7981TIP3    H123886   6.359   3.045   2.158 -0.1063  2.8787  1.9183
 7981TIP3    H223887   6.387   3.102   2.020 -0.3332 -1.4177  0.0341
 7982TIP3   OH223888   8.020   5.162   1.249  0.2284  0.2691 -0.2779
 7982TIP3    H123889   8.033   5.256   1.256  1.1618  0.0766  0.7960
 7982TIP3    H223890   7.937   5.145   1.293 -0.1033  0.6152 -0.7585
 7983TIP3   OH223891   3.957   3.367   1.066 -0.5041  0.2649  0.0128
 7983TIP3    H123892   4.031   3.341   1.121  0.3304  1.1093 -0.7152
 7983TIP3    H223893   3.964   3.311   0.989 -2.4437 -1.8684  1.3104
 7984TIP3   OH223894   7.693   3.833   3.717  0.5232  0.0934  0.1070
 7984TIP3    H123895   7.708   3.762   3.655  0.6100  0.0373  0.1921
 7984TIP3    H223896   7.777   3.845   3.760  0.3369 -0.1836  0.5457
 7985TIP3   OH223897   6.107   3.324   3.972  0.1278 -0.5240  0.0295
 7985TIP3    H123898   6.028   3.335   4.024 -0.4833 -2.4301 -0.4350
 7985TIP3    H223899   6.155   3.406   3.982 -1.5702  0.3801  0.8787
 7986TIP3   OH223900   7.776   3.521   4.123  0.6827 -0.6883 -0.2637
 7986TIP3    H123901   7.786   3.431   4.092  2.7654 -0.2589 -0.9307
 7986TIP3    H223902   7.847   3.569   4.080 -0.8043  1.4176 -0.4599
 7987TIP3   OH223903   6.860   5.908   3.070 -0.3299 -0.1684 -0.2299
 7987TIP3    H123904   6.903   5.985   3.033  1.4012 -1.0165 -0.0184
 7987TIP3    H223905   6.783   5.943   3.115 -0.3878  1.2721 -1.4199
 7988TIP3   OH223906   6.897   4.201   3.709  0.2849  0.3142 -0.0972
 7988TIP3    H123907   6.985   4.235   3.725  0.1635  0.4225  0.3533
 7988TIP3    H223908   6.863   4.180   3.796  0.7202 -1.8507 -0.4054
 7989TIP3   OH223909   7.656   4.525   3.029  0.2392  0.0068  0.1734
 7989TIP3    H123910   7.690   4.596   3.084 -0.8387 -0.9831  2.1738
 7989TIP3    H223911   7.564   4.547   3.016 -0.3057 -1.4381  1.4999
 7990TIP3   OH223912   7.280   5.247   3.669  0.3103 -0.2692 -0.1782
 7990TIP3    H123913   7.249   5.257   3.759  1.6481  1.7637  0.0756
 7990TIP3    H223914   7.370   5.279   3.670 -0.3616  1.9727 -2.7074
 7991TIP3   OH223915   0.044   4.643   3.254  0.6640  0.4586 -0.3645
 7991TIP3    H123916   0.089   4.573   3.301  0.3904  1.0259  0.7499
 7991TIP3    H223917  -0.048   4.618   3.254  0.4748  1.1581  0.6336
 7992TIP3   OH223918   0.191   5.621   3.059  0.6074 -0.0824 -0.4859
 7992TIP3    H123919   0.211   5.562   2.987  1.1609 -1.3722  0.7005
 7992TIP3    H223920   0.170   5.704   3.017 -1.0308 -1.3350 -2.2266
 7993TIP3   OH223921   7.483   4.531   4.930 -0.5340 -0.2709  0.1778
 7993TIP3    H123922   7.577   4.517   4.929 -0.7584 -1.8646  1.0057
 7993TIP3    H223923   7.449   4.471   4.864 -1.2259 -1.6451  1.7669
 7994TIP3   OH223924   0.042   4.634   0.963  0.8768  0.1276 -0.0490
 7994TIP3    H123925   0.074   4.578   1.034 -1.1043 -1.6243 -0.4952
 7994TIP3    H223926  -0.006   4.575   0.905  0.4944  1.9419 -1.6396
 7995TIP3   OH223927   5.205   3.293   2.210  0.1781 -0.6323 -0.5307
 7995TIP3    H123928   5.161   3.378   2.217 -0.8224 -1.1563 -0.4066
 7995TIP3    H223929   5.221   3.282   2.116 -0.1909 -0.5510 -0.6048
 7996TIP3   OH223930   7.003   0.553   1.385  0.2709  0.1118 -0.3262
 7996TIP3    H123931   7.049   0.637   1.393  0.8867 -0.0869 -1.5777
 7996TIP3    H223932   7.004   0.535   1.291  0.7826 -1.6671  0.0209
 7997TIP3   OH223933   7.952   4.373   4.466  0.1487 -0.0542 -0.2033
 7997TIP3    H123934   7.956   4.467   4.448 -0.0429 -0.1042 -0.4930
 7997TIP3    H223935   7.861   4.350   4.454  0.2823 -0.3724 -0.5818
 7998TIP3   OH223936   6.921   2.956   2.109 -0.7644 -0.1407 -0.8789
 7998TIP3    H123937   6.964   2.940   2.024  1.4471  0.2615  0.1295
 7998TIP3    H223938   6.958   3.039   2.139 -0.9235 -0.6850  0.8548
 7999TIP3   OH223939   7.277   3.106   2.165  0.2864 -0.1905  0.5498
 7999TIP3    H123940   7.292   3.092   2.071 -0.7280 -0.2488  0.3901
 7999TIP3    H223941   7.188   3.140   2.170 -0.3218 -1.8655  1.6304
 8000TIP3   OH223942   7.500   3.173   2.317 -0.1054 -0.3097  0.0985
 8000TIP3    H123943   7.587   3.148   2.286  0.5064 -3.4271  3.9772
 8000TIP3    H223944   7.439   3.127   2.259  0.8786 -0.7475 -0.5938
 8001TIP3   OH223945   7.575   3.407   3.199  0.1325  0.1549 -0.3152
 8001TIP3    H123946   7.669   3.420   3.211 -0.2639  3.4575 -0.5551
 8001TIP3    H223947   7.564   3.405   3.104 -0.5647  4.5088 -0.4194
 8002TIP3   OH223948   8.444   3.878   1.926 -0.1353 -0.1301  0.2289
 8002TIP3    H123949   8.505   3.807   1.947  0.1955 -0.0130 -0.3241
 8002TIP3    H223950   8.406   3.854   1.842 -0.2505  0.2007  0.1840
 8003TIP3   OH223951   7.468   4.352   3.601  0.1228  0.0861 -0.6981
 8003TIP3    H123952   7.462   4.397   3.686  0.3085 -1.9682  0.4470
 8003TIP3    H223953   7.500   4.418   3.541  3.1005  0.7987  1.5200
 8004TIP3   OH223954   7.025   2.129   2.786  0.2207 -0.2075 -0.4766
 8004TIP3    H123955   7.061   2.218   2.777 -0.3979  0.0454 -0.4635
 8004TIP3    H223956   7.102   2.074   2.798  0.5484  0.4931  0.8083
 8005TIP3   OH223957   8.004   2.992   4.973 -0.0374 -0.9678 -0.0979
 8005TIP3    H123958   8.023   3.002   5.066  0.4782 -1.8197 -0.1038
 8005TIP3    H223959   7.987   3.081   4.942  0.7282 -0.5723  0.6108
 8006TIP3   OH223960   8.322   3.968   6.628  0.3950  0.3755 -0.0133
 8006TIP3    H123961   8.374   4.018   6.690 -0.4747  0.5475  0.5912
 8006TIP3    H223962   8.287   4.033   6.567 -1.3829  0.6345  1.2416
 8007TIP3   OH223963   1.718   4.739   1.633  0.3411 -0.0128 -0.0489
 8007TIP3    H123964   1.661   4.681   1.684 -1.5048  0.7376 -1.1893
 8007TIP3    H223965   1.794   4.753   1.689 -0.5873 -1.0355  1.5297
 8008TIP3   OH223966   7.650   2.900   6.327 -0.2120  0.1654 -0.5029
 8008TIP3    H123967   7.592   2.965   6.288  0.6196  0.5982 -1.0469
 8008TIP3    H223968   7.678   2.939   6.410 -2.0259 -0.7796  0.5726
 8009TIP3   OH223969   4.512   3.777   2.828 -0.8440 -0.2402  0.5334
 8009TIP3    H123970   4.562   3.702   2.861 -0.6850 -1.5174 -2.4086
 8009TIP3    H223971   4.561   3.854   2.856  0.1947 -1.3257  1.7269
 8010TIP3   OH223972   5.332   1.604   3.172  0.7885  0.0065 -0.1513
 8010TIP3    H123973   5.370   1.666   3.236  0.0782  0.9084 -0.5969
 8010TIP3    H223974   5.332   1.653   3.090 -2.6500  0.5446  0.1070
 8011TIP3   OH223975   1.542   4.065   4.693  0.0906  0.1130  0.0130
 8011TIP3    H123976   1.595   4.056   4.772  2.6886 -0.2791 -1.6855
 8011TIP3    H223977   1.556   3.983   4.645 -1.1483  0.4841 -1.0153
 8012TIP3   OH223978   7.814   2.627   2.435 -0.2789 -0.1491  0.2140
 8012TIP3    H123979   7.786   2.705   2.482  0.0260  0.3409 -0.4222
 8012TIP3    H223980   7.796   2.646   2.343 -1.0187 -1.1635  0.1383
 8013TIP3   OH223981   7.594   3.069   4.684  0.4083 -0.0027 -0.2059
 8013TIP3    H123982   7.556   3.150   4.650 -1.1110 -0.2550  0.8684
 8013TIP3    H223983   7.533   3.040   4.751  0.8812 -2.1364 -0.6847
 8014TIP3   OH223984   0.630   3.659   5.717 -0.0966  0.2369  0.4677
 8014TIP3    H123985   0.543   3.647   5.756 -0.2425 -0.3687 -0.0303
 8014TIP3    H223986   0.674   3.722   5.775 -1.3643  1.6457 -0.0801
 8015TIP3   OH223987   0.148   6.337   0.905  0.0123 -0.7610  0.6717
 8015TIP3    H123988   0.192   6.255   0.929  1.0198  0.0335  1.5741
 8015TIP3    H223989   0.158   6.343   0.810  0.9031 -1.1300  0.7394
 8016TIP3   OH223990   5.411   3.918   2.913  0.0865 -0.0210  0.0845
 8016TIP3    H123991   5.373   3.930   3.000 -1.7127 -0.2175 -0.6533
 8016TIP3    H223992   5.505   3.934   2.925 -0.1151 -0.2834  2.0969
 8017TIP3   OH223993   5.643   4.483   4.461 -0.2474 -0.5744  0.2605
 8017TIP3    H123994   5.720   4.475   4.404  1.4564  2.3296  2.0397
 8017TIP3    H223995   5.592   4.554   4.421 -0.5301 -0.5396  0.6872
 8018TIP3   OH223996   7.999   2.978   3.305  0.1865  0.0112 -0.3476
 8018TIP3    H123997   8.024   2.900   3.255 -1.7736  0.1738 -1.6577
 8018TIP3    H223998   8.056   2.978   3.381  0.0435 -2.8643 -0.2033
 8019TIP3   OH223999   2.896   5.813   1.332  0.5605  0.2742  0.3712
 8019TIP3    H124000   2.973   5.863   1.356 -0.2293  0.6528  2.2203
 8019TIP3    H224001   2.823   5.857   1.376 -0.4787 -1.0478  0.0373
 8020TIP3   OH224002   0.457   4.391   4.412  0.4872 -0.0284 -0.3028
 8020TIP3    H124003   0.450   4.328   4.340  1.5379 -0.0409 -0.4009
 8020TIP3    H224004   0.419   4.346   4.487  1.3562 -0.8309 -0.3388
 8021TIP3   OH224005   2.156   6.593   3.393 -0.3042  0.4890 -0.1251
 8021TIP3    H124006   2.153   6.518   3.335  0.7373 -0.3257  0.8513
 8021TIP3    H224007   2.067   6.599   3.429 -0.0044 -1.2373  0.9706
 8022TIP3   OH224008   0.414   4.909   2.262 -0.9357  0.3972 -0.2990
 8022TIP3    H124009   0.468   4.988   2.251  0.0262 -0.0456  1.1231
 8022TIP3    H224010   0.375   4.919   2.349 -2.5186  0.3089 -0.9747
 8023TIP3   OH224011   6.863   5.508   3.486 -0.1208  0.3432 -0.1492
 8023TIP3    H124012   6.913   5.494   3.567 -1.0328 -0.1607  0.3394
 8023TIP3    H224013   6.874   5.601   3.467 -2.5336  1.2365  2.3973
 8024TIP3   OH224014   7.591   4.229   5.034  0.3997 -0.6426  0.2954
 8024TIP3    H124015   7.645   4.224   5.113  1.9742 -0.5626 -0.7430
 8024TIP3    H224016   7.617   4.311   4.992  0.4727 -1.2618 -0.9068
 8025TIP3   OH224017   0.269   4.579   3.809  0.1205  0.6485 -0.7189
 8025TIP3    H124018   0.296   4.632   3.884  1.3716 -1.2013  0.1504
 8025TIP3    H224019   0.221   4.506   3.846 -0.1757  0.2800 -1.7981
 8026TIP3   OH224020   7.488   3.512   4.124  0.0394 -0.1916 -0.5483
 8026TIP3    H124021   7.470   3.424   4.092  0.5456 -1.1902  1.7798
 8026TIP3    H224022   7.582   3.512   4.143  0.1091  0.9535 -0.8126
 8027TIP3   OH224023   7.990   5.724   3.127 -0.1987 -0.1492 -0.3882
 8027TIP3    H124024   8.042   5.791   3.172 -1.9102  1.1511 -0.2844
 8027TIP3    H224025   8.036   5.642   3.144  2.5457  1.1137 -1.3901
 8028TIP3   OH224026   7.498   4.213   4.665  0.2229  0.4846 -0.2224
 8028TIP3    H124027   7.529   4.185   4.752  0.5257 -0.3897 -0.6043
 8028TIP3    H224028   7.427   4.153   4.645 -0.6200  1.4339 -0.0794
 8029TIP3   OH224029   6.380   3.881   4.220  0.0453 -0.1108 -0.5238
 8029TIP3    H124030   6.473   3.858   4.220  0.4880  1.6071 -0.5351
 8029TIP3    H224031   6.350   3.858   4.132  0.2752 -1.2809 -0.3145
 8030TIP3   OH224032   5.526   6.145   2.707 -0.2570  0.0038  0.1665
 8030TIP3    H124033   5.465   6.080   2.673 -2.1122  0.9504  1.5731
 8030TIP3    H224034   5.494   6.228   2.671  0.0714  0.5461  1.1212
 8031TIP3   OH224035   4.335   2.691   6.860  0.2290 -0.2336 -0.2636
 8031TIP3    H124036   4.339   2.622   6.925 -0.2412 -0.4262 -0.4352
 8031TIP3    H224037   4.279   2.758   6.900 -0.4229 -0.5452 -0.6444
 8032TIP3   OH224038   6.409   5.248   3.641  0.4046  0.0816  0.0180
 8032TIP3    H124039   6.337   5.272   3.700 -0.6687  1.2668 -1.7163
 8032TIP3    H224040   6.448   5.332   3.616  2.0536 -0.5261  0.5095
 8033TIP3   OH224041   6.521   5.880   5.311  0.1277  0.9327  0.0191
 8033TIP3    H124042   6.441   5.850   5.268  0.1524  1.5122 -0.4437
 8033TIP3    H224043   6.523   5.974   5.293  1.8310  0.6304 -1.4936
 8034TIP3   OH224044   7.963   3.008   5.825 -0.0905 -0.3948 -0.5691
 8034TIP3    H124045   7.988   3.096   5.797 -0.7110 -0.0557 -0.0867
 8034TIP3    H224046   8.045   2.960   5.830  0.6483  1.0214  2.1118
 8035TIP3   OH224047   6.915   5.317   3.171  0.5539 -0.6909 -0.1410
 8035TIP3    H124048   6.834   5.359   3.142 -0.0610 -1.7462  0.0227
 8035TIP3    H224049   6.936   5.359   3.254  0.1015 -0.5107 -0.1189
 8036TIP3   OH224050   8.053   5.721   5.904  0.1653  0.1153  0.1584
 8036TIP3    H124051   7.960   5.704   5.891  0.8488 -3.0278 -1.1082
 8036TIP3    H224052   8.090   5.717   5.815  1.5886  0.8305  0.7057
 8037TIP3   OH224053   0.175   6.503   2.570 -0.0322 -0.1510 -0.2147
 8037TIP3    H124054   0.144   6.591   2.547  1.4092 -0.1462 -2.2246
 8037TIP3    H224055   0.170   6.500   2.665  0.4472  2.3099 -0.0897
 8038TIP3   OH224056   8.440   6.141   1.405 -0.0046  0.0051 -0.2876
 8038TIP3    H124057   8.471   6.196   1.476 -0.2057 -0.5242  0.2118
 8038TIP3    H224058   8.373   6.194   1.361  1.8707  1.3222 -1.6447
 8039TIP3   OH224059   6.524   2.920   0.950 -0.2255  0.4707 -0.3815
 8039TIP3    H124060   6.483   2.929   1.036 -0.6943  0.4035 -0.5960
 8039TIP3    H224061   6.580   2.998   0.941 -1.9529  1.6771 -0.9804
 8040TIP3   OH224062   6.472   5.462   2.996  0.3207 -0.6198 -0.4428
 8040TIP3    H124063   6.497   5.406   2.922  1.3761 -0.2368 -0.3877
 8040TIP3    H224064   6.394   5.508   2.966  0.9740 -0.1572 -1.4888
 8041TIP3   OH224065   6.456   4.151   4.884 -0.0946 -0.6004 -0.3538
 8041TIP3    H124066   6.490   4.147   4.973 -0.6400  0.9788 -0.0484
 8041TIP3    H224067   6.532   4.133   4.828  1.3832  3.1717  0.2998
 8042TIP3   OH224068   0.414   3.935   5.515 -0.0673 -0.5019 -0.3092
 8042TIP3    H124069   0.505   3.927   5.486  0.1975 -1.9265  0.8359
 8042TIP3    H224070   0.409   4.020   5.558  0.8776 -0.7082  0.1964
 8043TIP3   OH224071   8.004   2.136   2.707  0.3476  0.1843  0.1247
 8043TIP3    H124072   7.952   2.212   2.734 -0.4526 -0.4645  0.4315
 8043TIP3    H224073   8.005   2.141   2.611 -0.8244 -0.1501  0.0892
 8044TIP3   OH224074   5.516   6.874   2.636  0.3491  0.0337 -0.4162
 8044TIP3    H124075   5.457   6.949   2.638  0.5509  0.2123 -1.1443
 8044TIP3    H224076   5.543   6.862   2.728 -1.4599 -0.5636  0.0474
 8045TIP3   OH224077   7.465   4.493   3.913  0.5895 -0.1892  0.2188
 8045TIP3    H124078   7.458   4.518   4.006  0.6576 -1.1914  0.4958
 8045TIP3    H224079   7.405   4.553   3.868 -0.0358 -0.2145  1.0029
 8046TIP3   OH224080   5.040   2.783   3.946  0.4527 -0.1420  0.2992
 8046TIP3    H124081   4.999   2.710   3.899  1.0240 -0.4838  0.3346
 8046TIP3    H224082   4.968   2.845   3.959  0.4547  0.3082 -1.7194
 8047TIP3   OH224083   7.378   4.928   2.665 -0.0445 -0.4048 -0.5161
 8047TIP3    H124084   7.445   4.991   2.639 -0.7671  0.6687  0.1745
 8047TIP3    H224085   7.307   4.942   2.602 -0.1552 -0.6058 -0.4352
 8048TIP3   OH224086   6.638   5.319   0.879  0.1916  0.3068 -0.2317
 8048TIP3    H124087   6.679   5.405   0.877  1.5991 -0.3401  0.3243
 8048TIP3    H224088   6.563   5.330   0.938  1.2142  0.7928  1.0187
 8049TIP3   OH224089   7.312   3.770   2.775 -0.2105  0.4160  0.3119
 8049TIP3    H124090   7.363   3.693   2.798  0.3870  0.4764 -0.7756
 8049TIP3    H224091   7.373   3.826   2.727 -0.7828  1.3358  0.6406
 8050TIP3   OH224092   8.346   2.616   6.250  0.3015 -0.2866 -0.4628
 8050TIP3    H124093   8.255   2.636   6.228  0.0752  0.0938  0.7819
 8050TIP3    H224094   8.341   2.569   6.333  1.1093 -2.1647 -1.4363
 8051TIP3   OH224095   1.155   5.114   3.731 -0.3826  0.3640  0.2484
 8051TIP3    H124096   1.139   5.110   3.637  2.2671 -1.4527 -0.1796
 8051TIP3    H224097   1.214   5.188   3.742 -1.7570  1.4227  0.6922
 8052TIP3   OH224098   8.111   4.189   2.864  0.2609 -0.1341  0.1153
 8052TIP3    H124099   8.035   4.196   2.922 -0.6743 -1.5622 -0.8886
 8052TIP3    H224100   8.173   4.254   2.897 -1.1181  0.5677  1.3772
 8053TIP3   OH224101   1.489   3.695   3.523  0.0730  0.3470  0.5467
 8053TIP3    H124102   1.577   3.733   3.523  0.0175  0.6757 -2.9915
 8053TIP3    H224103   1.496   3.619   3.465 -1.8384  0.0996  0.6088
 8054TIP3   OH224104   0.933   6.532   5.417 -0.2798 -0.8013 -0.0364
 8054TIP3    H124105   0.935   6.545   5.512 -0.2896 -0.2010 -0.1137
 8054TIP3    H224106   0.972   6.611   5.381 -1.0178 -0.6637 -0.5636
 8055TIP3   OH224107   7.715   4.595   3.812  0.1835  0.4201  0.1358
 8055TIP3    H124108   7.687   4.686   3.810 -0.2091  0.3046  0.1968
 8055TIP3    H224109   7.644   4.549   3.859 -0.2260 -0.1125 -0.9755
 8056TIP3   OH224110   8.130   6.369   4.157  0.4106 -0.2665 -0.4585
 8056TIP3    H124111   8.150   6.335   4.245 -2.1824 -2.5489 -0.7005
 8056TIP3    H224112   8.076   6.446   4.173  0.7030 -0.1381 -0.0622
 8057TIP3   OH224113   7.430   3.793   4.507 -0.0398  0.0764  0.4228
 8057TIP3    H124114   7.352   3.755   4.465  0.4974 -1.2519  0.5903
 8057TIP3    H224115   7.495   3.799   4.437  0.3616 -0.7229  0.7181
 8058TIP3   OH224116   0.021   3.858   6.082  0.2137  0.0045 -0.2176
 8058TIP3    H124117  -0.057   3.853   6.027  0.6402 -0.9208 -0.7458
 8058TIP3    H224118   0.068   3.777   6.064 -0.8127 -1.4660  3.2749
 8059TIP3   OH224119   0.064   4.772   4.890 -0.1715 -0.0127 -0.5896
 8059TIP3    H124120   0.084   4.862   4.862 -1.3586  0.7152  0.7769
 8059TIP3    H224121  -0.030   4.762   4.872 -0.3457 -0.4800  0.4996
 8060TIP3   OH224122   8.128   3.633   4.907  0.5246 -0.8220 -0.2378
 8060TIP3    H124123   8.133   3.659   4.815  1.6010  3.6316  0.9564
 8060TIP3    H224124   8.035   3.613   4.921 -0.1657  1.1337 -1.6888
 8061TIP3   OH224125   0.677   7.170   4.210 -0.2903 -0.4670 -0.2841
 8061TIP3    H124126   0.772   7.182   4.202 -0.0312 -0.5737  2.2187
 8061TIP3    H224127   0.667   7.097   4.271 -1.9949 -0.6784 -0.7870
 8062TIP3   OH224128   1.979   4.275   5.354  0.2990 -0.9372  0.5125
 8062TIP3    H124129   2.024   4.336   5.412  2.4739 -0.6310 -1.4422
 8062TIP3    H224130   2.043   4.207   5.335 -1.0585 -2.1312  0.0856
 8063TIP3   OH224131   0.734   4.070   5.154  0.3687  0.3352  0.2497
 8063TIP3    H124132   0.663   4.056   5.217  1.0025 -0.3811  0.8162
 8063TIP3    H224133   0.736   4.165   5.141 -0.5060  0.3826  0.4486
 8064TIP3   OH224134   8.341   3.897   6.342 -0.0128  0.2862 -0.1786
 8064TIP3    H124135   8.421   3.865   6.300 -1.1077 -1.3044 -1.1149
 8064TIP3    H224136   8.343   3.860   6.430 -0.3831 -0.9183 -0.6633
 8065TIP3   OH224137   7.756   3.392   6.276 -0.2437  0.0961 -0.6441
 8065TIP3    H124138   7.804   3.344   6.208  1.2162 -0.4077  0.6864
 8065TIP3    H224139   7.774   3.484   6.257  1.1858 -0.0838 -0.2364
 8066TIP3   OH224140   2.139   2.977   4.063  0.2785 -0.1198  0.6351
 8066TIP3    H124141   2.088   2.965   4.143  1.1956 -0.3955  1.1943
 8066TIP3    H224142   2.203   3.045   4.085  1.3250 -1.0534  0.5411
 8067TIP3   OH224143   8.110   4.147   5.404 -0.2006 -0.3453 -0.3659
 8067TIP3    H124144   8.056   4.209   5.356 -0.1562  0.1838  0.2617
 8067TIP3    H224145   8.200   4.179   5.392 -0.1121 -0.6947 -0.6372
 8068TIP3   OH224146   1.372   5.312   3.691 -0.2968  0.0339 -0.0304
 8068TIP3    H124147   1.444   5.251   3.680 -1.6044 -1.2373 -1.6460
 8068TIP3    H224148   1.409   5.397   3.667  1.3701 -0.1436  1.7128
 8069TIP3   OH224149   0.106   6.956   5.057  0.4380  0.1896  0.2397
 8069TIP3    H124150   0.183   6.964   5.113  0.5113  0.7249  0.0669
 8069TIP3    H224151   0.125   7.011   4.981  0.6092 -1.0618 -0.6285
 8070TIP3   OH224152   4.727   0.045   0.390 -0.0271 -0.1376 -0.4387
 8070TIP3    H124153   4.743   0.096   0.469  0.4131  0.6340 -1.0209
 8070TIP3    H224154   4.683  -0.034   0.421 -0.3068  0.3871  0.5179
 8071TIP3   OH224155   1.317   3.030   2.085 -0.2458  0.6605 -0.3553
 8071TIP3    H124156   1.397   3.074   2.112 -1.0829  2.9601 -1.4327
 8071TIP3    H224157   1.247   3.092   2.107 -1.5837 -0.6724 -0.7658
 8072TIP3   OH224158   0.828   1.648   0.703 -0.2823  0.5226 -0.1301
 8072TIP3    H124159   0.831   1.580   0.770 -1.1280  1.6621  1.0793
 8072TIP3    H224160   0.799   1.602   0.624 -0.8683 -0.5208  0.6739
 8073TIP3   OH224161   1.412   5.000   5.487  0.1642 -0.6028  0.0238
 8073TIP3    H124162   1.428   5.085   5.447 -2.3490  0.7209  1.6846
 8073TIP3    H224163   1.421   4.937   5.415  1.1169  1.1544 -1.4157
 8074TIP3   OH224164   8.296   6.169   4.855  0.0234 -0.4509  0.0520
 8074TIP3    H124165   8.296   6.159   4.950  2.3804 -0.2017  0.1039
 8074TIP3    H224166   8.299   6.080   4.822 -1.7158 -0.5734  0.1761
 8075TIP3   OH224167   7.966   5.633   4.479  0.2680  0.0900  0.0277
 8075TIP3    H124168   7.930   5.561   4.426  1.2984  1.3229 -2.4601
 8075TIP3    H224169   7.910   5.708   4.457  0.7514  0.6332  0.6575
 8076TIP3   OH224170   0.743   6.615   5.951  0.2303  0.1123 -0.2133
 8076TIP3    H124171   0.741   6.647   6.041 -1.6067  1.1786 -0.5868
 8076TIP3    H224172   0.752   6.520   5.959  1.5288  0.3305  1.0459
 8077TIP3   OH224173   2.536   4.825   3.805  0.5405 -0.1044 -0.1910
 8077TIP3    H124174   2.621   4.785   3.788  0.4708 -0.4615  0.2875
 8077TIP3    H224175   2.555   4.902   3.860  0.5340 -0.3244  0.1225
 8078TIP3   OH224176   2.873   7.622   4.190 -0.0954 -0.0254 -0.7476
 8078TIP3    H124177   2.817   7.575   4.252 -0.7725  0.7776 -0.7497
 8078TIP3    H224178   2.952   7.568   4.184 -0.6348 -0.8750 -0.3170
 8079TIP3   OH224179   1.083   6.445   6.132 -0.2223 -0.5187 -0.1861
 8079TIP3    H124180   1.168   6.433   6.174 -0.4608 -0.4056  0.3422
 8079TIP3    H224181   1.030   6.489   6.199 -0.5915 -0.2793 -0.6326
 8080TIP3   OH224182   0.600   6.628   2.680 -0.2275  0.4499 -0.5906
 8080TIP3    H124183   0.514   6.636   2.639 -0.8266  1.7043  0.8525
 8080TIP3    H224184   0.635   6.717   2.679  0.8352  0.0410 -0.6686
 8081TIP3   OH224185   0.092   5.847   4.767 -0.8525 -0.2663  0.2192
 8081TIP3    H124186   0.011   5.805   4.737 -0.6646 -1.1896  0.9654
 8081TIP3    H224187   0.077   5.861   4.861 -0.3865  0.1279  0.2331
 8082TIP3   OH224188   0.611   6.700   5.202 -0.0543  0.3740 -0.6555
 8082TIP3    H124189   0.536   6.642   5.213 -0.4309  0.6305 -1.7848
 8082TIP3    H224190   0.687   6.642   5.206 -0.3056  0.1183  0.5072
 8083TIP3   OH224191   7.935   5.505   5.454 -0.5732  1.0419 -0.0957
 8083TIP3    H124192   7.868   5.544   5.510 -0.0945 -1.1121  2.0762
 8083TIP3    H224193   7.893   5.430   5.414  0.0941  0.5514  0.1075
 8084TIP3   OH224194   8.231   6.692   4.968 -0.3932  0.0076  0.1623
 8084TIP3    H124195   8.217   6.661   4.879  1.0749 -0.3169  0.0324
 8084TIP3    H224196   8.299   6.635   5.003  0.3233  1.2775  0.8774
 8085TIP3   OH224197   6.167   3.281   3.024  0.1967 -0.7067 -0.5535
 8085TIP3    H124198   6.183   3.297   2.931  0.3664  1.7133 -0.1390
 8085TIP3    H224199   6.074   3.257   3.029  0.5828 -2.4561 -1.5190
 8086TIP3   OH224200   0.924   4.787   3.051  0.2672  0.5184 -0.1647
 8086TIP3    H124201   0.904   4.744   2.969  1.7538  0.9343 -0.7682
 8086TIP3    H224202   0.930   4.880   3.029  0.7968  0.6204  0.3743
 8087TIP3   OH224203   5.041   0.483   1.814 -0.4065 -0.1083  0.8674
 8087TIP3    H124204   4.961   0.446   1.777  0.0844  0.5242 -0.8783
 8087TIP3    H224205   5.015   0.514   1.901 -1.6387 -1.4359  0.9905
 8088TIP3   OH224206   0.808   6.419   4.753  0.6233  0.4613 -0.5528
 8088TIP3    H124207   0.895   6.403   4.716 -0.0031 -0.0236 -1.8566
 8088TIP3    H224208   0.822   6.419   4.848  1.5272 -2.8104 -0.6245
 8089TIP3   OH224209   8.085   3.251   5.756 -0.2577 -0.2221  0.6722
 8089TIP3    H124210   8.018   3.314   5.730  1.6933  2.2404  1.3894
 8089TIP3    H224211   8.102   3.271   5.848 -0.2042 -2.3996  1.1624
 8090TIP3   OH224212   7.861   6.052   4.905 -0.2360  0.1786  0.2616
 8090TIP3    H124213   7.779   6.069   4.952 -0.2459  1.2928 -0.1612
 8090TIP3    H224214   7.927   6.104   4.952  0.2883 -0.9281  0.7722
 8091TIP3   OH224215   7.907   3.971   5.134  0.6560  0.2620  0.1636
 8091TIP3    H124216   7.879   4.062   5.134  0.6019  0.2492  1.9969
 8091TIP3    H224217   7.992   3.973   5.088  1.0582  1.3641  0.9256
 8092TIP3   OH224218   7.755   4.998   5.716 -0.1385  0.1949 -0.1077
 8092TIP3    H124219   7.833   4.943   5.725  0.7491  1.4174 -0.2379
 8092TIP3    H224220   7.730   5.018   5.806 -0.9554 -1.0989 -0.0408
 8093TIP3   OH224221   6.173   2.088   3.402 -0.6483 -0.4416 -0.1181
 8093TIP3    H124222   6.265   2.108   3.381 -0.3234 -1.0803  0.6877
 8093TIP3    H224223   6.170   2.088   3.497 -1.5898  0.0148 -0.1468
 8094TIP3   OH224224   7.626   4.544   6.329  0.4165 -0.5611  0.2575
 8094TIP3    H124225   7.646   4.513   6.418  0.0729 -1.2685  0.0915
 8094TIP3    H224226   7.557   4.608   6.342  0.5654 -0.4540  0.5320
 8095TIP3   OH224227   0.802   5.844   5.801 -1.0001  0.2907  0.3399
 8095TIP3    H124228   0.799   5.858   5.896 -2.2815  0.1723  0.3336
 8095TIP3    H224229   0.746   5.913   5.766  0.6885  1.2681 -0.4494
 8096TIP3   OH224230   4.233   0.458   1.373  0.2607  0.2407 -0.4326
 8096TIP3    H124231   4.265   0.542   1.405  1.5947 -0.4026 -0.0487
 8096TIP3    H224232   4.265   0.394   1.436 -1.3241 -0.4925 -0.3495
 8097TIP3   OH224233   1.084   2.161   4.092 -0.2643 -0.4431 -0.4948
 8097TIP3    H124234   1.083   2.256   4.096 -0.5303 -0.4950  0.7452
 8097TIP3    H224235   1.018   2.133   4.156  0.7530 -1.4770  0.1225
 8098TIP3   OH224236   1.159   5.677   4.573 -0.2637  0.3514 -0.3103
 8098TIP3    H124237   1.105   5.602   4.548  0.5465 -0.1994 -0.4201
 8098TIP3    H224238   1.185   5.717   4.489 -0.9436  0.9353 -0.2453
 8099TIP3   OH224239   0.505   5.378   5.497 -0.4161 -0.2362  0.9277
 8099TIP3    H124240   0.422   5.407   5.535 -0.4144  2.1541 -0.7874
 8099TIP3    H224241   0.571   5.404   5.560 -0.7190  0.4223  0.9726
 8100TIP3   OH224242   7.949   4.434   2.606  0.7577 -0.0091 -0.2952
 8100TIP3    H124243   8.034   4.391   2.615  0.1241 -1.3871 -0.7323
 8100TIP3    H224244   7.913   4.400   2.525 -1.6558 -2.0736  1.5555
 8101TIP3   OH224245   0.099   6.256   4.994  1.0675 -0.2697  0.1265
 8101TIP3    H124246   0.187   6.266   4.958  0.4184 -0.4464 -1.5618
 8101TIP3    H224247   0.074   6.167   4.971  0.2625 -0.0632  0.1981
 8102TIP3   OH224248   0.788   6.225   5.983  0.0762  0.1156  0.4619
 8102TIP3    H124249   0.838   6.182   5.914 -0.7727  1.1286 -0.8030
 8102TIP3    H224250   0.751   6.153   6.035  0.6693 -0.6489 -0.1748
 8103TIP3   OH224251   1.117   6.777   3.690  0.7620  0.8298  0.1562
 8103TIP3    H124252   1.196   6.739   3.728  2.0375  1.8281 -1.4316
 8103TIP3    H224253   1.096   6.850   3.748  0.3829 -0.0695  1.1746
 8104TIP3   OH224254   0.475   8.004   6.069  0.6059 -0.2609  1.2381
 8104TIP3    H124255   0.452   7.923   6.115 -1.4819 -1.4758 -1.7075
 8104TIP3    H224256   0.563   7.988   6.034 -0.1449 -1.6648 -0.0768
 8105TIP3   OH224257   0.183   3.761   3.410  0.0305 -0.3015 -0.0872
 8105TIP3    H124258   0.095   3.724   3.419  0.3017 -0.8020  0.5568
 8105TIP3    H224259   0.192   3.780   3.317 -0.4097 -1.1202 -0.2987
 8106TIP3   OH224260   8.433   7.912   4.817 -0.2043  0.0326 -0.0775
 8106TIP3    H124261   8.477   7.923   4.732 -2.7838 -0.7851 -1.5855
 8106TIP3    H224262   8.449   7.994   4.863  0.4941  0.8576 -1.7326
 8107TIP3   OH224263   2.523   4.834   5.083 -0.1150 -0.0666 -0.1847
 8107TIP3    H124264   2.539   4.740   5.088  0.1009  0.0689  1.7791
 8107TIP3    H224265   2.543   4.867   5.170 -1.1564  1.6618 -0.5726
 8108TIP3   OH224266   6.471   2.204   0.295 -0.0100 -0.1424  0.2845
 8108TIP3    H124267   6.528   2.232   0.366  1.4204  1.0200 -1.2755
 8108TIP3    H224268   6.516   2.129   0.256 -0.2715 -0.1366 -0.0362
 8109TIP3   OH224269   1.199   5.777   2.676  0.5617 -0.0522  0.3430
 8109TIP3    H124270   1.178   5.820   2.593 -1.0152 -0.4837  0.4838
 8109TIP3    H224271   1.179   5.684   2.660  0.3279 -0.1488  1.1581
 8110TIP3   OH224272   8.465   3.502   5.078  0.0779 -0.0800 -0.3440
 8110TIP3    H124273   8.389   3.444   5.075 -0.2161  0.2333  0.7287
 8110TIP3    H224274   8.539   3.445   5.058 -0.2511 -0.7536  0.3178
 8111TIP3   OH224275   8.132   4.409   6.863  0.3051 -0.3274 -0.1286
 8111TIP3    H124276   8.216   4.453   6.874  1.5681 -2.3467 -1.3199
 8111TIP3    H224277   8.125   4.395   6.769 -0.4235 -1.9336  0.1509
 8112TIP3   OH224278   1.551   5.097   3.242  0.0446 -0.1551  0.7537
 8112TIP3    H124279   1.598   5.014   3.235  1.0241  0.3299  1.4090
 8112TIP3    H224280   1.459   5.073   3.240  0.3034 -1.0676 -1.2816
 8113TIP3   OH224281   8.478   5.395   3.164  0.3243  0.2998 -0.0040
 8113TIP3    H124282   8.404   5.364   3.112  1.5493 -1.0090 -1.0114
 8113TIP3    H224283   8.505   5.476   3.120 -1.0352  1.2675  0.8911
 8114TIP3   OH224284   0.668   4.747   6.100 -0.1291 -0.2649  0.1240
 8114TIP3    H124285   0.702   4.747   6.190 -0.5813 -0.5365  0.2960
 8114TIP3    H224286   0.622   4.663   6.093  0.6576 -0.6381 -0.6407
 8115TIP3   OH224287   1.198   4.433   4.510 -0.2365  0.5301 -0.5178
 8115TIP3    H124288   1.214   4.410   4.601 -0.6890  0.1365 -0.5372
 8115TIP3    H224289   1.166   4.352   4.470  2.3067  0.0307 -1.6223
 8116TIP3   OH224290   0.469   4.392   5.208  0.5810  0.7025 -0.1023
 8116TIP3    H124291   0.427   4.428   5.286  0.3446 -2.0545  1.1008
 8116TIP3    H224292   0.559   4.421   5.213  0.7200  0.0504  1.5645
 8117TIP3   OH224293   1.209   4.656   5.756  0.2108  0.2583  0.1112
 8117TIP3    H124294   1.283   4.708   5.724  0.0558  0.6190  0.3300
 8117TIP3    H224295   1.158   4.635   5.678  1.2447 -1.1163 -0.2113
 8118TIP3   OH224296   1.236   6.709   4.779  0.3016 -0.4122  0.0161
 8118TIP3    H124297   1.157   6.725   4.727  0.8440 -1.2480 -1.0817
 8118TIP3    H224298   1.278   6.795   4.785 -0.1674 -0.1579 -0.2576
 8119TIP3   OH224299   8.036   5.169   6.405  0.3246  0.3062 -0.3431
 8119TIP3    H124300   7.940   5.170   6.410  0.3370 -1.4533  0.5948
 8119TIP3    H224301   8.065   5.171   6.496  1.1905  0.9928 -0.6283
 8120TIP3   OH224302   1.522   6.357   3.686  0.0325  0.1237  0.1900
 8120TIP3    H124303   1.528   6.405   3.603  0.5595 -0.3136 -0.0255
 8120TIP3    H224304   1.428   6.346   3.701 -0.0908  0.9800  0.1001
 8121TIP3   OH224305   1.860   7.027   3.857  0.2647  0.1991 -0.5571
 8121TIP3    H124306   1.826   6.938   3.867  0.5316 -0.0105 -1.5297
 8121TIP3    H224307   1.904   7.044   3.940 -0.1303 -0.4271 -0.2103
 8122TIP3   OH224308   6.267   1.511   1.420  0.4196  0.1788 -0.2961
 8122TIP3    H124309   6.319   1.486   1.496 -0.1749 -0.2185 -0.0141
 8122TIP3    H224310   6.318   1.479   1.345 -0.5892 -2.4850  0.0720
 8123TIP3   OH224311   7.068   4.983   5.676 -0.0351 -0.2635 -0.2412
 8123TIP3    H124312   7.147   4.993   5.623 -0.3642  0.7539 -0.5539
 8123TIP3    H224313   7.041   5.072   5.695 -1.0995 -0.6072 -0.1223
 8124TIP3   OH224314   5.152   0.343   1.031  0.1862  0.8558  0.2635
 8124TIP3    H124315   5.151   0.424   0.980  0.0344  0.9435  0.4043
 8124TIP3    H224316   5.115   0.368   1.116 -0.2993  0.5388  0.1501
 8125TIP3   OH224317   0.091   5.472   5.897 -0.9082 -0.7733  0.0186
 8125TIP3    H124318   0.180   5.498   5.924 -1.7824  2.3276  0.0768
 8125TIP3    H224319   0.073   5.393   5.948  1.4412 -0.8598  0.7847
 8126TIP3   OH224320   0.595   6.004   5.745  0.2393 -0.1655 -0.2534
 8126TIP3    H124321   0.538   6.068   5.788 -0.6072 -2.0331  1.4616
 8126TIP3    H224322   0.547   5.979   5.666  0.2189  0.7156 -0.5298
 8127TIP3   OH224323   0.912   5.490   6.146  0.5724  0.2112 -0.0100
 8127TIP3    H124324   0.989   5.526   6.102  0.1754  0.7847 -0.2383
 8127TIP3    H224325   0.899   5.404   6.104  0.9590  0.2030 -0.1148
 8128TIP3   OH224326   0.181   6.054   5.636  0.6156 -0.0975  0.4934
 8128TIP3    H124327   0.250   5.992   5.613 -0.2609 -0.2394 -1.9068
 8128TIP3    H224328   0.147   6.023   5.720  0.3891 -2.7100 -0.5198
 8129TIP3   OH224329   7.900   1.894   4.604 -0.1526  0.2602 -0.2677
 8129TIP3    H124330   7.947   1.929   4.528 -0.0471  1.3914  0.3064
 8129TIP3    H224331   7.814   1.936   4.600  0.4528  1.7271  1.2146
 8130TIP3   OH224332   7.810   5.598   5.867  0.3049 -0.3203  0.7831
 8130TIP3    H124333   7.811   5.503   5.874  0.8793 -0.3830 -0.0450
 8130TIP3    H224334   7.751   5.616   5.793 -0.5227  0.0128  1.5104
 8131TIP3   OH224335   8.514   4.399   5.880 -0.2823 -0.4168 -0.0015
 8131TIP3    H124336   8.440   4.457   5.901 -1.3635 -2.0026  0.6483
 8131TIP3    H224337   8.492   4.363   5.794 -0.8096 -1.7153  0.6632
 8132TIP3   OH224338   2.114   5.295   5.144 -0.6074  0.9552 -0.4007
 8132TIP3    H124339   2.196   5.341   5.164 -0.4102  0.1225  0.7784
 8132TIP3    H224340   2.133   5.247   5.064  0.6069 -0.4841  0.7051
 8133TIP3   OH224341   0.719   5.495   6.725 -0.3245 -0.5247 -0.6131
 8133TIP3    H124342   0.740   5.573   6.675  1.3567 -0.4358  0.2084
 8133TIP3    H224343   0.676   5.527   6.804  1.5137 -0.3316  0.3236
 8134TIP3   OH224344   6.818   2.650   0.110 -0.8226  0.4339 -0.0483
 8134TIP3    H124345   6.761   2.673   0.183 -0.0539  0.8713  0.4149
 8134TIP3    H224346   6.819   2.554   0.110 -0.4410  0.4319  0.8163
 8135TIP3   OH224347   0.467   5.739   4.629 -0.0742 -0.0781  0.1379
 8135TIP3    H124348   0.540   5.678   4.628  0.3929  0.4737 -0.8055
 8135TIP3    H224349   0.475   5.786   4.712 -1.5582 -2.6046  1.7735
 8136TIP3   OH224350   4.878   2.058   0.487  0.1922  0.3728  0.4407
 8136TIP3    H124351   4.942   2.006   0.535  0.7761 -0.4174 -1.1673
 8136TIP3    H224352   4.924   2.139   0.464  0.1915  0.3705  0.4314
 8137TIP3   OH224353   6.302   2.809   0.147  0.4600 -0.6578  0.1104
 8137TIP3    H124354   6.383   2.758   0.152  0.6492 -0.3328  0.3941
 8137TIP3    H224355   6.274   2.817   0.239  1.5712  1.5737  0.2804
 8138TIP3   OH224356   1.888   6.300   3.120  0.6240  0.3099 -0.3182
 8138TIP3    H124357   1.842   6.237   3.177 -0.4656  1.5548  0.2201
 8138TIP3    H224358   1.835   6.380   3.127  2.8173  1.7496  0.2017
 8139TIP3   OH224359   8.115   1.970   3.457  0.1269  0.2566  0.5058
 8139TIP3    H124360   8.178   1.926   3.514  0.0975  1.2866  1.3359
 8139TIP3    H224361   8.073   2.035   3.513 -2.7814 -1.4287  0.3987
 8140TIP3   OH224362   2.143   5.428   5.726  0.6442 -0.0616 -0.3363
 8140TIP3    H124363   2.117   5.512   5.688 -2.4595 -1.0534 -0.5819
 8140TIP3    H224364   2.131   5.439   5.820  0.1702 -0.2435 -0.3743
 8141TIP3   OH224365   7.588   5.306   5.773 -0.6180 -0.1898 -0.1303
 8141TIP3    H124366   7.570   5.339   5.685 -2.1964 -0.5469  0.0442
 8141TIP3    H224367   7.502   5.297   5.814 -0.0367 -1.8240  0.7963
 8142TIP3   OH224368   7.699   5.144   4.464  0.0111  0.1397  0.5401
 8142TIP3    H124369   7.630   5.079   4.448  0.6210 -1.0125  2.3607
 8142TIP3    H224370   7.652   5.224   4.488 -0.7262 -0.0505 -0.2522
 8143TIP3   OH224371   0.923   3.240   5.211  0.0053 -0.7471  0.2491
 8143TIP3    H124372   0.941   3.188   5.133  1.7405 -0.2807  0.3171
 8143TIP3    H224373   0.902   3.176   5.279  2.5370 -1.4252  0.4415
 8144TIP3   OH224374   1.619   5.457   6.413 -0.4752  0.5323  0.1021
 8144TIP3    H124375   1.700   5.409   6.431  1.1000  2.5803 -1.3495
 8144TIP3    H224376   1.553   5.389   6.399  1.2417 -1.1773  0.1598
 8145TIP3   OH224377   4.171   1.764   2.247  0.1499 -0.3998  0.0664
 8145TIP3    H124378   4.129   1.745   2.331  0.3123 -2.8246 -0.3613
 8145TIP3    H224379   4.107   1.736   2.181  1.4751 -1.9713 -0.5958
 8146TIP3   OH224380   1.503   5.317   4.244 -0.2896 -0.4263  0.0697
 8146TIP3    H124381   1.590   5.282   4.264 -0.6929 -1.0996  0.6492
 8146TIP3    H224382   1.484   5.376   4.317 -0.6713 -0.9230  0.3761
 8147TIP3   OH224383   1.718   1.779   4.794 -0.0868 -0.4188  0.0748
 8147TIP3    H124384   1.636   1.790   4.842  1.4216  1.2691  2.3821
 8147TIP3    H224385   1.750   1.868   4.780  2.8355 -1.1087  1.9278
 8148TIP3   OH224386   2.761   4.816   4.001  0.3325 -0.1336  0.7436
 8148TIP3    H124387   2.741   4.752   4.069  0.4095  1.6478  2.4776
 8148TIP3    H224388   2.707   4.892   4.022 -0.4904  0.0728 -1.8293
 8149TIP3   OH224389   1.714   4.145   5.025  0.6281  0.4846 -0.1827
 8149TIP3    H124390   1.754   4.220   4.981 -0.4212  1.1121 -0.1012
 8149TIP3    H224391   1.762   4.069   4.992  0.8062  1.0756 -1.3284
 8150TIP3   OH224392   1.439   5.924   6.342  0.2017  0.1359  0.6379
 8150TIP3    H124393   1.469   5.994   6.400  0.4422  0.1845  0.4532
 8150TIP3    H224394   1.377   5.966   6.283 -1.2273 -0.2227  1.8475
 8151TIP3   OH224395   2.494   5.742   5.315  0.2462 -0.4191 -0.3619
 8151TIP3    H124396   2.506   5.663   5.263  0.1502  0.2349 -1.3792
 8151TIP3    H224397   2.548   5.808   5.271  0.9957 -0.1230  0.9550
 8152TIP3   OH224398   7.471   4.010   5.217  0.5215 -0.1808 -0.1260
 8152TIP3    H124399   7.559   4.035   5.188  0.0119  1.4249 -0.3573
 8152TIP3    H224400   7.483   3.985   5.308  1.2194  0.0824 -0.1381
 8153TIP3   OH224401   6.346   3.038   1.121 -0.3184  0.1911 -0.1860
 8153TIP3    H124402   6.278   3.007   1.181 -0.5822  1.1591  0.0171
 8153TIP3    H224403   6.328   3.131   1.110  0.1699  0.1731 -1.1960
 8154TIP3   OH224404   2.516   4.739   5.671  0.3039  0.2743 -0.7819
 8154TIP3    H124405   2.588   4.797   5.696  1.1913 -0.7712 -0.8839
 8154TIP3    H224406   2.440   4.773   5.718  1.2781  0.2167  0.8858
 8155TIP3   OH224407   1.653   6.600   5.034 -0.0548  0.1119  0.3366
 8155TIP3    H124408   1.683   6.643   5.115 -0.8470  0.3783  0.4882
 8155TIP3    H224409   1.575   6.551   5.060 -0.1331 -0.0513 -0.2050
 8156TIP3   OH224410   3.385   6.484   5.217 -0.0809  0.9582 -0.0880
 8156TIP3    H124411   3.308   6.433   5.190  0.3579  1.1636 -1.7745
 8156TIP3    H224412   3.444   6.419   5.255 -0.7166  0.6586  0.3975
 8157TIP3   OH224413   1.066   5.093   6.625 -0.2395  0.1735  0.0644
 8157TIP3    H124414   1.054   5.160   6.692  0.7388 -0.1624  0.5875
 8157TIP3    H224415   0.995   5.031   6.639 -0.6254  0.6236  0.1413
 8158TIP3   OH224416   1.670   6.358   4.147  0.2349  0.1254  0.2838
 8158TIP3    H124417   1.684   6.440   4.099 -1.3959  0.7727  0.8800
 8158TIP3    H224418   1.591   6.320   4.108 -0.1985 -0.1276  1.3835
 8159TIP3   OH224419   0.936   4.850   4.040 -0.4751  0.0314 -0.3985
 8159TIP3    H124420   0.937   4.866   3.946  0.2501  0.7031 -0.2868
 8159TIP3    H224421   0.933   4.755   4.048 -2.1489  0.0127 -1.0936
 8160TIP3   OH224422   1.337   4.410   4.793  1.0421  0.3046  0.3030
 8160TIP3    H124423   1.332   4.398   4.887 -2.6014  1.2549  0.3147
 8160TIP3    H224424   1.293   4.332   4.757  1.7883  0.2841 -0.5865
 8161TIP3   OH224425   2.027   4.106   3.653 -0.0691 -0.4079 -0.3761
 8161TIP3    H124426   1.936   4.075   3.652 -0.2759  0.2276 -1.2546
 8161TIP3    H224427   2.079   4.025   3.654 -0.6238 -0.8105 -1.8945
 8162TIP3   OH224428   2.950   6.957   3.579  0.1446  0.0696  0.1454
 8162TIP3    H124429   2.941   6.877   3.528  0.4676  0.7068 -0.9182
 8162TIP3    H224430   2.894   6.943   3.656 -1.0041 -0.5520 -0.7926
 8163TIP3   OH224431   7.421   5.770   5.963  0.1581  0.0959 -0.1858
 8163TIP3    H124432   7.374   5.744   5.884 -2.1481  2.3851  0.3490
 8163TIP3    H224433   7.442   5.688   6.007 -0.4334 -1.1158 -2.1091
 8164TIP3   OH224434   7.577   0.094   0.588  0.0238  0.1264  0.0945
 8164TIP3    H124435   7.511   0.029   0.615 -2.2643  2.4536  0.2530
 8164TIP3    H224436   7.641   0.043   0.538 -1.9792 -2.1928 -0.2084
 8165TIP3   OH224437   2.013   4.539   6.303 -0.0183 -0.7207 -0.0382
 8165TIP3    H124438   2.035   4.632   6.311 -1.6904 -0.2739 -0.5605
 8165TIP3    H224439   2.092   4.499   6.268  0.3869  0.6650 -0.7364
 8166TIP3   OH224440   1.325   6.287   4.634 -0.4613  0.1226 -0.5174
 8166TIP3    H124441   1.288   6.199   4.642  0.8617 -0.4962 -1.0121
 8166TIP3    H224442   1.329   6.303   4.540  1.5286 -0.2939 -0.5418
 8167TIP3   OH224443   0.901   6.129   3.739 -0.0159 -0.1661  0.0535
 8167TIP3    H124444   0.903   6.144   3.834  1.0924 -0.2691  0.0453
 8167TIP3    H224445   0.910   6.034   3.730 -1.4611 -0.3092 -0.1144
 8168TIP3   OH224446   1.315   5.642   6.459 -0.2004 -0.0528 -0.3121
 8168TIP3    H124447   1.339   5.550   6.445 -1.3444 -0.3120 -0.6726
 8168TIP3    H224448   1.354   5.689   6.386 -0.3349 -0.3868 -0.5995
 8169TIP3   OH224449   0.084   5.478   5.149  0.2294 -0.4560 -0.0949
 8169TIP3    H124450   0.070   5.497   5.056  1.7397  0.3163 -0.1795
 8169TIP3    H224451   0.164   5.424   5.150 -0.4198 -1.4141  0.6712
 8170TIP3   OH224452   5.492   1.889   0.378 -0.5112  0.0383 -0.2811
 8170TIP3    H124453   5.441   1.966   0.401 -0.0451  0.3513 -0.3049
 8170TIP3    H224454   5.482   1.881   0.283 -0.3745  0.1971 -0.3079
 8171TIP3   OH224455   7.278   3.706   6.156  0.1779  0.0403 -0.7208
 8171TIP3    H124456   7.214   3.768   6.190  1.1371 -0.1527  1.4745
 8171TIP3    H224457   7.227   3.645   6.103 -1.6502 -0.8257  1.9820
 8172TIP3   OH224458   1.364   5.368   6.790  0.6636  0.2441  0.4898
 8172TIP3    H124459   1.453   5.355   6.822  0.6102  0.4735  0.7310
 8172TIP3    H224460   1.358   5.462   6.772  0.0006  0.4663  1.8579
 8173TIP3   OH224461   3.723   7.028   4.245 -0.0891 -0.2897 -0.1250
 8173TIP3    H124462   3.814   7.021   4.216  0.0397 -0.2407  0.2556
 8173TIP3    H224463   3.730   7.048   4.339 -0.4777  0.7951 -0.3177
 8174TIP3   OH224464   0.354   7.123   4.955 -0.5035 -0.2749 -0.0341
 8174TIP3    H124465   0.424   7.060   4.974  0.0529  0.2860 -0.1841
 8174TIP3    H224466   0.345   7.175   5.035  1.6883  1.9392 -1.1487
 8175TIP3   OH224467   2.016   5.207   6.264 -0.2197  0.0707 -0.5111
 8175TIP3    H124468   2.078   5.226   6.334 -0.3890 -0.1468 -0.3026
 8175TIP3    H224469   2.067   5.156   6.201 -0.2496 -0.3198 -0.2233
 8176TIP3   OH224470   0.408   5.538   3.219  0.5147 -0.1286 -0.0085
 8176TIP3    H124471   0.344   5.603   3.189 -1.3886 -1.3386  1.3079
 8176TIP3    H224472   0.384   5.457   3.174  1.5821 -0.4261 -0.0622
 8177TIP3   OH224473   2.275   4.393   4.380  0.0768 -0.2294  0.2936
 8177TIP3    H124474   2.348   4.375   4.321  0.9178  2.0091  0.5871
 8177TIP3    H224475   2.203   4.417   4.322 -0.8398 -3.6632 -0.0586
 8178TIP3   OH224476   2.284   5.613   4.168 -0.5204  0.0151  0.6748
 8178TIP3    H124477   2.275   5.551   4.240 -0.0763 -0.0382  0.6846
 8178TIP3    H224478   2.342   5.681   4.202  2.7239 -1.8621 -0.8341
 8179TIP3   OH224479   3.308   4.095   6.766 -0.7727  0.4742  0.0677
 8179TIP3    H124480   3.218   4.068   6.783 -0.0536 -1.5226  0.8094
 8179TIP3    H224481   3.331   4.053   6.684 -0.8375  1.8030 -0.6425
 8180TIP3   OH224482   0.001   4.816   6.265  0.1888  0.1827  0.2027
 8180TIP3    H124483   0.079   4.763   6.250  0.0281  0.1697 -0.6548
 8180TIP3    H224484  -0.068   4.768   6.219 -0.1308  0.6893  0.1569
 8181TIP3   OH224485   0.936   3.900   5.098 -0.2431 -0.1052 -0.6134
 8181TIP3    H124486   1.022   3.941   5.107 -1.2968  1.9050  0.7273
 8181TIP3    H224487   0.875   3.965   5.132 -2.2185 -1.8994 -0.6315
 8182TIP3   OH224488   1.465   4.215   4.292  0.3616 -0.2445  0.0387
 8182TIP3    H124489   1.371   4.205   4.308  0.2638  0.3572 -0.1562
 8182TIP3    H224490   1.496   4.125   4.281  0.1571 -0.5833  1.9874
 8183TIP3   OH224491   3.997   4.801   5.559  0.1180  0.1789  0.5183
 8183TIP3    H124492   3.929   4.737   5.539 -0.9981  2.0359 -1.7823
 8183TIP3    H224493   3.978   4.828   5.649 -0.6429 -1.1822  0.7808
 8184TIP3   OH224494   1.727   4.738   5.401 -0.3207 -0.3259  0.2691
 8184TIP3    H124495   1.636   4.762   5.385 -0.6527 -1.2260  0.7936
 8184TIP3    H224496   1.753   4.789   5.477  0.1960  1.3346 -0.9815
 8185TIP3   OH224497   3.380   7.468   5.357 -0.3834 -0.2468  0.1886
 8185TIP3    H124498   3.457   7.495   5.306 -0.4973 -0.8495 -0.3132
 8185TIP3    H224499   3.311   7.458   5.291 -0.7599 -0.1915  0.5770
 8186TIP3   OH224500   2.352   5.206   3.967 -0.2182  0.1485  0.2523
 8186TIP3    H124501   2.279   5.218   4.028 -0.9979  0.7014 -0.7845
 8186TIP3    H224502   2.359   5.290   3.921  0.6153 -0.1359 -0.1496
 8187TIP3   OH224503   1.319   5.553   2.881 -0.0469 -0.3174 -0.0746
 8187TIP3    H124504   1.269   5.630   2.909  0.8104  0.2070  0.0076
 8187TIP3    H224505   1.287   5.535   2.792  1.0839  1.2759 -0.8313
 8188TIP3   OH224506   1.271   7.724   5.864  0.1311  0.4316  0.2154
 8188TIP3    H124507   1.347   7.760   5.908  1.4313 -1.0591 -0.7489
 8188TIP3    H224508   1.197   7.771   5.901  1.5389  2.1238  0.9451
 8189TIP3   OH224509   2.011   7.091   5.264 -0.0383 -0.2490  0.0975
 8189TIP3    H124510   2.098   7.091   5.223  0.5984  2.3480  1.3566
 8189TIP3    H224511   1.989   6.998   5.272  1.9226 -0.9290 -1.6660
 8190TIP3   OH224512   1.765   5.792   5.187 -0.2977  0.0615  0.2093
 8190TIP3    H124513   1.727   5.856   5.246 -0.4070 -1.7751  2.2186
 8190TIP3    H224514   1.696   5.773   5.123  0.1427  2.7498 -1.1495
 8191TIP3   OH224515   3.063   5.819   4.563 -0.0518  0.4042 -0.4340
 8191TIP3    H124516   3.046   5.848   4.473 -1.3855 -0.6874 -0.5369
 8191TIP3    H224517   3.114   5.738   4.552  1.1286  1.0970 -0.1747
 8192TIP3   OH224518   7.407   3.970   3.867  0.0612  0.1826  0.0852
 8192TIP3    H124519   7.468   3.900   3.891 -0.1253 -0.3708 -1.0108
 8192TIP3    H224520   7.461   4.038   3.829  0.0898  0.0194 -0.1701
 8193TIP3   OH224521   2.710   4.552   4.778  0.2477 -0.5185  0.6921
 8193TIP3    H124522   2.766   4.537   4.702 -0.8393  2.5257 -0.7561
 8193TIP3    H224523   2.626   4.514   4.755  0.1560 -0.3142  0.6858
 8194TIP3   OH224524   3.100   6.143   5.375  0.3541  0.1924 -0.1459
 8194TIP3    H124525   3.124   6.203   5.304  1.2396  1.2367  1.0019
 8194TIP3    H224526   3.009   6.164   5.395  0.9867  1.9012  0.9664
 8195TIP3   OH224527   2.132   4.547   5.162  0.2022 -0.6305  0.0273
 8195TIP3    H124528   2.058   4.607   5.169 -0.1653 -0.7580 -2.2689
 8195TIP3    H224529   2.203   4.590   5.210 -0.9603  0.1558  1.0441
 8196TIP3   OH224530   3.572   6.532   2.804  0.1741  0.5930  0.1917
 8196TIP3    H124531   3.621   6.453   2.827 -1.2961 -0.4394 -0.1590
 8196TIP3    H224532   3.521   6.551   2.882 -2.1393 -0.8652 -0.9214
 8197TIP3   OH224533   1.328   6.969   5.399  0.0676  0.2959  0.1214
 8197TIP3    H124534   1.397   6.966   5.333  0.1350  2.7740  0.0124
 8197TIP3    H224535   1.374   6.981   5.482 -0.1552  1.0614  0.1467
 8198TIP3   OH224536   4.219   5.468   3.985 -0.3579 -0.0028 -0.0189
 8198TIP3    H124537   4.147   5.508   3.937 -1.2396 -0.3905  0.9646
 8198TIP3    H224538   4.220   5.513   4.070  0.7712  0.2254 -0.1367
 8199TIP3   OH224539   3.848   7.154   4.458 -0.9402 -0.6544 -0.0039
 8199TIP3    H124540   3.928   7.208   4.462 -1.1854 -0.1542 -1.5050
 8199TIP3    H224541   3.847   7.106   4.540  0.4660 -0.0120  0.3969
 8200TIP3   OH224542   1.662   7.084   3.678 -0.2711  0.0654 -0.2600
 8200TIP3    H124543   1.600   7.059   3.746  0.1116 -0.4846 -0.1031
 8200TIP3    H224544   1.747   7.083   3.722  0.0999 -1.2563 -0.9644
 8201TIP3   OH224545   3.693   7.327   4.768  0.2091  0.2631  0.2754
 8201TIP3    H124546   3.625   7.390   4.794  2.5382  3.0866 -0.2359
 8201TIP3    H224547   3.752   7.324   4.843  0.3251 -1.0265  0.1336
 8202TIP3   OH224548   1.687   7.323   3.278  0.3702 -0.3748  0.5490
 8202TIP3    H124549   1.727   7.239   3.255  0.6161 -0.2419  0.4892
 8202TIP3    H224550   1.607   7.300   3.325 -0.3042 -0.6513 -0.7130
 8203TIP3   OH224551   1.848   7.479   4.269 -0.5370 -0.5348 -0.1398
 8203TIP3    H124552   1.939   7.466   4.242 -0.3435  2.3439 -1.0308
 8203TIP3    H224553   1.843   7.437   4.355  1.7113 -0.4613  0.0601
 8204TIP3   OH224554   0.561   7.734   6.894  0.1504 -0.3159 -0.1405
 8204TIP3    H124555   0.640   7.728   6.949  1.3176 -1.0299 -1.8424
 8204TIP3    H224556   0.547   7.645   6.863 -0.9430 -0.0600 -0.3830
 8205TIP3   OH224557   1.448   7.312   5.235 -0.0004  0.1292 -0.0834
 8205TIP3    H124558   1.466   7.316   5.329  1.4543  0.0170 -0.3456
 8205TIP3    H224559   1.532   7.288   5.195 -0.3270  1.2284 -1.5053
 8206TIP3   OH224560   2.220   7.435   5.704  0.7627 -0.1010  0.0750
 8206TIP3    H124561   2.148   7.494   5.730  0.6561 -0.4790  0.6626
 8206TIP3    H224562   2.283   7.443   5.776  1.2547  0.1345 -0.3824
 8207TIP3   OH224563   3.049   6.192   4.155 -0.3605  0.4673  0.0004
 8207TIP3    H124564   2.961   6.214   4.184 -0.1340  0.7682  0.4544
 8207TIP3    H224565   3.078   6.269   4.106 -0.7048  0.0015 -0.9558
 8208TIP3   OH224566   1.726   5.100   6.234 -0.1766  0.0095  0.0950
 8208TIP3    H124567   1.766   5.027   6.187 -0.4793  0.0099 -0.1678
 8208TIP3    H224568   1.796   5.133   6.292  0.8159  1.1846 -1.7010
 8209TIP3   OH224569   0.224   5.166   5.601  0.2878  0.1109 -0.1732
 8209TIP3    H124570   0.200   5.085   5.647  1.1029  0.2880  0.5800
 8209TIP3    H224571   0.160   5.172   5.529 -0.7988 -0.3453  0.7307
 8210TIP3   OH224572   1.369   4.053   5.947 -0.2295  0.1384  0.7407
 8210TIP3    H124573   1.340   4.013   5.865 -0.0583  0.6466  0.4321
 8210TIP3    H224574   1.405   3.980   5.998 -0.6171 -0.2298  0.4924
 8211TIP3   OH224575   0.554   6.110   3.975 -0.0918 -0.2096 -0.1285
 8211TIP3    H124576   0.474   6.126   4.024  0.2882 -1.6477  1.0109
 8211TIP3    H224577   0.614   6.178   4.005 -0.5145  0.1568 -0.1123
 8212TIP3   OH224578   1.443   7.293   5.510  0.4526 -0.0965  0.5153
 8212TIP3    H124579   1.479   7.356   5.573  1.8445  0.8892 -1.2408
 8212TIP3    H224580   1.459   7.208   5.550 -0.4956  0.5889  2.4238
 8213TIP3   OH224581   3.182   6.730   3.599 -0.3145  0.2511  0.6957
 8213TIP3    H124582   3.175   6.824   3.617 -0.3188  0.3192  0.3475
 8213TIP3    H224583   3.091   6.701   3.589 -0.3817 -0.0589  2.1546
 8214TIP3   OH224584   2.472   4.934   6.102 -0.5817 -0.3575  0.3549
 8214TIP3    H124585   2.434   4.905   6.185  0.4991 -2.5352  0.1278
 8214TIP3    H224586   2.538   4.868   6.082 -0.2585  0.5946 -1.8308
 8215TIP3   OH224587   1.083   7.261   3.249 -0.3367  0.3321 -0.5251
 8215TIP3    H124588   1.176   7.256   3.230 -0.4614  0.4218 -1.1628
 8215TIP3    H224589   1.044   7.194   3.193 -0.5786 -0.2115  0.2682
 8216TIP3   OH224590   0.575   3.217   4.449 -0.8283 -0.2850 -0.7366
 8216TIP3    H124591   0.602   3.150   4.386 -2.2157  0.1298 -1.8116
 8216TIP3    H224592   0.563   3.296   4.396 -1.6168  0.1802  0.1154
 8217TIP3   OH224593   3.555   5.153   4.649  0.3237  0.1400 -0.7894
 8217TIP3    H124594   3.553   5.224   4.714  1.5801 -0.1668 -0.4019
 8217TIP3    H224595   3.593   5.193   4.571  2.5985 -0.4949 -0.0520
 8218TIP3   OH224596   2.204   6.223   3.842 -0.3869  0.2557  0.4251
 8218TIP3    H124597   2.192   6.128   3.835 -0.7530  0.4100 -1.2628
 8218TIP3    H224598   2.127   6.260   3.800  1.0763  1.2817 -1.4085
 8219TIP3   OH224599   3.839   6.635   5.640  0.1687  0.2599  0.4582
 8219TIP3    H124600   3.872   6.656   5.727 -1.7271 -0.5081  1.3853
 8219TIP3    H224601   3.861   6.712   5.587  4.9835 -0.9186  0.5335
 8220TIP3   OH224602   1.409   6.551   5.195 -0.2790 -0.0204 -0.7333
 8220TIP3    H124603   1.428   6.617   5.262  0.3632  0.0473 -0.9784
 8220TIP3    H224604   1.379   6.475   5.244 -2.4697  0.9388 -0.5253
 8221TIP3   OH224605   1.280   6.038   3.549 -0.9184 -0.7709  0.5178
 8221TIP3    H124606   1.230   5.966   3.510  0.4390 -1.3302 -0.2245
 8221TIP3    H224607   1.339   6.067   3.479 -0.4179  0.0893  1.2816
 8222TIP3   OH224608   1.305   7.434   2.706 -0.1006 -0.2532  0.0580
 8222TIP3    H124609   1.362   7.509   2.691 -1.4639  0.6467 -0.7906
 8222TIP3    H224610   1.251   7.459   2.782 -0.6698 -0.2969 -0.3257
 8223TIP3   OH224611   1.262   5.565   3.301 -0.0906  0.3441 -0.1074
 8223TIP3    H124612   1.182   5.610   3.329  0.8020  1.7081  0.3049
 8223TIP3    H224613   1.243   5.472   3.315 -1.2514  0.7127  0.8929
 8224TIP3   OH224614   3.457   6.721   5.392 -0.1118  0.4262 -0.2497
 8224TIP3    H124615   3.399   6.655   5.353 -1.7557  0.3905  2.1680
 8224TIP3    H224616   3.545   6.690   5.371 -0.8671 -2.3914  0.5200
 8225TIP3   OH224617   0.504   5.676   5.322 -0.1020  0.1202  0.2812
 8225TIP3    H124618   0.501   5.642   5.232 -1.9607  2.1218 -0.4509
 8225TIP3    H224619   0.473   5.603   5.376 -2.3675  0.0081 -1.0876
 8226TIP3   OH224620   0.796   4.796   6.486  0.0348 -0.2407 -0.0907
 8226TIP3    H124621   0.830   4.723   6.538 -0.0284  0.7343  1.3689
 8226TIP3    H224622   0.873   4.832   6.442  0.1712 -0.7860 -0.2974
 8227TIP3   OH224623   4.193   7.744   5.406  0.0921 -0.1354  0.5644
 8227TIP3    H124624   4.165   7.827   5.444  1.6859  1.6406 -1.9769
 8227TIP3    H224625   4.161   7.748   5.316 -0.6068 -2.7021  0.6775
 8228TIP3   OH224626   3.081   6.630   6.368 -0.1213 -0.3399  0.1749
 8228TIP3    H124627   3.150   6.597   6.311 -0.5473  0.1675 -0.6666
 8228TIP3    H224628   3.111   6.612   6.457  0.4579 -1.3503 -0.2197
 8229TIP3   OH224629   0.865   4.931   3.485 -0.6907  0.2014  0.4136
 8229TIP3    H124630   0.927   4.940   3.412 -2.9912  0.9743 -1.4852
 8229TIP3    H224631   0.821   4.848   3.469 -2.5293  1.2553 -0.1639
 8230TIP3   OH224632   1.286   5.371   6.121  0.5972 -0.0195  0.2884
 8230TIP3    H124633   1.329   5.287   6.105  0.3620  0.0101 -0.5091
 8230TIP3    H224634   1.356   5.436   6.113  1.1419 -0.2881  2.7118
 8231TIP3   OH224635   3.141   5.354   6.609 -0.8709  0.3004 -0.4322
 8231TIP3    H124636   3.067   5.413   6.594 -2.3858 -1.5686 -0.3951
 8231TIP3    H224637   3.179   5.385   6.692 -0.2202  2.6456 -1.5647
 8232TIP3   OH224638   1.599   5.741   4.971 -0.9724 -0.0558 -0.2310
 8232TIP3    H124639   1.655   5.719   4.896  0.7739  1.7562  0.5171
 8232TIP3    H224640   1.566   5.829   4.952 -1.8824 -0.2568  0.3590
 8233TIP3   OH224641   2.122   4.538   4.111  0.3772 -0.4950 -0.5873
 8233TIP3    H124642   2.167   4.613   4.151  0.3918 -0.8916  0.1549
 8233TIP3    H224643   2.031   4.566   4.104  0.5459 -0.0828 -1.1169
 8234TIP3   OH224644   1.603   5.665   5.442 -0.1071 -0.6900  0.3798
 8234TIP3    H124645   1.556   5.734   5.396  0.3592 -0.8459 -0.3374
 8234TIP3    H224646   1.597   5.689   5.534  0.7330  0.7281  0.0767
 8235TIP3   OH224647   0.998   5.638   5.038 -0.2347 -0.3034  0.5359
 8235TIP3    H124648   1.092   5.651   5.026 -0.3905  0.9319  0.5510
 8235TIP3    H224649   0.968   5.598   4.956 -0.4062  3.2725 -1.2590
 8236TIP3   OH224650   1.902   4.077   4.620 -0.0450 -0.3603 -0.4548
 8236TIP3    H124651   1.826   4.024   4.599 -0.5209  0.2695 -0.3164
 8236TIP3    H224652   1.892   4.156   4.568 -0.0193  0.1727  0.3319
 8237TIP3   OH224653   1.172   5.134   3.425 -0.0308 -0.1289  0.3007
 8237TIP3    H124654   1.146   5.053   3.383  1.9996  0.7695 -2.8919
 8237TIP3    H224655   1.143   5.203   3.364  1.6788  1.3020  1.0615
 8238TIP3   OH224656   2.045   3.280   5.010  0.0599 -0.4580  0.6480
 8238TIP3    H124657   2.019   3.358   5.060  0.7100 -1.4938  2.6651
 8238TIP3    H224658   2.027   3.207   5.069  1.1774 -1.6999 -0.5248
 8239TIP3   OH224659   1.135   5.258   1.648 -0.4495 -0.3258  0.1576
 8239TIP3    H124660   1.076   5.300   1.586 -1.9165  0.2581  1.9140
 8239TIP3    H224661   1.095   5.173   1.667 -0.0234 -0.4930  0.3365
 8240TIP3   OH224662   3.114   0.332   2.458 -0.0560  0.1815  0.2042
 8240TIP3    H124663   3.153   0.342   2.545  1.1697 -2.0822 -0.0451
 8240TIP3    H224664   3.021   0.320   2.475  0.1371  0.0095  1.2110
 8241TIP3   OH224665   0.353   4.693   5.363 -0.2883  0.1594  0.6470
 8241TIP3    H124666   0.435   4.696   5.413 -1.1633  2.2275  2.0346
 8241TIP3    H224667   0.359   4.767   5.303  0.4263 -1.8831 -1.8554
 8242TIP3   OH224668   0.134   5.735   5.330 -0.6350 -0.4653  0.2542
 8242TIP3    H124669   0.150   5.667   5.264  1.3973 -0.8588  1.1208
 8242TIP3    H224670   0.175   5.814   5.294 -1.3632 -0.1577  0.0970
 8243TIP3   OH224671   3.209   3.498   3.796 -0.0720  0.0108  0.0587
 8243TIP3    H124672   3.246   3.580   3.828 -0.1088 -0.4313  1.2809
 8243TIP3    H224673   3.254   3.481   3.713  2.6779 -0.6583  1.6349
 8244TIP3   OH224674   1.990   6.311   3.698  1.0386  0.1105 -0.0294
 8244TIP3    H124675   1.939   6.252   3.643  1.6420  1.2603 -1.8696
 8244TIP3    H224676   1.933   6.387   3.712  0.9996 -0.0476  0.7115
 8245TIP3   OH224677   2.460   6.284   3.967  0.7698 -0.0225  0.0482
 8245TIP3    H124678   2.450   6.357   4.028 -0.3170 -2.2786  2.7255
 8245TIP3    H224679   2.376   6.279   3.921  1.2144  1.0448 -0.8760
 8246TIP3   OH224680   1.894   7.832   5.276  0.3508  0.5653 -0.1751
 8246TIP3    H124681   1.960   7.762   5.271  1.3027  1.4197  0.1583
 8246TIP3    H224682   1.946   7.913   5.279 -0.7472  1.2936 -0.7653
 8247TIP3   OH224683   3.122   5.481   4.406  0.1180  0.2858  0.1053
 8247TIP3    H124684   3.158   5.481   4.494  0.3368  0.0984  0.0148
 8247TIP3    H224685   3.169   5.551   4.361  1.9583 -1.4145 -0.6646
 8248TIP3   OH224686   1.807   5.988   4.401  0.1492 -0.4027  0.0643
 8248TIP3    H124687   1.724   5.956   4.436  0.5565  0.1174  1.5697
 8248TIP3    H224688   1.853   5.910   4.371 -0.1170 -0.9048  0.9480
 8249TIP3   OH224689   2.339   6.526   3.811  0.0593 -0.2396 -0.2022
 8249TIP3    H124690   2.430   6.499   3.798 -0.4109 -0.4006 -3.8340
 8249TIP3    H224691   2.337   6.617   3.781 -0.5701  0.4588  1.8897
 8250TIP3   OH224692   0.092   4.234   4.376  0.3493 -0.2290 -0.1502
 8250TIP3    H124693   0.091   4.280   4.460  0.4776  0.1934 -0.3788
 8250TIP3    H224694   0.135   4.151   4.395  1.4585  0.3587 -0.0447
 8251TIP3   OH224695   1.722   6.022   3.002 -0.5638  0.4826 -0.1790
 8251TIP3    H124696   1.661   5.991   2.935 -1.0268  0.8622  0.0638
 8251TIP3    H224697   1.808   6.008   2.963 -0.7694 -0.6825 -0.2605
 8252TIP3   OH224698   0.653   7.305   3.976 -0.0103 -0.8977 -0.0721
 8252TIP3    H124699   0.646   7.248   4.052  1.9475  0.0788  0.8647
 8252TIP3    H224700   0.563   7.327   3.954 -0.5572 -0.0435  2.8473
 8253TIP3   OH224701   0.586   5.901   2.538  0.1507 -0.2410  0.1510
 8253TIP3    H124702   0.664   5.873   2.585  1.4651  1.4072 -0.9996
 8253TIP3    H224703   0.523   5.924   2.607  1.5587  0.8021  1.1095
 8254TIP3   OH224704   1.809   5.569   5.782  0.1754  0.0787  0.1196
 8254TIP3    H124705   1.848   5.656   5.791 -0.9754  0.4037  2.6066
 8254TIP3    H224706   1.718   5.586   5.756 -0.4266 -0.2766  1.9128
 8255TIP3   OH224707   1.697   5.058   3.498  0.0684  0.2640 -0.3349
 8255TIP3    H124708   1.680   5.031   3.407 -0.4777  1.7677 -0.6972
 8255TIP3    H224709   1.618   5.033   3.546  0.7218 -1.3677 -0.0615
 8256TIP3   OH224710   0.967   6.039   3.203  0.2565  0.1452  0.1567
 8256TIP3    H124711   1.011   6.123   3.217 -2.0481  1.1923  1.5121
 8256TIP3    H224712   0.905   6.057   3.132 -0.7013 -0.2062  0.8854
 8257TIP3   OH224713   2.365   7.443   4.006  0.0107  0.1360 -0.1940
 8257TIP3    H124714   2.436   7.483   3.956 -0.1027 -0.0574 -0.5161
 8257TIP3    H224715   2.343   7.363   3.957  0.3275 -0.3914  0.5192
 8258TIP3   OH224716   0.724   4.759   5.254  0.0634 -0.9208 -0.0420
 8258TIP3    H124717   0.710   4.667   5.275 -2.4366 -0.6556 -0.4151
 8258TIP3    H224718   0.636   4.797   5.251  0.7574  0.6177 -3.8512
 8259TIP3   OH224719   8.522   4.905   4.587  0.1083  0.7009 -0.2987
 8259TIP3    H124720   8.447   4.915   4.647 -0.1741 -0.6820 -0.4062
 8259TIP3    H224721   8.512   4.816   4.551  1.7068  0.5754 -0.4456
 8260TIP3   OH224722   2.167   4.240   6.210 -0.6259 -0.0175 -0.1406
 8260TIP3    H124723   2.254   4.225   6.175 -0.3583  3.6846 -1.2521
 8260TIP3    H224724   2.110   4.239   6.134 -1.1327  0.4777  0.2256
 8261TIP3   OH224725   2.243   6.120   3.545  0.2196 -0.1757 -0.2443
 8261TIP3    H124726   2.273   6.211   3.555  0.7536 -0.5849  2.1334
 8261TIP3    H224727   2.148   6.128   3.533  0.3421  0.7242 -0.7131
 8262TIP3   OH224728   5.563   7.404   4.139 -0.1707  0.1637 -0.5320
 8262TIP3    H124729   5.652   7.407   4.104 -0.1015 -0.7735 -0.4411
 8262TIP3    H224730   5.511   7.454   4.077  0.4454  0.8470 -0.5075
 8263TIP3   OH224731   3.827   5.862   3.314  0.2225 -0.1446  0.3674
 8263TIP3    H124732   3.754   5.890   3.370 -0.0012 -0.0905  0.0507
 8263TIP3    H224733   3.803   5.773   3.288  0.2424 -0.1048  0.2150
 8264TIP3   OH224734   3.050   4.810   3.771  0.4152 -0.0834 -0.1913
 8264TIP3    H124735   2.992   4.735   3.784  1.5273 -0.7057  1.1465
 8264TIP3    H224736   3.073   4.806   3.678  0.0731 -1.0930 -0.2375
 8265TIP3   OH224737   5.085   0.773   2.524  0.5820  0.1475 -0.2699
 8265TIP3    H124738   5.063   0.704   2.461 -0.7633  1.3004 -1.0904
 8265TIP3    H224739   5.007   0.783   2.578  0.9816  0.6219  0.2327
 8266TIP3   OH224740   2.239   4.197   4.609 -0.2737 -0.0573  0.0504
 8266TIP3    H124741   2.235   4.230   4.519 -1.3364 -0.1832  0.0451
 8266TIP3    H224742   2.166   4.240   4.653  0.2974  0.0693  0.8821
 8267TIP3   OH224743   1.598   6.831   4.812  0.4759 -0.4349 -0.3055
 8267TIP3    H124744   1.533   6.865   4.873  1.2918 -0.1693  0.4276
 8267TIP3    H224745   1.590   6.736   4.819  1.4284 -0.4260  1.1812
 8268TIP3   OH224746   1.787   7.593   2.670 -0.1146 -0.5148  0.2434
 8268TIP3    H124747   1.752   7.530   2.732 -1.0492  0.7042  0.9906
 8268TIP3    H224748   1.880   7.600   2.692 -0.1789 -1.0281  0.6796
 8269TIP3   OH224749   1.804   6.763   3.898 -0.0711 -0.0356  0.0115
 8269TIP3    H124750   1.806   6.673   3.867 -0.8484  0.2439 -0.8996
 8269TIP3    H224751   1.724   6.770   3.948 -1.0067  0.6347 -1.5291
 8270TIP3   OH224752   8.141   0.800   0.040 -0.4658 -0.3329 -0.0720
 8270TIP3    H124753   8.200   0.858   0.090 -0.6684 -2.3637  2.6457
 8270TIP3    H224754   8.054   0.818   0.076 -1.0582  0.2339 -1.7407
 8271TIP3   OH224755   4.802   5.966   3.538 -0.4270  0.0678  0.3897
 8271TIP3    H124756   4.838   5.978   3.450  0.7424 -0.4027  0.7954
 8271TIP3    H224757   4.721   6.016   3.538  1.0284  2.5317 -0.0416
 8272TIP3   OH224758   2.202   7.315   3.418 -0.3976 -0.2068  0.2557
 8272TIP3    H124759   2.206   7.227   3.380 -0.2111 -0.0835 -0.0114
 8272TIP3    H224760   2.206   7.373   3.342  0.6824  0.0536  0.5103
 8273TIP3   OH224761   2.925   7.239   2.629  0.0924  0.4700 -0.3191
 8273TIP3    H124762   2.970   7.305   2.576 -0.0641  0.2437 -0.7356
 8273TIP3    H224763   2.943   7.265   2.720 -0.8811  1.7011 -0.4745
 8274TIP3   OH224764   4.317   6.822   4.887  0.0007 -0.5706 -0.0257
 8274TIP3    H124765   4.280   6.783   4.966 -1.5260 -1.1839 -1.0313
 8274TIP3    H224766   4.310   6.917   4.903 -1.5304 -0.6790  0.0172
 8275TIP3   OH224767   3.299   6.701   4.722 -0.4703 -0.5653  0.0273
 8275TIP3    H124768   3.304   6.779   4.778  0.3788 -1.3695  1.1187
 8275TIP3    H224769   3.233   6.722   4.657  0.1381  1.2864 -0.0334
 8276TIP3   OH224770   3.011   5.938   5.215  0.0371  0.1768 -0.5929
 8276TIP3    H124771   3.048   6.009   5.267 -0.0745  0.5100 -0.9624
 8276TIP3    H224772   2.977   5.982   5.137  1.0113 -0.4192 -1.3638
 8277TIP3   OH224773   1.872   6.570   3.457 -0.5073 -0.4720  0.1773
 8277TIP3    H124774   1.871   6.666   3.457  2.3328 -0.3885 -1.7261
 8277TIP3    H224775   1.804   6.546   3.394  0.3048  0.3903 -1.0683
 8278TIP3   OH224776   0.033   7.068   2.226 -0.0004  0.6487  0.1288
 8278TIP3    H124777   0.090   7.025   2.290  0.5413 -0.0860 -0.8348
 8278TIP3    H224778  -0.055   7.033   2.245  0.0323  1.0146  0.9580
 8279TIP3   OH224779   0.187   5.986   3.595  0.8835  0.0435  0.0446
 8279TIP3    H124780   0.261   6.011   3.650  0.8195  0.9793 -0.2717
 8279TIP3    H224781   0.224   5.926   3.530  1.3681  0.4768 -0.0884
 8280TIP3   OH224782   2.717   4.822   4.700  0.2235 -0.2195 -0.2189
 8280TIP3    H124783   2.721   4.732   4.735  2.7339 -0.2392 -0.5225
 8280TIP3    H224784   2.791   4.828   4.640 -0.4935  1.7760 -0.9352
 8281TIP3   OH224785   4.938   6.470   3.226 -0.2750 -0.1884  0.0385
 8281TIP3    H124786   4.946   6.379   3.196 -0.6351 -0.4995  0.8775
 8281TIP3    H224787   4.850   6.475   3.264 -0.5089  0.6887 -0.6017
 8282TIP3   OH224788   1.757   6.815   3.611 -0.7745  0.5311  0.0995
 8282TIP3    H124789   1.755   6.905   3.578 -0.5138 -0.4675 -2.8059
 8282TIP3    H224790   1.831   6.812   3.671  4.2996  0.3713 -5.7460
 8283TIP3   OH224791   1.027   6.752   2.712  0.1719  0.5939 -0.0373
 8283TIP3    H124792   1.022   6.817   2.782  1.1044 -0.8098  1.3661
 8283TIP3    H224793   1.084   6.683   2.746  0.0549 -0.4798 -1.8954
 8284TIP3   OH224794   3.477   6.141   4.501  0.0651  0.2569  0.2632
 8284TIP3    H124795   3.472   6.151   4.596 -1.2846  1.3948  0.0792
 8284TIP3    H224796   3.485   6.230   4.468 -0.6972 -0.0550 -0.7648
 8285TIP3   OH224797   1.932   4.931   3.613  0.2168 -0.0410 -0.1440
 8285TIP3    H124798   1.961   4.957   3.701  0.0344 -0.1288 -0.0567
 8285TIP3    H224799   1.851   4.980   3.599 -0.8927 -1.6278  0.5958
 8286TIP3   OH224800   2.264   7.727   4.636  0.2326 -0.6737 -0.6082
 8286TIP3    H124801   2.223   7.809   4.663  1.5612 -0.1325 -0.2226
 8286TIP3    H224802   2.284   7.682   4.718  0.8365 -0.7197 -0.7754
 8287TIP3   OH224803   1.988   3.769   1.746 -0.3036  0.1317 -0.0830
 8287TIP3    H124804   2.066   3.728   1.783 -0.3453 -0.2446 -0.4028
 8287TIP3    H224805   1.963   3.711   1.673 -0.7155  0.4003 -0.1573
 8288TIP3   OH224806   2.165   5.911   4.395  0.0930  0.0789  0.1889
 8288TIP3    H124807   2.118   5.844   4.346  0.2905  1.0170 -1.3330
 8288TIP3    H224808   2.144   5.993   4.349 -0.2434  1.0882  2.0645
 8289TIP3   OH224809   1.656   5.410   5.277 -0.6129 -0.0704  0.5198
 8289TIP3    H124810   1.751   5.412   5.263 -0.3513  0.8313  2.3153
 8289TIP3    H224811   1.636   5.494   5.317 -2.7003  1.1295 -2.8241
 8290TIP3   OH224812   2.818   6.955   4.199  0.3599 -0.2285 -0.0820
 8290TIP3    H124813   2.803   6.913   4.114 -1.7269 -1.2661  0.7642
 8290TIP3    H224814   2.780   7.042   4.190 -1.6778 -1.0537  0.4194
 8291TIP3   OH224815   0.733   0.346   4.526  0.0330  0.0233  0.3958
 8291TIP3    H124816   0.756   0.425   4.576 -0.8450 -0.2262  1.2233
 8291TIP3    H224817   0.652   0.316   4.567  0.3827 -1.3318  0.1026
 8292TIP3   OH224818   3.352   6.486   3.755 -0.4725 -0.4232  0.3125
 8292TIP3    H124819   3.409   6.452   3.824  1.6295  3.8903  0.8766
 8292TIP3    H224820   3.412   6.505   3.682 -1.6545  1.1846 -0.2750
 8293TIP3   OH224821   2.034   5.853   2.902 -0.0154 -0.1019 -0.1671
 8293TIP3    H124822   2.047   5.805   2.984  1.0615 -0.7461 -0.6974
 8293TIP3    H224823   2.079   5.799   2.836 -2.9777 -0.8811 -1.6020
 8294TIP3   OH224824   3.421  -0.018   4.538 -0.1283 -0.3139 -0.3581
 8294TIP3    H124825   3.498   0.012   4.586 -0.1417 -0.2196 -0.3975
 8294TIP3    H224826   3.435   0.011   4.448  0.1570 -0.9629 -0.5264
 8295TIP3   OH224827   1.380   5.929   4.746  0.3339  0.4445 -0.4478
 8295TIP3    H124828   1.307   5.983   4.718 -0.0073  0.5569  0.6521
 8295TIP3    H224829   1.426   5.981   4.811  0.2372 -0.4196  0.3283
 8296TIP3   OH224830   2.312   7.547   6.560  0.5109  0.3890  0.4873
 8296TIP3    H124831   2.382   7.609   6.576  2.5011 -1.7851  0.4539
 8296TIP3    H224832   2.288   7.515   6.647  0.0745  0.5736  0.4358
 8297TIP3   OH224833   2.345   7.189   3.863 -0.1437 -0.1717 -0.1240
 8297TIP3    H124834   2.272   7.222   3.810  1.3030  0.9412 -1.4508
 8297TIP3    H224835   2.358   7.099   3.831  0.4937  0.3754 -1.4545
 8298TIP3   OH224836   1.542   6.012   4.956  0.4403  0.5513 -0.4925
 8298TIP3    H124837   1.634   6.035   4.954  0.2705  1.3198  0.4705
 8298TIP3    H224838   1.513   6.033   5.045 -0.4946 -0.3294 -0.5698
 8299TIP3   OH224839   3.537   5.830   3.651  0.1586  0.0681  0.1404
 8299TIP3    H124840   3.527   5.741   3.617  0.9215 -0.0167  0.1281
 8299TIP3    H224841   3.571   5.880   3.577 -0.9351  0.5223 -0.0519
 8300TIP3   OH224842   2.918   6.911   6.131  0.0754 -0.2145 -0.4146
 8300TIP3    H124843   2.840   6.871   6.091  0.5810 -0.7745 -0.8638
 8300TIP3    H224844   2.991   6.870   6.085  0.6888 -1.0877  1.2906
 8301TIP3   OH224845   3.408   5.305   3.544  0.1055 -0.4832 -0.0223
 8301TIP3    H124846   3.323   5.262   3.534 -0.0007 -0.4865  0.8543
 8301TIP3    H224847   3.470   5.246   3.502 -0.2933 -0.5900 -0.4636
 8302TIP3   OH224848   1.996   6.536   5.162  0.0233 -0.3707  0.7437
 8302TIP3    H124849   2.066   6.550   5.098 -0.6392 -1.0569 -0.1497
 8302TIP3    H224850   1.999   6.442   5.180 -0.9489 -0.4764  0.3700
 8303TIP3   OH224851   0.626   6.659   4.129 -0.7760 -0.3471  0.7048
 8303TIP3    H124852   0.640   6.595   4.059 -1.1055 -0.0583  0.3641
 8303TIP3    H224853   0.632   6.609   4.210 -0.7065 -0.7482  0.4512
 8304TIP3   OH224854   3.041   7.212   3.917  0.1690 -0.4626  0.4063
 8304TIP3    H124855   2.952   7.234   3.945 -0.9051 -3.3424 -0.5554
 8304TIP3    H224856   3.066   7.139   3.972  1.7129 -0.0914  0.2237
 8305TIP3   OH224857   1.838   5.340   5.599  0.1843 -0.0402 -0.2822
 8305TIP3    H124858   1.895   5.372   5.529  1.2847 -1.3917 -0.0469
 8305TIP3    H224859   1.831   5.413   5.661  1.3679  0.2712 -0.5087
 8306TIP3   OH224860   1.371   7.070   6.069  0.1722  0.2195 -0.3071
 8306TIP3    H124861   1.415   7.078   6.153 -0.0007 -0.7495 -0.1241
 8306TIP3    H224862   1.313   6.995   6.079 -1.6784  1.5795 -0.4838
 8307TIP3   OH224863   0.690   5.610   6.006 -0.4959  0.2563 -0.4556
 8307TIP3    H124864   0.645   5.641   6.085  0.1453  2.6278 -1.0006
 8307TIP3    H224865   0.764   5.560   6.039 -1.6436 -0.9109  0.4369
 8308TIP3   OH224866   3.109   4.674   2.589 -0.4040  0.0708 -0.4498
 8308TIP3    H124867   3.114   4.686   2.684  0.2064 -1.1273 -0.3229
 8308TIP3    H224868   3.018   4.693   2.567 -0.6803 -0.1923  0.4485
 8309TIP3   OH224869   1.106   5.140   4.031  0.5608  0.8462 -0.3589
 8309TIP3    H124870   1.110   5.045   4.015 -0.1849  0.4107  1.8693
 8309TIP3    H224871   1.055   5.174   3.958 -0.2409 -0.6674 -0.5286
 8310TIP3   OH224872   2.129   5.121   4.708 -0.0961 -0.3160  0.5459
 8310TIP3    H124873   2.201   5.174   4.741 -0.3382  0.2146  0.2240
 8310TIP3    H224874   2.169   5.063   4.643  0.0699 -0.1257  0.4786
 8311TIP3   OH224875   4.011   5.973   4.895 -0.4356 -0.2153  0.0646
 8311TIP3    H124876   4.068   5.913   4.847  0.1829  1.3609 -1.1953
 8311TIP3    H224877   4.066   6.008   4.965 -0.4138 -0.1117 -0.0047
 8312TIP3   OH224878   2.688   5.498   5.616  0.0465  0.0779  0.0088
 8312TIP3    H124879   2.727   5.489   5.529 -0.3739 -1.9855  0.0183
 8312TIP3    H224880   2.608   5.549   5.601 -1.2301 -2.2121 -1.1909
 8313TIP3   OH224881   2.521   6.249   5.224 -0.7349  0.1818  0.0424
 8313TIP3    H124882   2.582   6.303   5.274  0.1870 -0.9526  0.1741
 8313TIP3    H224883   2.514   6.292   5.139 -2.3651  2.1629  1.1372
 8314TIP3   OH224884   2.823   6.867   6.914 -0.1709  0.2403  0.4211
 8314TIP3    H124885   2.789   6.950   6.881  0.3716  0.1104 -0.4865
 8314TIP3    H224886   2.899   6.891   6.967 -0.0849  0.3373  0.2545
 8315TIP3   OH224887   0.838   6.990   6.164  0.4546  0.2507  0.1136
 8315TIP3    H124888   0.783   7.058   6.126  0.7651  1.1084  1.1779
 8315TIP3    H224889   0.923   7.003   6.123  0.0655 -0.6159 -0.9903
 8316TIP3   OH224890   7.953   4.778   5.524  0.3832 -0.3237  0.2999
 8316TIP3    H124891   7.940   4.846   5.458  1.9880 -2.2445 -2.1068
 8316TIP3    H224892   7.872   4.727   5.524 -0.0150  0.2995  0.6044
 8317TIP3   OH224893   1.855   6.052   4.939  0.0524  0.2013  0.1052
 8317TIP3    H124894   1.918   6.124   4.945  0.2226  0.0805 -0.1950
 8317TIP3    H224895   1.901   5.977   4.978  0.0693  0.1281 -0.0570
 8318TIP3   OH224896   2.446   5.955   4.995  0.1012 -0.6478  0.1878
 8318TIP3    H124897   2.486   5.975   5.080  0.8268  3.2417 -1.0019
 8318TIP3    H224898   2.496   5.880   4.962  3.6396  1.3786  0.6829
 8319TIP3   OH224899   7.181   2.930   0.219  0.0863  0.2916  0.3026
 8319TIP3    H124900   7.094   2.915   0.182 -1.0649  2.4306  2.0121
 8319TIP3    H224901   7.187   2.869   0.292  0.1188 -0.0109  0.0492
 8320TIP3   OH224902   1.912   5.034   3.288  0.8377  0.1859  0.7034
 8320TIP3    H124903   1.995   5.013   3.244  1.0475  0.9237  0.7312
 8320TIP3    H224904   1.882   4.951   3.324  0.3142 -0.5697 -1.3920
 8321TIP3   OH224905   8.503   2.718   0.436  0.2716 -0.3111 -0.0181
 8321TIP3    H124906   8.434   2.656   0.460 -0.8558  0.8357 -0.2684
 8321TIP3    H224907   8.482   2.744   0.346  1.4115 -0.4505 -0.3416
 8322TIP3   OH224908   1.921   4.713   5.207  0.0832  0.2652 -0.4167
 8322TIP3    H124909   1.871   4.632   5.197  0.4931 -0.1449  0.6699
 8322TIP3    H224910   1.866   4.768   5.263  0.9828 -0.3411  1.1110
 8323TIP3   OH224911   7.184   2.482   0.137  0.2497  0.1770  0.4319
 8323TIP3    H124912   7.142   2.481   0.051  0.3560 -1.6900  0.3916
 8323TIP3    H224913   7.265   2.434   0.126  0.0011 -0.5733  1.7051
 8324TIP3   OH224914   2.561   7.638   3.701  0.2013 -0.0414  0.5740
 8324TIP3    H124915   2.638   7.693   3.685  0.2971  0.2663  2.0724
 8324TIP3    H224916   2.558   7.627   3.796  0.1742 -2.6115  0.3146
 8325TIP3   OH224917   0.217   6.357   0.632  0.4440 -0.3308  0.0203
 8325TIP3    H124918   0.207   6.374   0.538 -0.2949  0.9156  0.3154
 8325TIP3    H224919   0.298   6.401   0.656  0.7724 -0.8735 -0.0793
 8326TIP3   OH224920   7.989   7.923   4.196 -0.2573 -0.3704 -0.2191
 8326TIP3    H124921   7.975   7.902   4.288 -0.5299 -1.2922 -0.4669
 8326TIP3    H224922   7.956   8.012   4.186 -1.3266 -0.7049  0.3175
 8327TIP3   OH224923   1.794   4.851   5.658 -0.5266 -0.5702 -0.0971
 8327TIP3    H124924   1.732   4.857   5.731  0.1116  1.3487  0.3009
 8327TIP3    H224925   1.812   4.942   5.634  2.1265 -1.0910 -0.2146
 8328TIP3   OH224926   4.057   6.273   3.745 -0.9303 -0.1391  0.0142
 8328TIP3    H124927   4.028   6.357   3.778 -0.7238  0.5320 -1.4561
 8328TIP3    H224928   4.065   6.286   3.650  0.2214 -1.4735 -0.0913
 8329TIP3   OH224929   3.576   5.815   2.347 -0.5139  0.0969  0.0958
 8329TIP3    H124930   3.659   5.807   2.396 -0.6836  1.3094  0.5856
 8329TIP3    H224931   3.588   5.893   2.293 -1.2894  0.1959  0.0690
 8330TIP3   OH224932   4.787   5.254   5.204 -0.5975 -0.4427  0.3813
 8330TIP3    H124933   4.754   5.222   5.288  0.3838  3.1878  2.2693
 8330TIP3    H224934   4.882   5.252   5.213 -0.4936  0.2770 -0.5266
 8331TIP3   OH224935   3.956   4.263   5.583  0.0524  0.2047 -0.2646
 8331TIP3    H124936   3.972   4.258   5.488  0.6785 -1.9596 -0.0613
 8331TIP3    H224937   4.032   4.308   5.618  0.1360  0.4236 -0.7213
 8332TIP3   OH224938   1.725   4.652   3.552  0.2629  0.5436 -0.4836
 8332TIP3    H124939   1.770   4.593   3.614  1.9051  0.8280 -1.3720
 8332TIP3    H224940   1.790   4.719   3.532 -1.5086  2.5614  0.3278
 8333TIP3   OH224941   3.823   0.051   2.592 -0.1324  0.5317  0.0217
 8333TIP3    H124942   3.915   0.026   2.586 -0.4286 -0.4289 -0.6912
 8333TIP3    H224943   3.808   0.106   2.515  0.2968  2.2032  1.1184
 8334TIP3   OH224944   2.448   6.474   3.469 -0.2085 -0.2401  0.0549
 8334TIP3    H124945   2.363   6.445   3.501 -0.5595 -0.7686 -1.3345
 8334TIP3    H224946   2.504   6.397   3.475  0.0102 -0.0580  0.3832
 8335TIP3   OH224947   4.764   7.737   5.224  0.1202  0.0024 -0.7882
 8335TIP3    H124948   4.801   7.704   5.306 -2.7261 -0.6863  0.2766
 8335TIP3    H224949   4.798   7.677   5.157  1.1541 -0.4323  0.1039
 8336TIP3   OH224950   1.967   4.283   4.013 -0.1348  0.1681 -0.4337
 8336TIP3    H124951   2.019   4.325   3.945  2.6137  0.1208  1.5210
 8336TIP3    H224952   2.015   4.203   4.034 -1.5623 -0.4179  0.7297
 8337TIP3   OH224953   5.600   0.059   3.426 -0.0867  0.4545  0.5653
 8337TIP3    H124954   5.649   0.139   3.407  2.1195 -1.2379 -1.0187
 8337TIP3    H224955   5.663   0.002   3.469 -0.9776 -1.3409 -0.4573
 8338TIP3   OH224956   1.827   6.932   5.657 -0.0952  0.3936  0.0153
 8338TIP3    H124957   1.876   6.965   5.582 -0.4869 -0.1190 -0.4702
 8338TIP3    H224958   1.874   6.853   5.683 -1.7026 -1.1270 -1.5991
 8339TIP3   OH224959   3.394   6.703   5.075  0.3101  0.7821  0.2996
 8339TIP3    H124960   3.319   6.758   5.098 -0.3428  0.6583 -1.4610
 8339TIP3    H224961   3.384   6.625   5.129 -1.9671 -0.1221 -1.3206
 8340TIP3   OH224962   1.353   5.877   5.488 -0.3583 -0.2857 -0.2407
 8340TIP3    H124963   1.416   5.942   5.456  0.6876 -1.1091  0.1080
 8340TIP3    H224964   1.321   5.834   5.409 -0.1755 -0.1253 -0.4020
 8341TIP3   OH224965   3.505   6.998   3.832 -0.3351  0.0687 -0.5001
 8341TIP3    H124966   3.556   7.003   3.751 -0.2634 -1.9170 -0.6029
 8341TIP3    H224967   3.451   7.078   3.831  1.0477  1.0152 -1.5345
 8342TIP3   OH224968   4.132   6.060   5.132 -0.0241 -0.4165 -0.1663
 8342TIP3    H124969   4.091   6.146   5.132 -1.6595 -1.1207  3.7034
 8342TIP3    H224970   4.214   6.072   5.180 -0.6115 -1.1455  1.0398
 8343TIP3   OH224971   2.615   6.866   5.034  0.4365 -0.8351 -0.5160
 8343TIP3    H124972   2.627   6.811   4.956  0.5765  0.9783 -1.7994
 8343TIP3    H224973   2.672   6.941   5.020 -0.2177 -0.0438  0.9204
 8344TIP3   OH224974   2.548   7.381   4.834 -0.0074  0.2425 -0.2241
 8344TIP3    H124975   2.528   7.287   4.833 -0.2348  0.2683 -2.4360
 8344TIP3    H224976   2.464   7.423   4.853  0.1060 -0.0001  0.8214
 8345TIP3   OH224977   1.293   3.896   5.363 -0.3528  0.0979  0.2316
 8345TIP3    H124978   1.365   3.876   5.423 -0.5321  0.4729  0.5687
 8345TIP3    H224979   1.253   3.810   5.346  0.3734 -0.1590 -0.2163
 8346TIP3   OH224980   2.725   4.672   4.238  0.6056 -0.0248 -0.3639
 8346TIP3    H124981   2.777   4.593   4.247  1.0374  0.2135 -0.7751
 8346TIP3    H224982   2.641   4.650   4.280  0.9865 -0.4452  0.1883
 8347TIP3   OH224983   2.328   4.678   5.362 -0.0827 -0.0325  0.6324
 8347TIP3    H124984   2.392   4.622   5.407 -0.0204  0.6181  1.3727
 8347TIP3    H224985   2.336   4.762   5.406  0.2965  0.7506 -0.9254
 8348TIP3   OH224986   2.401   4.423   5.128 -0.4160  0.2578  0.7471
 8348TIP3    H124987   2.318   4.458   5.096  0.9665  2.7853 -0.2129
 8348TIP3    H224988   2.432   4.366   5.057 -0.8128  0.1889  0.6311
 8349TIP3   OH224989   2.494   7.108   4.770 -0.0330 -0.3333 -0.0395
 8349TIP3    H124990   2.540   7.024   4.760  1.2845  0.3940 -0.2589
 8349TIP3    H224991   2.417   7.099   4.714  0.3398 -1.2338 -0.4290
 8350TIP3   OH224992   1.646   6.692   6.171 -0.1601 -0.1948  0.1216
 8350TIP3    H124993   1.666   6.684   6.078 -0.5071 -0.3092  0.0564
 8350TIP3    H224994   1.554   6.668   6.178 -0.4672  1.0087  0.3154
 8351TIP3   OH224995   2.883   5.512   3.374  0.0110  0.9090 -0.1855
 8351TIP3    H124996   2.928   5.594   3.356 -1.1393  1.8835  1.2219
 8351TIP3    H224997   2.837   5.528   3.457 -0.6484 -0.9755 -0.1670
 8352TIP3   OH224998   1.687   4.269   3.854  0.0555  0.1514 -0.0208
 8352TIP3    H124999   1.748   4.222   3.911  0.3682  0.7200  0.1251
 8352TIP3    H225000   1.742   4.335   3.810 -0.4962  0.8066  0.2725
 8353TIP3   OH225001   3.171   5.134   3.163  0.0183  0.5127 -0.1959
 8353TIP3    H125002   3.125   5.144   3.079 -1.1739  0.1013  0.3933
 8353TIP3    H225003   3.118   5.185   3.225  1.3532  1.5029  0.1582
 8354TIP3   OH225004   7.925   5.823   5.431  0.3582  0.2788  0.2264
 8354TIP3    H125005   7.929   5.782   5.344 -0.9684 -0.7803  0.6580
 8354TIP3    H225006   7.906   5.915   5.413 -1.9932 -0.3287 -0.5397
 8355TIP3   OH225007   2.360   5.488   3.886 -0.0435 -0.8321 -0.0175
 8355TIP3    H125008   2.319   5.544   3.952  1.8219 -0.3499  0.7784
 8355TIP3    H225009   2.384   5.548   3.815 -0.1119 -0.9901 -0.1727
 8356TIP3   OH225010   2.603   7.244   5.419 -0.0729  0.0765 -0.5365
 8356TIP3    H125011   2.698   7.243   5.433  0.1558 -1.1191 -2.1408
 8356TIP3    H225012   2.585   7.164   5.370 -1.6335  1.3685 -2.1105
 8357TIP3   OH225013   1.657   6.093   3.254 -0.2525  0.0351  0.0291
 8357TIP3    H125014   1.656   6.010   3.301 -2.3166  0.0569  0.0651
 8357TIP3    H225015   1.673   6.070   3.163  1.4161 -0.2039  0.3721
 8358TIP3   OH225016   1.127   4.471   5.505 -0.2614 -0.2826 -0.3449
 8358TIP3    H125017   1.125   4.559   5.466  1.9131 -0.4628 -0.9106
 8358TIP3    H225018   1.062   4.475   5.575  0.1245  1.9326 -0.0723
 8359TIP3   OH225019   2.960   6.089   6.276  0.3199 -0.3964  0.2103
 8359TIP3    H125020   2.977   6.017   6.214  1.7202 -0.2596  0.4138
 8359TIP3    H225021   2.968   6.048   6.362  0.1614 -0.2035  0.3147
 8360TIP3   OH225022   1.478   4.396   5.544  0.4606  0.5511 -0.0987
 8360TIP3    H125023   1.445   4.464   5.486 -2.0183 -0.6565 -0.1825
 8360TIP3    H225024   1.454   4.314   5.500 -0.7278 -0.3731  2.2071
 8361TIP3   OH225025   8.072   6.682   4.278 -0.7244 -0.1258  0.8037
 8361TIP3    H125026   8.083   6.607   4.337 -1.3991 -1.7468 -1.0568
 8361TIP3    H225027   8.007   6.652   4.214 -0.2831  1.7233 -0.5501
 8362TIP3   OH225028   5.024   0.665   4.150  0.3944 -0.1121 -0.3893
 8362TIP3    H125029   5.059   0.745   4.111 -1.3655  0.3409 -1.0894
 8362TIP3    H225030   4.954   0.695   4.209 -1.4650 -1.1933 -1.9657
 8363TIP3   OH225031   1.153   7.179   4.471  0.0342  0.2315 -0.3544
 8363TIP3    H125032   1.207   7.245   4.514 -0.6002  0.6737 -0.2287
 8363TIP3    H225033   1.075   7.227   4.442 -0.0349 -0.2817 -1.0329
 8364TIP3   OH225034   5.487   0.244   3.947  0.3678 -0.4354  0.1342
 8364TIP3    H125035   5.416   0.276   3.890 -0.2770 -0.4722  0.9131
 8364TIP3    H225036   5.520   0.167   3.902  1.2474  0.7120 -1.2411
 8365TIP3   OH225037   3.950   0.218   3.970 -0.3337 -0.2092 -0.4695
 8365TIP3    H125038   3.859   0.244   3.954 -0.0737  0.8406 -0.2053
 8365TIP3    H225039   3.996   0.299   3.988  0.7699 -0.6814 -1.1054
 8366TIP3   OH225040   3.365   0.130   3.604 -0.3303  0.1571 -0.2030
 8366TIP3    H125041   3.441   0.188   3.604  0.1339 -0.4386 -1.4866
 8366TIP3    H225042   3.290   0.188   3.615 -0.0196  1.1941 -3.3097
 8367TIP3   OH225043   6.981   3.140   5.629  0.3381 -0.0932 -0.0796
 8367TIP3    H125044   6.896   3.139   5.586 -0.0092  1.8687  0.4972
 8367TIP3    H225045   6.996   3.232   5.650  2.2763 -0.5100  0.4733
 8368TIP3   OH225046   2.181   7.358   4.501 -0.7327  0.3393 -0.6807
 8368TIP3    H125047   2.272   7.385   4.496 -1.1449  1.9834  0.1401
 8368TIP3    H225048   2.134   7.422   4.447 -1.3687 -0.6541 -1.3175
 8369TIP3   OH225049   2.369   4.707   2.928  0.0168  0.2074  0.2892
 8369TIP3    H125050   2.410   4.679   2.847 -0.7480 -0.8957  0.2854
 8369TIP3    H225051   2.275   4.701   2.912 -0.1821  2.4773  0.3944
 8370TIP3   OH225052   4.009   7.252   4.766  0.4330  0.9101 -0.0356
 8370TIP3    H125053   4.091   7.231   4.721  0.1326  0.6144 -0.4445
 8370TIP3    H225054   4.029   7.331   4.816  1.6456 -0.4612  1.6934
 8371TIP3   OH225055   2.201   5.244   4.211 -0.4940 -0.4291 -0.4457
 8371TIP3    H125056   2.267   5.197   4.262 -1.2273 -1.5648 -0.5166
 8371TIP3    H225057   2.200   5.333   4.247  3.9338  0.8184 -3.0595
 8372TIP3   OH225058   6.928   2.717   2.255 -0.0904 -0.2493 -1.0023
 8372TIP3    H125059   6.834   2.708   2.272  0.5233 -1.8429  1.8552
 8372TIP3    H225060   6.938   2.805   2.218 -2.5527  0.3723 -0.2633
 8373TIP3   OH225061   3.746   6.067   2.146 -0.1512  0.8200 -0.0199
 8373TIP3    H125062   3.679   6.040   2.084  0.9674 -2.8248  0.2346
 8373TIP3    H225063   3.820   6.095   2.092  0.9700 -2.7295 -0.4517
 8374TIP3   OH225064   2.192   5.194   3.622 -0.0940  0.3363 -0.2400
 8374TIP3    H125065   2.245   5.115   3.618 -1.0106 -0.3743  1.2774
 8374TIP3    H225066   2.155   5.202   3.534  1.0279 -0.2015 -0.7668
 8375TIP3   OH225067   2.404   4.530   5.928 -0.1183 -0.0047 -0.0894
 8375TIP3    H125068   2.474   4.565   5.873  0.9866 -1.6012  0.2641
 8375TIP3    H225069   2.331   4.590   5.914  1.0184  1.1817 -1.1655
 8376TIP3   OH225070   3.325   1.977   2.287  0.3967  0.1300 -0.1041
 8376TIP3    H125071   3.406   2.023   2.269  0.4189  0.7115  1.4294
 8376TIP3    H225072   3.339   1.889   2.252  0.6056  1.0604 -2.4119
 8377TIP3   OH225073   1.305   4.843   4.576 -0.1666 -0.4866 -0.1379
 8377TIP3    H125074   1.365   4.778   4.612  1.2253 -0.0267 -1.5859
 8377TIP3    H225075   1.245   4.794   4.520  0.1465 -0.6831 -0.3007
 8378TIP3   OH225076   1.632   4.896   2.849  0.3401 -0.1766  0.2283
 8378TIP3    H125077   1.591   4.866   2.768 -0.8014  3.0325 -0.4523
 8378TIP3    H225078   1.597   4.838   2.917 -0.4399 -1.4381 -1.2191
 8379TIP3   OH225079   2.420   0.460   4.883  0.0894  0.6987 -0.3364
 8379TIP3    H125080   2.459   0.482   4.798  0.6007 -0.2135 -0.3471
 8379TIP3    H225081   2.493   0.425   4.934 -0.8357 -1.6926 -0.5947
 8380TIP3   OH225082   3.221   6.792   3.231  0.1243 -0.1959  0.7189
 8380TIP3    H125083   3.157   6.736   3.188  1.1229  0.1976 -1.3364
 8380TIP3    H225084   3.266   6.734   3.293 -1.4659 -0.7246  1.3949
 8381TIP3   OH225085   8.269   4.170   5.938 -0.0116 -0.1574 -0.1669
 8381TIP3    H125086   8.195   4.154   5.879 -1.6304  1.7484  1.2482
 8381TIP3    H225087   8.285   4.264   5.932  2.1869 -0.5087 -0.2771
 8382TIP3   OH225088   1.461   4.819   6.067 -0.3491 -0.3126 -0.2600
 8382TIP3    H125089   1.448   4.817   6.162 -0.6879 -0.1415 -0.3035
 8382TIP3    H225090   1.487   4.730   6.044 -1.0722 -0.5587 -0.1235
 8383TIP3   OH225091   2.196   5.826   4.850  0.1112 -0.3163 -0.3977
 8383TIP3    H125092   2.238   5.766   4.912  0.1858 -0.3652 -0.4964
 8383TIP3    H225093   2.140   5.881   4.905  0.3664 -0.1992 -0.2569
 8384TIP3   OH225094   2.120   5.563   6.554 -0.2132 -0.0712 -0.4306
 8384TIP3    H125095   2.090   5.591   6.468  0.4404 -2.8016 -1.6071
 8384TIP3    H225096   2.044   5.577   6.611 -0.3640  2.6018 -1.2201
 8385TIP3   OH225097   2.223   7.156   4.260  0.7026  0.1702 -0.1964
 8385TIP3    H125098   2.194   7.244   4.285  0.2785 -0.1981  0.6451
 8385TIP3    H225099   2.318   7.161   4.259  0.7416  0.2065  1.5552
 8386TIP3   OH225100   3.977   5.646   3.935 -0.1591 -0.1405  0.1514
 8386TIP3    H125101   4.041   5.705   3.976 -0.0426 -0.7590  0.8556
 8386TIP3    H225102   3.950   5.693   3.856  0.0756  0.7819  0.6062
 8387TIP3   OH225103   5.251   6.523   4.349  0.3332 -0.7652 -0.2202
 8387TIP3    H125104   5.313   6.551   4.416 -0.9768 -0.0762  0.7216
 8387TIP3    H225105   5.208   6.447   4.386 -4.6531  3.0322  2.3785
 8388TIP3   OH225106   3.448   5.765   5.620 -0.1893 -0.4960 -0.7076
 8388TIP3    H125107   3.478   5.728   5.703  1.1915 -1.3780 -1.5669
 8388TIP3    H225108   3.383   5.831   5.644 -0.2784 -1.2037  1.0301
 8389TIP3   OH225109   3.008   7.566   4.504  0.5609 -0.3299  0.4014
 8389TIP3    H125110   2.927   7.519   4.484  0.1559 -0.3639  2.0287
 8389TIP3    H225111   3.070   7.497   4.529  0.7352 -0.2008  0.3248
 8390TIP3   OH225112   7.527   0.069   4.091  0.3600 -0.4964  0.0149
 8390TIP3    H125113   7.438   0.065   4.128 -0.1239 -1.1747 -1.2162
 8390TIP3    H225114   7.513   0.090   3.998  1.5869  1.7385  0.2893
 8391TIP3   OH225115   5.535   5.210   3.209 -0.1248  0.4381  0.6255
 8391TIP3    H125116   5.483   5.291   3.208 -1.3987 -0.3710 -1.6156
 8391TIP3    H225117   5.572   5.204   3.121  2.9706  0.4266  1.8477
 8392TIP3   OH225118   2.116   6.859   5.070 -0.0212  0.1115  0.1152
 8392TIP3    H125119   2.085   6.916   5.000  0.5514  0.3472  0.0457
 8392TIP3    H225120   2.130   6.774   5.028  1.8624  0.6662 -0.4288
 8393TIP3   OH225121   5.661   7.737   2.409  0.1728 -0.0609  0.2062
 8393TIP3    H125122   5.638   7.647   2.385 -0.6414  0.0971  0.3802
 8393TIP3    H225123   5.749   7.730   2.446  0.5097 -0.6416 -0.6852
 8394TIP3   OH225124   2.643   6.647   3.496 -0.2060  0.1055 -0.1159
 8394TIP3    H125125   2.624   6.720   3.437  0.3953  0.4478  0.1064
 8394TIP3    H225126   2.575   6.583   3.477 -0.6248  0.6417 -0.4543
 8395TIP3   OH225127   5.251   6.630   2.131 -0.2939 -0.1882 -0.4736
 8395TIP3    H125128   5.272   6.543   2.165  0.3457  0.7851  1.7184
 8395TIP3    H225129   5.156   6.628   2.120 -0.6852 -0.2383  2.4013
 8396TIP3   OH225130   5.488   5.915   4.280 -1.0245 -0.3499 -0.3180
 8396TIP3    H125131   5.443   5.833   4.264 -0.8800 -1.2796  3.5278
 8396TIP3    H225132   5.573   5.890   4.315  0.0715  1.4329 -1.6099
 8397TIP3   OH225133   3.039   3.953   5.069 -0.2305  0.1641  0.1377
 8397TIP3    H125134   2.949   3.966   5.098  0.1621  1.3072  0.8444
 8397TIP3    H225135   3.047   3.858   5.060 -1.2966  0.0113  0.7376
 8398TIP3   OH225136   3.776   6.911   4.975 -0.4059 -0.2568  0.5828
 8398TIP3    H125137   3.721   6.946   5.044 -0.0880 -1.2323  1.3346
 8398TIP3    H225138   3.844   6.861   5.020  1.5589  1.5512 -0.2829
 8399TIP3   OH225139   3.898   7.012   6.625  0.3023  0.4047  0.3039
 8399TIP3    H125140   3.940   7.091   6.658 -0.6781  1.1194 -0.1558
 8399TIP3    H225141   3.893   7.024   6.530 -0.1001 -0.0802  0.2581
 8400TIP3   OH225142   6.711   6.426   3.143 -0.6022 -0.7585 -0.4538
 8400TIP3    H125143   6.720   6.513   3.104 -1.0320 -0.9635 -1.0282
 8400TIP3    H225144   6.796   6.384   3.128 -0.0157 -0.0458  0.8227
 8401TIP3   OH225145   5.074   6.754   6.656  0.1148 -0.5830 -0.3288
 8401TIP3    H125146   5.010   6.775   6.724  1.0229  1.1835  0.0136
 8401TIP3    H225147   5.058   6.662   6.636 -3.7619  0.2248 -1.5406
 8402TIP3   OH225148   1.288   4.649   3.375 -0.1668 -0.1284  0.1102
 8402TIP3    H125149   1.302   4.577   3.436 -1.4526 -0.6600 -0.2070
 8402TIP3    H225150   1.290   4.608   3.289 -0.1801  0.3278 -0.1059
 8403TIP3   OH225151   4.072   7.413   2.564 -0.4058  0.2876  0.1068
 8403TIP3    H125152   4.008   7.407   2.635 -0.7886  1.0554 -0.1667
 8403TIP3    H225153   4.052   7.340   2.507  0.7860 -1.1674  1.5052
 8404TIP3   OH225154   4.920   6.167   5.034 -0.4993  0.3780 -0.4632
 8404TIP3    H125155   4.863   6.111   4.982 -1.8181 -0.9914  2.3990
 8404TIP3    H225156   5.002   6.117   5.041  0.2744  1.2876 -2.5304
 8405TIP3   OH225157   5.927   5.496   2.890 -0.3429 -0.0566 -0.0769
 8405TIP3    H125158   5.887   5.580   2.910 -1.1526 -0.5491  0.3936
 8405TIP3    H225159   6.000   5.488   2.951 -0.5868  0.0784  0.2353
 8406TIP3   OH225160   2.079   4.505   5.482 -0.8025 -0.7711 -0.3809
 8406TIP3    H125161   1.993   4.541   5.458 -0.7955  0.6120  1.5753
 8406TIP3    H225162   2.137   4.581   5.485 -1.0061 -0.6405  4.7991
 8407TIP3   OH225163   4.004   6.618   5.336  0.3286 -0.0582 -0.1687
 8407TIP3    H125164   4.077   6.603   5.396 -0.6334 -0.8170  0.8610
 8407TIP3    H225165   3.964   6.699   5.367 -0.9048 -1.0855  1.0326
 8408TIP3   OH225166   2.926   5.796   4.899 -0.8026  0.3699 -0.1648
 8408TIP3    H125167   2.996   5.861   4.891 -0.0374 -0.4069  0.1054
 8408TIP3    H225168   2.847   5.843   4.874 -0.0053  0.9197 -1.7686
 8409TIP3   OH225169   4.697   7.936   3.257  0.3656 -0.5412 -0.2338
 8409TIP3    H125170   4.699   8.029   3.235  1.1543 -0.2876  0.8282
 8409TIP3    H225171   4.709   7.891   3.173 -1.5501  0.2710 -0.9646
 8410TIP3   OH225172   5.146   4.318   6.301 -0.4353  0.6654 -0.1991
 8410TIP3    H125173   5.074   4.258   6.318 -0.7803  0.9689 -0.5732
 8410TIP3    H225174   5.122   4.361   6.219  0.1275  0.8325 -0.2792
 8411TIP3   OH225175   7.440   1.895   2.602 -0.3413  0.3065  0.2813
 8411TIP3    H125176   7.349   1.915   2.582 -0.8971 -1.5356  0.9153
 8411TIP3    H225177   7.477   1.979   2.631 -2.3462  0.6572  1.9704
 8412TIP3   OH225178   6.861   5.812   3.704 -0.3443 -0.1037 -0.4312
 8412TIP3    H125179   6.906   5.896   3.712 -1.2660  0.2424  1.4022
 8412TIP3    H225180   6.841   5.787   3.794 -1.4776 -1.5279 -1.0612
 8413TIP3   OH225181   4.675   6.314   3.770 -0.2065  0.7195  0.2704
 8413TIP3    H125182   4.733   6.238   3.784  1.1773  1.2880 -2.0156
 8413TIP3    H225183   4.681   6.364   3.851 -0.2915 -1.0381  1.4128
 8414TIP3   OH225184   5.225   7.257   4.156 -0.0047  0.1840 -0.4907
 8414TIP3    H125185   5.166   7.233   4.084  1.0675 -0.2419 -1.2338
 8414TIP3    H225186   5.199   7.346   4.179  0.8689  1.0157 -2.6656
 8415TIP3   OH225187   4.360   6.896   4.238  0.0138 -0.1537  0.4460
 8415TIP3    H125188   4.383   6.950   4.162  0.3980 -0.1896  0.5349
 8415TIP3    H225189   4.412   6.932   4.310 -0.2508 -0.2037  0.6633
 8416TIP3   OH225190   4.596   7.970   1.993 -0.1040  0.1696 -0.1398
 8416TIP3    H125191   4.563   8.048   1.950 -0.0336  0.4450  0.2980
 8416TIP3    H225192   4.680   7.997   2.031  0.8718 -0.6528 -1.6588
 8417TIP3   OH225193   4.090   5.795   4.120  0.4541  0.1463 -0.2200
 8417TIP3    H125194   4.065   5.725   4.181  1.0289 -1.2078 -1.4814
 8417TIP3    H225195   4.152   5.848   4.168 -0.8478  0.4713  1.1611
 8418TIP3   OH225196   3.819   5.768   3.661 -0.5686  0.2339  0.3608
 8418TIP3    H125197   3.738   5.753   3.710  0.5558  1.1380  2.5828
 8418TIP3    H225198   3.832   5.863   3.665  0.1160  0.1848 -0.7609
 8419TIP3   OH225199   6.114   6.360   4.764  0.1300 -0.1284  0.5335
 8419TIP3    H125200   6.071   6.295   4.821  0.0762 -0.1410  0.4788
 8419TIP3    H225201   6.103   6.326   4.676 -0.5378  0.3172  0.4420
 8420TIP3   OH225202   3.893   6.324   4.083  0.1677 -0.6243  0.2142
 8420TIP3    H125203   3.851   6.240   4.100 -1.3458  0.0342 -0.1376
 8420TIP3    H225204   3.840   6.387   4.132  2.1125 -0.0318  1.6127
 8421TIP3   OH225205   4.204   7.460   3.639 -0.4946  0.0295  0.2760
 8421TIP3    H125206   4.281   7.422   3.598 -0.8844 -0.1702 -0.2780
 8421TIP3    H225207   4.213   7.439   3.732 -0.9311 -1.8349 -0.0821
 8422TIP3   OH225208   6.321   0.111   5.040 -0.1655  0.5156 -0.0106
 8422TIP3    H125209   6.405   0.090   4.998  0.1209  2.3457 -0.3898
 8422TIP3    H225210   6.259   0.118   4.967 -0.4418  0.1484  0.1874
 8423TIP3   OH225211   5.237   4.881   1.877  0.5622 -0.3829 -0.0282
 8423TIP3    H125212   5.237   4.834   1.793 -0.9751 -0.3272 -0.0813
 8423TIP3    H225213   5.157   4.851   1.920 -0.0170  1.5868  0.2845
 8424TIP3   OH225214   4.596   7.301   5.602 -0.2890 -0.9064  0.1065
 8424TIP3    H125215   4.589   7.350   5.519  0.5754 -1.1924 -0.1401
 8424TIP3    H225216   4.542   7.351   5.663  1.5747  1.0948  0.1832
 8425TIP3   OH225217   4.815   7.166   1.760  0.0597  0.0466  0.0894
 8425TIP3    H125218   4.839   7.075   1.743 -1.4405 -0.5638  1.1086
 8425TIP3    H225219   4.754   7.189   1.690  0.6360  0.3667 -0.3160
 8426TIP3   OH225220   2.841   5.421   4.227  0.5091  0.4716  0.3020
 8426TIP3    H125221   2.879   5.413   4.314 -0.9715 -0.6939  0.8692
 8426TIP3    H225222   2.764   5.364   4.229  1.2819 -0.7182 -2.2527
 8427TIP3   OH225223   3.049   6.647   3.001 -0.2557 -0.1530  0.0168
 8427TIP3    H125224   3.032   6.675   2.911  1.2965  1.3723  0.1649
 8427TIP3    H225225   3.119   6.582   2.993  0.6751  0.8132  0.1958
 8428TIP3   OH225226   5.081   7.105   3.488 -0.3372  0.0579  0.0476
 8428TIP3    H125227   5.105   7.172   3.552  0.8166 -1.2907  1.0769
 8428TIP3    H225228   5.076   7.024   3.539  0.9673 -1.1141 -1.6213
 8429TIP3   OH225229   2.474   7.880   3.447 -0.3226  0.7158  0.5891
 8429TIP3    H125230   2.381   7.875   3.470 -0.1354  1.0292  1.4304
 8429TIP3    H225231   2.513   7.933   3.517  0.2689  1.6250 -0.4260
 8430TIP3   OH225232   2.815   6.635   5.658 -0.0302  0.0471 -0.4604
 8430TIP3    H125233   2.870   6.692   5.712 -1.7515  1.3958 -0.0548
 8430TIP3    H225234   2.875   6.571   5.621  1.5157  0.3847  1.3847
 8431TIP3   OH225235   1.596   4.590   6.043 -0.2247 -0.4278  0.1033
 8431TIP3    H125236   1.669   4.540   6.080 -0.6851 -0.5531  0.8610
 8431TIP3    H225237   1.612   4.590   5.949  0.6634 -0.5954  0.2452
 8432TIP3   OH225238   6.211   7.349   2.469  0.5287 -0.3713 -0.5846
 8432TIP3    H125239   6.245   7.433   2.440  0.3408 -0.0914 -0.0073
 8432TIP3    H225240   6.261   7.284   2.419 -1.2553  0.1296 -3.0756
 8433TIP3   OH225241   0.129   0.559   4.187  0.3418  0.1089 -0.4502
 8433TIP3    H125242   0.181   0.564   4.268 -0.8980  1.3360  0.2984
 8433TIP3    H225243   0.141   0.644   4.145 -1.1606  0.4704 -0.1878
 8434TIP3   OH225244   5.816   6.670   3.086 -0.0508 -0.1787 -0.5730
 8434TIP3    H125245   5.792   6.641   3.174  0.6092  1.9088  0.3185
 8434TIP3    H225246   5.881   6.739   3.100  2.1839 -1.7566 -2.7906
 8435TIP3   OH225247   1.994   4.710   4.710 -0.1553  0.9025 -0.0484
 8435TIP3    H125248   2.036   4.637   4.665 -1.1420 -0.3100  0.9466
 8435TIP3    H225249   2.043   4.718   4.792 -0.2980  1.1119  0.0159
 8436TIP3   OH225250   7.473   0.378   2.094 -0.2019 -0.2496  0.2086
 8436TIP3    H125251   7.512   0.344   2.175  0.4572 -0.4028 -0.1762
 8436TIP3    H225252   7.417   0.307   2.063 -0.9561  0.0419  0.8603
 8437TIP3   OH225253   4.778   6.649   1.709 -0.0723  0.1612  0.5476
 8437TIP3    H125254   4.707   6.586   1.719 -0.0202  0.2244  1.3405
 8437TIP3    H225255   4.856   6.603   1.740  0.7717 -0.8596 -2.7939
 8438TIP3   OH225256   5.497   7.543   2.643  0.2334  0.0928  0.1433
 8438TIP3    H125257   5.546   7.469   2.608 -0.6994 -0.5220  0.1414
 8438TIP3    H225258   5.536   7.620   2.601  0.9257 -0.4280 -0.1656
 8439TIP3   OH225259   4.264   4.600   6.436 -0.3134 -0.1507  0.2242
 8439TIP3    H125260   4.313   4.526   6.473 -0.5972 -1.9649 -2.8197
 8439TIP3    H225261   4.331   4.659   6.403 -0.1185 -0.7010 -0.3704
 8440TIP3   OH225262   3.803   5.505   5.231  0.0716 -0.6093 -0.1343
 8440TIP3    H125263   3.830   5.464   5.149  0.4126 -0.5119 -0.0729
 8440TIP3    H225264   3.786   5.596   5.208  0.0516 -0.6095 -0.1227
 8441TIP3   OH225265   4.916   6.005   3.269  0.0357 -0.1362  0.2439
 8441TIP3    H125266   4.885   5.943   3.203  1.1663 -0.7689  0.2941
 8441TIP3    H225267   4.876   6.088   3.244 -1.1888 -0.7973 -0.0375
 8442TIP3   OH225268   5.774   3.443   5.971 -0.1226  0.2619  0.0712
 8442TIP3    H125269   5.734   3.434   6.058  0.4755 -1.7034  0.1761
 8442TIP3    H225270   5.700   3.443   5.910 -0.4071 -3.1052  0.2815
 8443TIP3   OH225271   3.534   5.336   6.634  0.1386 -0.7120  0.4423
 8443TIP3    H125272   3.540   5.432   6.631  0.2811 -0.7534 -2.7509
 8443TIP3    H225273   3.455   5.318   6.685  0.1593  1.1205  1.1402
 8444TIP3   OH225274   2.601   5.987   4.573  0.4925 -0.4002  0.0993
 8444TIP3    H125275   2.520   5.946   4.603  0.2783  0.5401  0.8309
 8444TIP3    H225276   2.670   5.924   4.594  0.0217 -0.9223  0.0713
 8445TIP3   OH225277   4.153   5.592   2.396  0.7509  0.5192 -0.1041
 8445TIP3    H125278   4.084   5.653   2.371  0.3834  0.3417  0.4739
 8445TIP3    H225279   4.174   5.545   2.315  1.8688  2.2135 -0.8516
 8446TIP3   OH225280   4.436   7.912   0.987  0.2978  0.4406 -0.7832
 8446TIP3    H125281   4.465   7.855   0.917 -1.3544 -0.4988 -0.7328
 8446TIP3    H225282   4.373   7.860   1.037  0.3193  1.5922  0.5070
 8447TIP3   OH225283   2.851   5.123   5.317 -0.6397  0.0207  0.2021
 8447TIP3    H125284   2.866   5.169   5.400  1.2132 -0.3925  0.1163
 8447TIP3    H225285   2.837   5.193   5.253  0.1100  0.3940  0.4521
 8448TIP3   OH225286   3.558   4.615   4.755 -0.2562 -0.5026 -0.0458
 8448TIP3    H125287   3.573   4.653   4.669 -0.9738 -1.0999 -0.4459
 8448TIP3    H225288   3.492   4.547   4.740 -0.0261 -0.9486  0.8867
 8449TIP3   OH225289   1.137   7.203   5.825 -0.0914 -0.2917 -0.2026
 8449TIP3    H125290   1.054   7.225   5.868 -0.9109 -1.0032 -1.4030
 8449TIP3    H225291   1.135   7.251   5.743  0.4107 -0.7876 -0.5054
 8450TIP3   OH225292   2.055   4.130   4.314 -0.0681 -0.5140 -0.2675
 8450TIP3    H125293   2.115   4.098   4.247 -1.9201 -0.4958 -2.0014
 8450TIP3    H225294   2.037   4.054   4.369  2.5284 -0.2060  1.1021
 8451TIP3   OH225295   7.912   2.108   0.220  0.0426  0.7254  0.0848
 8451TIP3    H125296   7.933   2.020   0.251 -0.4591  0.7927  0.6023
 8451TIP3    H225297   7.849   2.094   0.149 -1.7064  0.7826  1.6030
 8452TIP3   OH225298   2.671   4.564   3.516 -0.1562  0.2621 -0.5244
 8452TIP3    H125299   2.585   4.565   3.474 -0.1286 -0.5564 -0.6096
 8452TIP3    H225300   2.651   4.566   3.610 -0.2580  0.6275 -0.5556
 8453TIP3   OH225301   5.372   6.232   3.909 -0.2473 -0.7069 -0.0794
 8453TIP3    H125302   5.451   6.184   3.933 -0.5005  0.2723  2.9899
 8453TIP3    H225303   5.388   6.263   3.820  4.0082  1.7619  1.3931
 8454TIP3   OH225304   3.880   6.048   4.577  0.3693 -0.2016 -0.3007
 8454TIP3    H125305   3.905   5.985   4.645 -1.4208 -0.1649  0.4072
 8454TIP3    H225306   3.805   6.094   4.614 -0.1085  0.3766 -1.9831
 8455TIP3   OH225307   3.577   3.776   5.460  0.0647  0.6994 -0.5697
 8455TIP3    H125308   3.590   3.691   5.417  1.0831  1.1421 -1.1659
 8455TIP3    H225309   3.520   3.824   5.400  0.5544  0.9005 -0.8829
 8456TIP3   OH225310   4.542   5.039   3.110 -0.1483 -0.1596 -0.1984
 8456TIP3    H125311   4.477   4.994   3.056 -0.5116  1.8831 -1.5005
 8456TIP3    H225312   4.491   5.082   3.179 -0.0512  0.4542 -0.5120
 8457TIP3   OH225313   5.135   5.508   5.299  0.3559  0.1280  0.4034
 8457TIP3    H125314   5.156   5.536   5.388 -2.0613 -0.2422  1.1211
 8457TIP3    H225315   5.157   5.584   5.244  1.3366  0.5572  1.3788
 8458TIP3   OH225316   1.286   6.750   3.356 -0.0994  0.2174 -0.2372
 8458TIP3    H125317   1.195   6.741   3.383 -0.4627  1.8719 -0.8814
 8458TIP3    H225318   1.330   6.790   3.432  0.0113 -0.1616 -0.0972
 8459TIP3   OH225319   5.832   5.158   2.071  0.1166  0.4294 -0.3012
 8459TIP3    H125320   5.840   5.079   2.125  1.1442  1.1991  0.6751
 8459TIP3    H225321   5.878   5.136   1.990 -1.0278 -0.5562 -0.7164
 8460TIP3   OH225322   2.890   7.772   4.649  0.3536 -0.2615  0.0362
 8460TIP3    H125323   2.945   7.731   4.582  1.7030  1.4703  0.0513
 8460TIP3    H225324   2.810   7.796   4.602 -0.4232 -2.7193 -0.0005
 8461TIP3   OH225325   5.879   7.119   2.634 -0.0559  0.0474  0.2117
 8461TIP3    H125326   5.866   7.030   2.667  1.3275 -0.3132 -0.1797
 8461TIP3    H225327   5.969   7.140   2.658  0.0650  0.8205 -0.9091
 8462TIP3   OH225328   3.439   5.028   4.257 -0.2361  1.0327 -0.0215
 8462TIP3    H125329   3.359   5.079   4.251 -0.4153  1.0188  2.0104
 8462TIP3    H225330   3.412   4.938   4.238 -0.8368  0.9336  1.2269
 8463TIP3   OH225331   3.914   6.530   3.801  0.2519 -0.5372 -0.3614
 8463TIP3    H125332   3.849   6.490   3.859  1.3920  0.9785  2.0646
 8463TIP3    H225333   3.870   6.538   3.717 -1.7354 -2.0762  0.4863
 8464TIP3   OH225334   0.123   0.297   3.532 -0.3822 -0.1994 -0.3573
 8464TIP3    H125335   0.167   0.240   3.468  0.3470 -1.1178  0.9340
 8464TIP3    H225336   0.046   0.249   3.558  0.4584 -0.8020  1.0553
 8465TIP3   OH225337   8.263   0.850   2.920 -0.5376 -0.4977  0.4521
 8465TIP3    H125338   8.238   0.766   2.882  0.2499 -0.2986 -0.5136
 8465TIP3    H225339   8.342   0.831   2.970 -0.5771 -0.4076  0.5483
 8466TIP3   OH225340   6.509   0.240   5.258 -0.1703 -0.5816  0.2859
 8466TIP3    H125341   6.414   0.228   5.258 -0.2092 -0.3018 -0.0677
 8466TIP3    H225342   6.526   0.292   5.179  0.2612 -0.5128  0.4221
 8467TIP3   OH225343   4.361   6.329   5.224  0.2760 -0.3929  0.3802
 8467TIP3    H125344   4.416   6.252   5.239  0.0668 -0.4826  0.6775
 8467TIP3    H225345   4.369   6.380   5.305 -0.3148 -0.5504  0.5378
 8468TIP3   OH225346   5.668   6.274   4.578 -0.4163 -0.3302  0.6492
 8468TIP3    H125347   5.584   6.265   4.534  0.0010  0.6689 -0.3962
 8468TIP3    H225348   5.714   6.341   4.527  0.1826  0.6761  2.4679
 8469TIP3   OH225349   7.197   0.588   3.666  0.0589  0.2239 -0.4019
 8469TIP3    H125350   7.232   0.661   3.717 -2.3829  0.7759  0.5695
 8469TIP3    H225351   7.213   0.511   3.720  1.0033  0.2672 -0.6060
 8470TIP3   OH225352   4.225   7.637   4.168  0.5546  0.5134 -0.0775
 8470TIP3    H125353   4.152   7.576   4.180  1.2207 -0.3071 -0.1740
 8470TIP3    H225354   4.258   7.617   4.080 -0.0130  1.8673 -0.6173
 8471TIP3   OH225355   1.401   7.775   4.726 -0.2887 -0.2804  0.2401
 8471TIP3    H125356   1.389   7.852   4.671 -0.5345 -1.1375 -0.9253
 8471TIP3    H225357   1.481   7.793   4.776  0.0982  0.3775 -0.6090
 8472TIP3   OH225358   3.591   7.620   5.213 -0.3480  0.0355  0.4153
 8472TIP3    H125359   3.608   7.700   5.263  4.6422 -0.4658 -0.1864
 8472TIP3    H225360   3.569   7.650   5.126  1.4730  0.8221  0.2008
 8473TIP3   OH225361   3.626   7.384   4.285  0.0256 -0.0507 -0.9544
 8473TIP3    H125362   3.575   7.327   4.227 -0.9580  0.8289 -0.9670
 8473TIP3    H225363   3.646   7.461   4.231  0.3083  0.1601 -0.5548
 8474TIP3   OH225364   3.212   5.360   4.735  0.4264 -0.6688  0.3904
 8474TIP3    H125365   3.159   5.421   4.787  1.8695  1.8908 -1.0402
 8474TIP3    H225366   3.302   5.380   4.760  1.0345 -0.6792 -1.7201
 8475TIP3   OH225367   5.860   5.840   4.824  0.1077 -0.2988 -0.0579
 8475TIP3    H125368   5.764   5.835   4.820  0.2176 -3.2398 -0.3192
 8475TIP3    H225369   5.881   5.824   4.916  0.3647 -0.7056 -0.1834
 8476TIP3   OH225370   7.251   0.955   1.610  0.0944  0.4159 -0.0115
 8476TIP3    H125371   7.202   0.981   1.533  0.0485  0.1252 -0.0817
 8476TIP3    H225372   7.261   0.860   1.602 -1.8022  0.0627  1.4342
 8477TIP3   OH225373   4.518   7.869   2.980  0.3975 -0.8946  0.1750
 8477TIP3    H125374   4.425   7.849   2.986  0.1938  0.6182  2.5001
 8477TIP3    H225375   4.561   7.783   2.984 -0.8782 -1.5996 -0.9684
 8478TIP3   OH225376   5.052   7.555   2.550  0.5282  0.4361  0.1255
 8478TIP3    H125377   5.028   7.528   2.461  0.8025  0.3444  0.0789
 8478TIP3    H225378   4.970   7.553   2.599  0.3014  0.9030 -0.2339
 8479TIP3   OH225379   3.235   5.142   4.031  0.2417  0.7142  0.1920
 8479TIP3    H125380   3.312   5.094   4.000  0.2251  0.6751  0.2119
 8479TIP3    H225381   3.171   5.135   3.960  0.6974  1.7838 -0.3382
 8480TIP3   OH225382   3.252   7.037   2.709  0.1058 -0.0072 -0.6056
 8480TIP3    H125383   3.283   6.965   2.763  2.5569  1.0460 -0.5317
 8480TIP3    H225384   3.244   7.001   2.621  0.4306 -0.6080 -0.3872
 8481TIP3   OH225385   4.614   7.149   6.061  0.1317  0.1152  0.3147
 8481TIP3    H125386   4.649   7.169   5.974 -1.2047 -0.6273 -0.4157
 8481TIP3    H225387   4.672   7.083   6.097  0.2548 -0.1320 -0.3346
 8482TIP3   OH225388   3.176   7.551   3.849 -0.2378 -0.6199 -0.2034
 8482TIP3    H125389   3.144   7.505   3.771 -0.6539  1.7170 -1.4736
 8482TIP3    H225390   3.097   7.586   3.890  0.1317 -0.3347  0.2739
 8483TIP3   OH225391   5.699   7.422   5.953  0.0147 -0.0870  0.6991
 8483TIP3    H125392   5.685   7.398   5.862 -2.0539  0.1756  0.9099
 8483TIP3    H225393   5.666   7.347   6.003  0.3203  0.1361  1.2411
 8484TIP3   OH225394   3.236   6.595   2.701 -0.1221 -0.2778 -0.1139
 8484TIP3    H125395   3.187   6.515   2.715  0.6465 -0.7615 -0.1513
 8484TIP3    H225396   3.303   6.572   2.636 -0.7619  0.7473 -1.1740
 8485TIP3   OH225397   7.592   1.193   3.122 -0.2038  0.1767  0.0570
 8485TIP3    H125398   7.608   1.285   3.141  0.8412  0.1582 -0.6888
 8485TIP3    H225399   7.630   1.146   3.196  2.8217  0.1614 -1.4284
 8486TIP3   OH225400   3.997   7.818   0.973  0.5258 -0.1141 -0.0930
 8486TIP3    H125401   3.902   7.807   0.969  0.6351 -0.9951 -0.4462
 8486TIP3    H225402   4.020   7.859   0.889  0.6329 -1.3551 -0.6848
 8487TIP3   OH225403   2.705   5.091   4.718  0.4105 -0.3925  0.2544
 8487TIP3    H125404   2.703   4.995   4.718 -2.5068 -0.3683  0.1371
 8487TIP3    H225405   2.634   5.116   4.660 -1.6916  1.8596  3.6368
 8488TIP3   OH225406   4.283   7.463   2.951 -0.3426 -0.2203  0.0872
 8488TIP3    H125407   4.301   7.370   2.937  1.7018  0.1433  0.0962
 8488TIP3    H225408   4.270   7.498   2.863  1.3350 -0.0646 -0.1132
 8489TIP3   OH225409   2.453   4.469   4.579 -0.8895  0.3478 -0.1884
 8489TIP3    H125410   2.374   4.495   4.627 -1.8073  0.1844 -1.5825
 8489TIP3    H225411   2.423   4.455   4.489  0.7689  0.4580 -0.7783
 8490TIP3   OH225412   5.404   5.730   2.782  0.2603 -0.2756 -0.3311
 8490TIP3    H125413   5.332   5.666   2.778  1.0267 -1.2389  0.8323
 8490TIP3    H225414   5.438   5.722   2.871  0.9681  1.1154 -0.4617
 8491TIP3   OH225415   4.835   5.454   0.777  0.1805 -0.0353 -0.0696
 8491TIP3    H125416   4.828   5.548   0.758 -0.0195  0.0840  0.5555
 8491TIP3    H225417   4.802   5.411   0.698  0.8072  0.4107 -0.5763
 8492TIP3   OH225418   2.375   7.198   1.905  0.4199  0.5546  0.6765
 8492TIP3    H125419   2.370   7.253   1.827  0.5694  1.9343  1.6153
 8492TIP3    H225420   2.454   7.145   1.893 -0.0814  0.0766 -0.5382
 8493TIP3   OH225421   1.602   6.813   4.085  0.0568  0.7570 -0.0429
 8493TIP3    H125422   1.580   6.888   4.141 -0.3739 -0.8426  1.9791
 8493TIP3    H225423   1.642   6.750   4.145 -0.2445 -0.9318 -1.5876
 8494TIP3   OH225424   4.587   4.762   5.126  0.2428 -0.4230 -0.1164
 8494TIP3    H125425   4.510   4.726   5.169  1.9585 -3.2193  0.7270
 8494TIP3    H225426   4.647   4.784   5.198  1.6695 -1.7172 -0.8773
 8495TIP3   OH225427   2.739   6.365   3.064  0.2012 -0.3377 -0.4190
 8495TIP3    H125428   2.697   6.316   3.135 -0.2202  0.1497 -0.3261
 8495TIP3    H225429   2.760   6.450   3.103  2.0360 -0.8592 -0.2189
 8496TIP3   OH225430   3.915   6.229   6.114  0.1022  0.3917 -0.3703
 8496TIP3    H125431   3.835   6.184   6.088 -0.2790  1.4899 -1.0969
 8496TIP3    H225432   3.891   6.275   6.195 -0.1610  1.1733 -0.8900
 8497TIP3   OH225433   7.132   6.018   3.475  0.1893  0.2322 -0.3589
 8497TIP3    H125434   7.202   6.004   3.411  1.0085  1.8126  0.1912
 8497TIP3    H225435   7.070   6.075   3.430 -0.8818 -1.3063 -0.9122
 8498TIP3   OH225436   5.152   7.360   3.064  0.7215  0.1745  0.1485
 8498TIP3    H125437   5.086   7.385   3.129 -0.8758 -0.8514 -1.0458
 8498TIP3    H225438   5.233   7.352   3.115 -0.2564  0.5086  1.8155
 8499TIP3   OH225439   2.790   5.746   4.557 -0.3593  0.4309  0.5467
 8499TIP3    H125440   2.885   5.744   4.571 -0.4962  1.4205  1.7225
 8499TIP3    H225441   2.756   5.675   4.611 -0.3899  0.8003  1.0144
 8500TIP3   OH225442   6.162   5.925   4.739  0.0951 -0.1809  0.1865
 8500TIP3    H125443   6.071   5.916   4.710  0.0199 -2.1055  0.8911
 8500TIP3    H225444   6.156   5.928   4.835  0.8602 -1.6950  0.2930
 8501TIP3   OH225445   6.487   5.606   3.955 -0.3591 -0.0536 -0.3312
 8501TIP3    H125446   6.407   5.617   4.007 -1.0973 -1.3976 -1.1575
 8501TIP3    H225447   6.469   5.653   3.873  0.6923  1.8221  0.4874
 8502TIP3   OH225448   4.866   7.256   2.358  0.2368 -0.2744 -0.0097
 8502TIP3    H125449   4.837   7.341   2.325  0.3356  0.2642  1.2452
 8502TIP3    H225450   4.937   7.230   2.299 -1.5174 -0.7318 -1.9789
 8503TIP3   OH225451   5.958   5.529   2.561 -0.0262 -0.0003 -0.6815
 8503TIP3    H125452   5.967   5.434   2.567 -0.5549 -0.0987 -1.4425
 8503TIP3    H225453   5.985   5.561   2.647  1.6770 -0.7348 -0.9225
 8504TIP3   OH225454   7.188   0.060   3.295  0.0817 -0.2818  0.0645
 8504TIP3    H125455   7.228   0.017   3.219  2.1786  0.9186  0.4581
 8504TIP3    H225456   7.246   0.038   3.368 -0.8364  0.1928  0.9447
 8505TIP3   OH225457   3.243   6.343   3.494  0.0753 -0.3493  0.7854
 8505TIP3    H125458   3.259   6.308   3.581 -0.0586 -0.9834  0.5573
 8505TIP3    H225459   3.277   6.276   3.434  0.7129  0.3418  0.3574
 8506TIP3   OH225460   2.290   7.100   4.587 -0.3065  0.0081 -0.3656
 8506TIP3    H125461   2.227   7.031   4.570 -0.1377 -0.3007  0.2488
 8506TIP3    H225462   2.242   7.181   4.569 -1.7496 -0.1043  2.6929
 8507TIP3   OH225463   6.199   0.111   6.032 -0.2491  0.8961 -0.3330
 8507TIP3    H125464   6.255   0.099   5.955 -2.2657 -1.1881 -1.5078
 8507TIP3    H225465   6.234   0.050   6.097 -0.0378  0.9160 -0.4270
 8508TIP3   OH225466   3.250   4.842   6.194 -0.3365 -0.1709 -0.0636
 8508TIP3    H125467   3.234   4.797   6.111  1.1672 -1.1401  0.1387
 8508TIP3    H225468   3.214   4.784   6.261 -0.1775 -0.1354  0.0551
 8509TIP3   OH225469   5.382   6.328   5.287  0.8498 -0.9246 -0.0022
 8509TIP3    H125470   5.341   6.273   5.220  0.4705 -0.2320 -0.3484
 8509TIP3    H225471   5.317   6.330   5.358  0.9199 -1.0297  0.0647
 8510TIP3   OH225472   3.386   6.796   5.679  0.5108 -0.0048 -0.0419
 8510TIP3    H125473   3.413   6.866   5.739 -1.9630  0.7260  0.2720
 8510TIP3    H225474   3.465   6.778   5.626  2.3866  0.1155  2.6291
 8511TIP3   OH225475   6.222   6.203   3.656  0.3429 -1.0326  0.8047
 8511TIP3    H125476   6.301   6.257   3.654 -0.1613 -0.2855  0.8699
 8511TIP3    H225477   6.203   6.192   3.749  0.0801 -0.7815  0.7821
 8512TIP3   OH225478   4.695   4.573   6.741  0.0368  0.5187  0.4727
 8512TIP3    H125479   4.714   4.511   6.812  0.0062  0.8198  0.7459
 8512TIP3    H225480   4.617   4.620   6.770 -0.7157 -0.2310 -0.3417
 8513TIP3   OH225481   3.558   5.252   0.210 -0.2171 -0.6849 -0.0865
 8513TIP3    H125482   3.552   5.344   0.232 -2.7349 -0.3819 -1.7400
 8513TIP3    H225483   3.611   5.249   0.130  2.1133 -0.9738  1.4320
 8514TIP3   OH225484   5.074   6.740   4.319 -0.3548  0.2415 -0.0464
 8514TIP3    H125485   5.120   6.657   4.331  2.2435  1.8938  2.2106
 8514TIP3    H225486   4.995   6.733   4.371  0.7859 -0.1638  1.6648
 8515TIP3   OH225487   4.535   7.112   3.080 -0.1238 -0.6199  0.3982
 8515TIP3    H125488   4.605   7.177   3.085  0.0986 -0.7486 -0.9361
 8515TIP3    H225489   4.456   7.163   3.062  0.1058 -0.7323 -0.9974
 8516TIP3   OH225490   4.665   7.977   5.237  0.2456  0.2281  0.8049
 8516TIP3    H125491   4.717   7.897   5.245 -0.8374 -0.2073  4.0263
 8516TIP3    H225492   4.726   8.048   5.257  0.4314 -0.0180  1.1076
 8517TIP3   OH225493   3.007   4.569   5.954  0.6385  0.2102 -0.0079
 8517TIP3    H125494   3.013   4.664   5.958  1.0101  0.1870 -0.0176
 8517TIP3    H225495   3.075   4.538   6.015  2.0246 -0.0788 -1.6640
 8518TIP3   OH225496   5.618   6.574   1.992  0.5388 -0.1122  0.4732
 8518TIP3    H125497   5.589   6.543   1.906  0.2975 -1.2067  0.9371
 8518TIP3    H225498   5.713   6.570   1.989  0.5513  0.6622 -0.0417
 8519TIP3   OH225499   4.928   4.902   5.179  0.2775  0.6686  0.1263
 8519TIP3    H125500   4.855   4.873   5.123 -0.7868  2.3911  0.5629
 8519TIP3    H225501   4.902   4.876   5.267  1.3765 -0.9294 -0.0004
 8520TIP3   OH225502   5.352   5.869   3.191  0.3047 -0.2126  0.7062
 8520TIP3    H125503   5.285   5.877   3.259 -0.1750 -2.9448  0.6108
 8520TIP3    H225504   5.421   5.929   3.219 -1.6467  1.8054  1.4090
 8521TIP3   OH225505   4.885   6.477   5.013  0.2517 -0.9354  1.0555
 8521TIP3    H125506   4.892   6.387   5.047 -0.4473 -1.3326  0.1639
 8521TIP3    H225507   4.940   6.476   4.935 -0.5812 -0.8729  0.4676
 8522TIP3   OH225508   4.900   7.157   4.270 -0.3497  0.5692  0.2237
 8522TIP3    H125509   4.941   7.226   4.322  2.2439 -0.9211  0.2445
 8522TIP3    H225510   4.967   7.131   4.207 -1.6335 -1.2339 -0.4502
 8523TIP3   OH225511   7.027   0.041   6.160 -0.0437 -0.3793  0.0339
 8523TIP3    H125512   7.026   0.030   6.255  1.4208  1.7876  0.3387
 8523TIP3    H225513   7.071   0.125   6.146 -0.7151 -0.4142 -2.5408
 8524TIP3   OH225514   5.989   5.628   4.662  0.0435 -0.4537 -0.5039
 8524TIP3    H125515   5.939   5.577   4.598  0.6605 -2.1606  0.3611
 8524TIP3    H225516   5.923   5.659   4.725 -0.3326 -0.1360 -1.0456
 8525TIP3   OH225517   4.778   7.316   2.830  0.2569 -0.3216  0.0894
 8525TIP3    H125518   4.736   7.328   2.915 -0.2452  0.2390 -0.2330
 8525TIP3    H225519   4.726   7.370   2.770  0.1001 -1.3644 -0.7265
 8526TIP3   OH225520   4.283   6.655   3.976 -0.4985  0.0603 -0.4554
 8526TIP3    H125521   4.228   6.692   3.907  2.1313  0.5562 -2.3793
 8526TIP3    H225522   4.247   6.692   4.057 -3.3014 -0.0886 -1.5595
 8527TIP3   OH225523   6.596   7.370   3.703  0.6067 -0.3795 -0.1232
 8527TIP3    H125524   6.540   7.304   3.743 -2.4920  1.7125 -0.9030
 8527TIP3    H225525   6.595   7.349   3.610  0.7516 -0.0232 -0.2048
 8528TIP3   OH225526   4.937   5.744   5.251  0.8501  0.1233  0.3686
 8528TIP3    H125527   4.927   5.702   5.165  1.6373 -0.6730  0.6510
 8528TIP3    H225528   4.899   5.682   5.313  2.2961 -0.3379  0.8208
 8529TIP3   OH225529   4.646   5.408   4.763 -0.1201 -0.3042  0.3475
 8529TIP3    H125530   4.690   5.369   4.688 -0.1454 -0.3505  0.3572
 8529TIP3    H225531   4.681   5.361   4.838  0.8821  0.6276  0.4786
 8530TIP3   OH225532   4.593   6.923   4.905 -0.6253  0.2391 -0.8160
 8530TIP3    H125533   4.555   6.882   4.827 -1.3576 -1.2452  0.3011
 8530TIP3    H225534   4.654   6.857   4.939 -0.6914  0.6823  0.1657
 8531TIP3   OH225535   4.010   4.461   4.931  0.3122 -0.0948  0.2664
 8531TIP3    H125536   4.008   4.557   4.933 -0.6305 -0.1130  0.7234
 8531TIP3    H225537   4.049   4.439   4.847 -1.1538  0.6841 -0.6364
 8532TIP3   OH225538   6.961   1.161   5.308  0.2400  0.0071 -0.1181
 8532TIP3    H125539   6.975   1.104   5.383 -1.7466 -0.5191 -0.1220
 8532TIP3    H225540   7.010   1.118   5.237  0.9867 -0.2300  0.5315
 8533TIP3   OH225541   0.629   6.444   3.951  0.0790 -0.4573 -0.0287
 8533TIP3    H125542   0.553   6.404   3.992 -0.5134  0.7304  0.0385
 8533TIP3    H225543   0.596   6.483   3.870  0.0366  2.4034  1.2796
 8534TIP3   OH225544   3.580   3.203   6.057  0.0460  0.0308  0.7348
 8534TIP3    H125545   3.519   3.243   6.119  0.2666  1.0177  0.3220
 8534TIP3    H225546   3.575   3.258   5.979  0.1276 -0.9261  0.0414
 8535TIP3   OH225547   3.720   4.829   5.961  0.2238 -0.1611 -0.5625
 8535TIP3    H125548   3.734   4.924   5.954  0.3406 -0.1990 -0.8425
 8535TIP3    H225549   3.721   4.798   5.871  0.5330 -0.4797 -0.4521
 8536TIP3   OH225550   2.321   6.190   4.905 -0.1497 -0.6645 -0.0417
 8536TIP3    H125551   2.400   6.222   4.862 -1.2826  0.6062 -1.2064
 8536TIP3    H225552   2.346   6.104   4.939  2.8345  1.2048  2.7850
 8537TIP3   OH225553   6.268   0.225   4.015 -0.2102  0.0254 -0.9529
 8537TIP3    H125554   6.351   0.178   4.028 -0.0357  1.2438  2.9892
 8537TIP3    H225555   6.201   0.157   4.016  0.3808 -0.5612  0.5618
 8538TIP3   OH225556   5.949   5.936   2.955 -0.0158  0.4824  0.4444
 8538TIP3    H125557   5.934   5.986   3.035 -0.7467 -0.9557  1.2289
 8538TIP3    H225558   5.890   5.861   2.962  0.2274  0.1016 -1.2394
 8539TIP3   OH225559   2.234   6.390   3.618 -0.1221  0.2175 -0.2765
 8539TIP3    H125560   2.269   6.418   3.702  0.1304  0.0990 -0.3415
 8539TIP3    H225561   2.143   6.367   3.636  0.1505 -0.5573  0.1188
 8540TIP3   OH225562   6.929   0.541   3.985 -0.2806  0.0508  0.0072
 8540TIP3    H125563   6.995   0.571   4.046  0.4912  0.0056 -0.7911
 8540TIP3    H225564   6.889   0.621   3.950 -1.9194  0.0726  1.8142
 8541TIP3   OH225565   4.094   5.664   4.618 -0.0378 -0.0782  0.0255
 8541TIP3    H125566   4.053   5.612   4.549 -1.8707  0.6546  0.5425
 8541TIP3    H225567   4.109   5.601   4.689 -0.1523 -0.3739 -0.2116
 8542TIP3   OH225568   2.993   5.894   4.291  0.0590  0.0823  0.4116
 8542TIP3    H125569   3.004   5.914   4.198  0.9262 -1.6720  0.1043
 8542TIP3    H225570   2.898   5.895   4.305 -0.0647  0.6305 -0.4214
 8543TIP3   OH225571   4.575   6.838   4.641  0.6166  0.1624  0.5978
 8543TIP3    H125572   4.660   6.876   4.617 -0.0482  1.7186  0.6331
 8543TIP3    H225573   4.582   6.746   4.617  1.4493  0.7945 -1.6956
 8544TIP3   OH225574   7.344   6.510   4.162  0.3936 -0.2550  0.0951
 8544TIP3    H125575   7.347   6.442   4.230  1.2403 -1.4376 -1.0886
 8544TIP3    H225576   7.420   6.491   4.107  0.4800  1.5107 -0.4084
 8545TIP3   OH225577   5.166   7.291   3.699 -0.5737  0.1745 -0.5216
 8545TIP3    H125578   5.237   7.353   3.715  0.7738 -1.5884  0.6932
 8545TIP3    H225579   5.125   7.279   3.784 -2.0657  0.8268 -1.1285
 8546TIP3   OH225580   7.831   0.154   0.994  0.1010  0.0625 -0.0822
 8546TIP3    H125581   7.866   0.118   1.076 -1.9643 -0.5136  0.5955
 8546TIP3    H225582   7.785   0.234   1.020  0.0759  0.2811 -0.7860
 8547TIP3   OH225583   4.075   3.964   3.911 -0.4405  0.5186  0.0626
 8547TIP3    H125584   4.160   3.934   3.878 -0.5775  0.5664 -0.3379
 8547TIP3    H225585   4.057   3.908   3.987 -0.8268 -0.6086 -0.8444
 8548TIP3   OH225586   3.085   7.191   4.236  0.0952 -0.6069  0.5513
 8548TIP3    H125587   3.128   7.108   4.217  1.5788 -0.2552  2.2313
 8548TIP3    H225588   3.043   7.178   4.321  0.2230  0.3249  0.7698
 8549TIP3   OH225589   1.644   7.633   2.451  0.3732  0.5666  0.3584
 8549TIP3    H125590   1.696   7.619   2.531  0.4855 -1.3489 -0.0248
 8549TIP3    H225591   1.633   7.545   2.414 -0.7177  1.2959 -1.0919
 8550TIP3   OH225592   4.981   6.753   3.533  0.4154  0.1058 -0.0875
 8550TIP3    H125593   4.901   6.802   3.517 -0.6319 -1.0878  1.4367
 8550TIP3    H225594   5.021   6.796   3.609 -0.3650 -1.1693  1.0791
 8551TIP3   OH225595   5.934   6.217   4.577 -0.1432  0.2332  0.4584
 8551TIP3    H125596   5.902   6.127   4.580 -0.0699  0.1936  0.1086
 8551TIP3    H225597   5.860   6.270   4.609 -0.5934  0.1518 -0.4333
 8552TIP3   OH225598   4.198   5.316   5.036  0.3675 -1.2451 -0.0920
 8552TIP3    H125599   4.111   5.338   5.003  0.4619 -1.0356 -0.2006
 8552TIP3    H225600   4.184   5.237   5.089  0.0633 -1.0350  0.1401
 8553TIP3   OH225601   3.410   6.583   2.487 -0.3733 -0.1531 -0.0848
 8553TIP3    H125602   3.503   6.601   2.503 -0.9331  1.7796  1.2285
 8553TIP3    H225603   3.393   6.618   2.400  0.3818 -1.5977 -0.8336
 8554TIP3   OH225604   5.470   4.419   5.536  0.5347 -0.7950  0.0922
 8554TIP3    H125605   5.558   4.384   5.549  0.1343 -1.7310  0.2893
 8554TIP3    H225606   5.468   4.447   5.444  1.2290 -0.2165  0.2510
 8555TIP3   OH225607   4.913   4.771   5.581  0.0002  0.1243  0.3663
 8555TIP3    H125608   4.937   4.742   5.669 -0.6707 -0.5612  0.3341
 8555TIP3    H225609   4.987   4.742   5.526  1.0037  1.6599  0.8812
 8556TIP3   OH225610   2.339   3.978   5.162 -0.0901  0.2744  0.0962
 8556TIP3    H125611   2.400   4.024   5.103 -2.0131  1.5312 -0.9922
 8556TIP3    H225612   2.388   3.903   5.195  1.7380  0.7605 -1.4593
 8557TIP3   OH225613   7.005   6.171   4.902 -0.1098 -0.2072 -0.1782
 8557TIP3    H125614   6.960   6.132   4.827 -0.7917  1.8020 -0.8682
 8557TIP3    H225615   6.940   6.232   4.939  1.8972  2.5525 -1.0348
 8558TIP3   OH225616   4.437   7.326   4.893  0.0162 -0.0935  0.4077
 8558TIP3    H125617   4.417   7.233   4.898 -1.1797  0.1453  0.2630
 8558TIP3    H225618   4.352   7.368   4.879  0.5470  1.0154  0.4576
 8559TIP3   OH225619   3.661   6.223   5.316  0.1531  0.3914 -0.2214
 8559TIP3    H125620   3.687   6.221   5.408  1.8276  1.9489 -0.6132
 8559TIP3    H225621   3.714   6.294   5.278  0.7773 -1.3392 -2.7539
 8560TIP3   OH225622   3.513   4.946   5.022  0.7990  0.3707  0.1993
 8560TIP3    H125623   3.597   4.903   5.007  0.6696  0.2061 -0.0447
 8560TIP3    H225624   3.523   4.989   5.108  0.7761 -0.5070  0.6440
 8561TIP3   OH225625   5.892   7.025   5.048 -0.1557  0.1505 -0.3133
 8561TIP3    H125626   5.863   7.036   4.957 -1.2834  0.6798  0.1019
 8561TIP3    H225627   5.976   7.071   5.052 -0.1631  0.2387 -1.0498
 8562TIP3   OH225628   5.245   6.397   4.986  0.3416 -0.4576 -0.7123
 8562TIP3    H125629   5.323   6.403   4.932 -1.0087 -2.8239 -3.0105
 8562TIP3    H225630   5.259   6.321   5.042  1.0134  1.0074  1.1917
 8563TIP3   OH225631   3.075   5.634   2.753  0.0097 -0.3208  0.1148
 8563TIP3    H125632   3.074   5.720   2.710  0.6988 -0.8388 -0.9538
 8563TIP3    H225633   3.026   5.577   2.694  0.3069 -0.8632  0.3840
 8564TIP3   OH225634   3.537   5.417   4.782 -0.1857 -0.2977 -0.1824
 8564TIP3    H125635   3.571   5.499   4.745  0.2712 -0.6211 -0.4931
 8564TIP3    H225636   3.521   5.436   4.874 -2.6574  0.9330 -0.8247
 8565TIP3   OH225637   3.480   5.679   4.874  0.7286 -0.0117  0.0571
 8565TIP3    H125638   3.418   5.737   4.918 -1.5175 -1.5520 -1.0090
 8565TIP3    H225639   3.478   5.598   4.924 -0.2324 -1.0299 -1.5925
 8566TIP3   OH225640   5.185   0.206   4.530  0.0834 -0.5797  0.0107
 8566TIP3    H125641   5.247   0.220   4.602 -1.2509  2.3886  0.6678
 8566TIP3    H225642   5.235   0.227   4.451  0.6628 -0.8475  0.3001
 8567TIP3   OH225643   4.776   7.950   5.965 -0.2170  0.2531 -0.4385
 8567TIP3    H125644   4.733   7.975   5.883  1.3767 -1.6527 -1.8971
 8567TIP3    H225645   4.851   8.008   5.972  0.2397 -0.2917 -0.8597
 8568TIP3   OH225646   4.589   5.874   4.714  0.0936  0.4394 -0.1385
 8568TIP3    H125647   4.516   5.933   4.730  0.2488  0.9724 -1.3057
 8568TIP3    H225648   4.549   5.790   4.694 -0.1700  0.5242  0.0316
 8569TIP3   OH225649   5.210   4.745   4.463 -0.1932  0.7362  0.0856
 8569TIP3    H125650   5.232   4.660   4.500 -3.1023  0.3798  1.0993
 8569TIP3    H225651   5.180   4.726   4.374 -0.4608  0.7410  0.1746
 8570TIP3   OH225652   2.055   6.949   4.540  0.5773 -0.6203  0.1196
 8570TIP3    H125653   1.976   7.000   4.553  0.4740 -0.5844 -0.6048
 8570TIP3    H225654   2.031   6.860   4.566 -0.3050 -1.0229 -1.9773
 8571TIP3   OH225655   2.170   5.115   6.703  0.0181  0.3089  0.4096
 8571TIP3    H125656   2.247   5.058   6.695  1.8607  2.3263  3.1515
 8571TIP3    H225657   2.168   5.163   6.620  1.5353  0.0649  0.2243
 8572TIP3   OH225658   6.819   0.214   3.074  0.0709  0.2845  0.8248
 8572TIP3    H125659   6.865   0.171   3.002  0.5453  0.7544  0.8447
 8572TIP3    H225660   6.889   0.244   3.132 -0.1845  2.1377  0.2140
 8573TIP3   OH225661   7.527   0.761   3.217 -0.0201 -0.3275  0.0343
 8573TIP3    H125662   7.559   0.697   3.154  0.8659 -1.1735  1.3092
 8573TIP3    H225663   7.455   0.716   3.261 -1.0236  0.4764 -0.7700
 8574TIP3   OH225664   2.982   7.717   3.951  0.2681  0.2060  0.2571
 8574TIP3    H125665   2.969   7.810   3.970  0.0171  0.0063  1.1075
 8574TIP3    H225666   2.930   7.672   4.018  0.5893 -0.5450  0.0032
 8575TIP3   OH225667   2.895   6.257   4.686  0.0427  0.6034  0.1401
 8575TIP3    H125668   2.958   6.310   4.736  0.3749 -1.4038  1.9103
 8575TIP3    H225669   2.950   6.207   4.625  0.1328 -0.5866  1.1691
 8576TIP3   OH225670   4.839   0.115   6.105 -0.1965  0.6129 -0.1848
 8576TIP3    H125671   4.811   0.207   6.101  0.3015  0.7086 -1.6619
 8576TIP3    H225672   4.922   0.113   6.057 -0.7881 -0.8121 -1.1902
 8577TIP3   OH225673   5.213   7.721   2.776  0.0225  0.4635 -0.6138
 8577TIP3    H125674   5.175   7.806   2.752  2.8166  2.3561  1.4114
 8577TIP3    H225675   5.182   7.704   2.865  0.5905  0.0365 -0.4904
 8578TIP3   OH225676   2.217   4.502   4.704 -0.2869  0.0853 -0.2250
 8578TIP3    H125677   2.138   4.453   4.726  0.6724 -1.2513  0.3106
 8578TIP3    H225678   2.220   4.573   4.767 -2.5225  1.8122 -1.9790
 8579TIP3   OH225679   4.820   6.970   6.262 -0.6390 -0.8523  1.0991
 8579TIP3    H125680   4.746   6.914   6.286 -1.2075 -0.9426 -0.7430
 8579TIP3    H225681   4.894   6.910   6.254 -1.1839 -1.3407 -0.5862
 8580TIP3   OH225682   6.194   5.044   3.881 -0.2066 -0.3490 -0.1899
 8580TIP3    H125683   6.264   4.990   3.917 -0.4877 -0.8011 -0.3206
 8580TIP3    H225684   6.227   5.134   3.889  0.3091 -0.5443 -0.0811
 8581TIP3   OH225685   1.432   5.822   2.265  0.0273 -0.0692  0.3332
 8581TIP3    H125686   1.421   5.742   2.316  0.9284  0.0891  0.7931
 8581TIP3    H225687   1.447   5.890   2.331 -0.2426  0.3876 -0.0777
 8582TIP3   OH225688   1.993   3.149   3.640 -0.2564  0.4275  0.3738
 8582TIP3    H125689   2.065   3.109   3.591 -0.3163  0.1815  0.4828
 8582TIP3    H225690   1.948   3.074   3.682 -0.3310  0.6147  0.6307
 8583TIP3   OH225691   5.693   5.057   4.612 -0.4206 -0.1493  0.1698
 8583TIP3    H125692   5.664   5.115   4.682 -0.2858  2.3865 -1.8100
 8583TIP3    H225693   5.784   5.038   4.633 -0.6710 -0.2202  1.2024
 8584TIP3   OH225694   4.217   5.755   5.371 -0.1008  0.1682  0.3549
 8584TIP3    H125695   4.224   5.837   5.420  1.2428  0.0357  0.4071
 8584TIP3    H225696   4.296   5.753   5.316  0.0616 -1.2522  0.6198
 8585TIP3   OH225697   3.489   5.937   4.168  0.2584 -0.6621 -0.1323
 8585TIP3    H125698   3.398   5.955   4.143  0.6615  0.8760 -0.5827
 8585TIP3    H225699   3.540   6.006   4.125  1.5856 -1.1985  0.5300
 8586TIP3   OH225700   5.757   0.356   3.881 -0.6377 -0.6904 -0.2764
 8586TIP3    H125701   5.669   0.332   3.910 -1.0613 -0.4263 -1.3266
 8586TIP3    H225702   5.747   0.375   3.788  0.1763  1.1073 -0.0087
 8587TIP3   OH225703   4.943   5.559   5.022  0.7137  0.0026 -0.4602
 8587TIP3    H125704   4.848   5.557   5.009  1.1163  2.9885 -4.7534
 8587TIP3    H225705   4.974   5.475   4.988 -0.1135  0.1816 -1.6579
 8588TIP3   OH225706   5.056   6.816   6.209  0.1414 -0.4706 -0.1431
 8588TIP3    H125707   5.069   6.721   6.217  1.8134 -0.2394 -0.1017
 8588TIP3    H225708   5.081   6.851   6.295 -2.3785 -0.1599  0.5305
 8589TIP3   OH225709   4.353   6.271   2.676  0.2623 -0.0333 -0.2057
 8589TIP3    H125710   4.414   6.247   2.606  1.0672  0.1364  0.4425
 8589TIP3    H225711   4.317   6.355   2.648  0.8491  0.2064 -0.2477
 8590TIP3   OH225712   5.307   6.382   2.959 -0.3622  0.0009 -0.2347
 8590TIP3    H125713   5.313   6.453   3.022  0.7039 -0.2998  0.0105
 8590TIP3    H225714   5.274   6.423   2.879 -1.9951  0.3317  0.5863
 8591TIP3   OH225715   3.028   6.416   5.625  0.1908  0.2880 -0.0665
 8591TIP3    H125716   3.004   6.422   5.717 -1.8353 -0.9044 -0.4858
 8591TIP3    H225717   3.035   6.322   5.608  1.0812  0.5138 -1.0020
 8592TIP3   OH225718   5.401   5.059   5.926 -0.1443  0.0157  0.2513
 8592TIP3    H125719   5.362   5.030   6.008  0.2486 -2.6128 -0.4482
 8592TIP3    H225720   5.376   4.992   5.863  1.0649  1.0757 -1.3830
 8593TIP3   OH225721   3.529   6.804   2.708 -0.8012 -0.2251 -0.7418
 8593TIP3    H125722   3.536   6.710   2.726  0.1348 -0.3059 -1.5081
 8593TIP3    H225723   3.556   6.847   2.790  3.2976 -0.5811 -1.8092
 8594TIP3   OH225724   6.593   4.468   4.164 -0.4678  0.2505  0.8299
 8594TIP3    H125725   6.501   4.464   4.140 -0.1073 -1.0631 -0.3984
 8594TIP3    H225726   6.596   4.435   4.254 -0.9989 -1.3631  0.2723
 8595TIP3   OH225727   7.385   0.055   3.461 -0.0398  0.6472  0.5111
 8595TIP3    H125728   7.438   0.111   3.517  0.0962  1.5935 -0.5592
 8595TIP3    H225729   7.445  -0.012   3.428 -0.0463  0.2955  1.1950
 8596TIP3   OH225730   5.793   6.035   5.634  0.5114 -0.1674 -0.0664
 8596TIP3    H125731   5.750   5.966   5.685 -2.2145 -0.2266 -2.2660
 8596TIP3    H225732   5.744   6.115   5.656  0.4821  0.1300 -1.1867
 8597TIP3   OH225733   7.742   7.197   3.759 -0.0585  0.5211  0.1711
 8597TIP3    H125734   7.793   7.271   3.792 -0.3479  0.6233  0.3877
 8597TIP3    H225735   7.733   7.214   3.665  2.9702 -1.0583 -0.4775
 8598TIP3   OH225736   4.368   5.495   5.381 -0.3200  0.5355  0.0595
 8598TIP3    H125737   4.296   5.504   5.318  0.1736  0.3954 -0.5392
 8598TIP3    H225738   4.445   5.481   5.326  0.3799  2.0568  0.6332
 8599TIP3   OH225739   6.650   7.000   4.561  0.4726  0.2892  0.1791
 8599TIP3    H125740   6.614   6.915   4.537 -0.0948  0.2400  1.1642
 8599TIP3    H225741   6.728   6.978   4.612 -0.6696  0.3160  1.9749
 8600TIP3   OH225742   3.902   6.356   2.455  0.4944 -0.3740 -0.2250
 8600TIP3    H125743   3.957   6.287   2.493  0.7247 -1.3942 -2.3319
 8600TIP3    H225744   3.833   6.309   2.408  0.3797  0.8340 -1.3044
 8601TIP3   OH225745   5.234   6.659   5.404 -0.2286 -0.3194 -0.4617
 8601TIP3    H125746   5.307   6.601   5.424 -0.8834 -0.9386  0.1806
 8601TIP3    H225747   5.265   6.746   5.430 -0.1348 -0.7462  0.9037
 8602TIP3   OH225748   5.462   5.220   3.875 -0.2564 -0.0319  0.1091
 8602TIP3    H125749   5.454   5.199   3.968  0.3574  2.3095  0.7048
 8602TIP3    H225750   5.375   5.249   3.849  0.1383  1.5643  0.5371
 8603TIP3   OH225751   5.313   5.741   5.175 -0.6043 -0.0266  0.9164
 8603TIP3    H125752   5.358   5.808   5.123 -1.1698 -0.0072  0.4488
 8603TIP3    H225753   5.382   5.678   5.197 -0.5827 -0.6704 -0.8931
 8604TIP3   OH225754   6.918   7.404   4.401 -0.4180  0.4474 -0.0306
 8604TIP3    H125755   6.933   7.494   4.433 -0.3409  0.1778  0.7182
 8604TIP3    H225756   6.964   7.400   4.318  1.2085  0.5297  0.8420
 8605TIP3   OH225757   5.767   4.771   5.567  0.0594 -0.3846 -0.4047
 8605TIP3    H125758   5.837   4.734   5.513 -0.3416 -1.0538 -0.4614
 8605TIP3    H225759   5.789   4.743   5.656  0.6495  0.6129 -0.2221
 8606TIP3   OH225760   6.214   6.989   3.712  0.0429  0.1121 -0.0068
 8606TIP3    H125761   6.225   7.006   3.805 -0.2795  0.8538 -0.1025
 8606TIP3    H225762   6.255   6.903   3.698 -0.9978 -0.5641  1.0374
 8607TIP3   OH225763   5.057   5.666   5.832  0.3048 -0.0329 -0.3539
 8607TIP3    H125764   5.092   5.599   5.891 -0.1591  0.1686  0.1496
 8607TIP3    H225765   5.037   5.740   5.889 -1.1797 -0.2362 -0.6056
 8608TIP3   OH225766   5.119   5.969   4.996 -0.6344 -0.5271 -0.1052
 8608TIP3    H125767   5.117   5.885   5.040 -1.5095 -1.0049 -1.0440
 8608TIP3    H225768   5.163   5.952   4.912 -0.8721 -0.0670 -0.3261
 8609TIP3   OH225769   5.499   4.700   3.634  0.5115 -0.8014  1.4304
 8609TIP3    H125770   5.505   4.692   3.730  2.7322 -1.0875  1.2854
 8609TIP3    H225771   5.579   4.746   3.609 -1.6143  2.2482  0.0125
 8610TIP3   OH225772   6.423   6.065   4.837  0.0786 -0.4593  0.3271
 8610TIP3    H125773   6.400   5.977   4.809  0.1647 -0.1651 -0.6987
 8610TIP3    H225774   6.507   6.083   4.794 -0.5642  0.6009 -0.5235
 8611TIP3   OH225775   6.581   6.731   3.955  0.3604 -0.2910  0.2725
 8611TIP3    H125776   6.589   6.756   4.047  0.8460  0.4327  0.0310
 8611TIP3    H225777   6.634   6.795   3.907 -1.2881  0.4076 -0.6691
 8612TIP3   OH225778   3.408   5.428   5.469 -0.1026  0.1520 -0.0275
 8612TIP3    H125779   3.412   5.522   5.451 -0.3568  0.3824  1.0701
 8612TIP3    H225780   3.360   5.391   5.395  1.6268  0.6171 -1.4284
 8613TIP3   OH225781   4.949   7.516   3.202 -0.1322  0.2956  0.6482
 8613TIP3    H125782   4.872   7.566   3.229 -0.8822 -0.3272 -0.3156
 8613TIP3    H225783   4.933   7.428   3.235 -0.0793  0.0346 -0.0282
 8614TIP3   OH225784   6.863   7.814   3.465 -0.0967  0.0052  0.2597
 8614TIP3    H125785   6.932   7.848   3.408 -0.3213 -0.3181 -0.1979
 8614TIP3    H225786   6.850   7.884   3.530  0.4952  0.1647  0.2110
 8615TIP3   OH225787   5.567   7.496   3.162  0.1863 -0.2961 -0.1282
 8615TIP3    H125788   5.549   7.589   3.153 -1.4851 -0.4450  1.4014
 8615TIP3    H225789   5.537   7.457   3.080  0.0853  0.4039 -0.4225
 8616TIP3   OH225790   6.085   7.712   2.019  0.5785 -0.4028 -0.0755
 8616TIP3    H125791   6.167   7.708   2.067 -0.0241  1.4152  1.1325
 8616TIP3    H225792   6.038   7.787   2.056  0.0230  0.9791 -3.4002
 8617TIP3   OH225793   4.760   6.715   4.942 -0.0273 -0.0643 -0.0139
 8617TIP3    H125794   4.784   6.625   4.962  0.8870  0.1748 -0.0158
 8617TIP3    H225795   4.823   6.769   4.990 -0.4133  0.5668 -0.2016
 8618TIP3   OH225796   7.626   6.056   2.686 -0.6946  0.3054  0.1391
 8618TIP3    H125797   7.572   6.020   2.616 -1.1975  1.6262 -0.1680
 8618TIP3    H225798   7.711   6.013   2.675 -0.7259  0.6008 -1.3631
 8619TIP3   OH225799   6.862   7.161   3.762 -0.3843  0.2007  0.0743
 8619TIP3    H125800   6.904   7.186   3.844 -0.4274  2.3391 -0.5451
 8619TIP3    H225801   6.785   7.217   3.756  0.0440  0.5942 -1.8158
 8620TIP3   OH225802   7.430   3.694   5.178  0.3178 -0.2394  0.9741
 8620TIP3    H125803   7.466   3.755   5.114  0.1196  2.1172  3.0424
 8620TIP3    H225804   7.398   3.620   5.126  0.1620  1.6165 -1.6311
 8621TIP3   OH225805   6.983   5.348   1.286 -0.0971  0.1415 -0.4725
 8621TIP3    H125806   6.992   5.427   1.232 -2.6938  0.1643 -0.9640
 8621TIP3    H225807   6.973   5.277   1.223 -0.3657 -0.2187 -0.0269
 8622TIP3   OH225808   6.845   7.167   4.705 -0.3181  0.1620 -0.2586
 8622TIP3    H125809   6.938   7.159   4.729 -0.6467  0.5563  1.1974
 8622TIP3    H225810   6.799   7.169   4.789 -2.0933 -4.7992 -0.9505
 8623TIP3   OH225811   7.874   6.724   2.232 -0.3526 -0.4854 -0.0162
 8623TIP3    H125812   7.901   6.816   2.225 -1.2151 -0.3087 -1.1978
 8623TIP3    H225813   7.836   6.704   2.147  0.2908 -2.0984  0.0699
 8624TIP3   OH225814   6.196   4.315   1.696  0.0180  0.4002  0.9161
 8624TIP3    H125815   6.122   4.325   1.637 -0.3871  0.1100  1.3693
 8624TIP3    H225816   6.201   4.221   1.713  1.1440  0.2913  0.0583
 8625TIP3   OH225817   5.078   7.176   3.957 -0.6039 -0.4167  0.0768
 8625TIP3    H125818   5.129   7.102   3.925 -0.7667 -0.2942 -0.4732
 8625TIP3    H225819   4.990   7.161   3.923 -0.7128 -0.1412  0.2387
 8626TIP3   OH225820   7.282   0.384   4.931 -0.1437 -0.0466  1.0128
 8626TIP3    H125821   7.341   0.350   4.998 -1.0061 -1.7650  0.9270
 8626TIP3    H225822   7.308   0.475   4.920  2.5216 -0.7568  0.9693
 8627TIP3   OH225823   6.585   6.294   1.897 -0.3395  0.1174 -0.0816
 8627TIP3    H125824   6.502   6.283   1.942  0.0436 -0.0684  0.5744
 8627TIP3    H225825   6.652   6.285   1.965  0.1658  1.9158 -0.3007
 8628TIP3   OH225826   8.361   5.800   3.685  0.2843  0.0026  0.0374
 8628TIP3    H125827   8.370   5.705   3.689  0.4842  0.0176 -0.0657
 8628TIP3    H225828   8.282   5.819   3.737  0.8067 -0.1233  0.8820
 8629TIP3   OH225829   6.185   5.289   2.907 -0.3974  0.0193 -0.2199
 8629TIP3    H125830   6.091   5.297   2.925 -0.7175 -0.9906 -1.3779
 8629TIP3    H225831   6.206   5.366   2.853 -0.5098  0.3749  0.2464
 8630TIP3   OH225832   7.336   6.784   4.242 -0.3045  0.3712  0.4772
 8630TIP3    H125833   7.367   6.763   4.330 -0.2606  0.9202  0.5950
 8630TIP3    H225834   7.316   6.699   4.202  0.1474  0.0911  0.8447
 8631TIP3   OH225835   8.086   5.882   3.884 -0.1210 -0.2072  0.1801
 8631TIP3    H125836   8.008   5.848   3.928 -0.7945  0.6828 -0.3161
 8631TIP3    H225837   8.132   5.931   3.952  0.2514 -1.1218  0.5944
 8632TIP3   OH225838   7.566   6.373   3.500 -0.0414  0.3153 -0.6577
 8632TIP3    H125839   7.639   6.397   3.557 -0.8591 -0.4204  0.7463
 8632TIP3    H225840   7.595   6.293   3.456 -0.4491 -0.7051  0.8604
 8633TIP3   OH225841   0.881   0.035   2.558  0.2309 -0.0958 -0.0870
 8633TIP3    H125842   0.976   0.025   2.559  0.1997 -1.1895 -2.7636
 8633TIP3    H225843   0.864   0.100   2.491 -0.9519 -0.7039 -0.3929
 8634TIP3   OH225844   4.513   6.206   2.049  0.3260  0.1323  0.3197
 8634TIP3    H125845   4.439   6.145   2.047 -0.0779  0.5252  2.5109
 8634TIP3    H225846   4.590   6.149   2.046 -0.0365 -0.2826 -1.8552
 8635TIP3   OH225847   7.200   6.537   3.124  0.2195  0.1305 -0.6328
 8635TIP3    H125848   7.296   6.540   3.129  0.2484 -0.8408 -0.4020
 8635TIP3    H225849   7.177   6.603   3.059  1.0485  0.4295 -0.6245
 8636TIP3   OH225850   7.611   6.341   4.786 -0.4071 -0.3152 -0.3628
 8636TIP3    H125851   7.642   6.288   4.859  0.1596 -0.0091 -0.3764
 8636TIP3    H225852   7.677   6.409   4.776 -2.4611  2.0883  1.4675
 8637TIP3   OH225853   6.331   6.272   1.988  0.0008 -0.4324 -0.1278
 8637TIP3    H125854   6.294   6.200   2.041 -1.8404  0.2125 -0.4893
 8637TIP3    H225855   6.278   6.271   1.908 -0.6003  1.8499  0.2107
 8638TIP3   OH225856   5.719   2.152   0.611 -0.0941  0.0411 -0.4553
 8638TIP3    H125857   5.680   2.224   0.661 -0.6695 -1.5192  1.4168
 8638TIP3    H225858   5.808   2.145   0.645 -0.4397 -0.9240  0.2843
 8639TIP3   OH225859   5.045   6.642   3.008  0.3354  0.4348 -0.1645
 8639TIP3    H125860   4.993   6.588   3.067  0.3109  2.7101  1.9697
 8639TIP3    H225861   4.995   6.642   2.926 -1.6484  0.3579  1.0164
 8640TIP3   OH225862   6.787   5.624   0.973 -0.0219  0.2899 -0.7825
 8640TIP3    H125863   6.860   5.663   1.020 -0.6450 -0.1167  0.5348
 8640TIP3    H225864   6.781   5.675   0.892  0.3152  1.7759  0.1013
 8641TIP3   OH225865   6.660   0.342   2.447  0.0229 -0.2584 -0.1877
 8641TIP3    H125866   6.747   0.302   2.449  0.6162  0.9983 -0.4417
 8641TIP3    H225867   6.669   0.415   2.385 -1.1623 -0.0034 -0.0647
 8642TIP3   OH225868   3.063   7.456   3.296  0.2017  0.5174 -0.0344
 8642TIP3    H125869   3.115   7.440   3.376  0.2547 -0.7293 -0.3036
 8642TIP3    H225870   2.972   7.456   3.327  0.2481  0.5600  0.1057
 8643TIP3   OH225871   6.027   7.404   4.846 -0.1755 -0.2330 -0.0634
 8643TIP3    H125872   5.947   7.393   4.795 -0.2025  0.2744 -0.1352
 8643TIP3    H225873   6.040   7.499   4.849  0.1917 -0.2963  0.3058
 8644TIP3   OH225874   7.111   7.289   0.548  0.4188 -0.7510  0.6153
 8644TIP3    H125875   7.063   7.303   0.629  0.9066  0.4999  0.6974
 8644TIP3    H225876   7.057   7.330   0.480 -0.5186 -2.7178  0.1277
 8645TIP3   OH225877   6.668   7.513   3.949  0.2991  0.0829  0.6906
 8645TIP3    H125878   6.672   7.474   3.862  2.9210  0.4129  0.6188
 8645TIP3    H225879   6.616   7.592   3.938 -0.7248 -0.7062 -0.2342
 8646TIP3   OH225880   4.794   4.478   4.991 -0.1232  0.4252 -0.6389
 8646TIP3    H125881   4.779   4.421   5.066  0.2442 -0.7032 -1.4000
 8646TIP3    H225882   4.885   4.462   4.966  0.1495  1.7478 -0.5397
 8647TIP3   OH225883   5.710   5.789   4.435 -0.7931 -0.2835  0.1680
 8647TIP3    H125884   5.654   5.720   4.469 -1.7919  0.0344 -0.8255
 8647TIP3    H225885   5.750   5.752   4.356 -0.8467  0.0560 -0.0204
 8648TIP3   OH225886   5.751   6.421   2.626 -0.0389 -0.3407 -0.0593
 8648TIP3    H125887   5.815   6.485   2.595  0.5176 -1.3254 -0.9789
 8648TIP3    H225888   5.751   6.431   2.721 -0.4770  1.5000 -0.2386
 8649TIP3   OH225889   7.067   6.431   3.424  0.2299 -0.0302 -0.3269
 8649TIP3    H125890   7.036   6.494   3.359  0.2876  2.1850  1.7326
 8649TIP3    H225891   7.024   6.349   3.400 -0.8998  1.0945 -2.2623
 8650TIP3   OH225892   3.987   7.495   4.236  0.8128 -0.5974  0.1177
 8650TIP3    H125893   3.932   7.478   4.160  1.2601 -1.1624 -0.0852
 8650TIP3    H225894   4.045   7.419   4.242  0.5279 -0.7363  1.2544
 8651TIP3   OH225895   6.836   6.368   4.576 -0.1384 -0.1746  0.3167
 8651TIP3    H125896   6.811   6.328   4.493 -1.2302  0.5583  0.2832
 8651TIP3    H225897   6.755   6.372   4.627 -0.1021  2.1491  0.2456
 8652TIP3   OH225898   5.496   5.943   5.141 -0.1985 -0.0883 -0.5495
 8652TIP3    H125899   5.526   5.927   5.231  0.3634  0.1589 -0.6933
 8652TIP3    H225900   5.572   5.925   5.087 -0.5017 -0.1077 -0.9703
 8653TIP3   OH225901   7.490   5.687   5.006  0.0965 -0.3461  0.3219
 8653TIP3    H125902   7.463   5.777   4.993 -0.4814 -0.8533 -2.0841
 8653TIP3    H225903   7.581   5.685   4.976  0.4462 -0.3464  1.3545
 8654TIP3   OH225904   6.484   7.289   2.993 -0.2577 -0.4081  0.5362
 8654TIP3    H125905   6.416   7.324   2.935 -0.5770 -0.4734  0.8675
 8654TIP3    H225906   6.490   7.354   3.063  0.0072 -0.4160  0.5207
 8655TIP3   OH225907   5.388   5.932   2.579 -0.3771  0.1514 -0.0864
 8655TIP3    H125908   5.375   5.893   2.493 -1.1751  0.0619  0.0692
 8655TIP3    H225909   5.396   5.857   2.638 -0.9844  0.2095  0.0775
 8656TIP3   OH225910   5.284   6.696   6.479  0.1490  0.0835 -0.0664
 8656TIP3    H125911   5.214   6.725   6.538  0.4365  0.0338  0.2996
 8656TIP3    H225912   5.340   6.641   6.533  0.3589 -0.0463 -0.4146
 8657TIP3   OH225913   5.287   5.530   1.414  0.4928 -0.1485 -0.2654
 8657TIP3    H125914   5.220   5.528   1.346  0.8183 -1.0341 -0.5700
 8657TIP3    H225915   5.331   5.445   1.406  2.1079  0.7033 -0.5439
 8658TIP3   OH225916   5.782   7.468   3.334 -0.3730  0.4131  0.5719
 8658TIP3    H125917   5.706   7.493   3.281 -0.7700 -0.0258  0.9260
 8658TIP3    H225918   5.781   7.372   3.335  0.7810  0.3827 -0.2640
 8659TIP3   OH225919   6.508   5.294   5.699  0.0031  0.5557 -0.5539
 8659TIP3    H125920   6.531   5.272   5.609  0.6085  0.2225 -0.3209
 8659TIP3    H225921   6.508   5.210   5.745  0.0348  0.7642 -0.1679
 8660TIP3   OH225922   7.531   5.299   4.024  0.1013 -0.6252 -0.5657
 8660TIP3    H125923   7.446   5.336   4.047  0.4846  0.5693 -1.0313
 8660TIP3    H225924   7.517   5.204   4.026 -0.7933 -0.4786  1.0252
 8661TIP3   OH225925   4.488   6.244   4.047 -0.4622 -0.9613 -0.4012
 8661TIP3    H125926   4.551   6.313   4.028 -0.1124 -1.0479  0.4218
 8661TIP3    H225927   4.403   6.284   4.029 -0.2805 -0.1960  0.4027
 8662TIP3   OH225928   5.135   4.831   1.633  0.1823  0.1845  0.1580
 8662TIP3    H125929   5.112   4.804   1.545 -0.2457  1.8078 -0.2537
 8662TIP3    H225930   5.117   4.925   1.635  1.9323  0.5340  1.4023
 8663TIP3   OH225931   5.080   6.939   5.809 -0.2860  0.2451  0.0117
 8663TIP3    H125932   5.175   6.947   5.812 -0.2211 -0.6562  0.5701
 8663TIP3    H225933   5.061   6.894   5.727 -0.0973 -1.2939  0.8019
 8664TIP3   OH225934   5.845   5.378   3.730  0.0039 -0.1643  0.3839
 8664TIP3    H125935   5.872   5.389   3.639 -0.7345  1.0152  0.2910
 8664TIP3    H225936   5.873   5.289   3.753  1.9316  0.2161 -0.3873
 8665TIP3   OH225937   6.054   6.216   2.220  0.3563  0.9127 -0.3288
 8665TIP3    H125938   5.967   6.179   2.239  0.1642  0.6336 -1.6672
 8665TIP3    H225939   6.094   6.152   2.161  0.8941  1.7693 -0.8970
 8666TIP3   OH225940   4.907   5.835   6.021  0.0969 -0.3542  0.2381
 8666TIP3    H125941   4.904   5.891   5.943  2.0646 -1.0286 -0.3502
 8666TIP3    H225942   4.860   5.755   5.995 -1.0863  0.2505  0.4646
 8667TIP3   OH225943   4.016   5.599   3.585  0.6281  0.2326  0.1461
 8667TIP3    H125944   3.976   5.519   3.621  1.0549 -0.7115 -1.4254
 8667TIP3    H225945   3.950   5.667   3.600 -0.2016 -0.6376  0.5382
 8668TIP3   OH225946   4.615   5.261   5.711  0.2861  0.7798 -0.2011
 8668TIP3    H125947   4.674   5.241   5.638  1.1648 -1.0129  0.9758
 8668TIP3    H225948   4.547   5.194   5.706  0.5177  0.4591  0.7946
 8669TIP3   OH225949   6.425   7.496   4.253  0.0421  0.1644  0.4598
 8669TIP3    H125950   6.519   7.503   4.269  0.6604 -3.9301 -0.6185
 8669TIP3    H225951   6.408   7.557   4.181  2.0741  0.3031  0.0673
 8670TIP3   OH225952   4.138   6.292   3.477 -0.0941 -0.0894 -0.1257
 8670TIP3    H125953   4.124   6.363   3.415  0.4098  0.1660  0.0591
 8670TIP3    H225954   4.232   6.277   3.477 -0.1766 -0.6232 -0.0185
 8671TIP3   OH225955   4.969   6.831   5.074 -0.0240 -0.1979 -0.1634
 8671TIP3    H125956   5.016   6.911   5.095  1.1284 -1.1475  0.9507
 8671TIP3    H225957   5.038   6.769   5.047 -1.0217 -0.4037 -2.3244
 8672TIP3   OH225958   6.056   5.380   4.050 -0.1145 -0.2421 -0.2208
 8672TIP3    H125959   5.967   5.370   4.017 -0.1936  1.9798 -0.7825
 8672TIP3    H225960   6.052   5.459   4.105  1.4351 -0.3006 -0.0062
 8673TIP3   OH225961   5.253   6.611   3.723  0.4868  0.1329 -0.5402
 8673TIP3    H125962   5.292   6.612   3.810 -0.8979  1.7016  0.0911
 8673TIP3    H225963   5.260   6.520   3.694  1.1258 -0.3554  1.1112
 8674TIP3   OH225964   7.179   6.761   2.687  0.2277 -0.1145  0.3254
 8674TIP3    H125965   7.097   6.800   2.657  0.7859  0.7491 -0.0769
 8674TIP3    H225966   7.196   6.690   2.625  1.1462  1.3770 -1.1577
 8675TIP3   OH225967   6.012   5.527   1.987 -0.2884  0.3803  0.5442
 8675TIP3    H125968   6.004   5.611   1.941 -2.3078 -0.6662 -1.0973
 8675TIP3    H225969   6.026   5.463   1.917  1.5087 -0.6563  1.8001
 8676TIP3   OH225970   2.179   0.095   1.947  0.2212 -0.5361 -0.3779
 8676TIP3    H125971   2.090   0.101   1.982  0.3900 -1.1578  0.1534
 8676TIP3    H225972   2.171   0.039   1.870 -0.5899  2.7918 -2.8243
 8677TIP3   OH225973   7.286   7.118   3.499 -0.1294  0.2982 -0.7985
 8677TIP3    H125974   7.227   7.065   3.445  0.3223 -0.9993 -0.0434
 8677TIP3    H225975   7.372   7.078   3.486 -0.2065 -0.7883  1.8088
 8678TIP3   OH225976   8.117   7.892   4.477  0.0381  0.4563  0.3300
 8678TIP3    H125977   8.198   7.942   4.463  0.8702 -0.7537  0.6939
 8678TIP3    H225978   8.113   7.881   4.572 -0.4132  0.2947  0.2903
 8679TIP3   OH225979   7.389   5.336   2.451  0.3990 -0.0627  0.4769
 8679TIP3    H125980   7.386   5.412   2.392 -1.1530 -0.1142  0.4498
 8679TIP3    H225981   7.437   5.269   2.402  1.0134  0.6182  0.1425
 8680TIP3   OH225982   6.334   5.422   4.319 -0.0335 -0.0565  0.1334
 8680TIP3    H125983   6.408   5.401   4.263  0.3113 -1.6478  1.1512
 8680TIP3    H225984   6.342   5.516   4.335 -0.5765  0.5591 -3.0678
 8681TIP3   OH225985   4.802   7.978   2.639 -0.7173  0.0854 -0.0973
 8681TIP3    H125986   4.882   7.936   2.606 -1.1349 -0.9384  0.1646
 8681TIP3    H225987   4.795   7.948   2.730 -1.1722  0.4965  0.0021
 8682TIP3   OH225988   6.310   5.995   5.521  0.0794  0.2996 -0.5616
 8682TIP3    H125989   6.259   6.076   5.516 -0.2805  0.0946 -0.2463
 8682TIP3    H225990   6.348   5.984   5.434 -0.0635  0.6848 -0.6712
 8683TIP3   OH225991   7.768   6.587   3.542 -0.0621  0.1177 -0.0212
 8683TIP3    H125992   7.856   6.625   3.547  0.0912 -0.3047  0.5871
 8683TIP3    H225993   7.736   6.590   3.633 -0.2875 -0.6478 -0.0755
 8684TIP3   OH225994   6.357   7.350   3.286  0.3121 -0.2719  0.8023
 8684TIP3    H125995   6.339   7.259   3.262 -1.4459 -0.1116  1.4100
 8684TIP3    H225996   6.274   7.396   3.270  1.2748  1.3000  0.1666
 8685TIP3   OH225997   4.672   6.673   2.374  0.3516 -0.3444  0.1407
 8685TIP3    H125998   4.734   6.728   2.327  1.2748 -0.5659  1.0886
 8685TIP3    H225999   4.586   6.702   2.343  0.9582 -1.6218 -2.9648
 8686TIP3   OH226000   5.144   5.611   3.739 -0.1349 -0.3327  0.4179
 8686TIP3    H126001   5.214   5.662   3.697 -1.4103  0.0366 -1.3451
 8686TIP3    H226002   5.154   5.523   3.702 -0.2952 -0.3995  0.5366
 8687TIP3   OH226003   2.482   0.562   1.886  0.1654 -0.6629 -0.1826
 8687TIP3    H126004   2.572   0.585   1.910  0.4657  1.2174 -2.8625
 8687TIP3    H226005   2.491   0.510   1.805 -1.1530 -0.1270 -0.6882
 8688TIP3   OH226006   5.338   5.421   5.014  0.5883  0.4987  0.2742
 8688TIP3    H126007   5.342   5.347   5.074 -1.7198 -1.1704 -1.5509
 8688TIP3    H226008   5.254   5.462   5.031 -0.4791 -0.5107 -2.3416
 8689TIP3   OH226009   6.317   6.216   5.254 -0.0686  0.2672 -0.0473
 8689TIP3    H126010   6.311   6.284   5.187  1.3385  0.0253 -0.4269
 8689TIP3    H226011   6.234   6.222   5.301 -1.5866 -0.3373 -2.5554
 8690TIP3   OH226012   5.412   6.771   1.965 -0.0798  0.7434 -0.3543
 8690TIP3    H126013   5.345   6.710   1.995  0.3516 -1.2916 -3.2483
 8690TIP3    H226014   5.494   6.721   1.971  0.3659  1.2103 -2.1465
 8691TIP3   OH226015   4.561   7.367   2.621  0.1729 -0.4532 -0.1444
 8691TIP3    H126016   4.493   7.421   2.662  0.9731 -0.2141  0.8811
 8691TIP3    H226017   4.533   7.359   2.530 -2.1833 -1.9160  0.6887
 8692TIP3   OH226018   6.306   7.641   4.506 -0.0566  0.4379  0.1395
 8692TIP3    H126019   6.350   7.585   4.443 -0.4837  1.6498 -1.2801
 8692TIP3    H226020   6.233   7.680   4.457 -0.1143  1.7651  1.2281
 8693TIP3   OH226021   5.104   7.066   4.979  0.2497  0.2425 -0.2689
 8693TIP3    H126022   5.168   7.138   4.985  2.3999 -1.6402  0.3721
 8693TIP3    H226023   5.144   7.004   4.917 -1.6646 -0.3226 -0.9647
 8694TIP3   OH226024   7.162   6.976   3.875  0.3451 -0.0611  0.3444
 8694TIP3    H126025   7.098   7.039   3.907 -0.3076  0.6482 -2.2104
 8694TIP3    H226026   7.236   7.030   3.845  0.1960 -0.5437 -0.9383
 8695TIP3   OH226027   5.952   6.566   3.572  0.1585 -0.1562 -0.0135
 8695TIP3    H126028   5.998   6.486   3.546 -0.5212 -0.1725 -1.2142
 8695TIP3    H226029   5.921   6.549   3.661  1.7591 -0.4497  0.4957
 8696TIP3   OH226030   5.818   6.081   2.279  0.8227 -0.3577 -0.0945
 8696TIP3    H126031   5.801   6.034   2.361 -1.5420  0.7092  0.0841
 8696TIP3    H226032   5.743   6.060   2.223  1.2367  0.8065 -1.1092
 8697TIP3   OH226033   6.949   7.887   4.088  0.2608 -0.0032 -0.2880
 8697TIP3    H126034   6.858   7.914   4.078  0.4121  0.1584 -1.3353
 8697TIP3    H226035   6.945   7.791   4.086 -0.1249 -0.0612  2.0378
 8698TIP3   OH226036   6.641   6.054   5.631  0.6918 -0.4278  0.3809
 8698TIP3    H126037   6.583   6.086   5.562  1.9885 -1.0268 -1.0130
 8698TIP3    H226038   6.706   6.123   5.643  0.6530 -0.4583  0.7847
 8699TIP3   OH226039   6.464   6.406   4.190  0.2555  0.1105 -0.6911
 8699TIP3    H126040   6.553   6.441   4.187 -0.5541  2.1453 -1.8447
 8699TIP3    H226041   6.437   6.400   4.099 -0.0638 -2.5202 -0.4706
 8700TIP3   OH226042   3.864   7.530   4.903  0.4484 -0.6017  0.2379
 8700TIP3    H126043   3.879   7.588   4.828 -1.8876 -1.7104 -1.1583
 8700TIP3    H226044   3.951   7.513   4.938  1.4332  1.4542 -1.0631
 8701TIP3   OH226045   4.266   6.609   2.142 -0.1814 -0.0777 -0.2216
 8701TIP3    H126046   4.284   6.526   2.098 -0.4551 -0.8987  1.1616
 8701TIP3    H226047   4.197   6.588   2.205 -2.0724  1.7801 -1.6044
 8702TIP3   OH226048   8.124   0.919   1.685  0.3939 -0.0745 -0.1828
 8702TIP3    H126049   8.120   0.825   1.698  0.7156 -0.1134 -0.3675
 8702TIP3    H226050   8.212   0.935   1.650  0.8369  0.4519  1.1503
 8703TIP3   OH226051   5.696   6.309   1.485  0.1523 -0.1939 -0.0942
 8703TIP3    H126052   5.714   6.269   1.400  0.9303  0.3014 -0.1667
 8703TIP3    H226053   5.729   6.246   1.549  0.5060 -0.1058 -0.1872
 8704TIP3   OH226054   7.969   5.864   4.728 -0.0875  0.2527  0.1992
 8704TIP3    H126055   7.971   5.928   4.799  0.8117  0.0868  0.3269
 8704TIP3    H226056   7.941   5.783   4.770  1.4205 -0.0916  0.5765
 8705TIP3   OH226057   7.264   6.495   3.602  0.4310 -0.1004  0.5571
 8705TIP3    H126058   7.285   6.584   3.571 -0.0032  0.9779  3.1745
 8705TIP3    H226059   7.236   6.448   3.524  1.4399  1.8352 -1.0266
 8706TIP3   OH226060   6.501   7.503   0.520  0.3858 -0.0875 -0.5718
 8706TIP3    H126061   6.429   7.546   0.474 -0.9261 -1.4671  0.1040
 8706TIP3    H226062   6.466   7.487   0.608  2.6062  1.9149  0.7124
 8707TIP3   OH226063   3.700   6.532   2.494  0.0867 -0.2300 -0.5845
 8707TIP3    H126064   3.671   6.517   2.585 -0.8261  0.2626 -0.7918
 8707TIP3    H226065   3.759   6.459   2.477  1.1115  0.2610  0.7700
 8708TIP3   OH226066   6.725   7.138   4.272  0.2454 -0.0367 -0.3430
 8708TIP3    H126067   6.705   7.191   4.195  0.3753  1.8595  0.8751
 8708TIP3    H226068   6.642   7.132   4.319  0.7787  1.2735  0.8084
 8709TIP3   OH226069   6.435   5.191   3.364 -0.7113  0.9874 -0.6953
 8709TIP3    H126070   6.413   5.204   3.457 -0.9884 -0.0903 -0.6023
 8709TIP3    H226071   6.527   5.166   3.365 -1.4258 -1.8129 -0.4503
 8710TIP3   OH226072   7.873   0.333   1.471  0.4090  0.0380  0.2900
 8710TIP3    H126073   7.924   0.322   1.551 -0.9931 -0.9665  1.0644
 8710TIP3    H226074   7.844   0.425   1.472  1.6456  0.4386  0.1572
 8711TIP3   OH226075   4.615   5.183   5.013 -0.4843 -0.0775 -0.9054
 8711TIP3    H126076   4.656   5.189   4.927 -1.3608 -0.9381 -1.3846
 8711TIP3    H226077   4.686   5.199   5.075  0.4187 -0.8625 -1.7471
 8712TIP3   OH226078   3.860   1.470   6.902 -0.0730  0.1014 -0.1149
 8712TIP3    H126079   3.770   1.442   6.920  0.2359 -1.5316 -0.9886
 8712TIP3    H226080   3.893   1.502   6.986 -1.4927  0.7991  0.1939
 8713TIP3   OH226081   2.583   0.453   4.627  0.2381  0.2380  0.0914
 8713TIP3    H126082   2.630   0.533   4.651  1.9129 -0.5513 -0.4958
 8713TIP3    H226083   2.620   0.427   4.543 -2.3418  0.4171 -1.1794
 8714TIP3   OH226084   6.208   6.435   3.272  0.2731  0.7951 -0.0760
 8714TIP3    H126085   6.171   6.421   3.185  1.3589 -0.7610 -0.2974
 8714TIP3    H226086   6.182   6.357   3.321  0.4812  1.2242  0.7158
 8715TIP3   OH226087   6.094   4.734   4.309  0.4068 -0.0062 -0.3129
 8715TIP3    H126088   6.102   4.690   4.225  0.1259 -0.9406  0.1475
 8715TIP3    H226089   6.183   4.764   4.329  0.7464 -1.0199 -0.2768
 8716TIP3   OH226090   6.004   6.142   4.919 -0.0404 -0.4619 -0.0304
 8716TIP3    H126091   5.997   6.173   5.009 -0.0147  0.4546 -0.3327
 8716TIP3    H226092   6.052   6.060   4.925  0.6886  0.0110  0.7054
 8717TIP3   OH226093   6.283   5.785   5.193  0.3276  0.0763 -0.4963
 8717TIP3    H126094   6.214   5.793   5.258  1.9203  1.6830  1.0635
 8717TIP3    H226095   6.300   5.691   5.187 -0.7171 -0.1789  0.4848
 8718TIP3   OH226096   6.402   6.170   4.313 -0.3857  0.1188 -0.3625
 8718TIP3    H126097   6.424   6.256   4.277 -0.9148  0.3827 -0.0587
 8718TIP3    H226098   6.323   6.185   4.365 -0.1225 -0.4355  0.1963
 8719TIP3   OH226099   6.162   7.992   3.395 -0.1215  0.5173  0.7642
 8719TIP3    H126100   6.241   7.943   3.413 -0.5173 -1.0270 -1.4427
 8719TIP3    H226101   6.092   7.943   3.438 -0.4269 -0.5365 -0.8847
 8720TIP3   OH226102   7.005   7.038   4.464 -0.4579  0.4462  0.1272
 8720TIP3    H126103   7.059   6.968   4.499 -1.1936 -0.9301 -1.4530
 8720TIP3    H226104   6.958   6.999   4.391 -1.2555  2.4531 -0.4827
 8721TIP3   OH226105   5.596   6.099   3.608  0.2974  0.4713  0.1117
 8721TIP3    H126106   5.560   6.188   3.613  1.1832  0.7961  0.7237
 8721TIP3    H226107   5.579   6.062   3.695 -1.3961 -0.4776 -0.6052
 8722TIP3   OH226108   6.091   7.921   3.972  0.5026  0.3204 -0.5225
 8722TIP3    H126109   6.181   7.895   3.990  0.8884  1.6139 -0.4928
 8722TIP3    H226110   6.046   7.915   4.056  0.0520 -2.1601 -0.8886
 8723TIP3   OH226111   2.141   4.765   6.281  0.2079  0.5516  0.1747
 8723TIP3    H126112   2.158   4.744   6.189  0.7240 -0.3145  0.4616
 8723TIP3    H226113   2.218   4.815   6.309  0.2489  0.4457  0.2519
 8724TIP3   OH226114   8.001   0.354   3.331 -0.2684 -0.2472  0.0114
 8724TIP3    H126115   7.985   0.261   3.310  0.4680 -0.2877 -0.3825
 8724TIP3    H226116   7.964   0.365   3.419 -0.5765 -0.8544 -0.0352
 8725TIP3   OH226117   5.284   7.502   1.760  0.2243 -0.4244  0.4002
 8725TIP3    H126118   5.202   7.502   1.809 -0.6877  0.2825 -1.0707
 8725TIP3    H226119   5.260   7.535   1.673  2.2341  0.6553  0.2177
 8726TIP3   OH226120   7.571   6.769   4.061 -0.4072 -0.2381  0.4575
 8726TIP3    H126121   7.500   6.765   4.125 -1.1819 -2.0696 -0.5041
 8726TIP3    H226122   7.575   6.862   4.036 -1.1993  0.1988  1.9033
 8727TIP3   OH226123   7.284   7.069   1.890 -0.5456 -0.5164 -0.0821
 8727TIP3    H126124   7.369   7.110   1.876 -0.2588 -1.0875 -0.0301
 8727TIP3    H226125   7.289   6.986   1.842 -1.0204 -0.6210  0.0418
 8728TIP3   OH226126   7.236   6.027   3.206  0.0044  0.8984  0.4084
 8728TIP3    H126127   7.267   6.112   3.174  1.9939 -0.1428 -0.5119
 8728TIP3    H226128   7.175   5.997   3.139  0.9486  0.6327 -0.3407
 8729TIP3   OH226129   3.646   6.076   4.740 -0.3026  0.2173  0.2282
 8729TIP3    H126130   3.553   6.066   4.759 -0.0471  0.6158  1.8053
 8729TIP3    H226131   3.682   5.987   4.750 -0.6290 -0.0604 -1.0699
 8730TIP3   OH226132   6.498   6.471   1.420  0.4756  0.1082 -0.6156
 8730TIP3    H126133   6.413   6.480   1.377 -0.2354 -2.8032  0.0987
 8730TIP3    H226134   6.483   6.505   1.509 -0.2150 -1.2298 -0.2036
 8731TIP3   OH226135   6.415   6.759   1.999  0.2526 -0.0117  0.4043
 8731TIP3    H126136   6.319   6.762   1.991  0.3733 -0.1282 -1.4658
 8731TIP3    H226137   6.435   6.818   2.071 -1.1586  1.0851 -0.0619
 8732TIP3   OH226138   0.768   0.177   4.270  0.2778 -0.3402  0.2625
 8732TIP3    H126139   0.745   0.245   4.334  0.8707 -0.6266  0.7853
 8732TIP3    H226140   0.864   0.184   4.262  0.3364 -1.0865  0.2868
 8733TIP3   OH226141   5.087   7.183   0.803  0.5464 -0.6230  0.1411
 8733TIP3    H126142   5.052   7.191   0.715  1.0673 -0.1234 -0.0255
 8733TIP3    H226143   5.124   7.095   0.807  1.6941 -0.1812 -0.5707
 8734TIP3   OH226144   5.565   4.698   4.803  0.0334 -0.1283 -0.1240
 8734TIP3    H126145   5.577   4.733   4.715  0.4222 -1.7355 -0.7186
 8734TIP3    H226146   5.501   4.757   4.844  0.3801  1.0305 -1.2302
 8735TIP3   OH226147   6.676   6.536   4.327  0.1013  0.1339 -0.2891
 8735TIP3    H126148   6.748   6.487   4.287  1.0459  0.9820  0.3365
 8735TIP3    H226149   6.649   6.482   4.401 -0.1992 -0.3822 -0.7609
 8736TIP3   OH226150   4.987   7.428   6.007 -0.1093 -0.1666 -0.3447
 8736TIP3    H126151   5.047   7.442   5.933  0.1080 -1.4563 -0.4280
 8736TIP3    H226152   4.901   7.453   5.973 -0.0843 -1.2005 -1.1919
 8737TIP3   OH226153   7.660   5.596   4.697  0.2859 -0.4531 -0.1245
 8737TIP3    H126154   7.740   5.587   4.749 -0.2530  0.2730  0.8549
 8737TIP3    H226155   7.644   5.690   4.695 -1.0290 -0.6658  0.4276
 8738TIP3   OH226156   5.538   5.586   5.058 -0.3459 -0.4998  0.1734
 8738TIP3    H126157   5.597   5.514   5.082  0.9719  1.0026  1.5726
 8738TIP3    H226158   5.454   5.544   5.040  0.8590 -2.5611 -0.7309
 8739TIP3   OH226159   6.722   6.340   4.067 -0.0868 -0.4974 -0.3281
 8739TIP3    H126160   6.670   6.279   4.015 -0.7907  0.3845 -0.6904
 8739TIP3    H226161   6.739   6.413   4.007  3.6730 -1.8327 -0.9943
 8740TIP3   OH226162   5.337   7.296   5.514  0.2057  0.8756 -0.3560
 8740TIP3    H126163   5.369   7.283   5.603  1.2749  1.4460 -0.6523
 8740TIP3    H226164   5.396   7.246   5.459 -0.1206  0.9757 -0.7973
 8741TIP3   OH226165   8.088   4.347   3.703 -0.2873  0.2132  0.1027
 8741TIP3    H126166   8.175   4.379   3.731 -0.7100 -0.3227  2.1094
 8741TIP3    H226167   8.101   4.318   3.613  1.1287  2.0744 -0.3243
 8742TIP3   OH226168   7.081   5.269   2.897  0.3338 -0.0567 -0.3542
 8742TIP3    H126169   7.119   5.310   2.819 -0.7546 -0.5171 -1.1387
 8742TIP3    H226170   7.034   5.340   2.941  0.3652  0.0457 -0.4854
 8743TIP3   OH226171   6.168   6.621   4.818  0.2367  0.7417 -0.1722
 8743TIP3    H126172   6.161   6.535   4.777  1.5263  1.3736 -1.7514
 8743TIP3    H226173   6.078   6.651   4.826 -0.2682 -0.9496  0.8505
 8744TIP3   OH226174   7.049   2.969   1.824  0.0814  0.0849  0.0192
 8744TIP3    H126175   7.000   2.924   1.755 -0.6180  1.6302 -0.5034
 8744TIP3    H226176   7.107   2.901   1.860 -0.3400 -1.0140 -1.3267
 8745TIP3   OH226177   5.746   6.500   6.256  0.1019  0.5058 -0.3611
 8745TIP3    H126178   5.769   6.419   6.210  0.7384  0.6425 -0.2853
 8745TIP3    H226179   5.796   6.497   6.338 -1.0587  0.2463  0.3436
 8746TIP3   OH226180   4.295   7.938   1.406  0.0490 -0.8677  0.1464
 8746TIP3    H126181   4.274   7.892   1.325  1.4322  0.7099 -1.1271
 8746TIP3    H226182   4.390   7.930   1.414  0.1095  0.3642  0.7621
 8747TIP3   OH226183   7.662   6.207   2.043  0.3529  0.4971 -0.8481
 8747TIP3    H126184   7.586   6.258   2.072  0.1769  0.3079 -0.9853
 8747TIP3    H226185   7.738   6.260   2.070  0.1869  0.3662 -0.1115
 8748TIP3   OH226186   5.553   6.435   1.686  0.4766 -0.3938 -0.2086
 8748TIP3    H126187   5.599   6.393   1.613  1.6544  0.1404  0.2117
 8748TIP3    H226188   5.573   6.528   1.678 -0.4524 -0.1600  0.0492
 8749TIP3   OH226189   4.514   6.340   4.716 -0.1267  0.6226  0.3304
 8749TIP3    H126190   4.498   6.431   4.741 -0.7431  0.2785  1.1797
 8749TIP3    H226191   4.435   6.314   4.669  0.1016  0.5584 -0.0223
 8750TIP3   OH226192   8.022   7.373   1.618 -0.0286 -0.1185 -0.4018
 8750TIP3    H126193   7.928   7.385   1.629  0.0285  0.2813 -0.3626
 8750TIP3    H226194   8.047   7.312   1.688 -0.2559 -0.2278 -0.4153
 8751TIP3   OH226195   2.418   0.775   2.692 -0.2466  0.3173 -0.4003
 8751TIP3    H126196   2.386   0.800   2.605  0.8215 -0.4200 -1.0153
 8751TIP3    H226197   2.381   0.688   2.707  0.0057  0.2190 -0.3484
 8752TIP3   OH226198   7.577   4.471   4.600  0.0003 -0.7436 -0.3893
 8752TIP3    H126199   7.485   4.496   4.604 -0.1803 -1.2363 -1.2872
 8752TIP3    H226200   7.578   4.379   4.627  0.5599 -0.0457  2.1223
 8753TIP3   OH226201   6.235   5.494   2.743 -0.1796  0.6449  0.4392
 8753TIP3    H126202   6.261   5.525   2.657  2.3668 -1.2783  0.4567
 8753TIP3    H226203   6.214   5.574   2.792  0.0999  1.8748 -1.4032
 8754TIP3   OH226204   7.951   6.387   0.263  0.5239  0.1248 -0.5141
 8754TIP3    H126205   7.967   6.310   0.318 -1.2561  0.6691  0.7972
 8754TIP3    H226206   7.946   6.460   0.324  0.7386  1.0822 -1.6185
 8755TIP3   OH226207   1.872   0.374   3.015  0.5045  0.0145 -0.1875
 8755TIP3    H126208   1.848   0.354   2.924 -1.0281  0.2372  0.1639
 8755TIP3    H226209   1.903   0.465   3.012  1.3609 -0.2817 -0.6402
 8756TIP3   OH226210   7.149   5.479   3.286  0.1544 -0.0941 -0.2980
 8756TIP3    H126211   7.133   5.512   3.197 -1.5747 -1.8203 -0.6572
 8756TIP3    H226212   7.120   5.549   3.343  1.2078  1.0045 -1.0736
 8757TIP3   OH226213   6.530   4.635   2.262  0.5036  0.9907  0.5454
 8757TIP3    H126214   6.483   4.602   2.186  1.3728  2.2720 -0.5726
 8757TIP3    H226215   6.472   4.701   2.299 -0.0778  0.1091  1.2129
 8758TIP3   OH226216   6.274   5.206   5.048  0.1183 -0.1918 -0.1275
 8758TIP3    H126217   6.330   5.213   5.125  1.6813 -0.4696 -1.2096
 8758TIP3    H226218   6.245   5.115   5.046 -1.1103  0.1682  0.9303
 8759TIP3   OH226219   6.894   7.631   2.880  0.4780 -0.2440 -0.0862
 8759TIP3    H126220   6.821   7.570   2.869 -0.3392  0.3679  1.8184
 8759TIP3    H226221   6.886   7.692   2.806 -0.8494 -0.2650  0.0289
 8760TIP3   OH226222   2.379   7.989   3.171 -0.1061  0.0736 -0.2201
 8760TIP3    H126223   2.433   7.988   3.250  2.2881  1.1222 -1.7941
 8760TIP3    H226224   2.320   8.064   3.183  0.3996  0.3699  0.4617
 8761TIP3   OH226225   7.570   7.490   3.570 -0.0039  0.1322 -0.0262
 8761TIP3    H126226   7.596   7.405   3.534 -0.7074  0.1957 -0.7049
 8761TIP3    H226227   7.475   7.485   3.577  0.1466  0.0326  2.1093
 8762TIP3   OH226228   6.635   4.384   4.427  0.4684  0.1290  0.2355
 8762TIP3    H126229   6.709   4.418   4.478 -0.6351  1.0758  1.2290
 8762TIP3    H226230   6.563   4.379   4.490 -0.8261  0.9782 -1.1601
 8763TIP3   OH226231   5.810   6.092   0.455 -0.1027  0.2475 -0.6093
 8763TIP3    H126232   5.904   6.074   0.449  0.1397  1.4086 -0.5501
 8763TIP3    H226233   5.785   6.061   0.542  0.0722 -0.7174 -0.8997
 8764TIP3   OH226234   5.172   5.460   3.367 -0.2255 -0.2182 -0.7314
 8764TIP3    H126235   5.108   5.404   3.323 -0.9381 -1.1545  1.4184
 8764TIP3    H226236   5.126   5.542   3.382 -0.6759 -0.6306  0.1446
 8765TIP3   OH226237   4.754   7.384   4.537  0.2659  0.0948  0.2396
 8765TIP3    H126238   4.722   7.294   4.546 -1.8484  0.8799  0.8449
 8765TIP3    H226239   4.836   7.376   4.488 -0.6600 -2.0205 -0.9887
 8766TIP3   OH226240   4.779   6.442   5.288 -0.0425  0.0455 -0.1849
 8766TIP3    H126241   4.779   6.520   5.344 -3.6572  0.4191 -0.5362
 8766TIP3    H226242   4.803   6.476   5.202  2.4240  0.0192  0.4633
 8767TIP3   OH226243   5.800   5.784   5.092 -0.3538 -0.8320  0.0603
 8767TIP3    H126244   5.731   5.719   5.076 -0.2603 -0.7990 -0.4996
 8767TIP3    H226245   5.794   5.802   5.185 -0.9778 -0.9789  0.0563
 8768TIP3   OH226246   0.245   5.155   4.295 -0.5289 -0.1547  0.1811
 8768TIP3    H126247   0.305   5.101   4.244 -0.9155 -0.8664  0.4616
 8768TIP3    H226248   0.231   5.233   4.242  0.5890 -0.0133  0.0843
 8769TIP3   OH226249   6.423   4.537   2.049 -1.4618 -0.5127  0.3520
 8769TIP3    H126250   6.381   4.612   2.007 -1.9100 -1.2912 -0.6005
 8769TIP3    H226251   6.354   4.470   2.055 -0.3435 -1.8430 -1.3470
 8770TIP3   OH226252   3.825   6.162   1.308 -0.0025  0.0775 -0.0642
 8770TIP3    H126253   3.893   6.095   1.313 -1.4884 -1.4861 -0.1227
 8770TIP3    H226254   3.792   6.170   1.398 -1.8369 -1.4669 -0.5516
 8771TIP3   OH226255   3.154   6.814   5.535  0.1728  0.5960  0.3188
 8771TIP3    H126256   3.161   6.724   5.503 -0.0199  0.9951 -0.8750
 8771TIP3    H226257   3.241   6.835   5.568 -0.0086 -0.3200  1.4055
 8772TIP3   OH226258   7.925   4.421   3.922 -0.2993 -0.0327  0.2702
 8772TIP3    H126259   7.879   4.505   3.921  1.1841  0.8547  2.3909
 8772TIP3    H226260   7.975   4.420   3.840  0.7527  1.7994  0.8582
 8773TIP3   OH226261   7.064   6.266   2.518 -0.0559 -0.1322 -0.6846
 8773TIP3    H126262   7.101   6.200   2.577  0.1437  1.3957  0.9559
 8773TIP3    H226263   7.018   6.215   2.451  0.6633 -1.9452  0.1576
 8774TIP3   OH226264   2.974   4.878   1.840 -0.3192 -0.3400  0.1297
 8774TIP3    H126265   2.929   4.798   1.865 -0.5068 -0.8135 -1.6413
 8774TIP3    H226266   2.909   4.927   1.788  0.3080  0.2189 -0.1385
 8775TIP3   OH226267   7.559   6.764   3.529 -0.3446  0.2792  0.0892
 8775TIP3    H126268   7.646   6.723   3.527  0.4904  2.0062 -0.3528
 8775TIP3    H226269   7.539   6.773   3.622  0.0568  0.0859  0.1957
 8776TIP3   OH226270   5.043   4.601   3.394 -0.1650  0.2841 -0.4846
 8776TIP3    H126271   4.949   4.617   3.383 -0.7083 -2.0670  0.6178
 8776TIP3    H226272   5.057   4.599   3.489  0.2869 -3.2291 -0.5774
 8777TIP3   OH226273   7.305   0.870   5.620 -0.2044 -0.0840  0.1560
 8777TIP3    H126274   7.374   0.817   5.580 -1.0999 -1.9746  1.0605
 8777TIP3    H226275   7.347   0.955   5.636  0.5877  0.3136 -3.4742
 8778TIP3   OH226276   7.154   0.735   5.162 -0.1194 -0.7850 -0.0008
 8778TIP3    H126277   7.202   0.687   5.229 -0.2566 -0.1623  0.5511
 8778TIP3    H226278   7.078   0.680   5.143 -0.2652 -0.7972  0.6108
 8779TIP3   OH226279   6.340   4.885   4.063  0.1535  0.5307 -0.3856
 8779TIP3    H126280   6.272   4.822   4.040  1.5893 -1.5620  0.8711
 8779TIP3    H226281   6.350   4.876   4.158  2.0597  0.8887 -0.5316
 8780TIP3   OH226282   6.410   5.605   2.542  0.0094 -0.0750 -0.1213
 8780TIP3    H126283   6.462   5.592   2.463  0.4844  1.3799 -0.0662
 8780TIP3    H226284   6.468   5.580   2.614  1.0376  2.5833  0.0062
 8781TIP3   OH226285   7.741   5.663   2.194  0.5971 -0.3076 -0.1555
 8781TIP3    H126286   7.690   5.728   2.144  0.2053 -0.4705  0.0251
 8781TIP3    H226287   7.794   5.715   2.254  0.2779 -0.1535 -0.0065
 8782TIP3   OH226288   3.605   6.397   3.251 -0.0069 -0.5270  0.4102
 8782TIP3    H126289   3.647   6.410   3.336 -1.1385 -1.8937  1.2004
 8782TIP3    H226290   3.549   6.321   3.264 -2.2632  0.8758 -0.7939
 8783TIP3   OH226291   4.195   7.176   3.734  0.3024  0.0014  0.7347
 8783TIP3    H126292   4.099   7.180   3.726  0.3341  2.0305  1.2158
 8783TIP3    H226293   4.227   7.187   3.645  0.1200  0.0736  0.6785
 8784TIP3   OH226294   6.473   5.332   4.736  0.2914 -0.0591 -0.7776
 8784TIP3    H126295   6.486   5.412   4.685  1.9142  0.4704  0.4081
 8784TIP3    H226296   6.426   5.274   4.677 -0.1360  1.4528 -1.9727
 8785TIP3   OH226297   6.314   6.218   1.214  0.1329  0.6308  0.6355
 8785TIP3    H126298   6.350   6.138   1.251 -0.2667 -1.2529 -2.8227
 8785TIP3    H226299   6.265   6.258   1.285  2.8829 -0.5794  3.3035
 8786TIP3   OH226300   6.293   6.422   5.107  0.3616  0.2988 -0.4846
 8786TIP3    H126301   6.216   6.459   5.148  0.6810 -0.6750  1.0492
 8786TIP3    H226302   6.270   6.414   5.014 -1.2968  0.2001 -0.0764
 8787TIP3   OH226303   5.502   7.412   2.915 -0.1069 -0.2073 -0.0011
 8787TIP3    H126304   5.447   7.440   2.841 -2.1270 -1.2695  1.0377
 8787TIP3    H226305   5.485   7.318   2.923 -1.5846  0.2644  3.1203
 8788TIP3   OH226306   7.843   7.344   4.177 -0.3401  0.2111  0.5655
 8788TIP3    H126307   7.811   7.429   4.206  0.6195  1.7226 -2.5993
 8788TIP3    H226308   7.774   7.310   4.121  0.7651  0.5296 -1.0174
 8789TIP3   OH226309   0.583   0.886   2.849 -0.1259 -0.1608  0.2018
 8789TIP3    H126310   0.655   0.895   2.787  0.6285  0.4833  1.1570
 8789TIP3    H226311   0.564   0.976   2.877 -1.4574 -0.3043 -0.2290
 8790TIP3   OH226312   8.247   6.163   4.375 -0.2770  0.4708  0.5776
 8790TIP3    H126313   8.330   6.118   4.390 -0.3626  0.4286  0.9490
 8790TIP3    H226314   8.217   6.187   4.463 -0.7769  0.2639  0.4683
 8791TIP3   OH226315   7.165   4.939   4.011 -0.1723 -0.0491  0.0263
 8791TIP3    H126316   7.089   4.985   4.044  0.5813  1.6125 -0.4594
 8791TIP3    H226317   7.130   4.873   3.951 -1.2289  0.6257 -0.1048
 8792TIP3   OH226318   6.340   6.714   3.661 -0.2322  0.2127 -0.4694
 8792TIP3    H126319   6.337   6.661   3.581  0.1971 -1.5891  0.6989
 8792TIP3    H226320   6.270   6.679   3.716 -0.9676  1.8921 -0.3111
 8793TIP3   OH226321   5.575   7.922   2.206  0.4701 -0.1365 -0.8934
 8793TIP3    H126322   5.577   7.876   2.290 -0.6314 -1.3417 -1.5102
 8793TIP3    H226323   5.487   7.960   2.202  0.4730 -0.1977 -1.5468
 8794TIP3   OH226324   4.766   6.228   4.653  0.4615 -0.0176  0.5069
 8794TIP3    H126325   4.728   6.178   4.581 -0.6542  1.1856  0.2452
 8794TIP3    H226326   4.691   6.264   4.700  1.2155  0.2902  1.4922
 8795TIP3   OH226327   6.576   7.518   2.528 -0.0623 -0.6958 -0.4344
 8795TIP3    H126328   6.502   7.553   2.478  1.0245  1.8026 -0.3646
 8795TIP3    H226329   6.579   7.572   2.607 -0.0479 -2.8008  1.0454
 8796TIP3   OH226330   6.352   4.950   4.641 -0.4733 -0.3164 -0.2603
 8796TIP3    H126331   6.319   4.944   4.731 -0.7833  1.2464 -0.2547
 8796TIP3    H226332   6.302   5.023   4.602  0.0527 -0.6153 -1.5273
 8797TIP3   OH226333   6.198   3.944   2.313 -0.0269  0.5813 -0.1732
 8797TIP3    H126334   6.126   3.883   2.296 -1.0721  2.2037 -1.8135
 8797TIP3    H226335   6.172   3.989   2.393  0.6228 -0.9070  0.8963
 8798TIP3   OH226336   6.413   6.134   2.345  0.5658 -0.8033  0.3952
 8798TIP3    H126337   6.348   6.109   2.280  0.0765  0.5889  0.3300
 8798TIP3    H226338   6.387   6.088   2.425 -1.2122  0.6646  0.6903
 8799TIP3   OH226339   6.077   5.474   3.123 -0.2014  0.2736 -0.7649
 8799TIP3    H126340   6.030   5.438   3.198  1.2039  1.0805  0.5458
 8799TIP3    H226341   6.164   5.434   3.129  0.0378  0.6397 -1.7354
 8800TIP3   OH226342   5.952   6.053   3.267  0.4983 -0.2449 -0.4766
 8800TIP3    H126343   6.031   6.049   3.321 -0.0577  0.9223  0.4527
 8800TIP3    H226344   5.965   6.129   3.210 -0.8083  1.2285  1.1096
 8801TIP3   OH226345   7.876   0.120   0.231 -0.1859 -0.4366 -0.0030
 8801TIP3    H126346   7.907   0.195   0.180  1.0168  0.0518  1.4090
 8801TIP3    H226347   7.873   0.047   0.169 -2.8015  1.0801 -1.7630
 8802TIP3   OH226348   8.403   7.084   2.519 -0.0540 -0.3411 -0.2208
 8802TIP3    H126349   8.422   7.174   2.494 -0.0789 -0.5664 -1.0679
 8802TIP3    H226350   8.338   7.054   2.455  0.4199 -1.1565 -0.3322
 8803TIP3   OH226351   6.121   6.658   3.806  0.5861 -0.8045  0.3226
 8803TIP3    H126352   6.080   6.739   3.836  1.4090 -0.2492 -0.0260
 8803TIP3    H226353   6.052   6.592   3.812 -0.3609  0.1158 -0.2907
 8804TIP3   OH226354   6.219   5.201   4.602 -0.1914 -0.5477 -0.2361
 8804TIP3    H126355   6.202   5.241   4.687 -1.3376  0.6046 -0.9990
 8804TIP3    H226356   6.160   5.246   4.542  1.9663 -0.0055 -2.0107
 8805TIP3   OH226357   1.987   6.511   1.880 -0.7174 -0.2675 -0.0417
 8805TIP3    H126358   1.999   6.515   1.975 -0.5441  0.3365 -0.0898
 8805TIP3    H226359   1.967   6.418   1.863  0.6601 -0.6584  0.4085
 8806TIP3   OH226360   7.112   6.367   4.699  0.7469  0.0578 -0.5307
 8806TIP3    H126361   7.030   6.394   4.657  0.7255  0.8265 -0.0205
 8806TIP3    H226362   7.085   6.331   4.783  0.9032  0.0161 -0.4990
 8807TIP3   OH226363   5.948   7.043   3.662 -0.1239  0.2790 -0.1390
 8807TIP3    H126364   6.043   7.051   3.652 -0.2972  0.6763 -1.5615
 8807TIP3    H226365   5.915   7.133   3.658 -0.6667  0.0546 -0.8855
 8808TIP3   OH226366   0.528   7.612   2.262  0.3797  0.0504 -0.0831
 8808TIP3    H126367   0.565   7.675   2.324  1.5938  0.1372 -0.8792
 8808TIP3    H226368   0.524   7.660   2.179 -0.1210 -0.4354 -0.3427
 8809TIP3   OH226369   1.348   0.668   1.483 -0.2057 -0.2612 -0.0108
 8809TIP3    H126370   1.427   0.721   1.473 -0.0021 -0.7238 -0.9490
 8809TIP3    H226371   1.291   0.695   1.411 -0.8033 -0.1073  0.5120
 8810TIP3   OH226372   6.819   5.162   2.495 -0.2114  0.4742  0.0505
 8810TIP3    H126373   6.765   5.238   2.515 -1.6627 -1.0353  2.0697
 8810TIP3    H226374   6.876   5.152   2.571  0.9319  0.3596 -0.8166
 8811TIP3   OH226375   2.257   1.346   2.779  0.4496  1.1366  0.3448
 8811TIP3    H126376   2.267   1.253   2.796 -4.6684  0.6403  1.6599
 8811TIP3    H226377   2.266   1.355   2.684  2.1145 -0.4944  0.3421
 8812TIP3   OH226378   2.623   0.309   2.998 -0.3387 -0.5672  0.0157
 8812TIP3    H126379   2.553   0.269   3.050 -0.3184  0.2694  0.6974
 8812TIP3    H226380   2.604   0.403   3.001 -0.5270 -0.5475 -1.7831
 8813TIP3   OH226381   5.177   5.119   1.658 -0.2655 -0.2681  0.2320
 8813TIP3    H126382   5.273   5.119   1.655 -0.2850 -0.9134 -0.7192
 8813TIP3    H226383   5.151   5.158   1.574 -0.8272  1.9165  1.3871
 8814TIP3   OH226384   5.549   6.668   5.066  0.1503  0.0256  0.1489
 8814TIP3    H126385   5.511   6.593   5.020  0.3049 -0.7740  1.2887
 8814TIP3    H226386   5.560   6.637   5.156  0.2403  1.4162  0.6275
 8815TIP3   OH226387   2.442   3.496   2.363 -0.0619  0.1009 -0.1237
 8815TIP3    H126388   2.376   3.447   2.411  0.2852 -0.6078 -0.3561
 8815TIP3    H226389   2.508   3.518   2.429 -0.3007  0.4089  0.0152
 8816TIP3   OH226390   0.883   6.016   2.603 -0.1833 -0.1705 -0.7023
 8816TIP3    H126391   0.886   6.109   2.579 -1.5926 -0.1846 -0.9819
 8816TIP3    H226392   0.931   5.972   2.533  0.1550  0.3041 -0.7730
 8817TIP3   OH226393   8.373   4.474   3.722  0.2984 -0.0893 -0.0096
 8817TIP3    H126394   8.362   4.480   3.817  0.2256  1.4865 -0.1164
 8817TIP3    H226395   8.430   4.548   3.700 -1.4308  0.8279 -1.4766
 8818TIP3   OH226396   0.683   6.478   3.450  0.2614 -0.2274 -0.2461
 8818TIP3    H126397   0.659   6.532   3.375  1.5824  0.8591  0.1095
 8818TIP3    H226398   0.662   6.533   3.526  2.2171  0.0634  0.1022
 8819TIP3   OH226399   7.790   6.254   2.785 -0.2273 -0.6109 -0.1505
 8819TIP3    H126400   7.728   6.186   2.761 -0.6229 -0.4137  0.3015
 8819TIP3    H226401   7.837   6.219   2.861  0.2503 -0.7813 -0.5232
 8820TIP3   OH226402   0.284   6.441   3.178  0.0842  0.1264  0.6184
 8820TIP3    H126403   0.200   6.430   3.135  0.1610 -0.0282  0.5067
 8820TIP3    H226404   0.348   6.436   3.107  0.2337 -0.4865  0.7901
 8821TIP3   OH226405   0.275   7.108   3.138 -0.0919 -0.2468  0.1021
 8821TIP3    H126406   0.268   7.040   3.206 -1.1267 -1.0321 -0.7736
 8821TIP3    H226407   0.330   7.175   3.177  0.2818 -1.2255  1.2973
 8822TIP3   OH226408   7.577   6.099   4.610 -0.7085  0.4103 -0.4089
 8822TIP3    H126409   7.593   6.182   4.655  1.3208  0.9398 -2.0202
 8822TIP3    H226410   7.510   6.119   4.545 -1.2826  0.4226  0.1821
 8823TIP3   OH226411   5.927   5.857   3.694 -0.3854  0.0113 -0.5733
 8823TIP3    H126412   5.909   5.814   3.778  2.6196  1.0727  0.7039
 8823TIP3    H226413   5.909   5.790   3.629 -3.8673 -0.4943  0.7908
 8824TIP3   OH226414   7.236   5.372   0.450  0.1607 -0.4238 -0.1222
 8824TIP3    H126415   7.263   5.327   0.530  2.3042 -1.3624 -1.3154
 8824TIP3    H226416   7.317   5.406   0.413 -0.8262  0.2186 -1.7570
 8825TIP3   OH226417   7.889   7.396   2.637 -0.0274 -0.1351 -0.1437
 8825TIP3    H126418   7.808   7.347   2.655 -0.7950  0.3729 -2.0726
 8825TIP3    H226419   7.899   7.453   2.713 -1.2182 -0.5691  0.3591
 8826TIP3   OH226420   7.078   7.214   3.983 -0.2370  0.2176  0.5091
 8826TIP3    H126421   7.141   7.190   4.051  3.2776  1.1138 -2.2793
 8826TIP3    H226422   7.081   7.310   3.980 -0.7672  0.2107 -0.5508
 8827TIP3   OH226423   1.165   7.025   2.394 -0.2959 -0.3839  0.3496
 8827TIP3    H126424   1.132   7.089   2.457 -0.6045  1.8194 -1.9939
 8827TIP3    H226425   1.093   6.964   2.382 -0.1305 -1.0042  2.3206
 8828TIP3   OH226426   0.555   5.872   1.311 -0.6141  0.2871 -0.5633
 8828TIP3    H126427   0.602   5.905   1.388  0.5939 -0.0446 -1.1491
 8828TIP3    H226428   0.468   5.852   1.344  0.1194 -0.5830  0.9130
 8829TIP3   OH226429   7.188   6.819   2.991 -0.5628  0.3496  0.5824
 8829TIP3    H126430   7.141   6.890   3.035 -1.6932  0.3365 -0.5489
 8829TIP3    H226431   7.149   6.817   2.903 -0.2104 -1.3605  0.4544
 8830TIP3   OH226432   0.697   6.806   1.978  0.3126 -0.1409  0.1843
 8830TIP3    H126433   0.653   6.891   1.977  1.7408  0.6054 -0.3077
 8830TIP3    H226434   0.780   6.822   2.024  0.1296 -1.5145  1.0483
 8831TIP3   OH226435   7.365   5.753   3.145 -0.4293  0.4658  0.1199
 8831TIP3    H126436   7.277   5.756   3.107  0.0942 -0.9638 -1.3022
 8831TIP3    H226437   7.419   5.804   3.085  0.0450 -0.1823 -0.0137
 8832TIP3   OH226438   2.095   2.213   3.115  0.3244  0.3089 -0.2252
 8832TIP3    H126439   2.141   2.282   3.068 -1.5707  2.2362  0.6972
 8832TIP3    H226440   2.148   2.199   3.194  1.5793 -0.4614 -1.1785
 8833TIP3   OH226441   7.135   7.066   3.147  0.7965 -0.3402  0.2099
 8833TIP3    H126442   7.044   7.087   3.171 -0.1830 -4.0391  0.0506
 8833TIP3    H226443   7.172   7.150   3.119 -2.8333  1.1147 -0.6149
 8834TIP3   OH226444   7.168   7.792   2.518  0.0334 -0.8809  0.2361
 8834TIP3    H126445   7.242   7.783   2.577  0.7055  0.1835 -0.4342
 8834TIP3    H226446   7.190   7.738   2.443  0.7163  0.4073 -0.5142
 8835TIP3   OH226447   3.219   0.760   2.338  0.3117 -0.0396  0.3864
 8835TIP3    H126448   3.172   0.783   2.258  0.0229 -1.7718  0.0448
 8835TIP3    H226449   3.152   0.757   2.406  0.2683 -0.4221  0.3242
 8836TIP3   OH226450   0.620   7.633   0.474 -0.8436 -0.3488 -0.1066
 8836TIP3    H126451   0.601   7.574   0.547  1.4852 -1.7718 -0.5826
 8836TIP3    H226452   0.689   7.690   0.509 -1.9752  1.0670 -0.1681
 8837TIP3   OH226453   7.862   5.031   5.029  0.0023 -0.4565  0.4789
 8837TIP3    H126454   7.798   4.974   4.987  1.0422 -0.6557 -0.8749
 8837TIP3    H226455   7.822   5.117   5.029 -0.1323 -0.5175 -0.6701
 8838TIP3   OH226456   7.675   7.176   2.672 -0.4009  0.2565 -0.4785
 8838TIP3    H126457   7.598   7.154   2.620 -1.2160  0.0048  0.8214
 8838TIP3    H226458   7.678   7.110   2.741  1.2304  0.0063 -0.7475
 8839TIP3   OH226459   2.677   0.833   1.752  0.2155  0.5536 -0.3011
 8839TIP3    H126460   2.614   0.856   1.684 -0.5778 -0.5799  0.0328
 8839TIP3    H226461   2.749   0.894   1.740  0.0475  0.4162 -2.1071
 8840TIP3   OH226462   6.190   5.987   2.475 -0.4199 -0.3785 -0.0045
 8840TIP3    H126463   6.169   5.894   2.464 -0.8411 -0.1357 -1.3068
 8840TIP3    H226464   6.104   6.029   2.486 -0.2303 -0.1319  0.5667
 8841TIP3   OH226465   0.800   7.086   2.215  0.0753  0.0953 -0.1150
 8841TIP3    H126466   0.741   7.140   2.162  0.3805  0.8338  0.2953
 8841TIP3    H226467   0.781   7.111   2.305 -0.0961 -0.8107  0.0981
 8842TIP3   OH226468   7.859   6.755   2.849 -0.0784  0.0296  0.9113
 8842TIP3    H126469   7.884   6.768   2.757  1.8843  0.2253  1.4503
 8842TIP3    H226470   7.805   6.676   2.848 -0.8339  0.5300 -0.5198
 8843TIP3   OH226471   0.151   5.834   2.898  0.8236  0.1027 -0.4055
 8843TIP3    H126472   0.129   5.844   2.806 -0.1661  0.2472 -0.1588
 8843TIP3    H226473   0.149   5.923   2.934  1.4011  0.0716 -0.2851
 8844TIP3   OH226474   6.338   7.741   4.923  0.1673 -0.0025  0.2830
 8844TIP3    H126475   6.402   7.675   4.896  0.6063 -0.0608  1.4363
 8844TIP3    H226476   6.386   7.824   4.922 -0.4074  0.3278 -1.2533
 8845TIP3   OH226477   7.347   6.421   1.211 -0.2526  0.0254 -0.3970
 8845TIP3    H126478   7.368   6.382   1.296 -0.7538 -0.3571 -0.4415
 8845TIP3    H226479   7.416   6.390   1.152  0.3285  0.6365 -0.0304
 8846TIP3   OH226480   0.729   7.584   6.152 -0.5523  0.5359  0.1898
 8846TIP3    H126481   0.648   7.557   6.109  0.3451  0.2320 -1.3486
 8846TIP3    H226482   0.722   7.550   6.241 -2.6844  1.6396  0.4735
 8847TIP3   OH226483   0.525   3.189   4.847 -0.5152 -0.3299 -0.3464
 8847TIP3    H126484   0.552   3.197   4.938 -1.0602 -1.8916 -0.0287
 8847TIP3    H226485   0.471   3.109   4.845  0.2217 -0.8018 -2.1997
 8848TIP3   OH226486   5.776   6.725   2.798 -0.0607  0.5161 -0.4081
 8848TIP3    H126487   5.695   6.693   2.758  0.8022 -0.5958 -1.3024
 8848TIP3    H226488   5.749   6.759   2.883 -1.1642 -1.8116  0.2216
 8849TIP3   OH226489   6.067   6.722   4.144 -0.4306  0.2354 -0.1272
 8849TIP3    H126490   6.051   6.781   4.070  1.8675  1.5415  0.3395
 8849TIP3    H226491   6.093   6.780   4.215 -0.0045 -1.2098  0.9211
 8850TIP3   OH226492   2.337   1.822   0.405 -0.6118  0.4689  0.1136
 8850TIP3    H126493   2.373   1.871   0.331 -0.8640  0.6652  0.1211
 8850TIP3    H226494   2.266   1.770   0.367 -0.7547  0.5848  0.2229
 8851TIP3   OH226495   7.657   5.973   1.886 -0.1009 -0.5810 -0.4567
 8851TIP3    H126496   7.587   5.963   1.822 -2.2042  1.0444  1.5430
 8851TIP3    H226497   7.637   6.054   1.932  2.5242 -0.6344  0.8787
 8852TIP3   OH226498   0.403   7.450   2.064  0.5974 -0.2381 -0.1002
 8852TIP3    H126499   0.405   7.495   2.148 -0.2240  0.1720 -0.2860
 8852TIP3    H226500   0.315   7.413   2.059  0.8022 -0.6660 -0.5686
 8853TIP3   OH226501  -0.012   4.749   2.309 -0.1595  0.0826  0.2133
 8853TIP3    H126502   0.064   4.751   2.251 -0.1653 -0.4078  0.1863
 8853TIP3    H226503   0.002   4.673   2.365 -0.4851  0.1632  0.4089
 8854TIP3   OH226504   3.083   0.818   2.090 -0.3500  0.4426  0.0858
 8854TIP3    H126505   3.037   0.883   2.037  0.4153  1.0351  0.1465
 8854TIP3    H226506   3.041   0.735   2.068  1.4945  0.3161 -3.2443
 8855TIP3   OH226507   7.764   7.339   1.677 -0.0115 -0.7159  0.0596
 8855TIP3    H126508   7.731   7.378   1.758 -0.6325 -2.7787  0.8392
 8855TIP3    H226509   7.694   7.353   1.613 -0.4018 -0.8982  0.4466
 8856TIP3   OH226510   7.503   6.868   1.196 -0.0111 -0.2521  0.0488
 8856TIP3    H126511   7.429   6.903   1.146 -0.6359 -2.9010 -0.9435
 8856TIP3    H226512   7.576   6.927   1.176 -1.4084  1.4226 -0.2664
 8857TIP3   OH226513   2.402   0.165   3.116 -0.0674 -0.2302  0.1693
 8857TIP3    H126514   2.442   0.160   3.202  0.6678 -1.2889 -0.2184
 8857TIP3    H226515   2.416   0.078   3.078 -2.2603 -0.4524 -0.1903
 8858TIP3   OH226516   7.397   7.397   4.005  0.4542 -0.0345  0.4763
 8858TIP3    H126517   7.319   7.448   4.027  1.9539  1.7465  1.7811
 8858TIP3    H226518   7.447   7.453   3.946  1.5014 -0.5246  0.8784
 8859TIP3   OH226519   6.695   5.894   2.490  0.5285 -0.2852 -0.2907
 8859TIP3    H126520   6.624   5.845   2.448 -0.1990  0.2180  0.3404
 8859TIP3    H226521   6.764   5.899   2.424  0.2549 -1.4005 -0.6555
 8860TIP3   OH226522   6.654   4.826   2.943 -0.5262  0.2749  0.1075
 8860TIP3    H126523   6.658   4.734   2.971  1.3230 -0.0592 -1.1246
 8860TIP3    H226524   6.731   4.866   2.983 -0.4061  0.8818 -0.7230
 8861TIP3   OH226525   7.812   5.511   3.064  0.5128 -0.3579  0.0876
 8861TIP3    H126526   7.720   5.514   3.089  0.4084  0.2297 -0.3415
 8861TIP3    H226527   7.843   5.601   3.077  1.0383 -0.5686  0.2901
 8862TIP3   OH226528   7.631   4.970   3.229  0.2239 -0.0003  0.0922
 8862TIP3    H126529   7.673   5.016   3.157  0.6276 -0.6411 -0.0903
 8862TIP3    H226530   7.539   4.997   3.225  0.4566  0.7885  0.0008
 8863TIP3   OH226531   8.006   5.884   1.586 -0.1941  0.6443 -0.3498
 8863TIP3    H126532   7.999   5.895   1.681 -0.4984  0.1838 -0.3203
 8863TIP3    H226533   7.991   5.972   1.551 -1.1301  0.6140 -0.0278
 8864TIP3   OH226534   8.457   5.189   5.174 -0.3718  0.0031 -0.0122
 8864TIP3    H126535   8.423   5.228   5.094 -1.1869  0.0176  0.3427
 8864TIP3    H226536   8.484   5.101   5.147  2.5409  1.1572 -1.0735
 8865TIP3   OH226537   6.263   7.088   3.986 -0.2627  0.8106 -0.1807
 8865TIP3    H126538   6.288   6.997   4.001 -0.7688  0.5383 -0.9484
 8865TIP3    H226539   6.256   7.126   4.074 -0.4972 -0.0136  0.1593
 8866TIP3   OH226540   0.338   7.711   3.016  0.0110  0.1947  0.1780
 8866TIP3    H126541   0.298   7.653   3.080  0.0924  2.0438  1.9603
 8866TIP3    H226542   0.421   7.738   3.055 -0.8421  2.9128  0.2633
 8867TIP3   OH226543   7.604   5.078   0.922 -0.2809  0.1996  0.4735
 8867TIP3    H126544   7.546   5.009   0.891 -1.5869  0.7647  1.5899
 8867TIP3    H226545   7.546   5.141   0.964  1.1610  0.6739  1.8200
 8868TIP3   OH226546   7.150   4.506   3.558  0.4290  0.4548 -0.9975
 8868TIP3    H126547   7.096   4.581   3.534  0.3323  0.2496 -1.4139
 8868TIP3    H226548   7.179   4.469   3.475 -1.8505 -1.6724 -0.9014
 8869TIP3   OH226549   6.498   5.555   4.586  0.0941 -0.0944 -0.2167
 8869TIP3    H126550   6.413   5.587   4.555 -1.2133 -2.1942  1.0643
 8869TIP3    H226551   6.539   5.630   4.627 -1.3015  0.8613 -0.5397
 8870TIP3   OH226552   8.244   7.604   0.760 -0.0213  0.1852 -0.1474
 8870TIP3    H126553   8.298   7.683   0.758 -1.0659  0.9458  1.2401
 8870TIP3    H226554   8.165   7.628   0.711 -0.2984 -0.0318  0.1915
 8871TIP3   OH226555   6.625   6.492   4.862 -0.5120 -0.2675  0.6610
 8871TIP3    H126556   6.540   6.449   4.846 -0.5482 -0.3198  0.9865
 8871TIP3    H226557   6.602   6.579   4.895 -0.4362  0.2354 -0.6140
 8872TIP3   OH226558   6.558   6.115   1.629 -0.2409 -0.1037 -0.4294
 8872TIP3    H126559   6.627   6.131   1.694  0.4914 -1.5988 -0.8058
 8872TIP3    H226560   6.606   6.106   1.547 -1.1370  1.4189 -1.1314
 8873TIP3   OH226561   6.870   2.186   6.176  0.2715  0.5296 -0.1830
 8873TIP3    H126562   6.835   2.154   6.093 -0.8593  0.0348  0.4691
 8873TIP3    H226563   6.893   2.106   6.224 -0.7145  0.7498  0.6720
 8874TIP3   OH226564   0.892   6.074   1.771  0.5204 -0.3344 -0.1661
 8874TIP3    H126565   0.950   6.126   1.716  0.7827  0.5949  0.9751
 8874TIP3    H226566   0.952   6.017   1.821  0.2964 -1.0308 -0.6802
 8875TIP3   OH226567   7.386   7.754   0.374  0.0354 -0.0562  0.2017
 8875TIP3    H126568   7.471   7.770   0.334  0.6491  0.2489  1.5902
 8875TIP3    H226569   7.393   7.793   0.461 -1.3935 -0.3676  0.4668
 8876TIP3   OH226570   8.055   7.183   2.514 -0.1424  0.3775  0.6701
 8876TIP3    H126571   8.087   7.216   2.430  0.9236  1.3418  1.4440
 8876TIP3    H226572   7.996   7.251   2.546  1.3809  1.1717  1.8524
 8877TIP3   OH226573   6.834   6.094   0.712 -0.3090  0.4804  0.4433
 8877TIP3    H126574   6.751   6.140   0.700 -1.1073 -0.9399  0.4109
 8877TIP3    H226575   6.867   6.080   0.623 -0.3275  0.5276  0.4293
 8878TIP3   OH226576   0.242   6.935   2.366  0.2309  0.5769  0.7185
 8878TIP3    H126577   0.305   7.002   2.391  2.9840 -2.2804  1.7248
 8878TIP3    H226578   0.288   6.881   2.301 -1.8099 -0.5194  0.1312
 8879TIP3   OH226579   6.795   6.528   3.859  0.5131  0.0854 -1.2618
 8879TIP3    H126580   6.778   6.618   3.884  0.1618 -0.3463  0.0814
 8879TIP3    H226581   6.852   6.535   3.782  0.3129  1.4416 -1.2971
 8880TIP3   OH226582   1.340   6.995   2.635 -0.0728 -0.2470  0.1052
 8880TIP3    H126583   1.318   7.038   2.717 -0.3743  1.7597 -1.0058
 8880TIP3    H226584   1.258   6.993   2.586  0.1057 -1.4521 -0.1709
 8881TIP3   OH226585   2.134   1.069   2.506 -0.7975 -0.3137 -0.0220
 8881TIP3    H126586   2.226   1.094   2.499 -0.3493 -1.5151  1.3042
 8881TIP3    H226587   2.099   1.079   2.417  0.9781 -1.2442 -0.8424
 8882TIP3   OH226588   7.104   5.002   5.130 -0.1928  0.5789 -0.1002
 8882TIP3    H126589   7.048   5.012   5.053 -0.7963 -0.2697  0.2249
 8882TIP3    H226590   7.190   5.035   5.101 -0.3493  0.0371 -1.2159
 8883TIP3   OH226591   2.264   0.031   2.356  0.3744 -0.5198 -0.1649
 8883TIP3    H126592   2.218   0.106   2.319  0.5318 -0.6067 -0.5402
 8883TIP3    H226593   2.318  -0.001   2.284  0.4863 -0.8479  0.0668
 8884TIP3   OH226594   0.158   7.418   2.281 -0.1660  0.2186  0.3345
 8884TIP3    H126595   0.075   7.387   2.316 -0.6481 -0.1198 -1.0530
 8884TIP3    H226596   0.157   7.389   2.190  1.1833  0.7871  0.1322
 8885TIP3   OH226597   7.051   7.340   3.461 -0.1320 -0.1065 -1.1238
 8885TIP3    H126598   7.024   7.422   3.502 -1.8847 -1.2213  0.0368
 8885TIP3    H226599   7.085   7.365   3.375  2.0320  2.1049  0.3523
 8886TIP3   OH226600   8.058   6.245   0.490  0.2709 -0.0911  0.0045
 8886TIP3    H126601   8.131   6.206   0.540 -1.3485 -0.9027  1.7909
 8886TIP3    H226602   8.064   6.338   0.510  0.8386 -0.1418  0.1058
 8887TIP3   OH226603   8.287   7.504   3.180 -0.4880  0.0464 -0.1972
 8887TIP3    H126604   8.265   7.473   3.092  0.7822 -0.8421 -0.2222
 8887TIP3    H226605   8.334   7.430   3.220  0.5218  1.0998  0.5934
 8888TIP3   OH226606   1.785   1.069   4.453 -0.0680 -0.2936  0.0475
 8888TIP3    H126607   1.868   1.095   4.493  0.3889  0.1030 -1.1472
 8888TIP3    H226608   1.784   1.114   4.369 -1.6065 -0.1176  0.1625
 8889TIP3   OH226609   2.200   1.071   1.370  0.2392  0.3261  0.6994
 8889TIP3    H126610   2.115   1.026   1.366 -0.0605  0.8955  0.5200
 8889TIP3    H226611   2.189   1.147   1.313  1.4956 -0.6167 -0.8384
 8890TIP3   OH226612   0.226   6.869   1.417 -0.6954 -0.1960  0.3055
 8890TIP3    H126613   0.137   6.893   1.440 -1.0027  0.3113 -1.3335
 8890TIP3    H226614   0.270   6.855   1.501 -1.5474  2.3426  1.2167
 8891TIP3   OH226615   0.051   5.894   2.607  0.0253  0.2984  0.2929
 8891TIP3    H126616   0.115   5.885   2.537 -0.1373  0.1981  0.1584
 8891TIP3    H226617  -0.031   5.914   2.563  0.3234  2.2073  0.5607
 8892TIP3   OH226618   6.264   6.457   2.550  0.0922 -0.1094 -0.1304
 8892TIP3    H126619   6.260   6.384   2.612 -1.3247 -0.5363 -0.7070
 8892TIP3    H226620   6.188   6.511   2.570  1.7624  1.8727  1.0509
 8893TIP3   OH226621   8.346   7.664   2.154 -0.1971  0.0939 -0.3718
 8893TIP3    H126622   8.408   7.660   2.081  0.5908 -1.2329  0.3456
 8893TIP3    H226623   8.370   7.743   2.202  1.0699 -0.4999 -0.0067
 8894TIP3   OH226624   8.458   0.820   3.930  0.3625 -0.3427 -0.7266
 8894TIP3    H126625   8.414   0.831   4.015 -0.8765  0.0426 -1.4068
 8894TIP3    H226626   8.543   0.861   3.942  0.5783 -1.1533  0.6373
 8895TIP3   OH226627   5.974   7.448   1.417 -0.0928 -1.2660 -0.2496
 8895TIP3    H126628   5.898   7.501   1.394 -0.2784 -2.4864 -2.6000
 8895TIP3    H226629   5.944   7.357   1.409  1.8807 -1.7867 -2.3573
 8896TIP3   OH226630   7.382   5.115   2.156  0.3057  0.3519 -0.3710
 8896TIP3    H126631   7.343   5.200   2.175  0.8681  0.3900  0.6521
 8896TIP3    H226632   7.336   5.085   2.077 -1.2246  0.7532  0.3344
 8897TIP3   OH226633  -0.007   6.550   1.006 -0.0570 -0.5170  0.1889
 8897TIP3    H126634   0.062   6.594   1.055 -0.8560  1.8742 -0.7736
 8897TIP3    H226635   0.037   6.474   0.967  2.2471  1.3080 -0.9378
 8898TIP3   OH226636   5.474   6.456   1.077 -0.1044 -0.2253  0.5229
 8898TIP3    H126637   5.489   6.481   1.168  1.6699  0.1486  0.1580
 8898TIP3    H226638   5.516   6.370   1.069 -2.3295 -1.3402  0.6514
 8899TIP3   OH226639   3.350   3.340   6.212  0.0247 -0.4158 -0.1998
 8899TIP3    H126640   3.353   3.432   6.186  1.6067 -0.5642 -0.5845
 8899TIP3    H226641   3.343   3.343   6.308  0.7855  0.1047 -0.1576
 8900TIP3   OH226642   1.298   1.482   2.559 -0.5889  0.8714  0.0458
 8900TIP3    H126643   1.339   1.403   2.524  0.2725  2.0610 -1.6988
 8900TIP3    H226644   1.278   1.461   2.650  0.3687 -1.0714 -0.1833
 8901TIP3   OH226645   0.003   7.140   3.016 -0.0674 -0.0166  0.4222
 8901TIP3    H126646   0.025   7.094   2.935  0.0053 -0.4907  0.7061
 8901TIP3    H226647   0.061   7.101   3.082 -0.2097  0.2829  0.7277
 8902TIP3   OH226648   0.158   6.564   2.833  0.2120  0.0528 -0.1123
 8902TIP3    H126649   0.140   6.500   2.902  2.7121  0.2276  0.7685
 8902TIP3    H226650   0.198   6.638   2.880 -0.7951  1.4312 -1.3818
 8903TIP3   OH226651   6.185   7.788   4.205 -0.1539  0.2018 -0.1747
 8903TIP3    H126652   6.090   7.799   4.207 -0.1912 -0.2197  1.4376
 8903TIP3    H226653   6.219   7.861   4.256  0.3760  0.1607 -0.4650
 8904TIP3   OH226654   8.347   5.652   3.167 -0.2377  0.4580  0.4178
 8904TIP3    H126655   8.392   5.657   3.251 -2.1992  2.2892  1.4284
 8904TIP3    H226656   8.280   5.585   3.180 -0.3495  0.5279  0.2156
 8905TIP3   OH226657   0.867   6.212   2.205 -0.3125  0.0220  0.0490
 8905TIP3    H126658   0.785   6.186   2.247 -0.8354  1.0945 -0.2937
 8905TIP3    H226659   0.854   6.303   2.181  0.8180  0.0686 -0.4249
 8906TIP3   OH226660   5.866   4.170   6.592 -0.0839  0.4006 -0.3414
 8906TIP3    H126661   5.928   4.103   6.564 -0.2780 -0.8764  2.1289
 8906TIP3    H226662   5.780   4.128   6.586 -0.4630  1.2879 -1.2371
 8907TIP3   OH226663   1.030   6.661   3.243 -1.1247 -0.2808  0.0430
 8907TIP3    H126664   1.011   6.582   3.294 -0.1473 -1.0281 -0.7285
 8907TIP3    H226665   1.007   6.733   3.301 -1.4840 -1.1286  0.9705
 8908TIP3   OH226666   8.214   6.191   0.205 -0.2420 -0.1133  0.0803
 8908TIP3    H126667   8.202   6.262   0.142  1.1116 -0.1299 -0.2216
 8908TIP3    H226668   8.278   6.225   0.268  1.5047 -1.5567 -0.8781
 8909TIP3   OH226669   5.992   4.560   2.716  0.5539 -0.4334 -0.2446
 8909TIP3    H126670   6.039   4.638   2.685  1.6205 -1.0179 -0.1474
 8909TIP3    H226671   6.026   4.489   2.661  1.1399 -1.1800  1.0653
 8910TIP3   OH226672   6.420   7.406   1.346 -0.1189  0.5883 -0.4659
 8910TIP3    H126673   6.511   7.375   1.355  0.2154  1.8807  1.0164
 8910TIP3    H226674   6.429   7.497   1.317 -0.8576  1.3323  1.5393
 8911TIP3   OH226675   5.650   5.958   2.021 -0.6597  0.5210  0.6508
 8911TIP3    H126676   5.564   5.993   2.047 -0.4773  0.7433  0.9578
 8911TIP3    H226677   5.632   5.866   2.000 -1.1249  0.7707 -0.0814
 8912TIP3   OH226678   0.615   4.701   3.861  0.0385  0.2750  0.1818
 8912TIP3    H126679   0.569   4.773   3.817  0.3286 -0.8350 -1.9996
 8912TIP3    H226680   0.666   4.744   3.930 -0.3122  2.0803 -0.6550
 8913TIP3   OH226681   8.227   7.590   1.197 -0.5337 -0.1788  0.1143
 8913TIP3    H126682   8.313   7.583   1.157 -0.6380 -0.1810 -0.1102
 8913TIP3    H226683   8.237   7.550   1.283  0.3076  1.9747  1.0503
 8914TIP3   OH226684   7.156   6.389   3.827 -0.1429  0.1628 -0.4825
 8914TIP3    H126685   7.068   6.423   3.812 -0.6898 -1.7165 -1.6296
 8914TIP3    H226686   7.208   6.423   3.754  0.4171  2.3631  0.9056
 8915TIP3   OH226687   6.444   6.717   1.256 -0.4225  0.0877  0.0099
 8915TIP3    H126688   6.490   6.690   1.176 -0.0237  0.7177  0.0248
 8915TIP3    H226689   6.370   6.657   1.262 -2.8421  2.5860 -3.0463
 8916TIP3   OH226690   0.481   4.491   1.680 -0.2054  0.3366  0.1047
 8916TIP3    H126691   0.429   4.540   1.744 -1.7058 -0.5179 -0.4322
 8916TIP3    H226692   0.539   4.437   1.734 -0.8566  0.2582  0.7480
 8917TIP3   OH226693   2.035   0.049   2.585  0.2654  0.6566  0.1804
 8917TIP3    H126694   2.095   0.092   2.646  0.9644 -0.3388  0.1993
 8917TIP3    H226695   2.086   0.039   2.505 -1.2613  3.7701 -1.2840
 8918TIP3   OH226696   7.920   5.939   3.320 -0.1421 -0.0616  0.0914
 8918TIP3    H126697   7.993   5.972   3.373 -0.4696  0.2089  0.3779
 8918TIP3    H226698   7.847   5.933   3.382 -0.6398  0.6452 -0.4277
 8919TIP3   OH226699   7.841   7.033   4.133  0.3312 -0.1076 -0.4449
 8919TIP3    H126700   7.853   7.125   4.154 -1.1916 -0.2514  1.1973
 8919TIP3    H226701   7.879   6.986   4.208  0.7020 -0.8152 -1.0589
 8920TIP3   OH226702   7.657   7.182   0.569 -0.1822 -0.7236  0.0002
 8920TIP3    H126703   7.610   7.259   0.538  0.8613  0.2589  0.8082
 8920TIP3    H226704   7.705   7.151   0.492 -0.8665 -0.7805 -0.4125
 8921TIP3   OH226705   3.255   0.066   2.415  0.0950 -0.5276 -0.1095
 8921TIP3    H126706   3.245   0.161   2.418 -1.3205 -0.6462 -0.8691
 8921TIP3    H226707   3.266   0.040   2.507  2.3080  0.5252 -0.0250
 8922TIP3   OH226708   6.597   7.454   3.420  0.7857 -0.3379 -0.2421
 8922TIP3    H126709   6.525   7.421   3.365  0.2054 -0.4298  0.5648
 8922TIP3    H226710   6.586   7.549   3.417 -1.4231 -0.4509  2.5771
 8923TIP3   OH226711   6.887   7.309   3.107 -0.5668 -0.0336 -0.4067
 8923TIP3    H126712   6.829   7.352   3.170 -1.2540 -0.6900 -0.5815
 8923TIP3    H226713   6.902   7.374   3.039 -1.3315  0.0507 -0.4980
 8924TIP3   OH226714   0.387   8.022   2.718  0.1613  0.0087 -0.0928
 8924TIP3    H126715   0.463   7.994   2.770 -0.0703  1.8464  1.2495
 8924TIP3    H226716   0.313   8.016   2.778 -0.4480  0.1553 -0.8202
 8925TIP3   OH226717   6.598   5.793   1.582  0.0283 -0.2581  0.0518
 8925TIP3    H126718   6.558   5.732   1.520 -1.0928  0.2419  0.2585
 8925TIP3    H226719   6.690   5.767   1.587 -0.6243 -2.5508  0.8801
 8926TIP3   OH226720   8.030   7.430   3.636  0.3835 -0.0105 -0.3077
 8926TIP3    H126721   7.965   7.434   3.707  0.1328 -1.9977 -0.4177
 8926TIP3    H226722   8.066   7.342   3.640  2.6623  0.8571 -0.6579
 8927TIP3   OH226723   8.149   5.452   5.683 -0.2731 -0.2025  0.0273
 8927TIP3    H126724   8.056   5.434   5.670  0.3848 -1.8329 -2.8401
 8927TIP3    H226725   8.160   5.543   5.656 -1.2678  0.5005  1.8761
 8928TIP3   OH226726   2.125   0.269   2.256 -0.5471  0.0246  0.4770
 8928TIP3    H126727   2.168   0.334   2.201 -3.0261  1.3340 -0.0115
 8928TIP3    H226728   2.053   0.236   2.202 -0.4992 -1.7401  1.4279
 8929TIP3   OH226729   7.840   7.157   1.976 -0.4160  0.1996 -0.1763
 8929TIP3    H126730   7.755   7.130   2.013  1.9376 -1.4665  4.3744
 8929TIP3    H226731   7.853   7.246   2.009  0.3061 -0.1298  0.4279
 8930TIP3   OH226732   7.828   5.561   1.624  0.3938 -0.3352  0.1587
 8930TIP3    H126733   7.916   5.576   1.590  1.7816 -2.4155  2.7195
 8930TIP3    H226734   7.823   5.467   1.638 -3.4179 -0.7122 -2.9362
 8931TIP3   OH226735   0.301   6.140   4.836 -0.3899  0.0431 -0.3348
 8931TIP3    H126736   0.396   6.142   4.848 -0.1231  0.5006 -2.4324
 8931TIP3    H226737   0.279   6.047   4.836 -0.0452 -0.0539  0.6975
 8932TIP3   OH226738   7.326   5.762   5.643 -0.1539  0.4795  0.5122
 8932TIP3    H126739   7.316   5.857   5.651  0.8346  0.7327 -0.9254
 8932TIP3    H226740   7.414   5.750   5.608 -1.2983 -0.8101 -2.0882
 8933TIP3   OH226741   6.724   6.961   3.972  0.4696  0.0603  0.2587
 8933TIP3    H126742   6.737   7.056   3.977  0.1327  0.1204 -0.0541
 8933TIP3    H226743   6.738   6.931   4.062 -1.4440  0.6564  0.7716
 8934TIP3   OH226744   0.731   0.403   0.650  0.5085 -0.5440 -0.2912
 8934TIP3    H126745   0.670   0.469   0.683  1.9056  1.3132 -1.3523
 8934TIP3    H226746   0.805   0.453   0.616  2.1048 -2.7136 -0.1132
 8935TIP3   OH226747   0.077   6.643   3.508  0.3428  0.2685 -0.3024
 8935TIP3    H126748   0.053   6.559   3.470 -0.3636 -0.0764  0.8839
 8935TIP3    H226749   0.164   6.628   3.545 -0.4558 -0.4244  1.3425
 8936TIP3   OH226750   0.052   6.961   4.284  0.2908  0.1204 -0.2138
 8936TIP3    H126751   0.138   6.983   4.319  0.1066 -0.3197  0.5210
 8936TIP3    H226752  -0.009   6.990   4.351 -0.1643  0.8368 -0.9318
 8937TIP3   OH226753   7.555   5.402   4.532 -0.6906 -0.1436 -0.4356
 8937TIP3    H126754   7.595   5.467   4.590 -1.2214  0.9538 -1.2800
 8937TIP3    H226755   7.461   5.416   4.543 -0.7926  0.1091 -1.5872
 8938TIP3   OH226756   7.386   5.083   5.733  0.1665  0.1691 -0.0303
 8938TIP3    H126757   7.432   5.054   5.654 -1.8093  2.1250 -1.9938
 8938TIP3    H226758   7.350   5.168   5.709 -2.7680 -0.4158  2.0914
 8939TIP3   OH226759   7.890   5.394   3.864 -0.5141 -0.3265  0.2062
 8939TIP3    H126760   7.876   5.477   3.819 -2.0522 -1.2258 -1.0273
 8939TIP3    H226761   7.937   5.418   3.944 -1.5056  1.8228  0.1970
 8940TIP3   OH226762   7.624   6.121   4.279 -0.4108  0.1956  0.6203
 8940TIP3    H126763   7.707   6.099   4.320  0.3015  0.6481 -0.5465
 8940TIP3    H226764   7.648   6.162   4.196 -1.7939  0.5807  0.3917
 8941TIP3   OH226765   0.456   5.708   2.050 -0.2550  0.2336 -0.0227
 8941TIP3    H126766   0.477   5.726   1.958 -0.9470  1.2737  0.0198
 8941TIP3    H226767   0.362   5.688   2.050 -0.2652  0.2701  0.4728
 8942TIP3   OH226768   6.852   4.596   6.500  0.2754 -0.6915  0.4220
 8942TIP3    H126769   6.924   4.650   6.468 -0.6832 -0.9655 -2.3435
 8942TIP3    H226770   6.846   4.524   6.437 -1.6671 -1.2790  1.2287
 8943TIP3   OH226771   0.802   5.363   4.529  0.3955  0.5069 -0.2200
 8943TIP3    H126772   0.889   5.326   4.538  0.3519  0.0904 -1.3960
 8943TIP3    H226773   0.742   5.289   4.540  0.2568  0.4847 -1.0450
 8944TIP3   OH226774   7.582   5.877   5.620  0.0559 -0.2975  0.1656
 8944TIP3    H126775   7.597   5.940   5.691  0.1890 -1.0975  0.8582
 8944TIP3    H226776   7.520   5.920   5.562 -0.6856  0.0383  1.2031
 8945TIP3   OH226777   8.018   6.410   2.908  0.2262  0.2545 -0.5765
 8945TIP3    H126778   7.978   6.495   2.924  1.0059  0.1606  2.1355
 8945TIP3    H226779   8.058   6.418   2.822 -0.1131  2.4623 -0.5550
 8946TIP3   OH226780   6.368   5.130   3.064  0.0839  0.3836  0.1295
 8946TIP3    H126781   6.338   5.112   3.153 -0.8814  0.7836 -0.1085
 8946TIP3    H226782   6.311   5.201   3.033  0.7765  0.6264 -0.6073
 8947TIP3   OH226783   5.988   7.494   2.529  0.1003  0.2169  0.6903
 8947TIP3    H126784   6.037   7.416   2.503 -0.0123  0.2410  0.3991
 8947TIP3    H226785   6.050   7.547   2.579 -0.1907 -0.6636  2.0183
 8948TIP3   OH226786   1.458   6.364   2.246 -0.1414  0.1526  0.1633
 8948TIP3    H126787   1.505   6.364   2.163 -1.5328 -1.0169 -0.6337
 8948TIP3    H226788   1.374   6.406   2.227  0.4725  2.1084  1.5500
 8949TIP3   OH226789   6.315   6.310   0.952 -0.0016 -0.4649 -0.5734
 8949TIP3    H126790   6.306   6.285   1.044 -0.3848 -1.8640 -0.9828
 8949TIP3    H226791   6.406   6.288   0.930  0.4076  0.8372 -0.2617
 8950TIP3   OH226792   8.154   6.417   0.064  0.1217  0.3107  0.3569
 8950TIP3    H126793   8.090   6.447   0.129  1.5991  0.9683  1.5294
 8950TIP3    H226794   8.181   6.497   0.018 -0.9444 -0.1552 -1.1302
 8951TIP3   OH226795   0.157   1.176   3.346  0.2326 -0.1642  0.7650
 8951TIP3    H126796   0.206   1.137   3.273  0.8070 -1.2614  1.7089
 8951TIP3    H226797   0.072   1.200   3.308  1.0487  0.6342 -0.6060
 8952TIP3   OH226798   1.595   4.950   1.869 -0.1660 -0.1522  0.4309
 8952TIP3    H126799   1.672   4.930   1.816  0.3673 -0.7581  1.4076
 8952TIP3    H226800   1.572   4.867   1.910  0.0639  0.5127  1.9557
 8953TIP3   OH226801   7.713   7.470   1.945  0.0635  0.5559  0.0634
 8953TIP3    H126802   7.754   7.556   1.940 -0.0197  0.6132  0.3992
 8953TIP3    H226803   7.713   7.448   2.038 -0.4324  0.4426  0.0365
 8954TIP3   OH226804   7.832   4.990   0.807 -0.1208  0.1215  0.3616
 8954TIP3    H126805   7.759   5.031   0.853 -0.6368  0.2496 -0.5748
 8954TIP3    H226806   7.793   4.918   0.759  0.6945 -1.1090  1.5222
 8955TIP3   OH226807   0.743   6.803   3.386  0.0420 -0.0605  0.4622
 8955TIP3    H126808   0.752   6.845   3.300 -1.8597 -0.1203  0.2138
 8955TIP3    H226809   0.703   6.718   3.367  3.1059 -1.7142  1.0483
 8956TIP3   OH226810   0.628   0.235   1.357  0.0200  0.2102 -0.0824
 8956TIP3    H126811   0.580   0.317   1.367  1.4148  1.2010 -1.2955
 8956TIP3    H226812   0.561   0.171   1.332 -1.1030  0.9220  1.0249
 8957TIP3   OH226813   0.871   7.463   3.888 -0.7770 -0.2508 -0.3198
 8957TIP3    H126814   0.906   7.414   3.814 -0.0242 -2.0738  1.2073
 8957TIP3    H226815   0.796   7.411   3.918 -2.4487  1.6054 -1.1212
 8958TIP3   OH226816   7.743   5.957   2.176  0.3170  0.9096  0.6937
 8958TIP3    H126817   7.834   5.939   2.155  0.6647  2.3954  0.8275
 8958TIP3    H226818   7.722   6.036   2.125 -0.9630  0.4429  0.4784
 8959TIP3   OH226819   8.193   5.329   3.523  0.2057  0.1157 -0.3594
 8959TIP3    H126820   8.235   5.287   3.449 -0.2429 -1.3254  0.1770
 8959TIP3    H226821   8.197   5.264   3.593 -1.5375  0.5135  0.1522
 8960TIP3   OH226822   8.206   6.913   2.901  0.1181  0.3503 -0.1195
 8960TIP3    H126823   8.299   6.891   2.893 -0.0225 -1.1411  1.8751
 8960TIP3    H226824   8.203   6.977   2.972 -0.2502  1.6532 -1.2669
 8961TIP3   OH226825   6.977   5.101   3.367  0.1394 -0.1240 -0.1493
 8961TIP3    H126826   6.980   5.149   3.285  0.4923  1.2497  0.6530
 8961TIP3    H226827   7.069   5.081   3.386  0.1144  0.1380  0.2474
 8962TIP3   OH226828   6.534   5.345   4.090  0.4683  0.4043 -0.4189
 8962TIP3    H126829   6.542   5.430   4.047  0.0441  0.5981 -0.1119
 8962TIP3    H226830   6.459   5.304   4.048  0.2906  0.4370 -0.1382
 8963TIP3   OH226831   0.283   6.956   2.032  0.0823  0.3631  0.2931
 8963TIP3    H126832   0.247   7.037   2.070  0.5405  0.9943 -0.6008
 8963TIP3    H226833   0.378   6.968   2.038  0.1712 -1.0070  2.0413
 8964TIP3   OH226834   2.001   0.586   2.726 -0.0753 -0.4369 -0.0053
 8964TIP3    H126835   1.925   0.529   2.739 -0.4428  0.6307  2.9893
 8964TIP3    H226836   1.966   0.662   2.678 -0.8006 -0.2097  0.8616
 8965TIP3   OH226837   6.580   7.066   1.086  0.2819 -0.2942  0.1529
 8965TIP3    H126838   6.491   7.032   1.077  0.1276 -0.3424  1.6840
 8965TIP3    H226839   6.578   7.150   1.041 -0.5440 -0.2962  0.1669
 8966TIP3   OH226840   8.134   1.133   1.888  0.1736  0.1019 -0.0346
 8966TIP3    H126841   8.101   1.072   1.822  0.7423  0.9986 -1.1615
 8966TIP3    H226842   8.059   1.149   1.945  0.1088 -1.8945  0.4802
 8967TIP3   OH226843   0.315   4.712   3.555 -0.3510  0.4107  0.1446
 8967TIP3    H126844   0.334   4.644   3.619 -0.0168  0.9867  0.6634
 8967TIP3    H226845   0.401   4.738   3.521 -0.4376  0.8633  0.2602
 8968TIP3   OH226846   3.798   0.165   3.196  0.2602  0.4265 -0.2237
 8968TIP3    H126847   3.870   0.219   3.228  0.1110  0.6284 -0.2277
 8968TIP3    H226848   3.839   0.082   3.170  0.7360  1.0927 -1.6623
 8969TIP3   OH226849   8.535   5.962   5.895 -1.0887  0.4201  0.1737
 8969TIP3    H126850   8.460   6.019   5.878 -1.6820 -1.1791 -2.7953
 8969TIP3    H226851   8.497   5.876   5.911  0.0859 -0.3520 -1.1031
 8970TIP3   OH226852   7.153   6.067   2.140  0.1661 -0.1217  0.6233
 8970TIP3    H126853   7.070   6.101   2.173  0.0313  0.4821 -0.3101
 8970TIP3    H226854   7.219   6.127   2.174 -0.0217  0.7924 -0.6033
 8971TIP3   OH226855   6.828   6.823   2.217 -0.4487  0.1414  0.0253
 8971TIP3    H126856   6.796   6.881   2.148 -3.1804  0.5818  1.6111
 8971TIP3    H226857   6.834   6.737   2.175  0.3096  0.8771 -1.4079
 8972TIP3   OH226858   7.293   6.830   3.461  0.3309  0.2967  0.3202
 8972TIP3    H126859   7.308   6.889   3.387  0.8926 -1.3172 -0.8879
 8972TIP3    H226860   7.374   6.781   3.470 -0.4049 -0.8738  0.7691
 8973TIP3   OH226861   7.312   5.067   2.912 -0.2697 -0.2277  0.0232
 8973TIP3    H126862   7.361   5.115   2.846 -0.6729  0.0442 -0.0814
 8973TIP3    H226863   7.234   5.036   2.867  0.0705 -1.1431  0.0471
 8974TIP3   OH226864   1.163   6.152   1.382 -0.0365  0.0580  0.1872
 8974TIP3    H126865   1.192   6.206   1.309  1.3490  0.5865  1.1110
 8974TIP3    H226866   1.227   6.081   1.386 -0.4618 -0.3116  0.5070
 8975TIP3   OH226867   7.647   6.882   1.826 -0.4569  0.1855 -0.6536
 8975TIP3    H126868   7.584   6.812   1.843 -0.3211  0.4801  1.1483
 8975TIP3    H226869   7.729   6.850   1.863 -0.1791  0.9124 -0.6257
 8976TIP3   OH226870   7.040   5.598   1.211  0.4781  0.3203  0.4030
 8976TIP3    H126871   7.044   5.609   1.306  3.8906 -0.3087  0.3884
 8976TIP3    H226872   7.017   5.685   1.177 -0.2886  0.6482  1.7529
 8977TIP3   OH226873   7.708   3.359   1.952 -0.0364 -0.7998 -0.4109
 8977TIP3    H126874   7.727   3.269   1.978  1.8645 -0.4661 -0.5509
 8977TIP3    H226875   7.620   3.375   1.985  0.2740 -2.1399  1.1660
 8978TIP3   OH226876   7.862   5.604   3.698  0.8758  0.2543 -0.0644
 8978TIP3    H126877   7.767   5.593   3.695  1.2309 -2.6035 -2.6305
 8978TIP3    H226878   7.888   5.623   3.608  2.8433 -0.0977  0.3947
 8979TIP3   OH226879   7.600   4.849   3.519 -0.5351  0.2036 -0.0925
 8979TIP3    H126880   7.573   4.880   3.433  0.1053  2.1303  0.3807
 8979TIP3    H226881   7.665   4.781   3.501 -1.0314 -0.0044 -1.1232
 8980TIP3   OH226882   1.920   0.654   3.315 -0.1755  0.3019 -0.3053
 8980TIP3    H126883   1.987   0.666   3.383  0.5595 -0.6341 -0.8659
 8980TIP3    H226884   1.962   0.684   3.234 -0.7111  0.4517 -0.5325
 8981TIP3   OH226885   7.893   6.552   4.097 -0.0055  0.2353 -0.0874
 8981TIP3    H126886   7.871   6.640   4.066  0.4380 -0.4503 -2.4405
 8981TIP3    H226887   7.907   6.501   4.017  1.4772 -1.5397  1.2525
 8982TIP3   OH226888   6.334   4.782   2.372  0.0946 -0.6009  0.2765
 8982TIP3    H126889   6.376   4.810   2.454 -0.8654  1.1152  0.2141
 8982TIP3    H226890   6.298   4.863   2.335 -2.4689 -1.8764 -0.1241
 8983TIP3   OH226891   0.531   6.262   2.318  0.2183 -0.3485 -0.4652
 8983TIP3    H126892   0.581   6.297   2.391 -0.2442  2.4364 -1.4292
 8983TIP3    H226893   0.456   6.220   2.358  1.0387 -0.6762  0.7580
 8984TIP3   OH226894   7.930   6.162   5.765 -0.1588 -0.3240 -0.1835
 8984TIP3    H126895   8.006   6.187   5.817  0.0367  0.6232 -0.9172
 8984TIP3    H226896   7.922   6.231   5.699 -1.5787 -0.4829 -0.1875
 8985TIP3   OH226897   2.191   5.402   2.651 -0.2098 -0.0324 -0.2529
 8985TIP3    H126898   2.104   5.365   2.634 -0.7452  2.1969 -2.8161
 8985TIP3    H226899   2.249   5.327   2.654 -1.7088 -1.3329 -2.2241
 8986TIP3   OH226900   6.265   7.575   0.942 -0.1799 -0.5038 -0.3290
 8986TIP3    H126901   6.213   7.644   0.900 -2.3976 -1.4232  0.8550
 8986TIP3    H226902   6.330   7.623   0.993 -1.2457  0.7273 -0.0724
 8987TIP3   OH226903   7.832   5.799   2.425  0.0284  0.3151  0.3768
 8987TIP3    H126904   7.758   5.756   2.466 -0.0370  0.4378  0.3878
 8987TIP3    H226905   7.858   5.868   2.486 -0.2440  0.6779  0.0908
 8988TIP3   OH226906   1.784   4.318   5.581  0.2656 -0.7363  0.0011
 8988TIP3    H126907   1.711   4.335   5.522  1.2034 -2.5223 -1.7070
 8988TIP3    H226908   1.825   4.403   5.593 -0.5741 -0.1648 -1.0563
 8989TIP3   OH226909   8.439   6.491   5.090 -0.5532 -0.1048 -0.4274
 8989TIP3    H126910   8.499   6.557   5.125 -0.8836 -0.7232  1.3487
 8989TIP3    H226911   8.497   6.427   5.048 -0.0412 -0.1903  0.3992
 8990TIP3   OH226912   0.289   7.246   5.193 -0.0847 -0.3794 -0.2131
 8990TIP3    H126913   0.351   7.240   5.266  0.1811  0.1880 -0.3973
 8990TIP3    H226914   0.258   7.336   5.195 -1.3840 -0.8080  0.2725
 8991TIP3   OH226915   7.999   5.456   4.127 -0.2544 -0.8493  0.1928
 8991TIP3    H126916   8.036   5.543   4.144  0.2807 -1.2527  1.0937
 8991TIP3    H226917   7.949   5.435   4.205 -0.9772 -1.0560 -0.3174
 8992TIP3   OH226918   1.257   7.589   5.291 -0.4056 -0.0905 -0.2712
 8992TIP3    H126919   1.165   7.605   5.314 -0.7185 -1.6949 -0.3405
 8992TIP3    H226920   1.304   7.594   5.375 -0.5333  0.8911 -0.2587
 8993TIP3   OH226921   2.045   0.950   3.215 -0.1040  0.2547  0.3466
 8993TIP3    H126922   1.975   0.938   3.280  1.2599 -1.9287  1.4640
 8993TIP3    H226923   2.126   0.947   3.266  0.9397 -0.2203 -1.3058
 8994TIP3   OH226924   1.045   7.022   5.469 -0.4251  0.3408  1.1770
 8994TIP3    H126925   1.139   7.040   5.473 -0.4568  1.0259 -0.6992
 8994TIP3    H226926   1.005   7.105   5.445 -1.2375 -0.5448 -0.6682
 8995TIP3   OH226927   1.307   5.762   4.340 -0.8453  0.5725  0.1668
 8995TIP3    H126928   1.325   5.856   4.343  1.0101  0.2786 -0.9623
 8995TIP3    H226929   1.327   5.736   4.250 -0.9139 -0.9812  0.5803
 8996TIP3   OH226930   8.339   7.787   3.957 -0.4569 -0.5507 -0.2847
 8996TIP3    H126931   8.359   7.695   3.940 -2.6626 -1.0004 -0.5546
 8996TIP3    H226932   8.370   7.802   4.046 -0.8500 -1.7902  0.0669
 8997TIP3   OH226933   0.674   7.868   5.560 -0.4095  0.5484 -0.1734
 8997TIP3    H126934   0.683   7.918   5.479 -1.4589  0.7096 -0.1909
 8997TIP3    H226935   0.602   7.807   5.544  1.1713 -1.3224 -0.3270
 8998TIP3   OH226936   0.045   6.381   3.043  0.2094  0.1789 -0.2356
 8998TIP3    H126937  -0.041   6.368   3.082  0.9152 -1.3441  0.8550
 8998TIP3    H226938   0.033   6.362   2.950 -0.3612 -1.3035  0.1335
 8999TIP3   OH226939   1.364   7.485   5.747  0.1108 -0.0828 -0.0776
 8999TIP3    H126940   1.366   7.567   5.796  0.2885  0.0202 -0.2528
 8999TIP3    H226941   1.349   7.418   5.813  1.4055 -0.0534  0.2625
 9000TIP3   OH226942   0.935   5.522   5.837 -0.3447  0.1879 -0.3301
 9000TIP3    H126943   0.993   5.504   5.762  0.6108  0.7350  0.2710
 9000TIP3    H226944   0.994   5.524   5.912 -1.3373 -0.6100  0.4769
 9001TIP3   OH226945   0.681   6.048   5.047 -0.0233 -0.4262  0.1328
 9001TIP3    H126946   0.640   6.039   5.133 -0.1717  0.8615  0.2161
 9001TIP3    H226947   0.771   6.075   5.065 -0.4727  1.3164 -0.1239
 9002TIP3   OH226948   0.816   6.415   3.066  0.5106  0.2147  0.0331
 9002TIP3    H126949   0.909   6.426   3.084  0.4989  0.8461 -0.2904
 9002TIP3    H226950   0.785   6.502   3.040  0.3739 -0.4995 -2.3169
 9003TIP3   OH226951   0.102   6.026   5.300  0.0633 -0.2778  0.4194
 9003TIP3    H126952   0.067   6.002   5.215  2.1587  0.4634 -0.6914
 9003TIP3    H226953   0.027   6.024   5.359 -1.5798  0.0596 -1.6173
 9004TIP3   OH226954   0.852   7.432   6.460  0.1888  0.3118 -0.1621
 9004TIP3    H126955   0.916   7.501   6.443  0.3137  0.1645 -0.2911
 9004TIP3    H226956   0.877   7.361   6.401 -0.8260  0.7069 -1.0843
 9005TIP3   OH226957   0.375   6.109   4.372 -0.1616  0.2306 -0.4872
 9005TIP3    H126958   0.310   6.082   4.436 -0.4100 -0.7335 -1.1307
 9005TIP3    H226959   0.324   6.129   4.293  0.4074 -1.9123 -1.4500
 9006TIP3   OH226960   0.996   5.965   6.716  0.4451  0.4235  0.5442
 9006TIP3    H126961   0.902   5.970   6.733  0.4047  0.2157  0.3804
 9006TIP3    H226962   1.005   5.902   6.645  0.6857  0.6378  0.3801
 9007TIP3   OH226963   1.525   7.772   5.975  0.3727 -0.7376  0.5429
 9007TIP3    H126964   1.600   7.823   5.944  0.0763  0.1340  1.2156
 9007TIP3    H226965   1.562   7.707   6.034  0.3327  1.5908  3.2197
 9008TIP3   OH226966   8.463   4.152   4.830 -0.1992  0.3413  0.4795
 9008TIP3    H126967   8.461   4.071   4.881  0.3363 -0.4057 -0.6529
 9008TIP3    H226968   8.473   4.222   4.895 -1.4746 -0.4339  1.5316
 9009TIP3   OH226969   4.032   0.580   4.963 -0.0027  0.1443 -0.2159
 9009TIP3    H126970   3.962   0.645   4.962  0.9808  1.2689  1.4068
 9009TIP3    H226971   4.045   0.557   4.871 -2.2645  0.1559 -0.5577
 9010TIP3   OH226972   8.394   6.644   2.760 -0.4230  0.2068  0.1320
 9010TIP3    H126973   8.380   6.708   2.830  0.1385  2.0352 -1.3588
 9010TIP3    H226974   8.488   6.651   2.740  0.0689 -2.6050  1.3489
 9011TIP3   OH226975   8.372   5.314   5.741  0.0382  0.4494 -0.0138
 9011TIP3    H126976   8.285   5.353   5.738 -0.3486 -0.2903  1.0256
 9011TIP3    H226977   8.431   5.384   5.715 -0.6437  1.7130  1.7501
 9012TIP3   OH226978   0.414   5.654   1.486 -0.3811 -0.4667  0.0483
 9012TIP3    H126979   0.342   5.702   1.445  0.1146 -0.9105 -1.3715
 9012TIP3    H226980   0.378   5.567   1.503  0.2878 -1.2081 -2.1668
 9013TIP3   OH226981   3.362   6.053   4.802  0.2916 -0.4370  0.3140
 9013TIP3    H126982   3.278   6.059   4.756  0.6543  1.4707 -0.1311
 9013TIP3    H226983   3.339   6.066   4.894  0.0944  0.1143  0.1897
 9014TIP3   OH226984   1.022   7.229   2.540  0.4890  0.2261 -0.2290
 9014TIP3    H126985   0.955   7.222   2.472  1.2785 -1.5926 -0.8370
 9014TIP3    H226986   0.972   7.243   2.621 -0.6329 -0.9321 -0.7070
 9015TIP3   OH226987   0.367   7.374   3.977  0.2944 -0.2134  0.1032
 9015TIP3    H126988   0.331   7.323   3.905 -0.9240  1.0545 -0.2235
 9015TIP3    H226989   0.304   7.446   3.989  2.3651  1.6884 -0.0158
 9016TIP3   OH226990   1.576   7.139   4.872 -0.3190  0.4837  0.8066
 9016TIP3    H126991   1.522   7.073   4.915  0.6082 -0.8010  0.0559
 9016TIP3    H226992   1.548   7.137   4.781  2.0565 -1.3942  0.0403
 9017TIP3   OH226993   0.331   6.014   5.158  0.6795 -0.2972 -0.0957
 9017TIP3    H126994   0.286   5.977   5.082  0.3617  1.6387 -0.8631
 9017TIP3    H226995   0.262   6.026   5.223  0.8179 -1.1989  0.2326
 9018TIP3   OH226996   7.904   5.236   5.611 -0.4037 -0.0984  0.2475
 9018TIP3    H126997   7.827   5.189   5.642 -0.0736 -0.5922  0.3367
 9018TIP3    H226998   7.882   5.265   5.523 -1.2679  1.1159  0.8458
 9019TIP3   OH226999   0.815   7.458   4.235 -0.3794  0.2585 -0.1275
 9019TIP3    H127000   0.780   7.409   4.160 -1.4809 -0.1207  0.6128
 9019TIP3    H227001   0.899   7.491   4.205  0.4959 -2.2848 -0.5600
 9020TIP3   OH227002   1.611   6.336   4.933 -0.0070  0.3305  0.3095
 9020TIP3    H127003   1.634   6.301   4.846 -0.8249 -0.8488  0.5472
 9020TIP3    H227004   1.617   6.431   4.923  1.4001  0.1669 -0.6172
 9021TIP3   OH227005   1.372   6.036   4.339 -0.0428  0.5680  0.2239
 9021TIP3    H127006   1.447   6.024   4.397  0.0293  0.4049  0.0968
 9021TIP3    H227007   1.351   6.129   4.346  1.0775  0.9143 -0.8374
 9022TIP3   OH227008   2.489   0.945   4.177  0.3665 -0.0192 -0.4013
 9022TIP3    H127009   2.576   0.977   4.204 -0.7747  1.9495  1.1071
 9022TIP3    H227010   2.470   0.995   4.097  0.3004  0.1120 -0.3039
 9023TIP3   OH227011   0.251   7.027   3.408 -0.0748  0.0716 -0.9816
 9023TIP3    H127012   0.333   7.051   3.452 -1.0168  1.7075 -0.0935
 9023TIP3    H227013   0.199   7.107   3.407 -2.6592 -1.4881  0.6495
 9024TIP3   OH227014   1.912   5.496   4.004  0.6236 -0.0493  0.0523
 9024TIP3    H127015   1.901   5.428   4.070  0.2528 -0.1451 -0.1088
 9024TIP3    H227016   1.939   5.449   3.925 -1.1716 -0.1908 -0.5009
 9025TIP3   OH227017   3.004   5.762   5.760 -0.1559 -0.5352 -0.4959
 9025TIP3    H127018   2.910   5.776   5.776 -0.5506 -1.2955 -2.0166
 9025TIP3    H227019   3.009   5.673   5.725  1.0707 -0.3071 -0.9243
 9026TIP3   OH227020   5.774   1.123   3.351  0.2929 -0.4337 -0.2063
 9026TIP3    H127021   5.779   1.202   3.297  0.1734 -0.6537 -0.5386
 9026TIP3    H227022   5.701   1.139   3.411  0.7350  0.0134  0.2168
 9027TIP3   OH227023   0.746   6.201   5.506 -0.4584  0.2395  0.1751
 9027TIP3    H127024   0.699   6.153   5.575 -0.0789  0.2847  0.4615
 9027TIP3    H227025   0.680   6.212   5.437  0.1026 -2.8663 -0.9357
 9028TIP3   OH227026   2.040   7.635   4.492  0.5472 -0.4654  0.0573
 9028TIP3    H127027   2.102   7.669   4.556  0.6317  0.1136 -0.3193
 9028TIP3    H227028   1.955   7.643   4.535  0.5831  0.0925  0.0397
 9029TIP3   OH227029   4.892   0.840   4.312 -0.2353 -0.8286  0.0631
 9029TIP3    H127030   4.808   0.872   4.280 -0.4816 -1.2422  0.2792
 9029TIP3    H227031   4.887   0.851   4.407 -0.0006 -0.7514  0.0666
 9030TIP3   OH227032   0.936   5.395   3.433 -0.2370  0.4741 -0.3561
 9030TIP3    H127033   0.962   5.384   3.524 -1.8878  0.1983  0.1116
 9030TIP3    H227034   0.885   5.316   3.413  0.0793  0.5518 -1.5013
 9031TIP3   OH227035   1.526   7.512   4.661 -0.5250 -0.5514  0.9788
 9031TIP3    H127036   1.559   7.469   4.740  0.1845  0.2535  1.1175
 9031TIP3    H227037   1.484   7.591   4.692 -1.0366 -0.6851  0.6310
 9032TIP3   OH227038   3.185   0.196   5.169  0.2416 -0.6270 -0.3160
 9032TIP3    H127039   3.270   0.239   5.168  0.2525 -0.6518 -1.4579
 9032TIP3    H227040   3.128   0.254   5.117 -0.4036 -0.6781  0.3179
 9033TIP3   OH227041   3.079   7.855   3.270 -0.1949 -0.0816  0.6420
 9033TIP3    H127042   3.172   7.842   3.286 -0.4880 -1.2880  1.4271
 9033TIP3    H227043   3.061   7.804   3.191 -0.1372  0.4161  0.3003
 9034TIP3   OH227044   1.983   7.386   5.111 -0.2023  0.7244  0.2945
 9034TIP3    H127045   1.947   7.375   5.199 -1.6238  1.5471 -0.1569
 9034TIP3    H227046   1.946   7.314   5.061 -0.8425  1.2781 -0.0461
 9035TIP3   OH227047   2.035   6.146   2.430  0.4385  0.1775  0.0502
 9035TIP3    H127048   2.044   6.116   2.521  1.1588  0.4972  0.0886
 9035TIP3    H227049   2.112   6.200   2.415 -0.0179  0.6744 -0.5430
 9036TIP3   OH227050   2.573   0.148   4.765  0.5341  0.2721 -0.6760
 9036TIP3    H127051   2.515   0.221   4.745 -0.0956  0.5336  1.9766
 9036TIP3    H227052   2.591   0.155   4.859  0.9435 -2.6054 -0.4738
 9037TIP3   OH227053   5.020   0.289   2.945  0.2212  0.1002  0.0058
 9037TIP3    H127054   4.953   0.316   2.883 -0.1489  0.9306  0.7702
 9037TIP3    H227055   5.103   0.309   2.901 -0.0150 -0.8950 -0.9193
 9038TIP3   OH227056   4.604   0.615   4.869  0.1462 -0.8032 -0.4334
 9038TIP3    H127057   4.561   0.699   4.856  0.1087 -0.4498  1.8466
 9038TIP3    H227058   4.538   0.550   4.841 -1.1043 -0.1848  0.9998
 9039TIP3   OH227059   4.162   0.344   4.548  0.2288  0.0519 -0.2302
 9039TIP3    H127060   4.079   0.301   4.567  0.4260 -1.0700 -1.7534
 9039TIP3    H227061   4.202   0.289   4.479  2.1417  0.6562  0.3584
 9040TIP3   OH227062   2.264   7.614   3.648 -0.2714  0.5054  0.4662
 9040TIP3    H127063   2.347   7.660   3.659 -0.0385  0.1382  0.2678
 9040TIP3    H227064   2.262   7.590   3.555  0.3190 -1.1864  0.8638
 9041TIP3   OH227065   1.216   6.839   6.141 -0.4455 -1.2543 -0.2074
 9041TIP3    H127066   1.170   6.862   6.060  0.3816  1.1409 -0.0156
 9041TIP3    H227067   1.284   6.778   6.113 -0.1666 -0.4428 -1.3075
 9042TIP3   OH227068   3.963   0.303   2.498 -0.0002  0.7503 -0.0595
 9042TIP3    H127069   3.968   0.288   2.592 -0.8571 -1.0123 -0.2747
 9042TIP3    H227070   4.020   0.237   2.459 -0.1186  1.0762 -0.8093
 9043TIP3   OH227071   3.596   7.519   4.937  0.5555 -0.3283 -0.1201
 9043TIP3    H127072   3.690   7.539   4.942  0.4065  0.9651 -2.0008
 9043TIP3    H227073   3.556   7.601   4.908 -1.1949 -0.8376  0.7878
 9044TIP3   OH227074   4.903   2.054   3.187 -0.2680 -0.0657 -0.3042
 9044TIP3    H127075   4.939   2.062   3.099 -3.0990  0.0644 -1.5073
 9044TIP3    H227076   4.903   2.144   3.222 -1.5341  0.3080 -1.2069
 9045TIP3   OH227077   0.398   6.740   3.907 -0.3036 -0.3485  0.0213
 9045TIP3    H127078   0.437   6.826   3.924 -2.4344  0.9014 -1.2602
 9045TIP3    H227079   0.393   6.698   3.993  3.0507 -0.2385  0.3412
 9046TIP3   OH227080   0.155   7.569   4.242 -0.4935 -0.0842  0.5914
 9046TIP3    H127081   0.063   7.545   4.249 -0.3267 -1.1710 -0.6627
 9046TIP3    H227082   0.177   7.606   4.327 -1.5290 -1.8377  1.6580
 9047TIP3   OH227083   8.462   7.880   3.282 -0.5695  0.1783  0.7332
 9047TIP3    H127084   8.402   7.908   3.351  1.4651  0.3735  2.4861
 9047TIP3    H227085   8.480   7.788   3.302  1.1312  0.6184  1.3447
 9048TIP3   OH227086   2.430   6.777   4.173  0.0199  0.0444 -0.0221
 9048TIP3    H127087   2.445   6.682   4.170  0.3458 -0.0106  2.5057
 9048TIP3    H227088   2.340   6.786   4.206 -0.0082  0.6173 -0.2464
 9049TIP3   OH227089   4.237   1.093   4.456  0.2846  0.2581  0.2008
 9049TIP3    H127090   4.202   1.098   4.545 -0.7573  0.8665 -0.2261
 9049TIP3    H227091   4.208   1.175   4.415  0.7864 -0.0063 -0.6818
 9050TIP3   OH227092   5.511   0.968   3.215 -0.1858  0.3724 -0.4997
 9050TIP3    H127093   5.529   0.925   3.299 -2.8293 -0.3453 -0.2491
 9050TIP3    H227094   5.443   1.032   3.235 -1.0482 -0.0046 -2.1208
 9051TIP3   OH227095   4.352   0.773   4.782 -0.4419  0.9500 -0.4268
 9051TIP3    H127096   4.352   0.798   4.875 -1.2217 -0.6182  0.0128
 9051TIP3    H227097   4.288   0.831   4.742  0.1598  1.8814 -0.0505
 9052TIP3   OH227098   0.263   7.315   4.520  0.4253 -0.4771  0.0244
 9052TIP3    H127099   0.314   7.316   4.439  0.6351  2.5865  0.1258
 9052TIP3    H227100   0.328   7.302   4.589  0.4902 -1.0220 -0.1314
 9053TIP3   OH227101   1.322   7.360   4.262  0.2080  0.1402 -0.3670
 9053TIP3    H127102   1.296   7.350   4.354 -0.2836  1.0047 -0.4132
 9053TIP3    H227103   1.239   7.371   4.215  0.5993  1.9588 -0.6386
 9054TIP3   OH227104   3.555   7.804   3.452 -0.5206  0.1643 -0.1047
 9054TIP3    H127105   3.524   7.794   3.542 -2.0986 -1.7177 -0.8286
 9054TIP3    H227106   3.639   7.758   3.450 -0.4306  0.3031  0.4020
 9055TIP3   OH227107   0.544   1.117   2.289  0.3630 -0.5960  0.0398
 9055TIP3    H127108   0.578   1.044   2.237 -1.4642 -0.8717 -0.8137
 9055TIP3    H227109   0.518   1.077   2.372  1.3947 -0.5132  0.4125
 9056TIP3   OH227110   5.337   0.348   4.339  0.0169  0.5427  0.3264
 9056TIP3    H127111   5.310   0.414   4.402  1.0069 -1.2031  2.6503
 9056TIP3    H227112   5.414   0.386   4.296  0.5731  0.9314  1.6331
 9057TIP3   OH227113   8.450   5.926   4.481  0.2231 -0.3683  0.0508
 9057TIP3    H127114   8.438   5.837   4.450  1.5073 -0.5976  0.1990
 9057TIP3    H227115   8.537   5.952   4.449  0.5092  0.2767  1.3066
 9058TIP3   OH227116   0.486   7.559   5.294 -0.3516 -0.1204  0.3039
 9058TIP3    H127117   0.523   7.474   5.269 -0.7255  0.4554 -2.3974
 9058TIP3    H227118   0.392   7.545   5.294 -0.3974  0.1835  0.2018
 9059TIP3   OH227119   3.252   7.055   4.523 -0.1755  0.5293  0.0013
 9059TIP3    H127120   3.161   7.056   4.493  0.1001 -2.3076 -1.0899
 9059TIP3    H227121   3.260   6.976   4.575  1.7133  0.6821 -0.0047
 9060TIP3   OH227122   4.608   0.341   6.826  0.4608 -0.4088 -0.2353
 9060TIP3    H127123   4.561   0.266   6.863  1.5456 -0.6463  0.6919
 9060TIP3    H227124   4.653   0.380   6.900 -1.0340  1.8883 -0.4976
 9061TIP3   OH227125   8.395   7.315   3.350  0.3330  0.2755 -0.2691
 9061TIP3    H127126   8.478   7.295   3.393 -0.8799 -3.8834  0.3154
 9061TIP3    H227127   8.334   7.249   3.383 -2.5077  1.4832 -2.8623
 9062TIP3   OH227128   1.837   4.848   4.984  0.2122  0.0913 -0.6307
 9062TIP3    H127129   1.878   4.804   5.059  0.0095 -0.2133 -0.6949
 9062TIP3    H227130   1.900   4.914   4.957  1.8244 -2.0807 -2.3692
 9063TIP3   OH227131   3.838   7.398   1.967  0.1071 -0.3010 -0.3787
 9063TIP3    H127132   3.745   7.398   1.990 -0.1764  0.8886 -1.5234
 9063TIP3    H227133   3.844   7.342   1.890  0.6071 -1.7761  0.7125
 9064TIP3   OH227134   4.003   0.230   2.757 -0.2886  0.9400 -0.4024
 9064TIP3    H127135   4.026   0.168   2.827 -0.6765  0.6195 -0.5553
 9064TIP3    H227136   3.947   0.294   2.800 -0.3301  0.8803 -0.3676
 9065TIP3   OH227137   2.443   6.797   5.748 -0.0493 -0.7320 -0.3880
 9065TIP3    H127138   2.516   6.851   5.718 -0.4914  1.0704  1.6100
 9065TIP3    H227139   2.485   6.722   5.791  0.6375  0.1669  0.5266
 9066TIP3   OH227140   3.151   5.131   4.987 -0.1821  0.1769 -0.2407
 9066TIP3    H127141   3.195   5.087   4.914  2.0892  3.1885 -0.7815
 9066TIP3    H227142   3.065   5.153   4.952  1.3891  2.8693 -2.5883
 9067TIP3   OH227143   0.214   5.967   6.762 -0.0343 -0.6411  0.1013
 9067TIP3    H127144   0.282   5.904   6.741  1.8822  1.7069 -0.8802
 9067TIP3    H227145   0.239   6.002   6.847 -1.3359 -1.4473  0.8517
 9068TIP3   OH227146   3.496   0.179   6.482  0.3052  0.0787 -0.3260
 9068TIP3    H127147   3.428   0.169   6.414 -0.3955 -1.2074  0.5567
 9068TIP3    H227148   3.448   0.172   6.564  1.4575 -0.3716  0.3060
 9069TIP3   OH227149   5.183   0.242   3.759  0.5710 -0.3978 -0.3220
 9069TIP3    H127150   5.145   0.193   3.833  0.2878 -0.9994 -0.8640
 9069TIP3    H227151   5.108   0.289   3.722  0.6230 -0.4836 -0.5318
 9070TIP3   OH227152   5.994   1.612   5.358 -0.1703 -0.2675  0.2983
 9070TIP3    H127153   5.935   1.538   5.342 -0.7194  0.5874 -1.9722
 9070TIP3    H227154   5.972   1.642   5.446 -1.1882 -1.7123  0.5488
 9071TIP3   OH227155   4.785   6.029   0.939 -0.4445 -0.5202 -0.1013
 9071TIP3    H127156   4.751   6.068   1.019 -0.2529 -1.1019  0.2664
 9071TIP3    H227157   4.880   6.026   0.953 -0.3416  0.0651 -0.6568
 9072TIP3   OH227158   7.541   7.684   3.271  0.6853  0.3387  0.4424
 9072TIP3    H127159   7.539   7.765   3.220 -1.3398  0.0839  0.0540
 9072TIP3    H227160   7.619   7.639   3.241  0.1144  0.6868 -1.7041
 9073TIP3   OH227161   2.097   7.706   5.445 -0.2335 -0.8702  0.3035
 9073TIP3    H127162   2.074   7.700   5.538  0.8790 -1.5685  0.5513
 9073TIP3    H227163   2.159   7.779   5.441 -0.2304 -0.8843  0.1185
 9074TIP3   OH227164   0.014   5.225   5.434 -0.6137  0.4746 -0.1992
 9074TIP3    H127165   0.008   5.216   5.339 -0.7658  1.2288 -0.2634
 9074TIP3    H227166   0.006   5.319   5.450 -1.4318  0.2724  0.6261
 9075TIP3   OH227167   1.077   7.976   4.071 -0.5300  0.0314  0.0386
 9075TIP3    H127168   1.094   8.069   4.064 -0.1332 -0.0169  0.3180
 9075TIP3    H227169   0.982   7.969   4.080 -0.4679  0.4963  1.2139
 9076TIP3   OH227170   4.768   0.076   5.370  0.4126 -0.0087  0.4349
 9076TIP3    H127171   4.790   0.162   5.335  0.9070 -0.6402 -0.8288
 9076TIP3    H227172   4.764   0.089   5.464 -0.3106  1.5803  0.2072
 9077TIP3   OH227173   3.222   5.725   4.288 -0.0652  0.6305 -0.2690
 9077TIP3    H127174   3.297   5.760   4.239 -0.3114  1.6622  0.0781
 9077TIP3    H227175   3.155   5.793   4.279 -0.4408  0.3822  0.6743
 9078TIP3   OH227176   0.577   6.657   4.793 -0.0051  0.6312 -0.3183
 9078TIP3    H127177   0.597   6.590   4.858  1.4987 -0.8430 -2.2249
 9078TIP3    H227178   0.489   6.635   4.762  0.4858 -0.4874 -0.9433
 9079TIP3   OH227179   2.005   7.734   2.726 -0.6930 -0.4177  0.8728
 9079TIP3    H127180   2.085   7.736   2.778 -0.8653 -2.5377  1.2597
 9079TIP3    H227181   2.018   7.802   2.660  0.9954 -0.0473  1.5608
 9080TIP3   OH227182   0.592   6.455   4.975 -0.1953  0.2480 -0.5533
 9080TIP3    H127183   0.645   6.457   5.055 -2.4350  2.7102  0.9545
 9080TIP3    H227184   0.516   6.402   4.998 -0.0612 -0.3850 -1.5752
 9081TIP3   OH227185   1.886   5.423   5.080 -0.8680 -0.3622 -0.8417
 9081TIP3    H127186   1.963   5.377   5.113 -0.8393  1.0823  1.1454
 9081TIP3    H227187   1.918   5.510   5.056 -2.1086  0.6558  1.1462
 9082TIP3   OH227188   0.336   6.948   4.455  0.2446  0.4006  0.3562
 9082TIP3    H127189   0.424   6.970   4.427  0.1787 -0.3179 -0.4288
 9082TIP3    H227190   0.322   7.000   4.535  0.6856  1.8964 -0.5368
 9083TIP3   OH227191   2.879   6.730   4.883 -0.2071 -0.9853 -0.1530
 9083TIP3    H127192   2.943   6.696   4.946  0.4747  0.1242 -0.2422
 9083TIP3    H227193   2.855   6.653   4.831  1.9203 -1.2047 -0.8700
 9084TIP3   OH227194   3.142   6.878   5.266 -0.6671  0.0278  0.1730
 9084TIP3    H127195   3.133   6.973   5.266 -2.0380 -0.0866 -0.6942
 9084TIP3    H227196   3.148   6.855   5.358 -1.8588  0.8337  0.4714
 9085TIP3   OH227197   3.697   5.841   4.852  0.3638  0.3290 -0.3879
 9085TIP3    H127198   3.611   5.802   4.867 -0.2074  0.9466 -1.8998
 9085TIP3    H227199   3.739   5.841   4.937 -2.1260  2.3660  0.9097
 9086TIP3   OH227200   6.726   0.504   4.209  0.3184  0.4354 -0.1152
 9086TIP3    H127201   6.715   0.418   4.168  0.5723 -0.2929  1.3361
 9086TIP3    H227202   6.795   0.546   4.157  0.9144 -0.6363 -0.1971
 9087TIP3   OH227203   3.045   0.416   2.199  0.4581  0.2425 -0.3304
 9087TIP3    H127204   2.985   0.342   2.190 -2.3908  2.4032  0.1319
 9087TIP3    H227205   3.074   0.412   2.290 -3.8975  2.6637  1.2941
 9088TIP3   OH227206   4.177   0.521   5.639  0.4649  0.2552  0.6254
 9088TIP3    H127207   4.093   0.529   5.684 -0.7255  0.6193 -1.5581
 9088TIP3    H227208   4.242   0.546   5.704 -1.2078  1.0818  2.0205
 9089TIP3   OH227209   3.946   0.917   4.183  0.3775  0.3791 -0.5078
 9089TIP3    H127210   3.864   0.965   4.171  1.6377  2.2608 -1.9542
 9089TIP3    H227211   3.952   0.904   4.278 -1.6141  0.1326 -0.3970
 9090TIP3   OH227212   0.569   7.321   5.862 -0.1600 -0.0429  0.2099
 9090TIP3    H127213   0.510   7.345   5.790 -0.2425 -0.3048  0.1888
 9090TIP3    H227214   0.649   7.372   5.845 -0.2114 -0.0352 -0.0186
 9091TIP3   OH227215   1.735   7.900   6.478  0.2123  0.1460  0.0547
 9091TIP3    H127216   1.656   7.849   6.458  0.7263 -0.2989 -0.8920
 9091TIP3    H227217   1.768   7.927   6.393  0.8742  0.6578  0.4690
 9092TIP3   OH227218   8.279   7.911   3.458  0.4459  0.1445 -0.0619
 9092TIP3    H127219   8.228   7.956   3.525  1.1292  0.2573  0.3876
 9092TIP3    H227220   8.217   7.849   3.418  0.3936 -0.8981  1.5926
 9093TIP3   OH227221   6.040   0.220   3.076 -0.5673 -0.1505  0.9188
 9093TIP3    H127222   6.049   0.287   3.007 -1.7796  0.9649  1.8106
 9093TIP3    H227223   5.952   0.235   3.112 -1.1105 -2.6477  0.7189
 9094TIP3   OH227224   2.782   7.478   3.412  0.1214 -0.0613  0.5774
 9094TIP3    H127225   2.767   7.488   3.506 -0.9577  0.3812  0.3656
 9094TIP3    H227226   2.695   7.487   3.372  0.1119 -3.1407 -0.2228
 9095TIP3   OH227227   6.273   1.086   5.053 -0.1260 -0.2156 -0.9438
 9095TIP3    H127228   6.281   1.134   4.970 -0.5394  1.0658 -0.2658
 9095TIP3    H227229   6.203   1.132   5.100  1.4789  0.3516  0.9571
 9096TIP3   OH227230   0.755   7.510   2.905 -0.1626 -0.1626 -0.2976
 9096TIP3    H127231   0.728   7.551   2.987 -0.2696  0.2440 -0.5404
 9096TIP3    H227232   0.722   7.420   2.912  0.0543 -0.2058  0.2183
 9097TIP3   OH227233   0.279   5.608   5.528 -0.2655 -0.0539 -0.0424
 9097TIP3    H127234   0.218   5.545   5.565 -0.3103  0.4591  0.7629
 9097TIP3    H227235   0.230   5.651   5.458 -1.4321  1.5855  1.7248
 9098TIP3   OH227236   2.794   0.718   2.861  0.3450  0.1646 -0.0485
 9098TIP3    H127237   2.742   0.792   2.830  0.1956  0.3196  0.5789
 9098TIP3    H227238   2.885   0.741   2.839  0.2001  0.1072 -0.7106
 9099TIP3   OH227239   0.105   3.625   6.175  0.0276 -0.1183 -0.0276
 9099TIP3    H127240   0.129   3.534   6.155 -2.8343 -0.8072 -0.6086
 9099TIP3    H227241   0.170   3.653   6.239  0.4173 -2.9295  0.9014
 9100TIP3   OH227242   0.993   7.239   5.050  0.8587 -0.2426 -0.3163
 9100TIP3    H127243   1.057   7.252   5.120  0.2012  0.3591  0.1811
 9100TIP3    H227244   0.987   7.144   5.039  0.4901 -0.3612  0.8829
 9101TIP3   OH227245   2.342   0.437   4.257 -0.2927  0.4172  0.0107
 9101TIP3    H127246   2.350   0.532   4.249  0.7826  0.3018 -0.3969
 9101TIP3    H227247   2.403   0.402   4.192  1.8592 -0.5352  2.4496
 9102TIP3   OH227248   1.043   7.507   6.022 -0.3574 -0.0849  0.1390
 9102TIP3    H127249   1.128   7.492   5.980 -1.0157 -0.2603 -1.1480
 9102TIP3    H227250   1.050   7.595   6.059  0.0720  0.2581 -0.7327
 9103TIP3   OH227251   2.266   1.083   2.898  0.0930 -0.1138 -0.2402
 9103TIP3    H127252   2.286   0.996   2.931 -1.6538 -0.1843  0.7401
 9103TIP3    H227253   2.182   1.073   2.853  0.1723  0.9427 -0.6451
 9104TIP3   OH227254   3.197   1.684   3.322  0.3979  0.2089 -0.1924
 9104TIP3    H127255   3.116   1.729   3.299  0.9977  0.7924 -1.2070
 9104TIP3    H227256   3.234   1.735   3.393 -1.0024 -1.0709  1.4902
 9105TIP3   OH227257   3.486   0.275   5.211 -0.0663 -0.5131  0.2384
 9105TIP3    H127258   3.533   0.194   5.229 -1.1802 -1.0147  0.9992
 9105TIP3    H227259   3.493   0.325   5.293  1.0383  0.3874 -0.3880
 9106TIP3   OH227260   0.742   6.151   3.025  0.0279 -0.0760  0.0803
 9106TIP3    H127261   0.759   6.244   3.044  0.6751 -0.6241  2.3961
 9106TIP3    H227262   0.796   6.133   2.948  1.2592  1.0669  0.6349
 9107TIP3   OH227263   0.493   7.672   4.558  0.1510 -0.1812  0.4190
 9107TIP3    H127264   0.490   7.579   4.582  0.2605 -0.2744  0.0779
 9107TIP3    H227265   0.543   7.674   4.476  0.4304  0.2114  0.5938
 9108TIP3   OH227266   2.408   8.003   2.209  0.1774  0.0413  0.2910
 9108TIP3    H127267   2.350   8.078   2.199 -0.4589 -0.4606  0.1582
 9108TIP3    H227268   2.382   7.943   2.138  0.4237 -0.4630  0.6258
 9109TIP3   OH227269   2.428   6.967   3.719  0.1648 -0.2163 -0.1549
 9109TIP3    H127270   2.436   6.991   3.627 -0.4390  0.5192 -0.0221
 9109TIP3    H227271   2.417   6.871   3.718  4.4123 -0.7625 -0.5795
 9110TIP3   OH227272   0.534   7.072   3.720  0.4420 -0.0285  0.0158
 9110TIP3    H127273   0.613   7.057   3.773  0.4155 -1.0405 -0.2071
 9110TIP3    H227274   0.557   7.039   3.633 -0.5878 -1.3568  0.2292
 9111TIP3   OH227275   2.716   7.889   4.993 -0.7371  0.1882  0.3259
 9111TIP3    H127276   2.742   7.918   5.080  0.4283  0.8052 -0.2114
 9111TIP3    H227277   2.625   7.917   4.984 -0.5775  0.9268  0.9964
 9112TIP3   OH227278   3.507   7.210   2.453 -0.2578 -0.0282  0.1054
 9112TIP3    H127279   3.555   7.174   2.528 -1.7283 -1.3499  0.4475
 9112TIP3    H227280   3.417   7.218   2.485 -0.5447  1.0998 -0.9673
 9113TIP3   OH227281   0.091   7.870   4.419  0.2516 -0.3525 -0.1445
 9113TIP3    H127282   0.021   7.808   4.438  2.2828 -2.3556  1.0872
 9113TIP3    H227283   0.115   7.906   4.505  0.0812  1.0581 -0.6719
 9114TIP3   OH227284   3.247   7.739   4.096 -0.2822 -0.2251 -0.4043
 9114TIP3    H127285   3.252   7.651   4.134 -0.8182 -0.2246 -0.3276
 9114TIP3    H227286   3.159   7.743   4.058 -0.4174  0.4390 -0.0267
 9115TIP3   OH227287   1.947   5.637   5.332  0.2436  0.2539  0.1368
 9115TIP3    H127288   1.871   5.683   5.295 -0.9743 -2.2317 -0.5965
 9115TIP3    H227289   1.957   5.673   5.420  0.2137  2.8834 -0.9157
 9116TIP3   OH227290   4.410   0.919   4.320  0.1757  0.6491 -0.3901
 9116TIP3    H127291   4.362   0.987   4.367 -1.0279 -0.5734  0.1522
 9116TIP3    H227292   4.343   0.870   4.272  0.9714 -0.4659 -0.3862
 9117TIP3   OH227293   1.085   7.365   4.132 -0.0418 -0.5853 -0.0886
 9117TIP3    H127294   1.056   7.457   4.126  1.9603  0.2315  2.1316
 9117TIP3    H227295   1.113   7.343   4.043 -1.9546  0.4365 -0.9881
 9118TIP3   OH227296   2.108   7.413   2.614 -0.7314 -0.1257  0.3171
 9118TIP3    H127297   2.107   7.435   2.707 -1.2050  0.9562  0.0566
 9118TIP3    H227298   2.145   7.489   2.571  1.2428 -1.3575 -0.2065
 9119TIP3   OH227299   0.954   6.025   2.871 -0.0587 -0.3590 -0.0934
 9119TIP3    H127300   0.962   6.026   2.776 -0.5634  2.0855 -0.1588
 9119TIP3    H227301   1.038   6.058   2.903 -0.0091 -0.8620  0.2964
 9120TIP3   OH227302   4.885   0.188   1.489 -0.1858  0.2042  0.3669
 9120TIP3    H127303   4.819   0.231   1.434 -0.1099 -1.6265 -1.2391
 9120TIP3    H227304   4.925   0.124   1.431  2.3757  0.6430  1.6059
 9121TIP3   OH227305   0.848   5.400   5.114  0.3224  0.1044 -0.4544
 9121TIP3    H127306   0.841   5.405   5.209 -0.1417  0.6133 -0.5197
 9121TIP3    H227307   0.916   5.463   5.092  1.5386 -1.1267 -0.3180
 9122TIP3   OH227308   2.023   6.444   6.270  0.3200  0.1932  0.0129
 9122TIP3    H127309   2.075   6.503   6.215 -0.5391  1.0701  0.1154
 9122TIP3    H227310   2.057   6.357   6.251 -0.3721  0.4119 -2.3819
 9123TIP3   OH227311   1.699   6.152   3.760  0.1895  0.2043  0.3419
 9123TIP3    H127312   1.641   6.217   3.720  1.7914  0.2669 -1.9477
 9123TIP3    H227313   1.703   6.081   3.696 -0.7153 -1.7179  2.3670
 9124TIP3   OH227314   1.792   5.619   4.751 -0.2525  0.0984 -0.1745
 9124TIP3    H127315   1.857   5.690   4.744  1.2088 -1.3060 -1.0541
 9124TIP3    H227316   1.843   5.539   4.745 -1.6970 -1.0785  2.4035
 9125TIP3   OH227317   1.002   7.732   1.304  0.1418  0.2646 -0.2123
 9125TIP3    H127318   0.986   7.653   1.253 -0.6341  0.5466 -0.4150
 9125TIP3    H227319   1.097   7.733   1.318  0.1623 -0.6728 -0.2426
 9126TIP3   OH227320   4.891   1.451   2.614 -0.1236  0.5869  0.4392
 9126TIP3    H127321   4.847   1.366   2.622 -0.0227  0.6495  1.8483
 9126TIP3    H227322   4.887   1.472   2.521  0.6020 -1.3689 -0.0479
 9127TIP3   OH227323   6.304   2.177   0.517  0.0381 -0.0491  0.5176
 9127TIP3    H127324   6.377   2.116   0.531 -0.7991 -0.9939  0.8147
 9127TIP3    H227325   6.333   2.232   0.444  0.3493 -1.5261 -0.4957
 9128TIP3   OH227326   2.058   7.445   3.136  0.5282 -0.3833 -1.1327
 9128TIP3    H127327   2.120   7.483   3.198 -0.5307 -0.5288  0.0368
 9128TIP3    H227328   1.979   7.429   3.188  0.4189 -2.7193 -1.9512
 9129TIP3   OH227329   2.917   6.216   3.587  0.1890 -0.2682  0.1284
 9129TIP3    H127330   3.002   6.210   3.630 -0.0050  0.4863  0.6200
 9129TIP3    H227331   2.870   6.284   3.635  0.5331  1.7376 -2.3001
 9130TIP3   OH227332   1.260   7.879   1.623  0.1560 -0.5856 -0.4962
 9130TIP3    H127333   1.351   7.908   1.632  0.3780 -1.0100 -1.2416
 9130TIP3    H227334   1.267   7.794   1.579 -0.6397 -0.3157 -1.1586
 9131TIP3   OH227335   0.943   6.870   4.353  0.0695 -0.2430  0.3473
 9131TIP3    H127336   0.985   6.952   4.382 -2.3148  1.7636 -1.7478
 9131TIP3    H227337   0.966   6.807   4.422  0.3197  2.6531  3.0442
 9132TIP3   OH227338   4.493   1.197   2.811  0.3006 -0.3164  0.2412
 9132TIP3    H127339   4.442   1.252   2.871  1.9639  1.1001  0.4244
 9132TIP3    H227340   4.551   1.147   2.868 -0.5737 -1.5851  0.0143
 9133TIP3   OH227341   3.700   0.933   5.585 -0.3150  0.0731 -0.0495
 9133TIP3    H127342   3.703   1.023   5.553  0.8879  0.3218  0.7374
 9133TIP3    H227343   3.791   0.903   5.581 -0.2494 -0.1302  2.4420
 9134TIP3   OH227344   5.300   0.511   3.144 -0.1324 -0.1439  0.0018
 9134TIP3    H127345   5.391   0.483   3.140 -0.2204 -0.5053  0.4923
 9134TIP3    H227346   5.253   0.447   3.090 -0.2510 -0.6062  0.6488
 9135TIP3   OH227347   2.498   7.198   4.428  0.4026  0.0829  0.0557
 9135TIP3    H127348   2.493   7.288   4.462 -1.7553  1.9096 -4.6281
 9135TIP3    H227349   2.432   7.150   4.478 -0.5308  1.8532  0.5537
 9136TIP3   OH227350   2.896   7.801   5.455  0.3384 -0.2381  0.4339
 9136TIP3    H127351   2.950   7.776   5.529  0.6770  0.1740  0.3307
 9136TIP3    H227352   2.862   7.888   5.478 -1.0921 -0.9151  0.9433
 9137TIP3   OH227353   2.992   0.202   2.729  0.0021  0.1145  0.2287
 9137TIP3    H127354   3.085   0.219   2.717  0.4324 -2.1616  0.0892
 9137TIP3    H227355   2.959   0.185   2.641 -0.2014 -0.6813  0.4533
 9138TIP3   OH227356   1.031   6.754   5.341 -0.1275 -0.0392 -0.4850
 9138TIP3    H127357   1.020   6.832   5.396  2.1484 -1.4486  2.0993
 9138TIP3    H227358   1.033   6.788   5.252 -2.2528  2.5233  0.3464
 9139TIP3   OH227359   1.554   6.991   4.269 -0.0179 -0.0047 -0.0534
 9139TIP3    H127360   1.482   7.002   4.331  0.5974  1.6551  0.3984
 9139TIP3    H227361   1.620   7.054   4.298  2.2930 -2.5906  0.4636
 9140TIP3   OH227362   0.999   6.631   4.908 -0.0413 -0.1905 -0.2578
 9140TIP3    H127363   1.092   6.628   4.885 -0.2276  0.6620 -1.1473
 9140TIP3    H227364   0.973   6.539   4.917  0.4322 -0.4881 -1.8689
 9141TIP3   OH227365   2.260   6.576   5.638 -0.4324  0.0847 -0.1234
 9141TIP3    H127366   2.280   6.644   5.701  2.5194 -2.8819  2.3403
 9141TIP3    H227367   2.321   6.590   5.566 -0.6985  0.7626 -0.2193
 9142TIP3   OH227368   0.407   7.180   4.700 -0.2534 -1.3177 -0.1829
 9142TIP3    H127369   0.444   7.092   4.701  0.8942 -0.8442  1.0090
 9142TIP3    H227370   0.379   7.194   4.791  1.0455  0.1516 -0.0012
 9143TIP3   OH227371   3.031   7.243   3.142 -0.6695  0.0164  0.0504
 9143TIP3    H127372   3.065   7.176   3.200 -0.7667 -1.1063 -1.1577
 9143TIP3    H227373   3.038   7.324   3.192  0.5288 -0.7133  1.0977
 9144TIP3   OH227374   2.791   5.365   4.516 -0.2466  0.0951 -0.3032
 9144TIP3    H127375   2.742   5.319   4.447 -1.2127  0.3004  0.2468
 9144TIP3    H227376   2.869   5.311   4.529 -2.3187 -2.4863  1.7205
 9145TIP3   OH227377   3.326   6.965   4.858 -0.0394  0.0662 -0.1834
 9145TIP3    H127378   3.409   6.917   4.857 -0.6991 -1.1544  1.2459
 9145TIP3    H227379   3.331   7.018   4.938 -0.7019 -0.1447 -0.0049
 9146TIP3   OH227380   2.905   2.525   2.486  0.6194 -0.3232 -0.0103
 9146TIP3    H127381   2.884   2.589   2.555 -0.0534  0.8818 -1.3166
 9146TIP3    H227382   2.975   2.566   2.435  0.1289 -0.5971 -0.9066
 9147TIP3   OH227383   4.533   0.286   4.230  0.2366 -0.0331 -0.1137
 9147TIP3    H127384   4.581   0.222   4.283 -0.1695  0.3094  0.6804
 9147TIP3    H227385   4.594   0.357   4.215  0.4371 -0.2503 -0.3315
 9148TIP3   OH227386   2.599   7.350   3.057 -0.4327  0.5506 -0.2007
 9148TIP3    H127387   2.630   7.440   3.052  0.1628  0.3656  0.2296
 9148TIP3    H227388   2.554   7.345   3.142  1.3531 -0.1391  0.7139
 9149TIP3   OH227389   2.149   7.718   4.244 -0.3303 -0.1182  0.6281
 9149TIP3    H127390   2.076   7.741   4.186 -0.5821  1.0858  1.4087
 9149TIP3    H227391   2.108   7.681   4.321 -0.2917  2.9479  2.1795
 9150TIP3   OH227392   4.328   6.367   4.331  0.1137  0.3016  0.1020
 9150TIP3    H127393   4.280   6.335   4.408 -1.2562 -0.2259 -0.9561
 9150TIP3    H227394   4.268   6.353   4.258  2.0104 -0.6820 -1.3039
 9151TIP3   OH227395   5.108  -0.006   5.476  0.5247  0.6186  0.0812
 9151TIP3    H127396   5.182  -0.028   5.532  1.2336  0.7487 -0.7801
 9151TIP3    H227397   5.057   0.058   5.527  0.5920 -0.0406  0.9807
 9152TIP3   OH227398   4.152   7.515   3.207 -0.0608 -0.4505  0.1909
 9152TIP3    H127399   4.186   7.506   3.118  0.4604  1.0324  0.2189
 9152TIP3    H227400   4.166   7.607   3.228  0.7047 -1.0033  2.1695
 9153TIP3   OH227401   8.451   7.648   4.831  0.5109  0.5090 -0.0855
 9153TIP3    H127402   8.390   7.640   4.758  1.5198 -0.0565 -0.8801
 9153TIP3    H227403   8.447   7.740   4.856 -0.9737  0.3955  0.1522
 9154TIP3   OH227404   3.392   6.353   4.777 -0.6512 -0.2528 -0.0084
 9154TIP3    H127405   3.324   6.402   4.822  0.2092 -0.6008  1.6965
 9154TIP3    H227406   3.357   6.263   4.772 -0.2123 -0.4933  1.1159
 9155TIP3   OH227407   4.738   0.346   2.879  0.0817  0.0756  0.5479
 9155TIP3    H127408   4.646   0.369   2.862 -0.0318 -0.9382 -0.3151
 9155TIP3    H227409   4.738   0.312   2.969 -0.8092 -1.9167 -0.1603
 9156TIP3   OH227410   1.147   4.710   3.643 -0.3009  0.1238 -0.1863
 9156TIP3    H127411   1.127   4.655   3.568 -0.3352  0.9544 -0.7878
 9156TIP3    H227412   1.074   4.773   3.648 -2.0871 -2.0296  2.5820
 9157TIP3   OH227413   3.777   7.205   2.227 -0.3649  0.0488  0.0625
 9157TIP3    H127414   3.682   7.196   2.219 -0.4866  0.9392  0.3858
 9157TIP3    H227415   3.802   7.259   2.151 -0.0163 -0.8066 -0.4319
 9158TIP3   OH227416   4.413   7.251   2.839 -0.2238  0.1375 -0.0745
 9158TIP3    H127417   4.497   7.256   2.793  0.1072 -1.3250  0.3506
 9158TIP3    H227418   4.370   7.173   2.802 -0.0558 -0.9241  1.9063
 9159TIP3   OH227419   2.858   6.564   3.187 -0.1389  0.4679 -0.5287
 9159TIP3    H127420   2.906   6.504   3.243 -0.1969  0.9306  0.0201
 9159TIP3    H227421   2.924   6.594   3.123 -0.4185 -1.1264 -1.5822
 9160TIP3   OH227422   1.443   5.207   4.729 -0.2751 -0.7985 -0.0132
 9160TIP3    H127423   1.497   5.141   4.685 -0.9037 -0.2233 -1.6653
 9160TIP3    H227424   1.494   5.288   4.721 -0.7198 -0.5491 -0.2999
 9161TIP3   OH227425   4.095   7.950   3.458 -0.2817 -0.4093  0.1769
 9161TIP3    H127426   4.187   7.977   3.467 -0.4644 -0.1382  1.3586
 9161TIP3    H227427   4.089   7.869   3.509 -0.8348 -0.0973  0.6104
 9162TIP3   OH227428   5.509   1.248   3.854 -0.1742 -0.0969 -0.1517
 9162TIP3    H127429   5.572   1.248   3.782 -0.4765 -0.1502 -0.4142
 9162TIP3    H227430   5.516   1.160   3.891  0.8291  0.2975  0.6243
 9163TIP3   OH227431   0.432   7.515   4.863  0.4548 -0.4404 -0.0826
 9163TIP3    H127432   0.465   7.467   4.787  1.4117 -0.1368  0.1465
 9163TIP3    H227433   0.505   7.518   4.924  0.7296  2.2130 -0.5045
 9164TIP3   OH227434   1.071   6.377   5.213 -0.2809 -0.4638  0.1966
 9164TIP3    H127435   1.050   6.450   5.272  1.0997 -0.0977  0.2612
 9164TIP3    H227436   1.133   6.324   5.263  0.0939 -0.7110 -0.5294
 9165TIP3   OH227437   0.916   6.542   5.677 -0.8239  0.2393 -0.1459
 9165TIP3    H127438   0.989   6.517   5.733  0.0854  2.8641 -0.1230
 9165TIP3    H227439   0.856   6.590   5.735 -0.0614  2.6332 -1.2802
 9166TIP3   OH227440   3.439   6.606   4.195 -0.4711  0.2294  0.2618
 9166TIP3    H127441   3.438   6.668   4.267 -0.3873  0.4394  0.0823
 9166TIP3    H227442   3.349   6.574   4.189 -0.6315  0.7366  0.0043
 9167TIP3   OH227443   0.060   5.156   4.514  0.1729 -0.2488 -0.3560
 9167TIP3    H127444   0.039   5.063   4.526 -0.4995  0.1397  1.7619
 9167TIP3    H227445   0.141   5.157   4.464  0.4018 -1.9964 -0.0312
 9168TIP3   OH227446   7.482   3.561   4.714 -0.4851 -0.2029 -0.1636
 9168TIP3    H127447   7.573   3.547   4.689 -0.1948  0.1546  0.6641
 9168TIP3    H227448   7.447   3.618   4.646 -0.5305 -1.5755 -1.3160
 9169TIP3   OH227449   4.369   7.791   6.046 -0.8381 -0.2356 -0.0065
 9169TIP3    H127450   4.358   7.816   6.138 -0.4732 -0.9757  0.2464
 9169TIP3    H227451   4.337   7.866   5.997 -0.4577  0.4248  0.7317
 9170TIP3   OH227452   5.046   0.059   3.929 -0.3763  0.1395  0.5235
 9170TIP3    H127453   5.003   0.111   3.998 -1.3375 -2.1323  1.6773
 9170TIP3    H227454   4.974   0.020   3.880  0.3112 -1.4423  0.7319
 9171TIP3   OH227455   3.277   6.719   3.911 -0.3947  0.1714  0.0776
 9171TIP3    H127456   3.363   6.721   3.953 -0.6415  0.4547  0.5783
 9171TIP3    H227457   3.278   6.639   3.858  0.1621  0.1556  0.1061
 9172TIP3   OH227458   6.093   6.951   0.608 -0.7304  0.3964 -0.0226
 9172TIP3    H127459   6.145   6.963   0.529 -1.0601  2.0292 -0.0060
 9172TIP3    H227460   6.154   6.971   0.680 -1.2851  2.0716  0.0060
 9173TIP3   OH227461   0.667   7.301   4.946 -0.4248  0.4727 -0.3149
 9173TIP3    H127462   0.640   7.220   4.903  0.1894 -0.3388  0.7889
 9173TIP3    H227463   0.733   7.338   4.888 -0.6825  0.1559 -0.8114
 9174TIP3   OH227464   4.547   0.108   4.921  0.1611  0.3439 -0.5829
 9174TIP3    H127465   4.637   0.134   4.898  0.2204  0.9325  0.2778
 9174TIP3    H227466   4.555   0.070   5.008 -0.5229  1.0274 -0.2150
 9175TIP3   OH227467   1.974   6.834   5.335 -0.4649 -0.1429  0.1070
 9175TIP3    H127468   1.996   6.751   5.377 -0.0410 -0.0441  0.0903
 9175TIP3    H227469   2.017   6.829   5.250 -1.3154 -0.3390 -0.3142
 9176TIP3   OH227470   7.569   2.256   0.036 -0.0482  0.9212 -0.7441
 9176TIP3    H127471   7.580   2.347   0.064 -1.9228  1.2763 -1.0770
 9176TIP3    H227472   7.489   2.257  -0.017  0.4105 -0.7585 -1.4997
 9177TIP3   OH227473   1.007   6.957   3.862 -0.5803  0.1253  0.2273
 9177TIP3    H127474   1.077   7.019   3.882  0.8806 -1.0583 -1.0903
 9177TIP3    H227475   1.024   6.884   3.922 -0.8715 -0.0266  0.1200
 9178TIP3   OH227476   0.942   6.103   5.201 -0.0811  0.1009 -0.0122
 9178TIP3    H127477   1.009   6.073   5.140 -0.1347  0.0700 -0.0552
 9178TIP3    H227478   0.943   6.199   5.192 -0.9823  0.0220 -0.9934
 9179TIP3   OH227479   1.999   7.103   4.078  0.6164  0.1031  0.5008
 9179TIP3    H127480   1.991   7.120   4.172  0.1233 -1.0328  0.6728
 9179TIP3    H227481   2.090   7.074   4.067  0.8107  0.6952  0.5541
 9180TIP3   OH227482   4.442   1.835   1.471 -0.1891 -0.0507 -0.1604
 9180TIP3    H127483   4.485   1.878   1.545 -1.1590 -1.3969  1.1897
 9180TIP3    H227484   4.418   1.907   1.412  0.7367  1.0053  0.7362
 9181TIP3   OH227485   2.161   5.150   5.456  0.1150  0.4918 -0.3394
 9181TIP3    H127486   2.176   5.065   5.498  0.1055  1.7546  2.3762
 9181TIP3    H227487   2.067   5.151   5.438 -0.1987  0.5441  1.1663
 9182TIP3   OH227488   1.974   5.349   3.767  0.2333 -0.0230 -0.5775
 9182TIP3    H127489   2.052   5.307   3.731 -0.3896 -1.1885 -0.5911
 9182TIP3    H227490   1.933   5.392   3.691  0.1719 -0.4966 -0.8125
 9183TIP3   OH227491   4.377   0.381   1.097  0.5557  0.0129  0.0323
 9183TIP3    H127492   4.311   0.380   1.027 -0.6620 -2.0009  1.1765
 9183TIP3    H227493   4.333   0.422   1.171  0.3099 -1.9901  1.0312
 9184TIP3   OH227494   0.260   0.562   2.787  0.0230 -0.4817 -0.0701
 9184TIP3    H127495   0.210   0.642   2.776 -1.8103 -1.5424  0.2417
 9184TIP3    H227496   0.338   0.574   2.733 -0.2312  1.4884 -0.0199
 9185TIP3   OH227497   2.637   5.503   4.727 -0.0636  0.8741 -0.1155
 9185TIP3    H127498   2.662   5.462   4.809 -1.6294 -1.7642 -0.8856
 9185TIP3    H227499   2.695   5.463   4.662 -0.3186  1.3080 -0.6107
 9186TIP3   OH227500   6.357   0.727   2.999  0.3251 -0.3955  0.0905
 9186TIP3    H127501   6.349   0.705   3.092  1.3895 -0.7216  0.1160
 9186TIP3    H227502   6.270   0.758   2.974  0.1313  0.0412  1.2814
 9187TIP3   OH227503   7.341   0.838   2.303  0.1621  0.7752 -0.2737
 9187TIP3    H127504   7.370   0.762   2.253 -0.5864  0.6561 -0.5308
 9187TIP3    H227505   7.245   0.835   2.299  0.1317  2.1568 -0.9456
 9188TIP3   OH227506   4.756   1.182   3.226  1.1364 -0.0732 -0.6845
 9188TIP3    H127507   4.803   1.258   3.192  1.0585 -0.5880 -1.9663
 9188TIP3    H227508   4.807   1.155   3.303  1.6272  0.7660 -0.7051
 9189TIP3   OH227509   6.667   0.163   3.402  0.4704 -0.7279 -0.6035
 9189TIP3    H127510   6.757   0.147   3.431 -0.3582 -1.2526  1.7736
 9189TIP3    H227511   6.618   0.182   3.482 -0.9848  2.3851 -2.1463
 9190TIP3   OH227512   5.909   7.878   3.220 -0.0638 -0.2688 -0.1242
 9190TIP3    H127513   5.950   7.812   3.276 -1.2505 -0.6574  0.3155
 9190TIP3    H227514   5.874   7.828   3.146 -0.5431 -0.0682 -0.0317
 9191TIP3   OH227515   3.815   7.204   3.839  0.9299 -0.5842  0.1583
 9191TIP3    H127516   3.878   7.169   3.776 -0.1620  2.6154 -2.9066
 9191TIP3    H227517   3.730   7.173   3.809  0.4364  0.6485  0.2219
 9192TIP3   OH227518   4.230   7.863   2.953  0.3441  0.3333  0.2386
 9192TIP3    H127519   4.220   7.847   2.860 -1.4534  0.0194  0.4529
 9192TIP3    H227520   4.226   7.958   2.962  3.4257  0.5428 -0.2751
 9193TIP3   OH227521   6.157   0.407   1.917  0.3316  0.2853  0.3409
 9193TIP3    H127522   6.094   0.461   1.869  0.2632  0.0010  0.1107
 9193TIP3    H227523   6.127   0.411   2.008  0.1370  0.3706  0.2733
 9194TIP3   OH227524   3.914   5.517   3.240  0.1401  0.1889  0.5307
 9194TIP3    H127525   3.874   5.568   3.310 -2.4981  1.0302 -1.5272
 9194TIP3    H227526   3.843   5.463   3.206  1.2681  0.1061 -1.7890
 9195TIP3   OH227527   2.238   7.328   5.029 -0.0736 -0.1390  0.2671
 9195TIP3    H127528   2.162   7.376   5.061  0.7092  0.8515  0.6623
 9195TIP3    H227529   2.260   7.268   5.100  0.1440  0.3112  0.5854
 9196TIP3   OH227530   4.595   6.901   3.796 -0.3097  0.5810  0.2045
 9196TIP3    H127531   4.668   6.901   3.734 -0.7165  2.7429 -0.3163
 9196TIP3    H227532   4.523   6.858   3.749 -0.6633  2.3502 -0.9161
 9197TIP3   OH227533   3.404   7.278   4.140 -0.0575  0.3692 -0.1086
 9197TIP3    H127534   3.391   7.336   4.065  1.0644 -0.1789 -0.7402
 9197TIP3    H227535   3.334   7.301   4.201  0.6805  2.7707 -0.1166
 9198TIP3   OH227536   7.182   0.384   1.487  0.3838 -0.3084 -0.2255
 9198TIP3    H127537   7.097   0.426   1.478  0.1356 -0.9327 -0.8385
 9198TIP3    H227538   7.213   0.373   1.397  0.4582 -1.4020 -0.0717
 9199TIP3   OH227539   5.396   6.875   4.993  0.4595  0.2791 -0.2657
 9199TIP3    H127540   5.328   6.808   4.999 -0.3206  1.2360  2.7445
 9199TIP3    H227541   5.478   6.828   5.010  0.1681 -0.3118 -0.4956
 9200TIP3   OH227542   6.137   7.422   3.651  0.5733  0.1457  0.1902
 9200TIP3    H127543   6.132   7.380   3.736  2.7109 -0.2701  0.1272
 9200TIP3    H227544   6.055   7.397   3.607 -0.4234  0.1699  2.0049
 9201TIP3   OH227545   4.383   6.093   3.447 -0.5351 -0.3704 -0.1608
 9201TIP3    H127546   4.400   6.139   3.529 -2.2398  1.1535 -0.6265
 9201TIP3    H227547   4.469   6.081   3.407  0.3728 -1.6057  2.0798
 9202TIP3   OH227548   7.228   1.432   3.929 -0.1279  0.9149 -0.0780
 9202TIP3    H127549   7.281   1.510   3.915  1.9214 -0.7136 -1.6297
 9202TIP3    H227550   7.144   1.452   3.888  0.2528  2.4285 -0.1368
 9203TIP3   OH227551   4.926   1.335   3.726  0.1853  0.4741 -0.3120
 9203TIP3    H127552   4.941   1.411   3.783  0.1957  0.0857  0.2114
 9203TIP3    H227553   4.877   1.274   3.781 -0.0988  0.2332 -0.8369
 9204TIP3   OH227554   7.278   0.401   4.118  0.0136 -0.1905 -0.7453
 9204TIP3    H127555   7.240   0.329   4.170  0.8312 -0.3126 -0.3011
 9204TIP3    H227556   7.220   0.475   4.133 -1.2077 -0.9367 -1.7265
 9205TIP3   OH227557   2.591   6.227   4.730  0.0534 -0.1422  0.0573
 9205TIP3    H127558   2.574   6.138   4.700  2.1099 -0.0008 -1.6561
 9205TIP3    H227559   2.683   6.227   4.756  0.3818  1.7009 -0.9491
 9206TIP3   OH227560   7.421   1.159   1.386 -0.2696  0.4013  0.5086
 9206TIP3    H127561   7.410   1.065   1.368  1.1277  0.0938  1.2118
 9206TIP3    H227562   7.378   1.173   1.470 -0.6216  0.4318  0.3256
 9207TIP3   OH227563   4.207   7.773   3.244  0.9418  0.2239  0.0648
 9207TIP3    H127564   4.226   7.806   3.157  0.0992  0.0147 -0.2092
 9207TIP3    H227565   4.143   7.835   3.280 -0.8755 -1.2128 -0.5669
 9208TIP3   OH227566   6.564   1.027   4.120 -0.4400  0.2738  0.3819
 9208TIP3    H127567   6.653   1.028   4.084 -0.9366 -1.5790 -0.9457
 9208TIP3    H227568   6.574   1.064   4.208  1.5565  0.5631  0.0601
 9209TIP3   OH227569   4.280   7.058   0.270  0.1098 -0.3481  0.0896
 9209TIP3    H127570   4.214   7.002   0.310 -0.6431  0.3799 -0.1146
 9209TIP3    H227571   4.247   7.075   0.182  0.6454 -0.1010 -0.0694
 9210TIP3   OH227572   6.214   0.045   2.829  0.0078 -0.2385 -0.2853
 9210TIP3    H127573   6.258   0.075   2.908  1.5452  0.3683 -1.3496
 9210TIP3    H227574   6.256  -0.039   2.809 -1.1547 -0.9365  0.1636
 9211TIP3   OH227575   7.407   0.144   2.627  0.2289  0.7422 -0.1182
 9211TIP3    H127576   7.489   0.182   2.595  1.4506  0.4958  2.5521
 9211TIP3    H227577   7.354   0.219   2.651  0.7079  0.8971  0.5050
 9212TIP3   OH227578   7.376   7.762   4.493 -0.1938 -0.1178 -0.0990
 9212TIP3    H127579   7.407   7.672   4.502  0.8677  0.1761 -0.7708
 9212TIP3    H227580   7.383   7.798   4.581  0.0156 -0.4854  0.0371
 9213TIP3   OH227581   4.791   0.535   2.603 -0.2469  0.1862  0.2509
 9213TIP3    H127582   4.706   0.579   2.593 -0.1576  0.5503  1.0167
 9213TIP3    H227583   4.775   0.469   2.670 -0.7524 -1.9606 -1.9137
 9214TIP3   OH227584   4.145   6.535   3.337  0.1076 -0.4646  0.0238
 9214TIP3    H127585   4.114   6.605   3.395 -0.8941 -0.9402  0.0641
 9214TIP3    H227586   4.204   6.579   3.276 -1.4316  0.6198 -0.6977
 9215TIP3   OH227587   4.304   7.872   4.622  0.2823  0.0628 -0.3307
 9215TIP3    H127588   4.305   7.776   4.616 -1.2374  0.0102 -0.0292
 9215TIP3    H227589   4.212   7.894   4.634  0.5259  1.6259 -1.2244
 9216TIP3   OH227590   6.126   2.068   1.853  0.1679 -0.1394 -0.1462
 9216TIP3    H127591   6.188   2.007   1.893  0.0044 -0.3455 -0.2061
 9216TIP3    H227592   6.127   2.045   1.760 -2.1646 -2.0868  0.2542
 9217TIP3   OH227593   4.769   7.139   6.503  0.4719 -0.3011 -0.5460
 9217TIP3    H127594   4.748   7.230   6.483 -0.2567 -0.0408  1.3722
 9217TIP3    H227595   4.773   7.096   6.417  0.0229  1.3547 -1.4093
 9218TIP3   OH227596   1.396   0.081   3.164  0.2917 -0.0946 -0.1629
 9218TIP3    H127597   1.352   0.118   3.088 -0.8534  1.7684  1.3700
 9218TIP3    H227598   1.489   0.084   3.140  0.0130  1.1744 -1.2030
 9219TIP3   OH227599   4.381   2.228   2.004 -0.2155 -0.4554  0.5022
 9219TIP3    H127600   4.416   2.313   1.974 -0.7922 -0.0624  0.9473
 9219TIP3    H227601   4.322   2.250   2.075  0.0147 -1.2822  0.9563
 9220TIP3   OH227602   4.150   0.796   3.644  0.2474 -0.3830 -0.0476
 9220TIP3    H127603   4.083   0.770   3.708 -0.0994  0.4629 -0.0571
 9220TIP3    H227604   4.111   0.777   3.559  0.5132 -1.0472 -0.0257
 9221TIP3   OH227605   4.913   7.019   3.097 -0.0122 -0.1935 -0.3560
 9221TIP3    H127606   4.929   7.052   3.009 -0.7017 -2.7437 -1.4912
 9221TIP3    H227607   5.001   7.008   3.134  0.3193 -0.0707 -1.0943
 9222TIP3   OH227608   5.373   0.232   5.234  0.0815 -0.1378 -0.0977
 9222TIP3    H127609   5.370   0.238   5.138  2.5821  2.2529 -0.0611
 9222TIP3    H227610   5.355   0.320   5.265 -0.9738 -0.9463  1.6680
 9223TIP3   OH227611   6.517   0.021   2.189 -0.2220 -0.0821  0.4323
 9223TIP3    H127612   6.494   0.110   2.216 -1.5729 -0.1969 -0.2911
 9223TIP3    H227613   6.499  -0.033   2.266 -0.7118  0.0773  0.4289
 9224TIP3   OH227614   7.089   0.357   5.579 -0.2535  0.0945 -0.1145
 9224TIP3    H127615   7.176   0.371   5.615 -1.1646  1.1052  1.7533
 9224TIP3    H227616   7.030   0.398   5.642 -2.0671 -0.3704 -1.4724
 9225TIP3   OH227617   2.405   7.942   5.688  0.4340 -0.2657 -0.0756
 9225TIP3    H127618   2.498   7.936   5.712  0.6814  0.4788 -0.7960
 9225TIP3    H227619   2.375   7.851   5.687  1.2491 -0.5461 -0.1792
 9226TIP3   OH227620   7.401   1.627   3.143 -0.2023  0.2272  0.9881
 9226TIP3    H127621   7.312   1.654   3.165 -0.1586  0.3961  0.9522
 9226TIP3    H227622   7.392   1.578   3.061 -0.2366  0.3919  0.8950
 9227TIP3   OH227623   6.004   0.718   3.231  0.6674 -0.4342  0.4385
 9227TIP3    H127624   5.989   0.762   3.314 -0.5084 -0.6731  0.3682
 9227TIP3    H227625   6.002   0.788   3.166  0.1268 -0.4255  0.4635
 9228TIP3   OH227626   5.104   1.769   2.395  0.4211 -0.2378 -0.0196
 9228TIP3    H127627   5.084   1.819   2.474  1.2303  0.5078 -0.2869
 9228TIP3    H227628   5.044   1.694   2.398  0.2129 -0.0262  1.1207
 9229TIP3   OH227629   3.033   5.761   3.288  0.0800  0.2774  0.4075
 9229TIP3    H127630   3.083   5.723   3.216 -1.4854 -0.9604 -0.0614
 9229TIP3    H227631   3.015   5.851   3.260  1.6366  0.6059  0.3983
 9230TIP3   OH227632   5.988   0.436   3.664 -0.7915 -0.6038 -0.1803
 9230TIP3    H127633   5.940   0.354   3.660 -0.4784 -0.7866 -0.2007
 9230TIP3    H227634   6.034   0.434   3.748 -1.4731 -0.0608  0.2147
 9231TIP3   OH227635   7.978   0.148   2.770  0.3109  0.4313 -0.5544
 9231TIP3    H127636   7.891   0.136   2.807  0.6714  0.3949  0.3003
 9231TIP3    H227637   7.978   0.238   2.737 -0.4833 -0.0059 -1.7525
 9232TIP3   OH227638   6.751   0.615   3.336 -0.3518  0.5766  0.1946
 9232TIP3    H127639   6.817   0.569   3.389 -0.2908  0.1543 -0.2444
 9232TIP3    H227640   6.730   0.553   3.266  1.1030  1.9420 -1.4683
 9233TIP3   OH227641   4.427   0.094   2.947  0.0192 -0.4557  0.3655
 9233TIP3    H127642   4.400   0.182   2.973 -1.0011 -0.4145 -0.7875
 9233TIP3    H227643   4.433   0.098   2.852 -2.8666 -2.4039  0.0413
 9234TIP3   OH227644   2.179   5.693   2.342 -0.3385  0.1380  0.1568
 9234TIP3    H127645   2.135   5.769   2.306 -1.4855  0.0463  1.3239
 9234TIP3    H227646   2.269   5.699   2.309 -0.6258  1.5543 -0.3959
 9235TIP3   OH227647   3.535   7.203   1.344 -0.2547 -0.2353  0.0263
 9235TIP3    H127648   3.542   7.279   1.402  2.3549 -0.4071  0.0303
 9235TIP3    H227649   3.610   7.211   1.285 -1.6609 -1.2002 -1.9633
 9236TIP3   OH227650   5.083   6.928   3.735 -0.3439  0.0358  0.3010
 9236TIP3    H127651   5.006   6.928   3.792  0.4069 -0.3934  1.3271
 9236TIP3    H227652   5.153   6.890   3.788  0.1317 -1.3125 -1.2501
 9237TIP3   OH227653   4.607   7.197   4.197 -0.4375  0.3487 -0.2555
 9237TIP3    H127654   4.575   7.142   4.269 -0.5487  1.2837  0.4160
 9237TIP3    H227655   4.702   7.193   4.205 -0.4267 -0.3460 -0.6717
 9238TIP3   OH227656   7.902   1.007   2.105  0.6743  0.3009  0.4447
 9238TIP3    H127657   7.844   0.971   2.039  1.6154 -2.0477  0.8307
 9238TIP3    H227658   7.845   1.030   2.178 -0.4262  3.3652 -1.3034
 9239TIP3   OH227659   6.143   6.602   2.981 -0.2403 -0.5363  1.1103
 9239TIP3    H127660   6.111   6.609   2.891  0.9605  0.6664  0.7620
 9239TIP3    H227661   6.115   6.684   3.023 -0.4713 -0.9309  1.7300
 9240TIP3   OH227662   5.364   0.446   3.831  0.6357 -0.0661  0.3330
 9240TIP3    H127663   5.303   0.464   3.902 -0.4299  0.0581 -0.5941
 9240TIP3    H227664   5.309   0.409   3.761  1.4654  0.8698 -0.8376
 9241TIP3   OH227665   6.418   1.633   5.056  0.3315  0.2758 -0.5723
 9241TIP3    H127666   6.501   1.650   5.012 -0.6039  0.8353 -2.1711
 9241TIP3    H227667   6.363   1.707   5.033 -0.7292 -0.2648  0.1809
 9242TIP3   OH227668   4.794   7.047   2.754  0.0886  0.2223  0.4893
 9242TIP3    H127669   4.782   7.078   2.664 -0.0421  1.1192  0.8093
 9242TIP3    H227670   4.797   7.127   2.807  0.1984 -0.2968  1.2793
 9243TIP3   OH227671   1.805   7.719   4.620 -0.0915  0.3669  0.3483
 9243TIP3    H127672   1.733   7.656   4.625  0.7889 -0.7605 -0.7131
 9243TIP3    H227673   1.787   7.782   4.690 -2.8523  0.9392 -0.7995
 9244TIP3   OH227674   6.994   0.119   2.901  0.2985 -0.0082 -0.6692
 9244TIP3    H127675   7.038   0.200   2.927  1.1821 -0.2961 -1.2186
 9244TIP3    H227676   6.977   0.130   2.807 -0.2063 -0.1763 -0.5996
 9245TIP3   OH227677   6.388   1.648   2.303  0.2449 -0.2544 -0.1391
 9245TIP3    H127678   6.406   1.591   2.378  1.4484  1.2438  0.7306
 9245TIP3    H227679   6.373   1.734   2.342  1.0005  0.5659 -1.6308
 9246TIP3   OH227680   2.676   6.781   3.052 -0.2237 -0.4623 -0.4903
 9246TIP3    H127681   2.723   6.862   3.030 -0.8520  0.2653  0.7550
 9246TIP3    H227682   2.740   6.729   3.101 -0.1416 -0.2711 -0.3930
 9247TIP3   OH227683   6.502   4.278   3.255  0.2840 -0.5745  0.6311
 9247TIP3    H127684   6.468   4.242   3.337 -0.0480  1.5003  1.4504
 9247TIP3    H227685   6.597   4.273   3.264  0.2849  1.5374  2.0555
 9248TIP3   OH227686   6.602   0.210   1.833  0.4074  0.5469  0.6070
 9248TIP3    H127687   6.557   0.145   1.886 -2.3204 -0.4241 -2.6871
 9248TIP3    H227688   6.689   0.217   1.871 -1.2591 -0.3515  4.8855
 9249TIP3   OH227689   1.549   6.716   3.100 -0.2038 -0.1754 -0.1515
 9249TIP3    H127690   1.538   6.721   3.005  0.0202  0.1223 -0.1641
 9249TIP3    H227691   1.463   6.691   3.133  0.1648 -2.0017 -0.5629
 9250TIP3   OH227692   6.026   0.554   5.739 -0.2065  0.7091  0.1133
 9250TIP3    H127693   6.061   0.468   5.764 -1.5416  0.0988 -0.1054
 9250TIP3    H227694   6.055   0.613   5.809  1.6389  0.3143 -0.2810
 9251TIP3   OH227695   3.743   7.459   1.452  0.6806  0.2569 -0.1828
 9251TIP3    H127696   3.838   7.474   1.450  0.6360  0.9702  2.4090
 9251TIP3    H227697   3.706   7.531   1.401  1.4274  0.9374  0.2244
 9252TIP3   OH227698   5.622   1.197   3.033  0.0419  0.0357 -0.5011
 9252TIP3    H127699   5.569   1.228   3.106  1.2553 -0.1330  0.4556
 9252TIP3    H227700   5.592   1.107   3.018  0.3764 -0.2125  0.3315
 9253TIP3   OH227701   6.432   0.670   1.773 -1.3673 -0.0232  0.1954
 9253TIP3    H127702   6.447   0.577   1.792 -2.3045  0.4476  3.7651
 9253TIP3    H227703   6.338   0.675   1.753 -1.1120  0.0343 -1.0173
 9254TIP3   OH227704   4.086   8.007   3.821  0.0425  0.0982 -0.1119
 9254TIP3    H127705   4.164   7.969   3.781 -0.2233  0.5521 -1.0873
 9254TIP3    H227706   4.090   7.979   3.913  0.6075 -1.0486 -0.4736
 9255TIP3   OH227707   6.555   2.803   4.426  0.5530 -0.1979 -0.7385
 9255TIP3    H127708   6.541   2.723   4.477 -0.6749 -0.5773 -1.6430
 9255TIP3    H227709   6.548   2.874   4.490 -1.0510 -0.6636 -0.3586
 9256TIP3   OH227710   8.102   1.615   4.453 -0.1164  0.2033  0.5578
 9256TIP3    H127711   8.092   1.537   4.508 -1.8545  0.7949  1.1203
 9256TIP3    H227712   8.042   1.600   4.380  1.3304 -0.0546 -0.6028
 9257TIP3   OH227713   1.364   3.496   3.982 -0.3343 -0.2083 -0.0453
 9257TIP3    H127714   1.353   3.575   3.929 -0.5149  0.6339  1.2301
 9257TIP3    H227715   1.296   3.503   4.049  0.3626 -0.8951  0.7405
 9258TIP3   OH227716   6.821   1.359   3.994  0.3736 -0.3108 -0.5402
 9258TIP3    H127717   6.825   1.269   3.962  0.9967 -0.3979 -0.2324
 9258TIP3    H227718   6.871   1.409   3.930  0.3588 -0.2479 -0.5025
 9259TIP3   OH227719   4.989   1.000   2.712  0.2260 -0.1882  0.2503
 9259TIP3    H127720   4.962   1.017   2.621 -1.5953 -2.4531  0.3232
 9259TIP3    H227721   5.084   0.985   2.705  0.6120  2.3874 -0.8302
 9260TIP3   OH227722   4.095   7.896   1.596  0.3422  0.4457  0.0753
 9260TIP3    H127723   4.152   7.940   1.533  0.8869  2.1641  1.7250
 9260TIP3    H227724   4.098   7.951   1.674 -2.1300 -0.4230  0.8346
 9261TIP3   OH227725   3.529   7.853   2.712 -0.2828  0.2302 -0.4871
 9261TIP3    H127726   3.577   7.770   2.708 -0.0621  0.2863  0.8646
 9261TIP3    H227727   3.454   7.840   2.654 -0.3799 -1.0007 -0.0974
 9262TIP3   OH227728   5.938   0.202   1.378 -0.1597 -0.0386  0.0316
 9262TIP3    H127729   5.968   0.239   1.295 -0.7502  1.7283  0.5766
 9262TIP3    H227730   6.016   0.165   1.418  0.2685 -0.2239 -0.9578
 9263TIP3   OH227731   2.328   6.505   4.760  0.1255 -0.2226 -0.1023
 9263TIP3    H127732   2.393   6.441   4.733 -1.3391 -2.2765  1.0730
 9263TIP3    H227733   2.323   6.567   4.687  2.8313 -0.4312 -0.5064
 9264TIP3   OH227734   5.955   7.442   0.081 -0.3393  0.0506 -0.0800
 9264TIP3    H127735   6.050   7.435   0.079 -0.3903 -1.1554  0.8636
 9264TIP3    H227736   5.938   7.524   0.127  0.2419 -0.6362  1.3837
 9265TIP3   OH227737   6.091   0.700   2.939  0.6087 -0.4046 -0.1984
 9265TIP3    H127738   6.034   0.664   2.870 -0.6138  0.9705  0.0555
 9265TIP3    H227739   6.088   0.635   3.009 -0.1010 -0.6838 -0.4796
 9266TIP3   OH227740   4.456   7.822   2.220 -0.5108 -0.1208 -0.1326
 9266TIP3    H127741   4.368   7.801   2.188 -0.6392  1.0416 -0.5536
 9266TIP3    H227742   4.507   7.840   2.141  0.6271 -2.6807 -0.0143
 9267TIP3   OH227743   5.751   5.833   3.292 -0.2124  0.7719  0.4962
 9267TIP3    H127744   5.820   5.896   3.274  0.8168  0.2925  2.5704
 9267TIP3    H227745   5.675   5.886   3.316  0.3663  1.2560  1.2871
 9268TIP3   OH227746   7.130   0.585   1.980  0.8330  0.1900 -0.0266
 9268TIP3    H127747   7.046   0.541   1.995  2.3882 -2.7478  0.5014
 9268TIP3    H227748   7.170   0.591   2.067  1.1000  1.7153 -0.2511
 9269TIP3   OH227749   4.647   1.242   4.179 -0.1252 -0.1040 -0.3769
 9269TIP3    H127750   4.625   1.273   4.267 -1.8655  0.1166 -0.8876
 9269TIP3    H227751   4.670   1.321   4.131  1.4953 -0.2954  0.0532
 9270TIP3   OH227752   5.771   1.418   2.417 -0.5385  0.4856 -0.1894
 9270TIP3    H127753   5.785   1.502   2.374  1.7831  0.1465 -0.1453
 9270TIP3    H227754   5.823   1.356   2.366 -2.6338 -1.0297 -0.5299
 9271TIP3   OH227755   5.361   5.728   3.607  0.0288 -0.1507  0.5764
 9271TIP3    H127756   5.367   5.799   3.543 -0.1530  1.0027  1.8178
 9271TIP3    H227757   5.444   5.680   3.597  0.0631  0.1115 -0.4134
 9272TIP3   OH227758   6.310   0.277   3.707 -0.0853  0.5886  0.3379
 9272TIP3    H127759   6.311   0.348   3.771  0.7089  1.1271 -0.2477
 9272TIP3    H227760   6.346   0.317   3.627 -2.5444  0.3745 -0.9306
 9273TIP3   OH227761   8.371   0.351   2.747  0.2205  0.1776  0.4746
 9273TIP3    H127762   8.354   0.363   2.840  0.4211 -0.5174  0.6042
 9273TIP3    H227763   8.419   0.269   2.742  0.8066  0.5550 -0.1805
 9274TIP3   OH227764   7.288   0.674   1.557  0.4882 -0.6816 -0.3179
 9274TIP3    H127765   7.380   0.663   1.582  0.4930 -0.4122 -0.2185
 9274TIP3    H227766   7.291   0.685   1.462  0.7332  1.2228 -0.1087
 9275TIP3   OH227767   2.343   7.308   2.824  0.0010 -0.7130  0.1599
 9275TIP3    H127768   2.265   7.362   2.833 -0.3453 -0.9529 -1.1578
 9275TIP3    H227769   2.316   7.221   2.853  0.1032 -0.5468  0.7615
 9276TIP3   OH227770   3.466   7.005   4.201  0.2570  0.1724 -0.1859
 9276TIP3    H127771   3.457   7.097   4.178 -0.3552  0.1216 -0.1481
 9276TIP3    H227772   3.560   6.989   4.200  0.4155  1.0158  0.6485
 9277TIP3   OH227773   4.152   6.979   3.489 -0.5010 -0.1529 -0.3699
 9277TIP3    H127774   4.189   7.063   3.464  1.3593 -0.7686  0.1339
 9277TIP3    H227775   4.074   7.000   3.540 -1.2827  1.1957 -2.1068
 9278TIP3   OH227776   4.302   0.870   2.386 -0.5229  0.1318 -0.1401
 9278TIP3    H127777   4.221   0.911   2.418  0.0899  0.8713  0.4671
 9278TIP3    H227778   4.291   0.866   2.291 -1.3729  0.0098 -0.0433
 9279TIP3   OH227779   6.271   1.284   2.859  0.0427 -0.6206  0.1575
 9279TIP3    H127780   6.203   1.242   2.911 -0.5716 -0.0205 -0.1574
 9279TIP3    H227781   6.278   1.372   2.894 -1.4422  0.2961 -1.7259
 9280TIP3   OH227782   4.795   3.664   2.358  0.1643  0.4943 -0.4978
 9280TIP3    H127783   4.877   3.616   2.346 -0.1520  0.0519 -0.9243
 9280TIP3    H227784   4.780   3.706   2.273 -0.2006  0.3328 -0.5127
 9281TIP3   OH227785   3.929   6.775   2.522  0.0609 -0.0296 -0.0123
 9281TIP3    H127786   3.854   6.798   2.467  1.0160 -0.4546 -1.5335
 9281TIP3    H227787   3.989   6.849   2.512 -0.6380  0.8911  2.1797
 9282TIP3   OH227788   2.568   7.660   3.982  0.0288 -0.1862 -0.3677
 9282TIP3    H127789   2.519   7.742   3.986  0.0332 -0.1886 -0.2723
 9282TIP3    H227790   2.641   7.672   4.043 -0.4550 -0.5849  0.2881
 9283TIP3   OH227791   3.913   1.076   1.441  0.1106  0.0117  0.2094
 9283TIP3    H127792   3.839   1.089   1.382  0.4984 -1.1143 -0.5376
 9283TIP3    H227793   3.990   1.095   1.388  0.4355 -0.4297  0.5257
 9284TIP3   OH227794   4.460   7.388   3.463  0.5219 -0.4618  0.0286
 9284TIP3    H127795   4.529   7.323   3.453  0.4315 -0.9130  2.0982
 9284TIP3    H227796   4.502   7.463   3.504 -0.0453 -0.4230  0.5440
 9285TIP3   OH227797   7.754   0.468   2.821 -0.2537 -0.1198 -0.1603
 9285TIP3    H127798   7.736   0.386   2.776 -0.0191  0.6786 -1.7461
 9285TIP3    H227799   7.769   0.531   2.751 -3.5914  2.0243  0.9288
 9286TIP3   OH227800   3.983   7.830   4.311 -0.3614 -0.2090 -0.0367
 9286TIP3    H127801   3.964   7.902   4.372 -2.9637  0.4809 -1.5934
 9286TIP3    H227802   3.958   7.751   4.359  0.0971  0.1089  0.7441
 9287TIP3   OH227803   2.634   7.384   2.490 -0.0116  0.1827 -0.0593
 9287TIP3    H127804   2.626   7.385   2.586 -1.3861  2.4527 -0.1619
 9287TIP3    H227805   2.553   7.424   2.459  0.5783 -0.2130 -2.1741
 9288TIP3   OH227806   3.049   7.055   4.891  0.1770  0.6647  0.5168
 9288TIP3    H127807   3.140   7.050   4.920 -0.2355 -0.6490  1.6368
 9288TIP3    H227808   3.044   6.993   4.818  0.4535  1.6000 -0.2998
 9289TIP3   OH227809   5.793   1.122   5.287 -0.5093 -0.6211  0.1209
 9289TIP3    H127810   5.843   1.065   5.345 -1.9815 -0.9386  1.0965
 9289TIP3    H227811   5.860   1.171   5.238  0.7661 -3.3511 -0.9336
 9290TIP3   OH227812   2.719   7.190   3.372  0.1265 -0.5274  0.2858
 9290TIP3    H127813   2.667   7.118   3.409  1.2623 -1.4947  0.0379
 9290TIP3    H227814   2.658   7.264   3.368 -1.6474 -2.0119 -1.2665
 9291TIP3   OH227815   7.552   0.529   3.755 -0.2681 -0.3119  0.3145
 9291TIP3    H127816   7.544   0.624   3.763 -0.9811 -0.2959 -0.4863
 9291TIP3    H227817   7.640   0.515   3.720 -0.5555  0.1318 -0.6148
 9292TIP3   OH227818   4.171   0.648   5.203  0.9901  0.1204 -0.2373
 9292TIP3    H127819   4.129   0.605   5.129 -1.5091 -0.7040  1.5710
 9292TIP3    H227820   4.198   0.576   5.260  1.2436  0.7848  0.4991
 9293TIP3   OH227821   3.189   6.174   5.875 -0.3762 -0.2592  0.2769
 9293TIP3    H127822   3.154   6.180   5.964 -1.2753 -2.0241  0.0607
 9293TIP3    H227823   3.112   6.175   5.819 -0.0679 -3.1626 -0.2560
 9294TIP3   OH227824   4.929   1.750   3.082 -0.0473  0.1327  0.1043
 9294TIP3    H127825   4.987   1.683   3.118  0.9841  0.0139 -1.7085
 9294TIP3    H227826   4.919   1.813   3.153 -1.6171 -2.2673  2.0877
 9295TIP3   OH227827   8.401   1.143   4.223  0.1053  0.0676  0.1821
 9295TIP3    H127828   8.329   1.172   4.278 -0.1219  0.5119 -0.3495
 9295TIP3    H227829   8.371   1.059   4.187 -0.4707  0.6264 -0.6544
 9296TIP3   OH227830   7.816   0.091   5.682  0.2390  0.4792  0.2551
 9296TIP3    H127831   7.742   0.136   5.723 -0.8111 -0.3669 -0.7129
 9296TIP3    H227832   7.892   0.118   5.735 -0.6050  2.0686  0.7015
 9297TIP3   OH227833   3.329   6.617   3.412 -0.4684 -0.0746 -0.3030
 9297TIP3    H127834   3.325   6.523   3.429 -1.6801  0.0055 -0.1249
 9297TIP3    H227835   3.267   6.656   3.473  4.0735  1.4393  3.6069
 9298TIP3   OH227836   2.572   6.232   3.240  0.2624 -0.5083  0.2777
 9298TIP3    H127837   2.506   6.299   3.222  1.3504  0.5274  0.0730
 9298TIP3    H227838   2.552   6.161   3.179 -0.0170  0.2546 -0.5267
 9299TIP3   OH227839   5.230   0.534   6.261  0.1153 -0.2677 -0.1157
 9299TIP3    H127840   5.290   0.552   6.188 -2.6261  1.5464 -2.0418
 9299TIP3    H227841   5.162   0.479   6.223 -0.3234 -0.9431  1.6112
 9300TIP3   OH227842   3.334   7.503   5.073 -0.4786 -0.8275  0.7086
 9300TIP3    H127843   3.423   7.485   5.044  0.1304  0.4653  1.7173
 9300TIP3    H227844   3.287   7.528   4.994  0.5884  0.5176  0.4908
 9301TIP3   OH227845   3.573   0.458   2.734  0.1816  0.1398 -0.4681
 9301TIP3    H127846   3.540   0.374   2.701 -0.7849 -0.0468  0.9160
 9301TIP3    H227847   3.647   0.478   2.678  0.2788 -1.5284 -0.9740
 9302TIP3   OH227848   7.738   0.722   2.241 -0.8587 -0.2859  0.5524
 9302TIP3    H127849   7.811   0.735   2.302  0.5849 -0.5423 -1.0797
 9302TIP3    H227850   7.728   0.807   2.197  1.2487 -1.3431 -2.1709
 9303TIP3   OH227851   5.242   0.661   0.251 -0.4751 -0.5981 -0.3489
 9303TIP3    H127852   5.197   0.606   0.315  0.2432 -1.7465 -0.8159
 9303TIP3    H227853   5.218   0.624   0.166  0.6183 -0.6689 -0.6397
 9304TIP3   OH227854   4.515   7.580   1.380 -0.0816  0.1526  0.3479
 9304TIP3    H127855   4.600   7.569   1.423  0.1524  0.6381  0.0263
 9304TIP3    H227856   4.497   7.674   1.389 -0.6715  0.0150  0.5751
 9305TIP3   OH227857   7.886   0.792   5.289  0.0764  0.0281  0.1566
 9305TIP3    H127858   7.868   0.749   5.373  0.0830 -0.1049  0.0892
 9305TIP3    H227859   7.863   0.727   5.223  0.1368  0.1088  0.0560
 9306TIP3   OH227860   0.913   1.279   2.606  0.1447 -0.1816 -0.8209
 9306TIP3    H127861   1.003   1.303   2.587  0.2436 -0.0718 -0.2199
 9306TIP3    H227862   0.892   1.210   2.542  0.7665 -0.4493 -0.7365
 9307TIP3   OH227863   6.741   7.422   1.937 -0.1262  0.5328 -0.2633
 9307TIP3    H127864   6.649   7.414   1.964  0.0893  1.4591  0.7496
 9307TIP3    H227865   6.781   7.479   2.003  0.7111  1.7774 -1.8168
 9308TIP3   OH227866   3.408   7.707   0.509  0.0183 -0.2227 -0.4956
 9308TIP3    H127867   3.415   7.620   0.548  1.4331 -0.3064 -0.9255
 9308TIP3    H227868   3.327   7.703   0.457 -0.1988 -1.1003 -0.1063
 9309TIP3   OH227869   2.680   7.956   1.946 -0.2626  0.0913 -0.0016
 9309TIP3    H127870   2.668   7.899   2.022 -0.0537  0.7269  0.5153
 9309TIP3    H227871   2.765   7.932   1.910  0.1383  0.5461  0.6281
 9310TIP3   OH227872   7.470   0.096   2.909 -0.0355  0.2501  0.1061
 9310TIP3    H127873   7.452   0.097   2.815  1.3216 -0.7160 -0.1736
 9310TIP3    H227874   7.439   0.011   2.939  1.4023 -0.2637  0.1495
 9311TIP3   OH227875   6.405   0.372   3.297 -0.1268  0.4548  0.2012
 9311TIP3    H127876   6.382   0.432   3.369  1.1145 -0.6990  1.5819
 9311TIP3    H227877   6.495   0.347   3.315  0.2055  0.1665 -1.7996
 9312TIP3   OH227878   4.757   7.540   1.528  0.1889  0.4006 -0.0857
 9312TIP3    H127879   4.819   7.532   1.600  0.6378 -0.1653 -0.5284
 9312TIP3    H227880   4.798   7.493   1.455 -2.5606 -3.5324  0.7723
 9313TIP3   OH227881   6.381   0.407   1.767 -0.4653  0.0199 -0.4278
 9313TIP3    H127882   6.318   0.389   1.837  0.2431  0.7329  0.4162
 9313TIP3    H227883   6.438   0.330   1.766 -0.7915 -0.2184 -0.5639
 9314TIP3   OH227884   5.622   7.144   3.054  0.3593 -0.4793 -0.3924
 9314TIP3    H127885   5.694   7.083   3.072 -0.5249 -1.4191 -0.0192
 9314TIP3    H227886   5.585   7.114   2.971  1.9523  1.5051 -1.9034
 9315TIP3   OH227887   6.372   0.293   2.997 -0.3857  0.0842 -0.0843
 9315TIP3    H127888   6.465   0.284   2.974 -0.6051 -2.2224 -0.1001
 9315TIP3    H227889   6.347   0.377   2.959  1.7964  0.9567  0.2719
 9316TIP3   OH227890   6.633   0.199   4.504  0.1122 -0.4880  0.9523
 9316TIP3    H127891   6.645   0.286   4.467  2.3543 -0.7618  0.9364
 9316TIP3    H227892   6.539   0.192   4.520 -0.1997  1.6162  0.2018
 9317TIP3   OH227893   4.614   7.113   5.141 -0.0468  0.1307 -0.0543
 9317TIP3    H127894   4.526   7.142   5.165  0.5621 -0.0783  2.5581
 9317TIP3    H227895   4.601   7.063   5.060 -2.2965  0.2514  0.1914
 9318TIP3   OH227896   0.291   1.455   3.185  0.0621 -0.1715  0.0693
 9318TIP3    H127897   0.196   1.463   3.198 -0.2552 -0.7943 -1.6572
 9318TIP3    H227898   0.320   1.542   3.159 -0.2824 -0.2899 -0.7339
 9319TIP3   OH227899   3.553   6.881   2.977 -0.1368 -0.4000 -0.8664
 9319TIP3    H127900   3.635   6.835   2.995 -0.3579 -0.7698 -0.8096
 9319TIP3    H227901   3.497   6.861   3.052 -0.1296  0.2033 -0.6941
 9320TIP3   OH227902   5.310   0.001   4.905  0.2568 -0.2409  0.6731
 9320TIP3    H127903   5.216  -0.013   4.917 -0.2237  0.8743 -1.3976
 9320TIP3    H227904   5.319   0.096   4.897  1.7566 -0.2390  2.2348
 9321TIP3   OH227905   4.808   7.010   3.588 -0.2755  0.0601 -0.4141
 9321TIP3    H127906   4.886   7.045   3.545 -0.1268 -2.2393 -2.1024
 9321TIP3    H227907   4.744   7.003   3.518 -0.5053 -2.3862  0.0209
 9322TIP3   OH227908   5.942   0.183   2.788  0.0323  0.2609  0.1432
 9322TIP3    H127909   6.011   0.118   2.783 -1.3430 -1.2126 -0.1971
 9322TIP3    H227910   5.875   0.143   2.844 -0.8257  1.3798 -0.0578
 9323TIP3   OH227911   3.990   5.629   2.618 -0.2511 -0.4208  0.2612
 9323TIP3    H127912   4.062   5.624   2.555 -0.4145  1.2493 -0.1055
 9323TIP3    H227913   3.966   5.538   2.635  1.2401 -0.9560 -0.4249
 9324TIP3   OH227914   4.471   5.373   3.736 -0.3606  0.4321  0.4000
 9324TIP3    H127915   4.447   5.431   3.809  1.3377  0.0795  1.2568
 9324TIP3    H227916   4.561   5.397   3.715 -0.2921 -0.5996 -0.5022
 9325TIP3   OH227917   0.289   0.222   2.694  0.4276 -0.2314 -0.1138
 9325TIP3    H127918   0.317   0.207   2.604  1.3318  1.0542 -0.0599
 9325TIP3    H227919   0.370   0.240   2.742  0.0202 -1.6285  1.1057
 9326TIP3   OH227920   4.007   6.748   3.434 -0.1080 -0.3720 -0.3018
 9326TIP3    H127921   3.967   6.781   3.354 -0.2427  0.7772  0.2198
 9326TIP3    H227922   4.069   6.816   3.459 -1.0698 -0.0484  1.3200
 9327TIP3   OH227923   7.339   7.756   3.015  0.2254  0.0215  0.4146
 9327TIP3    H127924   7.261   7.758   2.958 -1.0234 -1.6890  2.0018
 9327TIP3    H227925   7.351   7.663   3.035  0.9154  0.5636  2.5997
 9328TIP3   OH227926   1.534   7.862   2.336  0.0714  0.4735  0.1723
 9328TIP3    H127927   1.533   7.910   2.419 -2.6666  0.2732  0.3157
 9328TIP3    H227928   1.583   7.782   2.356  3.5809  2.5699  0.2600
 9329TIP3   OH227929   6.215   7.510   0.522  0.3204  0.1786 -0.6680
 9329TIP3    H127930   6.244   7.462   0.600 -1.7276  1.4367  0.9065
 9329TIP3    H227931   6.174   7.443   0.467  1.3999 -0.6440 -0.5045
 9330TIP3   OH227932   3.472   5.459   4.376  0.4835  0.1235  0.3700
 9330TIP3    H127933   3.398   5.406   4.345  1.3271 -0.5537 -0.5291
 9330TIP3    H227934   3.457   5.546   4.337 -0.5303  0.3645  1.2715
 9331TIP3   OH227935   3.077   7.568   4.874 -0.2797  0.0604 -0.1208
 9331TIP3    H127936   3.057   7.659   4.848  1.8351  1.1711  2.0272
 9331TIP3    H227937   2.991   7.528   4.886 -1.2509  1.7398 -1.1942
 9332TIP3   OH227938   5.034   7.858   2.541 -0.1430  0.2196  0.3227
 9332TIP3    H127939   5.071   7.770   2.544  0.5987  0.3914 -2.1510
 9332TIP3    H227940   5.110   7.916   2.542 -0.6051  0.8048  1.3701
 9333TIP3   OH227941   5.209   2.044   2.328  0.4442  0.7940  0.2247
 9333TIP3    H127942   5.149   1.971   2.310  1.8456 -0.5168  0.7452
 9333TIP3    H227943   5.222   2.086   2.243  2.1419 -1.5476 -0.7404
 9334TIP3   OH227944   4.704   7.403   3.973 -0.3725 -0.4763 -0.0087
 9334TIP3    H127945   4.628   7.431   4.024 -1.3089  0.2087 -1.7276
 9334TIP3    H227946   4.721   7.314   4.003 -0.4770  0.1436  1.9525
 9335TIP3   OH227947   5.367   7.342   3.227 -0.3928 -0.5943 -0.1014
 9335TIP3    H127948   5.383   7.275   3.294  0.2903 -1.8141 -1.4458
 9335TIP3    H227949   5.450   7.391   3.222  0.1335 -1.5617 -1.1865
 9336TIP3   OH227950   4.070   7.064   6.150  0.5493 -0.2835 -0.2423
 9336TIP3    H127951   4.134   7.006   6.191  0.0908 -1.3140 -0.9382
 9336TIP3    H227952   4.115   7.100   6.073  0.9504  0.5623  0.3868
 9337TIP3   OH227953   8.293   0.054   3.644 -0.5934 -0.4976 -0.6174
 9337TIP3    H127954   8.261   0.012   3.724  1.4160 -1.7775 -0.4654
 9337TIP3    H227955   8.319   0.142   3.671 -0.7255 -0.6292 -0.0652
 9338TIP3   OH227956   0.404   0.309   3.655 -0.5778 -0.0968 -0.0975
 9338TIP3    H127957   0.468   0.281   3.589 -0.7873 -0.5295 -0.1222
 9338TIP3    H227958   0.319   0.286   3.616 -0.5908 -3.8763  1.8968
 9339TIP3   OH227959   7.591   0.862   3.482 -0.0407 -0.3023  0.5363
 9339TIP3    H127960   7.576   0.825   3.395 -0.5736 -1.6680  1.1829
 9339TIP3    H227961   7.511   0.910   3.502  0.4881  0.8862 -0.1346
 9340TIP3   OH227962   8.016   0.784   2.389  0.6495 -0.2445  0.2637
 9340TIP3    H127963   8.066   0.830   2.457 -1.2243  1.8219  0.2691
 9340TIP3    H227964   8.045   0.823   2.307  0.2147 -0.1629  0.1477
 9341TIP3   OH227965   6.778   1.557   0.196 -0.3667 -0.1189  0.1407
 9341TIP3    H127966   6.856   1.578   0.248 -1.1550  0.9715  0.8929
 9341TIP3    H227967   6.810   1.557   0.105  0.2602  1.5658  0.3477
 9342TIP3   OH227968   3.908   7.224   2.452 -0.3770 -0.1462 -0.0728
 9342TIP3    H127969   3.828   7.214   2.505 -0.3535 -3.6272 -0.5290
 9342TIP3    H227970   3.876   7.229   2.362 -0.1290 -1.7829 -0.2756
 9343TIP3   OH227971   0.134   0.738   2.039  0.8325  0.0761 -0.0142
 9343TIP3    H127972   0.130   0.671   2.107 -1.4539  1.0810  0.8777
 9343TIP3    H227973   0.112   0.690   1.958  0.6012 -0.5121  0.3942
 9344TIP3   OH227974   5.975   7.368   1.886  0.7227 -0.3094  0.0380
 9344TIP3    H127975   6.070   7.363   1.873  1.0678  0.5400  2.0600
 9344TIP3    H227976   5.949   7.280   1.914  0.9483 -0.4817 -0.2962
 9345TIP3   OH227977   4.950   7.400   5.041  0.0557  0.1771 -0.0772
 9345TIP3    H127978   4.956   7.350   5.122 -0.9174  0.9874  0.5223
 9345TIP3    H227979   4.920   7.337   4.975 -1.7393  0.0696  0.7943
 9346TIP3   OH227980   1.842   1.154   5.097  0.2561  0.1327  0.2499
 9346TIP3    H127981   1.922   1.206   5.092 -0.0405  0.4984 -0.7562
 9346TIP3    H227982   1.829   1.139   5.191  1.0497  0.7751  0.4670
 9347TIP3   OH227983   5.454   7.223   3.455 -0.4227  0.0485 -0.5980
 9347TIP3    H127984   5.445   7.144   3.509 -0.7945 -0.2829 -1.1303
 9347TIP3    H227985   5.436   7.295   3.514  2.2470 -0.1134  0.4769
 9348TIP3   OH227986   4.895   6.903   3.942 -0.3278 -0.0376 -0.2523
 9348TIP3    H127987   4.900   6.810   3.918  0.8543 -0.4183  1.4224
 9348TIP3    H227988   4.945   6.910   4.023 -0.1244  2.1392 -0.5403
 9349TIP3   OH227989   0.238   0.629   3.116  0.6705  0.0051 -0.2865
 9349TIP3    H127990   0.304   0.595   3.055  0.3072 -2.0782  0.4570
 9349TIP3    H227991   0.288   0.655   3.193  0.8873  0.6075 -0.6297
 9350TIP3   OH227992   2.516   0.168   1.702 -0.2464 -0.4015 -0.1441
 9350TIP3    H127993   2.430   0.177   1.660 -0.4980 -0.1274  0.4128
 9350TIP3    H227994   2.505   0.212   1.787 -0.0081 -1.6887  0.5742
 9351TIP3   OH227995   6.144   6.204   5.566  0.6335 -0.4652 -0.2736
 9351TIP3    H127996   6.199   6.270   5.524 -0.5581  0.6567 -0.0908
 9351TIP3    H227997   6.054   6.230   5.544  0.0094 -0.1304  2.5329
 9352TIP3   OH227998   1.473   0.054   2.523  0.6351  0.0730 -0.5986
 9352TIP3    H127999   1.429   0.062   2.607  0.0816  2.1543 -1.0459
 9352TIP3    H228000   1.463  -0.038   2.498  1.9337 -0.8558  2.1983
 9353TIP3   OH228001   1.640   0.304   2.029  0.5898  0.3748  0.3792
 9353TIP3    H128002   1.605   0.286   2.116  0.6876 -0.7026  0.1973
 9353TIP3    H228003   1.571   0.354   1.986 -1.0185 -2.2776 -0.1971
 9354TIP3   OH228004   4.903   7.205   4.841 -0.0350  0.4901  0.3967
 9354TIP3    H128005   4.948   7.184   4.759 -1.3258 -0.7990  0.0018
 9354TIP3    H228006   4.955   7.163   4.908  1.2325  1.8508  0.2995
 9355TIP3   OH228007   0.235   2.828   2.142  0.5357  0.3296  0.0031
 9355TIP3    H128008   0.196   2.859   2.060  1.0917  0.3169 -0.2694
 9355TIP3    H228009   0.175   2.859   2.210 -1.5433 -2.1770 -0.5856
 9356TIP3   OH228010   0.365   1.171   1.865 -0.3966  0.0009 -0.1219
 9356TIP3    H128011   0.407   1.231   1.927 -0.9699 -1.7418  2.0287
 9356TIP3    H228012   0.387   1.084   1.898 -1.6882 -0.9517 -1.7224
 9357TIP3   OH228013   5.505   7.056   3.871 -0.2263  0.5054 -0.4224
 9357TIP3    H128014   5.481   7.058   3.779  0.1162  0.5208 -0.5129
 9357TIP3    H228015   5.595   7.091   3.874 -0.4431  1.0422 -0.0176
 9358TIP3   OH228016   0.460   1.531   2.150  0.0386 -0.2126 -0.4791
 9358TIP3    H128017   0.468   1.546   2.245  0.1743 -1.1188 -0.3455
 9358TIP3    H228018   0.453   1.619   2.113 -0.5933  0.1246  0.4226
 9359TIP3   OH228019   0.950   2.347   1.579  0.4904  0.0167 -0.2312
 9359TIP3    H128020   0.917   2.333   1.668  0.2880  2.0369  0.0363
 9359TIP3    H228021   0.978   2.438   1.578 -0.3030  0.2642 -2.5006
 9360TIP3   OH228022   4.899   7.841   1.873 -0.1960 -0.0547  0.2014
 9360TIP3    H128023   4.984   7.854   1.831 -0.5866  0.6392 -0.3942
 9360TIP3    H228024   4.887   7.920   1.926 -0.8986  0.2940 -0.4746
 9361TIP3   OH228025   6.378   7.945   1.338 -0.5620  0.3384 -0.0302
 9361TIP3    H128026   6.407   8.036   1.330 -0.6206  0.3390 -0.2497
 9361TIP3    H228027   6.426   7.911   1.414 -0.3279  0.4714 -0.1168
 9362TIP3   OH228028   0.721   0.572   2.265 -0.7277 -0.1482  0.1745
 9362TIP3    H128029   0.630   0.580   2.235 -0.2623 -2.1941 -1.9083
 9362TIP3    H228030   0.725   0.486   2.306  0.0690  0.3242  1.1196
 9363TIP3   OH228031   0.189   0.512   2.231 -0.4032 -0.3335  0.1362
 9363TIP3    H128032   0.203   0.530   2.324  0.5431 -1.2443  0.1820
 9363TIP3    H228033   0.216   0.421   2.221  0.6116  0.1147 -1.2638
 9364TIP3   OH228034   6.932   0.653   3.663 -0.0172 -0.2024  0.5894
 9364TIP3    H128035   6.882   0.571   3.661  1.3951 -1.0742 -0.0540
 9364TIP3    H228036   7.022   0.625   3.678  0.5331  1.2102 -0.0618
 9365TIP3   OH228037   5.477   6.548   4.803 -0.0940 -0.4193 -0.2919
 9365TIP3    H128038   5.404   6.530   4.745 -0.0480  0.4329 -0.6268
 9365TIP3    H228039   5.511   6.633   4.773 -0.6907  0.5119  1.6136
 9366TIP3   OH228040   6.652   7.181   2.807 -0.1569  0.5055  0.1268
 9366TIP3    H128041   6.726   7.151   2.859 -0.3491 -0.8168 -0.3630
 9366TIP3    H228042   6.579   7.185   2.869 -0.4189 -1.1969 -0.0621
 9367TIP3   OH228043   5.727   0.613   2.849 -0.5374 -0.0784  0.1054
 9367TIP3    H128044   5.672   0.616   2.927  0.8038 -2.0034  1.1570
 9367TIP3    H228045   5.794   0.680   2.863  0.3469 -1.1540  1.1347
 9368TIP3   OH228046   6.224   7.649   2.584 -0.1398  0.5357  0.3789
 9368TIP3    H128047   6.297   7.707   2.605 -0.3096  1.1864 -0.8230
 9368TIP3    H228048   6.228   7.639   2.489 -1.6218  0.5811  0.3093
 9369TIP3   OH228049   5.236   6.462   1.507 -0.6513 -0.4101  0.0294
 9369TIP3    H128050   5.169   6.497   1.449  0.6712 -0.6180 -1.6732
 9369TIP3    H228051   5.203   6.478   1.595 -1.5604  2.1958 -0.7508
 9370TIP3   OH228052   6.819   7.148   2.000  0.3383  0.4870  0.0137
 9370TIP3    H128053   6.843   7.176   2.089  0.4311  0.5784 -0.0399
 9370TIP3    H228054   6.780   7.226   1.960  0.1329  0.3945  0.0341
 9371TIP3   OH228055   4.671   7.446   0.723  0.0102  0.1829 -0.1753
 9371TIP3    H128056   4.725   7.525   0.728 -0.9270  0.7988  0.1698
 9371TIP3    H228057   4.640   7.443   0.633  1.0486 -0.4652 -0.5243
 9372TIP3   OH228058   1.664   6.260   6.852 -0.3454 -0.0324 -0.7201
 9372TIP3    H128059   1.613   6.340   6.844 -2.4719 -1.2675  0.0430
 9372TIP3    H228060   1.605   6.191   6.822  0.4045 -1.6703  1.4235
 9373TIP3   OH228061   8.142   0.618   3.620 -0.0978  0.0547 -0.5073
 9373TIP3    H128062   8.197   0.665   3.683 -0.0584  0.5278 -0.8872
 9373TIP3    H228063   8.204   0.586   3.555 -0.0563 -1.0323  0.0588
 9374TIP3   OH228064   0.041   0.775   2.974  0.2187  0.0349 -0.2090
 9374TIP3    H128065   0.119   0.820   2.942  0.8932 -1.5888 -0.8511
 9374TIP3    H228066   0.075   0.704   3.028 -0.8542  0.3222  0.8687
 9375TIP3   OH228067   5.392   1.373   5.981  0.0801 -0.6457  0.5042
 9375TIP3    H128068   5.340   1.293   5.973  0.4006 -0.9600  1.5236
 9375TIP3    H228069   5.333   1.443   5.953 -0.5149 -1.1244  0.5591
 9376TIP3   OH228070   6.985   6.920   2.592 -0.0521 -0.2324  0.2635
 9376TIP3    H128071   6.997   6.995   2.534  0.6484  0.1136  0.8527
 9376TIP3    H228072   6.934   6.955   2.665  1.3944 -0.0122  1.1754
 9377TIP3   OH228073   5.228   7.395   2.781 -0.5616  0.0624  0.2118
 9377TIP3    H128074   5.171   7.324   2.752 -1.1378  0.4919  0.2985
 9377TIP3    H228075   5.232   7.385   2.876  1.4694 -1.4548  0.0145
 9378TIP3   OH228076   2.117   1.252   3.496 -0.1703  0.3008  0.8450
 9378TIP3    H128077   2.034   1.210   3.516 -0.0461 -0.7497 -0.8279
 9378TIP3    H228078   2.093   1.333   3.451 -0.2822  0.0603  0.4778
 9379TIP3   OH228079   0.687   0.819   2.406  0.1321  0.1346  0.4212
 9379TIP3    H128080   0.724   0.738   2.370 -0.5758  1.0277 -2.4966
 9379TIP3    H228081   0.626   0.790   2.473  4.2085 -1.4671  3.6379
 9380TIP3   OH228082   5.351   6.878   1.115  0.1311 -0.0763 -0.1267
 9380TIP3    H128083   5.424   6.934   1.090  0.8468 -0.9681 -0.0489
 9380TIP3    H228084   5.340   6.819   1.040  0.2660 -0.7273  0.3642
 9381TIP3   OH228085   7.822   0.034   3.973 -0.0858  0.0479 -0.0483
 9381TIP3    H128086   7.767   0.105   4.008 -1.1748 -0.0805 -1.4268
 9381TIP3    H228087   7.779   0.009   3.891  1.4588 -0.7930 -0.6279
 9382TIP3   OH228088   5.561   6.841   2.924  0.4257 -0.4786  0.0617
 9382TIP3    H128089   5.467   6.826   2.933  0.3968 -2.0121 -2.2925
 9382TIP3    H228090   5.600   6.789   2.994 -0.4288 -0.7503  0.3401
 9383TIP3   OH228091   7.291   7.311   3.289 -0.6590 -1.2171 -0.0623
 9383TIP3    H128092   7.284   7.261   3.370  1.6846 -1.8194 -0.1779
 9383TIP3    H228093   7.385   7.310   3.269 -0.7680  1.7377 -1.0077
 9384TIP3   OH228094   4.146   7.519   4.848  0.5457  0.1693  0.6531
 9384TIP3    H128095   4.211   7.549   4.785 -0.8001  0.4370 -0.6375
 9384TIP3    H228096   4.177   7.551   4.932  1.7092  0.8986 -0.0485
 9385TIP3   OH228097   4.612   7.362   1.897  0.4954 -0.0575  0.4579
 9385TIP3    H128098   4.640   7.339   1.809  1.9972  1.3430  0.5607
 9385TIP3    H228099   4.523   7.396   1.886  0.1181 -1.2753 -0.3112
 9386TIP3   OH228100   8.090   1.325   2.730  0.1435 -0.4212  0.2851
 9386TIP3    H128101   8.017   1.380   2.760 -0.6338 -0.5444 -1.3536
 9386TIP3    H228102   8.075   1.241   2.772  0.1908 -0.0067  1.1542
 9387TIP3   OH228103   2.440   7.031   3.461  0.4149 -0.0308  0.1450
 9387TIP3    H128104   2.494   6.964   3.419  0.8867 -0.2827  1.1454
 9387TIP3    H228105   2.364   7.040   3.404  1.2479 -0.0759 -0.9794
 9388TIP3   OH228106   0.054   0.418   1.611  0.1465  0.2009  0.0881
 9388TIP3    H128107   0.119   0.358   1.576  0.5956 -0.0642  1.3281
 9388TIP3    H228108  -0.020   0.361   1.635  0.7589  0.0580  1.7047
 9389TIP3   OH228109   6.159   6.839   4.364 -0.8748 -0.1760  0.0833
 9389TIP3    H128110   6.193   6.778   4.429  0.5128  1.5553  1.0143
 9389TIP3    H228111   6.232   6.897   4.345 -2.0136  0.8769 -1.1937
 9390TIP3   OH228112   1.468   0.192   0.819  0.1118  0.1111  0.1558
 9390TIP3    H128113   1.503   0.278   0.797  1.5383 -0.7783 -1.1883
 9390TIP3    H228114   1.534   0.153   0.875 -0.7906  0.0902  1.2198
 9391TIP3   OH228115   7.300   7.359   3.659  0.6547 -0.3900 -0.2824
 9391TIP3    H128116   7.277   7.278   3.613  0.6424 -0.3068 -0.4238
 9391TIP3    H228117   7.217   7.407   3.665  0.3273 -1.1043  1.2465
 9392TIP3   OH228118   2.289   3.655   6.916  0.4081 -0.1436  0.3451
 9392TIP3    H128119   2.333   3.657   6.831  0.0806  1.5462  0.1838
 9392TIP3    H228120   2.323   3.732   6.962 -0.4463 -0.2680  1.2015
 9393TIP3   OH228121   8.177   0.623   1.923  0.8642  0.2218 -0.3811
 9393TIP3    H128122   8.112   0.630   1.853  0.3213 -2.8092 -0.2398
 9393TIP3    H228123   8.197   0.714   1.947 -0.9789  1.2342 -2.5744
 9394TIP3   OH228124   4.139   7.104   2.115 -0.4242 -0.6219  0.5062
 9394TIP3    H128125   4.098   7.022   2.088  0.5967 -1.2954  0.9432
 9394TIP3    H228126   4.201   7.078   2.183  0.5022  0.4042  0.0713
 9395TIP3   OH228127   0.784   1.065   2.447  0.7820 -0.0217  0.1201
 9395TIP3    H128128   0.808   1.092   2.358 -2.0114  1.1863 -0.2995
 9395TIP3    H228129   0.749   0.977   2.437 -0.8580  0.6505 -0.2165
 9396TIP3   OH228130   5.699   5.616   2.510  0.1393  0.2859 -0.3953
 9396TIP3    H128131   5.792   5.594   2.518 -0.2351 -0.7840  1.3000
 9396TIP3    H228132   5.668   5.563   2.436  0.0939 -2.1719  1.3161
 9397TIP3   OH228133   7.833   1.424   1.444  0.2330 -0.1737 -0.1619
 9397TIP3    H128134   7.835   1.450   1.536 -0.9264  2.2216 -0.7678
 9397TIP3    H228135   7.741   1.429   1.419  0.6828  0.4866 -1.7857
 9398TIP3   OH228136   6.887   6.366   2.698 -0.1734  0.1954 -0.5930
 9398TIP3    H128137   6.930   6.335   2.619  0.1291  1.4160 -0.9039
 9398TIP3    H228138   6.958   6.383   2.760 -0.3863 -0.4003 -0.1741
 9399TIP3   OH228139   8.425   1.869   1.726  0.0032  0.4246  0.2445
 9399TIP3    H128140   8.353   1.816   1.693 -0.3642  1.6556 -0.9327
 9399TIP3    H228141   8.487   1.873   1.653  0.5585  0.6766  0.7255
 9400TIP3   OH228142   8.291   2.287   4.184 -0.2951 -0.3537  0.0541
 9400TIP3    H128143   8.218   2.240   4.145 -1.6856  0.8105  1.2009
 9400TIP3    H228144   8.358   2.220   4.198 -1.5065 -1.6074 -0.1084
 9401TIP3   OH228145   0.406   0.104   1.236  0.2728  0.2085  0.0215
 9401TIP3    H128146   0.339   0.038   1.252  2.2011 -1.2483  2.6752
 9401TIP3    H228147   0.448   0.077   1.155  1.0070 -1.8458  1.0624
 9402TIP3   OH228148   6.739   7.757   4.715  0.4918 -0.7617 -0.3194
 9402TIP3    H128149   6.656   7.715   4.738 -1.5182  2.8283 -0.6065
 9402TIP3    H228150   6.794   7.746   4.792 -0.9113 -1.5522  0.6004
 9403TIP3   OH228151   1.236   2.435   1.685  0.1562 -0.0367  0.2023
 9403TIP3    H128152   1.192   2.503   1.633 -0.0574  0.5627  1.1650
 9403TIP3    H228153   1.281   2.381   1.619  1.1634  1.6299 -0.5191
 9404TIP3   OH228154   7.186   1.980   2.484 -0.1359 -0.1591 -0.4269
 9404TIP3    H128155   7.214   1.913   2.422 -0.3412 -0.5951 -0.0547
 9404TIP3    H228156   7.125   2.035   2.435 -0.5191 -0.6729 -0.5231
 9405TIP3   OH228157   8.292   0.223   4.050  0.5176 -0.3513  0.4516
 9405TIP3    H128158   8.228   0.292   4.068 -0.6530 -0.9774 -1.1789
 9405TIP3    H228159   8.361   0.266   3.999 -1.5339 -0.8976 -2.9406
 9406TIP3   OH228160   4.106   7.211   0.830  0.1080  0.5758 -0.5958
 9406TIP3    H128161   4.171   7.154   0.871 -0.2644  1.1791  0.8546
 9406TIP3    H228162   4.156   7.288   0.801 -0.0117  1.2505  0.9367
 9407TIP3   OH228163   1.743   0.169   0.650 -0.5023  0.5864 -0.0422
 9407TIP3    H128164   1.692   0.224   0.590  0.9850 -0.4302 -2.3221
 9407TIP3    H228165   1.760   0.226   0.725 -0.2474  2.7981 -1.6947
 9408TIP3   OH228166   1.215   0.476   3.820  0.3560  0.2992  0.0287
 9408TIP3    H128167   1.302   0.445   3.793  1.0340  0.5405  1.8863
 9408TIP3    H228168   1.232   0.560   3.863 -0.8982  0.7190 -0.2759
 9409TIP3   OH228169   7.434   7.354   2.395  0.4101 -0.0850 -0.4524
 9409TIP3    H128170   7.484   7.426   2.433 -0.7577  0.6698 -0.3115
 9409TIP3    H228171   7.367   7.333   2.460  0.4970 -1.0484 -0.6560
 9410TIP3   OH228172   5.470   7.601   3.934 -0.0687  0.0341  0.0661
 9410TIP3    H128173   5.552   7.644   3.907  0.4190 -1.0544 -0.2057
 9410TIP3    H228174   5.431   7.662   3.997  0.3678  1.1133 -0.6755
 9411TIP3   OH228175   2.516   1.208   3.062 -0.2236 -0.3015 -0.3681
 9411TIP3    H128176   2.440   1.150   3.051 -0.0034 -0.6312 -0.1470
 9411TIP3    H228177   2.574   1.160   3.121 -0.5816  0.6580  0.7730
 9412TIP3   OH228178   7.431   7.932   2.233 -0.5590  0.1522 -0.0569
 9412TIP3    H128179   7.417   7.847   2.274 -1.8205  0.0713 -0.6387
 9412TIP3    H228180   7.449   7.991   2.306 -0.0348 -0.5386  0.3782
 9413TIP3   OH228181   6.285   6.535   4.387 -0.2798  0.6081  0.1516
 9413TIP3    H128182   6.223   6.585   4.334  1.1282  2.8194  0.5282
 9413TIP3    H228183   6.351   6.504   4.325  0.5352  1.8986  0.3492
 9414TIP3   OH228184   4.787   6.783   1.989 -0.0777  0.0985 -0.0418
 9414TIP3    H128185   4.705   6.791   1.940 -0.2409  0.9044  0.3524
 9414TIP3    H228186   4.760   6.785   2.081  0.2147 -1.5663  0.0988
 9415TIP3   OH228187   2.878   3.116   6.430  0.0995  0.0094 -0.2912
 9415TIP3    H128188   2.847   3.026   6.443 -1.0945  0.3923 -0.4812
 9415TIP3    H228189   2.800   3.170   6.439  0.8194  1.0414 -0.1537
 9416TIP3   OH228190   8.157   2.005   0.977 -0.3019  0.2472 -0.4279
 9416TIP3    H128191   8.242   2.004   1.020  0.0362 -1.4461 -1.1007
 9416TIP3    H228192   8.114   2.085   1.010  1.6940  1.3377 -0.4308
 9417TIP3   OH228193   1.027   0.463   4.021 -1.1129 -0.4280 -0.0549
 9417TIP3    H128194   1.018   0.370   4.040  0.5391 -0.4414  0.6890
 9417TIP3    H228195   1.072   0.467   3.937  0.1694 -0.2930  0.6353
 9418TIP3   OH228196   5.095   6.923   2.333 -0.4394  0.3706 -0.4977
 9418TIP3    H128197   5.169   6.908   2.274 -0.0341  2.8584 -0.6598
 9418TIP3    H228198   5.072   7.015   2.321 -2.4516  0.0792  0.8417
 9419TIP3   OH228199   5.486   5.530   5.370  0.0749 -0.3762 -0.7463
 9419TIP3    H128200   5.437   5.510   5.450  0.1740 -0.4836 -0.7142
 9419TIP3    H228201   5.562   5.472   5.372  0.6316  0.3585 -0.3931
 9420TIP3   OH228202   7.657   1.200   3.417 -0.6943  0.2141 -0.0245
 9420TIP3    H128203   7.729   1.258   3.394 -0.5533 -0.1086 -0.4033
 9420TIP3    H228204   7.581   1.258   3.427 -0.6693  0.3993 -0.9158
 9421TIP3   OH228205   6.727   6.878   1.972 -0.1337 -0.4800  0.3110
 9421TIP3    H128206   6.749   6.833   1.890  1.7308  0.7843  0.0694
 9421TIP3    H228207   6.722   6.971   1.947  0.9343 -0.0288  1.7260
 9422TIP3   OH228208   8.310   1.324   2.919 -0.0451 -0.1186  0.2153
 9422TIP3    H128209   8.244   1.322   2.849 -0.5016  2.5143  0.4893
 9422TIP3    H228210   8.368   1.396   2.894  0.1403  0.4637  2.2418
 9423TIP3   OH228211   3.137   2.743   6.536 -0.2832 -0.5004  0.2441
 9423TIP3    H128212   3.058   2.737   6.481  0.3511 -1.3117 -0.5845
 9423TIP3    H228213   3.206   2.771   6.476 -0.1810  1.3953  1.2119
 9424TIP3   OH228214   1.326   2.177   1.243 -0.1395  0.5606  0.1520
 9424TIP3    H128215   1.284   2.091   1.246  0.1230  0.4453  0.4263
 9424TIP3    H228216   1.295   2.215   1.161 -0.0654  0.1090 -0.0857
 9425TIP3   OH228217   4.275   6.321   3.098 -0.0104  0.5113 -0.3129
 9425TIP3    H128218   4.296   6.409   3.130  0.3064  0.5256 -0.5656
 9425TIP3    H228219   4.348   6.297   3.041  0.5842 -0.4635  0.8262
 9426TIP3   OH228220   7.813   0.353   2.401 -0.6924  0.3197  0.2668
 9426TIP3    H128221   7.767   0.437   2.399 -1.6514 -0.2193 -1.9696
 9426TIP3    H228222   7.875   0.357   2.328  0.0869 -0.4571  0.8703
 9427TIP3   OH228223   1.980   0.094   1.625  0.8407  0.1568 -0.1136
 9427TIP3    H128224   1.927   0.103   1.704  0.5923 -0.5925 -0.1911
 9427TIP3    H228225   2.040   0.021   1.643  1.6805  0.8383 -0.1185
 9428TIP3   OH228226   5.389   7.968   4.351  0.2409 -0.2778 -0.2917
 9428TIP3    H128227   5.441   7.999   4.277 -0.9184  0.9931 -0.6148
 9428TIP3    H228228   5.318   8.033   4.359 -0.3028 -1.0225  1.2025
 9429TIP3   OH228229   1.059   1.443   1.624 -0.0188  0.5633  0.2555
 9429TIP3    H128230   1.066   1.371   1.687  1.1988  1.0459  0.6789
 9429TIP3    H228231   1.039   1.520   1.677 -1.4022  0.5458 -0.2063
 9430TIP3   OH228232   8.454   1.077   1.194 -0.1083 -0.1161  0.3583
 9430TIP3    H128233   8.548   1.086   1.178  0.1121 -1.8538  0.5862
 9430TIP3    H228234   8.442   1.106   1.284 -0.0116  1.3628 -0.0871
 9431TIP3   OH228235   7.505   1.825   1.400  0.0031 -0.3229  0.2564
 9431TIP3    H128236   7.443   1.898   1.396  0.1858 -0.1309  0.8693
 9431TIP3    H228237   7.473   1.763   1.334 -0.8966 -0.2683  0.6346
 9432TIP3   OH228238   0.670   0.387   2.434  0.4435 -0.2764 -0.3573
 9432TIP3    H128239   0.604   0.325   2.400  1.5215 -0.6402 -1.8328
 9432TIP3    H228240   0.619   0.447   2.488 -0.8627 -1.5441 -0.1158
 9433TIP3   OH228241   0.183   0.771   2.426 -0.1462  0.0948 -0.1358
 9433TIP3    H128242   0.269   0.758   2.467  0.6471  1.9444 -1.1558
 9433TIP3    H228243   0.120   0.745   2.493  1.1963 -0.8130  0.7992
 9434TIP3   OH228244   1.229   0.984   3.217 -0.0894  0.6108  0.0098
 9434TIP3    H128245   1.138   1.011   3.235  0.0252  1.9701 -1.3807
 9434TIP3    H228246   1.225   0.942   3.131  0.5569  0.4035  0.0802
 9435TIP3   OH228247   5.991   7.308   2.985  0.1589 -0.3370  0.1255
 9435TIP3    H128248   6.034   7.238   2.935 -1.3946 -0.8635 -0.4862
 9435TIP3    H228249   6.046   7.385   2.969  0.5743 -0.8711 -1.0990
 9436TIP3   OH228250   8.469   0.655   1.480 -0.1410 -0.1713 -0.0997
 9436TIP3    H128251   8.497   0.571   1.517  0.4594 -0.1045 -0.3926
 9436TIP3    H228252   8.440   0.706   1.556 -0.8023 -0.7488  0.0449
 9437TIP3   OH228253   5.125   6.262   2.451 -0.6816  0.6605 -0.4334
 9437TIP3    H128254   5.095   6.353   2.457 -1.7396  0.4188 -1.7597
 9437TIP3    H228255   5.130   6.232   2.542  0.7389  2.3801  0.0693
 9438TIP3   OH228256   6.462   1.445   1.596 -0.2115  0.6931 -0.2927
 9438TIP3    H128257   6.414   1.379   1.646 -1.3449  1.8762  0.2233
 9438TIP3    H228258   6.553   1.416   1.600 -0.3310  0.5013  2.1215
 9439TIP3   OH228259   6.037   2.474   3.133  0.2561  0.0773  0.0893
 9439TIP3    H128260   6.035   2.384   3.166  2.6830  0.8385  2.3870
 9439TIP3    H228261   5.951   2.509   3.155 -0.1239 -1.1511  0.6144
 9440TIP3   OH228262   5.599   6.597   3.577 -0.0091  0.4309  0.5649
 9440TIP3    H128263   5.659   6.653   3.625  0.7388 -0.3065  0.4884
 9440TIP3    H228264   5.534   6.658   3.541  2.2898  1.6060 -1.8073
 9441TIP3   OH228265   8.477   1.741   3.924  0.1424  0.0796  0.3094
 9441TIP3    H128266   8.485   1.672   3.990 -4.6223 -2.1216 -1.2102
 9441TIP3    H228267   8.507   1.700   3.843  0.6637  0.9532  0.0585
 9442TIP3   OH228268   6.984   6.554   3.672 -0.6624  0.2571 -0.3802
 9442TIP3    H128269   7.035   6.635   3.679 -0.8944  0.5742 -2.3169
 9442TIP3    H228270   6.993   6.527   3.581  0.8046 -2.8287  0.5940
 9443TIP3   OH228271   5.519   6.193   4.233  0.0582 -0.3445 -0.0887
 9443TIP3    H128272   5.609   6.200   4.201  0.7701  0.6498  2.0860
 9443TIP3    H228273   5.500   6.099   4.233  1.8639 -0.7246  1.5242
 9444TIP3   OH228274   7.846   6.367   4.306 -0.5301  0.9129 -0.4490
 9444TIP3    H128275   7.766   6.388   4.354 -0.4990  1.2830 -0.5593
 9444TIP3    H228276   7.849   6.430   4.235  0.0230  1.1038 -0.2624
 9445TIP3   OH228277   5.360   7.394   2.392 -0.3439  0.1549  0.1298
 9445TIP3    H128278   5.393   7.305   2.382 -0.0930 -0.0404  2.5317
 9445TIP3    H228279   5.438   7.449   2.390 -0.1701  0.0090  2.0661
 9446TIP3   OH228280   6.696   6.614   3.539  0.0596  0.3260 -0.7005
 9446TIP3    H128281   6.650   6.558   3.602  0.5574 -1.3657 -1.8090
 9446TIP3    H228282   6.753   6.669   3.594  0.0693 -0.7322  0.3855
 9447TIP3   OH228283   8.414   1.728   2.632  0.6830 -0.0339 -0.0660
 9447TIP3    H128284   8.419   1.732   2.537 -0.5130 -0.9617 -0.1743
 9447TIP3    H228285   8.323   1.750   2.653  1.0898  0.8196  0.9110
 9448TIP3   OH228286   5.054   7.751   4.343  0.0873 -0.1136 -0.6095
 9448TIP3    H128287   4.968   7.742   4.384  0.3424  0.5614  0.0747
 9448TIP3    H228288   5.108   7.795   4.408  0.3266  1.5322 -1.8899
 9449TIP3   OH228289   1.611   0.138   4.864 -0.6352  0.4922  0.6541
 9449TIP3    H128290   1.632   0.177   4.949  0.2198  0.6002  0.4014
 9449TIP3    H228291   1.610   0.213   4.804  1.9174  0.0616 -0.0066
 9450TIP3   OH228292   8.061   0.353   1.698 -0.4772 -0.6232 -0.4948
 9450TIP3    H128293   8.129   0.337   1.632  0.5066  0.0234  0.3489
 9450TIP3    H228294   8.081   0.291   1.768 -0.0789  0.3408  0.2538
 9451TIP3   OH228295   1.467   0.443   2.997 -0.4438 -0.3264 -0.2626
 9451TIP3    H128296   1.482   0.537   3.002 -1.0341 -0.2048 -0.8048
 9451TIP3    H228297   1.395   0.427   3.058  1.7209 -0.8913  2.2309
 9452TIP3   OH228298   6.160   7.532   2.923  0.1901 -0.0237  0.0515
 9452TIP3    H128299   6.118   7.607   2.880 -0.5980 -0.8362 -0.6129
 9452TIP3    H228300   6.216   7.495   2.855  0.3080 -0.2446  0.2736
 9453TIP3   OH228301   6.209   7.667   1.769  0.6231  0.1561 -0.0229
 9453TIP3    H128302   6.168   7.662   1.855  1.5268 -1.2821  0.3368
 9453TIP3    H228303   6.148   7.622   1.710  0.0742  1.0148 -0.1228
 9454TIP3   OH228304   6.220   7.131   3.201 -0.5453  0.2393 -0.5135
 9454TIP3    H128305   6.281   7.059   3.186 -1.0861 -0.4323  0.4609
 9454TIP3    H228306   6.151   7.118   3.136 -1.2936 -0.8678  0.4817
 9455TIP3   OH228307   7.213   6.635   1.534 -0.2647  0.2396 -0.5107
 9455TIP3    H128308   7.298   6.603   1.502 -1.5689 -2.1348 -1.7378
 9455TIP3    H228309   7.184   6.696   1.467  0.7983  1.6333  0.2801
 9456TIP3   OH228310   3.598   7.341   0.516 -0.1671  0.3121 -0.4220
 9456TIP3    H128311   3.689   7.368   0.500  0.2540 -0.1530  1.1154
 9456TIP3    H228312   3.602   7.246   0.523 -0.6253  0.3720  0.6307
 9457TIP3   OH228313   7.071   1.552   1.907  0.6504 -0.5464 -0.4311
 9457TIP3    H128314   6.995   1.568   1.962  1.0465  2.3055 -0.6692
 9457TIP3    H228315   7.041   1.489   1.841 -0.9014 -0.9777  0.6727
 9458TIP3   OH228316   6.001   0.701   3.526  0.5073  0.4058 -0.0763
 9458TIP3    H128317   5.918   0.737   3.556  0.2427  0.3098 -0.6910
 9458TIP3    H228318   5.999   0.609   3.554  0.4381  0.4192 -0.0382
 9459TIP3   OH228319   0.701   0.735   3.429 -0.0403  0.8342 -0.5611
 9459TIP3    H128320   0.791   0.715   3.455 -0.8530  0.0199  1.7622
 9459TIP3    H228321   0.652   0.657   3.453 -2.0646  2.8041  1.9872
 9460TIP3   OH228322   8.521   0.194   4.483  0.3084 -0.3909  0.0327
 9460TIP3    H128323   8.528   0.249   4.561  0.2691  0.3119 -0.4550
 9460TIP3    H228324   8.432   0.209   4.450  0.3601 -0.6015 -0.2085
 9461TIP3   OH228325   6.914   7.289   2.236 -0.1529  0.0204 -0.3955
 9461TIP3    H128326   6.975   7.348   2.193  0.2162  0.5797  0.8681
 9461TIP3    H228327   6.961   7.259   2.315 -1.1673 -0.2351  0.1182
 9462TIP3   OH228328   1.715   0.107   3.980  0.0276 -0.0759  0.1991
 9462TIP3    H128329   1.623   0.132   3.986 -0.4691 -1.9356  0.7720
 9462TIP3    H228330   1.733   0.104   3.886 -1.0271 -1.4434  0.0153
 9463TIP3   OH228331   1.012   0.604   2.292 -0.0505 -0.5753  0.1998
 9463TIP3    H128332   1.033   0.519   2.252  0.7712  0.6954 -2.1508
 9463TIP3    H228333   0.917   0.601   2.303  0.0114 -1.9617  0.5300
 9464TIP3   OH228334   7.371   1.015   3.504 -0.2992 -0.2314  0.2395
 9464TIP3    H128335   7.318   1.024   3.426 -0.8961 -1.0132  0.5473
 9464TIP3    H228336   7.367   1.101   3.546 -0.4264  0.0267 -0.3033
 9465TIP3   OH228337   8.300   0.705   2.567 -0.0735  0.0752  0.5404
 9465TIP3    H128338   8.258   0.791   2.575  0.6966  0.5540 -0.3425
 9465TIP3    H228339   8.387   0.718   2.606  0.2763 -0.1270 -0.1649
 9466TIP3   OH228340   4.113   6.831   2.270 -0.1931  0.0032  0.0017
 9466TIP3    H128341   4.078   6.744   2.291 -0.4185  0.4962  1.7379
 9466TIP3    H228342   4.039   6.878   2.231 -0.2963 -0.3217 -0.1947
 9467TIP3   OH228343   8.463   6.802   4.710  0.2729 -0.0575 -0.6940
 9467TIP3    H128344   8.412   6.871   4.754 -0.7849 -1.3855  0.1829
 9467TIP3    H228345   8.551   6.840   4.701 -0.4012  1.5812 -0.6329
 9468TIP3   OH228346   0.688   3.996   6.759  0.0725 -0.1188  0.1308
 9468TIP3    H128347   0.624   3.971   6.826 -1.5210  1.7476 -0.6661
 9468TIP3    H228348   0.772   3.962   6.792 -0.9061 -0.4060  2.3964
 9469TIP3   OH228349   6.547   0.699   4.835 -0.2209 -0.0682  0.3986
 9469TIP3    H128350   6.464   0.744   4.821 -1.3863 -2.8948 -2.4345
 9469TIP3    H228351   6.588   0.697   4.748  1.7301 -0.7131  1.3160
 9470TIP3   OH228352   4.523   7.738   0.793  0.0962 -0.3907  0.3832
 9470TIP3    H128353   4.478   7.785   0.723 -1.1284  1.6340  2.4729
 9470TIP3    H228354   4.472   7.658   0.805 -0.9032  0.2410  0.3640
 9471TIP3   OH228355   6.920   7.836   2.645 -0.4493 -0.1531  0.0894
 9471TIP3    H128356   6.872   7.887   2.579 -0.8845  0.1497  0.6445
 9471TIP3    H228357   7.006   7.821   2.604  0.0344  1.8492  0.2775
 9472TIP3   OH228358   4.703   7.679   2.484  0.3596  0.0787 -0.1073
 9472TIP3    H128359   4.611   7.655   2.497  0.8588 -1.8882 -0.0430
 9472TIP3    H228360   4.738   7.687   2.572  0.3968  0.2683 -0.1385
 9473TIP3   OH228361   6.751   7.074   3.068 -0.0412  0.1894 -0.3087
 9473TIP3    H128362   6.746   7.061   3.163 -0.2184  0.4390 -0.2833
 9473TIP3    H228363   6.808   7.151   3.058  0.6320 -0.3296 -0.4366
 9474TIP3   OH228364   4.097   7.124   1.641 -0.0178  0.0909 -0.5630
 9474TIP3    H128365   4.116   7.031   1.634  1.6608  0.3885 -0.0816
 9474TIP3    H228366   4.173   7.161   1.685 -0.0503  1.9235 -2.0085
 9475TIP3   OH228367   0.597   0.018   2.537 -0.2073  0.0094  0.8707
 9475TIP3    H128368   0.590  -0.029   2.454 -1.7345 -1.8257  1.9982
 9475TIP3    H228369   0.690   0.012   2.560  0.0636 -0.2310 -0.2575
 9476TIP3   OH228370   4.641   6.689   3.156  0.0705 -0.4390  0.1596
 9476TIP3    H128371   4.661   6.734   3.074  3.6976 -2.2642 -0.0466
 9476TIP3    H228372   4.624   6.759   3.218  2.8117  1.1962 -0.8386
 9477TIP3   OH228373   7.127   5.562   0.951  0.3685 -0.2549 -0.0290
 9477TIP3    H128374   7.093   5.473   0.955 -0.1748 -0.0034  1.5083
 9477TIP3    H228375   7.114   5.596   1.040 -0.7926  1.8662 -0.9878
 9478TIP3   OH228376   6.358   7.424   0.738  0.2872  0.5105  0.2392
 9478TIP3    H128377   6.306   7.465   0.807 -0.7610 -0.0378 -0.2062
 9478TIP3    H228378   6.418   7.366   0.784  0.4653  1.0923  0.7588
 9479TIP3   OH228379   5.899   7.142   2.351 -0.2973 -0.0971 -0.1593
 9479TIP3    H128380   5.808   7.163   2.329 -0.3124  0.9040  0.7891
 9479TIP3    H228381   5.895   7.112   2.442  0.0489 -2.0954 -0.7594
 9480TIP3   OH228382   5.849   0.812   1.897 -0.1025  0.3616  0.0304
 9480TIP3    H128383   5.781   0.879   1.909 -0.9860 -0.6160  0.5939
 9480TIP3    H228384   5.852   0.796   1.803 -2.7150 -1.6783  0.2561
 9481TIP3   OH228385   5.950   8.001   2.973 -0.2999 -0.8197 -0.3637
 9481TIP3    H128386   5.900   8.030   2.897  0.8109 -0.6708 -1.0450
 9481TIP3    H228387   5.904   7.922   3.002 -1.3534 -0.2793 -0.5378
 9482TIP3   OH228388   0.395   0.675   3.364 -0.1803  0.5905  0.4236
 9482TIP3    H128389   0.456   0.601   3.363  0.2470  0.9361  0.4452
 9482TIP3    H228390   0.407   0.716   3.450  0.1831  1.1640  0.1090
 9483TIP3   OH228391   0.587   2.797   3.184 -0.2024  0.2052  0.0056
 9483TIP3    H128392   0.668   2.751   3.207 -0.5135 -0.2790  0.1355
 9483TIP3    H228393   0.564   2.763   3.098 -0.6364 -0.1701  0.2632
 9484TIP3   OH228394   0.784   0.846   1.498  0.6815  0.3461  0.4719
 9484TIP3    H128395   0.703   0.849   1.447  1.5434  0.2466 -0.9431
 9484TIP3    H228396   0.758   0.808   1.582 -0.4918 -1.0304 -0.4659
 9485TIP3   OH228397   1.852   0.399   1.440  0.1298  0.2182  0.3831
 9485TIP3    H128398   1.834   0.315   1.398 -1.1319 -0.3341  1.9741
 9485TIP3    H228399   1.794   0.401   1.516 -0.3299  2.8213  0.0055
 9486TIP3   OH228400   6.154   6.208   3.090  0.8364  0.1688  0.4891
 9486TIP3    H128401   6.246   6.234   3.088  1.2959 -1.4240 -0.2355
 9486TIP3    H228402   6.116   6.246   3.012  0.6835  1.4567  1.1704
 9487TIP3   OH228403   8.056   6.724   3.035 -0.5785  0.5331  0.4395
 9487TIP3    H128404   7.982   6.756   2.985 -0.0993 -1.0430 -1.3399
 9487TIP3    H228405   8.132   6.767   2.997 -0.4535  1.3556  1.5794
 9488TIP3   OH228406   6.234   7.387   1.555 -0.0702  0.0571  0.0882
 9488TIP3    H128407   6.318   7.378   1.508 -1.1271 -1.0718 -1.6454
 9488TIP3    H228408   6.171   7.409   1.486 -1.3287  0.1938  1.2746
 9489TIP3   OH228409   6.135   7.423   2.140  0.4120 -0.1979  0.3197
 9489TIP3    H128410   6.091   7.427   2.055 -1.3209 -0.0541  1.1987
 9489TIP3    H228411   6.087   7.357   2.190  2.0304 -0.9978  0.8605
 9490TIP3   OH228412   7.745   6.946   1.398 -0.0146 -0.7047 -0.0550
 9490TIP3    H128413   7.781   6.987   1.477  0.1699 -1.2909  0.1675
 9490TIP3    H228414   7.658   6.916   1.424 -0.7249  0.8101 -0.6253
 9491TIP3   OH228415   1.164   0.724   2.483 -0.9241 -0.9049  0.4352
 9491TIP3    H128416   1.235   0.667   2.513  0.0861  0.2334  0.2357
 9491TIP3    H228417   1.120   0.673   2.415 -0.7567 -1.9071  1.0682
 9492TIP3   OH228418   0.573   4.861   1.637  0.1968 -0.1281 -0.6837
 9492TIP3    H128419   0.586   4.769   1.617 -0.2411 -0.3650  0.1018
 9492TIP3    H228420   0.486   4.882   1.603  0.2597 -0.0276 -0.7837
 9493TIP3   OH228421   6.275   7.575   2.323  0.0647 -0.1781  0.5835
 9493TIP3    H128422   6.311   7.653   2.279  1.0545 -0.6520  0.5445
 9493TIP3    H228423   6.234   7.525   2.252  0.3736 -0.2208  0.4341
 9494TIP3   OH228424   1.286   0.517   1.700 -0.5039 -0.4904 -0.4743
 9494TIP3    H128425   1.219   0.557   1.755 -0.5273 -1.6122  0.3339
 9494TIP3    H228426   1.287   0.571   1.621 -1.8828 -0.0636 -0.2212
 9495TIP3   OH228427   5.676   7.212   3.313  0.0151  0.4804 -0.2671
 9495TIP3    H128428   5.603   7.214   3.375  0.9070  0.8269  0.7822
 9495TIP3    H228429   5.634   7.218   3.227 -1.0774  2.8556  0.4022
 9496TIP3   OH228430   6.954   7.758   1.793  0.1556  0.2007 -0.7325
 9496TIP3    H128431   6.950   7.737   1.886  1.2206  0.9373 -0.5170
 9496TIP3    H228432   7.048   7.763   1.773 -0.0509  2.7247 -1.2214
 9497TIP3   OH228433   7.769   7.692   2.695 -0.4755  0.0368 -0.6242
 9497TIP3    H128434   7.816   7.746   2.758 -3.3169 -0.0339  1.6926
 9497TIP3    H228435   7.751   7.750   2.621  1.6044  0.5519 -0.7344
 9498TIP3   OH228436   2.449   0.833   2.977 -0.3239 -0.5130  0.7870
 9498TIP3    H128437   2.513   0.776   3.019  3.0971  1.9718 -0.6991
 9498TIP3    H228438   2.435   0.794   2.891  1.2946  0.2865  0.1262
 9499TIP3   OH228439   7.829   7.047   1.654  0.0751  0.1949 -0.6363
 9499TIP3    H128440   7.759   7.006   1.705 -0.4276  0.4537 -1.1144
 9499TIP3    H228441   7.799   7.137   1.639 -0.0875 -0.0765 -1.9624
 9500TIP3   OH228442   1.591   5.702   2.874  0.1058 -0.1498 -0.2520
 9500TIP3    H128443   1.601   5.729   2.965 -2.4373 -0.4860  0.1732
 9500TIP3    H228444   1.536   5.623   2.878 -1.5623  0.8534 -2.1553
 9501TIP3   OH228445   5.746   7.744   1.199 -0.4391  0.6421 -0.3170
 9501TIP3    H128446   5.734   7.730   1.293 -0.8486 -0.7964 -0.5692
 9501TIP3    H228447   5.810   7.677   1.174  0.9987  2.1471 -0.7466
 9502TIP3   OH228448   4.534   7.480   2.126 -0.0332  0.2174  0.8895
 9502TIP3    H128449   4.577   7.410   2.079  0.5726  1.3436 -0.2566
 9502TIP3    H228450   4.495   7.535   2.058 -0.5128  0.9786  1.7626
 9503TIP3   OH228451   1.511   0.117   2.252 -0.3539 -0.2313  0.1060
 9503TIP3    H128452   1.503   0.126   2.347 -1.3678  0.3032 -0.0214
 9503TIP3    H228453   1.603   0.095   2.237  0.6385  3.1889  0.9549
 9504TIP3   OH228454   7.755   7.862   0.968  0.2186  0.0684  0.3657
 9504TIP3    H128455   7.721   7.859   1.057 -1.3961 -2.0546 -0.2658
 9504TIP3    H228456   7.689   7.910   0.918 -0.4151 -1.3959 -0.2544
 9505TIP3   OH228457   6.157   6.791   1.110 -0.0327 -0.5478 -0.2585
 9505TIP3    H128458   6.199   6.710   1.081  0.7429 -1.0475  2.1141
 9505TIP3    H228459   6.069   6.787   1.073  0.7207 -1.4270 -1.9655
 9506TIP3   OH228460   1.857   0.347   2.747  0.4771 -0.2020 -0.0343
 9506TIP3    H128461   1.787   0.283   2.754 -1.1960  1.5287 -0.6589
 9506TIP3    H228462   1.889   0.338   2.657 -0.6321  0.7255 -0.5281
 9507TIP3   OH228463   1.149   0.041   2.507  0.1520  0.7425  0.3958
 9507TIP3    H128464   1.200   0.120   2.490  1.9566 -0.2841  0.8801
 9507TIP3    H228465   1.150  -0.007   2.423  0.9074  0.2166  0.7000
 9508TIP3   OH228466   5.745   5.150   1.107  0.8272 -1.1508 -0.3421
 9508TIP3    H128467   5.659   5.119   1.138  1.5693 -1.9217  0.9563
 9508TIP3    H228468   5.751   5.116   1.017 -0.5400 -0.4609 -0.7092
 9509TIP3   OH228469   7.615   7.561   2.457  0.0070 -0.0485 -0.2292
 9509TIP3    H128470   7.701   7.588   2.427  0.1542 -1.5023 -1.1775
 9509TIP3    H228471   7.629   7.534   2.548  0.8591 -1.6635 -0.8263
 9510TIP3   OH228472   1.362   0.068   1.827  0.2886 -0.2355 -0.3033
 9510TIP3    H128473   1.415   0.089   1.750  0.1501 -1.0489 -0.6236
 9510TIP3    H228474   1.349  -0.026   1.822  0.3679 -0.3129  0.7786
 9511TIP3   OH228475   3.096   1.865   1.728  0.0008 -0.4639 -0.3896
 9511TIP3    H128476   3.148   1.821   1.796  1.3571  0.9395 -0.4828
 9511TIP3    H228477   3.031   1.915   1.776  0.9925  0.5689 -0.1040
 9512TIP3   OH228478   7.538   6.695   2.174 -0.2932  0.0435  0.3452
 9512TIP3    H128479   7.492   6.776   2.151  0.3285  0.1421 -0.5876
 9512TIP3    H228480   7.555   6.704   2.268 -1.6617  0.2535  0.5879
 9513TIP3   OH228481   3.236   1.422   5.606 -0.1064 -0.1010  0.1878
 9513TIP3    H128482   3.236   1.512   5.573  0.1505  0.1788  0.9227
 9513TIP3    H228483   3.329   1.401   5.618 -0.2272  0.5816  2.7489
 9514TIP3   OH228484   2.646   0.416   4.328 -0.0267 -0.4893  0.1346
 9514TIP3    H128485   2.616   0.498   4.289 -0.4063 -0.5614  0.2725
 9514TIP3    H228486   2.641   0.352   4.257  0.4736 -0.3447 -0.0296
 9515TIP3   OH228487   0.685   1.700   2.866 -0.0005  0.2716  0.0597
 9515TIP3    H128488   0.753   1.756   2.831  0.7546 -0.7488 -0.1297
 9515TIP3    H228489   0.643   1.662   2.789 -1.5970  1.8279  0.1355
 9516TIP3   OH228490   3.284   0.370   2.996  0.2484  0.7800 -0.2723
 9516TIP3    H128491   3.261   0.316   3.073 -0.0490 -0.5799 -1.2883
 9516TIP3    H228492   3.378   0.383   3.004  0.9326 -2.6614 -1.6762
 9517TIP3   OH228493   1.810   0.517   3.584 -0.3044  0.2282  0.2477
 9517TIP3    H128494   1.753   0.574   3.532 -1.0781  0.7467  1.6443
 9517TIP3    H228495   1.832   0.569   3.662  0.7464 -0.5804  0.5130
 9518TIP3   OH228496   2.211   0.633   1.849  0.1929  0.5399 -0.0651
 9518TIP3    H128497   2.192   0.600   1.761  0.4084 -1.5231  0.6172
 9518TIP3    H228498   2.293   0.589   1.874 -1.1152 -0.8032  2.0673
 9519TIP3   OH228499   7.458   6.034   4.045 -0.0371  0.1256  0.0779
 9519TIP3    H128500   7.454   5.951   3.997 -1.6709  0.7450 -0.9203
 9519TIP3    H228501   7.430   6.012   4.134  3.7533 -1.1869  1.0370
 9520TIP3   OH228502   2.844   0.748   3.315  0.5441 -0.3044  0.4800
 9520TIP3    H128503   2.879   0.837   3.312  1.1488 -0.5586 -0.1618
 9520TIP3    H228504   2.765   0.755   3.369 -0.7610  1.1024 -1.4921
 9521TIP3   OH228505   0.175   1.800   2.714  0.3214  0.1576  0.1426
 9521TIP3    H128506   0.088   1.775   2.683  1.0885  1.2493 -2.9723
 9521TIP3    H228507   0.174   1.895   2.714  1.6349  0.1726 -0.2323
 9522TIP3   OH228508   2.408   0.245   1.948  0.1436  0.3509  0.2316
 9522TIP3    H128509   2.336   0.183   1.946 -0.3113  0.9237 -2.2709
 9522TIP3    H228510   2.366   0.330   1.963  0.2301  0.7225 -1.5080
 9523TIP3   OH228511   1.281   0.604   4.780  0.0797  0.3607  0.3487
 9523TIP3    H128512   1.234   0.598   4.863 -1.7424 -0.3056 -0.7068
 9523TIP3    H228513   1.298   0.698   4.769  0.1467  0.4714  1.3689
 9524TIP3   OH228514   1.402   1.432   2.844 -0.0017  0.0292  0.0458
 9524TIP3    H128515   1.488   1.466   2.867  0.3131 -0.1551 -0.8279
 9524TIP3    H228516   1.345   1.457   2.917  0.5558  1.0965  0.1128
 9525TIP3   OH228517   7.622   7.253   4.041 -0.0752  0.0736 -0.4368
 9525TIP3    H128518   7.534   7.287   4.056  0.0122 -0.2328  0.8580
 9525TIP3    H228519   7.625   7.236   3.947 -0.2342  3.2330 -1.0631
 9526TIP3   OH228520   8.400   6.922   3.921 -0.5354 -0.1872  0.5940
 9526TIP3    H128521   8.432   6.940   3.833 -0.5134 -1.2700  0.3663
 9526TIP3    H228522   8.462   6.966   3.979  0.0878 -0.4093  0.0985
 9527TIP3   OH228523   2.943   0.597   2.033 -0.4549 -0.6361  0.1303
 9527TIP3    H128524   2.974   0.557   2.114  1.7952  1.2543  0.2674
 9527TIP3    H228525   2.957   0.530   1.966  2.0305 -0.6079  0.5654
 9528TIP3   OH228526   5.253   7.113   2.956 -0.1404  0.4128 -0.4041
 9528TIP3    H128527   5.264   7.093   3.049 -1.0404 -0.3785 -0.4558
 9528TIP3    H228528   5.192   7.187   2.954  0.3414  0.8096 -0.3416
 9529TIP3   OH228529   7.903   6.807   3.959  0.4242 -0.0804 -0.3409
 9529TIP3    H128530   7.916   6.851   3.875 -0.2168  3.4172  1.2761
 9529TIP3    H228531   7.876   6.877   4.018  0.8416 -2.4515  2.7881
 9530TIP3   OH228532   7.371   6.959   3.246  0.0223 -0.3420  0.5615
 9530TIP3    H128533   7.432   6.923   3.180 -1.0865  0.6448 -1.0462
 9530TIP3    H228534   7.297   6.991   3.194 -0.5821  1.0519  2.2481
 9531TIP3   OH228535   1.995   2.429   3.630  0.1033  0.2324  0.1001
 9531TIP3    H128536   2.053   2.364   3.669  1.1125  0.4020 -1.0790
 9531TIP3    H228537   2.025   2.513   3.665  0.3308  0.2831 -0.2119
 9532TIP3   OH228538   8.062   0.212   3.029 -0.0738  0.3905  0.0371
 9532TIP3    H128539   8.031   0.154   3.098  0.7411  0.8803  0.8246
 9532TIP3    H228540   8.046   0.164   2.948 -0.8352 -0.2774  0.5838
 9533TIP3   OH228541   2.520   0.661   0.773  0.4552  0.3485 -0.6233
 9533TIP3    H128542   2.480   0.743   0.743 -0.4953 -0.2530 -0.9922
 9533TIP3    H228543   2.594   0.690   0.827  0.4329  1.4504 -1.1631
 9534TIP3   OH228544   5.513   5.418   0.981  0.2410 -0.4031 -0.0728
 9534TIP3    H128545   5.568   5.405   1.059  1.7485  0.3273 -0.9963
 9534TIP3    H228546   5.459   5.494   1.004  3.0221  1.9297 -0.9553
 9535TIP3   OH228547   5.569   7.022   1.044 -0.4075  0.3809  0.1580
 9535TIP3    H128548   5.588   7.081   1.116 -3.7031  1.3604  0.2718
 9535TIP3    H228549   5.608   7.064   0.967  1.3380  0.3378  1.0108
 9536TIP3   OH228550   1.490   2.400   6.854 -0.2032 -0.8369 -0.5201
 9536TIP3    H128551   1.533   2.400   6.940 -0.4260 -0.2605 -0.4112
 9536TIP3    H228552   1.428   2.327   6.860 -0.5903 -0.4707 -0.0064
 9537TIP3   OH228553   4.904   6.315   0.987 -0.2194  0.5712 -0.3597
 9537TIP3    H128554   4.846   6.337   1.059  0.5012  0.2485  0.3300
 9537TIP3    H228555   4.932   6.225   1.005  0.1244  0.5615 -0.9257
 9538TIP3   OH228556   3.617   1.082   6.923  0.4067  0.2786  0.1071
 9538TIP3    H128557   3.711   1.094   6.930  0.3597 -0.0492  1.4235
 9538TIP3    H228558   3.588   1.152   6.864  1.3079  1.0575  0.5736
 9539TIP3   OH228559   7.369   7.449   1.782 -0.5119 -0.3480  0.6297
 9539TIP3    H128560   7.273   7.448   1.793 -0.5741  1.2763  0.2552
 9539TIP3    H228561   7.395   7.358   1.798 -1.9664 -0.5277  2.1371
 9540TIP3   OH228562   7.125   5.657   1.517  0.1015  0.1974 -0.1146
 9540TIP3    H128563   7.150   5.750   1.514 -0.0084  0.2308 -0.0465
 9540TIP3    H228564   7.197   5.614   1.562  0.4628  0.1399 -0.7487
 9541TIP3   OH228565   2.670   2.076   5.812 -0.5009  0.3315 -0.9946
 9541TIP3    H128566   2.623   2.146   5.855  0.8839  1.9286 -2.0057
 9541TIP3    H228567   2.688   2.109   5.724  1.3281 -0.7328 -1.0615
 9542TIP3   OH228568   3.780   3.162   6.224  0.4075 -0.1451  0.6097
 9542TIP3    H128569   3.749   3.129   6.308 -1.0209  1.9487  0.9350
 9542TIP3    H228570   3.700   3.175   6.173  1.1633  0.0278 -0.5382
 9543TIP3   OH228571   4.992   4.777   0.068  0.0290  0.2262 -0.1416
 9543TIP3    H128572   4.910   4.825   0.060  0.5164  1.3860  1.4572
 9543TIP3    H228573   4.992   4.746   0.159  0.5562 -1.2857 -0.6398
 9544TIP3   OH228574   1.550   2.206   4.991  0.5649 -0.4903  0.0346
 9544TIP3    H128575   1.549   2.153   4.911  1.1569 -1.6436  0.7759
 9544TIP3    H228576   1.468   2.255   4.988 -0.4109 -2.0852 -0.2525
 9545TIP3   OH228577   4.722   5.789   2.579 -0.4159 -0.1641 -0.2876
 9545TIP3    H128578   4.653   5.730   2.547 -0.1917  0.4586 -1.9521
 9545TIP3    H228579   4.693   5.814   2.667 -1.4430 -1.2853 -0.3022
 9546TIP3   OH228580   4.241   7.383   1.572  0.2095 -0.0557 -0.3806
 9546TIP3    H128581   4.292   7.447   1.523  0.0374  0.4765  0.1276
 9546TIP3    H228582   4.172   7.435   1.613  1.6066 -0.1604  2.1701
 9547TIP3   OH228583   6.553   3.986   0.488  0.1520  0.2720  0.1498
 9547TIP3    H128584   6.636   4.028   0.512  0.7355 -1.0147  0.4246
 9547TIP3    H228585   6.536   3.923   0.559 -0.6199 -0.0870 -0.3409
 9548TIP3   OH228586   5.975   5.291   0.601  0.2336  0.1457 -0.3695
 9548TIP3    H128587   6.050   5.237   0.627 -0.0366  0.0490  0.2085
 9548TIP3    H228588   6.003   5.333   0.520  1.5306  1.3398  0.6694
 9549TIP3   OH228589   4.847   5.192   0.844  0.6378  0.3840  0.6165
 9549TIP3    H128590   4.827   5.191   0.937  0.9756  0.6088  0.6936
 9549TIP3    H228591   4.839   5.285   0.819 -0.8656  0.1340  0.1085
 9550TIP3   OH228592   6.350   4.556   0.156 -0.5436  0.0032  0.8790
 9550TIP3    H128593   6.327   4.646   0.131  0.2246 -0.4347 -1.5086
 9550TIP3    H228594   6.444   4.551   0.143 -0.6129 -1.2094  0.8176
 9551TIP3   OH228595   3.614   2.187   5.835 -0.6805  0.0317  0.0540
 9551TIP3    H128596   3.657   2.267   5.803  1.3613 -0.6381  1.0349
 9551TIP3    H228597   3.608   2.200   5.930  1.7085 -1.9189  0.5042
 9552TIP3   OH228598   1.988   1.496   5.772 -0.0255 -0.0723 -0.0414
 9552TIP3    H128599   1.900   1.530   5.762  0.1424  0.4618  0.2556
 9552TIP3    H228600   1.985   1.408   5.734 -0.0202  0.9168 -2.4043
 9553TIP3   OH228601   0.205   0.926   5.338  0.2355 -0.2138 -0.2550
 9553TIP3    H128602   0.291   0.906   5.373  0.8384  1.2406 -0.8717
 9553TIP3    H228603   0.222   0.959   5.250 -1.0333 -0.9084 -0.7759
 9554TIP3   OH228604   1.558   0.406   4.735  0.3610 -0.2342 -0.3097
 9554TIP3    H128605   1.467   0.433   4.743  0.1948 -1.2448  1.5615
 9554TIP3    H228606   1.609   0.484   4.756 -0.0932 -0.1935  0.6675
 9555TIP3   OH228607   0.348   2.148   5.141 -0.1376  0.3036  0.0535
 9555TIP3    H128608   0.300   2.066   5.157  1.0154 -0.2079  1.0067
 9555TIP3    H228609   0.296   2.214   5.186 -1.6573  0.2879 -1.6315
 9556TIP3   OH228610   3.419   5.892   0.150  1.1373 -0.4692 -0.7345
 9556TIP3    H128611   3.482   5.957   0.183 -0.1857  1.7425 -2.4652
 9556TIP3    H228612   3.387   5.849   0.229  0.7606  2.1994  0.6570
 9557TIP3   OH228613   5.457   3.285   6.349  0.2274 -0.4326 -0.2594
 9557TIP3    H128614   5.395   3.356   6.336  1.3088  0.3368 -1.3738
 9557TIP3    H228615   5.524   3.322   6.407 -0.0374 -1.0691  0.4629
 9558TIP3   OH228616   3.538   6.511   0.096  0.0790  0.0138  0.1626
 9558TIP3    H128617   3.528   6.536   0.005  1.3442 -2.0175 -0.5581
 9558TIP3    H228618   3.500   6.584   0.145 -1.5063  0.6709 -1.9859
 9559TIP3   OH228619   5.539   5.278   0.745  1.2883  0.1689 -0.3840
 9559TIP3    H128620   5.530   5.313   0.834 -0.7869 -0.6736 -0.2194
 9559TIP3    H228621   5.593   5.342   0.699 -0.6529  2.4935  0.4715
 9560TIP3   OH228622   6.860   6.422  -0.001  0.0354 -0.4375 -0.4502
 9560TIP3    H128623   6.950   6.388   0.000 -0.1934 -1.0039  2.1426
 9560TIP3    H228624   6.853   6.473   0.079 -1.7602  0.1484 -0.9821
 9561TIP3   OH228625   1.878   1.082   6.760 -0.1660 -0.0354 -0.3886
 9561TIP3    H128626   1.869   1.144   6.833 -0.3630  1.2295 -1.4496
 9561TIP3    H228627   1.958   1.033   6.778 -0.6521 -0.3022  1.0852
 9562TIP3   OH228628   7.314   7.137   0.452 -0.2816 -0.2194 -0.9404
 9562TIP3    H128629   7.247   7.188   0.498  0.5674 -1.7473  2.1620
 9562TIP3    H228630   7.387   7.198   0.441 -0.7045  0.3214 -0.7577
 9563TIP3   OH228631   5.353   6.307   0.035 -0.6953  0.3503 -0.4188
 9563TIP3    H128632   5.384   6.217   0.034  1.3883  1.0442 -0.2762
 9563TIP3    H228633   5.257   6.300   0.033 -0.5356 -1.8350 -1.1904
 9564TIP3   OH228634   2.098   1.573   4.965  0.1869 -0.3394  0.5650
 9564TIP3    H128635   2.069   1.649   4.915 -2.0937 -1.9682 -0.6476
 9564TIP3    H228636   2.055   1.583   5.050 -0.9615 -0.7925  0.0504
 9565TIP3   OH228637   7.788   4.826   1.560 -0.1887 -0.0612 -0.0696
 9565TIP3    H128638   7.695   4.810   1.544 -0.1080 -0.3653 -0.2444
 9565TIP3    H228639   7.799   4.811   1.654 -0.3072 -0.0842 -0.0595
 9566TIP3   OH228640   6.076   4.449   0.063  0.6193  0.0512  0.0189
 9566TIP3    H128641   6.000   4.462   0.120 -0.5684 -0.4071 -1.4251
 9566TIP3    H228642   6.142   4.510   0.097 -0.0249 -0.2772  1.9238
 9567TIP3   OH228643   4.036   2.130   0.805  0.0679 -0.2966 -0.1204
 9567TIP3    H128644   3.983   2.156   0.729 -1.8567 -1.0320  0.9406
 9567TIP3    H228645   4.105   2.196   0.810 -1.0066  0.9354 -1.2782
 9568TIP3   OH228646   7.008   5.175   0.401  0.0294 -0.0840  0.3919
 9568TIP3    H128647   6.985   5.084   0.422 -2.3947  0.6318  0.8962
 9568TIP3    H228648   7.048   5.208   0.482  0.1327 -0.4320  0.4862
 9569TIP3   OH228649   2.302   1.152   6.379  0.3390  0.4486  0.1550
 9569TIP3    H128650   2.274   1.167   6.469 -1.7277  1.6984 -0.6664
 9569TIP3    H228651   2.222   1.158   6.327  1.4630 -0.4543 -1.7604
 9570TIP3   OH228652   5.207   5.517   0.369 -0.0315 -0.1584  0.0870
 9570TIP3    H128653   5.293   5.503   0.408  0.3986 -0.8930 -1.1136
 9570TIP3    H228654   5.158   5.437   0.389 -0.2080 -0.0351  0.1522
 9571TIP3   OH228655   3.858   0.992   5.901 -0.1266  0.1507 -0.5513
 9571TIP3    H128656   3.842   1.003   5.995  0.6502  0.2087 -0.4265
 9571TIP3    H228657   3.836   0.900   5.884 -1.8802  0.5585 -0.6485
 9572TIP3   OH228658   4.092   2.912   6.153  0.4412  0.0736  0.4840
 9572TIP3    H128659   4.062   2.931   6.242 -0.2133  1.7704 -0.0710
 9572TIP3    H228660   4.179   2.952   6.149  1.1739 -1.4319  0.8550
 9573TIP3   OH228661   6.029   3.700   2.589  0.6755 -0.1281 -0.3020
 9573TIP3    H128662   5.973   3.663   2.658 -1.2220  0.1572 -1.6427
 9573TIP3    H228663   5.979   3.774   2.555  1.3159 -0.6407 -2.3922
 9574TIP3   OH228664   8.005   4.381   1.271  0.4352  0.0307 -0.5992
 9574TIP3    H128665   7.971   4.436   1.342  0.5631 -2.0260  1.1123
 9574TIP3    H228666   8.092   4.416   1.253  0.0104  1.1924 -0.4101
 9575TIP3   OH228667   6.894   3.211   0.199  0.3749 -0.0901 -0.1150
 9575TIP3    H128668   6.983   3.195   0.229 -0.4691 -0.4266  2.3446
 9575TIP3    H228669   6.842   3.216   0.279 -1.8879 -0.2612 -1.5114
 9576TIP3   OH228670   2.406   7.949   6.147 -0.0052  0.0692  0.2806
 9576TIP3    H128671   2.395   7.862   6.185 -0.5161  0.2307  0.5164
 9576TIP3    H228672   2.383   8.009   6.219 -0.4038  0.3863 -0.1146
 9577TIP3   OH228673   2.750   2.171   6.214  0.2877 -0.0128 -0.0522
 9577TIP3    H128674   2.728   2.097   6.158  0.8518 -0.0022 -0.2883
 9577TIP3    H228675   2.769   2.132   6.299 -0.5398 -0.0308  0.1301
 9578TIP3   OH228676   6.918   3.710   1.077  0.7850  0.3666 -0.0649
 9578TIP3    H128677   6.860   3.681   1.147  1.5283  1.5794  1.0764
 9578TIP3    H228678   6.868   3.778   1.031 -0.2245 -1.3578 -1.5743
 9579TIP3   OH228679   6.613   6.236   0.692 -0.0246  0.3116  0.4714
 9579TIP3    H128680   6.573   6.156   0.726 -0.2418  0.3687  0.3516
 9579TIP3    H228681   6.566   6.253   0.610  2.4986 -1.5191 -1.4454
 9580TIP3   OH228682   6.472   6.145   0.317  0.4449 -0.0848 -0.2206
 9580TIP3    H128683   6.567   6.134   0.314  0.3036 -1.7359  0.5753
 9580TIP3    H228684   6.458   6.214   0.382  1.0595 -0.6770  0.5562
 9581TIP3   OH228685   5.493   4.036   0.699 -0.1012 -0.8979  0.3022
 9581TIP3    H128686   5.586   4.050   0.721 -0.2876 -0.2607  0.6995
 9581TIP3    H228687   5.483   4.077   0.613 -0.1838 -0.2979  0.5909
 9582TIP3   OH228688   3.389   3.751   2.063 -0.1679 -0.1246 -0.4420
 9582TIP3    H128689   3.469   3.718   2.022  0.2577 -0.6991  0.8018
 9582TIP3    H228690   3.417   3.781   2.150 -0.5798  3.4980 -1.5000
 9583TIP3   OH228691   3.517   0.426   6.826 -0.2998  0.1942 -0.3742
 9583TIP3    H128692   3.496   0.406   6.917 -1.6172 -0.3961 -0.7966
 9583TIP3    H228693   3.432   0.428   6.782  0.2185  1.6839 -1.3519
 9584TIP3   OH228694   5.582   6.167   0.323  0.6823  0.4966 -0.2691
 9584TIP3    H128695   5.516   6.103   0.353  1.3921 -0.2394 -0.2504
 9584TIP3    H228696   5.661   6.144   0.372  1.6643 -0.2590 -2.1650
 9585TIP3   OH228697   7.332   5.128   0.072  0.5563  0.3740 -0.1261
 9585TIP3    H128698   7.289   5.045   0.053 -1.8981  1.3799  0.8026
 9585TIP3    H228699   7.391   5.109   0.144  0.9787 -0.8379 -0.7827
 9586TIP3   OH228700   1.887   2.590   5.896  0.1722 -0.5055 -0.6375
 9586TIP3    H128701   1.939   2.582   5.976 -0.9019  0.6166  0.1840
 9586TIP3    H228702   1.796   2.581   5.925 -0.2327 -0.0242 -1.7256
 9587TIP3   OH228703   3.335   0.131   6.713  0.7378 -0.6282  0.3684
 9587TIP3    H128704   3.278   0.054   6.711 -1.6479  1.0070  1.6338
 9587TIP3    H228705   3.362   0.138   6.805  0.7507  0.1581  0.3062
 9588TIP3   OH228706   6.230   3.145   0.663  0.2526  0.1145 -0.0150
 9588TIP3    H128707   6.226   3.075   0.728 -0.9227  0.8381  0.7212
 9588TIP3    H228708   6.172   3.213   0.698 -0.8423  0.2765 -2.0917
 9589TIP3   OH228709   5.837   5.004   0.613  0.7011  0.0497  0.5601
 9589TIP3    H128710   5.792   4.954   0.546 -1.1660  0.4907  1.4476
 9589TIP3    H228711   5.850   5.091   0.574 -1.3550  0.6385  1.1146
 9590TIP3   OH228712   3.553   0.753   6.019 -0.2699 -0.5881 -0.4524
 9590TIP3    H128713   3.540   0.779   5.928  0.4404  0.6135 -0.2210
 9590TIP3    H228714   3.496   0.811   6.069 -0.6042 -1.1979 -0.1195
 9591TIP3   OH228715   4.237   0.146   6.404  0.1247 -0.2442 -0.3307
 9591TIP3    H128716   4.245   0.237   6.431 -1.1087 -0.3578  0.4610
 9591TIP3    H228717   4.303   0.135   6.335  0.0693  1.3300 -0.6492
 9592TIP3   OH228718   3.933   4.966   2.643  0.2689  0.6582  0.2452
 9592TIP3    H128719   3.937   4.879   2.603  1.0372  0.6597  0.3128
 9592TIP3    H228720   3.892   5.021   2.576  1.7730  0.7079 -0.6632
 9593TIP3   OH228721   3.096   0.833   6.447  0.3681  0.2119 -0.3138
 9593TIP3    H128722   3.078   0.762   6.509  2.8430  0.0206  0.2294
 9593TIP3    H228723   3.052   0.806   6.366 -0.3793 -0.9909  0.4749
 9594TIP3   OH228724   1.225   6.438   6.361 -0.3652 -0.5788  0.8554
 9594TIP3    H128725   1.243   6.492   6.438 -0.8839  2.0184 -0.7920
 9594TIP3    H228726   1.163   6.372   6.393  1.4443 -1.2079  3.2612
 9595TIP3   OH228727   4.620   1.498   5.521  0.4022  0.0811  0.4338
 9595TIP3    H128728   4.644   1.589   5.536  0.0375  1.2495 -4.9151
 9595TIP3    H228729   4.533   1.490   5.560  0.2451  2.1610  0.5883
 9596TIP3   OH228730   8.257   5.515   0.713 -0.0068  0.0048  0.8012
 9596TIP3    H128731   8.176   5.564   0.699  0.8009  0.9766 -0.6195
 9596TIP3    H228732   8.316   5.578   0.752  0.4476 -0.3563  0.6969
 9597TIP3   OH228733   5.926   6.694   0.971 -0.2114  0.3481  0.1111
 9597TIP3    H128734   5.909   6.625   0.907 -0.4616  1.3683 -0.9623
 9597TIP3    H228735   5.845   6.699   1.023 -1.0773  1.3421 -1.2844
 9598TIP3   OH228736   2.249   1.776   6.736 -0.1489 -0.4579  0.2141
 9598TIP3    H128737   2.222   1.715   6.667  2.7643 -0.0066 -1.3727
 9598TIP3    H228738   2.322   1.825   6.698 -0.0003  1.4245  2.8087
 9599TIP3   OH228739   7.827   5.097   1.457 -0.0638  0.5970 -0.1080
 9599TIP3    H128740   7.757   5.089   1.392 -1.0757  0.3353  0.9879
 9599TIP3    H228741   7.839   5.008   1.490 -0.8101  0.9921  1.3180
 9600TIP3   OH228742   6.240   4.188   0.054 -0.3830 -0.2217 -0.3131
 9600TIP3    H128743   6.175   4.253   0.080 -0.4432 -0.2272 -0.4468
 9600TIP3    H228744   6.218   4.109   0.103 -0.3458 -0.1575 -0.1947
 9601TIP3   OH228745   4.122   1.877   6.494  0.0467 -0.1794  0.1342
 9601TIP3    H128746   4.071   1.950   6.531 -0.1750 -1.2086  1.9086
 9601TIP3    H228747   4.064   1.801   6.504  1.2695 -1.0520  0.6231
 9602TIP3   OH228748   4.796   2.900   6.262  0.2066  0.3129 -0.3945
 9602TIP3    H128749   4.718   2.884   6.209 -0.0670  0.8509 -0.1530
 9602TIP3    H228750   4.807   2.821   6.314 -0.0228  0.1304 -0.6212
 9603TIP3   OH228751   4.554   2.240   6.219  0.3686  0.1630  0.2380
 9603TIP3    H128752   4.576   2.333   6.227  0.5750  0.4351 -2.9149
 9603TIP3    H228753   4.614   2.196   6.278 -0.3203  2.0651  2.4735
 9604TIP3   OH228754   7.467   5.467   0.318 -0.1556 -0.2042  0.4278
 9604TIP3    H128755   7.467   5.406   0.244  0.2968 -0.2758  0.4850
 9604TIP3    H228756   7.447   5.552   0.279 -2.5095 -0.6565  0.5795
 9605TIP3   OH228757   6.669   4.377   2.106 -0.3808 -0.4148  0.1267
 9605TIP3    H128758   6.695   4.361   2.015 -0.4646  0.4815 -0.0635
 9605TIP3    H228759   6.602   4.446   2.100 -0.2072 -0.1752  0.8846
 9606TIP3   OH228760   2.553   2.652   6.131 -0.1812 -0.2973 -0.0846
 9606TIP3    H128761   2.597   2.568   6.146 -1.0027 -0.8620 -0.7988
 9606TIP3    H228762   2.465   2.640   6.168 -1.1373 -0.6062 -2.3585
 9607TIP3   OH228763   6.646   6.566   0.454 -0.0008  0.2619 -0.0375
 9607TIP3    H128764   6.674   6.657   0.450 -0.0889  0.2400 -1.4181
 9607TIP3    H228765   6.700   6.521   0.389 -0.5853 -0.5007 -0.0094
 9608TIP3   OH228766   4.255   3.428   6.737 -0.3897  0.3210  0.0831
 9608TIP3    H128767   4.209   3.423   6.821  0.4473 -0.5210  0.5075
 9608TIP3    H228768   4.187   3.447   6.673 -1.1889 -0.0206  0.8216
 9609TIP3   OH228769   7.435   3.386   0.604  0.1333 -0.0139 -0.2694
 9609TIP3    H128770   7.494   3.411   0.675  0.3926  1.4165 -0.9748
 9609TIP3    H228771   7.493   3.358   0.533  0.0383  2.3161 -1.3137
 9610TIP3   OH228772   3.681  -0.004   6.345  0.0843 -0.3351  0.2565
 9610TIP3    H128773   3.628   0.071   6.369 -0.3070 -1.0417  1.6238
 9610TIP3    H228774   3.765   0.033   6.315 -0.6229  0.6954 -0.4639
 9611TIP3   OH228775   6.053   4.893   0.829  0.0629  0.2141  0.1080
 9611TIP3    H128776   6.048   4.806   0.869  0.7846 -0.8952 -2.1009
 9611TIP3    H228777   5.971   4.902   0.780  0.1706  0.5911 -0.0027
 9612TIP3   OH228778   3.920   1.475   5.587 -0.1439  0.0524 -0.0346
 9612TIP3    H128779   3.921   1.401   5.526 -1.2618  0.4577 -0.5492
 9612TIP3    H228780   3.934   1.552   5.532 -0.0436  0.3270  0.3699
 9613TIP3   OH228781   4.252   2.526   2.201  0.0550  0.3635  0.3739
 9613TIP3    H128782   4.323   2.521   2.137 -1.5044 -0.1488 -1.3288
 9613TIP3    H228783   4.291   2.492   2.282  1.6409 -0.2481 -0.6279
 9614TIP3   OH228784   6.215   4.302   1.997 -0.7388 -0.0200  1.0535
 9614TIP3    H128785   6.245   4.325   1.909 -0.8140 -0.6866  0.8486
 9614TIP3    H228786   6.253   4.216   2.013 -2.0352 -0.6173  1.0172
 9615TIP3   OH228787   0.425   7.869   6.690 -0.3347 -0.0283  0.1139
 9615TIP3    H128788   0.444   7.825   6.607  0.7767  0.0626  0.3149
 9615TIP3    H228789   0.483   7.827   6.753 -1.2624 -0.1762  0.8759
 9616TIP3   OH228790   0.266   5.004   0.805 -0.2485 -0.3703 -0.0154
 9616TIP3    H128791   0.333   4.947   0.768 -0.0860 -0.3018  0.1721
 9616TIP3    H228792   0.283   5.090   0.766 -0.8312 -0.5704 -0.7213
 9617TIP3   OH228793   6.314   4.822   1.501 -0.5345 -0.7085 -0.1699
 9617TIP3    H128794   6.357   4.754   1.449  2.0059 -0.0782  1.0277
 9617TIP3    H228795   6.271   4.774   1.572  1.8973 -1.0668  1.1138
 9618TIP3   OH228796   2.785   0.065   4.582  0.6140  0.0896 -0.0898
 9618TIP3    H128797   2.757   0.072   4.491 -0.6960  1.0120  0.3743
 9618TIP3    H228798   2.706   0.081   4.633  0.8244 -2.6811  1.2184
 9619TIP3   OH228799   3.768   0.349   6.464  0.1051 -0.2351  0.2944
 9619TIP3    H128800   3.696   0.288   6.478  0.5973 -0.9598 -0.3272
 9619TIP3    H228801   3.839   0.296   6.427  0.3486  0.8027 -0.7680
 9620TIP3   OH228802   1.577   4.594   1.022  0.0958 -0.2970 -0.0715
 9620TIP3    H128803   1.483   4.595   1.003 -0.0045  2.8075  0.3566
 9620TIP3    H228804   1.618   4.568   0.939 -1.0421 -0.0910 -0.7027
 9621TIP3   OH228805   7.378   3.717   2.232 -0.0081  0.2998 -0.2657
 9621TIP3    H128806   7.420   3.636   2.262 -0.6374  0.4610  1.0897
 9621TIP3    H228807   7.387   3.714   2.136 -0.1386 -1.4255 -0.2472
 9622TIP3   OH228808   5.777   1.394   6.896 -0.1804  0.0535  0.5605
 9622TIP3    H128809   5.719   1.444   6.953  1.6183 -1.1816  3.5556
 9622TIP3    H228810   5.744   1.304   6.901  1.6934 -0.5861  1.9851
 9623TIP3   OH228811   3.107   3.747   2.016 -0.3031  0.1432  0.8967
 9623TIP3    H128812   3.064   3.832   2.006  0.7121  0.5486 -0.1658
 9623TIP3    H228813   3.200   3.768   2.027 -0.1283 -0.8013  1.3242
 9624TIP3   OH228814   4.531   5.096   2.520  0.1977 -0.7326  0.0011
 9624TIP3    H128815   4.523   5.104   2.616 -1.3040 -0.2535 -0.1532
 9624TIP3    H228816   4.501   5.007   2.501 -0.2168 -0.5789 -0.0851
 9625TIP3   OH228817   6.502   0.059   4.011 -0.2624 -0.1471 -0.0177
 9625TIP3    H128818   6.570   0.085   3.949  2.3489 -0.2216  2.6868
 9625TIP3    H228819   6.459  -0.016   3.969  1.8967 -0.6372 -1.4568
 9626TIP3   OH228820   6.726   4.295   1.113  0.2842  0.2461  0.2582
 9626TIP3    H128821   6.814   4.276   1.080 -0.1215 -1.6790  0.2304
 9626TIP3    H228822   6.705   4.220   1.169 -2.4110 -0.6852 -1.9096
 9627TIP3   OH228823   6.078   3.704   0.413 -0.1240 -0.2674 -0.4957
 9627TIP3    H128824   6.014   3.761   0.455  0.0096 -0.2624 -0.2986
 9627TIP3    H228825   6.154   3.759   0.399 -0.2556 -0.2054 -0.9657
 9628TIP3   OH228826   6.309   5.941   0.246 -0.1485 -0.1609  0.7049
 9628TIP3    H128827   6.358   6.023   0.252 -0.2048 -0.0477 -0.3494
 9628TIP3    H228828   6.328   5.895   0.328  0.0401  0.8167  1.2118
 9629TIP3   OH228829   7.496   6.630   1.906 -0.1814 -0.6174 -0.3450
 9629TIP3    H128830   7.537   6.669   1.984 -0.8329 -1.3983  0.4007
 9629TIP3    H228831   7.402   6.628   1.927 -0.3265 -1.0965 -1.0358
 9630TIP3   OH228832   5.805   3.676   1.620  0.4023 -0.4184  0.0792
 9630TIP3    H128833   5.808   3.597   1.674  0.6545  0.1138  0.8635
 9630TIP3    H228834   5.718   3.676   1.582 -0.0138 -0.4678  1.0078
 9631TIP3   OH228835   5.522   3.118   1.896 -0.0007  0.0071 -0.3543
 9631TIP3    H128836   5.452   3.138   1.958  0.2549 -0.8420  0.2224
 9631TIP3    H228837   5.513   3.184   1.827 -1.7513 -0.4510 -0.5875
 9632TIP3   OH228838   7.594   6.747   2.469 -0.2820  0.5705  0.0268
 9632TIP3    H128839   7.547   6.728   2.550 -1.1864 -0.8756 -0.8361
 9632TIP3    H228840   7.683   6.714   2.485 -0.2765  0.8791  0.6588
 9633TIP3   OH228841   2.518   7.604   5.383  0.7533  0.1797 -0.1347
 9633TIP3    H128842   2.458   7.541   5.343  0.1805  0.3035  0.5169
 9633TIP3    H228843   2.584   7.621   5.316  0.8250 -1.0020 -0.3804
 9634TIP3   OH228844   6.401   5.451   0.026 -0.0061 -0.4513  0.7812
 9634TIP3    H128845   6.386   5.392  -0.048 -2.0542  1.4058 -0.3603
 9634TIP3    H228846   6.314   5.466   0.063  0.6749  0.6212  2.0223
 9635TIP3   OH228847   5.837   4.525   0.748  0.3688 -0.4416  0.0578
 9635TIP3    H128848   5.856   4.582   0.674  2.7312 -0.1483  0.8650
 9635TIP3    H228849   5.871   4.440   0.722 -0.7833 -0.8717 -0.0709
 9636TIP3   OH228850   7.007   6.071   0.915  0.0583  0.8110  0.0089
 9636TIP3    H128851   6.926   6.074   0.864  0.0018 -0.7050 -0.0319
 9636TIP3    H228852   7.015   6.158   0.953 -0.7308  1.4741 -1.3086
 9637TIP3   OH228853   6.063   4.036   0.603 -0.1494 -0.4465 -0.1946
 9637TIP3    H128854   6.013   4.015   0.681  1.5010  0.4723  1.1403
 9637TIP3    H228855   6.142   4.079   0.636  0.3176  0.4385 -2.3974
 9638TIP3   OH228856   5.944   5.270   2.555  0.2099  0.4027 -0.2939
 9638TIP3    H128857   5.942   5.238   2.646  0.0302 -1.4754 -0.9387
 9638TIP3    H228858   5.901   5.201   2.505  0.3403  1.4236 -1.8246
 9639TIP3   OH228859   3.208   2.212   6.892  0.5260 -0.2581 -0.5283
 9639TIP3    H128860   3.153   2.252   6.960  0.0968  1.4612 -1.8436
 9639TIP3    H228861   3.257   2.144   6.938  0.2291  0.8495  1.5065
 9640TIP3   OH228862   2.404   1.408   6.707  0.2316  0.0516 -0.0444
 9640TIP3    H128863   2.372   1.318   6.709 -1.3849  0.6043  2.3557
 9640TIP3    H228864   2.490   1.404   6.748 -0.6275 -0.1674  1.8108
 9641TIP3   OH228865   7.553   3.063   0.472  0.2074  0.2308 -0.3416
 9641TIP3    H128866   7.603   2.982   0.479 -0.5415 -0.3518 -1.5094
 9641TIP3    H228867   7.601   3.114   0.407 -0.3774 -0.0825 -1.0244
 9642TIP3   OH228868   8.080   5.064   2.413  0.4468 -0.0888  0.2231
 9642TIP3    H128869   8.076   5.155   2.384 -0.4312 -1.4169 -4.1895
 9642TIP3    H228870   8.172   5.039   2.401  0.4601 -0.1318  0.4084
 9643TIP3   OH228871   6.693   0.769   6.196 -0.3907  0.2545  0.2023
 9643TIP3    H128872   6.766   0.727   6.151 -0.0467  0.1789  0.8344
 9643TIP3    H228873   6.659   0.702   6.256  0.0365  0.8071  1.0711
 9644TIP3   OH228874   3.829   6.829   5.437 -0.1680  0.7136  0.9115
 9644TIP3    H128875   3.829   6.918   5.471 -0.1530  0.3540  1.8706
 9644TIP3    H228876   3.739   6.813   5.410 -0.3960  0.6390  1.7370
 9645TIP3   OH228877   7.431   5.946   2.541 -0.1933 -0.1878  0.8437
 9645TIP3    H128878   7.469   5.872   2.588  1.5976 -0.4736 -0.9527
 9645TIP3    H228879   7.398   5.907   2.460 -0.1496  0.8181  0.3395
 9646TIP3   OH228880   3.132   1.000   4.902 -0.2908 -0.6571 -0.3511
 9646TIP3    H128881   3.102   0.929   4.846 -1.6457 -0.8507  0.6016
 9646TIP3    H228882   3.062   1.065   4.898 -0.6687 -0.9060  1.5287
 9647TIP3   OH228883   7.453   5.366   0.029  0.7581 -0.1468 -0.3415
 9647TIP3    H128884   7.369   5.407   0.054  1.1615 -0.0734  0.9300
 9647TIP3    H228885   7.429   5.278   0.001 -0.1568  0.9718 -3.3216
 9648TIP3   OH228886   6.581   3.322   1.348  0.0546  0.4750 -0.0374
 9648TIP3    H128887   6.486   3.334   1.347 -0.1056 -0.6268  0.6310
 9648TIP3    H228888   6.601   3.282   1.264 -0.4062 -1.4935  0.7527
 9649TIP3   OH228889   3.476   2.616   3.060 -0.9917 -0.4706  0.2767
 9649TIP3    H128890   3.429   2.651   3.136 -2.8430 -0.7880 -0.7000
 9649TIP3    H228891   3.506   2.529   3.087  1.4918  0.8083  1.8583
 9650TIP3   OH228892   3.467   1.409   6.182  0.4914 -0.5609  0.7549
 9650TIP3    H128893   3.373   1.401   6.165  0.6166 -2.6520  0.9073
 9650TIP3    H228894   3.476   1.493   6.226 -0.8447  1.2965 -2.3439
 9651TIP3   OH228895   2.704   7.407   5.659  0.3514  0.1402  0.0481
 9651TIP3    H128896   2.698   7.503   5.659  1.3437  0.1982  0.7341
 9651TIP3    H228897   2.663   7.382   5.576 -3.2436  0.9277  1.5049
 9652TIP3   OH228898   2.675   0.627   6.889  0.4621  0.2048  0.2196
 9652TIP3    H128899   2.696   0.642   6.797  0.8875  2.8230  0.6912
 9652TIP3    H228900   2.756   0.591   6.926  0.2342 -1.0214 -0.4321
 9653TIP3   OH228901   4.046   2.234   6.080 -0.2205 -0.5713  0.2563
 9653TIP3    H128902   4.140   2.233   6.096  0.0823 -0.2761 -1.3362
 9653TIP3    H228903   4.028   2.152   6.033 -0.4545  0.1399 -0.9278
 9654TIP3   OH228904   2.826   0.675   6.380 -0.1087 -0.0872 -0.5188
 9654TIP3    H128905   2.890   0.649   6.447 -0.2371  0.7097 -0.0801
 9654TIP3    H228906   2.844   0.617   6.306  2.0280  1.0037 -0.9047
 9655TIP3   OH228907   4.647   3.208   5.856 -0.8457  0.2515  0.2611
 9655TIP3    H128908   4.629   3.115   5.867  1.4869 -0.5142 -1.9313
 9655TIP3    H228909   4.594   3.234   5.781 -0.5694  0.4125  0.1226
 9656TIP3   OH228910   6.469   6.355   0.488  0.1131  0.0918  0.0298
 9656TIP3    H128911   6.412   6.407   0.544  1.3920 -0.5508  2.0045
 9656TIP3    H228912   6.529   6.418   0.448  1.9471  0.1641  2.7608
 9657TIP3   OH228913   3.405   1.226   4.945  0.4780 -0.2633 -0.2280
 9657TIP3    H128914   3.319   1.227   4.902  0.6986  0.5600 -0.6516
 9657TIP3    H228915   3.387   1.253   5.035  0.3639  0.3940 -0.4472
 9658TIP3   OH228916   6.243   5.369   1.750 -0.3533 -0.2206  0.1599
 9658TIP3    H128917   6.154   5.335   1.758  0.1417 -1.3848  1.0042
 9658TIP3    H228918   6.237   5.437   1.683 -2.3184  1.2875  1.8066
 9659TIP3   OH228919   4.972   5.143   1.818 -0.2780  0.3008  0.1816
 9659TIP3    H128920   5.052   5.122   1.770 -0.7336  0.2754 -0.5745
 9659TIP3    H228921   4.992   5.224   1.866 -0.1992  0.9629 -0.9660
 9660TIP3   OH228922   8.176   3.597   0.820  0.3655 -0.2205  0.0855
 9660TIP3    H128923   8.140   3.616   0.734  0.4296 -0.0196  0.1036
 9660TIP3    H228924   8.258   3.647   0.824 -0.1847  0.6450  0.6877
 9661TIP3   OH228925   2.935   0.475   5.920 -0.5520 -0.0349  0.1523
 9661TIP3    H128926   2.956   0.387   5.889  1.3941  1.0975 -1.8433
 9661TIP3    H228927   2.890   0.516   5.847  0.7740  1.4539  0.1650
 9662TIP3   OH228928   1.733   7.188   5.225 -0.0000 -0.1304 -0.1556
 9662TIP3    H128929   1.790   7.134   5.171  0.8062 -0.3578  0.9121
 9662TIP3    H228930   1.792   7.244   5.275 -0.7522  0.3770  0.1860
 9663TIP3   OH228931   6.990   3.603   1.619 -0.5760 -0.5085  0.9291
 9663TIP3    H128932   6.932   3.679   1.617 -1.0545 -0.8883 -0.4762
 9663TIP3    H228933   6.956   3.545   1.550  1.9205 -0.3789 -0.4957
 9664TIP3   OH228934   4.654   1.189   6.215  0.3117 -0.1169 -0.2106
 9664TIP3    H128935   4.680   1.122   6.152 -0.6163 -0.0506 -0.6683
 9664TIP3    H228936   4.577   1.153   6.259  0.7072  0.0102  0.6064
 9665TIP3   OH228937   7.143   5.854   0.109 -0.1322 -0.5949 -0.4632
 9665TIP3    H128938   7.090   5.896   0.041  1.6263 -0.9054 -2.0826
 9665TIP3    H228939   7.227   5.900   0.105  0.6205 -1.8973  0.1953
 9666TIP3   OH228940   5.857   3.882   0.480 -0.4887 -0.4124 -0.4485
 9666TIP3    H128941   5.914   3.934   0.537 -2.3219  1.3369 -0.1621
 9666TIP3    H228942   5.790   3.848   0.539 -0.6309 -1.1491 -1.0442
 9667TIP3   OH228943   3.386   1.986   6.141  0.8559 -0.6582  0.5436
 9667TIP3    H128944   3.371   2.080   6.142 -1.0146 -0.9348  0.3677
 9667TIP3    H228945   3.389   1.961   6.233  0.0841 -0.6238  0.5740
 9668TIP3   OH228946   0.059   7.249   0.781  0.0342  0.6310 -0.3666
 9668TIP3    H128947  -0.010   7.193   0.817 -0.3485 -0.2833 -2.4685
 9668TIP3    H228948   0.085   7.305   0.855 -1.7061 -0.2188  0.9305
 9669TIP3   OH228949   6.699   4.655   0.494  0.5640 -0.1761 -0.1170
 9669TIP3    H128950   6.638   4.623   0.427  0.1544 -0.6923  0.4943
 9669TIP3    H228951   6.711   4.747   0.473 -2.3667  0.5554  1.1976
 9670TIP3   OH228952   7.988   5.582   0.899  0.0590  0.1293  0.2183
 9670TIP3    H128953   7.946   5.626   0.825  0.0650 -0.6964 -0.2808
 9670TIP3    H228954   7.922   5.583   0.969  0.7858  2.7917  0.9346
 9671TIP3   OH228955   4.065   0.406   6.516 -0.4510  0.0163 -0.3352
 9671TIP3    H128956   4.106   0.465   6.454 -2.8299  1.9425 -0.1373
 9671TIP3    H228957   4.131   0.392   6.583  0.6089  1.4047 -1.0765
 9672TIP3   OH228958   4.114   2.209   6.435  0.3519 -0.5029 -0.4338
 9672TIP3    H128959   4.043   2.152   6.465  0.3731 -0.7304 -0.8199
 9672TIP3    H228960   4.070   2.285   6.397  0.3267  0.2942  1.1465
 9673TIP3   OH228961   7.561   5.356   1.005  0.7627  0.3669 -0.0434
 9673TIP3    H128962   7.549   5.430   0.946 -1.4363  0.0930  0.0442
 9673TIP3    H228963   7.475   5.339   1.041  0.6783 -3.8093 -1.8987
 9674TIP3   OH228964   6.781   5.265   0.285 -0.1268 -0.0781 -0.3332
 9674TIP3    H128965   6.867   5.233   0.312 -0.4464 -0.4295  0.2748
 9674TIP3    H228966   6.719   5.214   0.337 -0.6645  0.9144  0.0020
 9675TIP3   OH228967   4.789   1.034   5.518 -0.2547 -0.2708  0.1187
 9675TIP3    H128968   4.797   1.121   5.557 -1.3547 -0.4419  0.7430
 9675TIP3    H228969   4.868   1.024   5.465  1.2039  0.0113  2.2089
 9676TIP3   OH228970   2.840   3.429   6.089  0.0517  0.1514  0.3199
 9676TIP3    H128971   2.845   3.400   6.180  0.5777  0.2174  0.3111
 9676TIP3    H228972   2.845   3.349   6.037 -1.1356  0.0306  0.3656
 9677TIP3   OH228973   5.907   5.718   0.362 -0.0412 -0.0945 -0.2460
 9677TIP3    H128974   5.811   5.715   0.363 -0.0116 -1.3130 -0.7220
 9677TIP3    H228975   5.929   5.759   0.279 -0.1484 -0.0941 -0.2742
 9678TIP3   OH228976   0.963   7.740   6.266  0.2817  0.1758  0.1926
 9678TIP3    H128977   0.910   7.703   6.195  2.0632 -3.1621  0.5171
 9678TIP3    H228978   0.899   7.775   6.328 -1.4366 -0.8811 -0.9443
 9679TIP3   OH228979   6.980   5.831   1.100 -0.6766  0.2583  0.0625
 9679TIP3    H128980   6.981   5.892   1.026 -1.5443  0.6731  0.3969
 9679TIP3    H228981   6.951   5.883   1.174 -0.7241 -0.3904  0.5045
 9680TIP3   OH228982   8.078   1.191   6.339  0.3129 -0.1131 -0.4693
 9680TIP3    H128983   8.018   1.121   6.316 -2.3255  1.6300  0.7936
 9680TIP3    H228984   8.134   1.202   6.262 -0.7870 -1.9713 -1.5572
 9681TIP3   OH228985   7.406   5.963   0.058 -0.0372  0.4178 -0.0109
 9681TIP3    H128986   7.436   6.041   0.105 -1.2832  0.1545  1.2274
 9681TIP3    H228987   7.426   5.890   0.117 -1.2088  0.0451 -0.0695
 9682TIP3   OH228988   5.739   7.269   1.393 -0.2840  0.3626  0.0452
 9682TIP3    H128989   5.700   7.232   1.314  1.3749  1.4577 -1.3100
 9682TIP3    H228990   5.700   7.356   1.401 -0.0096  0.4837  0.0913
 9683TIP3   OH228991   7.017   3.244   2.176  0.4638 -0.1616  0.3035
 9683TIP3    H128992   6.987   3.278   2.091  0.7459  0.7364  0.5553
 9683TIP3    H228993   6.975   3.301   2.240 -2.6782 -3.0727  0.9611
 9684TIP3   OH228994   3.357   3.583   6.571  0.0750  0.0037 -0.9720
 9684TIP3    H128995   3.383   3.491   6.570 -0.5941 -0.2117  0.2392
 9684TIP3    H228996   3.263   3.581   6.591 -0.1793  0.9019 -2.0453
 9685TIP3   OH228997   0.452   1.306   4.916 -0.2309  0.1136  0.3597
 9685TIP3    H128998   0.397   1.276   4.843  0.4473  0.0514 -0.1344
 9685TIP3    H228999   0.392   1.355   4.972 -0.7930  0.0577 -0.1773
 9686TIP3   OH229000   7.989   6.523   0.522 -0.3049 -0.7313  0.5713
 9686TIP3    H129001   7.951   6.610   0.518  1.7661  0.1862  0.2912
 9686TIP3    H229002   8.004   6.507   0.615  1.4438  0.2024  0.4828
 9687TIP3   OH229003   5.702   1.955   6.270  0.1542  0.3641  0.7209
 9687TIP3    H129004   5.663   2.014   6.335  1.0962  0.9201  0.7983
 9687TIP3    H229005   5.667   1.869   6.291 -2.4174  1.1051 -0.2997
 9688TIP3   OH229006   4.531   0.841   5.883 -0.2153  0.1755 -0.6631
 9688TIP3    H129007   4.609   0.875   5.926  0.2552  0.6972 -1.9146
 9688TIP3    H229008   4.541   0.746   5.887 -0.2402  0.2065  0.4701
 9689TIP3   OH229009   6.279   4.909   1.006 -0.2971  0.0562 -0.2377
 9689TIP3    H129010   6.206   4.911   0.945 -0.5939  0.8341  0.1376
 9689TIP3    H229011   6.264   4.831   1.060  0.0505 -0.7215 -1.2459
 9690TIP3   OH229012   4.779   3.181   6.378 -0.4013  0.3742  0.2014
 9690TIP3    H129013   4.795   3.207   6.287  0.2518 -0.2503  0.1331
 9690TIP3    H229014   4.783   3.085   6.377 -2.0624  0.2934  0.5878
 9691TIP3   OH229015   8.284   6.071   1.017  0.2809 -0.2343  0.6829
 9691TIP3    H129016   8.246   6.004   0.961  1.3862  0.7058 -1.2328
 9691TIP3    H229017   8.373   6.082   0.985  1.8750 -1.5754  4.3407
 9692TIP3   OH229018   7.164   6.285   1.489  0.2949 -0.0482 -0.4230
 9692TIP3    H129019   7.102   6.351   1.519  1.0417  0.5480 -0.1608
 9692TIP3    H229020   7.118   6.239   1.419 -0.9142 -0.4857  0.6356
 9693TIP3   OH229021   2.037   2.591   6.897 -0.4070  0.3310  0.7417
 9693TIP3    H129022   2.034   2.610   6.990 -1.8300 -0.4758  0.8789
 9693TIP3    H229023   2.000   2.503   6.889  1.1313 -0.2256 -0.4192
 9694TIP3   OH229024   4.932   2.519   5.257  0.2475 -0.4283  0.2366
 9694TIP3    H129025   4.846   2.550   5.228 -1.2149 -2.3412  2.3007
 9694TIP3    H229026   4.976   2.490   5.177 -0.5452  1.6712 -0.9865
 9695TIP3   OH229027   5.531   3.342   5.242 -0.5007 -0.2912 -0.5981
 9695TIP3    H129028   5.567   3.421   5.202  0.3951  0.3022  1.3206
 9695TIP3    H229029   5.585   3.271   5.207 -0.8390  0.0033 -1.7553
 9696TIP3   OH229030   4.162   3.205   4.894 -0.0774  0.3141  0.0093
 9696TIP3    H129031   4.131   3.292   4.919 -0.2507  0.2192  0.1324
 9696TIP3    H229032   4.170   3.208   4.799 -0.8363  0.2209 -0.0587
 9697TIP3   OH229033   8.077   6.062   1.330 -0.2084 -0.2948 -0.0218
 9697TIP3    H129034   8.139   5.989   1.332  2.1549  1.6452  0.2451
 9697TIP3    H229035   8.064   6.080   1.237 -1.4249 -1.5586 -0.1021
 9698TIP3   OH229036   4.812   0.391   6.067  0.0927 -0.5137  0.4413
 9698TIP3    H129037   4.897   0.435   6.067 -0.1929  0.0741  1.5957
 9698TIP3    H229038   4.751   0.458   6.100 -0.7793 -0.9835 -0.1946
 9699TIP3   OH229039   1.158   3.769   0.281  0.7580  0.2174 -0.3049
 9699TIP3    H129040   1.208   3.688   0.290 -0.2268 -0.3630  0.0383
 9699TIP3    H229041   1.074   3.742   0.244  0.0557  0.9336  0.7223
 9700TIP3   OH229042   4.569   1.871   6.706 -0.0166  0.1723  0.3374
 9700TIP3    H129043   4.583   1.777   6.718  0.8518  0.4884  1.9607
 9700TIP3    H229044   4.610   1.911   6.783 -2.2258  1.7435  0.7316
 9701TIP3   OH229045   0.828   6.862   1.398 -0.2233  0.3115  0.2570
 9701TIP3    H129046   0.808   6.841   1.489 -1.0515  0.5354  0.1291
 9701TIP3    H229047   0.743   6.863   1.354  0.0224  1.6631 -0.2087
 9702TIP3   OH229048   4.526   1.667   5.956 -1.1519  0.2853 -0.0344
 9702TIP3    H129049   4.614   1.705   5.950 -1.4078  0.4872 -3.3690
 9702TIP3    H229050   4.541   1.574   5.974 -0.3471  0.7437  1.7486
 9703TIP3   OH229051   7.224   3.638   0.159  0.0454 -0.0678 -0.2842
 9703TIP3    H129052   7.195   3.648   0.068 -3.8142 -0.3591  0.8006
 9703TIP3    H229053   7.261   3.723   0.182 -0.6876  0.6159 -1.5679
 9704TIP3   OH229054   7.515   5.736   0.194 -0.5045 -0.4066 -0.3175
 9704TIP3    H129055   7.594   5.761   0.147 -1.5831  2.9493 -0.4520
 9704TIP3    H229056   7.540   5.738   0.286 -0.4594  0.8401 -0.3493
 9705TIP3   OH229057   0.743   4.359   0.825  0.5071 -0.1245 -0.0030
 9705TIP3    H129058   0.711   4.345   0.914  0.6508 -1.6420 -0.1635
 9705TIP3    H229059   0.793   4.440   0.829  0.7930 -0.3626  1.3822
 9706TIP3   OH229060   5.101   0.764   6.269 -0.2971  0.2615  0.5423
 9706TIP3    H129061   5.157   0.687   6.256 -1.3643 -0.5990  0.9423
 9706TIP3    H229062   5.145   0.834   6.221  0.2692 -0.8050 -0.5353
 9707TIP3   OH229063   4.068   0.866   4.716  0.0765 -0.5443  0.0838
 9707TIP3    H129064   4.084   0.960   4.714  0.2946 -0.5693  0.6471
 9707TIP3    H229065   4.037   0.848   4.805 -2.1623 -0.6510 -0.6756
 9708TIP3   OH229066   6.419   3.673   0.181 -0.1869  0.0846  0.5437
 9708TIP3    H129067   6.380   3.707   0.261  0.2837  0.5401  0.5817
 9708TIP3    H229068   6.396   3.580   0.181 -3.1380  0.7804 -0.5476
 9709TIP3   OH229069   8.302   4.438   0.381  0.5310 -0.0122  0.4766
 9709TIP3    H129070   8.363   4.432   0.308  2.3970  2.3447  1.7672
 9709TIP3    H229071   8.318   4.359   0.433  0.2424 -0.9498 -0.8444
 9710TIP3   OH229072   7.070   0.871   4.276  0.3024 -0.1750 -1.1003
 9710TIP3    H129073   7.061   0.926   4.198  0.7962  0.4401 -0.7252
 9710TIP3    H229074   7.093   0.931   4.346 -2.0557 -0.4350 -0.0276
 9711TIP3   OH229075   5.923   1.002   6.916 -0.0956  0.3518 -0.2081
 9711TIP3    H129076   5.913   0.920   6.869 -0.9566  1.8560 -2.7345
 9711TIP3    H229077   5.835   1.039   6.918  0.5532  1.9392 -0.4788
 9712TIP3   OH229078   4.828   0.234   5.825 -0.5133  0.1450 -0.2182
 9712TIP3    H129079   4.772   0.157   5.831  2.1848 -1.7826  0.5224
 9712TIP3    H229080   4.806   0.285   5.903  1.1155 -2.2333  1.8540
 9713TIP3   OH229081   5.181   0.883   5.060  0.6746 -0.4785 -0.7824
 9713TIP3    H129082   5.202   0.795   5.029 -0.3702 -0.8765 -0.3747
 9713TIP3    H229083   5.086   0.882   5.071  0.6416  0.7749 -0.9906
 9714TIP3   OH229084   3.129   0.654   6.154 -0.0620  0.0488 -0.2506
 9714TIP3    H129085   3.143   0.697   6.069 -0.8373 -0.7424 -0.7962
 9714TIP3    H229086   3.115   0.562   6.132 -0.4326 -0.1343  0.7213
 9715TIP3   OH229087   4.607   0.589   5.889 -0.6397 -0.2148  0.4816
 9715TIP3    H129088   4.697   0.569   5.862 -0.9778 -0.3508 -0.5813
 9715TIP3    H229089   4.556   0.512   5.864 -1.3766  0.6160 -0.6510
 9716TIP3   OH229090   5.899   0.135   6.092 -0.4989  0.8735 -0.2155
 9716TIP3    H129091   5.984   0.106   6.124 -0.2285  0.2889 -1.4181
 9716TIP3    H229092   5.909   0.230   6.080 -0.0382  0.8213 -0.2672
 9717TIP3   OH229093   6.161   4.708   1.145  0.1808 -0.2172  0.3022
 9717TIP3    H129094   6.069   4.694   1.123 -0.0003 -0.1608  1.0026
 9717TIP3    H229095   6.188   4.626   1.186 -0.4027  0.8064  2.8434
 9718TIP3   OH229096   0.197   4.189   1.136 -0.1370  0.2046  0.5027
 9718TIP3    H129097   0.241   4.112   1.099 -0.6218  0.7923 -1.3765
 9718TIP3    H229098   0.266   4.239   1.178  0.2122 -1.1714  1.5843
 9719TIP3   OH229099   4.607   0.535   5.522 -0.4329 -0.2060 -0.2338
 9719TIP3    H129100   4.621   0.613   5.575  0.5971  0.5081 -1.5220
 9719TIP3    H229101   4.617   0.462   5.583  0.4070  0.6135  0.6236
 9720TIP3   OH229102   6.677   1.313   5.552  0.3829  0.3359  0.2510
 9720TIP3    H129103   6.689   1.384   5.616  2.4201 -0.7672  1.1314
 9720TIP3    H229104   6.687   1.356   5.467  0.4142  1.3200  0.7397
 9721TIP3   OH229105   7.048   5.228   0.138  0.1323  0.0409 -0.0942
 9721TIP3    H129106   7.136   5.202   0.111 -0.2588 -2.2787  0.7778
 9721TIP3    H229107   7.042   5.201   0.229 -1.4908  0.1577 -0.1516
 9722TIP3   OH229108   7.720   3.300   3.956 -0.0077 -0.1317  0.1047
 9722TIP3    H129109   7.748   3.227   4.012 -2.9459 -2.0501 -0.8041
 9722TIP3    H229110   7.713   3.262   3.869 -1.4473  1.3019 -0.4171
 9723TIP3   OH229111   7.579   0.250   5.754  0.3415 -0.4459  0.1249
 9723TIP3    H129112   7.496   0.251   5.801  0.3121 -0.7234  0.0824
 9723TIP3    H229113   7.555   0.235   5.662  0.3551  0.8112 -0.0835
 9724TIP3   OH229114   7.605   1.211   2.848  0.6317 -0.6445 -1.0239
 9724TIP3    H129115   7.681   1.265   2.827  0.3087  0.0199 -0.5331
 9724TIP3    H229116   7.598   1.217   2.943  0.1262 -0.9164 -1.0461
 9725TIP3   OH229117   6.524   0.052   6.470  0.7603  0.0989  0.3946
 9725TIP3    H129118   6.520   0.010   6.555  1.8813 -0.0850  0.3709
 9725TIP3    H229119   6.593   0.004   6.423 -0.4825 -0.4036 -0.9418
 9726TIP3   OH229120   7.262   5.019   0.509  0.3051  0.0420 -0.0418
 9726TIP3    H129121   7.176   5.022   0.551 -0.4426 -0.2860 -1.5186
 9726TIP3    H229122   7.264   4.934   0.464  2.4300 -1.1178  2.1069
 9727TIP3   OH229123   0.803   5.036   1.821 -0.3522 -0.2022  0.1781
 9727TIP3    H129124   0.879   5.022   1.765 -0.1196 -0.4402  0.5510
 9727TIP3    H229125   0.808   5.128   1.846  0.1606 -0.3700  0.7060
 9728TIP3   OH229126   7.040   0.639   6.918  0.2362 -0.3655  0.1339
 9728TIP3    H129127   7.105   0.578   6.884 -0.4520 -1.8919  1.4874
 9728TIP3    H229128   7.018   0.605   7.005  1.0279  2.7196  1.6168
 9729TIP3   OH229129   7.970   5.289   3.161 -0.4593 -0.0878  0.6983
 9729TIP3    H129130   7.966   5.200   3.127 -1.1912  0.7934 -1.6180
 9729TIP3    H229131   7.900   5.335   3.116 -0.3356  1.5806  2.1525
 9730TIP3   OH229132   5.960   2.377   5.325  0.0641 -0.1963  0.4175
 9730TIP3    H129133   6.001   2.378   5.412  0.7120 -1.5093  0.1356
 9730TIP3    H229134   5.929   2.287   5.314  1.8956 -0.6308 -1.5731
 9731TIP3   OH229135   4.400   0.598   6.861 -0.3795  0.3747  0.0690
 9731TIP3    H129136   4.311   0.572   6.839 -0.7414  1.0421  0.7148
 9731TIP3    H229137   4.396   0.693   6.871  0.6662  0.5676 -1.0857
 9732TIP3   OH229138   7.896   7.448   0.137 -0.0949  0.6619  0.2873
 9732TIP3    H129139   7.828   7.389   0.170  0.8196  0.8914  2.7034
 9732TIP3    H229140   7.977   7.417   0.178  1.0933  1.0234 -1.7515
 9733TIP3   OH229141   2.702   7.671   5.595 -0.6088 -0.4637  0.1835
 9733TIP3    H129142   2.775   7.704   5.543 -1.3097  0.3711 -0.2842
 9733TIP3    H229143   2.631   7.659   5.532 -1.2152 -0.2185  0.8087
 9734TIP3   OH229144   2.401   7.159   6.409  0.8052 -0.2244 -0.2382
 9734TIP3    H129145   2.390   7.071   6.372 -1.4303 -0.1051  0.0634
 9734TIP3    H229146   2.468   7.200   6.354  1.3545 -1.8634 -0.8195
 9735TIP3   OH229147   6.157   1.929   4.396 -0.3502  0.6184 -0.3565
 9735TIP3    H129148   6.241   1.953   4.433  0.0016 -0.7558 -0.2121
 9735TIP3    H229149   6.110   1.888   4.469 -0.6953  0.3494 -0.7307
 9736TIP3   OH229150   4.669   2.549   5.784 -0.3282  0.1555 -0.2150
 9736TIP3    H129151   4.741   2.583   5.731  0.0051  0.5155  0.4731
 9736TIP3    H229152   4.597   2.611   5.770  0.0180  0.6957  0.3932
 9737TIP3   OH229153   1.694   6.967   6.482  0.1497 -0.7993  0.8060
 9737TIP3    H129154   1.742   6.957   6.564  0.0205  0.1962  1.0129
 9737TIP3    H229155   1.755   6.936   6.415  0.1860 -1.7829  1.2978
 9738TIP3   OH229156   0.724   6.459   0.505 -0.8498 -0.0882 -0.4802
 9738TIP3    H129157   0.733   6.416   0.420 -0.8695 -0.7693 -0.1441
 9738TIP3    H229158   0.686   6.545   0.485 -1.4262 -0.4834 -1.1008
 9739TIP3   OH229159   7.989   4.374   0.022 -0.3307  0.5321 -0.2828
 9739TIP3    H129160   8.061   4.348  -0.036 -1.1544  1.2594 -1.6828
 9739TIP3    H229161   7.945   4.292   0.044 -0.3117  0.2954 -1.1108
 9740TIP3   OH229162   0.564   5.055   0.561  0.6298 -0.8752 -0.3775
 9740TIP3    H129163   0.645   5.019   0.598  0.5137 -0.8896 -0.1327
 9740TIP3    H229164   0.592   5.101   0.482  1.0100  0.0183  0.2799
 9741TIP3   OH229165   4.854   1.059   6.945 -0.4405 -0.2324 -0.2670
 9741TIP3    H129166   4.797   1.053   6.869 -0.3403 -0.3757 -0.3319
 9741TIP3    H229167   4.911   0.983   6.938  0.3593  0.4015 -0.6822
 9742TIP3   OH229168   4.269   2.104   4.286 -0.6603  0.4029  0.8759
 9742TIP3    H129169   4.211   2.180   4.280  0.0027  0.7784 -0.9061
 9742TIP3    H229170   4.271   2.083   4.380 -1.9972  1.6744  1.2046
 9743TIP3   OH229171   0.233   4.334   0.114  0.5420  0.5776 -0.3516
 9743TIP3    H129172   0.244   4.240   0.102 -0.2441  0.5376 -0.7730
 9743TIP3    H229173   0.289   4.373   0.047  0.0040  0.3994 -0.9075
 9744TIP3   OH229174   6.078   1.702   5.633  0.3048 -0.6306 -0.6479
 9744TIP3    H129175   6.140   1.738   5.570 -0.1081 -0.6066 -1.0377
 9744TIP3    H229176   6.133   1.650   5.692  0.7913 -0.0289 -0.5619
 9745TIP3   OH229177   4.117   1.400   6.343 -0.1230 -0.3053 -0.0073
 9745TIP3    H129178   4.170   1.469   6.305 -0.7007  0.0253 -0.2128
 9745TIP3    H229179   4.058   1.445   6.404  0.0019 -0.6977  0.4121
 9746TIP3   OH229180   8.185   2.847   1.550  0.3094  0.6819 -0.2851
 9746TIP3    H129181   8.138   2.882   1.474 -1.4159 -0.7642  0.0591
 9746TIP3    H229182   8.254   2.910   1.567  0.2013  1.4596 -2.5434
 9747TIP3   OH229183   2.848   7.190   5.750 -0.0752 -0.2391  0.0922
 9747TIP3    H129184   2.790   7.259   5.716  0.5226  0.4977  0.5492
 9747TIP3    H229185   2.792   7.138   5.808 -0.6155 -0.3394 -0.5141
 9748TIP3   OH229186   0.745   4.136   1.509  0.2646 -0.3486 -0.2199
 9748TIP3    H129187   0.705   4.051   1.489 -0.2154 -0.7477  2.2768
 9748TIP3    H229188   0.736   4.186   1.428 -1.6124 -1.8512 -0.9811
 9749TIP3   OH229189   4.572   1.974   5.054  0.3553  0.5323  0.7183
 9749TIP3    H129190   4.539   2.059   5.081  2.2098  1.4662  0.1116
 9749TIP3    H229191   4.504   1.939   4.996 -1.8876  0.1730  3.4834
 9750TIP3   OH229192   4.918   0.900   5.129 -0.4851  0.1142 -0.2325
 9750TIP3    H129193   4.876   0.864   5.207  1.1575 -2.2006 -0.3820
 9750TIP3    H229194   4.849   0.903   5.063 -1.2271 -0.4739  0.5185
 9751TIP3   OH229195   2.745   2.119   0.430 -0.2701 -0.1846  0.4143
 9751TIP3    H129196   2.804   2.193   0.415  2.7801 -2.3020  1.3113
 9751TIP3    H229197   2.689   2.116   0.352  0.6381  2.0893 -0.3537
 9752TIP3   OH229198   1.494   7.623   6.810 -0.0842 -0.3775 -0.2869
 9752TIP3    H129199   1.492   7.528   6.800  0.7558 -0.4791  0.4566
 9752TIP3    H229200   1.451   7.656   6.731  0.0440 -1.3592 -0.7797
 9753TIP3   OH229201   1.471   6.537   5.675  0.1058  0.1021  0.6352
 9753TIP3    H129202   1.537   6.537   5.605  0.5000 -0.5436  1.0025
 9753TIP3    H229203   1.397   6.490   5.637  0.6294 -0.9878  0.9265
 9754TIP3   OH229204   8.034   3.407   0.057  0.4544  0.3050 -0.5391
 9754TIP3    H129205   7.974   3.428  -0.014  0.0879 -0.4451 -0.4613
 9754TIP3    H229206   8.109   3.464   0.043 -0.6815  1.9310 -0.0903
 9755TIP3   OH229207   1.015   3.330   1.560  0.3468  0.0990  0.2406
 9755TIP3    H129208   1.015   3.424   1.580  2.0533 -0.0341  0.9413
 9755TIP3    H229209   1.067   3.290   1.631  0.8703 -1.1859 -0.8439
 9756TIP3   OH229210   1.621   5.763   6.232 -0.2386  0.2509 -0.0911
 9756TIP3    H129211   1.704   5.783   6.275  0.2119  0.7216 -1.1703
 9756TIP3    H229212   1.557   5.816   6.278  0.2202  0.6631  0.0714
 9757TIP3   OH229213   6.481   0.686   5.723  0.3703  0.1495 -0.1332
 9757TIP3    H129214   6.565   0.722   5.752 -0.1848  0.7850  0.7032
 9757TIP3    H229215   6.470   0.606   5.773 -0.4088  1.0487  1.1444
 9758TIP3   OH229216   6.123   1.835   6.815  0.8662 -0.4686 -0.6302
 9758TIP3    H129217   6.185   1.764   6.798  0.9790 -0.7054  0.7522
 9758TIP3    H229218   6.162   1.884   6.888 -0.0129  0.0579 -0.5056
 9759TIP3   OH229219   1.793   7.135   5.874 -0.3374 -0.0732 -0.5795
 9759TIP3    H129220   1.834   7.052   5.852  0.9952  0.1471  0.9680
 9759TIP3    H229221   1.776   7.130   5.968 -2.7934  0.3235 -0.9665
 9760TIP3   OH229222   3.237   7.349   6.783  0.3445  0.0042 -0.1962
 9760TIP3    H129223   3.218   7.259   6.809 -0.2174  0.1319 -0.1398
 9760TIP3    H229224   3.268   7.391   6.863  0.3982 -0.0837 -0.1703
 9761TIP3   OH229225   7.397   2.734   0.648  0.3573 -0.3206 -0.1640
 9761TIP3    H129226   7.459   2.734   0.720  0.9092  4.3541 -0.5245
 9761TIP3    H229227   7.362   2.823   0.646 -3.2143 -1.6672 -2.6612
 9762TIP3   OH229228   3.299   7.880   6.225  0.5034 -0.2445  0.4885
 9762TIP3    H129229   3.357   7.881   6.302  1.9082 -0.6856 -0.5411
 9762TIP3    H229230   3.276   7.788   6.213 -2.1227  0.1582  2.1204
 9763TIP3   OH229231   0.943   4.258   0.052  0.5130  0.0255 -0.4831
 9763TIP3    H129232   1.021   4.213   0.086  0.1218 -0.1866  0.1383
 9763TIP3    H229233   0.928   4.217  -0.034  1.1970  0.1998 -0.6882
 9764TIP3   OH229234   2.591   6.849   4.655  0.4211 -0.5255  0.3097
 9764TIP3    H129235   2.600   6.857   4.560  0.9691 -0.8083  0.3375
 9764TIP3    H229236   2.497   6.836   4.669  0.2811 -0.0472 -0.1608
 9765TIP3   OH229237   0.849   4.877   0.423  0.1649 -0.0692 -0.1937
 9765TIP3    H129238   0.793   4.815   0.469 -2.0648  0.8504 -1.6069
 9765TIP3    H229239   0.915   4.822   0.381 -1.1832 -1.4122 -0.5974
 9766TIP3   OH229240   7.166   0.897   6.794  0.1901 -0.2165  0.4293
 9766TIP3    H129241   7.168   0.988   6.763  0.9336 -0.1435  0.6941
 9766TIP3    H229242   7.248   0.886   6.841  1.3888 -1.8777 -1.9898
 9767TIP3   OH229243   8.001   3.466   1.016 -0.3532 -0.4756  0.1479
 9767TIP3    H129244   8.064   3.509   0.958  1.1976 -0.2879  1.9149
 9767TIP3    H229245   7.991   3.528   1.089 -2.2298 -0.7267  0.1056
 9768TIP3   OH229246   5.203   1.192   4.222  0.5113 -0.4097 -0.6761
 9768TIP3    H129247   5.231   1.209   4.311 -1.1188 -1.4419  0.0475
 9768TIP3    H229248   5.201   1.278   4.180  0.9530  0.1123  0.3609
 9769TIP3   OH229249   4.500   0.346   5.761  0.1929  0.1783 -0.1418
 9769TIP3    H129250   4.467   0.297   5.686 -1.9857 -1.2959  1.7184
 9769TIP3    H229251   4.516   0.280   5.828  3.0602  1.3546  0.4259
 9770TIP3   OH229252   1.594   5.777   1.817 -0.4626  0.1369 -0.0153
 9770TIP3    H129253   1.602   5.870   1.841  3.6587 -0.2965  0.5550
 9770TIP3    H229254   1.613   5.774   1.723  0.5732 -0.2533  0.2011
 9771TIP3   OH229255   5.883   0.219   4.094 -0.2277  0.3643 -0.0923
 9771TIP3    H129256   5.939   0.284   4.136 -0.9004 -0.2537  1.7952
 9771TIP3    H229257   5.850   0.264   4.015  1.1934  1.4669 -0.0850
 9772TIP3   OH229258   1.377   5.757   0.881 -0.4422 -0.1465 -0.3815
 9772TIP3    H129259   1.442   5.827   0.888  0.4055 -0.6501 -2.8533
 9772TIP3    H229260   1.322   5.768   0.959  0.5402  2.3761  0.0048
 9773TIP3   OH229261   1.260   4.176   1.516 -0.8525 -0.6798  0.4265
 9773TIP3    H129262   1.179   4.201   1.473 -0.3657 -0.8463 -0.5989
 9773TIP3    H229263   1.233   4.123   1.591 -1.6895 -0.5508  0.2139
 9774TIP3   OH229264   5.879   2.490   6.227  0.0881  0.4745  0.0504
 9774TIP3    H129265   5.851   2.417   6.283  0.4432 -0.9690 -1.6240
 9774TIP3    H229266   5.945   2.535   6.279  0.5220 -0.9245  0.7484
 9775TIP3   OH229267   4.844   2.647   6.386  0.2522  0.3808 -0.2665
 9775TIP3    H129268   4.803   2.572   6.429  1.7829  0.1701  0.8802
 9775TIP3    H229269   4.938   2.628   6.389  0.6037  1.9492 -0.6909
 9776TIP3   OH229270   0.123   5.219   0.313  0.2933 -0.4506 -0.1664
 9776TIP3    H129271   0.039   5.174   0.324  0.5346 -0.7004  0.6860
 9776TIP3    H229272   0.118   5.294   0.373 -0.1056  0.6796 -1.5649
 9777TIP3   OH229273   5.687   1.457   4.337  0.0306  0.4662  0.1663
 9777TIP3    H129274   5.648   1.392   4.279 -0.3276 -0.2894  1.2533
 9777TIP3    H229275   5.664   1.541   4.297 -2.1324  0.0143  0.4170
 9778TIP3   OH229276   4.594   0.178   5.957  0.0318  0.3241  0.2565
 9778TIP3    H129277   4.553   0.195   6.042  1.1562 -0.1010  0.9034
 9778TIP3    H229278   4.583   0.084   5.943  0.1086  0.3410  0.0738
 9779TIP3   OH229279   6.805   0.802   3.959  0.3852  0.0839  0.1606
 9779TIP3    H129280   6.739   0.824   3.893 -0.6019  0.1528  1.1579
 9779TIP3    H229281   6.871   0.871   3.951  1.6562 -1.3902 -2.5883
 9780TIP3   OH229282   6.986   1.283   6.819  0.0367 -0.7121 -0.4534
 9780TIP3    H129283   6.923   1.317   6.883  1.1815  0.8560 -0.1438
 9780TIP3    H229284   6.948   1.305   6.734  1.7577  3.3451 -0.2729
 9781TIP3   OH229285   6.759   1.165   6.200 -0.0421 -0.4182 -0.0682
 9781TIP3    H129286   6.670   1.138   6.179 -0.2798 -0.1762  0.6422
 9781TIP3    H229287   6.759   1.260   6.187  0.1815 -0.4520 -0.3210
 9782TIP3   OH229288   2.493   2.947   2.611  0.7863 -0.3698 -0.5299
 9782TIP3    H129289   2.406   2.916   2.586  0.7132 -0.9588  0.4430
 9782TIP3    H229290   2.507   3.025   2.557 -0.6332  0.1366 -0.1926
 9783TIP3   OH229291   6.121   2.408   5.086  0.3892  0.3185  0.0782
 9783TIP3    H129292   6.199   2.363   5.117 -0.8886 -1.9347  0.1077
 9783TIP3    H229293   6.070   2.424   5.165 -0.6956 -1.2161 -0.2869
 9784TIP3   OH229294   5.178   2.105   5.627  0.1194 -0.1386 -0.0668
 9784TIP3    H129295   5.103   2.071   5.676 -0.3620 -0.3344 -0.9292
 9784TIP3    H229296   5.239   2.032   5.623 -0.8654 -0.9066 -1.8172
 9785TIP3   OH229297   7.398   4.243   1.395  0.2732  0.4880 -0.2351
 9785TIP3    H129298   7.491   4.221   1.385  0.9166  1.8809  2.1452
 9785TIP3    H229299   7.370   4.267   1.307  1.7918 -1.2570 -1.2537
 9786TIP3   OH229300   7.234   2.980   0.877 -0.0312 -0.2391 -0.3067
 9786TIP3    H129301   7.251   3.070   0.903 -1.2220  0.1024 -0.6718
 9786TIP3    H229302   7.276   2.971   0.791  1.0925 -0.3923  0.2524
 9787TIP3   OH229303   5.427   2.742   4.482  0.5343 -0.1589  0.5786
 9787TIP3    H129304   5.462   2.731   4.393 -3.4421 -2.3449 -0.8344
 9787TIP3    H229305   5.433   2.836   4.499  0.3312  0.4440 -2.4479
 9788TIP3   OH229306   0.362   5.652   1.134 -0.4871 -0.3429  0.2964
 9788TIP3    H129307   0.430   5.604   1.086 -0.5057  0.2610 -0.3401
 9788TIP3    H229308   0.356   5.607   1.218 -0.1668 -1.1684 -0.1082
 9789TIP3   OH229309   7.018   1.766   4.876  0.3087 -0.3254 -0.0855
 9789TIP3    H129310   7.047   1.725   4.795  2.4124  2.3712 -0.7918
 9789TIP3    H229311   7.064   1.718   4.945 -2.4108 -3.4183 -0.2831
 9790TIP3   OH229312   1.398   7.896   6.945  0.0372 -0.6453 -0.5497
 9790TIP3    H129313   1.380   7.863   6.857  0.1883 -0.0729 -0.8012
 9790TIP3    H229314   1.348   7.978   6.951  0.8966 -0.1088 -0.5142
 9791TIP3   OH229315   5.242   2.982   1.364 -0.5287  0.4675  0.1577
 9791TIP3    H129316   5.209   2.964   1.452 -3.1410  1.5065 -0.5406
 9791TIP3    H229317   5.173   2.949   1.306  0.3758  1.3476 -1.4421
 9792TIP3   OH229318   6.383   1.332   5.600  0.3430  0.6970 -0.0135
 9792TIP3    H129319   6.357   1.298   5.514 -3.0272  0.2663  1.1363
 9792TIP3    H229320   6.470   1.370   5.584  0.1166 -0.0041 -3.4366
 9793TIP3   OH229321   5.694   0.668   6.614 -0.0301  0.0794 -0.1345
 9793TIP3    H129322   5.693   0.624   6.529 -0.8621  0.1913 -0.1860
 9793TIP3    H229323   5.605   0.701   6.625  0.5123  1.5520  0.0035
 9794TIP3   OH229324   5.652   0.560   6.365 -0.1125 -0.0765  0.5736
 9794TIP3    H129325   5.647   0.619   6.290  0.6321 -2.2926 -1.3028
 9794TIP3    H229326   5.561   0.549   6.394 -0.4981  0.1477 -0.5424
 9795TIP3   OH229327   1.377   6.606   6.179  0.2167  0.2537 -0.6094
 9795TIP3    H129328   1.335   6.583   6.261 -1.7053  0.2639 -1.5514
 9795TIP3    H229329   1.355   6.533   6.120  0.8862  0.6420 -1.3495
 9796TIP3   OH229330   6.761   0.065   6.076 -0.6991  0.2405 -0.1591
 9796TIP3    H129331   6.760   0.161   6.075 -1.8440  0.2233 -1.2607
 9796TIP3    H229332   6.847   0.042   6.112 -0.9942  1.6806  1.5155
 9797TIP3   OH229333   7.961   4.096   1.021  0.6608  0.0631 -0.1594
 9797TIP3    H129334   7.975   4.127   1.110  0.8200 -0.1092 -0.1240
 9797TIP3    H229335   8.012   4.156   0.967  2.7557 -1.4504  0.0965
 9798TIP3   OH229336   5.944   1.459   6.546 -1.0261 -0.1267 -0.4748
 9798TIP3    H129337   5.975   1.405   6.619 -3.3386 -0.1202  0.5634
 9798TIP3    H229338   5.959   1.405   6.468 -0.3220 -0.9370  0.2138
 9799TIP3   OH229339   6.617   4.664   0.818  0.4867  0.4950  0.5825
 9799TIP3    H129340   6.535   4.619   0.840  0.9103  0.5450  2.3000
 9799TIP3    H229341   6.629   4.647   0.724 -1.8922  1.1727  0.1320
 9800TIP3   OH229342   4.817   0.758   6.262  0.4219 -1.0386 -0.5143
 9800TIP3    H129343   4.911   0.771   6.265  0.2572  0.4021 -0.9414
 9800TIP3    H229344   4.800   0.687   6.324  1.6917 -0.7701  0.1570
 9801TIP3   OH229345   8.226   5.667   0.240  0.0023 -0.2251 -0.0752
 9801TIP3    H129346   8.139   5.659   0.279  0.3715 -1.3555  0.5394
 9801TIP3    H229347   8.224   5.751   0.194 -0.9250  0.4642  1.1683
 9802TIP3   OH229348   7.849   0.542   4.027  0.3983  0.5931 -0.0788
 9802TIP3    H129349   7.909   0.513   4.096  0.6856  3.3555  0.9098
 9802TIP3    H229350   7.894   0.522   3.945  1.5940  0.4705  0.6009
 9803TIP3   OH229351   4.867   0.570   5.011  0.3253 -0.2508 -0.2257
 9803TIP3    H129352   4.782   0.588   4.971 -0.1171  0.1794  0.8737
 9803TIP3    H229353   4.852   0.584   5.105  1.9674  1.2460 -0.1652
 9804TIP3   OH229354   4.380   1.051   5.768  0.3487  0.2518 -0.1753
 9804TIP3    H129355   4.435   0.981   5.802 -1.6398 -0.8753  0.8183
 9804TIP3    H229356   4.397   1.125   5.826  2.7023  0.7460 -1.4259
 9805TIP3   OH229357   7.331   0.621   6.617  0.3024  0.5578 -0.4584
 9805TIP3    H129358   7.289   0.584   6.694  0.8154 -0.5627 -0.7118
 9805TIP3    H229359   7.417   0.579   6.614 -0.1708 -0.3116 -2.3132
 9806TIP3   OH229360   6.636   0.497   5.517  0.0672 -0.0509 -0.1434
 9806TIP3    H129361   6.598   0.575   5.558 -1.6137  0.1238 -1.9828
 9806TIP3    H229362   6.619   0.427   5.581 -1.7319  0.3816 -0.1109
 9807TIP3   OH229363   1.506   7.788   6.338  0.0215  0.2500 -0.2703
 9807TIP3    H129364   1.437   7.848   6.311  0.5407  2.1373  2.3238
 9807TIP3    H229365   1.468   7.701   6.328 -1.4733  1.0929 -2.1901
 9808TIP3   OH229366   5.760   4.827   1.861  0.2675  0.6722  0.5175
 9808TIP3    H129367   5.665   4.817   1.871  0.0574 -2.6050 -3.4864
 9808TIP3    H229368   5.797   4.774   1.932 -0.8989  0.2175  0.7912
 9809TIP3   OH229369   6.965   2.439   4.888 -0.5037  0.5162  0.0755
 9809TIP3    H129370   7.020   2.499   4.838  0.3029 -0.3194 -0.0435
 9809TIP3    H229371   6.876   2.476   4.879 -0.0222  1.7023  0.0318
 9810TIP3   OH229372   8.441   4.826   3.072  0.8999  0.5646  0.0747
 9810TIP3    H129373   8.472   4.797   2.987  1.6608 -0.3628  0.6632
 9810TIP3    H229374   8.455   4.751   3.130 -0.2478  0.9530  0.8624
 9811TIP3   OH229375   4.687   0.795   5.607 -0.5442  0.2438  0.1916
 9811TIP3    H129376   4.700   0.785   5.701 -1.7960  1.7208  0.5472
 9811TIP3    H229377   4.718   0.884   5.588 -1.2964  0.3453 -0.5820
 9812TIP3   OH229378   8.232   5.422   0.461  0.0725  0.8330 -0.3149
 9812TIP3    H129379   8.253   5.462   0.545  1.0586  0.1652 -0.2366
 9812TIP3    H229380   8.258   5.487   0.396  2.6679 -0.0647 -0.2356
 9813TIP3   OH229381   5.574   1.914   5.690 -0.1677 -0.1171 -0.0847
 9813TIP3    H129382   5.561   2.004   5.659  1.7419 -0.1157 -0.9634
 9813TIP3    H229383   5.666   1.895   5.670 -0.2101 -1.8218  1.2622
 9814TIP3   OH229384   0.561   4.914   1.013  0.6227 -0.4942 -0.0003
 9814TIP3    H129385   0.514   4.877   0.938 -0.8837 -0.2318  0.7829
 9814TIP3    H229386   0.553   4.848   1.081 -2.2241  1.2222  1.4646
 9815TIP3   OH229387   3.213   7.891   4.902  0.3620 -0.1868  0.1639
 9815TIP3    H129388   3.226   7.838   4.981  0.6375 -2.2831 -1.2552
 9815TIP3    H229389   3.120   7.914   4.904  0.2075 -0.8477  0.7190
 9816TIP3   OH229390   1.688   4.682   2.427  0.1265  0.4043 -0.9157
 9816TIP3    H129391   1.783   4.670   2.431  0.0641 -0.0529 -0.8092
 9816TIP3    H229392   1.671   4.701   2.334  0.3413  0.6614 -0.9031
 9817TIP3   OH229393   2.119   7.712   6.939  0.0914 -0.0400 -0.0142
 9817TIP3    H129394   2.089   7.803   6.946  2.4412  0.6648  1.4010
 9817TIP3    H229395   2.204   7.718   6.894  1.5295 -1.2334  2.4426
 9818TIP3   OH229396   1.422   5.908   0.579 -0.2663  0.9292 -0.5739
 9818TIP3    H129397   1.490   5.844   0.558  1.6363  3.2365 -1.7120
 9818TIP3    H229398   1.351   5.856   0.618  1.9086 -1.6091  0.1520
 9819TIP3   OH229399   1.808   4.780   0.195  0.0801  0.8618 -0.3807
 9819TIP3    H129400   1.727   4.828   0.178  0.4176  1.6298  0.1487
 9819TIP3    H229401   1.837   4.811   0.281  0.5384  0.0391 -0.2330
 9820TIP3   OH229402   3.901   3.404   4.803 -0.2142  0.1045  0.3914
 9820TIP3    H129403   3.962   3.473   4.778  1.2293 -0.8452  1.2428
 9820TIP3    H229404   3.936   3.370   4.885  0.2681 -3.0996 -1.0961
 9821TIP3   OH229405   2.992   0.602   6.613  0.0417 -0.0681  0.3419
 9821TIP3    H129406   3.012   0.510   6.599 -0.7970 -0.1850 -0.1374
 9821TIP3    H229407   2.972   0.609   6.706  0.6776 -0.2595  0.4897
 9822TIP3   OH229408   1.762   1.595   5.485 -0.3152  0.3333  0.1883
 9822TIP3    H129409   1.679   1.639   5.469  0.8840  2.9169  0.8454
 9822TIP3    H229410   1.770   1.593   5.581 -0.3739 -1.4162  0.1790
 9823TIP3   OH229411   4.882   2.620   4.660  0.1429  0.1462  0.6447
 9823TIP3    H129412   4.943   2.623   4.586  0.0732  0.5337  0.6034
 9823TIP3    H229413   4.932   2.577   4.730 -0.2381 -1.4652 -0.0424
 9824TIP3   OH229414   4.482   1.317   6.566 -0.5062 -0.1956 -0.1345
 9824TIP3    H129415   4.506   1.374   6.492 -0.3372 -0.9278 -0.6521
 9824TIP3    H229416   4.468   1.231   6.526  2.2756 -1.2503  1.0345
 9825TIP3   OH229417   6.547   3.042   4.840 -0.4048  0.7849 -0.2588
 9825TIP3    H129418   6.492   2.981   4.791 -1.2493  2.2288 -1.1606
 9825TIP3    H229419   6.631   2.997   4.848 -1.9199 -1.7878  1.8344
 9826TIP3   OH229420   5.385   1.817   6.633 -0.0867  0.4453  0.2298
 9826TIP3    H129421   5.432   1.746   6.676 -0.1249  0.7035  0.7023
 9826TIP3    H229422   5.313   1.775   6.587 -0.9076  0.3143  1.6085
 9827TIP3   OH229423   7.194   1.482   5.881 -0.1868 -0.0439 -0.1830
 9827TIP3    H129424   7.263   1.480   5.947 -1.2809 -1.4505  0.9604
 9827TIP3    H229425   7.150   1.565   5.895  2.7878  2.0444 -2.5738
 9828TIP3   OH229426   2.204   6.560   4.987 -0.1766 -0.8722 -0.0093
 9828TIP3    H129427   2.176   6.471   4.965 -0.9326 -0.6935  0.2226
 9828TIP3    H229428   2.251   6.590   4.909 -1.4915 -0.8092 -0.8009
 9829TIP3   OH229429   6.742   1.882   3.979  0.0848  0.0556  1.0443
 9829TIP3    H129430   6.699   1.928   3.908  1.0057  0.2501  0.6009
 9829TIP3    H229431   6.724   1.934   4.057  1.5529  1.4581  0.4672
 9830TIP3   OH229432   5.568   3.722   6.693  0.7102 -0.4379  0.5497
 9830TIP3    H129433   5.475   3.744   6.700  0.5671 -1.1487  0.9185
 9830TIP3    H229434   5.601   3.780   6.625  0.0589  0.0250  0.6223
 9831TIP3   OH229435   6.869   2.095   5.644  0.3387 -0.2360  0.5568
 9831TIP3    H129436   6.791   2.147   5.626 -0.0693 -0.3958  1.8466
 9831TIP3    H229437   6.942   2.152   5.619 -0.1543  0.3618  0.4736
 9832TIP3   OH229438   6.588   1.864   5.080 -0.3128 -0.0889  0.0357
 9832TIP3    H129439   6.594   1.855   5.175 -0.5191 -0.0136  0.0574
 9832TIP3    H229440   6.645   1.796   5.045 -2.7385 -2.2675  0.1825
 9833TIP3   OH229441   0.278   5.884   1.289  0.0068 -0.2967 -0.2240
 9833TIP3    H129442   0.304   5.823   1.220 -1.9005 -0.3162 -0.9453
 9833TIP3    H229443   0.257   5.965   1.244 -1.5283 -0.3963  0.2638
 9834TIP3   OH229444   1.750   7.715   6.792  0.4653 -0.1630  0.2777
 9834TIP3    H129445   1.762   7.631   6.748 -0.3261  0.5731 -1.3926
 9834TIP3    H229446   1.658   7.716   6.818  0.4522  0.2038  0.2256
 9835TIP3   OH229447   3.514   2.285   5.343 -0.0176  0.3474  0.4256
 9835TIP3    H129448   3.590   2.228   5.335  0.0479  0.5008 -0.0659
 9835TIP3    H229449   3.537   2.363   5.292  0.2685  1.2082  1.8404
 9836TIP3   OH229450   2.473   5.343   1.021 -0.4322 -0.1830  0.3501
 9836TIP3    H129451   2.537   5.317   1.088 -0.0943  1.6803  0.7838
 9836TIP3    H229452   2.390   5.345   1.067 -0.2662  0.6601  0.6390
 9837TIP3   OH229453   5.932   1.483   3.059 -0.3434 -0.5065 -0.5896
 9837TIP3    H129454   5.869   1.461   3.128  0.2030 -0.2958 -0.0102
 9837TIP3    H229455   5.930   1.578   3.054 -0.3247 -0.5185 -0.8096
 9838TIP3   OH229456   4.011   7.561   6.814  0.0416 -0.3757  0.6881
 9838TIP3    H129457   3.952   7.528   6.882 -0.3479 -0.5833  0.2463
 9838TIP3    H229458   4.082   7.602   6.863 -0.7734  0.4181  1.2072
 9839TIP3   OH229459   6.156   2.278   1.243  0.3561 -0.3641  0.1966
 9839TIP3    H129460   6.218   2.295   1.315 -0.6078 -0.9290  1.1685
 9839TIP3    H229461   6.210   2.284   1.164  1.4365  0.2514  0.9597
 9840TIP3   OH229462   1.083   4.376   0.849  0.1402  0.1729  0.2900
 9840TIP3    H129463   1.066   4.282   0.838  0.7461  0.1384 -0.3878
 9840TIP3    H229464   1.099   4.408   0.761  0.9414  0.7123  0.6283
 9841TIP3   OH229465   2.252   7.880   6.579 -0.3051 -0.3240  0.5560
 9841TIP3    H129466   2.312   7.834   6.638 -0.4446 -1.8803 -0.4876
 9841TIP3    H229467   2.172   7.828   6.582 -1.0585  0.8161  0.6590
 9842TIP3   OH229468   7.913   4.795   1.195 -0.1900 -0.5077 -0.8540
 9842TIP3    H129469   7.885   4.886   1.187  0.4224 -0.1722  0.6237
 9842TIP3    H229470   7.868   4.749   1.124 -2.4600  0.4951 -0.1051
 9843TIP3   OH229471   3.152   7.619   6.213  0.5333  0.0308  0.1870
 9843TIP3    H129472   3.127   7.594   6.124  0.8875 -1.1888  0.4123
 9843TIP3    H229473   3.192   7.540   6.249  2.3962  1.1775  0.6894
 9844TIP3   OH229474   7.379   1.314   6.858  0.5078 -0.0619 -0.0665
 9844TIP3    H129475   7.459   1.304   6.909  1.9069  1.6731 -1.8473
 9844TIP3    H229476   7.314   1.345   6.921  1.8064  0.6026  0.9576
 9845TIP3   OH229477   8.294   6.108   0.585  0.1158 -0.3393 -0.4876
 9845TIP3    H129478   8.302   6.037   0.521  0.0355  0.1885 -1.0927
 9845TIP3    H229479   8.384   6.126   0.612 -0.0019 -1.7924  0.9222
 9846TIP3   OH229480   7.023   4.923   0.148 -0.2589  0.5599  0.4585
 9846TIP3    H129481   6.952   4.931   0.085 -0.1140 -1.9799 -0.0526
 9846TIP3    H229482   6.980   4.935   0.233 -0.6943  2.4810  0.0004
 9847TIP3   OH229483   5.569   0.213   6.457 -0.3436 -0.0171 -0.1034
 9847TIP3    H129484   5.500   0.147   6.465  0.4580 -0.9498 -0.6892
 9847TIP3    H229485   5.536   0.289   6.504 -1.9450 -0.3108 -0.7221
 9848TIP3   OH229486   6.489   2.125   6.431 -0.9777  0.0200  0.0591
 9848TIP3    H129487   6.494   2.170   6.515  0.8572 -0.5790  0.2871
 9848TIP3    H229488   6.418   2.061   6.442 -2.1640  1.3844  0.4332
 9849TIP3   OH229489   5.121   2.450   6.414 -0.1247  0.1913  0.0225
 9849TIP3    H129490   5.118   2.499   6.332  1.4331 -0.4083 -0.4117
 9849TIP3    H229491   5.189   2.495   6.465 -0.4797  0.0293  0.6450
 9850TIP3   OH229492   1.528   4.396   0.151 -0.3816  0.1070 -0.5860
 9850TIP3    H129493   1.599   4.450   0.184 -0.1526 -0.1381 -0.6733
 9850TIP3    H229494   1.455   4.413   0.211  0.3905 -1.2209  0.7637
 9851TIP3   OH229495   4.352   2.270   6.012  0.3140 -0.0124  0.2844
 9851TIP3    H129496   4.410   2.281   6.087  1.7057 -1.7485 -0.5063
 9851TIP3    H229497   4.411   2.262   5.936 -1.0570  1.4938 -0.9836
 9852TIP3   OH229498   1.796   7.962   6.209 -0.4767 -0.1178 -0.1396
 9852TIP3    H129499   1.771   7.879   6.168 -0.8725  0.2492 -0.6496
 9852TIP3    H229500   1.848   8.007   6.142 -0.2276  0.0283  0.1505
 9853TIP3   OH229501   8.176   4.573   1.594 -0.2680  0.7916 -0.1262
 9853TIP3    H129502   8.188   4.580   1.688  0.0827  0.4775 -0.1469
 9853TIP3    H229503   8.162   4.663   1.564 -0.5752  0.8684  0.2503
 9854TIP3   OH229504   0.753   5.149   0.357 -0.3162  0.0326 -0.1419
 9854TIP3    H129505   0.780   5.061   0.330 -1.8551 -0.5978  0.3111
 9854TIP3    H229506   0.835   5.197   0.370  0.5610 -1.7112  0.8579
 9855TIP3   OH229507   6.152   2.583   4.260 -0.6561 -0.2684 -0.2175
 9855TIP3    H129508   6.166   2.527   4.337 -0.9945  0.7528  0.5955
 9855TIP3    H229509   6.086   2.646   4.288 -0.2664  0.5532 -1.1242
 9856TIP3   OH229510   5.928   1.895   4.591  0.0043  0.1925 -0.8873
 9856TIP3    H129511   5.939   1.870   4.682  0.6767  0.3759 -0.9115
 9856TIP3    H229512   5.866   1.831   4.555 -1.0454  0.7303 -0.0497
 9857TIP3   OH229513   2.117   1.200   5.166 -0.2991  0.1948  0.5071
 9857TIP3    H129514   2.140   1.277   5.218  3.0567  0.5618 -1.3850
 9857TIP3    H229515   2.100   1.132   5.230  0.1748  1.5696  2.1386
 9858TIP3   OH229516   0.911   5.386   1.535  0.3803 -0.5509  0.3906
 9858TIP3    H129517   0.826   5.424   1.556  0.1371  0.0445 -1.6426
 9858TIP3    H229518   0.950   5.447   1.473  2.4271 -0.6712  1.5028
 9859TIP3   OH229519   6.369   2.885   4.683 -0.0580  0.7913 -0.6590
 9859TIP3    H129520   6.293   2.941   4.667 -1.3335 -0.9502 -0.8501
 9859TIP3    H229521   6.337   2.796   4.665  2.5119  0.1893 -2.5450
 9860TIP3   OH229522   1.074   3.728   0.840 -0.1254 -0.2810  0.5831
 9860TIP3    H129523   1.107   3.725   0.751  0.9453  0.9443  0.9152
 9860TIP3    H229524   1.061   3.636   0.864  0.6160 -0.6715 -0.4557
 9861TIP3   OH229525   3.412   7.794   5.958 -0.1270  0.2528  0.1877
 9861TIP3    H129526   3.408   7.787   5.863 -0.5019  0.0125  0.2201
 9861TIP3    H229527   3.362   7.874   5.978  1.0345  1.0246  0.0907
 9862TIP3   OH229528   6.268   1.596   6.782 -0.4006  0.0075 -0.2702
 9862TIP3    H129529   6.233   1.509   6.762 -1.4363  0.5771 -0.9499
 9862TIP3    H229530   6.308   1.586   6.869 -1.6985 -0.8055  0.2533
 9863TIP3   OH229531   4.927   0.023   4.575  0.0341  0.6928  0.1413
 9863TIP3    H129532   4.867   0.039   4.502  0.4571 -1.1826 -0.6316
 9863TIP3    H229533   5.005   0.074   4.553  0.0583  0.3554 -0.5805
 9864TIP3   OH229534   5.854   1.642   6.773  0.4911 -0.2085  0.2879
 9864TIP3    H129535   5.939   1.618   6.736  0.2097 -0.4376 -0.2197
 9864TIP3    H229536   5.832   1.570   6.832  0.3765 -0.4380 -0.0348
 9865TIP3   OH229537   7.780   1.038   6.827  0.0614 -0.3364  0.1641
 9865TIP3    H129538   7.751   0.973   6.891 -0.6084 -0.3484 -0.1502
 9865TIP3    H229539   7.736   1.118   6.852 -0.4670 -0.4227 -0.4873
 9866TIP3   OH229540   1.151   7.853   0.178 -0.4474 -0.5228 -0.2768
 9866TIP3    H129541   1.080   7.806   0.134 -0.8040  0.5385 -0.8267
 9866TIP3    H229542   1.136   7.945   0.158  0.7003 -0.2292  0.1718
 9867TIP3   OH229543   7.502   0.602   4.396 -0.3290 -0.0361 -0.3173
 9867TIP3    H129544   7.439   0.534   4.377 -0.2059 -0.0224 -0.7726
 9867TIP3    H229545   7.480   0.632   4.485  0.4195 -1.5506  0.3928
 9868TIP3   OH229546   6.240   2.474   4.493 -0.4873  0.1431 -0.5195
 9868TIP3    H129547   6.180   2.527   4.545 -0.7887 -0.1052 -0.6152
 9868TIP3    H229548   6.253   2.394   4.544 -1.7013 -0.6104 -1.3596
 9869TIP3   OH229549   1.042   4.357   0.364 -0.4182 -0.5534 -0.2003
 9869TIP3    H129550   1.076   4.309   0.439  0.6249  1.4791  0.6732
 9869TIP3    H229551   0.949   4.372   0.384 -0.4198 -1.0175  0.1345
 9870TIP3   OH229552   2.054   6.223   4.956  0.1921  0.0563 -0.2509
 9870TIP3    H129553   2.142   6.218   4.919  0.0818  0.4754 -0.5825
 9870TIP3    H229554   2.068   6.245   5.048  0.4353  0.1692 -0.3138
 9871TIP3   OH229555   7.326   0.453   5.707  0.0731  0.6355 -0.1368
 9871TIP3    H129556   7.336   0.538   5.749  2.1485  0.6863 -0.6483
 9871TIP3    H229557   7.375   0.461   5.625  0.9223 -1.2816  0.1514
 9872TIP3   OH229558   5.083   1.217   4.505  0.5681  0.0067 -0.4901
 9872TIP3    H129559   5.036   1.181   4.430 -0.3339  0.3288 -0.0965
 9872TIP3    H229560   5.014   1.253   4.561  1.1429 -1.0012  0.9115
 9873TIP3   OH229561   7.175   1.890   5.346 -0.4285  0.3608 -0.6134
 9873TIP3    H129562   7.162   1.919   5.256 -1.0127  1.7559 -0.0987
 9873TIP3    H229563   7.258   1.843   5.345 -0.8511 -0.3875 -2.0484
 9874TIP3   OH229564   0.397   1.286   3.750  0.0918 -0.6194  0.0140
 9874TIP3    H129565   0.426   1.291   3.841  2.2231  0.9483 -0.7070
 9874TIP3    H229566   0.414   1.195   3.725  1.1233 -0.6230  0.6767
 9875TIP3   OH229567   2.981   4.356   1.706  0.4710  0.0486  0.8639
 9875TIP3    H129568   2.998   4.447   1.681  1.3555 -0.4466 -0.4113
 9875TIP3    H229569   3.066   4.323   1.735 -0.1834  0.0930  2.9244
 9876TIP3   OH229570   2.282   5.890   1.878  0.5277 -0.5044 -0.9440
 9876TIP3    H129571   2.283   5.869   1.971  2.7638  1.8549 -0.3673
 9876TIP3    H229572   2.191   5.880   1.852 -0.0379 -1.7466  1.3419
 9877TIP3   OH229573   6.618   2.302   5.907  0.6890 -0.2615  0.2040
 9877TIP3    H129574   6.674   2.230   5.937  1.7392  0.7734  0.7880
 9877TIP3    H229575   6.631   2.304   5.813  0.0799 -1.3010  0.0853
 9878TIP3   OH229576   1.323   3.251   6.037 -0.2073  0.0400  0.2179
 9878TIP3    H129577   1.407   3.212   6.013  0.4041  1.5750 -0.1890
 9878TIP3    H229578   1.262   3.177   6.040  0.5612 -0.7535 -2.1980
 9879TIP3   OH229579   6.305   2.023   5.883  0.1838  0.1228 -0.3314
 9879TIP3    H129580   6.305   2.051   5.974 -1.8257 -0.6822 -0.0569
 9879TIP3    H229581   6.235   1.957   5.877  1.6718 -1.3810 -1.9917
 9880TIP3   OH229582   6.796   1.358   4.865  0.5650 -0.0787  0.1470
 9880TIP3    H129583   6.761   1.414   4.795  1.3458  0.8736  0.5132
 9880TIP3    H229584   6.732   1.365   4.936 -0.3442 -1.2230 -0.5379
 9881TIP3   OH229585   4.426   2.039   5.758  0.8290  0.2627 -0.4287
 9881TIP3    H129586   4.493   1.979   5.792 -0.6839 -0.3499  1.5756
 9881TIP3    H229587   4.344   2.009   5.798 -0.1529  2.9251 -0.3383
 9882TIP3   OH229588   1.225   0.461   4.539 -0.0344 -0.2492  0.0061
 9882TIP3    H129589   1.211   0.533   4.601 -0.1388 -1.7683  1.7887
 9882TIP3    H229590   1.306   0.484   4.494  0.0040  0.9201  0.6496
 9883TIP3   OH229591   6.223   1.068   6.099 -0.8064 -0.5211 -0.0612
 9883TIP3    H129592   6.237   1.139   6.035  0.2091 -0.4271  0.2641
 9883TIP3    H229593   6.156   1.102   6.158 -1.2630 -0.3388 -0.6812
 9884TIP3   OH229594   7.920   0.018   5.164  0.5110 -0.0526  0.5802
 9884TIP3    H129595   7.984   0.087   5.144 -1.4289  1.2037 -1.4667
 9884TIP3    H229596   7.935  -0.002   5.257  2.9163  1.1995  0.4945
 9885TIP3   OH229597   7.884   0.853   2.826 -0.2666 -0.0206  0.3591
 9885TIP3    H129598   7.867   0.915   2.756  1.6551  1.0295  0.7987
 9885TIP3    H229599   7.902   0.770   2.781 -0.0333  0.4072 -0.3412
 9886TIP3   OH229600   4.147   5.958   0.484 -0.0482  0.0266  0.3786
 9886TIP3    H129601   4.212   5.928   0.548 -0.3093  1.2202  1.2230
 9886TIP3    H229602   4.073   5.898   0.495  1.1717 -1.8194 -1.1239
 9887TIP3   OH229603   8.113   1.941   5.201 -0.6884 -0.0953 -0.2198
 9887TIP3    H129604   8.157   2.005   5.256 -0.4767 -0.3354 -0.1112
 9887TIP3    H229605   8.088   1.991   5.123 -1.4105  0.3580  0.2937
 9888TIP3   OH229606   7.481   5.147   0.613  0.0825 -0.0088  0.3444
 9888TIP3    H129607   7.423   5.148   0.689 -0.6137  1.0316 -0.1757
 9888TIP3    H229608   7.424   5.120   0.540  0.3364  0.6868 -0.1134
 9889TIP3   OH229609   0.439   1.718   3.013 -0.3912  0.0371  0.2994
 9889TIP3    H129610   0.399   1.743   3.097  0.3974  0.7404  0.4758
 9889TIP3    H229611   0.531   1.742   3.023 -0.1768 -0.4259 -0.5578
 9890TIP3   OH229612   6.452   1.063   4.567  0.5594  0.6173  0.1928
 9890TIP3    H129613   6.453   1.153   4.535  3.2640  1.1733  1.6889
 9890TIP3    H229614   6.523   1.059   4.631  0.2534 -2.4829  0.4396
 9891TIP3   OH229615   7.488   1.615   5.072  0.1363 -0.3074  0.5519
 9891TIP3    H129616   7.507   1.525   5.100 -1.0952 -0.2428  1.6511
 9891TIP3    H229617   7.502   1.668   5.151  0.7454  0.4468 -0.0610
 9892TIP3   OH229618   7.539   1.268   2.163 -0.2587 -0.4932 -0.0179
 9892TIP3    H129619   7.533   1.341   2.100  1.5291 -1.7512 -1.6724
 9892TIP3    H229620   7.561   1.311   2.246  0.8668  0.8690 -0.9847
 9893TIP3   OH229621   5.156   1.218   4.837 -0.1989  0.1498  0.2068
 9893TIP3    H129622   5.199   1.154   4.895  0.2798  1.6331  1.5067
 9893TIP3    H229623   5.219   1.231   4.765  0.2143  0.0631  0.5516
 9894TIP3   OH229624   5.569   2.829   6.267  0.2526 -0.4230  0.2240
 9894TIP3    H129625   5.653   2.818   6.310  0.7764  0.5332 -0.5388
 9894TIP3    H229626   5.506   2.834   6.339  0.9390 -0.3710  0.8256
 9895TIP3   OH229627   0.290   6.071   0.070 -0.1789 -0.2229 -0.0998
 9895TIP3    H129628   0.212   6.055   0.016  0.0603 -0.9951 -0.2234
 9895TIP3    H229629   0.329   5.985   0.081  1.4551  0.3652 -1.2371
 9896TIP3   OH229630   7.093   2.318   4.490 -0.3773  0.0294 -0.3402
 9896TIP3    H129631   7.179   2.317   4.449 -0.2514 -1.7585 -0.0598
 9896TIP3    H229632   7.095   2.245   4.552 -1.5507  0.9406  0.8030
 9897TIP3   OH229633   5.903   1.879   4.091  0.2964  0.2162  0.5296
 9897TIP3    H129634   5.941   1.791   4.082 -2.4440 -0.9042 -0.6867
 9897TIP3    H229635   5.917   1.920   4.006  0.0075  0.2960  0.5198
 9898TIP3   OH229636   6.765   1.326   5.919 -0.4731  0.3431  0.2933
 9898TIP3    H129637   6.825   1.273   5.865 -1.1028 -0.9931  0.9049
 9898TIP3    H229638   6.678   1.304   5.886 -0.9072 -0.9848  2.2994
 9899TIP3   OH229639   0.393   5.369   2.388  0.3474 -0.2197  0.2777
 9899TIP3    H129640   0.302   5.347   2.365  0.3525  0.3377 -0.2744
 9899TIP3    H229641   0.432   5.398   2.306  0.9941 -0.3316  0.5440
 9900TIP3   OH229642   0.616   5.761   0.315 -0.0722 -0.5979 -0.2639
 9900TIP3    H129643   0.672   5.817   0.369 -1.1026 -0.8346  1.1021
 9900TIP3    H229644   0.660   5.675   0.317 -0.9713 -1.0413  1.6372
 9901TIP3   OH229645   1.529   3.801   6.937 -0.7720  0.5903  0.3126
 9901TIP3    H129646   1.452   3.747   6.918  0.7657 -2.2924  1.9624
 9901TIP3    H229647   1.585   3.791   6.861 -1.4014  1.6497 -0.3158
 9902TIP3   OH229648   0.989   1.064   5.150 -0.0222  0.0821  0.1422
 9902TIP3    H129649   1.003   1.096   5.061 -1.0599  1.5136  0.4771
 9902TIP3    H229650   1.061   1.100   5.201  0.8277 -1.1083 -0.1853
 9903TIP3   OH229651   7.004   1.960   5.871  0.4606  0.3055 -0.5420
 9903TIP3    H129652   7.099   1.952   5.877  0.6606  2.3357 -0.5079
 9903TIP3    H229653   6.990   2.019   5.797 -0.8160 -0.5889 -1.0288
 9904TIP3   OH229654   7.516   0.867   4.104 -0.1213 -0.6219 -0.1717
 9904TIP3    H129655   7.516   0.956   4.137 -0.4817 -0.5889 -0.2590
 9904TIP3    H229656   7.583   0.822   4.155  0.4523 -0.1599 -0.5182
 9905TIP3   OH229657   5.120   1.339   6.271  0.1816 -0.3456 -0.0896
 9905TIP3    H129658   5.069   1.389   6.336 -1.4118 -0.1489 -1.4718
 9905TIP3    H229659   5.095   1.248   6.285  0.9159 -0.4705  0.4924
 9906TIP3   OH229660   6.779   0.765   4.961  0.3166 -0.0829  0.6414
 9906TIP3    H129661   6.760   0.789   5.052  0.5303 -2.3285  1.3040
 9906TIP3    H229662   6.696   0.732   4.927 -0.1822  2.2670 -0.5149
 9907TIP3   OH229663   6.110   3.661   4.878  0.2670  0.0026  0.9467
 9907TIP3    H129664   6.188   3.713   4.854 -0.1257  0.7728  1.3190
 9907TIP3    H229665   6.038   3.724   4.877 -0.6334 -1.0135 -0.9203
 9908TIP3   OH229666   7.653   1.758   5.268  0.4874 -0.2973 -0.2597
 9908TIP3    H129667   7.717   1.826   5.247  1.0195 -0.8091 -0.3222
 9908TIP3    H229668   7.703   1.695   5.321 -0.4783  0.3068  1.3827
 9909TIP3   OH229669   5.606   1.880   3.025 -0.0949 -0.2746  0.6786
 9909TIP3    H129670   5.678   1.886   3.087  1.3278 -0.5526 -0.9148
 9909TIP3    H229671   5.581   1.788   3.026  1.5561 -0.7451 -0.9658
 9910TIP3   OH229672   4.270   2.162   3.982 -0.2562  0.3534  0.5281
 9910TIP3    H129673   4.206   2.217   4.028 -0.9834  1.4983 -1.7649
 9910TIP3    H229674   4.233   2.151   3.894  1.0547 -1.8327  0.2133
 9911TIP3   OH229675   8.409   2.264   5.203  0.0745  0.3215  0.3376
 9911TIP3    H129676   8.420   2.355   5.176  0.6370 -0.1799 -1.1895
 9911TIP3    H229677   8.403   2.215   5.121  0.0166 -1.0496  1.1367
 9912TIP3   OH229678   8.204   2.393   4.868  0.3141  0.2455 -0.3822
 9912TIP3    H129679   8.256   2.466   4.902 -1.4112  0.6790  1.4062
 9912TIP3    H229680   8.242   2.316   4.911 -0.5549  0.5730  1.0101
 9913TIP3   OH229681   1.145   6.944   5.894 -0.1145  0.0893 -0.9971
 9913TIP3    H129682   1.174   7.034   5.880 -0.2134  0.0257 -1.6526
 9913TIP3    H229683   1.176   6.897   5.816 -0.9857 -0.2208 -1.1563
 9914TIP3   OH229684   3.897   2.278   4.538  0.1659 -0.2670  0.6374
 9914TIP3    H129685   3.818   2.288   4.591 -0.1477 -0.6781  0.2557
 9914TIP3    H229686   3.933   2.366   4.532 -0.8737  0.1203 -0.1149
 9915TIP3   OH229687   7.501   0.547   4.877  0.5059 -0.6126  0.2482
 9915TIP3    H129688   7.516   0.614   4.943  1.4907 -0.9602  0.3820
 9915TIP3    H229689   7.539   0.468   4.914 -2.0943 -1.6560  0.8149
 9916TIP3   OH229690   4.307   7.481   6.405 -0.4813 -0.4252  0.3507
 9916TIP3    H129691   4.362   7.460   6.480  0.8263  0.4220 -0.3491
 9916TIP3    H229692   4.344   7.432   6.332 -0.3675  0.4923 -0.2269
 9917TIP3   OH229693   7.895   1.587   4.880  0.0161  0.0045  0.6527
 9917TIP3    H129694   7.804   1.611   4.863 -0.3772 -1.5367  0.5177
 9917TIP3    H229695   7.903   1.497   4.847  1.7620  0.3480  0.0682
 9918TIP3   OH229696   3.791   7.168   0.741  0.4814  0.6133 -0.1206
 9918TIP3    H129697   3.729   7.095   0.752  1.0230 -0.0535 -1.2812
 9918TIP3    H229698   3.854   7.157   0.812  0.8518 -0.3780 -0.5835
 9919TIP3   OH229699   5.926   0.477   6.345 -0.2680 -0.4830  0.2107
 9919TIP3    H129700   5.844   0.521   6.366  0.8099  1.4517  0.4857
 9919TIP3    H229701   5.910   0.385   6.368 -1.8777  0.1142  1.6096
 9920TIP3   OH229702   8.102   1.154   3.700  0.0009 -0.2260  0.2327
 9920TIP3    H129703   8.196   1.138   3.690 -0.4087 -1.2613 -2.4273
 9920TIP3    H229704   8.091   1.247   3.679  0.3316 -0.3105 -0.3344
 9921TIP3   OH229705   7.467   1.429   4.662 -0.3240  0.2821 -0.5854
 9921TIP3    H129706   7.537   1.470   4.610 -0.6785  0.4518 -0.9377
 9921TIP3    H229707   7.419   1.503   4.700  0.1530  0.1476  0.2763
 9922TIP3   OH229708   7.112   2.058   3.762  0.3567  0.5263 -0.1199
 9922TIP3    H129709   7.085   2.004   3.837 -0.8123  0.9652 -0.2190
 9922TIP3    H229710   7.091   2.005   3.685 -0.3060  0.8872 -0.1974
 9923TIP3   OH229711   0.873   1.977   5.959  0.0723  0.3026  0.1608
 9923TIP3    H129712   0.894   2.046   6.022  0.0196 -1.8100  2.5897
 9923TIP3    H229713   0.799   2.011   5.909  0.7432  2.4271  0.5532
 9924TIP3   OH229714   5.191   7.447   5.825 -0.1569  0.3896 -0.1409
 9924TIP3    H129715   5.224   7.357   5.827  2.1378  1.1915  1.3626
 9924TIP3    H229716   5.238   7.488   5.752 -1.2021  0.3774 -0.8279
 9925TIP3   OH229717   8.139   0.949   5.201 -0.8046  0.4770  0.5494
 9925TIP3    H129718   8.092   0.936   5.119  1.2806  0.1480 -0.6310
 9925TIP3    H229719   8.116   0.873   5.255 -1.6534  0.3552  0.0219
 9926TIP3   OH229720   0.459   1.039   4.356 -0.2956 -0.2261  0.0894
 9926TIP3    H129721   0.512   1.077   4.286 -0.3361 -0.1098  0.1210
 9926TIP3    H229722   0.376   1.015   4.314  0.0602 -1.0871 -0.1103
 9927TIP3   OH229723   7.392   2.232   6.687  0.0752  0.1304  0.1133
 9927TIP3    H129724   7.441   2.151   6.697 -0.2958  0.1184  2.0923
 9927TIP3    H229725   7.409   2.261   6.597  1.9147 -1.0142  0.0886
 9928TIP3   OH229726   7.264   1.083   4.875  0.0754  0.4384  0.0279
 9928TIP3    H129727   7.291   1.049   4.790 -1.7842  0.0699 -0.4371
 9928TIP3    H229728   7.231   1.171   4.856 -2.0611 -0.3253  0.0424
 9929TIP3   OH229729   7.551   1.348   5.960 -0.0939  1.1998 -0.7900
 9929TIP3    H129730   7.609   1.287   5.915 -1.4592  0.6371 -1.8437
 9929TIP3    H229731   7.478   1.294   5.990 -1.5547  2.3544 -2.1407
 9930TIP3   OH229732   7.219   1.267   4.148  0.4747 -0.2313 -0.4290
 9930TIP3    H129733   7.227   1.308   4.062 -0.6914 -0.2291 -0.5521
 9930TIP3    H229734   7.308   1.243   4.172  0.7130 -1.0586 -2.0508
 9931TIP3   OH229735   2.799   7.038   2.124 -0.2782 -0.1192 -0.3719
 9931TIP3    H129736   2.706   7.061   2.127  0.5622  3.2867  2.3336
 9931TIP3    H229737   2.834   7.089   2.052  0.0991  1.2395  0.7484
 9932TIP3   OH229738   0.790   0.047   4.653  0.4777 -0.6215 -0.3011
 9932TIP3    H129739   0.698   0.026   4.664  0.3087 -0.9747 -2.1825
 9932TIP3    H229740   0.823   0.058   4.742 -1.4938  0.0645  0.3745
 9933TIP3   OH229741   8.295   0.873   3.700  0.0697 -0.4040 -0.2787
 9933TIP3    H129742   8.331   0.853   3.787  0.9888 -2.1757 -1.0455
 9933TIP3    H229743   8.356   0.831   3.639 -0.7998  0.4742 -1.7756
 9934TIP3   OH229744   7.093   2.964   5.832  0.8581  0.4300  0.6296
 9934TIP3    H129745   7.071   3.003   5.748  0.9608 -0.5182  0.1508
 9934TIP3    H229746   7.032   3.003   5.894  0.3254  0.6269 -0.0149
 9935TIP3   OH229747   5.524   0.812   5.989 -0.3409  0.2282 -0.0865
 9935TIP3    H129748   5.609   0.851   5.968  0.1606 -0.8516 -0.1074
 9935TIP3    H229749   5.503   0.846   6.076  0.4325 -0.0075  0.2002
 9936TIP3   OH229750   4.447   7.780   5.239 -0.1101 -0.5967  0.3591
 9936TIP3    H129751   4.518   7.755   5.298 -0.1014 -2.2697 -0.3358
 9936TIP3    H229752   4.489   7.834   5.172  0.2369 -0.3361  0.7838
 9937TIP3   OH229753   0.619   3.160   5.112  0.3536 -0.5466 -0.2344
 9937TIP3    H129754   0.711   3.175   5.133  0.5953 -1.4049 -0.6685
 9937TIP3    H229755   0.572   3.193   5.189  1.0714 -1.0294  0.4206
 9938TIP3   OH229756   6.439   1.558   5.334  0.8399  0.0559 -0.3078
 9938TIP3    H129757   6.526   1.591   5.355  1.4011 -0.8085 -1.2427
 9938TIP3    H229758   6.424   1.585   5.244  0.0602  0.3615 -0.0900
 9939TIP3   OH229759   5.385   2.387   4.028 -0.3909 -0.5870  0.5692
 9939TIP3    H129760   5.344   2.473   4.019  0.8507 -0.1443 -1.1034
 9939TIP3    H229761   5.474   2.405   4.055  0.2187 -1.2714 -0.9245
 9940TIP3   OH229762   2.469   6.913   0.014  0.0219  0.6048  0.2031
 9940TIP3    H129763   2.505   6.827   0.038 -0.3133  0.5326  0.4466
 9940TIP3    H229764   2.543   6.960  -0.025 -0.2814 -0.5036 -1.7773
 9941TIP3   OH229765   1.286   1.156   2.837 -0.3051  0.2890 -0.2713
 9941TIP3    H129766   1.349   1.112   2.893 -1.5361 -0.2046  0.7548
 9941TIP3    H229767   1.280   1.245   2.872  1.0443  0.8565 -1.4074
 9942TIP3   OH229768   8.003   2.525   6.560 -0.0429 -0.2239  0.1533
 9942TIP3    H129769   7.998   2.586   6.633 -0.8760  0.8651 -0.7785
 9942TIP3    H229770   7.938   2.458   6.580  0.7415 -0.6951  1.0953
 9943TIP3   OH229771   7.124   1.050   4.498  0.3586  0.0410  0.3223
 9943TIP3    H129772   7.201   1.032   4.552  2.9042 -1.6781 -3.6850
 9943TIP3    H229773   7.141   1.136   4.461 -0.3702  0.2813  0.5371
 9944TIP3   OH229774   6.552   0.726   4.214  0.0431  0.5476 -0.0090
 9944TIP3    H129775   6.606   0.648   4.217 -0.2578  0.3515  0.3046
 9944TIP3    H229776   6.609   0.793   4.176 -0.0744 -0.1175 -1.3580
 9945TIP3   OH229777   6.429   2.574   4.910  0.1676 -0.3519 -0.8843
 9945TIP3    H129778   6.418   2.569   4.815  1.8248  2.2640 -1.2694
 9945TIP3    H229779   6.489   2.648   4.923 -0.3001 -0.4666  2.2171
 9946TIP3   OH229780   5.984   4.018   4.333  0.3498  0.2498 -0.1268
 9946TIP3    H129781   5.926   4.044   4.262 -0.5776 -1.1434  0.1077
 9946TIP3    H229782   6.066   4.064   4.316 -0.4462  1.2988 -1.1135
 9947TIP3   OH229783   6.293   2.078   4.146 -0.1669  0.3658  0.1087
 9947TIP3    H129784   6.314   1.985   4.155 -3.4650 -0.5593 -0.9907
 9947TIP3    H229785   6.336   2.105   4.065  2.2527  0.2866  1.3247
 9948TIP3   OH229786   7.701   4.788   0.657  0.1751  0.6710 -0.2597
 9948TIP3    H129787   7.659   4.785   0.571 -1.3112 -0.6516  0.4823
 9948TIP3    H229788   7.747   4.704   0.664 -0.7522  0.2265  0.7259
 9949TIP3   OH229789   6.821   3.132   4.643 -0.0038  0.2203  0.6466
 9949TIP3    H129790   6.738   3.101   4.607 -1.9250  1.9228  3.3515
 9949TIP3    H229791   6.866   3.053   4.673  0.6009 -0.9759 -3.1948
 9950TIP3   OH229792   0.614   1.661   4.289  0.2395  0.2657 -0.1163
 9950TIP3    H129793   0.527   1.623   4.303  0.4869  0.1904  1.2798
 9950TIP3    H229794   0.632   1.709   4.370  0.6268  1.9989 -1.1974
 9951TIP3   OH229795   7.173   2.470   6.352 -0.1830 -0.6845 -0.2222
 9951TIP3    H129796   7.097   2.511   6.394 -0.0464 -0.6973  0.0380
 9951TIP3    H229797   7.138   2.434   6.270 -0.2896  0.0285 -0.4974
 9952TIP3   OH229798   7.753   1.933   5.605  0.2682  0.1424 -0.5152
 9952TIP3    H129799   7.836   1.888   5.616 -0.1599 -1.5737 -3.6721
 9952TIP3    H229800   7.772   2.006   5.545  0.0039  1.2940  0.7829
 9953TIP3   OH229801   8.442   0.658   4.878 -0.0529  0.5874  0.7085
 9953TIP3    H129802   8.464   0.715   4.952 -2.6963 -0.1611  2.1491
 9953TIP3    H229803   8.395   0.715   4.817  0.4230  0.7589  0.5013
 9954TIP3   OH229804   2.243   8.022   5.920  0.0583  0.1353 -0.3451
 9954TIP3    H129805   2.278   8.002   5.834 -1.2269 -1.2534 -0.5600
 9954TIP3    H229806   2.290   7.964   5.980  0.9391  1.0870 -0.0849
 9955TIP3   OH229807   2.916   6.859   5.779 -0.1721 -0.4689 -0.0809
 9955TIP3    H129808   2.959   6.829   5.859 -0.5133  0.0790  0.3120
 9955TIP3    H229809   2.847   6.918   5.810  1.3382  1.7759 -0.9081
 9956TIP3   OH229810   7.084   1.286   5.027 -0.0365 -0.3882 -0.3664
 9956TIP3    H129811   6.995   1.315   5.009 -1.1571 -0.7652  4.0792
 9956TIP3    H229812   7.077   1.191   5.037  0.2131 -0.1239  2.9453
 9957TIP3   OH229813   5.168   0.063   6.415  0.3125 -0.2918  0.3051
 9957TIP3    H129814   5.092   0.116   6.440  1.4834  0.9982  1.2368
 9957TIP3    H229815   5.177  -0.000   6.486 -0.4442 -1.0871 -0.2842
 9958TIP3   OH229816   5.366   1.036   6.401  0.6926 -0.0754  0.6306
 9958TIP3    H129817   5.403   1.119   6.431  1.8691  0.5120 -2.2631
 9958TIP3    H229818   5.273   1.042   6.424  1.0725  1.3512  1.8843
 9959TIP3   OH229819   7.971   5.956   1.859 -0.3669 -0.0935 -0.4312
 9959TIP3    H129820   7.880   5.939   1.883 -0.9326  0.4021 -2.2195
 9959TIP3    H229821   7.996   6.031   1.914 -1.3859  0.4624 -0.7064
 9960TIP3   OH229822   8.108   0.676   3.897  0.1715  0.1714  0.0350
 9960TIP3    H129823   8.168   0.750   3.890  0.6333 -0.0133  1.7908
 9960TIP3    H229824   8.030   0.712   3.941 -0.5249  0.1337 -1.1549
 9961TIP3   OH229825   1.331   4.939   2.141 -0.3236 -0.5171 -0.1822
 9961TIP3    H129826   1.246   4.980   2.126 -0.0309 -0.0422 -0.5320
 9961TIP3    H229827   1.330   4.915   2.234 -0.1551  1.0608  0.2463
 9962TIP3   OH229828   7.233   2.284   3.136 -0.1089  0.4757 -0.4685
 9962TIP3    H129829   7.300   2.346   3.165 -0.3289  1.8107 -2.6741
 9962TIP3    H229830   7.217   2.309   3.045 -2.3634 -0.9385 -0.4668
 9963TIP3   OH229831   2.468   5.680   0.647  0.4379  0.2258  0.1388
 9963TIP3    H129832   2.470   5.769   0.610  0.3399  0.3184  0.3595
 9963TIP3    H229833   2.510   5.626   0.580  1.1439  0.5515  0.3221
 9964TIP3   OH229834   7.379  -0.013   5.754  0.2901 -0.1051 -0.4477
 9964TIP3    H129835   7.324  -0.020   5.676  0.6980 -0.3575 -0.7169
 9964TIP3    H229836   7.342   0.061   5.803 -0.8693 -0.8654 -0.1548
 9965TIP3   OH229837   8.001   7.484   1.079 -0.2759  0.2594  0.1625
 9965TIP3    H129838   8.082   7.522   1.114 -0.6272 -0.9612  2.4110
 9965TIP3    H229839   7.932   7.521   1.134 -0.9375 -0.9498  0.1576
 9966TIP3   OH229840   7.518   1.604   2.697 -0.1071  0.3078 -0.5452
 9966TIP3    H129841   7.515   1.687   2.648 -2.1676  1.7866  1.9570
 9966TIP3    H229842   7.426   1.580   2.709  0.4573 -1.8988 -0.4810
 9967TIP3   OH229843   3.721   5.157   1.191 -0.1828  0.6493 -0.3896
 9967TIP3    H129844   3.747   5.094   1.124 -1.5399 -0.5100  0.1470
 9967TIP3    H229845   3.795   5.216   1.198  0.6947 -0.2712 -1.6568
 9968TIP3   OH229846   0.677   4.052   2.603 -0.1395 -0.4017 -0.2005
 9968TIP3    H129847   0.668   3.981   2.539  1.4336  0.2188 -1.1462
 9968TIP3    H229848   0.695   4.130   2.550 -1.5339  0.6627  0.8478
 9969TIP3   OH229849   1.975   3.072   0.306 -0.1617  0.7990 -0.6662
 9969TIP3    H129850   2.063   3.066   0.344 -1.0921 -0.6052  1.3471
 9969TIP3    H229851   1.989   3.058   0.212  1.9610  2.4614 -0.6484
 9970TIP3   OH229852   6.241   1.775   5.412  0.3138  0.5340 -0.1349
 9970TIP3    H129853   6.288   1.692   5.407 -1.3600 -0.4331 -0.1121
 9970TIP3    H229854   6.227   1.801   5.321  0.1150  0.3607 -0.1552
 9971TIP3   OH229855   0.997   1.239   5.963 -0.0654 -0.3566  0.0050
 9971TIP3    H129856   0.924   1.219   5.906 -0.2939  0.6927 -0.0873
 9971TIP3    H229857   0.957   1.263   6.047  0.1111  1.2293 -0.3508
 9972TIP3   OH229858   0.898   3.480   5.050  0.7209  0.4093  0.3022
 9972TIP3    H129859   0.856   3.544   5.108  1.0290 -0.0025  0.9924
 9972TIP3    H229860   0.900   3.399   5.101 -0.0351 -0.2609 -0.7302
 9973TIP3   OH229861   8.131   0.694   6.651  0.2703  0.3240 -0.0813
 9973TIP3    H129862   8.075   0.756   6.605 -0.9614 -0.4818  0.2770
 9973TIP3    H229863   8.140   0.620   6.590 -0.0230 -0.0454  0.3173
 9974TIP3   OH229864   7.257   0.533   6.257  0.3067 -0.2533  0.2843
 9974TIP3    H129865   7.303   0.564   6.179  0.4435 -1.0563  0.0393
 9974TIP3    H229866   7.310   0.564   6.330  0.4454  0.0833  0.0444
 9975TIP3   OH229867   4.424   1.096   6.427 -0.0840  0.4992  0.1540
 9975TIP3    H129868   4.328   1.093   6.421 -0.2305  0.1609  2.1873
 9975TIP3    H229869   4.453   1.014   6.387 -0.5100  1.5033 -2.2842
 9976TIP3   OH229870   6.211   2.917   5.772  0.0726  0.1870  0.3309
 9976TIP3    H129871   6.172   2.911   5.859  0.3645  0.7355  0.5029
 9976TIP3    H229872   6.302   2.944   5.788  0.3432 -0.4629 -0.0994
 9977TIP3   OH229873   6.250   1.853   5.138  0.3018 -0.4975  0.1977
 9977TIP3    H129874   6.171   1.868   5.086  0.3881 -1.5548 -0.2454
 9977TIP3    H229875   6.297   1.936   5.134  0.1481 -0.4547 -1.1424
 9978TIP3   OH229876   3.822   0.031   0.810 -0.3029 -0.2401 -0.6317
 9978TIP3    H129877   3.765   0.087   0.864  0.0671  0.0188 -0.5045
 9978TIP3    H229878   3.830   0.078   0.727 -0.8546 -0.6278 -0.9038
 9979TIP3   OH229879   7.245   1.278   4.674 -0.1622  0.1766  0.0062
 9979TIP3    H129880   7.197   1.277   4.591  0.3446  0.4488 -0.2929
 9979TIP3    H229881   7.314   1.342   4.661 -0.1910  0.3613  0.7084
 9980TIP3   OH229882   7.477   2.108   5.560  0.1299 -0.1763 -0.1748
 9980TIP3    H129883   7.383   2.115   5.542 -0.2190 -0.0290  1.5533
 9980TIP3    H229884   7.487   2.022   5.600  0.6069  0.0951  0.3016
 9981TIP3   OH229885   8.062   2.566   3.753 -0.0721  0.3951 -0.0203
 9981TIP3    H129886   8.091   2.489   3.803  1.5083  1.1491  0.2657
 9981TIP3    H229887   8.059   2.636   3.817  1.2202  1.1992 -0.8095
 9982TIP3   OH229888   7.278   1.952   5.806  0.0388 -0.2330  0.3137
 9982TIP3    H129889   7.263   1.992   5.720 -0.5830  0.2016  0.6242
 9982TIP3    H229890   7.339   1.880   5.788 -0.8878 -0.7966 -0.6670
 9983TIP3   OH229891   6.633   0.329   4.775  0.5466 -0.0549 -0.0342
 9983TIP3    H129892   6.628   0.423   4.761  0.6462 -0.1497 -0.6989
 9983TIP3    H229893   6.674   0.294   4.696  0.4431 -0.6643  0.1744
 9984TIP3   OH229894   6.560   1.214   5.008  0.4456  0.5686 -0.3086
 9984TIP3    H129895   6.596   1.292   5.051 -2.4201  2.4034 -1.0562
 9984TIP3    H229896   6.542   1.153   5.080  0.8479  1.3927  0.4955
 9985TIP3   OH229897   7.856   1.056   3.679  0.3581 -0.2669  0.8890
 9985TIP3    H129898   7.804   1.114   3.735 -0.4657 -0.7793  0.6625
 9985TIP3    H229899   7.941   1.099   3.673  0.3190  0.0049  2.1875
 9986TIP3   OH229900   0.601   0.721   4.507 -0.3848 -0.1068 -0.5223
 9986TIP3    H129901   0.645   0.805   4.496  1.5310 -1.2518 -1.9364
 9986TIP3    H229902   0.563   0.701   4.422  0.4675 -1.3712 -0.6244
 9987TIP3   OH229903   0.274   1.515   4.139 -0.3890 -0.1623 -0.1738
 9987TIP3    H129904   0.183   1.487   4.126 -0.2465 -1.1876  0.9024
 9987TIP3    H229905   0.271   1.570   4.217  0.1315 -1.4584  0.7870
 9988TIP3   OH229906   3.715   7.522   6.322 -0.1061 -0.6650  0.4079
 9988TIP3    H129907   3.675   7.597   6.279 -0.6747 -1.0416  0.2808
 9988TIP3    H229908   3.802   7.552   6.346  0.3464 -0.5595 -1.3046
 9989TIP3   OH229909   2.539   5.682   4.917 -0.0933 -0.0935  0.0011
 9989TIP3    H129910   2.480   5.640   4.980 -0.0655  0.0335  0.1113
 9989TIP3    H229911   2.555   5.614   4.851 -1.8560  0.4756 -1.0398
 9990TIP3   OH229912   7.858   0.194   6.680 -0.0078  0.3605  0.2825
 9990TIP3    H129913   7.778   0.181   6.629  0.2347  0.5694 -0.1551
 9990TIP3    H229914   7.915   0.122   6.654 -0.2137 -0.0368  0.9164
 9991TIP3   OH229915   6.530   3.646   3.325 -0.6283  0.1374 -0.1418
 9991TIP3    H129916   6.559   3.629   3.235  1.3877 -0.5659  0.5979
 9991TIP3    H229917   6.525   3.560   3.365 -0.7936  0.4973  0.6195
 9992TIP3   OH229918   7.658   4.988   1.733  0.3755 -0.1342 -0.7540
 9992TIP3    H129919   7.588   4.963   1.672 -1.3816  0.2511  1.0576
 9992TIP3    H229920   7.664   5.083   1.725  0.9435 -0.2059 -1.1720
 9993TIP3   OH229921   1.874   7.155   4.980 -0.0836 -0.8349  0.2078
 9993TIP3    H129922   1.918   7.097   4.918  1.3459  0.4308  0.0005
 9993TIP3    H229923   1.807   7.200   4.929  1.2635  0.3985 -0.5124
 9994TIP3   OH229924   5.855   1.622   6.182 -0.0030 -0.4003 -0.4227
 9994TIP3    H129925   5.769   1.581   6.176 -0.3645  0.1902  0.6238
 9994TIP3    H229926   5.848   1.684   6.255  2.3738 -2.9501  2.1247
 9995TIP3   OH229927   8.147   6.554   2.267 -0.2878 -0.0733  1.0589
 9995TIP3    H129928   8.077   6.616   2.249 -1.0605 -0.2969  3.1068
 9995TIP3    H229929   8.147   6.495   2.192 -2.5429 -0.2612  1.1588
 9996TIP3   OH229930   2.633   6.001   1.297  0.0092 -0.3498 -0.1954
 9996TIP3    H129931   2.617   5.933   1.232  0.9782 -1.3066  0.5457
 9996TIP3    H229932   2.713   6.044   1.268 -0.8817  0.8216 -0.9401
 9997TIP3   OH229933   0.347   3.146   5.969  0.1036  0.1522  0.0482
 9997TIP3    H129934   0.284   3.126   5.899  0.5432 -0.2771 -0.2237
 9997TIP3    H229935   0.301   3.120   6.049  0.7804 -2.2594 -0.3256
 9998TIP3   OH229936   2.539   6.714   2.764  0.1178 -0.4205 -0.1551
 9998TIP3    H129937   2.569   6.650   2.828  0.4960 -0.5058 -0.4141
 9998TIP3    H229938   2.524   6.662   2.684  0.2213 -0.2237 -0.3036
 9999TIP3   OH229939   4.974   3.460   5.852  0.2398  0.4230  0.4131
 9999TIP3    H129940   4.963   3.384   5.795 -1.8538  1.0733 -0.1161
 9999TIP3    H229941   5.069   3.472   5.859  0.5498 -0.7095 -1.5313
10000TIP3   OH229942   7.867   2.516   6.293 -0.1845 -0.2855  0.5270
10000TIP3    H129943   7.917   2.524   6.375 -0.3773  0.1524  0.6059
10000TIP3    H229944   7.827   2.430   6.297  1.5283 -1.1329 -0.0747
10001TIP3   OH229945   0.315   1.472   5.291  0.0538 -0.5768 -0.4303
10001TIP3    H129946   0.397   1.424   5.278  0.5202  0.7790 -2.8197
10001TIP3    H229947   0.268   1.462   5.208 -0.7668  1.2902 -0.2147
10002TIP3   OH229948   7.804   0.689   5.542  0.2529  0.0012 -0.3082
10002TIP3    H129949   7.774   0.665   5.629 -2.3941 -0.3351 -1.2678
10002TIP3    H229950   7.888   0.644   5.531  0.4664 -0.1634  1.9388
10003TIP3   OH229951   2.074   6.963   0.164  0.5965 -0.3485 -0.7665
10003TIP3    H129952   2.027   6.942   0.244  0.8376  0.2338 -0.4688
10003TIP3    H229953   2.077   6.881   0.116 -0.9669 -0.3235 -0.9237
10004TIP3   OH229954   4.849   2.723   5.576  0.4421  0.1398 -0.4059
10004TIP3    H129955   4.899   2.800   5.603 -0.4060  0.2262  0.9165
10004TIP3    H229956   4.916   2.654   5.566  1.0470  0.7214 -0.4388
10005TIP3   OH229957   0.332   4.986   1.810 -0.2727 -0.2527  0.1640
10005TIP3    H129958   0.321   5.044   1.735 -1.2613 -0.3019  0.2708
10005TIP3    H229959   0.311   4.899   1.777  1.3870 -0.6062 -0.0422
10006TIP3   OH229960   6.531   1.926   3.779 -0.2677 -0.0702 -0.3275
10006TIP3    H129961   6.481   1.953   3.702 -0.4869 -1.8991 -0.8712
10006TIP3    H229962   6.536   1.830   3.771  0.1118 -0.2373  1.6926
10007TIP3   OH229963   5.390   0.736   3.927  0.1280  0.3589  0.2573
10007TIP3    H129964   5.462   0.692   3.881 -0.7203 -1.0941  0.2701
10007TIP3    H229965   5.346   0.665   3.974 -2.1991  0.9716 -0.9551
10008TIP3   OH229966   7.493   2.345   3.995 -0.0020  0.1341  0.2097
10008TIP3    H129967   7.473   2.408   3.926  1.4588  0.3569 -0.0180
10008TIP3    H229968   7.539   2.396   4.062 -0.1523 -0.3772  0.7065
10009TIP3   OH229969   0.134   3.347   6.094  0.4391  0.2581 -0.7189
10009TIP3    H129970   0.173   3.337   6.181  0.0209 -1.3810 -0.7066
10009TIP3    H229971   0.090   3.264   6.078 -1.0894  1.2362 -1.7145
10010TIP3   OH229972   5.889   3.170   4.804  0.1306 -0.0178 -0.3348
10010TIP3    H129973   5.950   3.242   4.819  1.8537 -1.5932  0.4058
10010TIP3    H229974   5.849   3.155   4.889  1.3983 -1.3605  0.0417
10011TIP3   OH229975   8.121   1.226   4.332  0.2199 -0.5767 -0.3853
10011TIP3    H129976   8.119   1.214   4.427  0.7716  0.3435 -0.2559
10011TIP3    H229977   8.050   1.171   4.300 -1.3694  0.7464  0.7574
10012TIP3   OH229978   1.482   0.703   5.122  0.0221 -0.1046 -0.3643
10012TIP3    H129979   1.391   0.725   5.102 -0.2247 -2.2117 -1.7026
10012TIP3    H229980   1.515   0.779   5.170 -2.4132  0.7281  0.0786
10013TIP3   OH229981   1.256   1.782   6.299 -0.0073 -0.1674  0.0293
10013TIP3    H129982   1.222   1.819   6.380  0.2945 -0.1605  0.1512
10013TIP3    H229983   1.197   1.708   6.280  0.3780 -0.6397  0.6611
10014TIP3   OH229984   8.365   1.429   5.288  0.0425  0.2646 -0.2126
10014TIP3    H129985   8.378   1.500   5.226  0.5317  0.9743  0.6847
10014TIP3    H229986   8.453   1.395   5.305 -0.0619  0.2087  0.2397
10015TIP3   OH229987   2.998   2.058   5.888 -0.1171  0.0806  0.7657
10015TIP3    H129988   2.948   2.083   5.810 -0.3655 -0.2963  0.8052
10015TIP3    H229989   3.011   2.140   5.935  2.6316  0.8278 -1.1716
10016TIP3   OH229990   0.054   0.462   5.688  0.1888 -0.3452  0.0351
10016TIP3    H129991   0.114   0.528   5.654  1.4166 -1.0589  0.7933
10016TIP3    H229992   0.097   0.379   5.671  0.3531 -0.7754  2.3510
10017TIP3   OH229993   8.405   1.876   5.936  0.0271  0.3783 -0.3459
10017TIP3    H129994   8.408   1.781   5.945  0.8015  0.3585 -0.7305
10017TIP3    H229995   8.318   1.900   5.965 -0.5140 -0.5533 -1.1449
10018TIP3   OH229996   6.754   1.955   4.605 -0.5082  0.4026 -0.3241
10018TIP3    H129997   6.720   1.981   4.690 -1.0414 -0.6261 -0.2116
10018TIP3    H229998   6.764   1.860   4.611  4.3057  0.7912  0.3375
10019TIP3   OH229999   1.229   1.392   5.006  0.3568  0.5522 -0.0582
10019TIP3    H130000   1.183   1.461   4.958  1.1906  1.1630 -0.0090
10019TIP3    H230001   1.210   1.411   5.098 -1.5688 -0.8555 -0.1441
10020TIP3   OH230002   7.260   2.008   4.817 -0.3710 -0.2070  0.4521
10020TIP3    H130003   7.243   2.050   4.901  1.1106  0.7191  0.3073
10020TIP3    H230004   7.306   1.927   4.839  0.5424  0.3211  0.5167
10021TIP3   OH230005   6.808   1.362   5.172  0.0217 -0.2596  0.4942
10021TIP3    H130006   6.860   1.287   5.199  1.1517  0.3543  0.0664
10021TIP3    H230007   6.847   1.436   5.219  0.9416  0.5530 -1.5251
10022TIP3   OH230008   0.247   1.772   3.227  0.0635 -0.1668  0.0485
10022TIP3    H130009   0.241   1.842   3.292  0.7767 -0.0144 -0.0459
10022TIP3    H230010   0.170   1.783   3.172  0.7945  1.2930 -0.7031
10023TIP3   OH230011   0.573   0.851   3.197 -0.7137  0.5970 -0.0860
10023TIP3    H130012   0.586   0.809   3.282 -0.8918 -0.1102 -0.4012
10023TIP3    H230013   0.542   0.780   3.140  0.1038  0.8884 -0.9224
10024TIP3   OH230014   6.916   0.600   4.790  0.2292 -0.1467 -0.4486
10024TIP3    H130015   6.956   0.674   4.745  0.5619  0.3319  0.6127
10024TIP3    H230016   6.855   0.639   4.853  0.3317 -0.7738  0.0530
10025TIP3   OH230017   0.694   2.910   3.561  0.3221  0.1523 -0.4161
10025TIP3    H130018   0.767   2.973   3.567  1.2751 -0.8510 -1.3271
10025TIP3    H230019   0.676   2.887   3.652  0.3321  1.3281 -0.1024
10026TIP3   OH230020   7.839   3.252   5.245  0.0182  0.5761 -0.0276
10026TIP3    H130021   7.777   3.180   5.255  0.5471 -0.2154 -2.1805
10026TIP3    H230022   7.920   3.210   5.216  0.8826  1.8455  0.5024
10027TIP3   OH230023   4.693   7.816   4.005 -0.5928 -0.5835 -0.3860
10027TIP3    H130024   4.632   7.784   4.071 -1.9389  0.0311 -1.2936
10027TIP3    H230025   4.720   7.903   4.036  1.8000 -1.8812  1.2675
10028TIP3   OH230026   5.280   7.432   0.690  0.4639 -0.2774 -0.3717
10028TIP3    H130027   5.322   7.364   0.637 -2.0299 -1.8258 -0.4615
10028TIP3    H230028   5.206   7.387   0.732 -1.4234  2.4322 -0.6515
10029TIP3   OH230029   0.496   2.921   5.357 -0.4114 -0.1387 -0.4817
10029TIP3    H130030   0.526   2.897   5.269 -1.8483  0.9083 -1.2826
10029TIP3    H230031   0.557   2.877   5.416  0.5575 -0.8826 -2.0018
10030TIP3   OH230032   7.587   2.483   4.827 -0.8555 -0.3502 -0.9147
10030TIP3    H130033   7.610   2.558   4.773  0.0592  0.5898  0.7328
10030TIP3    H230034   7.508   2.510   4.874 -0.5701 -0.4382 -0.3767
10031TIP3   OH230035   3.296   6.989   1.001  0.3210 -0.2926 -0.4126
10031TIP3    H130036   3.364   7.057   0.999 -0.0966  0.1787  0.9054
10031TIP3    H230037   3.330   6.922   1.060 -0.8764  0.5193  1.2314
10032TIP3   OH230038   3.278   5.760   0.419 -0.5447  0.1664  0.0597
10032TIP3    H130039   3.199   5.736   0.370 -1.2421 -1.1212  1.7628
10032TIP3    H230040   3.338   5.687   0.405 -1.0312 -0.5793  1.6917
10033TIP3   OH230041   7.903   1.352   4.583  0.1147  0.2103  0.3194
10033TIP3    H130042   7.845   1.427   4.573  0.2869  0.1606 -1.2007
10033TIP3    H230043   7.847   1.276   4.565  0.2079  0.0563  0.6896
10034TIP3   OH230044   2.889   0.478   6.190 -0.6585  0.0444 -0.2246
10034TIP3    H130045   2.868   0.519   6.106 -0.7595 -0.5078 -0.4704
10034TIP3    H230046   2.969   0.429   6.173 -0.5513  0.1213  0.0624
10035TIP3   OH230047   7.026   3.300   3.695  0.7886 -0.2456  0.1306
10035TIP3    H130048   7.078   3.374   3.663  0.4059  0.4010  0.9913
10035TIP3    H230049   7.020   3.314   3.790  1.7846 -2.0550  0.4851
10036TIP3   OH230050   0.284   3.313   4.693 -0.0835 -0.2704 -0.2079
10036TIP3    H130051   0.298   3.399   4.654  0.3709 -1.1692 -2.1027
10036TIP3    H230052   0.370   3.271   4.691  0.3009  0.1836  3.2038
10037TIP3   OH230053   2.731   2.858   6.204 -0.6120 -0.4328 -0.5707
10037TIP3    H130054   2.673   2.791   6.168  0.4735 -0.1853 -2.8578
10037TIP3    H230055   2.683   2.941   6.192 -1.5318 -0.6485  1.3638
10038TIP3   OH230056   2.056   2.042   2.155 -0.0411  0.4759 -0.0775
10038TIP3    H130057   2.030   1.977   2.091  2.0625 -0.4405 -0.0446
10038TIP3    H230058   2.026   2.008   2.239  2.9031 -1.5408  0.2131
10039TIP3   OH230059   3.633   1.290   6.498 -0.1129  0.2451 -0.1782
10039TIP3    H130060   3.611   1.209   6.450 -0.2020 -0.3800  0.9002
10039TIP3    H230061   3.692   1.337   6.439  1.3379 -1.4199 -0.1120
10040TIP3   OH230062   1.792   7.633   1.310 -0.2093 -0.2093  0.1143
10040TIP3    H130063   1.798   7.696   1.238  0.4133  1.5427  1.6794
10040TIP3    H230064   1.849   7.668   1.378  0.5527 -2.7426  0.8368
10041TIP3   OH230065   4.552   7.211   0.265  0.4123 -0.1690  0.4862
10041TIP3    H130066   4.614   7.194   0.335 -0.0683  3.6780  1.9610
10041TIP3    H230067   4.470   7.171   0.295  0.6696 -0.1444  1.2187
10042TIP3   OH230068   0.289   2.854   6.458  0.5761 -0.1370 -0.6841
10042TIP3    H130069   0.226   2.922   6.482 -0.2513 -0.9269 -0.5735
10042TIP3    H230070   0.253   2.816   6.378  1.2373 -0.1913 -0.9565
10043TIP3   OH230071   5.233   7.030   0.440  0.4493  0.1421 -0.0987
10043TIP3    H130072   5.219   6.993   0.528 -0.4342 -0.5951 -0.5494
10043TIP3    H230073   5.328   7.039   0.434  0.6104 -1.1242  0.4060
10044TIP3   OH230074   5.037   5.730   0.267  0.1546  0.5094  0.0577
10044TIP3    H130075   4.948   5.699   0.250  0.0226 -0.0901  1.6821
10044TIP3    H230076   5.088   5.650   0.282  1.2723  0.7749 -2.1473
10045TIP3   OH230077   2.908   1.388   5.968 -0.1770 -0.0313  0.2566
10045TIP3    H130078   2.843   1.320   5.983 -0.9779  0.8877  1.0041
10045TIP3    H230079   2.910   1.399   5.873 -1.2482  0.0608  0.2378
10046TIP3   OH230080   2.366   3.814   6.054  0.0823  0.0311  0.0925
10046TIP3    H130081   2.283   3.859   6.037  0.7361  0.9355 -0.7637
10046TIP3    H230082   2.382   3.828   6.147 -0.1492  0.8470  0.0114
10047TIP3   OH230083   3.836   7.760   1.692 -0.2851 -0.1181 -0.0598
10047TIP3    H130084   3.908   7.806   1.649 -0.8414 -0.0867 -0.9655
10047TIP3    H230085   3.758   7.811   1.669 -0.7715 -0.9249 -0.2211
10048TIP3   OH230086   6.611   5.480   0.527  0.3587 -0.6687  0.1611
10048TIP3    H130087   6.547   5.534   0.574 -0.8262 -2.5543  0.7565
10048TIP3    H230088   6.557   5.423   0.472  1.4458 -3.1363  1.5953
10049TIP3   OH230089   1.793   3.444   6.168 -0.3673  0.5283 -0.5197
10049TIP3    H130090   1.725   3.500   6.206 -0.4764  0.6807 -0.9344
10049TIP3    H230091   1.759   3.355   6.179 -0.9752  0.6491 -1.3927
10050TIP3   OH230092   1.679   1.489   5.069 -0.1764  0.6489 -0.2665
10050TIP3    H130093   1.747   1.542   5.026 -1.6299  1.4430 -1.6341
10050TIP3    H230094   1.728   1.432   5.129  1.9094 -0.5551 -3.0123
10051TIP3   OH230095   4.275   4.719   1.306 -0.0030  0.1027  0.0985
10051TIP3    H130096   4.215   4.749   1.237  0.1911 -1.3749 -0.7309
10051TIP3    H230097   4.289   4.627   1.286  0.4486 -0.2110  1.8477
10052TIP3   OH230098   1.937   0.876   5.776 -0.0069  0.0996 -0.0805
10052TIP3    H130099   1.949   0.782   5.765  0.2298  0.1564 -0.3074
10052TIP3    H230100   2.011   0.916   5.730  1.3337  0.3360  2.2139
10053TIP3   OH230101   4.762   7.590   1.786  0.0649 -0.4984 -0.1277
10053TIP3    H130102   4.691   7.654   1.786  1.6360  1.2822 -0.2393
10053TIP3    H230103   4.731   7.520   1.843 -2.2136 -0.2604 -1.0068
10054TIP3   OH230104   2.520   3.046   5.968 -0.6756  0.1050 -0.0810
10054TIP3    H130105   2.557   3.127   5.932 -3.9724  1.1816 -1.2706
10054TIP3    H230106   2.521   3.059   6.063  0.7654  0.6321 -0.1567
10055TIP3   OH230107   2.280   2.393   5.640 -0.1733  0.2109  0.2733
10055TIP3    H130108   2.257   2.319   5.584 -0.5216 -1.6765  2.8560
10055TIP3    H230109   2.198   2.417   5.683  0.1858  1.3552  0.3458
10056TIP3   OH230110   4.807   3.259   3.986 -0.4465 -0.0346 -0.2439
10056TIP3    H130111   4.849   3.343   4.005 -2.4127  0.5870  1.5021
10056TIP3    H230112   4.785   3.265   3.893 -0.7793  1.4920 -0.0850
10057TIP3   OH230113   4.777   5.187   1.395 -0.1941  0.7576 -0.0080
10057TIP3    H130114   4.690   5.156   1.368 -0.8053  0.4286  2.2542
10057TIP3    H230115   4.797   5.138   1.475  1.9118  1.1207 -0.2735
10058TIP3   OH230116   1.383   0.286   3.586 -0.3499  0.3717 -0.5889
10058TIP3    H130117   1.422   0.324   3.507 -0.0160 -1.3673 -1.2685
10058TIP3    H230118   1.436   0.320   3.658  0.2033  0.8464 -1.2143
10059TIP3   OH230119   3.259   3.064   6.132  0.7352  0.1244 -0.1449
10059TIP3    H130120   3.250   3.159   6.141  1.1517  0.0042  1.7163
10059TIP3    H230121   3.169   3.031   6.135  0.4794  0.5392 -2.1967
10060TIP3   OH230122   3.219   1.647   5.459  0.1618  0.0520 -0.2096
10060TIP3    H130123   3.153   1.703   5.419 -1.4007 -0.3760  1.6980
10060TIP3    H230124   3.295   1.704   5.471  0.2347  0.5036 -2.5474
10061TIP3   OH230125   5.119   6.619   0.322  0.5961  0.1160 -0.0581
10061TIP3    H130126   5.166   6.695   0.290 -0.9352  0.6215 -1.1523
10061TIP3    H230127   5.171   6.544   0.292  0.6515  0.6574 -1.3082
10062TIP3   OH230128   4.947   5.933   2.282  1.0402  0.3520 -0.0856
10062TIP3    H130129   4.960   5.863   2.218  0.5577 -0.7416  0.9788
10062TIP3    H230130   4.855   5.927   2.306  1.2869  0.5170  0.9442
10063TIP3   OH230131   1.214   3.850   6.357 -0.0953  0.1924  0.1140
10063TIP3    H130132   1.273   3.850   6.433  0.2988  0.6823 -0.1941
10063TIP3    H230133   1.133   3.810   6.390 -0.4612  1.7923  1.2202
10064TIP3   OH230134   4.238   5.498   1.096 -0.0986 -0.3618  0.0536
10064TIP3    H130135   4.277   5.585   1.110  0.5388 -0.6395  0.0337
10064TIP3    H230136   4.151   5.505   1.134 -0.5441  0.6906 -1.1212
10065TIP3   OH230137   1.877   1.111   5.937 -0.4912  0.3804 -0.0829
10065TIP3    H130138   1.879   1.015   5.940 -0.0886  0.3440 -1.1154
10065TIP3    H230139   1.785   1.133   5.952 -0.6539 -0.1823 -0.2129
10066TIP3   OH230140   2.108   1.131   6.560  0.5411  0.5473  0.4168
10066TIP3    H130141   2.052   1.209   6.559  0.0911  0.2198 -0.2033
10066TIP3    H230142   2.062   1.069   6.617  0.6992  0.5857  0.5876
10067TIP3   OH230143   0.269   3.864   6.582  0.0311  0.0395  0.2503
10067TIP3    H130144   0.223   3.948   6.578  0.5296  0.4879  3.1124
10067TIP3    H230145   0.215   3.809   6.639 -0.6298 -1.8330 -2.1086
10068TIP3   OH230146   3.213   1.892   6.637 -0.3460 -0.2377 -0.0064
10068TIP3    H130147   3.126   1.932   6.647 -0.4167 -0.8225  1.7469
10068TIP3    H230148   3.195   1.798   6.631  0.0818 -0.2724 -0.7972
10069TIP3   OH230149   4.001   5.073   0.267 -0.5341  0.0228 -0.7841
10069TIP3    H130150   4.049   5.089   0.186 -2.8834 -1.9665 -2.6662
10069TIP3    H230151   3.956   5.156   0.285  0.7013  0.7503 -1.0082
10070TIP3   OH230152   2.352   3.404   6.623  0.7767 -0.1454  0.4203
10070TIP3    H130153   2.414   3.342   6.662  1.3542  0.2449  0.1237
10070TIP3    H230154   2.268   3.357   6.623  1.0075 -0.5631  1.0892
10071TIP3   OH230155   2.775   2.599   5.763  0.0662 -0.2008  0.1892
10071TIP3    H130156   2.739   2.687   5.772  0.5669  0.1947 -1.5961
10071TIP3    H230157   2.698   2.542   5.758 -0.3071  0.4662 -1.8791
10072TIP3   OH230158   6.073   0.942   0.176  0.5150 -0.1254  0.1055
10072TIP3    H130159   6.159   0.916   0.211  0.7724  0.3575 -0.1571
10072TIP3    H230160   6.019   0.864   0.184  0.9453 -0.3960  0.3925
10073TIP3   OH230161   1.513   1.647   5.627  0.2889 -0.0296 -0.2845
10073TIP3    H130162   1.495   1.690   5.543 -0.2210  1.0666  0.3660
10073TIP3    H230163   1.443   1.678   5.685 -0.5747 -2.4172 -0.0176
10074TIP3   OH230164   1.681   4.192   6.314  0.2335  0.3535  0.0240
10074TIP3    H130165   1.776   4.192   6.325  0.2666  0.3503 -0.2597
10074TIP3    H230166   1.667   4.199   6.219 -0.0201 -2.3423 -0.1583
10075TIP3   OH230167   2.581   5.927   0.129  0.0795 -0.1522 -0.1798
10075TIP3    H130168   2.498   5.967   0.154 -0.0664 -0.1680 -0.6534
10075TIP3    H230169   2.578   5.839   0.166 -0.0456 -0.0965 -0.0575
10076TIP3   OH230170   2.284   2.966   6.351  0.0478 -0.6128  0.4629
10076TIP3    H130171   2.220   2.942   6.418  0.8910 -0.0690  1.4785
10076TIP3    H230172   2.269   3.060   6.337 -0.4100 -0.8105 -0.4313
10077TIP3   OH230173   2.854   2.330   6.777  0.6724  0.5562 -0.7981
10077TIP3    H130174   2.878   2.415   6.741 -1.8117  1.6070 -0.0808
10077TIP3    H230175   2.851   2.344   6.872 -1.2098  0.0986 -0.7645
10078TIP3   OH230176   5.270   5.360   0.679  0.2988  0.2385 -0.1489
10078TIP3    H130177   5.229   5.284   0.721  0.6384  0.0842 -0.0986
10078TIP3    H230178   5.360   5.333   0.663  0.7805  1.0906  1.0515
10079TIP3   OH230179   1.798   0.829   4.943  0.3608 -0.4017  0.0398
10079TIP3    H130180   1.889   0.801   4.953  0.8985  1.3379  0.2106
10079TIP3    H230181   1.797   0.919   4.975 -1.0940  0.1206 -1.4230
10080TIP3   OH230182   2.057   2.120   6.170 -0.3587 -0.1826  0.1459
10080TIP3    H130183   2.084   2.058   6.238  0.2289  0.7865  0.8227
10080TIP3    H230184   1.981   2.166   6.209  0.8498  1.3607  0.7520
10081TIP3   OH230185   0.991   2.437   4.655 -0.3417 -0.5294 -0.3393
10081TIP3    H130186   1.087   2.434   4.649 -0.4154 -0.7620 -1.4280
10081TIP3    H230187   0.963   2.346   4.652 -0.5101 -0.5646  1.6984
10082TIP3   OH230188   2.929   3.768   6.665 -0.1487 -0.4139 -0.3108
10082TIP3    H130189   2.968   3.818   6.736  2.8500 -2.5566 -0.4141
10082TIP3    H230190   2.856   3.721   6.706  2.1735 -2.4454  1.6431
10083TIP3   OH230191   5.702   6.799   0.509 -0.6951  0.0971 -0.4228
10083TIP3    H130192   5.744   6.750   0.580 -1.9110 -0.9004 -0.3775
10083TIP3    H230193   5.634   6.740   0.476 -0.7853  0.9435 -1.7701
10084TIP3   OH230194   1.429   2.070   6.648  0.4026  0.2759 -0.2555
10084TIP3    H130195   1.409   1.976   6.649  1.3712  0.0712  1.2373
10084TIP3    H230196   1.425   2.097   6.740 -1.4589  2.0538 -0.8322
10085TIP3   OH230197   3.091   1.259   6.886 -0.3227  0.7803  0.3657
10085TIP3    H130198   3.088   1.206   6.966 -0.3587  0.2182 -0.0049
10085TIP3    H230199   3.056   1.201   6.818  1.7786  0.4810 -0.5055
10086TIP3   OH230200   4.305   2.427   6.252 -0.1022  0.0858 -0.1368
10086TIP3    H130201   4.343   2.340   6.264 -0.8579 -0.5153 -1.9228
10086TIP3    H230202   4.228   2.427   6.309  1.4827  0.6764  2.1181
10087TIP3   OH230203   8.375   0.894   0.601  0.1849  0.1468  0.0912
10087TIP3    H130204   8.323   0.927   0.674  0.9136 -0.3864  0.8547
10087TIP3    H230205   8.341   0.806   0.585 -0.5271  0.5643 -0.7567
10088TIP3   OH230206   0.836   2.109   6.874 -0.0974  0.2592 -0.4217
10088TIP3    H130207   0.815   2.019   6.900  0.4666  0.3349  0.3058
10088TIP3    H230208   0.753   2.156   6.884 -0.8366 -0.5349 -2.4609
10089TIP3   OH230209   3.412   6.928   0.542  0.0871 -0.2888 -0.1945
10089TIP3    H130210   3.327   6.922   0.587  0.9288 -1.8719  1.2650
10089TIP3    H230211   3.471   6.963   0.609  0.6129  0.7577 -1.1912
10090TIP3   OH230212   2.161   3.571   5.820 -0.1560 -0.2809 -0.4443
10090TIP3    H130213   2.116   3.519   5.753 -0.6531  0.9780 -1.0910
10090TIP3    H230214   2.090   3.600   5.878  0.3798 -2.2666  1.2856
10091TIP3   OH230215   2.597   0.580   5.586  0.2960 -0.4846  0.2704
10091TIP3    H130216   2.550   0.662   5.568  1.4720  0.3164  0.8087
10091TIP3    H230217   2.676   0.607   5.633  0.1409 -2.0313  1.4565
10092TIP3   OH230218   2.582   1.644   6.196 -0.2734  0.0230  0.2403
10092TIP3    H130219   2.614   1.720   6.147  1.5959 -0.3956  0.7992
10092TIP3    H230220   2.631   1.570   6.161 -0.3609 -0.5772  1.3580
10093TIP3   OH230221   6.293   0.174   0.535  0.3449 -0.6502 -0.2728
10093TIP3    H130222   6.227   0.194   0.601  0.8197 -0.6650  0.2088
10093TIP3    H230223   6.245   0.173   0.452 -0.0398  0.5456 -0.0699
10094TIP3   OH230224   3.198   4.959   1.559 -0.5485 -0.3718  0.1671
10094TIP3    H130225   3.132   5.027   1.547 -0.5239 -0.3891 -0.0684
10094TIP3    H230226   3.208   4.951   1.654 -0.1687  0.3275  0.1877
10095TIP3   OH230227   6.609   0.885   1.332 -0.6980 -0.3303 -0.1111
10095TIP3    H130228   6.637   0.798   1.304 -0.3778 -0.6844  1.2748
10095TIP3    H230229   6.537   0.869   1.393 -1.1481  0.4116 -0.4380
10096TIP3   OH230230   0.859   2.619   4.891 -0.3713  0.1342 -0.4487
10096TIP3    H130231   0.889   2.586   4.975 -0.8088 -1.4104 -0.8865
10096TIP3    H230232   0.887   2.554   4.827 -0.5878  0.9780 -1.4320
10097TIP3   OH230233   8.360   3.494   6.595 -0.0334 -0.1469  0.0646
10097TIP3    H130234   8.265   3.487   6.605 -0.0701 -1.4377 -1.0845
10097TIP3    H230235   8.372   3.553   6.521  0.0022 -1.8418 -1.3124
10098TIP3   OH230236   2.461   2.880   5.380 -0.1397  0.3311  0.0691
10098TIP3    H130237   2.420   2.940   5.442  0.6824  1.8988 -0.8643
10098TIP3    H230238   2.392   2.817   5.358 -0.9113  0.7386  1.3213
10099TIP3   OH230239   4.348   1.379   5.104 -0.1936  0.2108 -0.3376
10099TIP3    H130240   4.385   1.351   5.188  0.4505 -1.2945 -1.1029
10099TIP3    H230241   4.396   1.458   5.082 -0.4205  0.6631  0.7469
10100TIP3   OH230242   3.818   6.059   0.385 -0.1702  0.2518  0.3741
10100TIP3    H130243   3.844   5.994   0.451  0.3415  0.5883  0.5158
10100TIP3    H230244   3.830   6.143   0.429  2.1066  0.5804 -0.7730
10101TIP3   OH230245   2.039   1.153   6.175 -0.0709 -0.3544 -0.0893
10101TIP3    H130246   1.968   1.179   6.233 -0.6465 -0.9117 -0.5322
10101TIP3    H230247   1.995   1.117   6.098  0.6871  0.5866 -0.9733
10102TIP3   OH230248   1.215   2.213   4.698  0.5638  0.2527 -0.0773
10102TIP3    H130249   1.278   2.247   4.635  1.4152  0.8699  1.0975
10102TIP3    H230250   1.225   2.118   4.694  0.8721  0.3062 -0.5869
10103TIP3   OH230251   7.949   4.596   6.497 -0.1803  0.1193 -0.1380
10103TIP3    H130252   7.990   4.682   6.504  0.1658 -0.1199  0.9462
10103TIP3    H230253   8.015   4.542   6.453 -0.2635  0.3235 -0.5147
10104TIP3   OH230254   5.710   6.388   0.221  0.3367 -0.4106 -0.4795
10104TIP3    H130255   5.650   6.460   0.239 -1.2037 -1.2518 -2.1408
10104TIP3    H230256   5.659   6.309   0.237  1.0998 -1.1319 -1.5472
10105TIP3   OH230257   5.192   4.335   0.902 -0.3356 -0.2255  0.6076
10105TIP3    H130258   5.199   4.353   0.996 -2.3804  1.2611  0.5173
10105TIP3    H230259   5.150   4.249   0.898 -1.4024  0.2609  1.0764
10106TIP3   OH230260   2.127   3.528   4.732 -0.2983  0.5699 -0.1952
10106TIP3    H130261   2.089   3.443   4.710  0.1237  0.8162 -1.9452
10106TIP3    H230262   2.121   3.533   4.827 -0.5512 -1.3121 -0.0933
10107TIP3   OH230263   5.376   6.633   2.559  0.4198  0.1998  0.0688
10107TIP3    H130264   5.392   6.726   2.576  0.6527  0.4505 -1.4763
10107TIP3    H230265   5.308   6.632   2.492  0.0106 -0.7597  0.4878
10108TIP3   OH230266   3.053   7.188   0.064  0.1016 -0.3097 -0.0638
10108TIP3    H130267   3.032   7.107   0.111  0.8005 -0.6314 -0.2991
10108TIP3    H230268   3.134   7.219   0.105  0.5417 -0.4234 -0.8420
10109TIP3   OH230269   1.916   1.625   6.921  0.0456  0.0686 -0.4133
10109TIP3    H130270   1.822   1.623   6.942 -0.1538 -0.7336 -1.3360
10109TIP3    H230271   1.922   1.684   6.846  0.1640 -0.5355 -0.8823
10110TIP3   OH230272   0.965   1.502   4.930  0.4437  0.3965 -0.2942
10110TIP3    H130273   0.880   1.543   4.948 -0.5362 -0.3713 -2.9712
10110TIP3    H230274   0.947   1.408   4.929  1.7490  0.1053  1.0859
10111TIP3   OH230275   3.636   6.072   0.769 -0.2873  0.1538  0.2411
10111TIP3    H130276   3.705   6.139   0.773  1.2668 -1.5253  2.2124
10111TIP3    H230277   3.671   6.005   0.711 -0.1617 -0.8228  1.4442
10112TIP3   OH230278   5.332   5.647   0.665 -0.3068  0.2647  0.5014
10112TIP3    H130279   5.320   5.553   0.675  5.3399 -0.4130  2.6455
10112TIP3    H230280   5.297   5.684   0.746 -2.3705  0.0751 -0.2665
10113TIP3   OH230281   6.968   0.321   0.585 -0.1984 -0.2924 -0.2748
10113TIP3    H130282   6.997   0.282   0.503 -0.1456  0.2991 -0.5413
10113TIP3    H230283   6.880   0.354   0.566 -0.0881  0.0688 -0.1729
10114TIP3   OH230284   1.810   2.213   6.647 -0.1275  0.1274 -0.0831
10114TIP3    H130285   1.886   2.209   6.590 -0.6399  1.4998 -0.9053
10114TIP3    H230286   1.735   2.210   6.588 -0.6551  3.7048  0.2772
10115TIP3   OH230287   3.075   2.848   5.817 -0.0612  0.0347  0.0635
10115TIP3    H130288   3.018   2.900   5.761  0.9970  0.9057 -0.2374
10115TIP3    H230289   3.158   2.896   5.818  0.9414 -1.6403 -0.1838
10116TIP3   OH230290   3.977   5.428   0.868 -0.4967 -0.2734 -0.1166
10116TIP3    H130291   3.984   5.486   0.792 -0.3372  1.0483  0.8970
10116TIP3    H230292   3.883   5.411   0.877 -0.7464  1.4651  0.7855
10117TIP3   OH230293   0.518   1.914   5.226 -0.4950  0.0076 -0.3419
10117TIP3    H130294   0.423   1.915   5.243 -0.0519  2.6429  2.5146
10117TIP3    H230295   0.557   1.933   5.311  2.5936 -0.2091 -1.6690
10118TIP3   OH230296   3.017   3.259   5.583  0.0162  0.0051 -0.8665
10118TIP3    H130297   3.103   3.243   5.623 -0.1894 -2.2558 -1.2547
10118TIP3    H230298   3.028   3.235   5.491 -1.5435 -2.3492 -0.4840
10119TIP3   OH230299   5.030   5.395   0.047  0.2802  0.2246 -0.2764
10119TIP3    H130300   5.033   5.320  -0.013  1.5209  0.7255 -0.8486
10119TIP3    H230301   5.033   5.472  -0.009  0.3422  0.7113  0.3828
10120TIP3   OH230302   0.490   2.919   6.622 -0.0120  0.0319  0.0826
10120TIP3    H130303   0.427   2.881   6.561 -1.0845  0.8635  0.6617
10120TIP3    H230304   0.575   2.892   6.588 -0.5953  0.3711 -1.7154
10121TIP3   OH230305   1.528   4.886   5.260 -0.0201 -0.1362  0.0688
10121TIP3    H130306   1.502   4.866   5.170  2.5345 -2.5523 -0.2183
10121TIP3    H230307   1.586   4.962   5.252 -0.7025  0.3712 -0.1566
10122TIP3   OH230308   0.889   3.160   5.984 -0.1176 -0.4902 -0.8820
10122TIP3    H130309   0.901   3.234   5.925 -0.4850 -0.9181 -1.4990
10122TIP3    H230310   0.795   3.160   6.003  0.3794  1.3922  2.0164
10123TIP3   OH230311   7.682   0.675   0.866 -0.0690 -0.0590 -0.5870
10123TIP3    H130312   7.721   0.647   0.784  2.7129 -0.1788  0.7293
10123TIP3    H230313   7.711   0.766   0.877  0.2802 -0.3107  0.6644
10124TIP3   OH230314   0.667   3.006   5.839  0.0001 -0.8802  0.1729
10124TIP3    H130315   0.603   2.956   5.789  0.3625 -0.7877 -0.3884
10124TIP3    H230316   0.621   3.087   5.862  0.3911 -0.1413 -1.5331
10125TIP3   OH230317   3.142   3.761   5.884 -0.3878 -0.0044  0.0110
10125TIP3    H130318   3.183   3.837   5.927 -0.8856 -0.2882  1.0106
10125TIP3    H230319   3.195   3.746   5.806  0.6110  0.4556  0.5949
10126TIP3   OH230320   1.548   2.441   4.743 -0.2455 -0.7945 -0.2399
10126TIP3    H130321   1.585   2.525   4.715  0.3519 -1.2200 -0.7603
10126TIP3    H230322   1.625   2.389   4.768 -0.5324 -1.5459 -0.9163
10127TIP3   OH230323   4.328   7.568   0.824 -0.6090  0.2575  0.1819
10127TIP3    H130324   4.242   7.569   0.782 -0.6346 -0.1796  0.2245
10127TIP3    H230325   4.353   7.475   0.826  0.2040  0.4487 -0.5362
10128TIP3   OH230326   5.876   6.986   0.957 -1.0456 -0.0470  0.2447
10128TIP3    H130327   5.900   6.993   1.050  1.3521  1.9594 -0.4843
10128TIP3    H230328   5.903   6.897   0.933 -0.4042 -0.1008  1.1234
10129TIP3   OH230329   0.290   4.637   6.569  0.4821 -0.1199 -0.9208
10129TIP3    H130330   0.292   4.611   6.477 -0.9944  0.0491 -1.0066
10129TIP3    H230331   0.302   4.732   6.568 -0.6135  0.0220 -1.0125
10130TIP3   OH230332   0.030   0.784   5.099 -0.1258 -0.5960  0.1123
10130TIP3    H130333   0.088   0.754   5.169  0.7877  1.1722  0.1362
10130TIP3    H230334   0.050   0.877   5.090 -0.3432 -0.7801 -2.4337
10131TIP3   OH230335   1.278   2.964   5.796  0.4326  0.0521  0.0757
10131TIP3    H130336   1.241   3.014   5.724 -0.3461  0.1283  0.5209
10131TIP3    H230337   1.246   3.009   5.875  1.0926 -0.1585  0.4691
10132TIP3   OH230338   2.877   6.263   0.209  0.3657 -0.3881  0.1370
10132TIP3    H130339   2.912   6.175   0.211 -0.1131 -0.5638  0.8635
10132TIP3    H230340   2.937   6.312   0.152  0.5757 -1.1943 -0.3383
10133TIP3   OH230341   3.973   7.492   0.357 -1.0979  0.0666  0.3042
10133TIP3    H130342   3.917   7.421   0.388  0.1094 -1.1423 -0.1925
10133TIP3    H230343   3.952   7.500   0.264  0.2143 -1.0712 -0.1185
10134TIP3   OH230344   7.308   0.487   0.965  0.0528 -0.0653  0.3085
10134TIP3    H130345   7.372   0.440   0.911 -0.6167 -1.2903  0.5656
10134TIP3    H230346   7.342   0.481   1.054 -0.1752 -0.3130  0.3802
10135TIP3   OH230347   0.622   3.886   5.879  0.0999  0.3766 -0.1607
10135TIP3    H130348   0.554   3.825   5.849  1.7523 -1.9461  0.7151
10135TIP3    H230349   0.587   3.922   5.961 -2.5973  3.6538 -2.5687
10136TIP3   OH230350   4.687   6.172   0.363  0.8263 -0.6194  0.3960
10136TIP3    H130351   4.651   6.144   0.447 -0.5249  0.4349  0.1839
10136TIP3    H230352   4.708   6.091   0.317 -3.1624 -1.3628 -0.2868
10137TIP3   OH230353   2.880   3.464   5.722 -0.2172 -0.3968  0.1818
10137TIP3    H130354   2.915   3.383   5.688 -2.0756 -1.8001  1.4595
10137TIP3    H230355   2.785   3.457   5.708 -0.6606  0.4738  2.3823
10138TIP3   OH230356   4.052   2.677   6.545  0.6014  0.5523 -0.0901
10138TIP3    H130357   4.065   2.760   6.499 -0.9111  0.5945 -0.4357
10138TIP3    H230358   4.139   2.657   6.582  1.1792  1.8458 -0.7183
10139TIP3   OH230359   1.935   3.107   6.236 -0.0319 -0.3140 -0.0702
10139TIP3    H130360   1.854   3.157   6.232 -0.3598 -0.9350 -1.6515
10139TIP3    H230361   1.907   3.017   6.250  0.4666 -0.3167  0.9458
10140TIP3   OH230362   3.156   2.332   6.642  0.2383 -0.4113  0.0212
10140TIP3    H130363   3.201   2.413   6.668 -1.1959  0.7170 -0.9313
10140TIP3    H230364   3.162   2.276   6.719  3.2310 -0.2902 -0.0641
10141TIP3   OH230365   2.334   0.837   5.328  0.3315 -0.3512 -0.1696
10141TIP3    H130366   2.421   0.855   5.365  0.3832 -1.0661  0.0641
10141TIP3    H230367   2.349   0.766   5.266  0.0693  0.1667 -0.8416
10142TIP3   OH230368   5.773   6.506   1.210 -0.3177  0.7310 -0.3252
10142TIP3    H130369   5.736   6.531   1.294  0.8075  0.8793  0.1346
10142TIP3    H230370   5.746   6.576   1.150 -0.3914  1.0715  0.1021
10143TIP3   OH230371   4.811   4.137   6.040 -0.4403 -0.4529  0.1517
10143TIP3    H130372   4.861   4.160   5.961  0.0395  3.2473  1.4596
10143TIP3    H230373   4.723   4.172   6.024 -0.0236  1.3698  1.7122
10144TIP3   OH230374   5.936   7.743   1.458  0.3169  0.4780 -0.1336
10144TIP3    H130375   5.960   7.682   1.528 -1.5826  0.0535  0.1681
10144TIP3    H230376   6.017   7.753   1.407  0.5234 -2.8513 -0.6141
10145TIP3   OH230377   7.312   6.245   1.751 -0.5646  0.4948  0.1891
10145TIP3    H130378   7.372   6.313   1.721  1.7543 -1.2208  0.7522
10145TIP3    H230379   7.258   6.225   1.675 -0.8166  2.4528 -0.1849
10146TIP3   OH230380   0.259   1.013   5.066 -0.6594 -0.8694  0.7183
10146TIP3    H130381   0.327   0.976   5.010  0.1165 -2.2568  2.5388
10146TIP3    H230382   0.284   1.105   5.076 -0.4279 -0.7821 -0.6265
10147TIP3   OH230383   4.352   2.184   6.596 -0.4736  0.5202 -0.1297
10147TIP3    H130384   4.371   2.091   6.586  1.0081  0.8571 -0.5738
10147TIP3    H230385   4.283   2.201   6.531  1.3855  0.3676 -2.2009
10148TIP3   OH230386   3.547   2.796   6.241  0.6666 -0.8662 -0.2089
10148TIP3    H130387   3.598   2.836   6.170  0.4702 -1.8382 -0.8969
10148TIP3    H230388   3.609   2.791   6.314  1.3572 -1.4010 -0.8233
10149TIP3   OH230389   3.224   4.891   6.899  0.2305  0.1189 -0.0042
10149TIP3    H130390   3.177   4.945   6.835 -0.5695  1.4316  1.6503
10149TIP3    H230391   3.170   4.895   6.978  0.7256 -2.2589  0.4802
10150TIP3   OH230392   1.309   1.309   6.673  0.2641  0.0780 -0.0239
10150TIP3    H130393   1.359   1.247   6.726 -0.3162  0.2600  0.7447
10150TIP3    H230394   1.344   1.299   6.584  0.7255 -0.7679  0.2502
10151TIP3   OH230395   1.604   1.358   5.516  0.4300 -0.6201 -0.3641
10151TIP3    H130396   1.567   1.424   5.574  0.5243 -1.2516  0.4222
10151TIP3    H230397   1.685   1.398   5.484  0.6231 -0.4558  0.3173
10152TIP3   OH230398   2.824   3.179   6.004  0.3743 -0.0347 -0.0705
10152TIP3    H130399   2.729   3.173   6.003  0.2412  1.7441  0.7859
10152TIP3    H230400   2.853   3.097   6.044 -0.8316 -0.2919  0.2919
10153TIP3   OH230401   0.154   0.165   0.568  0.3452  0.0245 -0.1743
10153TIP3    H130402   0.092   0.146   0.498  1.7457 -1.8191 -0.9594
10153TIP3    H230403   0.174   0.079   0.606  2.0258  0.6429  0.3893
10154TIP3   OH230404   7.647   1.035   1.405  0.1559 -0.3665  0.2433
10154TIP3    H130405   7.582   1.101   1.379 -0.4828 -1.4962 -1.0413
10154TIP3    H230406   7.615   0.953   1.367  2.1356 -1.0129 -0.0622
10155TIP3   OH230407   0.599   2.228   6.896  0.1958 -0.7429 -0.0060
10155TIP3    H130408   0.519   2.177   6.914 -0.8224  1.0927  0.8041
10155TIP3    H230409   0.599   2.296   6.964  1.2246  0.6818 -1.4212
10156TIP3   OH230410   5.722   7.553   1.425  0.2259 -0.4927  0.3346
10156TIP3    H130411   5.631   7.526   1.414 -0.0631  1.0332 -1.3900
10156TIP3    H230412   5.721   7.612   1.500 -0.4345  0.5048 -0.4553
10157TIP3   OH230413   2.700   4.058   6.880 -0.4332 -0.5155  0.5871
10157TIP3    H130414   2.769   4.086   6.820  0.7799 -0.6514  1.8976
10157TIP3    H230415   2.744   4.001   6.943 -1.4844  0.3903  2.1902
10158TIP3   OH230416   2.912   2.377   4.151  0.2164 -0.0382  0.3720
10158TIP3    H130417   2.884   2.408   4.065  1.2524  0.5971  0.2577
10158TIP3    H230418   2.954   2.292   4.134 -0.6462 -0.4724  0.4053
10159TIP3   OH230419   7.272   1.557   6.165 -0.1275  0.6509  0.3008
10159TIP3    H130420   7.349   1.507   6.193  1.1735  1.6063 -1.4537
10159TIP3    H230421   7.199   1.517   6.212  0.9198 -2.6734 -0.7414
10160TIP3   OH230422   2.764   6.586   0.892  0.1932  0.3783 -0.2567
10160TIP3    H130423   2.773   6.557   0.802  1.8064 -0.1176  0.0578
10160TIP3    H230424   2.853   6.607   0.920  0.0979 -2.1845  2.1226
10161TIP3   OH230425   1.018   2.743   5.839 -0.0326  0.6865  0.1011
10161TIP3    H130426   1.106   2.705   5.839 -0.4522 -0.3410 -1.5574
10161TIP3    H230427   1.017   2.801   5.764 -0.0878  2.3811  1.3968
10162TIP3   OH230428   5.520   6.003   0.653  0.1584 -0.1044  0.4102
10162TIP3    H130429   5.472   6.028   0.574 -1.5272 -1.1560  1.0887
10162TIP3    H230430   5.472   6.044   0.725  0.6624 -0.6105  1.0483
10163TIP3   OH230431   5.393   5.977   0.411 -0.1436  0.1123  0.1847
10163TIP3    H130432   5.396   5.906   0.347 -0.9873  1.1546 -1.0579
10163TIP3    H230433   5.299   5.990   0.427 -0.0619  1.7111 -0.5139
10164TIP3   OH230434   6.941   6.106   2.352 -0.0005 -0.1478  0.0319
10164TIP3    H130435   6.939   6.014   2.325 -1.8434  0.1290 -0.8741
10164TIP3    H230436   6.856   6.141   2.323  1.8145  2.5719 -2.2536
10165TIP3   OH230437   4.518   5.136   0.486  0.0275 -0.4694  0.7440
10165TIP3    H130438   4.528   5.041   0.485  0.2559 -0.4430 -0.4157
10165TIP3    H230439   4.431   5.151   0.450  0.7086 -0.1791 -0.8510
10166TIP3   OH230440   3.195   1.485   4.872  0.4405  0.2383  0.1805
10166TIP3    H130441   3.209   1.541   4.948 -0.0927 -0.8817  1.1055
10166TIP3    H230442   3.244   1.529   4.802  1.5006  0.9132  1.3141
10167TIP3   OH230443   1.604   2.859   6.673  0.2541  0.3561 -0.2347
10167TIP3    H130444   1.562   2.901   6.748 -0.3873  2.2535 -1.5974
10167TIP3    H230445   1.632   2.773   6.705  0.3334  1.2769  2.2592
10168TIP3   OH230446   3.733   2.961   6.703 -0.1046 -0.1595  0.4915
10168TIP3    H130447   3.708   2.871   6.685 -2.7593 -0.0659  3.3368
10168TIP3    H230448   3.660   2.997   6.752  1.4666  3.1793  0.5366
10169TIP3   OH230449   7.816   0.574   1.185  0.0697  0.1808 -0.0232
10169TIP3    H130450   7.901   0.532   1.170  0.7896  1.2875  0.8901
10169TIP3    H230451   7.812   0.644   1.120 -2.0162 -2.5065 -2.9155
10170TIP3   OH230452   2.488   5.455   6.425  0.5999  0.2764  0.3537
10170TIP3    H130453   2.485   5.535   6.477 -0.9233  0.7055 -0.3617
10170TIP3    H230454   2.519   5.484   6.339 -1.7567  0.4551 -0.4794
10171TIP3   OH230455   2.244   2.605   6.123  0.5822  0.3967 -0.7562
10171TIP3    H130456   2.259   2.529   6.066 -1.1909  0.3554 -1.1885
10171TIP3    H230457   2.153   2.597   6.150  1.1240  0.9673  1.3144
10172TIP3   OH230458   1.339   3.678   5.645  0.6994  0.1438 -0.1446
10172TIP3    H130459   1.416   3.654   5.697  0.3377  1.0791  0.8402
10172TIP3    H230460   1.313   3.763   5.679 -0.7370 -0.1459 -0.5004
10173TIP3   OH230461   1.739   3.843   6.535  0.4353 -0.1882  0.1149
10173TIP3    H130462   1.748   3.748   6.546 -1.7208 -0.1931  2.4238
10173TIP3    H230463   1.777   3.880   6.615 -3.2662  0.5973  1.5988
10174TIP3   OH230464   7.396   7.697   1.167  0.5172  0.5090  0.4320
10174TIP3    H130465   7.453   7.709   1.243  2.3200  0.2277 -0.8386
10174TIP3    H230466   7.441   7.631   1.115 -0.0756  1.5938 -1.4797
10175TIP3   OH230467   2.099   2.326   4.868 -0.2254  0.0335 -0.4680
10175TIP3    H130468   2.125   2.362   4.783  1.8457 -2.0008 -0.7701
10175TIP3    H230469   2.182   2.309   4.912 -1.2803  0.4264  1.6997
10176TIP3   OH230470   2.839   2.591   6.714  0.2060 -0.4125 -0.2325
10176TIP3    H130471   2.824   2.629   6.627 -0.2144  0.0975  0.0628
10176TIP3    H230472   2.918   2.633   6.745  0.5365 -0.8285 -0.4941
10177TIP3   OH230473   3.056   7.481   1.426 -0.1802  0.1301  0.6352
10177TIP3    H130474   3.110   7.446   1.497  1.1654 -1.0707 -0.9689
10177TIP3    H230475   3.114   7.540   1.378  0.6588 -3.2695 -2.7658
10178TIP3   OH230476   1.322   0.877   4.800  0.4667  0.5542  0.1044
10178TIP3    H130477   1.324   0.923   4.883  1.1171 -1.1628  1.0647
10178TIP3    H230478   1.410   0.887   4.764  0.3414  0.8367 -0.1297
10179TIP3   OH230479   5.889   5.536   0.032 -0.0818 -0.1769 -0.6110
10179TIP3    H130480   5.918   5.445   0.023  0.6406 -0.0657  0.5458
10179TIP3    H230481   5.796   5.530   0.051 -0.1349 -0.6581 -1.0129
10180TIP3   OH230482   1.948   4.209   6.384  0.2306  0.2181 -0.0827
10180TIP3    H130483   2.021   4.209   6.322  0.8616  0.9546  0.6492
10180TIP3    H230484   1.972   4.275   6.449 -0.7135 -0.1092  0.6054
10181TIP3   OH230485   6.365   7.021   2.954  0.4738  0.7654  0.2116
10181TIP3    H130486   6.396   7.109   2.973  1.9641  0.4504 -0.7122
10181TIP3    H230487   6.386   6.971   3.034  0.0495  1.1306  0.5546
10182TIP3   OH230488   3.502   0.399   0.437 -0.4145 -0.3397 -0.4080
10182TIP3    H130489   3.454   0.332   0.388  0.5578  0.0077 -1.8822
10182TIP3    H230490   3.572   0.426   0.378 -0.4041  1.5226  0.4213
10183TIP3   OH230491   2.616   3.191   5.607 -0.1173 -0.7525 -0.1813
10183TIP3    H130492   2.681   3.204   5.539 -0.5834 -0.8693 -0.6512
10183TIP3    H230493   2.589   3.100   5.597  0.4136 -1.0181  0.6924
10184TIP3   OH230494   2.464   2.568   6.808 -0.0815 -0.7162 -0.0656
10184TIP3    H130495   2.405   2.516   6.863 -1.9122  2.2590  0.8942
10184TIP3    H230496   2.535   2.594   6.866 -0.5810  0.1007  0.1916
10185TIP3   OH230497   4.608   4.116   6.742 -0.5238 -0.1647  0.0451
10185TIP3    H130498   4.679   4.179   6.759 -1.4951  0.7939  0.6421
10185TIP3    H230499   4.600   4.067   6.824  1.0196 -1.8950 -0.8090
10186TIP3   OH230500   1.948   3.900   5.335  0.5811 -0.0284 -0.2935
10186TIP3    H130501   2.012   3.971   5.327  0.9748 -0.1362  1.7056
10186TIP3    H230502   1.910   3.912   5.422 -0.7599 -1.1040 -0.7209
10187TIP3   OH230503   3.479   2.452   5.621 -0.0371  0.3980 -0.2086
10187TIP3    H130504   3.428   2.531   5.605  0.5596  0.6139 -1.0280
10187TIP3    H230505   3.523   2.434   5.539  0.8987 -0.0300  0.3785
10188TIP3   OH230506   7.108   4.763   0.938  0.4658 -0.0475 -0.2309
10188TIP3    H130507   7.174   4.723   0.881  0.6624 -0.0753  0.0126
10188TIP3    H230508   7.029   4.769   0.884  0.6086 -0.2068 -0.4580
10189TIP3   OH230509   0.089   7.532   0.853  0.7327 -0.2841 -0.1625
10189TIP3    H130510   0.090   7.477   0.931 -0.3030 -0.2845 -0.1447
10189TIP3    H230511   0.001   7.570   0.851  2.3806  4.0034  1.6753
10190TIP3   OH230512   3.045   2.638   6.906 -0.0640 -0.6655 -0.3415
10190TIP3    H130513   3.058   2.604   6.995 -0.5476 -1.8450 -0.7047
10190TIP3    H230514   3.025   2.730   6.918 -0.9194 -0.9889  0.8335
10191TIP3   OH230515   7.050   5.697   2.425 -0.4035 -0.0526  0.2482
10191TIP3    H130516   7.049   5.749   2.505 -1.9839 -0.0769  0.2546
10191TIP3    H230517   7.041   5.606   2.456  2.5831 -0.4115  0.2566
10192TIP3   OH230518   3.061   2.491   5.619 -0.4619 -0.4022  0.5911
10192TIP3    H130519   3.021   2.407   5.597 -1.6152  0.4208 -0.5283
10192TIP3    H230520   3.058   2.494   5.715 -0.4949 -1.5985  0.6352
10193TIP3   OH230521   5.168   2.073   6.642 -0.3840 -0.0778  0.1361
10193TIP3    H130522   5.090   2.129   6.639 -0.7731 -0.6730 -2.4053
10193TIP3    H230523   5.224   2.114   6.708 -2.3416  1.0343  1.1629
10194TIP3   OH230524   6.743   6.445   1.754  0.5142  0.6199 -0.2558
10194TIP3    H130525   6.686   6.512   1.718  0.7747 -0.3748 -2.5876
10194TIP3    H230526   6.684   6.372   1.775  0.7645 -0.0499 -1.7921
10195TIP3   OH230527   2.615   3.283   5.860  0.0188  0.1810  0.1081
10195TIP3    H130528   2.632   3.259   5.769  1.9961  1.5563  0.0861
10195TIP3    H230529   2.526   3.320   5.859 -0.6203 -1.3383 -0.9397
10196TIP3   OH230530   5.583   3.335   5.523  0.0063 -0.7206  0.4165
10196TIP3    H130531   5.656   3.391   5.499 -1.2480  0.8400  0.1356
10196TIP3    H230532   5.533   3.323   5.442 -1.9363  1.1069  1.3011
10197TIP3   OH230533   7.080   0.280   0.338 -0.0157 -0.0482  0.1929
10197TIP3    H130534   7.173   0.259   0.325  0.7601  2.3806  1.6010
10197TIP3    H230535   7.040   0.264   0.253  2.0457  0.6153 -0.9301
10198TIP3   OH230536   6.208   5.007   2.264 -0.3067  0.0810  0.1183
10198TIP3    H130537   6.214   5.052   2.180  1.1192  0.4309  0.4075
10198TIP3    H230538   6.224   5.075   2.329 -0.8183 -0.3139  0.6652
10199TIP3   OH230539   6.686   6.915   0.899 -1.0121  0.6916  0.0964
10199TIP3    H130540   6.646   6.950   0.819 -0.6115  0.7234 -0.0889
10199TIP3    H230541   6.661   6.977   0.968 -1.7659  0.4039  0.0855
10200TIP3   OH230542   4.482   1.482   6.334  0.9982 -0.4146  0.0483
10200TIP3    H130543   4.406   1.540   6.343  1.8247  0.7552 -0.4140
10200TIP3    H230544   4.501   1.481   6.241  3.6379  2.0650  0.4934
10201TIP3   OH230545   3.394   3.504   6.960 -0.4247 -0.5802  0.1514
10201TIP3    H130546   3.463   3.569   6.972 -3.2128  2.9277 -1.4769
10201TIP3    H230547   3.418   3.456   6.881 -0.1252  1.0614 -0.7770
10202TIP3   OH230548   1.146   4.815   5.165  0.2248  0.0257 -0.0163
10202TIP3    H130549   1.076   4.797   5.102  0.1814  0.9272 -0.2328
10202TIP3    H230550   1.221   4.841   5.111  0.5269 -0.3089  0.2467
10203TIP3   OH230551   7.285   6.414   0.591 -0.3800 -0.1626  0.1544
10203TIP3    H130552   7.347   6.462   0.646 -0.8379 -0.5623  1.0352
10203TIP3    H230553   7.313   6.431   0.501  0.0551  0.9366  0.4987
10204TIP3   OH230554   3.065   2.521   4.929  0.4040 -0.0991  0.4229
10204TIP3    H130555   3.078   2.578   5.005  0.9246  0.3539  0.0011
10204TIP3    H230556   3.140   2.539   4.873  0.5366 -1.1559  0.2494
10205TIP3   OH230557   6.419   7.135   0.079  0.1889 -0.2252 -0.1631
10205TIP3    H130558   6.354   7.125   0.009 -0.6416  0.0629  0.5461
10205TIP3    H230559   6.370   7.176   0.151  0.8609 -1.1136  0.8173
10206TIP3   OH230560   7.283   7.911   0.607  0.2685  0.0376 -0.7817
10206TIP3    H130561   7.192   7.939   0.622  0.1645 -1.1796  0.8967
10206TIP3    H230562   7.332   7.993   0.601 -0.1118  0.6804  3.5822
10207TIP3   OH230563   0.513   0.291   0.499 -0.1366  0.5788  0.7131
10207TIP3    H130564   0.583   0.318   0.558  0.3934  2.4099 -0.7152
10207TIP3    H230565   0.534   0.200   0.477  1.5757  0.9788  0.6382
10208TIP3   OH230566   5.579   7.910   1.913 -0.4507 -0.0570 -0.1651
10208TIP3    H130567   5.626   7.874   1.988  0.5591 -0.8104 -1.1547
10208TIP3    H230568   5.604   8.003   1.912 -0.4049 -0.0595  0.3695
10209TIP3   OH230569   3.836   5.865   6.417 -0.7324 -0.4659 -0.0588
10209TIP3    H130570   3.793   5.832   6.338 -2.2811 -0.1187  0.6153
10209TIP3    H230571   3.771   5.924   6.456 -0.1774 -1.0266  1.7304
10210TIP3   OH230572   5.826   2.872   6.696 -0.4160 -0.2308  0.2836
10210TIP3    H130573   5.759   2.914   6.749  0.5214  0.7727  0.6774
10210TIP3    H230574   5.909   2.903   6.731  0.2501 -0.5790 -0.9209
10211TIP3   OH230575   5.412   7.232   0.563  0.2833  0.0210  0.0983
10211TIP3    H130576   5.434   7.142   0.590 -1.4613 -0.6021 -0.4986
10211TIP3    H230577   5.496   7.271   0.541  0.9412 -1.9499 -1.0840
10212TIP3   OH230578   5.146   3.397   4.449 -0.0918 -0.4540 -0.2689
10212TIP3    H130579   5.082   3.333   4.418  0.1523 -0.4411 -0.7993
10212TIP3    H230580   5.169   3.448   4.372  1.2202 -1.0277 -0.2826
10213TIP3   OH230581   5.747   7.216   0.260  0.1102  0.0922  0.0695
10213TIP3    H130582   5.727   7.191   0.170 -2.3374 -0.2161  0.6781
10213TIP3    H230583   5.825   7.164   0.283  0.5165 -0.1099 -1.7231
10214TIP3   OH230584   1.613   3.650   6.721 -0.0555  0.4392  0.0286
10214TIP3    H130585   1.647   3.592   6.653  2.3102  0.0421  1.5028
10214TIP3    H230586   1.569   3.592   6.783  0.7898  0.4266  0.6111
10215TIP3   OH230587   8.446   0.487   0.766  0.7352 -0.1624  0.0662
10215TIP3    H130588   8.487   0.514   0.683 -0.7646  2.5482  0.1539
10215TIP3    H230589   8.354   0.513   0.757  0.6450  0.5659  2.7321
10216TIP3   OH230590   4.276   4.056   6.388  0.1184 -0.0008 -0.2224
10216TIP3    H130591   4.282   4.108   6.469  0.5608 -1.6020  0.7921
10216TIP3    H230592   4.331   4.103   6.325  1.2601  0.2639  0.9575
10217TIP3   OH230593   0.984   2.528   6.598  0.1691  0.5166 -0.0483
10217TIP3    H130594   0.934   2.534   6.516 -0.6699 -0.8975  0.3602
10217TIP3    H230595   1.068   2.570   6.577  0.5319 -1.1432 -2.0989
10218TIP3   OH230596   7.467   0.299   0.161 -0.1018 -0.2187 -0.5206
10218TIP3    H130597   7.532   0.304   0.231 -2.7242  0.7704  1.9383
10218TIP3    H230598   7.511   0.334   0.084  3.8849 -4.2125 -0.2433
10219TIP3   OH230599   2.385   2.502   5.077 -0.0436  0.4817  0.4357
10219TIP3    H130600   2.326   2.489   5.151  0.3337  0.1413  0.6814
10219TIP3    H230601   2.404   2.413   5.047 -2.9884  0.6877 -2.3119
10220TIP3   OH230602   5.253   7.838   0.142  0.0371 -0.3042 -0.1981
10220TIP3    H130603   5.333   7.795   0.112  1.4421  1.5798  0.6703
10220TIP3    H230604   5.250   7.821   0.236  0.7676  1.6587  0.2075
10221TIP3   OH230605   6.985   6.847   0.113 -0.3727  1.0194 -0.0715
10221TIP3    H130606   6.962   6.925   0.063 -1.6351  1.6037  1.3717
10221TIP3    H230607   6.905   6.823   0.159 -0.5679 -2.3227 -1.9976
10222TIP3   OH230608   0.161   0.945   0.150 -0.5909 -0.7612  0.4096
10222TIP3    H130609   0.112   0.942   0.231  1.0284 -0.5877  1.4256
10222TIP3    H230610   0.099   0.978   0.085 -1.6832 -0.1882  1.7283
10223TIP3   OH230611   7.146   7.779   0.163 -0.1772 -0.6188  0.1366
10223TIP3    H130612   7.142   7.754   0.255 -0.4328 -0.7417  0.0922
10223TIP3    H230613   7.069   7.834   0.149  1.9698  2.7206  0.9743
10224TIP3   OH230614   1.007   3.690   5.563 -0.6099  0.3747 -1.0029
10224TIP3    H130615   0.928   3.723   5.520 -0.9920 -2.8621 -2.8953
10224TIP3    H230616   1.076   3.699   5.498  0.7610  3.5210  0.7598
10225TIP3   OH230617   4.013   2.908   6.775  0.4023  0.4599  0.7405
10225TIP3    H130618   3.994   2.816   6.793  1.1559 -0.2249 -1.7554
10225TIP3    H230619   3.928   2.947   6.758  0.2983 -0.3216 -0.5553
10226TIP3   OH230620   3.667   4.935   6.875  0.2688 -0.1807 -0.4455
10226TIP3    H130621   3.691   5.011   6.822 -0.4355  0.3013 -0.0747
10226TIP3    H230622   3.593   4.895   6.830 -0.5511  0.4258  0.3474
10227TIP3   OH230623   2.754   3.250   5.356  0.0090  0.9883 -0.2155
10227TIP3    H130624   2.830   3.195   5.377  0.3175  1.5479  0.1616
10227TIP3    H230625   2.726   3.220   5.269  0.4890  0.5870 -0.2357
10228TIP3   OH230626   1.652   5.378   6.896  0.2561  0.7496  0.1936
10228TIP3    H130627   1.687   5.293   6.921 -0.0908  0.3749 -0.5720
10228TIP3    H230628   1.726   5.438   6.902  0.7881  0.1601 -0.4280
10229TIP3   OH230629   4.299   2.529   3.979 -0.2286  0.4498 -0.3431
10229TIP3    H130630   4.227   2.592   3.981  0.3149  1.2713 -3.8278
10229TIP3    H230631   4.270   2.462   3.918  0.9325 -0.5194  0.1646
10230TIP3   OH230632   7.112   7.727   0.446  0.2979 -0.6529 -0.2625
10230TIP3    H130633   7.091   7.756   0.535 -1.5479  1.1649 -1.2571
10230TIP3    H230634   7.195   7.769   0.426 -1.0670  1.9202 -0.7151
10231TIP3   OH230635   3.650   4.832   5.506  0.3144  0.4812  0.0305
10231TIP3    H130636   3.598   4.783   5.569 -1.6574  1.9379 -0.4168
10231TIP3    H230637   3.738   4.834   5.545 -0.6418  0.5536  2.2882
10232TIP3   OH230638   3.489   4.600   6.861  0.0712  0.1324  0.4800
10232TIP3    H130639   3.484   4.688   6.824 -0.5661 -0.0233  0.1935
10232TIP3    H230640   3.440   4.605   6.943  1.0557  0.3467  1.0705
10233TIP3   OH230641   3.238   3.276   5.766 -0.6951  0.5988 -0.5073
10233TIP3    H130642   3.320   3.311   5.799 -1.3170  0.4266  1.2587
10233TIP3    H230643   3.170   3.325   5.813 -1.5917 -0.5276 -0.5984
10234TIP3   OH230644   5.297   3.541   5.796  0.6189  0.6449  0.6750
10234TIP3    H130645   5.312   3.599   5.871  1.1739 -0.2071  1.2296
10234TIP3    H230646   5.236   3.589   5.740  2.6320  2.6618  0.1309
10235TIP3   OH230647   8.368   1.385   0.714  0.3815 -0.2590  0.4987
10235TIP3    H130648   8.321   1.323   0.770  1.1253 -0.4191  0.9501
10235TIP3    H230649   8.417   1.331   0.653  0.4428 -0.0981  0.4053
10236TIP3   OH230650   2.395   3.605   5.165  0.2010  0.1489  0.5788
10236TIP3    H130651   2.350   3.639   5.242  0.8262 -2.3514  2.1214
10236TIP3    H230652   2.482   3.581   5.196  0.6674 -0.3715 -1.0517
10237TIP3   OH230653   3.362   4.154   6.107 -0.2773 -0.0128 -0.2585
10237TIP3    H130654   3.438   4.102   6.133  0.5533  0.4499 -1.7223
10237TIP3    H230655   3.298   4.141   6.178 -0.3117 -3.4537 -0.8507
10238TIP3   OH230656   3.053   2.887   6.744 -0.2528  0.7886  0.2938
10238TIP3    H130657   3.083   2.838   6.668  1.1140 -0.1786  1.4251
10238TIP3    H230658   2.959   2.896   6.731 -0.2978 -0.8387 -0.6780
10239TIP3   OH230659   6.308   7.963   0.052  0.0843 -0.1392  0.4003
10239TIP3    H130660   6.291   8.001  -0.034  0.0235 -1.2854 -0.1084
10239TIP3    H230661   6.296   8.035   0.114  1.5731  1.0688 -0.6800
10240TIP3   OH230662   3.917   0.246   4.615  0.3279 -0.1058 -0.0868
10240TIP3    H130663   3.822   0.235   4.617  0.1834  1.1788  1.5905
10240TIP3    H230664   3.946   0.216   4.702  1.2825  0.9103 -0.0490
10241TIP3   OH230665   4.453   5.816   2.715 -0.3485  0.7332 -0.1808
10241TIP3    H130666   4.434   5.722   2.706  2.1751  0.3054 -1.6363
10241TIP3    H230667   4.423   5.838   2.803 -0.0439 -1.6967  0.5776
10242TIP3   OH230668   7.268   5.098   0.817 -0.4025 -0.3197  0.6119
10242TIP3    H130669   7.218   5.040   0.760 -1.0806 -0.3265  1.2004
10242TIP3    H230670   7.250   5.066   0.905  1.2015 -0.7531  0.7912
10243TIP3   OH230671   5.942   7.189   0.664  0.7453  0.5723 -0.2451
10243TIP3    H130672   5.981   7.231   0.741  1.7398  0.2175 -0.5390
10243TIP3    H230673   5.981   7.102   0.663 -0.7769 -0.1330 -0.0322
10244TIP3   OH230674   0.651   2.764   5.559 -0.1485  0.2976 -0.3531
10244TIP3    H130675   0.652   2.674   5.525  2.0747  0.2605 -0.2768
10244TIP3    H230676   0.596   2.760   5.637 -1.7101 -0.5533 -1.4663
10245TIP3   OH230677   0.008   1.650   4.789  0.4154  0.2310  0.2977
10245TIP3    H130678   0.013   1.573   4.845  2.5502  0.1152 -0.0271
10245TIP3    H230679   0.098   1.664   4.759  0.1173  3.0193  0.5869
10246TIP3   OH230680   6.438   7.529   1.868 -0.0073  0.3623  0.4026
10246TIP3    H130681   6.416   7.467   1.937 -0.3680 -0.6472 -0.5987
10246TIP3    H230682   6.357   7.577   1.851  0.5345  1.8967  1.9154
10247TIP3   OH230683   5.078   2.612   6.195  0.3582  0.0782 -0.0867
10247TIP3    H130684   5.173   2.610   6.181  0.3298 -1.6416 -0.1804
10247TIP3    H230685   5.053   2.703   6.180  2.0870  0.6789  0.5774
10248TIP3   OH230686   3.656   2.810   5.491 -0.1221  0.3024 -0.4802
10248TIP3    H130687   3.730   2.759   5.459 -0.3190 -0.2834 -0.0216
10248TIP3    H230688   3.638   2.873   5.422 -0.4899 -0.8941 -1.4911
10249TIP3   OH230689   6.280   7.027   0.776 -0.1620 -0.2267  0.1236
10249TIP3    H130690   6.294   7.031   0.871  1.1948 -1.4535 -0.0087
10249TIP3    H230691   6.367   7.044   0.738 -0.6688  0.1149 -0.9005
10250TIP3   OH230692   6.658   0.379   0.760 -0.2338 -0.2444  0.1386
10250TIP3    H130693   6.740   0.403   0.804 -0.7952 -1.5877  1.9776
10250TIP3    H230694   6.669   0.287   0.736 -1.5610 -0.7252  1.2904
10251TIP3   OH230695   3.274   3.697   6.821  0.4861 -0.1880  0.1198
10251TIP3    H130696   3.283   3.626   6.885  0.3731 -1.3255 -1.1142
10251TIP3    H230697   3.332   3.672   6.750  2.0454  2.0198  0.5897
10252TIP3   OH230698   4.580   6.228   1.719  0.5403 -0.0882  0.3823
10252TIP3    H130699   4.501   6.208   1.668  0.5464  1.6923 -0.3782
10252TIP3    H230700   4.634   6.150   1.711 -0.3823 -0.6484 -0.5948
10253TIP3   OH230701   4.005   2.115   5.681  0.6238 -0.4095 -0.4753
10253TIP3    H130702   4.014   2.130   5.775  0.4387 -0.6549 -0.4192
10253TIP3    H230703   4.058   2.037   5.664  0.6068 -0.4014 -0.5646
10254TIP3   OH230704   6.514   3.193   6.544  0.4785 -0.1566 -0.1483
10254TIP3    H130705   6.513   3.197   6.639  0.1936  0.5123 -0.1802
10254TIP3    H230706   6.448   3.256   6.516  0.9984  0.1072 -0.8029
10255TIP3   OH230707   8.098   7.566   2.224 -0.0182  0.2165  0.7143
10255TIP3    H130708   8.056   7.624   2.160 -2.2311 -0.0923  1.8243
10255TIP3    H230709   8.191   7.586   2.218  0.1560 -1.5578 -4.3553
10256TIP3   OH230710   2.523   2.189   5.209  0.7165  0.2769 -0.4861
10256TIP3    H130711   2.556   2.250   5.275 -0.0170  0.2353 -0.0736
10256TIP3    H230712   2.571   2.211   5.129  0.7801  1.0905 -0.2216
10257TIP3   OH230713   7.914   0.866   0.570 -0.2797 -0.4409  0.2905
10257TIP3    H130714   7.945   0.846   0.481 -0.8976  1.9180 -0.4934
10257TIP3    H230715   7.819   0.864   0.563 -0.3303 -1.8101  1.2890
10258TIP3   OH230716   4.267   2.472   5.626  0.1729  0.1077 -0.3988
10258TIP3    H130717   4.230   2.450   5.711  0.5231  0.9375 -0.0335
10258TIP3    H230718   4.224   2.411   5.565  0.6026 -1.0935  0.4967
10259TIP3   OH230719   3.969   3.181   6.003  0.8004 -0.3569 -0.1823
10259TIP3    H130720   3.909   3.193   6.076 -2.0216  1.6686 -2.7082
10259TIP3    H230721   4.023   3.260   6.002 -0.0690  0.2463 -1.0279
10260TIP3   OH230722   3.438   2.308   6.818 -0.2485 -0.4751 -0.0593
10260TIP3    H130723   3.354   2.320   6.862 -0.8769 -0.1760 -1.2899
10260TIP3    H230724   3.430   2.223   6.775  0.4355 -0.8617  0.5850
10261TIP3   OH230725   3.320   2.259   6.236 -0.0299  0.0588  0.2030
10261TIP3    H130726   3.237   2.272   6.282  0.2371  1.6263  0.2830
10261TIP3    H230727   3.386   2.258   6.306  0.1814  0.4555  0.0092
10262TIP3   OH230728   2.099   4.536   5.776 -0.3238  0.1395 -0.1439
10262TIP3    H130729   2.018   4.553   5.729 -0.5808 -2.4801 -0.7218
10262TIP3    H230730   2.152   4.484   5.715  0.6251 -0.6069  1.2757
10263TIP3   OH230731   6.306   6.988   0.447 -0.1961  0.1639 -0.0242
10263TIP3    H130732   6.349   6.938   0.378 -2.2029 -1.0176 -0.4498
10263TIP3    H230733   6.376   7.009   0.508  1.0931 -1.1883 -1.0019
10264TIP3   OH230734   3.902   1.162   6.571 -0.4064 -0.0392 -0.1266
10264TIP3    H130735   3.809   1.183   6.567 -0.2094  0.9237  0.0208
10264TIP3    H230736   3.907   1.068   6.555 -1.3571 -0.0050 -0.6540
10265TIP3   OH230737   7.149   6.584   1.096 -0.1312 -0.0808  0.5643
10265TIP3    H130738   7.205   6.529   1.151 -0.0074 -0.5573 -0.0404
10265TIP3    H230739   7.068   6.535   1.088 -0.2086  0.0659  0.4469
10266TIP3   OH230740   3.479   2.949   6.001  0.2526 -0.1900  0.4376
10266TIP3    H130741   3.404   2.998   6.034  1.3391  1.5983  0.3309
10266TIP3    H230742   3.555   2.991   6.043  1.3357 -0.6425 -1.0272
10267TIP3   OH230743   4.084   2.011   6.945  0.4983  0.2279  0.2957
10267TIP3    H130744   4.117   1.955   6.874  0.1856 -0.5222  0.7423
10267TIP3    H230745   3.990   1.990   6.950  0.1317  1.6667 -0.3399
10268TIP3   OH230746   1.116   5.621   6.850  0.3545 -0.2823  0.7606
10268TIP3    H130747   1.210   5.623   6.831 -0.0359  1.2886 -1.2745
10268TIP3    H230748   1.077   5.587   6.770 -1.1014  2.8901  0.0669
10269TIP3   OH230749   2.153   1.387   5.375  0.0039 -1.2086  0.6771
10269TIP3    H130750   2.204   1.468   5.363  1.2739 -1.8269  1.7458
10269TIP3    H230751   2.071   1.416   5.413 -1.5936  0.0991 -3.4477
10270TIP3   OH230752   6.350   0.558   0.064  0.0663 -0.6329  0.0190
10270TIP3    H130753   6.313   0.493   0.124 -0.0579 -0.3460  0.2541
10270TIP3    H230754   6.437   0.525   0.045  0.3445 -0.4037  0.8549
10271TIP3   OH230755   3.456   2.647   6.003 -0.0712  0.0188  0.3316
10271TIP3    H130756   3.532   2.639   5.946 -0.7580 -1.4574 -0.3909
10271TIP3    H230757   3.434   2.740   6.000  1.0519  0.2788 -0.2892
10272TIP3   OH230758   2.001   1.743   5.865  0.5913  0.2235 -0.3964
10272TIP3    H130759   1.954   1.735   5.948 -1.4646 -0.5272 -1.5982
10272TIP3    H230760   2.008   1.653   5.833  1.1191  0.5447 -1.1932
10273TIP3   OH230761   3.793   3.412   6.613 -0.1679  0.4977  0.3554
10273TIP3    H130762   3.743   3.485   6.575 -0.1868  0.7856  0.9329
10273TIP3    H230763   3.885   3.435   6.598 -0.2116 -0.4609 -1.5088
10274TIP3   OH230764   2.853   4.145   6.055  0.1578 -0.4022  0.5578
10274TIP3    H130765   2.906   4.134   5.976  1.2637  2.7738  0.7802
10274TIP3    H230766   2.888   4.080   6.116  0.9512 -1.2197 -0.7407
10275TIP3   OH230767   2.442   5.304   6.135 -0.3658 -0.1324  0.5113
10275TIP3    H130768   2.430   5.307   6.040 -2.1437  1.1944  0.7406
10275TIP3    H230769   2.421   5.393   6.164 -0.4877 -0.6968  2.2096
10276TIP3   OH230770   4.492   3.857   4.021  0.2918 -0.5639  0.3712
10276TIP3    H130771   4.483   3.762   4.015 -1.3907 -0.3853 -0.2083
10276TIP3    H230772   4.420   3.885   4.076  0.9279  0.3599  0.7444
10277TIP3   OH230773   1.234   2.955   6.354  0.6150  0.6370  0.0813
10277TIP3    H130774   1.194   3.010   6.421  0.4524 -0.7336  1.1255
10277TIP3    H230775   1.161   2.916   6.306  0.7252  0.7959 -0.2223
10278TIP3   OH230776   7.882   7.161   0.388 -0.1143 -0.0334 -0.2873
10278TIP3    H130777   7.826   7.088   0.362  0.1085  0.2982 -1.7620
10278TIP3    H230778   7.904   7.205   0.305  0.4440  1.1960  0.4916
10279TIP3   OH230779   0.726   3.846   6.352  0.5303  0.2856 -0.3222
10279TIP3    H130780   0.694   3.907   6.418  2.0609 -0.3235  1.0200
10279TIP3    H230781   0.809   3.882   6.323  1.6104 -1.2989  0.7211
10280TIP3   OH230782   1.529   3.746   4.889 -0.2236 -0.5571  0.5540
10280TIP3    H130783   1.454   3.795   4.857  1.4718  0.8537 -1.3783
10280TIP3    H230784   1.496   3.700   4.967 -2.5063  1.6452  0.9606
10281TIP3   OH230785   3.773   3.156   6.500  0.3610 -0.6161 -0.2495
10281TIP3    H130786   3.754   3.100   6.576  0.2986 -0.6994 -0.3249
10281TIP3    H230787   3.773   3.245   6.535  1.1199 -0.7133 -0.0032
10282TIP3   OH230788   0.275   1.722   0.876 -0.4527  0.1461  0.5994
10282TIP3    H130789   0.321   1.643   0.903  0.0689  0.0117 -0.6411
10282TIP3    H230790   0.184   1.695   0.865 -0.7256  0.2609  2.4089
10283TIP3   OH230791   6.053   6.445   1.159 -0.3814 -0.5131 -0.4251
10283TIP3    H130792   6.073   6.487   1.076 -1.3247 -0.4614 -0.6285
10283TIP3    H230793   5.960   6.462   1.173 -0.1938 -0.3505  0.7312
10284TIP3   OH230794   4.749   1.893   6.489  0.4382 -0.0465 -0.0414
10284TIP3    H130795   4.732   1.813   6.439  0.6441  0.6210 -1.1971
10284TIP3    H230796   4.677   1.899   6.551  0.9130 -1.6163  0.6813
10285TIP3   OH230797   0.571   4.042   6.485  0.1492  0.2516 -0.1995
10285TIP3    H130798   0.486   4.059   6.444  0.2337 -0.9878 -0.9377
10285TIP3    H230799   0.555   4.049   6.579 -0.7664  0.0772 -0.3382
10286TIP3   OH230800   3.764   2.398   5.612  0.2105 -0.3736 -0.4644
10286TIP3    H130801   3.823   2.468   5.585 -0.5126 -0.0642 -1.2554
10286TIP3    H230802   3.813   2.350   5.678  0.7846  0.7720 -0.0410
10287TIP3   OH230803   3.471   3.304   6.493  0.0521  0.2031 -0.1665
10287TIP3    H130804   3.403   3.237   6.497  1.0883 -0.7795  1.9459
10287TIP3    H230805   3.525   3.279   6.419  0.2313 -1.1417  0.3969
10288TIP3   OH230806   5.206   3.213   4.012  0.4686  0.2432 -0.0882
10288TIP3    H130807   5.188   3.133   4.060  0.8412  0.4831  0.4521
10288TIP3    H230808   5.276   3.189   3.951  0.7520  0.2235  0.2451
10289TIP3   OH230809   2.735   4.411   5.928 -0.4611 -0.3361  0.2744
10289TIP3    H130810   2.821   4.445   5.952  0.3477 -1.8017 -0.4603
10289TIP3    H230811   2.715   4.347   5.997  0.3068 -2.0217 -1.0321
10290TIP3   OH230812   2.972  -0.003   5.175  0.2424 -0.3923  0.3670
10290TIP3    H130813   2.967   0.011   5.270  0.1609 -0.6305  0.3966
10290TIP3    H230814   3.063   0.017   5.153  0.0358  0.5657  0.3546
10291TIP3   OH230815   1.924   0.655   0.265  0.1712  0.5089 -0.2051
10291TIP3    H130816   1.835   0.651   0.300 -0.1067 -0.2741 -0.9852
10291TIP3    H230817   1.979   0.666   0.342 -0.4979 -0.3958  0.4217
10292TIP3   OH230818   7.803   7.233   1.288  0.9418 -0.3873  0.4932
10292TIP3    H130819   7.727   7.270   1.244  0.5398 -1.5790  0.1694
10292TIP3    H230820   7.777   7.144   1.310  2.4154 -0.9706 -0.0503
10293TIP3   OH230821   3.322   2.970   4.774 -0.3383 -0.2735 -0.3359
10293TIP3    H130822   3.348   2.925   4.854 -0.1787  0.9281  0.2953
10293TIP3    H230823   3.395   2.955   4.713 -0.0646 -0.4448  0.0348
10294TIP3   OH230824   3.457   3.850   6.011  0.7868 -0.1522 -0.1593
10294TIP3    H130825   3.501   3.876   5.930  1.9082 -1.7218 -0.0884
10294TIP3    H230826   3.502   3.900   6.079  1.4728 -0.6255 -0.2542
10295TIP3   OH230827   6.740   7.127   0.364 -0.4536  0.8930 -0.4722
10295TIP3    H130828   6.663   7.094   0.410  0.7298 -0.4679  0.5946
10295TIP3    H230829   6.739   7.222   0.380 -0.6068  0.5708  1.5378
10296TIP3   OH230830   1.075   7.692   6.925 -0.4529  0.0389 -0.2664
10296TIP3    H130831   1.066   7.703   6.830 -2.0106  1.3105  0.0131
10296TIP3    H230832   1.022   7.616   6.946  1.5028 -1.4904 -0.6602
10297TIP3   OH230833   1.106   2.694   3.343  0.8191  0.4854 -0.1582
10297TIP3    H130834   1.020   2.654   3.332  1.4909 -1.0225  0.0022
10297TIP3    H230835   1.150   2.681   3.259  1.7942 -0.9772  0.5592
10298TIP3   OH230836   6.087   5.940   0.736  0.4939  0.6754 -0.3565
10298TIP3    H130837   5.993   5.952   0.748  0.6270  0.3297  1.1087
10298TIP3    H230838   6.096   5.848   0.709  0.5271  0.2735  0.9946
10299TIP3   OH230839   6.635   7.751   2.031  0.1981 -0.1200  0.3064
10299TIP3    H130840   6.694   7.684   2.065 -0.8021 -1.1496  0.0521
10299TIP3    H230841   6.628   7.732   1.938  0.3342  0.6660  0.1381
10300TIP3   OH230842   4.642   2.527   6.084  0.3315 -0.1397  0.8214
10300TIP3    H130843   4.625   2.560   5.996 -1.4956  0.1377  1.2707
10300TIP3    H230844   4.726   2.481   6.076 -0.3950 -1.1464 -1.3335
10301TIP3   OH230845   7.768   5.578   0.464  0.2222 -0.4258 -0.4960
10301TIP3    H130846   7.739   5.552   0.552 -1.0805 -0.5987 -0.9701
10301TIP3    H230847   7.706   5.645   0.437  0.2260 -0.8336 -1.5458
10302TIP3   OH230848   4.262   3.891   4.179  0.1824 -0.0997  0.1713
10302TIP3    H130849   4.176   3.868   4.146  0.0697 -0.7443  0.8861
10302TIP3    H230850   4.251   3.892   4.274  0.9059  0.0145  0.2554
10303TIP3   OH230851   0.272   0.354   0.397  0.0436  0.3212  0.5639
10303TIP3    H130852   0.366   0.354   0.415  0.1793  0.5787 -0.1333
10303TIP3    H230853   0.238   0.278   0.445  0.5758  0.3275  0.9550
10304TIP3   OH230854   5.614   7.462   0.266  0.5013  0.1291  0.4880
10304TIP3    H130855   5.696   7.489   0.225  0.0838  1.3840  0.4462
10304TIP3    H230856   5.638   7.390   0.323  1.5726  0.2352  0.1819
10305TIP3   OH230857   5.577   7.290   1.151 -0.1490 -0.1729 -0.4171
10305TIP3    H130858   5.584   7.342   1.072  0.6677 -1.6903 -1.3544
10305TIP3    H230859   5.491   7.313   1.187  1.3397  3.9976  0.8009
10306TIP3   OH230860   1.885   1.791   3.975 -0.0182  0.0779  0.1708
10306TIP3    H130861   1.963   1.777   4.028  0.8785 -1.1780 -1.4341
10306TIP3    H230862   1.827   1.719   3.999 -0.1949  0.3280  0.4928
10307TIP3   OH230863   7.968   7.008   0.970  0.0742 -0.1714  0.6420
10307TIP3    H130864   8.021   7.084   0.992  0.0744 -0.6070  2.2264
10307TIP3    H230865   8.031   6.936   0.962 -0.1183 -0.3862  1.0335
10308TIP3   OH230866   4.524   7.855   0.198 -0.2679  0.9812  0.2858
10308TIP3    H130867   4.444   7.830   0.153  0.3731 -1.8099  0.5727
10308TIP3    H230868   4.588   7.868   0.129 -0.1840  0.0996  0.1848
10309TIP3   OH230869   1.475   3.984   2.861  0.7354  0.0407  0.0452
10309TIP3    H130870   1.392   4.011   2.822  0.8516  0.4627  0.0901
10309TIP3    H230871   1.454   3.970   2.954  0.5185 -0.7080 -0.1181
10310TIP3   OH230872   2.778   2.438   6.415 -0.1405  0.5853  0.3549
10310TIP3    H130873   2.713   2.462   6.349 -0.1663  0.5827  0.3793
10310TIP3    H230874   2.726   2.407   6.489 -0.1062  0.4534  0.3231
10311TIP3   OH230875   4.807   4.276   6.817  0.1511  0.4562  0.5431
10311TIP3    H130876   4.885   4.236   6.855 -0.2249  0.2946  1.1641
10311TIP3    H230877   4.782   4.344   6.879  0.7392  1.6195 -0.4712
10312TIP3   OH230878   6.787   7.929   0.381  0.0328  0.4807 -0.1881
10312TIP3    H130879   6.730   7.889   0.316 -1.2502  2.0651 -0.0510
10312TIP3    H230880   6.862   7.961   0.332 -0.7715  1.3670 -0.8407
10313TIP3   OH230881   4.337   3.056   6.142  0.0709 -0.0927  0.2094
10313TIP3    H130882   4.326   3.069   6.048 -1.3051  0.3858  0.4308
10313TIP3    H230883   4.332   3.143   6.180 -0.4493 -0.3923  0.8376
10314TIP3   OH230884   3.549   2.510   5.200  0.3295  0.1256 -0.2342
10314TIP3    H130885   3.489   2.539   5.269  0.9429 -1.7544  1.1260
10314TIP3    H230886   3.622   2.573   5.205  0.2167  0.1986  0.6065
10315TIP3   OH230887   6.841   7.787   1.114  0.3830 -0.8403 -0.2511
10315TIP3    H130888   6.937   7.788   1.117  0.3726  1.5360  0.4664
10315TIP3    H230889   6.817   7.704   1.155  2.0990  0.0753  2.8003
10316TIP3   OH230890   2.889   6.334   1.819 -0.1037 -0.3345  0.0401
10316TIP3    H130891   2.848   6.317   1.734 -1.0294 -0.2443  0.4622
10316TIP3    H230892   2.887   6.429   1.828  1.6180 -0.2177 -0.6218
10317TIP3   OH230893   7.646   6.986   4.799  0.4032  0.1504 -0.5917
10317TIP3    H130894   7.613   7.008   4.886 -1.3703 -1.1490 -0.9010
10317TIP3    H230895   7.602   7.047   4.740  2.0917  1.4574 -0.5427
10318TIP3   OH230896   5.670   3.057   5.569  0.2699  0.2699 -0.0124
10318TIP3    H130897   5.643   3.148   5.566  1.7114  0.7197  0.4179
10318TIP3    H230898   5.735   3.053   5.639  1.5445 -0.7161 -1.2252
10319TIP3   OH230899   5.688   7.139   1.789 -0.1784 -0.2479  0.1128
10319TIP3    H130900   5.694   7.234   1.795 -0.8209 -0.2765  1.3327
10319TIP3    H230901   5.628   7.123   1.716  0.5367  0.2600 -0.5992
10320TIP3   OH230902   6.154   2.138   6.350  0.3999  0.0338  0.2887
10320TIP3    H130903   6.171   2.120   6.443  0.6909 -0.5105  0.1314
10320TIP3    H230904   6.059   2.149   6.345  0.5952  2.3108  1.0363
10321TIP3   OH230905   5.159   4.671   2.705  0.3451  0.6425 -0.1786
10321TIP3    H130906   5.223   4.722   2.755  0.3634  0.8967 -0.4599
10321TIP3    H230907   5.191   4.674   2.615  1.7229 -2.0352  0.1988
10322TIP3   OH230908   4.809   1.442   6.216 -0.5310  0.2347 -0.0279
10322TIP3    H130909   4.817   1.350   6.192  1.4961 -0.1273  1.9317
10322TIP3    H230910   4.892   1.482   6.190 -0.4282  0.9820  1.3879
10323TIP3   OH230911   0.038   6.020   0.919 -0.7319  0.1896 -0.2098
10323TIP3    H130912   0.069   6.088   0.859  0.5419  1.3288  1.6881
10323TIP3    H230913   0.109   5.956   0.923 -0.1509  0.9006  1.2440
10324TIP3   OH230914   6.242   7.292   1.810  0.3460  0.4299  0.3675
10324TIP3    H130915   6.319   7.236   1.805  1.2654  1.6388  0.6467
10324TIP3    H230916   6.249   7.350   1.734 -0.6483  0.1098  0.0137
10325TIP3   OH230917   5.776   5.425   2.113  0.0355 -0.1534 -0.0788
10325TIP3    H130918   5.821   5.341   2.101  0.1554  0.1055 -1.4311
10325TIP3    H230919   5.846   5.490   2.112 -0.1824  0.0764 -0.2142
10326TIP3   OH230920   7.440   6.511   1.680 -0.0259  0.0072  0.0647
10326TIP3    H130921   7.404   6.549   1.760  0.4194 -0.4909  0.5152
10326TIP3    H230922   7.531   6.541   1.678  0.3299 -0.9924  0.4246
10327TIP3   OH230923   3.407   2.403   4.539  0.7946  0.4254  0.1424
10327TIP3    H130924   3.360   2.474   4.583  0.4158 -0.1204  0.6232
10327TIP3    H230925   3.356   2.385   4.460  1.4250  1.3448 -0.4784
10328TIP3   OH230926   2.244   2.724   6.734 -0.0427  0.3436 -0.4799
10328TIP3    H130927   2.333   2.690   6.747 -0.3810 -0.2562  0.3034
10328TIP3    H230928   2.197   2.700   6.814 -1.8502 -2.3887 -2.2932
10329TIP3   OH230929   0.891   4.597   5.970 -0.4031 -0.4555  0.3593
10329TIP3    H130930   0.842   4.676   5.996 -0.6393 -0.6110  0.3832
10329TIP3    H230931   0.959   4.589   6.037  0.2382  0.2860 -0.1827
10330TIP3   OH230932   2.281   4.891   5.729 -0.3134  0.4173  0.1635
10330TIP3    H130933   2.257   4.882   5.637  1.4970 -0.6001 -0.2262
10330TIP3    H230934   2.264   4.983   5.749  0.8100  1.0474 -1.6395
10331TIP3   OH230935   0.403   0.092   1.903 -0.1042  0.0695  0.1163
10331TIP3    H130936   0.332   0.029   1.892 -0.5500 -0.1738  3.7268
10331TIP3    H230937   0.481   0.037   1.914  0.2014  0.2591 -1.1330
10332TIP3   OH230938   6.868   5.833   2.295 -0.1262 -0.1733  0.0355
10332TIP3    H130939   6.920   5.760   2.330 -0.1659 -0.1985  0.0423
10332TIP3    H230940   6.845   5.805   2.207 -0.5831 -0.3943  0.2271
10333TIP3   OH230941   3.397   2.972   4.440  0.5507 -0.2347  0.6200
10333TIP3    H130942   3.322   2.939   4.390  0.8584 -1.2148  0.7818
10333TIP3    H230943   3.471   2.967   4.379  0.8496 -1.0694  1.0383
10334TIP3   OH230944   5.073   1.329   5.967  0.3503  0.5295 -0.3877
10334TIP3    H130945   5.116   1.392   5.908  2.8810 -0.1855  0.6115
10334TIP3    H230946   5.101   1.356   6.054  1.6305 -2.0720  0.0483
10335TIP3   OH230947   4.698   3.055   6.642 -0.2971 -0.1303  0.0835
10335TIP3    H130948   4.649   2.973   6.642 -1.5839  0.6244 -0.0034
10335TIP3    H230949   4.752   3.051   6.721 -2.6703  0.3049  1.7439
10336TIP3   OH230950   6.927   7.148   0.135  0.8796 -0.2521  0.0732
10336TIP3    H130951   6.878   7.095   0.072  0.8657  0.2097 -0.3023
10336TIP3    H230952   6.868   7.158   0.210  0.3779  0.3794 -0.4159
10337TIP3   OH230953   4.346   3.084   3.621  0.3555 -0.1361 -0.3358
10337TIP3    H130954   4.356   3.157   3.559  2.3833 -0.8527 -0.8733
10337TIP3    H230955   4.269   3.037   3.590 -0.3307  1.1356 -0.6237
10338TIP3   OH230956   6.326   7.025   1.054 -0.0385 -0.2188 -0.3239
10338TIP3    H130957   6.258   7.092   1.045 -1.1942 -1.2052  0.7605
10338TIP3    H230958   6.279   6.949   1.090  1.6945 -0.8485  0.6334
10339TIP3   OH230959   7.873   4.608   1.781 -0.5210 -0.1126  0.4796
10339TIP3    H130960   7.951   4.614   1.725  1.2552 -2.5469  2.5634
10339TIP3    H230961   7.885   4.678   1.845  0.9673 -1.6617  1.9394
10340TIP3   OH230962   6.131   7.715   0.737 -0.4458  0.0661 -0.1663
10340TIP3    H130963   6.065   7.693   0.671  0.3350 -0.7855 -0.6819
10340TIP3    H230964   6.215   7.704   0.691  0.1626 -1.8135  1.3292
10341TIP3   OH230965   6.988   6.190   0.226 -0.1345 -0.3001 -0.3105
10341TIP3    H130966   6.982   6.116   0.166 -0.0828 -1.2519  0.8261
10341TIP3    H230967   7.082   6.202   0.240 -0.1424  0.0038 -0.5422
10342TIP3   OH230968   4.269   2.241   6.867  0.1780 -0.0894  0.1607
10342TIP3    H130969   4.214   2.165   6.881 -1.3129  0.7714 -0.8790
10342TIP3    H230970   4.311   2.225   6.782 -0.8215  0.6384 -0.4805
10343TIP3   OH230971   4.791   2.225   6.667  0.5478 -0.0061 -0.5909
10343TIP3    H130972   4.772   2.317   6.685 -0.3726  0.4123 -3.3919
10343TIP3    H230973   4.824   2.225   6.577  0.4846 -2.4256 -0.6502
10344TIP3   OH230974   4.092   3.616   4.774  0.1493 -0.8171  0.2250
10344TIP3    H130975   4.077   3.710   4.765 -0.9650 -1.1607 -1.6899
10344TIP3    H230976   4.149   3.594   4.700  0.7491 -1.5895  0.9121
10345TIP3   OH230977   6.323   4.832   0.034  0.4040  0.3299  0.1925
10345TIP3    H130978   6.337   4.923   0.008  2.1333  0.3015  0.9091
10345TIP3    H230979   6.399   4.785  -0.002 -2.1041 -1.4834 -3.0850
10346TIP3   OH230980   0.613   6.114   1.778  0.4649  0.7119 -0.1573
10346TIP3    H130981   0.594   6.144   1.866  1.4122  1.3973 -0.1838
10346TIP3    H230982   0.708   6.103   1.775  0.3989  0.2324 -0.9449
10347TIP3   OH230983   3.215   2.996   6.935 -0.1213 -0.4416  0.4414
10347TIP3    H130984   3.306   2.999   6.907 -0.3503  1.1780 -0.1384
10347TIP3    H230985   3.167   2.966   6.858 -0.4092  1.3559 -0.0916
10348TIP3   OH230986   5.669   4.881   0.114  0.2257 -0.0621 -0.3883
10348TIP3    H130987   5.601   4.931   0.068 -0.2345  0.7743  1.1622
10348TIP3    H230988   5.751   4.918   0.082 -0.1137  1.8549  0.8925
10349TIP3   OH230989   5.981   2.892   6.028  0.2650 -0.2724  0.1272
10349TIP3    H130990   5.951   2.802   6.044  0.8031 -0.6741 -1.0814
10349TIP3    H230991   5.901   2.942   6.016  0.0106 -0.9992 -1.3000
10350TIP3   OH230992   5.235   5.915   0.147 -0.8524 -0.5577  0.3076
10350TIP3    H130993   5.261   5.877   0.063 -1.5172  0.5672 -0.4303
10350TIP3    H230994   5.175   5.851   0.185 -1.0871 -0.7675 -0.3973
10351TIP3   OH230995   3.956   3.376   6.307  0.1287 -0.3483 -0.1324
10351TIP3    H130996   3.882   3.317   6.291  0.0471  0.0855 -1.4770
10351TIP3    H230997   3.967   3.423   6.224  1.0866  0.5208  0.4728
10352TIP3   OH230998   5.033   3.155   6.809  0.2626  0.0591  0.0351
10352TIP3    H130999   5.040   3.061   6.788 -0.2631  0.4598 -2.0053
10352TIP3    H231000   5.071   3.199   6.733  1.1091  1.5028  1.2699
10353TIP3   OH231001   4.802   0.195   4.741  0.0802 -0.2559 -0.1473
10353TIP3    H131002   4.727   0.217   4.685  0.6135 -2.6022 -1.8531
10353TIP3    H231003   4.857   0.138   4.687  2.3958  0.2614  1.5714
10354TIP3   OH231004   3.755   1.831   5.791 -0.0703 -0.6922  0.0106
10354TIP3    H131005   3.771   1.739   5.809  1.1720 -1.2489 -3.5387
10354TIP3    H231006   3.706   1.832   5.709 -2.8501  1.7382  1.5884
10355TIP3   OH231007   2.328   2.922   4.564  0.2451  0.4748  0.3233
10355TIP3    H131008   2.320   3.017   4.564 -1.1554  0.3680  0.7408
10355TIP3    H231009   2.383   2.902   4.488 -0.1366  1.5590 -0.2366
10356TIP3   OH231010   6.638   5.384   3.422  0.4875 -0.5514 -0.5140
10356TIP3    H131011   6.718   5.427   3.453  0.2175  0.3688 -1.0683
10356TIP3    H231012   6.657   5.291   3.429  1.2067 -0.3494  0.4003
10357TIP3   OH231013   5.956   7.714   0.167 -0.0685 -0.1069  0.2201
10357TIP3    H131014   5.947   7.686   0.258 -0.6594  1.2832  0.6113
10357TIP3    H231015   6.015   7.790   0.172  0.4748 -0.4700 -0.6383
10358TIP3   OH231016   3.713   4.732   4.153  0.5488 -0.6226 -0.0421
10358TIP3    H131017   3.772   4.679   4.098  0.5936 -0.4279 -0.1816
10358TIP3    H231018   3.748   4.821   4.146 -0.2139 -0.3711 -0.7482
10359TIP3   OH231019   7.467   7.313   0.907 -0.2338 -0.1378  0.4950
10359TIP3    H131020   7.414   7.233   0.906 -0.1969 -0.1634  0.5884
10359TIP3    H231021   7.553   7.286   0.876  0.0125 -0.3034  1.3046
10360TIP3   OH231022   3.936   5.655   6.616 -0.3114 -0.7174  0.1221
10360TIP3    H131023   3.878   5.717   6.571 -1.6944 -1.3263  1.0188
10360TIP3    H231024   3.876   5.588   6.650  0.7328 -0.4082  2.6328
10361TIP3   OH231025   5.732   2.560   6.545  0.6336 -0.5099  0.4419
10361TIP3    H131026   5.723   2.581   6.638 -1.2956 -0.4371  0.2644
10361TIP3    H231027   5.781   2.633   6.508  0.5645 -0.0647  1.2308
10362TIP3   OH231028   3.241   6.497   6.171 -0.3637 -0.1464  0.0654
10362TIP3    H131029   3.290   6.572   6.137 -1.0800 -0.4120 -1.6314
10362TIP3    H231030   3.306   6.426   6.173 -0.4412 -0.2920 -1.4126
10363TIP3   OH231031   2.537   0.284   0.530  0.1180  0.6970 -0.5012
10363TIP3    H131032   2.520   0.290   0.624  0.2918  0.5018 -0.4575
10363TIP3    H231033   2.628   0.257   0.523  0.1290  0.7893 -0.7276
10364TIP3   OH231034   2.506   3.974   5.515 -0.3977  0.0161 -0.3782
10364TIP3    H131035   2.490   4.067   5.504  1.9197  0.4716 -0.1924
10364TIP3    H231036   2.593   3.969   5.554  0.3998 -2.2906 -2.3319
10365TIP3   OH231037   7.849   0.890   0.903  0.5808  0.0222 -0.2110
10365TIP3    H131038   7.870   0.964   0.960  1.2473  0.0981 -0.5471
10365TIP3    H231039   7.863   0.924   0.814  0.9923 -0.5453 -0.3638
10366TIP3   OH231040   2.824   3.925   6.468 -0.6736 -0.6194 -0.4405
10366TIP3    H131041   2.851   3.868   6.540  0.4663 -0.4207 -0.6920
10366TIP3    H231042   2.738   3.892   6.442 -2.1046  0.7426  2.4828
10367TIP3   OH231043   2.011   3.008   5.477  0.1106  0.0499 -0.2874
10367TIP3    H131044   2.095   3.014   5.522  0.0929 -2.3469  0.1507
10367TIP3    H231045   1.952   3.064   5.528  1.0365  0.4192  0.3810
10368TIP3   OH231046   8.017   0.276   0.745 -0.1002 -0.2744  0.4284
10368TIP3    H131047   7.924   0.264   0.725 -0.0351 -2.0592  1.1043
10368TIP3    H231048   8.063   0.215   0.687  0.7124  1.0588 -0.3596
10369TIP3   OH231049   0.693   5.312   4.859  0.3033 -0.0499  0.4143
10369TIP3    H131050   0.732   5.336   4.943 -0.2724 -2.8049  1.5337
10369TIP3    H231051   0.765   5.271   4.810  0.0497 -0.6732  0.5523
10370TIP3   OH231052   5.650   0.307   5.502  0.1560 -0.1101 -0.0784
10370TIP3    H131053   5.585   0.373   5.478  0.3646  0.3611  0.6147
10370TIP3    H231054   5.683   0.336   5.587 -1.1958 -2.1790  1.2067
10371TIP3   OH231055   5.433   0.675   4.283 -0.1858  0.1500  0.3237
10371TIP3    H131056   5.388   0.622   4.218  0.3661  1.6467 -1.3072
10371TIP3    H231057   5.411   0.765   4.260  2.1358  0.8159  0.6143
10372TIP3   OH231058   7.589   0.367   0.558 -0.0648 -0.3209 -0.3970
10372TIP3    H131059   7.571   0.273   0.558 -0.2510 -0.2837  0.5408
10372TIP3    H231060   7.680   0.373   0.528 -0.7836 -0.6413 -2.8005
10373TIP3   OH231061   5.111   6.329   1.187  0.1039 -0.6013 -0.8393
10373TIP3    H131062   5.202   6.303   1.180  0.2967  0.5774 -3.2954
10373TIP3    H231063   5.071   6.300   1.105 -1.1349  1.0390 -0.8560
10374TIP3   OH231064   2.417   0.871   6.892  0.7398 -0.2166  0.0235
10374TIP3    H131065   2.489   0.809   6.895  0.9370 -0.0171 -0.5604
10374TIP3    H231066   2.351   0.834   6.951  1.6811  0.0676  1.2733
10375TIP3   OH231067   6.561   5.542   0.242  0.2015  0.0083  0.2506
10375TIP3    H131068   6.535   5.632   0.225  1.1103  0.1254 -0.5848
10375TIP3    H231069   6.494   5.489   0.199  0.7933  0.2982 -1.0450
10376TIP3   OH231070   4.329   4.463   6.777  0.4908 -0.1262  0.2963
10376TIP3    H131071   4.263   4.395   6.792  0.4571  0.1562  1.4664
10376TIP3    H231072   4.391   4.423   6.717  0.4911 -1.2092  1.0110
10377TIP3   OH231073   3.784   2.867   6.071 -0.2416 -0.4293  0.6060
10377TIP3    H131074   3.840   2.919   6.129  1.2081 -2.0138  0.6728
10377TIP3    H231075   3.826   2.872   5.985 -1.4059  0.4505  0.0794
10378TIP3   OH231076   2.381   4.911   4.842 -0.2931 -0.7651  0.5338
10378TIP3    H131077   2.381   5.004   4.864  1.1263 -0.7366  0.4601
10378TIP3    H231078   2.470   4.882   4.861 -0.1761 -1.6561 -1.2555
10379TIP3   OH231079   6.875   5.758   1.586  0.4507  0.1135 -0.3039
10379TIP3    H131080   6.963   5.729   1.559  1.1281  0.3062  1.5822
10379TIP3    H231081   6.881   5.853   1.590 -0.1031  0.1795 -0.9870
10380TIP3   OH231082   1.944   2.085   4.862  0.5974  0.1138  0.2222
10380TIP3    H131083   1.975   2.175   4.874  0.0785  0.6252 -2.0416
10380TIP3    H231084   2.024   2.032   4.864  1.1985  0.9315 -1.1140
10381TIP3   OH231085   3.412   4.135   5.702 -0.3411  0.6999 -0.5645
10381TIP3    H131086   3.495   4.181   5.710 -0.0491  0.3377 -1.4838
10381TIP3    H231087   3.353   4.199   5.661 -0.6625  1.1209  0.5228
10382TIP3   OH231088   4.364   3.807   5.123 -0.4296 -0.1508 -0.7171
10382TIP3    H131089   4.367   3.890   5.170  0.3260  0.1501 -1.2788
10382TIP3    H231090   4.410   3.825   5.041  0.4388 -1.3316 -0.5061
10383TIP3   OH231091   4.527   5.882   1.170 -0.3512  0.7833 -0.4659
10383TIP3    H131092   4.576   5.964   1.168  0.7897  0.1164 -0.7317
10383TIP3    H231093   4.573   5.826   1.107 -0.3919 -0.4636  0.6004
10384TIP3   OH231094   5.587   7.683   0.449 -0.4067 -0.0749 -0.4719
10384TIP3    H131095   5.544   7.673   0.534  0.9103  0.7223  0.3026
10384TIP3    H231096   5.604   7.593   0.421  0.6518 -0.3340  0.9149
10385TIP3   OH231097   6.379   1.687   6.378  0.6999  0.2892 -0.2501
10385TIP3    H131098   6.370   1.753   6.448  0.8516  0.7492 -0.6633
10385TIP3    H231099   6.316   1.714   6.312 -0.5745 -1.0355  0.3887
10386TIP3   OH231100   3.707   6.095   6.039  0.7631  0.3126 -0.1636
10386TIP3    H131101   3.693   6.048   5.957 -1.3778  0.5464  0.0380
10386TIP3    H231102   3.639   6.162   6.040  0.4826  0.0310  2.0089
10387TIP3   OH231103   6.581   1.966   4.841 -0.4935 -0.6914  0.2651
10387TIP3    H131104   6.573   1.944   4.933  3.2361 -2.4144  0.2739
10387TIP3    H231105   6.547   1.889   4.794  1.1793 -1.4384  0.2493
10388TIP3   OH231106   5.498   1.605   6.769  0.8653 -0.1435  0.4068
10388TIP3    H131107   5.458   1.519   6.762 -1.5088  0.9994 -0.7321
10388TIP3    H231108   5.541   1.606   6.854  1.1666 -2.5426  0.2950
10389TIP3   OH231109   6.948   6.492   1.512 -0.3325  0.0063  0.2145
10389TIP3    H131110   6.881   6.530   1.454 -0.4727 -1.1565 -0.3935
10389TIP3    H231111   6.997   6.568   1.543 -1.1571  0.7729 -0.3081
10390TIP3   OH231112   3.988   2.857   4.929  0.4383  0.8287 -0.2281
10390TIP3    H131113   4.024   2.839   4.842 -1.8598 -2.2602 -0.6087
10390TIP3    H231114   3.998   2.775   4.977 -1.5500  1.4005  1.2400
10391TIP3   OH231115   1.430   5.174   2.009  0.2738 -0.5583 -0.0233
10391TIP3    H131116   1.400   5.106   2.070 -0.5138 -0.4670 -0.3027
10391TIP3    H231117   1.491   5.128   1.951 -0.7788 -1.2003 -0.6464
10392TIP3   OH231118   4.512   3.400   5.189 -0.5630 -0.0228  0.1240
10392TIP3    H131119   4.518   3.320   5.241 -0.6294  0.5368  1.0011
10392TIP3    H231120   4.471   3.372   5.107 -2.4119 -0.5337  1.1922
10393TIP3   OH231121   3.133   3.244   6.465 -0.1973  0.4103  0.3040
10393TIP3    H131122   3.113   3.318   6.522  0.3374 -0.0182  1.0554
10393TIP3    H231123   3.048   3.208   6.441 -0.4288  0.5794  0.8597
10394TIP3   OH231124   6.557   3.746   5.311  0.3252  0.0899 -0.2282
10394TIP3    H131125   6.649   3.773   5.312  0.2606  0.3821 -1.4483
10394TIP3    H231126   6.520   3.791   5.236 -1.1243  0.9365  0.9628
10395TIP3   OH231127   4.647   3.799   6.300 -0.3201 -0.0361 -0.3513
10395TIP3    H131128   4.640   3.882   6.348  1.9981  0.7249 -1.2364
10395TIP3    H231129   4.695   3.741   6.359  0.9094  0.3087 -1.0000
10396TIP3   OH231130   2.467   5.828   1.447  0.0650 -0.0483 -0.3144
10396TIP3    H131131   2.516   5.877   1.382 -0.1573 -1.0866 -1.2812
10396TIP3    H231132   2.474   5.737   1.419  2.0645 -0.8052  2.4895
10397TIP3   OH231133   5.497   0.842   4.501 -0.5707  0.1403 -0.3627
10397TIP3    H131134   5.485   0.781   4.428 -0.5292  1.2929 -1.3449
10397TIP3    H231135   5.417   0.833   4.553 -0.2770 -1.2276 -0.1429
10398TIP3   OH231136   1.786   7.888   5.899 -0.2667 -0.1832 -0.0762
10398TIP3    H131137   1.878   7.868   5.916 -0.2315  0.1472  0.1322
10398TIP3    H231138   1.764   7.836   5.822  0.1538 -0.1135 -0.2466
10399TIP3   OH231139   5.910   3.214   5.854  0.1312  0.6846  0.5562
10399TIP3    H131140   5.859   3.280   5.901  2.5287  1.9380  1.4643
10399TIP3    H231141   5.933   3.256   5.771  1.1825  0.8168  0.9018
10400TIP3   OH231142   0.050   6.233   1.869 -0.0630  0.3957 -0.1507
10400TIP3    H131143   0.067   6.180   1.947 -0.9527 -0.3819 -0.4676
10400TIP3    H231144   0.050   6.323   1.900 -0.4222  0.0876  0.7526
10401TIP3   OH231145   4.696   3.695   4.340 -0.0033  0.5770  0.5317
10401TIP3    H131146   4.625   3.634   4.320 -1.2053  1.8823  0.7118
10401TIP3    H231147   4.747   3.700   4.260  0.4155 -1.0333  0.6651
10402TIP3   OH231148   2.868   7.963   6.161 -0.2367 -0.1689  1.2154
10402TIP3    H131149   2.927   8.029   6.124  0.9940  0.0900  3.5586
10402TIP3    H231150   2.783   7.982   6.121  0.6470  1.2620 -0.0265
10403TIP3   OH231151   7.758   3.708   2.284  0.3828  0.4758  0.0182
10403TIP3    H131152   7.767   3.702   2.189  1.4959 -1.2192  0.2173
10403TIP3    H231153   7.828   3.652   2.319 -0.7145  0.1779  1.8139
10404TIP3   OH231154   2.685   0.127   0.071 -0.0418 -0.4083  0.2612
10404TIP3    H131155   2.647   0.198   0.123 -0.6260 -0.8864  0.4971
10404TIP3    H231156   2.660   0.146  -0.019  2.4646  1.3906 -0.1135
10405TIP3   OH231157   4.402   3.218   6.607 -0.0877 -0.0203  0.1436
10405TIP3    H131158   4.357   3.274   6.671 -1.1146  1.2529 -1.6508
10405TIP3    H231159   4.343   3.143   6.596 -0.7693  0.6096 -0.5947
10406TIP3   OH231160   5.936   2.221   5.004 -0.0576  0.3499 -0.0103
10406TIP3    H131161   5.892   2.212   4.920  1.4432  1.9233 -0.9973
10406TIP3    H231162   6.015   2.271   4.985  0.9906 -0.4169  2.1093
10407TIP3   OH231163   2.784   7.328   5.139 -0.0337  0.4740  0.1222
10407TIP3    H131164   2.814   7.346   5.228  0.0720 -3.8393  1.0749
10407TIP3    H231165   2.707   7.383   5.128  1.7269  3.3490  1.7336
10408TIP3   OH231166   4.177   4.316   5.069 -0.2453 -0.2913 -0.2805
10408TIP3    H131167   4.117   4.374   5.023 -1.5065  1.6901  3.6359
10408TIP3    H231168   4.255   4.369   5.085 -1.3787  0.4136  3.2638
10409TIP3   OH231169   6.310   1.295   6.395  0.0864 -0.3756  0.0853
10409TIP3    H131170   6.336   1.371   6.447  0.5890 -1.2518  1.1338
10409TIP3    H231171   6.258   1.242   6.456 -3.7036  1.0381 -1.7474
10410TIP3   OH231172   0.593   7.681   0.134 -0.1635 -0.7051 -0.4229
10410TIP3    H131173   0.656   7.646   0.197 -0.4555 -0.4858 -0.0072
10410TIP3    H231174   0.633   7.762   0.103 -1.1571  0.5279  1.3869
10411TIP3   OH231175   5.141   2.113   4.804 -0.4607 -0.4641 -0.0376
10411TIP3    H131176   5.223   2.162   4.808  0.2792 -1.7490  0.9958
10411TIP3    H231177   5.132   2.086   4.713 -0.5721  1.0588 -0.4891
10412TIP3   OH231178   7.442   2.152   6.101 -0.5304 -0.1125  0.4324
10412TIP3    H131179   7.430   2.073   6.153 -0.5255 -0.6974 -0.4298
10412TIP3    H231180   7.513   2.130   6.041 -0.4193  0.6049  0.2964
10413TIP3   OH231181   1.271   5.711   1.403  0.0455 -0.4287 -0.1961
10413TIP3    H131182   1.274   5.667   1.488  0.4866 -0.3548 -0.1693
10413TIP3    H231183   1.354   5.687   1.361 -0.4240 -0.9383 -0.8422
10414TIP3   OH231184   6.261   2.820   6.016  0.4070  0.1714  0.4426
10414TIP3    H131185   6.171   2.843   6.040  0.6033  0.5441  0.8236
10414TIP3    H231186   6.285   2.751   6.078  1.1428  1.5831  1.7645
10415TIP3   OH231187   4.733   3.005   4.725  0.6630  0.2002 -0.0760
10415TIP3    H131188   4.673   2.941   4.689  1.0814 -0.6752  0.7803
10415TIP3    H231189   4.819   2.962   4.722  0.8079  0.3824  1.3115
10416TIP3   OH231190   4.830   1.303   5.580 -0.0687 -0.0381  0.1919
10416TIP3    H131191   4.752   1.358   5.573 -1.6179 -2.3861 -1.4502
10416TIP3    H231192   4.876   1.317   5.498 -0.0654 -0.5983  0.0976
10417TIP3   OH231193   5.752   2.932   4.391 -0.2593 -0.6113  0.0456
10417TIP3    H131194   5.665   2.909   4.357 -1.0878  3.7069 -1.0970
10417TIP3    H231195   5.736   2.953   4.483 -0.0486 -1.6585  0.3265
10418TIP3   OH231196   1.948   5.963   0.049  0.0588 -0.7331 -0.5641
10418TIP3    H131197   1.942   5.910   0.128  0.2551 -1.4495 -1.0257
10418TIP3    H231198   1.858   5.966   0.015 -0.4094  1.2456  0.7520
10419TIP3   OH231199   7.064   3.413   4.634 -0.1417 -0.3162 -0.6068
10419TIP3    H131200   7.103   3.491   4.674 -1.5639 -0.8384  1.9309
10419TIP3    H231201   6.970   3.421   4.653 -0.7650 -1.0194 -3.1921
10420TIP3   OH231202   5.119   2.394   6.698  0.0024 -0.0587 -0.1971
10420TIP3    H131203   5.118   2.379   6.604  0.2814  1.9854 -0.5507
10420TIP3    H231204   5.034   2.434   6.717  0.1864  0.1035  0.2971
10421TIP3   OH231205   5.129   1.866   6.187 -0.1660  0.2895  0.0357
10421TIP3    H131206   5.092   1.862   6.275  1.0647  0.2681  0.5580
10421TIP3    H231207   5.200   1.802   6.188 -0.6529 -0.2928 -1.2179
10422TIP3   OH231208   6.558   6.646   0.103  0.1426 -0.7446  0.1602
10422TIP3    H131209   6.525   6.556   0.101  0.2287 -0.7644 -0.4810
10422TIP3    H231210   6.575   6.668   0.012 -0.5008  0.1545  0.2486
10423TIP3   OH231211   2.537   2.604   6.519  0.3016 -0.3285  0.2603
10423TIP3    H131212   2.447   2.587   6.491  0.5181 -0.0794 -0.6028
10423TIP3    H231213   2.536   2.587   6.614 -0.8483  0.4543  0.4082
10424TIP3   OH231214   4.992   3.196   4.327 -0.4384  0.1131 -0.2247
10424TIP3    H131215   5.022   3.136   4.259 -2.2021  1.1870 -1.9976
10424TIP3    H231216   4.897   3.201   4.315 -0.4542  2.4201  0.5672
10425TIP3   OH231217   7.049   6.171   1.254  0.2558  0.0537 -0.1963
10425TIP3    H131218   6.972   6.126   1.289  0.8894 -0.5412  0.4648
10425TIP3    H231219   7.014   6.233   1.191 -0.9328  1.2154  1.5471
10426TIP3   OH231220   5.675   2.025   6.010  0.9406  0.2199  0.0402
10426TIP3    H131221   5.591   2.070   6.005  1.2363  0.8113  0.3975
10426TIP3    H231222   5.691   2.012   6.104  1.4250  0.4400 -0.0078
10427TIP3   OH231223   6.972   7.488   0.369 -0.1285 -0.0453 -0.1788
10427TIP3    H131224   6.883   7.460   0.390 -0.0972 -0.3251 -0.4204
10427TIP3    H231225   6.977   7.578   0.403  0.1094 -0.6825  1.5617
10428TIP3   OH231226   5.073   1.130   5.583  0.3280 -0.4878  0.1814
10428TIP3    H131227   5.101   1.112   5.493  1.2060  1.0386  0.1345
10428TIP3    H231228   5.015   1.206   5.575 -0.1844 -0.8113  0.8199
10429TIP3   OH231229   7.164   6.022   0.667  0.0062  0.2035  0.3474
10429TIP3    H131230   7.137   6.029   0.759 -2.4261 -0.0836 -0.3060
10429TIP3    H231231   7.143   6.108   0.630 -1.6785 -0.6058 -0.5983
10430TIP3   OH231232   5.187  -0.015   5.206 -0.1972 -0.1902 -0.2561
10430TIP3    H131233   5.249   0.057   5.213 -1.5465  0.9993 -0.2142
10430TIP3    H231234   5.120   0.005   5.271 -1.1529 -0.9118 -1.0033
10431TIP3   OH231235   5.411   2.276   5.716  0.3249 -0.2381 -0.4360
10431TIP3    H131236   5.489   2.266   5.662  0.8450 -1.0760  0.4466
10431TIP3    H231237   5.338   2.268   5.655  0.8699 -2.6298 -0.8437
10432TIP3   OH231238   7.486   3.990   4.925 -0.0975  0.1908  0.3452
10432TIP3    H131239   7.491   4.080   4.957 -2.1110  0.3023  0.3773
10432TIP3    H231240   7.541   3.940   4.985 -0.8569  1.0181  1.7364
10433TIP3   OH231241   6.623   1.549   5.692 -0.2214  0.2136 -0.2732
10433TIP3    H131242   6.717   1.560   5.676  0.3277 -2.4065  0.8990
10433TIP3    H231243   6.596   1.630   5.735  1.8897  0.2316  1.0538
10434TIP3   OH231244   8.304   5.891   0.419 -0.0562 -0.4325 -0.2483
10434TIP3    H131245   8.375   5.835   0.450  0.6214 -0.6932 -2.2178
10434TIP3    H231246   8.319   5.900   0.325 -2.0431  0.3531 -0.5280
10435TIP3   OH231247   1.158   7.013   0.401  1.0175 -0.1516  0.1953
10435TIP3    H131248   1.188   7.064   0.326  1.9027 -1.4491 -0.3417
10435TIP3    H231249   1.067   7.040   0.413  0.6274 -0.5038 -1.8168
10436TIP3   OH231250   5.506   2.772   5.188  0.3732 -0.2217 -0.3976
10436TIP3    H131251   5.518   2.678   5.181  1.6203 -0.2439  1.7415
10436TIP3    H231252   5.455   2.784   5.268  1.0090  0.9554 -0.1529
10437TIP3   OH231253   5.173   4.855   6.370 -0.2445  0.1181  0.2566
10437TIP3    H131254   5.102   4.808   6.327  0.5268 -1.8268  1.0813
10437TIP3    H231255   5.176   4.820   6.459  1.3036  0.6679  0.4424
10438TIP3   OH231256   4.443   3.321   4.938  0.4277  0.2510  0.0894
10438TIP3    H131257   4.518   3.368   4.901  0.5123 -0.4204 -0.5892
10438TIP3    H231258   4.405   3.275   4.864  1.6174 -2.5245  1.1404
10439TIP3   OH231259   5.162   1.799   5.437  1.2974  0.0629  0.0177
10439TIP3    H131260   5.238   1.808   5.381  1.6064  2.7178  0.8004
10439TIP3    H231261   5.195   1.815   5.526 -0.2652  1.9483  0.2957
10440TIP3   OH231262   5.529   4.102   5.410 -0.3949 -0.0424 -0.4821
10440TIP3    H131263   5.584   4.164   5.458 -1.8782  0.4682  0.5941
10440TIP3    H231264   5.453   4.089   5.467  0.0311 -3.0882 -0.5460
10441TIP3   OH231265   7.274   1.541   6.469 -0.9073  0.1516 -0.1891
10441TIP3    H131266   7.199   1.595   6.495 -0.6501  0.4167 -0.0046
10441TIP3    H231267   7.343   1.564   6.531  0.0108  1.4982 -1.7027
10442TIP3   OH231268   4.039   2.610   5.107 -0.2021 -0.4968  0.3449
10442TIP3    H131269   4.119   2.664   5.108 -0.5454  0.0230  0.1189
10442TIP3    H231270   4.069   2.522   5.131  0.6566 -0.5922 -1.0115
10443TIP3   OH231271   4.385   0.893   6.888 -0.0199 -0.4806 -0.3118
10443TIP3    H131272   4.320   0.884   6.958 -0.4111  0.3820 -0.5557
10443TIP3    H231273   4.349   0.960   6.831  1.2009  0.1643 -0.3279
10444TIP3   OH231274   0.632   6.534   0.118  0.3638 -0.0896 -0.0423
10444TIP3    H131275   0.649   6.456   0.171  0.0821  0.0136  0.1972
10444TIP3    H231276   0.600   6.599   0.180 -0.4477 -0.1228 -0.4166
10445TIP3   OH231277   4.897   3.034   5.976 -0.7468  0.2640  0.1361
10445TIP3    H131278   4.838   2.992   5.913 -0.2250 -0.2327 -0.0302
10445TIP3    H231279   4.973   3.059   5.924  1.1163 -3.0727  1.1307
10446TIP3   OH231280   4.056   3.249   4.522  0.5337  0.1262  0.0498
10446TIP3    H131281   4.052   3.332   4.474 -1.6540  0.8027  1.3438
10446TIP3    H231282   3.965   3.221   4.529  1.1814 -1.9696  0.3663
10447TIP3   OH231283   5.010   4.055   5.172  0.5667 -0.4490 -0.0530
10447TIP3    H131284   4.987   4.017   5.088  0.0977  0.3630 -0.3011
10447TIP3    H231285   4.934   4.109   5.195 -0.2255 -2.3284  1.8968
10448TIP3   OH231286   2.418   5.851   4.264  0.0859 -0.2362  0.3439
10448TIP3    H131287   2.334   5.872   4.304 -1.0672 -1.0496 -1.6133
10448TIP3    H231288   2.420   5.903   4.183 -0.6094 -3.7482 -2.0122
10449TIP3   OH231289   5.065   1.881   6.452 -0.2793  0.7962 -0.4617
10449TIP3    H131290   4.972   1.904   6.450 -1.1664 -2.3274  1.1688
10449TIP3    H231291   5.095   1.909   6.538  0.0732  1.0154 -0.6549
10450TIP3   OH231292   5.033   0.866   5.645 -0.7947 -0.4717 -0.0503
10450TIP3    H131293   5.120   0.842   5.676 -0.6283 -1.5423 -1.3331
10450TIP3    H231294   5.035   0.962   5.640 -0.0802 -0.4207  1.0276
10451TIP3   OH231295   6.071   3.064   5.081 -0.2372  0.5299  0.2176
10451TIP3    H131296   6.162   3.082   5.056  0.3227  1.1932  2.6160
10451TIP3    H231297   6.042   2.999   5.017  2.0515  0.0081 -0.3692
10452TIP3   OH231298   1.435   5.988   1.067 -0.2322 -0.0453  0.4351
10452TIP3    H131299   1.405   6.066   1.115 -0.5219  0.9032 -1.2427
10452TIP3    H231300   1.462   6.022   0.982 -0.0120 -1.7518 -0.1854
10453TIP3   OH231301   2.818   5.070   6.529 -0.1404  0.5398  0.2735
10453TIP3    H131302   2.777   4.983   6.531 -0.9768  0.8759 -1.2564
10453TIP3    H231303   2.850   5.084   6.618 -0.1424 -1.2696  0.5639
10454TIP3   OH231304   4.471   4.220   5.143 -0.4611  0.1900 -0.1041
10454TIP3    H131305   4.566   4.227   5.157 -0.3529  1.5687 -1.4611
10454TIP3    H231306   4.448   4.298   5.092 -2.5550  0.5748  1.3584
10455TIP3   OH231307   8.347   6.423   0.333 -0.6320 -0.1575 -0.2549
10455TIP3    H131308   8.409   6.495   0.325  0.7522 -1.2367  0.5210
10455TIP3    H231309   8.341   6.406   0.427 -3.4636  1.0665 -0.1681
10456TIP3   OH231310   4.455   2.998   5.651  0.1367 -0.1153  0.2565
10456TIP3    H131311   4.377   3.016   5.703 -0.0568  1.0481 -0.4218
10456TIP3    H231312   4.521   2.971   5.715 -0.2564  0.7799  1.0407
10457TIP3   OH231313   5.440   5.717   6.854  0.3292 -0.2791  0.0196
10457TIP3    H131314   5.532   5.738   6.873  0.0901  1.2827 -0.4588
10457TIP3    H231315   5.434   5.724   6.759 -0.2259 -0.6227  0.0322
10458TIP3   OH231316   0.549   0.150   0.192  0.1667  0.2997 -0.5238
10458TIP3    H131317   0.487   0.080   0.208 -0.5981  0.9648 -0.5288
10458TIP3    H231318   0.496   0.223   0.160  0.6615  1.5960  1.4986
10459TIP3   OH231319   8.387   6.586   0.676  0.3530  0.1300 -0.0444
10459TIP3    H131320   8.324   6.654   0.653  0.3120  0.3874  0.8020
10459TIP3    H231321   8.358   6.554   0.761  1.8260  0.8399  0.7493
10460TIP3   OH231322   7.370   7.704   0.032  0.8975 -0.1660  0.3606
10460TIP3    H131323   7.287   7.729   0.074  0.7606  0.7676 -0.4342
10460TIP3    H231324   7.397   7.624   0.076  0.2669  0.2827  1.5664
10461TIP3   OH231325   4.494   4.739   6.333  0.2140 -0.6840 -0.0493
10461TIP3    H131326   4.539   4.656   6.315 -0.7278 -0.9339 -1.3836
10461TIP3    H231327   4.540   4.803   6.278 -0.3586 -0.7325 -0.5940
10462TIP3   OH231328   4.337   1.618   4.696 -0.9619  0.4298  0.0782
10462TIP3    H131329   4.302   1.624   4.607 -0.2867  0.7648 -0.1642
10462TIP3    H231330   4.279   1.556   4.740 -2.1026  1.2764 -0.2128
10463TIP3   OH231331   0.287   5.987   2.329 -0.2995 -0.2540 -0.2013
10463TIP3    H131332   0.328   6.016   2.411 -0.6283  1.0226 -0.4807
10463TIP3    H231333   0.305   5.893   2.326  0.6067 -0.1302  0.8256
10464TIP3   OH231334   3.785   1.050   5.257 -0.4119  0.4593  0.7271
10464TIP3    H131335   3.711   1.017   5.206  0.2595  1.6658 -1.0826
10464TIP3    H231336   3.840   0.973   5.271 -0.3689  0.1868 -0.8039
10465TIP3   OH231337   7.237   6.463   0.059  0.3271 -0.0080 -0.1475
10465TIP3    H131338   7.177   6.399   0.018  0.4024 -0.5186  0.5297
10465TIP3    H231339   7.324   6.426   0.044  0.2872 -0.8253  1.5224
10466TIP3   OH231340   0.340   5.190   2.151 -0.0164 -0.5300  0.2242
10466TIP3    H131341   0.327   5.144   2.068  0.4840 -1.0719  0.4424
10466TIP3    H231342   0.424   5.157   2.183 -1.2142 -1.9726  2.0000
10467TIP3   OH231343   3.881   2.886   5.272 -0.6732 -0.5676 -0.2587
10467TIP3    H131344   3.944   2.903   5.341 -1.0858  0.0601 -0.0378
10467TIP3    H231345   3.907   2.943   5.200 -0.7784 -0.5637 -0.2946
10468TIP3   OH231346   5.634   3.411   6.530 -0.1408  0.7013  0.5697
10468TIP3    H131347   5.698   3.481   6.517 -1.2677  1.2224 -2.5697
10468TIP3    H231348   5.686   3.330   6.528  0.4526  1.1159 -1.9576
10469TIP3   OH231349   4.282   2.342   4.545  0.3239 -0.1141 -0.4467
10469TIP3    H131350   4.220   2.385   4.604  1.3772  1.9848 -0.8429
10469TIP3    H231351   4.332   2.283   4.602 -1.0391 -0.7556  0.1178
10470TIP3   OH231352   7.001   0.635   6.618  0.4139 -0.0076 -0.2335
10470TIP3    H131353   6.967   0.598   6.536  2.5193  0.1542 -1.2005
10470TIP3    H231354   7.093   0.611   6.619  0.7647  1.3140  1.3590
10471TIP3   OH231355   3.956   0.797   5.563  0.5113  0.7487 -0.0378
10471TIP3    H131356   4.016   0.757   5.500 -0.5965 -1.5422  0.3274
10471TIP3    H231357   4.010   0.814   5.640  0.9817 -0.1519 -0.1628
10472TIP3   OH231358   8.339   4.976   0.218 -0.2723  0.0526 -0.1878
10472TIP3    H131359   8.338   5.046   0.283 -0.2774 -0.2167  0.1023
10472TIP3    H231360   8.386   4.904   0.260  0.8243  0.3191 -0.9479
10473TIP3   OH231361   6.743   1.576   6.681 -0.1125  0.0455  0.7052
10473TIP3    H131362   6.743   1.643   6.749 -1.9316  1.7363 -0.8951
10473TIP3    H231363   6.651   1.552   6.671  0.3099 -1.2953 -0.1121
10474TIP3   OH231364   5.632   3.826   4.901 -0.3824  0.6797  0.4688
10474TIP3    H131365   5.568   3.831   4.972 -0.7915  0.8714  0.0833
10474TIP3    H231366   5.591   3.770   4.836 -0.7982  2.0489 -0.4561
10475TIP3   OH231367   6.410   7.727   0.121  0.4135  0.2353 -0.1800
10475TIP3    H131368   6.504   7.737   0.139  0.7323  0.8347 -2.1253
10475TIP3    H231369   6.381   7.815   0.098 -0.2077 -0.3142 -1.5343
10476TIP3   OH231370   5.068   1.514   6.810  0.4509 -0.4430  0.2370
10476TIP3    H131371   5.004   1.577   6.777  0.4149 -0.7854 -0.3543
10476TIP3    H231372   5.040   1.496   6.899  1.4661  1.7136  1.0302
10477TIP3   OH231373   4.459   3.822   5.762 -0.2360 -0.4709 -0.1484
10477TIP3    H131374   4.554   3.809   5.761 -0.3128 -1.7765  3.2237
10477TIP3    H231375   4.424   3.746   5.716  0.3473  0.3921 -2.0711
10478TIP3   OH231376   5.292   0.772   5.835 -0.3226  0.1434 -0.0504
10478TIP3    H131377   5.375   0.788   5.879 -0.0548  0.2239 -0.5825
10478TIP3    H231378   5.310   0.698   5.777 -0.7090 -0.0458  0.0720
10479TIP3   OH231379   6.431   4.305   6.816  0.5800 -0.1858  0.0963
10479TIP3    H131380   6.498   4.309   6.884  1.5525 -1.7411 -0.7457
10479TIP3    H231381   6.474   4.338   6.737  0.0996 -0.3742 -0.2515
10480TIP3   OH231382   6.854   4.628   3.255  0.5426  0.3526 -0.1290
10480TIP3    H131383   6.946   4.653   3.247  0.3586  0.6779 -1.3172
10480TIP3    H231384   6.810   4.707   3.286  0.6251  0.2397  0.2898
10481TIP3   OH231385   7.898   7.829   0.354  0.3129 -0.0683 -0.7021
10481TIP3    H131386   7.952   7.892   0.401  0.4551 -1.1043  0.5710
10481TIP3    H231387   7.952   7.802   0.279 -0.1488  2.0351 -1.8135
10482TIP3   OH231388   4.368   2.760   5.079 -0.0491  0.8440  0.5585
10482TIP3    H131389   4.460   2.785   5.079 -0.1629  1.2995  1.2872
10482TIP3    H231390   4.320   2.842   5.070 -0.3910  0.6579  0.6476
10483TIP3   OH231391   3.858   1.559   5.864 -0.3367  0.2000 -0.2792
10483TIP3    H131392   3.924   1.567   5.933  0.8564  1.9636 -1.5709
10483TIP3    H231393   3.907   1.534   5.786 -1.2045  1.2622 -1.1966
10484TIP3   OH231394   2.792   3.037   4.747 -0.9242 -0.1883 -0.0775
10484TIP3    H131395   2.764   3.002   4.662  0.7745  0.4925 -0.9282
10484TIP3    H231396   2.886   3.050   4.738 -0.1552 -2.9822  2.9518
10485TIP3   OH231397   5.998   2.222   6.761  0.0840 -0.1810  0.1003
10485TIP3    H131398   5.932   2.178   6.708 -1.0894  1.2600  0.2984
10485TIP3    H231399   5.986   2.186   6.849 -0.0375 -0.3472  0.0157
10486TIP3   OH231400   4.262   3.338   5.412  0.1326 -0.1503 -0.1864
10486TIP3    H131401   4.211   3.268   5.373 -2.1918  1.9723 -1.1363
10486TIP3    H231402   4.301   3.384   5.337  0.6918  0.2705  0.3561
10487TIP3   OH231403   0.367   6.020   0.555  0.0479  0.0635  0.3610
10487TIP3    H131404   0.368   5.931   0.520  0.6132  0.1470  0.1661
10487TIP3    H231405   0.331   6.073   0.483  2.7248  0.4928 -0.7324
10488TIP3   OH231406   5.043   2.543   5.517 -0.1704  0.1955 -0.1281
10488TIP3    H131407   5.135   2.526   5.498  0.3312  1.5361  1.0459
10488TIP3    H231408   4.999   2.536   5.432  1.4016  2.0602 -1.1379
10489TIP3   OH231409   6.009   4.240   6.908 -0.1344 -0.2533 -0.0480
10489TIP3    H131410   5.955   4.167   6.940 -0.6411  0.0737 -0.1568
10489TIP3    H231411   5.969   4.318   6.946  0.3508 -0.0199 -0.0133
10490TIP3   OH231412   4.430   1.715   0.168 -0.0636  0.1315  0.0392
10490TIP3    H131413   4.472   1.654   0.229  2.9410  0.5513 -1.5534
10490TIP3    H231414   4.501   1.747   0.112 -2.3026  1.8179 -1.9488
10491TIP3   OH231415   1.674   5.628   0.230  0.5678  0.3501  0.7158
10491TIP3    H131416   1.635   5.686   0.296  0.5544 -1.0300  1.9736
10491TIP3    H231417   1.741   5.681   0.187 -1.1563  2.0557  0.0902
10492TIP3   OH231418   5.593   3.105   4.092  0.0637  0.1779 -0.2985
10492TIP3    H131419   5.660   3.052   4.049  0.3901 -0.5874  1.1368
10492TIP3    H231420   5.632   3.192   4.098  0.9036 -0.2411  0.4432
10493TIP3   OH231421   6.073   2.613   6.400 -0.5876 -0.3587  0.0492
10493TIP3    H131422   6.097   2.614   6.492 -1.4720  0.7689  0.2747
10493TIP3    H231423   6.144   2.565   6.357 -0.1637 -0.8674  1.3040
10494TIP3   OH231424   4.712   1.820   6.085 -0.6345  0.1029 -0.0516
10494TIP3    H131425   4.794   1.781   6.115 -0.3777 -0.4998 -1.4661
10494TIP3    H231426   4.661   1.835   6.164  0.2802 -0.8161  0.7158
10495TIP3   OH231427   2.724   2.876   5.628 -0.0229  0.0167  0.1953
10495TIP3    H131428   2.778   2.857   5.551  1.4478 -0.2404  1.2806
10495TIP3    H231429   2.767   2.949   5.671 -1.2245  0.6038  0.4298
10496TIP3   OH231430   7.480   5.040   0.336  0.2439  0.0125 -0.5341
10496TIP3    H131431   7.395   5.059   0.377  0.6197  1.1074 -0.2585
10496TIP3    H231432   7.518   4.972   0.391  0.9702  1.8298  1.2641
10497TIP3   OH231433   0.562   4.992   1.981 -0.1714  0.7897  0.6887
10497TIP3    H131434   0.628   4.995   1.911 -0.6269 -1.8808  0.0515
10497TIP3    H231435   0.480   4.975   1.935 -0.8568  1.3436  1.6952
10498TIP3   OH231436   4.934   0.563   6.943  0.1447 -0.2514  0.0838
10498TIP3    H131437   4.943   0.590   6.852 -0.5670  1.4929  0.5012
10498TIP3    H231438   5.018   0.523   6.965  0.7110  0.3035 -1.0144
10499TIP3   OH231439   6.313   0.780   6.538 -0.1139 -0.2418 -0.1520
10499TIP3    H131440   6.399   0.742   6.556  1.3976  3.0149 -0.1848
10499TIP3    H231441   6.310   0.789   6.442 -0.6095 -0.5961 -0.1737
10500TIP3   OH231442   7.237   4.811   0.307 -0.0185 -0.6800  0.0781
10500TIP3    H131443   7.245   4.740   0.243 -1.9808 -1.0357  0.2068
10500TIP3    H231444   7.155   4.855   0.283  1.1760  1.5581 -0.0061
10501TIP3   OH231445   5.558   2.149   5.536  0.1550 -0.4547 -0.3919
10501TIP3    H131446   5.549   2.182   5.446 -0.8201 -0.3909 -0.2840
10501TIP3    H231447   5.644   2.178   5.564 -0.2147  1.0150 -0.7203
10502TIP3   OH231448   4.966   1.809   4.571  0.0406 -0.2112 -0.0507
10502TIP3    H131449   5.002   1.772   4.491 -0.1300  0.2703 -0.3505
10502TIP3    H231450   4.950   1.733   4.628 -2.2628 -0.8021 -1.4375
10503TIP3   OH231451   2.048   2.705   5.708 -0.4133 -0.1792 -0.4904
10503TIP3    H131452   2.086   2.755   5.781 -1.3903  0.8749 -0.6966
10503TIP3    H231453   1.985   2.646   5.749 -0.3363 -0.1951 -0.3950
10504TIP3   OH231454   0.584   4.429   0.090  0.2777 -0.5335  0.5484
10504TIP3    H131455   0.562   4.404   0.001 -0.9834  1.8274  0.1819
10504TIP3    H231456   0.515   4.391   0.144  0.0514 -0.4300  0.3295
10505TIP3   OH231457   6.872   2.249   5.347  0.6376  0.1089  0.0513
10505TIP3    H131458   6.880   2.183   5.416 -0.4233 -0.4259 -0.3329
10505TIP3    H231459   6.896   2.331   5.389 -2.1216  0.1418  1.6379
10506TIP3   OH231460   0.150   6.657   0.684  0.1158 -0.5658 -0.2069
10506TIP3    H131461   0.210   6.590   0.716  0.1891 -0.1001  0.6317
10506TIP3    H231462   0.064   6.615   0.683  0.2681 -0.8765 -0.3288
10507TIP3   OH231463   1.400   1.508   4.525 -0.2976 -0.2913  0.2481
10507TIP3    H131464   1.471   1.444   4.533  0.9884  1.3869  2.9683
10507TIP3    H231465   1.359   1.509   4.612 -2.0849  0.5530 -0.5858
10508TIP3   OH231466   3.223   2.331   5.374 -0.4645  0.1431  0.5329
10508TIP3    H131467   3.311   2.299   5.396 -0.4474  0.4095  0.8643
10508TIP3    H231468   3.223   2.422   5.405 -1.6772 -0.5853  2.7583
10509TIP3   OH231469   4.694   3.930   5.129 -0.6147  0.1775 -0.0923
10509TIP3    H131470   4.625   3.953   5.067 -0.0232  1.8256 -0.1570
10509TIP3    H231471   4.696   4.002   5.192  0.3534 -0.3553  0.5049
10510TIP3   OH231472   2.944   7.947   4.847  0.1422 -0.5626 -0.2181
10510TIP3    H131473   2.858   7.948   4.890 -0.8058  0.6636 -2.0841
10510TIP3    H231474   2.938   7.875   4.784 -0.6656  1.4550 -2.5259
10511TIP3   OH231475   4.166   2.424   5.862  0.2058  0.1024  0.1115
10511TIP3    H131476   4.114   2.496   5.895 -0.0645  0.0017 -0.0882
10511TIP3    H231477   4.229   2.405   5.931  0.0068  0.2575  0.3338
10512TIP3   OH231478   4.692   3.577   6.459 -0.4770  0.4616  0.3247
10512TIP3    H131479   4.618   3.567   6.519 -0.3053 -0.9017  0.3271
10512TIP3    H231480   4.684   3.503   6.399  0.1957  0.9958 -0.4368
10513TIP3   OH231481   4.814   5.472   5.527  0.1316 -0.2200 -0.8865
10513TIP3    H131482   4.741   5.502   5.474 -0.3207  1.3937  0.6251
10513TIP3    H231483   4.864   5.551   5.547 -0.4716 -0.5666  2.2297
10514TIP3   OH231484   3.353   4.731   4.960  0.3634  0.0195 -0.1077
10514TIP3    H131485   3.406   4.804   4.992 -0.1136  0.3047  0.0327
10514TIP3    H231486   3.408   4.689   4.894  1.0673 -0.1401  0.5709
10515TIP3   OH231487   3.945   3.627   6.923  0.0531 -0.1657 -0.5757
10515TIP3    H131488   4.036   3.604   6.943  0.0650  0.0153 -0.4271
10515TIP3    H231489   3.951   3.680   6.843  0.2855  1.7622  0.6783
10516TIP3   OH231490   6.319   1.821   4.185 -0.0510  0.7403 -0.4655
10516TIP3    H131491   6.248   1.806   4.248  0.0432  1.9600 -0.0566
10516TIP3    H231492   6.301   1.759   4.114 -1.5297  1.0195 -0.3669
10517TIP3   OH231493   6.160   6.817   1.396  0.4413 -0.1467  0.3593
10517TIP3    H131494   6.148   6.764   1.317 -0.8278  0.2369  0.2749
10517TIP3    H231495   6.095   6.783   1.458 -1.3868  2.2283 -0.1865
10518TIP3   OH231496   4.010   2.696   3.565 -0.1884  0.0785 -0.6244
10518TIP3    H131497   3.953   2.764   3.529 -0.5909 -0.2815 -0.6764
10518TIP3    H231498   4.024   2.636   3.492 -2.1541 -1.4128  0.1712
10519TIP3   OH231499   5.955   2.953   5.591 -0.1041  0.3351 -0.6334
10519TIP3    H131500   6.044   2.972   5.619 -0.8051  1.9449  0.6180
10519TIP3    H231501   5.935   2.868   5.629  0.3821  0.6590  0.3575
10520TIP3   OH231502   1.803   2.323   1.121  0.6433 -0.1547  0.0369
10520TIP3    H131503   1.774   2.246   1.171  0.4431 -0.8679 -1.1606
10520TIP3    H231504   1.877   2.357   1.171  1.7944 -2.0963 -0.2750
10521TIP3   OH231505   3.358   6.565   0.918 -0.8149 -0.4897 -0.1134
10521TIP3    H131506   3.302   6.503   0.870 -0.6476  0.4547 -1.5303
10521TIP3    H231507   3.361   6.529   1.007  1.1729 -3.8031 -1.4416
10522TIP3   OH231508   5.363   3.456   4.844  0.3040 -0.2550  0.5350
10522TIP3    H131509   5.323   3.481   4.761 -0.3733  2.2330  1.5707
10522TIP3    H231510   5.332   3.366   4.859 -3.1290  0.7947  0.2074
10523TIP3   OH231511   3.333   0.620   6.564  0.0181  0.2039  0.0408
10523TIP3    H131512   3.314   0.535   6.604 -0.4309 -0.1948 -1.0075
10523TIP3    H231513   3.261   0.676   6.592  0.6009  0.4010  1.1834
10524TIP3   OH231514   6.053   1.392   6.842  0.1512  0.0100 -0.0618
10524TIP3    H131515   5.957   1.385   6.842  0.0634  1.0288 -1.5915
10524TIP3    H231516   6.073   1.442   6.921 -0.5520 -0.5177  0.4601
10525TIP3   OH231517   5.632   4.230   5.982 -0.2233  0.0707  0.9539
10525TIP3    H131518   5.598   4.161   6.039  0.9496 -2.0462 -0.8287
10525TIP3    H231519   5.569   4.234   5.909  0.8068 -0.5888  0.0130
10526TIP3   OH231520   4.874   2.491   6.778  0.1440  0.2334 -0.8812
10526TIP3    H131521   4.874   2.514   6.871  2.2534  0.3637 -0.8960
10526TIP3    H231522   4.822   2.559   6.736 -0.3004  0.5199  0.1210
10527TIP3   OH231523   4.728   1.732   5.341  0.8990  0.2423  0.1826
10527TIP3    H131524   4.632   1.729   5.334  0.8526 -2.0363  1.3745
10527TIP3    H231525   4.758   1.669   5.277  1.4853 -0.9311  1.5859
10528TIP3   OH231526   2.833   0.471   0.165  0.2411  0.2816 -0.8725
10528TIP3    H131527   2.775   0.397   0.177 -1.2332  1.1076 -2.6751
10528TIP3    H231528   2.833   0.516   0.249 -3.2039  1.3039 -1.3587
10529TIP3   OH231529   4.725   0.949   6.073 -0.2034 -0.2864 -0.1566
10529TIP3    H131530   4.810   0.993   6.072 -0.3245 -0.0484 -0.1017
10529TIP3    H231531   4.736   0.876   6.133 -0.3366  0.3454  0.6419
10530TIP3   OH231532   6.648   1.452   6.168 -0.1046 -0.0527 -0.0700
10530TIP3    H131533   6.693   1.477   6.088 -0.0980  0.0826 -0.0241
10530TIP3    H231534   6.558   1.434   6.141 -0.3333  0.9017  0.0474
10531TIP3   OH231535   1.417   7.934   2.097  0.1857 -0.2644  0.6557
10531TIP3    H131536   1.485   7.988   2.056  0.6508 -0.4872  1.1338
10531TIP3    H231537   1.448   7.920   2.186 -1.8310  1.9375  1.7204
10532TIP3   OH231538   5.260   1.153   5.871 -0.3487 -0.0737  0.0562
10532TIP3    H131539   5.178   1.199   5.851 -0.6580 -1.0077 -0.9180
10532TIP3    H231540   5.302   1.141   5.785 -0.1308 -1.3155  0.3278
10533TIP3   OH231541   4.660   2.338   6.894 -0.6564 -0.2821  0.4844
10533TIP3    H131542   4.654   2.259   6.947  1.3136 -0.1356  0.9479
10533TIP3    H231543   4.753   2.346   6.873 -1.0177  1.2204 -0.6251
10534TIP3   OH231544   7.856   6.835   1.185  0.3594 -0.1790 -0.1476
10534TIP3    H131545   7.890   6.910   1.136  1.1617 -1.1717 -1.1564
10534TIP3    H231546   7.818   6.873   1.264 -1.0572  1.4768 -1.5731
10535TIP3   OH231547   1.876   5.090   1.011 -0.1746  0.3677 -0.0134
10535TIP3    H131548   1.918   5.086   1.097 -1.4197 -1.3617  0.5332
10535TIP3    H231549   1.820   5.012   1.008 -0.6022  0.7343 -2.1500
10536TIP3   OH231550   5.654   1.247   4.987  0.0666  0.0565 -0.8492
10536TIP3    H131551   5.710   1.241   5.065  1.3606  1.0130 -1.6692
10536TIP3    H231552   5.662   1.162   4.945  1.3752  0.3746 -1.2584
10537TIP3   OH231553   7.162   5.768   0.561  0.1652 -0.5684  0.3766
10537TIP3    H131554   7.235   5.722   0.603  1.8617 -1.4653 -3.3254
10537TIP3    H231555   7.161   5.855   0.601  2.8814 -0.7537  0.8877
10538TIP3   OH231556   7.031   5.298   0.907  0.1606 -0.1357  0.5038
10538TIP3    H131557   6.963   5.242   0.870  0.4377 -0.4004  0.3878
10538TIP3    H231558   7.080   5.240   0.965 -0.2751  0.2777  1.2839
10539TIP3   OH231559   8.338   4.977   2.373  0.2844 -0.4077 -0.0482
10539TIP3    H131560   8.400   4.912   2.341  1.5103  2.0040 -2.8596
10539TIP3    H231561   8.387   5.026   2.440 -0.2846 -1.6541  1.3022
10540TIP3   OH231562   3.419   3.608   6.135 -0.1373  0.0649 -0.3866
10540TIP3    H131563   3.514   3.609   6.129 -0.1140 -1.9683 -0.7733
10540TIP3    H231564   3.393   3.700   6.128  1.8474  0.7442  0.8676
10541TIP3   OH231565   3.941   4.903   4.501  1.6503 -0.3664  0.2882
10541TIP3    H131566   3.884   4.835   4.466  1.0044  0.8986 -1.1669
10541TIP3    H231567   3.896   4.933   4.580  0.5833  0.2001 -0.5187
10542TIP3   OH231568   4.976   2.191   4.251 -0.4563  0.1758  0.1728
10542TIP3    H131569   4.940   2.280   4.253 -0.9968 -0.0459  0.9961
10542TIP3    H231570   5.061   2.199   4.208 -1.1205  0.8602 -1.0296
10543TIP3   OH231571   7.246   7.517   0.284 -0.1234 -0.2509  0.1103
10543TIP3    H131572   7.173   7.497   0.341  0.7130 -0.5980  1.0780
10543TIP3    H231573   7.273   7.606   0.309  2.1252 -1.5021  2.3562
10544TIP3   OH231574   5.787   3.087   5.061  0.0823  0.4547  0.1393
10544TIP3    H131575   5.749   3.053   5.142  0.2302  0.0838  0.0506
10544TIP3    H231576   5.881   3.073   5.070 -0.0440 -1.2024 -0.8447
10545TIP3   OH231577   4.697   5.042   4.500  0.3247  0.1494 -0.0717
10545TIP3    H131578   4.642   4.964   4.513 -1.2385  1.3722  0.8005
10545TIP3    H231579   4.752   5.045   4.578 -0.0760  0.2700  0.2113
10546TIP3   OH231580   5.293   4.018   5.627 -0.8722 -0.2637 -0.5575
10546TIP3    H131581   5.249   4.015   5.542 -0.1020  0.1962 -0.9727
10546TIP3    H231582   5.229   3.982   5.688 -1.4036 -0.6608 -1.3435
10547TIP3   OH231583   7.362   2.853   5.247 -0.4296 -0.5456  0.1713
10547TIP3    H131584   7.377   2.948   5.251 -1.8348 -0.0544 -3.6328
10547TIP3    H231585   7.270   2.843   5.273 -0.3142 -0.8812  0.4561
10548TIP3   OH231586   1.704   7.084   0.569  0.3506 -0.1458 -0.1281
10548TIP3    H131587   1.698   7.041   0.654  0.8767  0.6527  0.3150
10548TIP3    H231588   1.624   7.057   0.523  1.5080 -3.0508 -0.5597
10549TIP3   OH231589   2.907   0.444   1.396 -0.2710  0.1173 -0.2139
10549TIP3    H131590   2.999   0.461   1.414 -0.0386  0.8391 -1.9618
10549TIP3    H231591   2.860   0.486   1.469  0.7152  0.8703 -0.0055
10550TIP3   OH231592   0.493   1.300   0.348 -0.8228  0.2168  0.3359
10550TIP3    H131593   0.588   1.288   0.339 -0.8752 -1.1067  1.4212
10550TIP3    H231594   0.480   1.323   0.440 -1.5030  0.9174  0.0675
10551TIP3   OH231595   7.128   3.030   4.191 -0.0326 -0.2491 -0.5209
10551TIP3    H131596   7.162   3.066   4.109  0.0147  2.5579  0.6999
10551TIP3    H231597   7.206   3.013   4.244 -0.2746  2.2667  0.6824
10552TIP3   OH231598   5.076   2.910   6.139  0.1515  0.3994 -0.3819
10552TIP3    H131599   4.998   2.942   6.093 -0.6114  0.2805  0.7856
10552TIP3    H231600   5.100   2.981   6.198 -0.8985 -0.7071  1.4375
10553TIP3   OH231601   7.534   5.736   0.483  0.1901 -0.2345 -0.5404
10553TIP3    H131602   7.558   5.811   0.537  0.5678 -0.3022 -0.6150
10553TIP3    H231603   7.487   5.678   0.543 -0.0176  0.0134 -0.4595
10554TIP3   OH231604   7.648   7.901   1.220 -0.0272 -0.3943 -0.4822
10554TIP3    H131605   7.572   7.873   1.271  1.0982 -0.7771  1.0383
10554TIP3    H231606   7.682   7.977   1.267  0.4609 -0.1471 -1.2190
10555TIP3   OH231607   6.255   6.429   5.458 -0.0637  0.0815 -0.5090
10555TIP3    H131608   6.229   6.507   5.507  2.3220 -0.4156  1.6299
10555TIP3    H231609   6.323   6.459   5.398 -0.5659  0.0202 -1.1152
10556TIP3   OH231610   5.053   1.359   5.039 -0.1463  0.0540  0.0866
10556TIP3    H131611   4.959   1.371   5.023  0.0794 -0.4304 -1.7385
10556TIP3    H231612   5.081   1.300   4.968  1.2902 -0.7822  1.3409
10557TIP3   OH231613   5.922   2.582   5.967  0.9776 -0.0573 -0.2220
10557TIP3    H131614   5.837   2.606   5.931  2.1556  3.1525 -1.1627
10557TIP3    H231615   5.907   2.568   6.060 -0.6647  0.0238 -0.4665
10558TIP3   OH231616   6.800   2.370   4.617  0.2427 -0.0776 -0.1907
10558TIP3    H131617   6.843   2.303   4.669 -0.1505 -2.2219 -2.5406
10558TIP3    H231618   6.716   2.332   4.592 -1.3339  2.4841  0.9293
10559TIP3   OH231619   5.073   2.127   6.211 -0.0145 -0.0529  0.0630
10559TIP3    H131620   5.092   2.040   6.177  1.5794 -0.1797  1.2046
10559TIP3    H231621   5.116   2.187   6.151  1.7673 -0.2210  1.1430
10560TIP3   OH231622   0.801   5.612   2.461 -0.2366  0.4621 -0.1725
10560TIP3    H131623   0.790   5.517   2.461 -1.0433  0.5176  1.8518
10560TIP3    H231624   0.731   5.644   2.403 -0.5327 -0.1338 -0.1472
10561TIP3   OH231625   5.982   6.232   1.912  1.0355 -0.3962 -0.6099
10561TIP3    H131626   6.009   6.246   1.821  1.9463 -1.7436 -0.5561
10561TIP3    H231627   6.004   6.141   1.930  0.4225 -0.2751  0.8227
10562TIP3   OH231628   1.333   7.487   2.181 -0.2594  0.6631  0.5332
10562TIP3    H131629   1.269   7.485   2.252 -1.6976 -0.2308 -0.7568
10562TIP3    H231630   1.389   7.412   2.197 -1.3645 -0.2804  0.0298
10563TIP3   OH231631   6.273   1.402   5.080 -0.4962 -0.0959 -0.0031
10563TIP3    H131632   6.319   1.486   5.075 -0.0572 -0.3689 -0.6461
10563TIP3    H231633   6.203   1.417   5.144 -0.3647  0.7328 -0.0432
10564TIP3   OH231634   4.637   3.619   6.102  0.2991  0.9724 -0.1700
10564TIP3    H131635   4.635   3.686   6.171  0.0549  0.5342  0.2495
10564TIP3    H231636   4.725   3.581   6.108 -0.3875 -0.4757  1.2676
10565TIP3   OH231637   7.985   6.137   2.079  0.3513  0.3814  0.1226
10565TIP3    H131638   8.006   6.135   2.172  1.5401  0.6998 -0.1425
10565TIP3    H231639   7.941   6.222   2.067  2.3419  1.4056 -0.0673
10566TIP3   OH231640   1.893   4.592   0.012  0.5304  0.7653  0.4832
10566TIP3    H131641   1.832   4.652   0.055  0.1253  1.2262 -0.7269
10566TIP3    H231642   1.977   4.636   0.014 -0.0491  2.0391 -1.6894
10567TIP3   OH231643   5.189   3.149   4.635 -0.1612 -0.2197  0.1602
10567TIP3    H131644   5.272   3.177   4.598 -1.1626  0.7251 -1.4086
10567TIP3    H231645   5.127   3.154   4.562 -1.6985 -0.4571  1.4264
10568TIP3   OH231646   2.323   3.515   6.222 -0.3402 -0.3575 -0.1370
10568TIP3    H131647   2.240   3.545   6.183 -1.0061 -2.3682 -0.3236
10568TIP3    H231648   2.389   3.533   6.155 -0.6740  0.9267 -0.1294
10569TIP3   OH231649   7.224   4.738   5.404 -0.2854  0.0730  0.0402
10569TIP3    H131650   7.261   4.686   5.475 -0.5817  0.8988  0.8008
10569TIP3    H231651   7.211   4.824   5.442 -1.5554  0.1977 -0.6706
10570TIP3   OH231652   6.216   5.178   0.312 -0.5108  0.1853 -0.8206
10570TIP3    H131653   6.193   5.140   0.397  1.3591  2.1463  0.6335
10570TIP3    H231654   6.280   5.118   0.275  0.8222  0.7417  0.5035
10571TIP3   OH231655   4.523   3.485   6.657 -0.1093  0.3830  0.1334
10571TIP3    H131656   4.428   3.474   6.668 -0.0340  1.3096  1.8524
10571TIP3    H231657   4.558   3.480   6.745  1.3478  1.0300 -0.3899
10572TIP3   OH231658   4.125   1.376   0.621  0.0961  0.3265  0.2973
10572TIP3    H131659   4.175   1.322   0.683 -0.5387 -0.1821  0.3728
10572TIP3    H231660   4.189   1.437   0.586  0.6298  0.1281  0.9033
10573TIP3   OH231661   2.830   0.187   1.334 -0.2951 -1.0711 -0.2698
10573TIP3    H131662   2.839   0.281   1.352  0.1399 -1.0122 -0.7785
10573TIP3    H231663   2.920   0.155   1.331 -0.2174 -0.7547 -3.9630
10574TIP3   OH231664   3.209   0.942   1.385 -0.1250 -0.0916  0.1699
10574TIP3    H131665   3.150   0.881   1.430 -1.3908  1.8013  1.1425
10574TIP3    H231666   3.155   0.983   1.318  0.0217  1.7521  1.1479
10575TIP3   OH231667   8.095   4.799   0.169 -0.0736  0.1222 -0.3354
10575TIP3    H131668   8.187   4.807   0.143 -0.3691  2.0662 -0.8962
10575TIP3    H231669   8.094   4.730   0.235  1.8550  0.4482  0.0534
10576TIP3   OH231670   6.052   3.109   6.631  0.2752  0.0611 -0.3564
10576TIP3    H131671   6.060   3.027   6.583  0.0068 -0.2298  0.0925
10576TIP3    H231672   6.059   3.083   6.723  1.2707  0.6698 -0.2560
10577TIP3   OH231673   4.641   2.329   5.114  0.3797  0.3713  0.0573
10577TIP3    H131674   4.671   2.315   5.024 -0.2601 -0.2764 -0.0578
10577TIP3    H231675   4.644   2.424   5.126  0.8335  0.4314 -0.5224
10578TIP3   OH231676   0.110   7.404   0.108 -0.1288  0.4525  0.2122
10578TIP3    H131677   0.074   7.454   0.035  1.9503  2.2154  0.3248
10578TIP3    H231678   0.205   7.409   0.095  0.1659 -1.6781  1.4354
10579TIP3   OH231679   6.258   4.587   6.109  0.4649 -0.2148 -0.0826
10579TIP3    H131680   6.229   4.542   6.188 -1.1520  1.4785  0.3132
10579TIP3    H231681   6.353   4.590   6.117  0.2748  0.5414  2.1263
10580TIP3   OH231682   5.312   2.515   5.297  0.0163 -0.1512  0.4594
10580TIP3    H131683   5.401   2.493   5.270 -0.8037  1.3584 -3.8532
10580TIP3    H231684   5.278   2.434   5.336  1.8167 -2.1373 -1.9296
10581TIP3   OH231685   8.102   7.108   0.059  0.2756  0.0568  0.3957
10581TIP3    H131686   8.040   7.139  -0.007  2.6672  1.1529 -1.3814
10581TIP3    H231687   8.124   7.186   0.110 -1.0233 -0.6502  2.1348
10582TIP3   OH231688   5.204   4.607   4.978 -0.1319  0.1049  0.3176
10582TIP3    H131689   5.194   4.568   5.065  1.7343  0.7147  0.8177
10582TIP3    H231690   5.129   4.574   4.929 -0.9790 -0.5921  2.0271
10583TIP3   OH231691   8.332   5.149   0.436  0.2860 -0.0054 -0.1360
10583TIP3    H131692   8.333   5.244   0.426  1.1046  0.2929  2.4533
10583TIP3    H231693   8.284   5.134   0.517  1.5600 -1.7068  0.3217
10584TIP3   OH231694   7.645   0.656   6.443 -0.0883  0.0355 -0.3379
10584TIP3    H131695   7.722   0.711   6.429 -0.1863 -0.1146 -1.5090
10584TIP3    H231696   7.581   0.715   6.484 -0.4182  0.9829 -2.1594
10585TIP3   OH231697   4.245   1.146   5.535  0.0044 -0.3210 -0.1781
10585TIP3    H131698   4.285   1.090   5.601  0.2570  2.6395  2.2632
10585TIP3    H231699   4.159   1.167   5.570 -0.1339  0.7328 -1.1142
10586TIP3   OH231700   8.290   6.487   1.871 -0.0570 -0.3762 -0.0397
10586TIP3    H131701   8.384   6.482   1.855 -0.0318 -2.2138  0.5437
10586TIP3    H231702   8.273   6.580   1.888  1.4973  0.0935 -0.9702
10587TIP3   OH231703   6.953   6.830   0.874  0.1759  0.5020 -0.3935
10587TIP3    H131704   6.994   6.798   0.794 -0.3165 -1.6067  0.1699
10587TIP3    H231705   6.862   6.849   0.848 -0.1299 -0.6960 -0.2255
10588TIP3   OH231706   5.846   0.283   5.769 -0.1710  0.0560  0.2085
10588TIP3    H131707   5.877   0.340   5.840  0.2414  0.3159 -0.1681
10588TIP3    H231708   5.777   0.230   5.808 -0.0894  0.3417  0.7478
10589TIP3   OH231709   6.236   2.412   6.272 -0.1241 -0.3243 -0.2247
10589TIP3    H131710   6.209   2.379   6.186  0.4906 -0.7832 -0.2514
10589TIP3    H231711   6.242   2.333   6.326  1.4071 -0.2727 -0.2978
10590TIP3   OH231712   3.713   7.404   5.433 -0.0702  0.0970  0.9857
10590TIP3    H131713   3.764   7.383   5.355  1.1508 -1.3305  2.1488
10590TIP3    H231714   3.630   7.359   5.420 -0.5748  1.3499 -0.3049
10591TIP3   OH231715   5.368   1.310   4.452  0.2428  0.3191 -0.0549
10591TIP3    H131716   5.331   1.333   4.537 -2.4741 -1.2339 -0.7678
10591TIP3    H231717   5.352   1.386   4.397  0.8333  0.8195  0.4624
10592TIP3   OH231718   2.464   2.792   5.660 -0.0414 -0.0456 -0.3078
10592TIP3    H131719   2.559   2.803   5.647 -0.1534  0.6638 -0.5508
10592TIP3    H231720   2.437   2.731   5.592  0.4906 -1.3837  0.6640
10593TIP3   OH231721   3.048   2.722   4.001  0.2956  0.1250  0.5704
10593TIP3    H131722   3.126   2.772   4.026 -0.6614  0.8696  2.1129
10593TIP3    H231723   2.987   2.735   4.073 -0.0482 -3.1348  0.9274
10594TIP3   OH231724   0.102   4.579   2.500  0.2593 -0.5512  0.2416
10594TIP3    H131725   0.115   4.609   2.590  1.3950  0.4576 -0.2420
10594TIP3    H231726   0.068   4.490   2.509  0.1141 -0.3636  1.6673
10595TIP3   OH231727   3.879   4.627   6.188  0.0356 -0.2466 -0.1644
10595TIP3    H131728   3.787   4.637   6.211  0.3266 -3.2365  2.6822
10595TIP3    H231729   3.880   4.555   6.125  0.4299 -0.3406 -0.0519
10596TIP3   OH231730   4.807   3.360   4.613  0.0375  0.1639  0.1290
10596TIP3    H131731   4.863   3.303   4.665  1.7345  0.8534 -0.9138
10596TIP3    H231732   4.744   3.301   4.571 -0.6395 -0.5136  2.0546
10597TIP3   OH231733   7.979   4.895   1.812 -0.2573  0.3513  0.9843
10597TIP3    H131734   7.968   4.990   1.813 -0.2304  0.3894 -0.9801
10597TIP3    H231735   8.010   4.875   1.724 -1.1226 -1.5911  1.0955
10598TIP3   OH231736   6.519   4.124   1.637 -0.1799 -0.2151 -0.1158
10598TIP3    H131737   6.612   4.132   1.615 -0.4714 -0.5832 -1.5322
10598TIP3    H231738   6.518   4.075   1.719  0.8792 -0.2913 -0.1383
10599TIP3   OH231739   3.868   4.462   5.179  0.5020 -0.1351  0.5637
10599TIP3    H131740   3.902   4.429   5.095 -0.8164 -1.3308  0.4724
10599TIP3    H231741   3.886   4.391   5.241 -1.9641 -0.9301  0.4594
10600TIP3   OH231742   5.564   0.525   6.823 -0.7100  0.7610 -0.0110
10600TIP3    H131743   5.541   0.581   6.897  2.5539  0.3451  1.4186
10600TIP3    H231744   5.613   0.581   6.764  2.6162 -0.4650  1.4489
10601TIP3   OH231745   6.114   3.395   6.171 -0.1489 -0.5787 -0.0366
10601TIP3    H131746   6.142   3.332   6.105  1.0442 -1.4792  1.3074
10601TIP3    H231747   6.035   3.357   6.210 -0.5441 -0.3034 -0.5650
10602TIP3   OH231748   5.140   3.028   3.052 -0.1484 -0.0147  0.0022
10602TIP3    H131749   5.136   3.030   3.148  1.6464  2.0832  0.0465
10602TIP3    H231750   5.073   3.090   3.024 -0.2599 -0.1806 -0.1008
10603TIP3   OH231751   0.644   7.686   1.263  0.4362 -0.6341 -0.1695
10603TIP3    H131752   0.632   7.625   1.189 -0.3891 -1.1370  0.3722
10603TIP3    H231753   0.730   7.725   1.248  0.6004 -1.2980 -0.9942
10604TIP3   OH231754   5.553   0.879   6.260 -0.5708  0.0665  0.3426
10604TIP3    H131755   5.622   0.924   6.308 -0.0560 -1.5917  1.1878
10604TIP3    H231756   5.474   0.930   6.277  0.4012  1.9443 -0.5871
10605TIP3   OH231757   0.102   2.276   4.171 -0.3137 -0.6831  0.4983
10605TIP3    H131758   0.141   2.201   4.217 -0.9492 -1.3101  0.0201
10605TIP3    H231759   0.138   2.271   4.083  0.3002  0.0682  0.7074
10606TIP3   OH231760   1.202   5.057   0.752  0.2448  0.5795  0.2212
10606TIP3    H131761   1.241   5.044   0.839 -1.5999 -0.0792  0.9940
10606TIP3    H231762   1.138   5.126   0.765 -0.4763  0.0496 -0.4611
10607TIP3   OH231763   5.045   2.286   5.817 -1.0342  0.2069  0.2968
10607TIP3    H131764   5.077   2.321   5.733 -0.1048 -1.2197  0.0413
10607TIP3    H231765   5.003   2.203   5.794 -0.6332 -0.2750  1.2571
10608TIP3   OH231766   5.951   3.377   2.853  0.2727  0.0496  0.0215
10608TIP3    H131767   5.903   3.368   2.770  0.1272 -0.2790  0.1404
10608TIP3    H231768   6.043   3.381   2.826  0.1852  0.6140 -0.2009
10609TIP3   OH231769   8.206   2.896   5.776  0.1226  0.5879 -0.5003
10609TIP3    H131770   8.195   2.813   5.729  0.3773  0.7562 -0.8611
10609TIP3    H231771   8.293   2.927   5.751  0.6811  0.1782  0.9040
10610TIP3   OH231772   5.783   2.303   6.394  0.3209 -0.8726  0.4116
10610TIP3    H131773   5.756   2.360   6.466  0.2240  0.3074 -0.5418
10610TIP3    H231774   5.701   2.277   6.351  0.4997  0.4770 -0.7964
10611TIP3   OH231775   7.744   2.544   3.872  0.6068 -0.0289 -0.5193
10611TIP3    H131776   7.835   2.530   3.846  0.8179  1.2596 -0.4888
10611TIP3    H231777   7.747   2.553   3.967  0.3350 -0.7579 -0.4332
10612TIP3   OH231778   7.395   1.678   4.765  0.0597 -0.9759 -0.6291
10612TIP3    H131779   7.338   1.697   4.839  1.0119 -0.5829  0.0061
10612TIP3    H231780   7.483   1.686   4.800  0.5110 -1.0030 -1.7492
10613TIP3   OH231781   7.071   3.073   6.253  0.1725  0.0658  0.3495
10613TIP3    H131782   7.024   3.088   6.334  0.7361 -1.3890  0.9674
10613TIP3    H231783   7.143   3.015   6.277  1.7799  1.5230 -0.7276
10614TIP3   OH231784   7.317   2.818   6.647  0.1345 -0.3560  0.4824
10614TIP3    H131785   7.408   2.847   6.650 -0.4081  1.5049 -0.1382
10614TIP3    H231786   7.321   2.723   6.661  2.1436 -0.2736  0.5876
10615TIP3   OH231787   3.802   0.617   5.279  0.2730  0.0917 -0.2399
10615TIP3    H131788   3.813   0.551   5.210  0.5587 -0.1786  0.0608
10615TIP3    H231789   3.759   0.691   5.235 -1.4586 -0.8891 -0.2202
10616TIP3   OH231790   6.186   3.867   5.963  0.3380  0.1524  0.3360
10616TIP3    H131791   6.272   3.901   5.941 -0.0296  0.4092 -0.7876
10616TIP3    H231792   6.203   3.784   6.008  1.1691  0.3126  0.3121
10617TIP3   OH231793   7.332   2.535   6.720 -0.2691 -0.0792  0.5565
10617TIP3    H131794   7.324   2.470   6.650 -1.8172  0.9805 -0.2927
10617TIP3    H231795   7.404   2.503   6.774 -0.3573 -1.9818 -0.3865
10618TIP3   OH231796   3.871   3.069   4.346 -0.5553 -0.6502 -0.0298
10618TIP3    H131797   3.876   3.077   4.251 -1.2633  1.3787  0.0804
10618TIP3    H231798   3.954   3.029   4.372  0.3046  0.2591 -1.3567
10619TIP3   OH231799   7.131   1.897   3.531  0.1753 -0.2537  0.2169
10619TIP3    H131800   7.147   1.805   3.552 -0.8154 -0.6500 -0.7321
10619TIP3    H231801   7.037   1.908   3.542  0.5036  1.0954  2.0036
10620TIP3   OH231802   1.952   6.769   1.456  0.1992 -0.8113  0.3113
10620TIP3    H131803   1.937   6.858   1.426  0.5095 -0.9257 -0.1947
10620TIP3    H231804   1.973   6.777   1.549 -0.6294 -0.4369  0.4660
10621TIP3   OH231805   6.156   2.221   4.649  0.0800  0.7117  0.1619
10621TIP3    H131806   6.098   2.145   4.645  0.2966  0.5523  0.0113
10621TIP3    H231807   6.101   2.291   4.683 -0.0235  0.3931  0.6556
10622TIP3   OH231808   6.354   2.117   6.145  0.1663  0.8307  0.5133
10622TIP3    H131809   6.427   2.111   6.205  0.8395  0.5063 -0.3296
10622TIP3    H231810   6.277   2.129   6.201  0.4184 -2.1646  1.5800
10623TIP3   OH231811   5.100   3.560   3.564  0.0529 -0.0813  0.0216
10623TIP3    H131812   5.177   3.602   3.525 -0.8306  0.1369 -1.5314
10623TIP3    H231813   5.100   3.590   3.655  1.7887 -0.0815  0.0412
10624TIP3   OH231814   7.393   1.740   5.425  0.1266  0.0515  0.2679
10624TIP3    H131815   7.469   1.733   5.367  1.1229 -1.6985  1.7118
10624TIP3    H231816   7.430   1.750   5.513 -1.2724 -1.4717  1.0791
10625TIP3   OH231817   1.643   7.977   1.048 -0.4147  0.0418 -0.1570
10625TIP3    H131818   1.591   7.994   1.127  0.5582  1.7056  0.1696
10625TIP3    H231819   1.729   7.951   1.082  0.1831  1.3232 -0.6391
10626TIP3   OH231820   2.640   5.157   0.181 -0.0358 -0.2684  0.0084
10626TIP3    H131821   2.553   5.123   0.204  0.2723 -1.1246 -0.0595
10626TIP3    H231822   2.670   5.100   0.109 -0.1522  1.1290 -1.1612
10627TIP3   OH231823   6.626   2.945   4.169 -0.3803 -0.0959 -0.1798
10627TIP3    H131824   6.596   2.930   4.259 -0.1293  0.1265 -0.0565
10627TIP3    H231825   6.712   2.903   4.164 -1.1119 -1.5369 -0.8120
10628TIP3   OH231826   3.081   0.053   1.239 -0.5840  0.3480 -0.3627
10628TIP3    H131827   3.141   0.065   1.313 -0.1721 -0.0504 -0.6333
10628TIP3    H231828   3.138   0.042   1.163 -0.9522 -2.4489 -0.2682
10629TIP3   OH231829   7.307   4.512   2.519 -0.6760  0.3437  0.4699
10629TIP3    H131830   7.226   4.465   2.501  1.5728 -3.0456 -1.2199
10629TIP3    H231831   7.321   4.499   2.613 -0.3727 -1.9827  0.1343
10630TIP3   OH231832   7.985   3.222   6.535  0.0606  0.5005  0.9404
10630TIP3    H131833   8.022   3.310   6.546  0.3054  0.4229  0.7489
10630TIP3    H231834   7.933   3.228   6.455 -0.1857  0.5566  1.1036
10631TIP3   OH231835   0.250   2.609   6.553  0.4092  0.3084  0.1220
10631TIP3    H131836   0.240   2.599   6.647 -0.1624  2.2490  0.2845
10631TIP3    H231837   0.249   2.703   6.538  0.0639  0.0189 -1.8722
10632TIP3   OH231838   5.759   4.102   4.607 -0.5973 -0.3309  0.8444
10632TIP3    H131839   5.831   4.045   4.632  1.3081  1.0889 -1.1664
10632TIP3    H231840   5.684   4.043   4.597  0.3520 -1.8868  2.5860
10633TIP3   OH231841   2.609   4.884   1.444  0.0723 -0.1347 -0.5621
10633TIP3    H131842   2.571   4.883   1.357 -0.6774 -1.0314 -0.2347
10633TIP3    H231843   2.656   4.801   1.451  0.1485 -0.0581 -0.1195
10634TIP3   OH231844   5.835   2.232   5.906  0.1992  0.4165 -0.1089
10634TIP3    H131845   5.781   2.158   5.932 -1.6915  1.6543 -0.4078
10634TIP3    H231846   5.911   2.228   5.965 -0.5573 -0.9484  0.7986
10635TIP3   OH231847   0.449   7.532   1.430 -0.5280 -0.2841 -0.2755
10635TIP3    H131848   0.400   7.575   1.500 -3.7922  1.2219 -3.3113
10635TIP3    H231849   0.500   7.602   1.390  0.0674 -0.7910 -0.4017
10636TIP3   OH231850   6.395   2.719   6.856  0.5054  0.0336  0.6529
10636TIP3    H131851   6.358   2.802   6.887 -0.5030  0.0115 -0.4411
10636TIP3    H231852   6.366   2.654   6.920 -1.0531  0.0801 -0.0013
10637TIP3   OH231853   5.449   1.775   5.903  0.2522 -0.4702 -0.1846
10637TIP3    H131854   5.430   1.847   5.963  2.0209 -0.0926 -0.0408
10637TIP3    H231855   5.499   1.815   5.832  1.7274 -1.6241  0.1613
10638TIP3   OH231856   5.827   1.834   5.655 -0.7690  0.4965 -0.2146
10638TIP3    H131857   5.831   1.818   5.750 -0.5317  2.2538  0.0809
10638TIP3    H231858   5.896   1.777   5.619 -0.9444 -0.2804  0.6393
10639TIP3   OH231859   1.398   6.860   0.170  0.0346  0.0564 -0.1972
10639TIP3    H131860   1.395   6.832   0.079 -0.7415 -0.5830  0.0188
10639TIP3    H231861   1.324   6.920   0.180  2.2041  2.9618 -0.8871
10640TIP3   OH231862   4.919   1.102   0.753 -0.5392  0.5261  0.0746
10640TIP3    H131863   4.954   1.189   0.775 -0.8076  0.1616  2.0832
10640TIP3    H231864   4.991   1.042   0.773 -0.4794  0.2602 -0.9606
10641TIP3   OH231865   6.891   2.565   5.143 -0.0633 -0.0968  0.4662
10641TIP3    H131866   6.875   2.604   5.228  0.2437  0.5497  0.2315
10641TIP3    H231867   6.804   2.548   5.107 -0.1994 -1.2495  1.2978
10642TIP3   OH231868   8.039   0.534   4.479 -0.1062 -0.0147  0.3894
10642TIP3    H131869   8.047   0.533   4.575 -0.0510 -1.3407  0.3886
10642TIP3    H231870   7.945   0.535   4.462 -0.1292 -0.5783  0.4673
10643TIP3   OH231871   8.237   4.737   5.635  0.0267  0.0444  0.0818
10643TIP3    H131872   8.261   4.649   5.665 -0.5331  0.1016  0.6988
10643TIP3    H231873   8.152   4.726   5.593 -0.5462  0.4648  1.0991
10644TIP3   OH231874   7.019   1.639   6.599 -0.1240 -0.0371  0.1090
10644TIP3    H131875   7.012   1.706   6.531 -1.0232 -0.2456 -0.0145
10644TIP3    H231876   6.932   1.636   6.638  0.1988 -0.4136  0.7998
10645TIP3   OH231877   6.550   2.980   5.422 -0.0538 -0.2419 -0.9076
10645TIP3    H131878   6.586   2.979   5.333  0.7820  0.9834 -0.5913
10645TIP3    H231879   6.461   2.945   5.412  1.0976 -3.1394 -1.7438
10646TIP3   OH231880   6.724   2.436   4.315 -0.1657 -0.1816  0.4103
10646TIP3    H131881   6.650   2.491   4.292  0.6671 -0.2324 -2.5212
10646TIP3    H231882   6.689   2.347   4.315  0.1502 -0.3234 -2.1849
10647TIP3   OH231883   6.273   3.853   2.695 -0.1041 -0.2445  0.3818
10647TIP3    H131884   6.292   3.935   2.651  0.4006 -0.9502 -0.7499
10647TIP3    H231885   6.242   3.795   2.625 -2.9109 -0.2541  1.5673
10648TIP3   OH231886   1.506   6.944   0.406  0.0075  0.3477 -0.1791
10648TIP3    H131887   1.448   7.004   0.453  0.8024  0.6843  0.4020
10648TIP3    H231888   1.459   6.922   0.325 -1.1315  0.2042  0.5180
10649TIP3   OH231889   2.955   6.729   0.454 -0.0710  0.5528 -0.1374
10649TIP3    H131890   3.006   6.649   0.448 -0.4280  0.3092  0.0722
10649TIP3    H231891   2.890   6.722   0.384  0.0528  0.7676 -0.2733
10650TIP3   OH231892   1.039   4.880   6.241 -0.0346 -0.4666 -0.5827
10650TIP3    H131893   1.072   4.862   6.153  1.5711 -0.4296 -0.0126
10650TIP3    H231894   1.056   4.974   6.253 -1.7067 -0.1227 -0.8195
10651TIP3   OH231895   8.479   5.594   0.093 -0.2904  0.0198 -0.4792
10651TIP3    H131896   8.397   5.606   0.141 -0.1042 -2.8889  0.7063
10651TIP3    H231897   8.540   5.658   0.131 -0.8187 -0.6915  1.5940
10652TIP3   OH231898   7.159   5.597   6.738 -0.4140 -0.1533  0.1131
10652TIP3    H131899   7.202   5.548   6.808 -0.5400 -0.0543  0.2578
10652TIP3    H231900   7.100   5.533   6.698  1.0363 -0.7696 -1.1402
10653TIP3   OH231901   8.367   4.500   5.124  0.3827 -0.1776 -0.3689
10653TIP3    H131902   8.346   4.568   5.188 -0.1227 -0.8501  0.1773
10653TIP3    H231903   8.301   4.511   5.055 -1.5837 -2.0709  1.1830
10654TIP3   OH231904   0.533   6.585   1.170 -0.1194 -0.1002  0.0279
10654TIP3    H131905   0.478   6.508   1.185  0.6155 -0.5289  0.6086
10654TIP3    H231906   0.488   6.634   1.101 -0.0994 -1.5558 -1.0551
10655TIP3   OH231907   7.584   3.869   6.081 -0.1586 -0.3104 -0.0844
10655TIP3    H131908   7.541   3.837   6.002  0.0088  0.0931 -0.3411
10655TIP3    H231909   7.676   3.879   6.055 -0.4286  1.5501 -0.3634
10656TIP3   OH231910   1.317   6.123   0.123  0.2463 -0.0358  0.0478
10656TIP3    H131911   1.339   6.211   0.094  2.1302 -0.9120 -1.2993
10656TIP3    H231912   1.363   6.112   0.206  0.4497  0.0540 -0.0540
10657TIP3   OH231913   6.153   2.647   4.940 -0.0215 -0.1395 -0.3947
10657TIP3    H131914   6.246   2.651   4.961 -0.2607 -0.2427  0.7477
10657TIP3    H231915   6.122   2.566   4.982 -0.7338  0.1836 -0.2757
10658TIP3   OH231916   0.046   5.769   0.514 -0.2396  0.2631  0.1086
10658TIP3    H131917   0.102   5.806   0.446 -0.4638  1.4834  0.5747
10658TIP3    H231918   0.097   5.776   0.595 -0.8924  1.0323  0.4704
10659TIP3   OH231919   1.198   7.497   0.159  0.0496  0.3337  0.7148
10659TIP3    H131920   1.194   7.544   0.242 -0.0125  0.8257  0.4338
10659TIP3    H231921   1.276   7.531   0.115 -0.7725  1.1938 -0.1021
10660TIP3   OH231922   6.658   2.448   6.561 -0.4658  0.1195 -0.1042
10660TIP3    H131923   6.624   2.537   6.564  0.5082  0.4834  0.1301
10660TIP3    H231924   6.681   2.434   6.469 -0.0690  0.3081 -0.0301
10661TIP3   OH231925   1.297   6.369   0.641 -0.3942 -0.1465 -0.3485
10661TIP3    H131926   1.265   6.416   0.564  0.5626 -1.1497 -1.3668
10661TIP3    H231927   1.221   6.318   0.671 -0.8297  0.4104 -0.5029
10662TIP3   OH231928   6.535   1.639   3.766 -0.3515  0.2013 -0.3270
10662TIP3    H131929   6.573   1.569   3.714 -1.3563 -1.3130  0.9417
10662TIP3    H231930   6.580   1.635   3.850  0.1574  1.6144 -0.5234
10663TIP3   OH231931   6.577   1.869   6.066  0.3748  0.2616 -0.0384
10663TIP3    H131932   6.487   1.895   6.086  0.6709  1.3585 -0.1165
10663TIP3    H231933   6.598   1.802   6.131 -0.5956 -0.2068 -0.1984
10664TIP3   OH231934   8.043   5.835   0.366  0.2519  0.4323  0.2948
10664TIP3    H131935   8.124   5.855   0.412  0.1803  0.5794  0.3563
10664TIP3    H231936   8.032   5.906   0.303  0.7841 -0.2063 -0.5314
10665TIP3   OH231937   0.991   6.417   0.881 -0.3727  0.8105  0.9607
10665TIP3    H131938   0.901   6.416   0.850 -0.4221 -0.1957  1.1373
10665TIP3    H231939   1.010   6.326   0.904  1.0026  0.8320 -0.0138
10666TIP3   OH231940   2.005   6.046   1.777  0.2177 -0.5397  0.6935
10666TIP3    H131941   1.982   5.953   1.779 -0.4188 -0.3706  1.3406
10666TIP3    H231942   1.959   6.084   1.852 -0.8204  0.5873 -0.4923
10667TIP3   OH231943   7.678   2.277   6.380  0.0039  0.1732 -0.1596
10667TIP3    H131944   7.729   2.292   6.459  1.3436 -0.4281 -0.8802
10667TIP3    H231945   7.594   2.319   6.397  0.6041  0.8644  1.2031
10668TIP3   OH231946   7.602   3.278   3.690  0.8671  0.0747 -0.3734
10668TIP3    H131947   7.521   3.243   3.725  0.0003  2.1136 -0.2660
10668TIP3    H231948   7.582   3.300   3.599  1.2694  0.6563 -0.3294
10669TIP3   OH231949   5.883   3.334   6.291 -0.1787  0.4549 -0.2990
10669TIP3    H131950   5.803   3.281   6.293  0.5526 -0.7635 -1.9969
10669TIP3    H231951   5.855   3.421   6.321 -1.1511 -1.1266  3.6708
10670TIP3   OH231952   5.798   3.518   3.058 -0.4555 -0.5802  0.0947
10670TIP3    H131953   5.849   3.471   2.992 -0.6713 -0.5656 -0.0827
10670TIP3    H231954   5.815   3.611   3.041  0.1337 -0.5956  0.5750
10671TIP3   OH231955   6.288   1.558   3.622 -0.3424  0.3093 -0.1234
10671TIP3    H131956   6.264   1.465   3.623 -2.3578  0.7973 -0.8492
10671TIP3    H231957   6.380   1.559   3.648  0.3007 -2.0677 -2.0576
10672TIP3   OH231958   0.128   3.162   6.726 -0.1598  0.0342 -0.3539
10672TIP3    H131959   0.134   3.255   6.705  3.3956 -0.1530 -0.5786
10672TIP3    H231960   0.170   3.154   6.812 -0.4889 -1.3278 -0.3075
10673TIP3   OH231961   1.516   6.247   1.356 -0.1750  0.2279 -0.0027
10673TIP3    H131962   1.509   6.322   1.298  0.9269 -0.5162 -1.1435
10673TIP3    H231963   1.469   6.177   1.310 -0.8284  0.0969  0.8494
10674TIP3   OH231964   6.916   4.453   3.998  0.7390  0.2312  0.1522
10674TIP3    H131965   6.862   4.530   4.017  1.0544  0.2862  0.8329
10674TIP3    H231966   6.852   4.384   3.979  0.4677  0.9928 -1.8504
10675TIP3   OH231967   6.757   3.161   4.014  0.4407  0.3667 -0.5644
10675TIP3    H131968   6.703   3.108   4.073  1.2046  0.3893  0.1741
10675TIP3    H231969   6.736   3.252   4.037 -1.1545  0.4000 -2.0940
10676TIP3   OH231970   2.032   6.611   0.903  0.5293  0.4626  0.4981
10676TIP3    H131971   2.084   6.605   0.984  0.5911 -1.6058  0.3283
10676TIP3    H231972   2.097   6.612   0.833  0.3792 -1.0607  0.3323
10677TIP3   OH231973   7.666   1.757   5.983  0.1834  0.2655  0.1072
10677TIP3    H131974   7.655   1.851   6.001 -1.2977  0.2101 -0.3954
10677TIP3    H231975   7.760   1.743   5.981  0.4125  1.7847 -0.0001
10678TIP3   OH231976   5.841   0.647   2.396 -0.3163 -0.5772 -0.2490
10678TIP3    H131977   5.869   0.616   2.483  2.4447  0.6409 -0.6429
10678TIP3    H231978   5.808   0.735   2.412 -0.4990 -0.6308 -0.3337
10679TIP3   OH231979   6.756   2.402   6.284  0.1627 -0.4907 -0.0581
10679TIP3    H131980   6.720   2.433   6.200 -0.7050  0.3686  0.6233
10679TIP3    H231981   6.783   2.312   6.266 -2.1497 -1.0947 -0.6747
10680TIP3   OH231982   5.904   0.429   0.519  0.0588  0.8148  0.6450
10680TIP3    H131983   5.885   0.522   0.534  0.6745  1.1228 -0.4620
10680TIP3    H231984   5.985   0.413   0.567  0.0448  0.8817  0.6914
10681TIP3   OH231985   7.006   1.902   4.395  0.2618  0.1998  0.4658
10681TIP3    H131986   7.021   1.938   4.483  2.6792 -1.7370  0.8915
10681TIP3    H231987   6.921   1.857   4.402  0.1186  0.6253  1.6133
10682TIP3   OH231988   0.230   5.790   0.136 -0.5483 -0.8259  0.1624
10682TIP3    H131989   0.212   5.829   0.050 -0.1127 -1.0365 -0.0286
10682TIP3    H231990   0.280   5.710   0.116 -1.6638 -1.6232  0.5350
10683TIP3   OH231991   6.695   3.243   3.205 -0.4660  0.0030  0.0317
10683TIP3    H131992   6.735   3.257   3.291 -0.0105  0.8000 -0.3136
10683TIP3    H231993   6.611   3.201   3.225 -0.0208 -0.5387  0.8211
10684TIP3   OH231994   1.590   1.213   5.926  0.5550 -0.3585 -0.0138
10684TIP3    H131995   1.635   1.293   5.953  0.7236 -0.1702 -0.8711
10684TIP3    H231996   1.497   1.237   5.927  0.6231 -0.0851 -0.5198
10685TIP3   OH231997   6.881   3.936   6.139 -0.1416  0.1323  0.3479
10685TIP3    H131998   6.938   3.913   6.065  1.7648  0.8387  1.5608
10685TIP3    H231999   6.941   3.962   6.208 -1.9872  1.3376  1.5333
10686TIP3   OH232000   6.730   3.694   6.118  0.2739  0.0464 -0.1027
10686TIP3    H132001   6.776   3.624   6.072  0.7718  0.4975 -0.2948
10686TIP3    H232002   6.799   3.753   6.148 -0.0211 -0.5044  1.6599
10687TIP3   OH232003   7.383   3.421   3.800 -0.0308 -0.2828  0.2300
10687TIP3    H132004   7.382   3.470   3.718 -1.8877 -0.8436 -0.1133
10687TIP3    H232005   7.401   3.486   3.868  2.4878  0.0254 -0.6962
10688TIP3   OH232006   6.185   1.422   4.392  0.0372 -0.4640  0.0803
10688TIP3    H132007   6.251   1.484   4.360  2.3622 -2.8064  0.1250
10688TIP3    H232008   6.109   1.435   4.336  2.2995 -1.1142 -3.2654
10689TIP3   OH232009   0.886   6.318   0.000  0.2869 -0.2240 -0.4123
10689TIP3    H132010   0.898   6.404  -0.040  0.7837 -0.2347 -0.2909
10689TIP3    H232011   0.839   6.336   0.082 -1.3180 -0.2714 -1.3051
10690TIP3   OH232012   8.077   5.114   0.206 -0.1780 -0.6499 -0.5949
10690TIP3    H132013   8.133   5.040   0.182  0.1830 -0.2183 -1.0737
10690TIP3    H232014   8.069   5.108   0.301  1.7070  0.0036 -0.3748
10691TIP3   OH232015   1.307   7.036   0.871 -0.5839 -0.0409 -0.4032
10691TIP3    H132016   1.215   7.013   0.878 -0.5906  0.3444  0.9218
10691TIP3    H232017   1.351   6.984   0.938  0.2345 -0.5833 -1.3495
10692TIP3   OH232018   6.076   2.670   4.561 -0.2475 -0.1578  0.2007
10692TIP3    H132019   5.981   2.670   4.569 -0.3459  0.7962 -0.8414
10692TIP3    H232020   6.095   2.738   4.497  1.1237 -0.5503  0.1651
10693TIP3   OH232021   7.129   3.231   6.565  0.1879 -0.0558 -0.0264
10693TIP3    H132022   7.109   3.272   6.482 -0.9053 -0.2393  0.1455
10693TIP3    H232023   7.178   3.298   6.614 -0.8433  0.7390 -0.0748
10694TIP3   OH232024   8.237   3.022   6.032  0.5421 -0.2992  0.4415
10694TIP3    H132025   8.239   3.100   5.977  0.3509 -0.3045  0.4253
10694TIP3    H232026   8.239   2.949   5.971 -1.1135 -0.3075  0.3754
10695TIP3   OH232027   6.037   0.613   4.546 -0.4775  0.1282  0.0489
10695TIP3    H132028   5.963   0.665   4.515 -1.0039 -1.3076 -1.1132
10695TIP3    H232029   6.114   0.666   4.525 -1.1904  1.9483  1.8970
10696TIP3   OH232030   6.039   3.659   3.671 -0.4126 -0.1997  0.4659
10696TIP3    H132031   6.120   3.660   3.620 -0.7664  1.8999 -0.1142
10696TIP3    H232032   6.022   3.566   3.686  2.0458 -0.6912  0.5303
10697TIP3   OH232033   6.668   3.911   2.352  0.1696  0.0997 -0.1305
10697TIP3    H132034   6.700   3.990   2.396 -0.8538 -0.7801  2.3214
10697TIP3    H232035   6.745   3.873   2.311  0.9346  1.6520 -0.1751
10698TIP3   OH232036   5.584   3.304   3.757 -0.6638 -0.4847  0.1921
10698TIP3    H132037   5.631   3.365   3.701 -0.3905  0.0115  0.9530
10698TIP3    H232038   5.502   3.286   3.711  0.1617 -1.1634 -1.0282
10699TIP3   OH232039   4.648   3.769   6.718  0.0703  0.8043  0.0388
10699TIP3    H132040   4.605   3.712   6.781  1.0375  1.1120  1.0048
10699TIP3    H232041   4.577   3.809   6.668 -0.6110 -1.1572 -0.5789
10700TIP3   OH232042   5.041   2.934   5.586 -0.0177  0.7436 -0.0202
10700TIP3    H132043   5.052   2.970   5.498  0.3794  1.0450  0.1557
10700TIP3    H232044   5.130   2.926   5.621 -0.0720 -0.6000 -0.1328
10701TIP3   OH232045   8.225   4.745   6.161 -0.0136  0.3488 -0.6959
10701TIP3    H132046   8.226   4.747   6.066 -0.5967  0.0171 -0.7163
10701TIP3    H232047   8.218   4.837   6.187 -1.4774  0.3536 -1.0196
10702TIP3   OH232048   6.286   6.185   6.726  0.5839  0.1396  0.0658
10702TIP3    H132049   6.359   6.132   6.758 -0.0561 -0.9296 -0.2470
10702TIP3    H232050   6.287   6.262   6.783  1.5537 -0.1671  0.4867
10703TIP3   OH232051   7.961   3.265   4.902 -0.3624  0.3567 -0.2912
10703TIP3    H132052   7.898   3.332   4.928 -2.2638 -0.9263 -1.4319
10703TIP3    H232053   7.965   3.273   4.806 -1.3620 -1.7824 -0.5312
10704TIP3   OH232054   5.584   5.101   5.725  0.2564 -0.5961  0.2975
10704TIP3    H132055   5.601   5.007   5.732 -0.8445 -0.8725 -0.7489
10704TIP3    H232056   5.510   5.116   5.784  0.6979 -0.3013  0.7842
10705TIP3   OH232057   4.538   6.847   0.309  0.1527 -0.3977  0.1512
10705TIP3    H132058   4.445   6.858   0.293  0.0044 -0.7033  0.7715
10705TIP3    H232059   4.581   6.896   0.238 -0.4695 -0.6505 -0.4023
10706TIP3   OH232060   4.953   1.655   6.087  0.0093  0.1767 -0.1226
10706TIP3    H132061   4.925   1.663   5.996  0.2979  1.1207 -0.1283
10706TIP3    H232062   5.034   1.705   6.093  0.7371 -1.0180  0.3408
10707TIP3   OH232063   6.237   4.532   2.318  0.1397  0.0305 -0.4360
10707TIP3    H132064   6.274   4.619   2.332 -1.5402  0.5271  1.0495
10707TIP3    H232065   6.182   4.541   2.241 -1.2166  0.6651  0.6018
10708TIP3   OH232066   6.896   4.884   6.655 -0.0315  0.3817 -0.1009
10708TIP3    H132067   6.937   4.872   6.569 -0.7497  0.5692 -0.4740
10708TIP3    H232068   6.829   4.815   6.659 -0.5171  0.8542 -0.0120
10709TIP3   OH232069   5.186   2.421   5.039 -0.2039 -0.1711 -0.3481
10709TIP3    H132070   5.259   2.439   5.098  0.1260 -1.3077 -0.3877
10709TIP3    H232071   5.145   2.342   5.075 -1.5172  0.5516 -0.2382
10710TIP3   OH232072   3.825   1.487   0.216  0.2859 -0.0799  0.7207
10710TIP3    H132073   3.735   1.497   0.246  0.0826  0.4119 -0.0251
10710TIP3    H232074   3.842   1.393   0.220  0.0248 -0.0904  1.6530
10711TIP3   OH232075   6.251   3.243   5.422 -0.3185 -0.3272 -0.6277
10711TIP3    H132076   6.303   3.266   5.345  3.7574 -0.6555  1.8799
10711TIP3    H232077   6.249   3.148   5.422 -0.0898 -0.3341 -0.2125
10712TIP3   OH232078   7.745   3.584   4.599 -0.2055 -0.6807  0.0796
10712TIP3    H132079   7.829   3.609   4.638 -0.4856 -0.2403  0.4025
10712TIP3    H232080   7.766   3.511   4.541  0.2689 -1.0870  0.7709
10713TIP3   OH232081   6.558   2.897   6.237 -0.0366  0.1120 -0.1374
10713TIP3    H132082   6.549   2.991   6.220  1.6542  0.3641  0.2503
10713TIP3    H232083   6.488   2.877   6.298 -1.5873  0.7171 -1.6754
10714TIP3   OH232084   1.472   7.771   0.565  0.4220 -0.7165  0.1009
10714TIP3    H132085   1.483   7.676   0.565 -1.6599 -0.9815  0.9015
10714TIP3    H232086   1.447   7.792   0.655 -3.7851 -0.0221 -1.1266
10715TIP3   OH232087   5.344   2.752   5.403 -0.0794 -0.4509 -0.2172
10715TIP3    H132088   5.274   2.750   5.468  0.8255 -2.6541  0.7572
10715TIP3    H232089   5.342   2.666   5.362  2.7159 -0.9643  0.5898
10716TIP3   OH232090   0.209   2.130   6.285  0.3152  0.0757 -0.2734
10716TIP3    H132091   0.152   2.155   6.212  0.8107  1.1515 -0.2966
10716TIP3    H232092   0.293   2.171   6.265  1.4309 -2.3873 -0.7843
10717TIP3   OH232093   6.307   2.565   5.421  0.3372 -0.2981  0.1467
10717TIP3    H132094   6.298   2.657   5.445 -0.4814 -0.1232 -0.7907
10717TIP3    H232095   6.240   2.520   5.473  0.0432 -0.2116 -0.1484
10718TIP3   OH232096   8.197   6.252   4.620  0.1245  0.6533 -0.0526
10718TIP3    H132097   8.281   6.295   4.636  0.3427 -0.0879  0.8800
10718TIP3    H232098   8.210   6.163   4.654 -0.7057  0.2310 -0.8470
10719TIP3   OH232099   6.355   3.239   5.744 -0.1198  0.2449 -0.3006
10719TIP3    H132100   6.426   3.175   5.750 -0.1335  0.0566 -1.8513
10719TIP3    H232101   6.338   3.246   5.650 -1.4332  1.0811 -0.0067
10720TIP3   OH232102   2.855   7.291   0.688 -0.2158  0.1229  0.6321
10720TIP3    H132103   2.792   7.221   0.705 -0.3277 -0.1980 -1.0491
10720TIP3    H232104   2.807   7.352   0.632  1.2760 -0.5930 -1.4506
10721TIP3   OH232105   8.481   1.562   5.835 -0.8023 -0.0592  0.4255
10721TIP3    H132106   8.430   1.505   5.777 -0.0534 -0.3809  0.0775
10721TIP3    H232107   8.427   1.569   5.914 -2.3679  1.3288 -0.7223
10722TIP3   OH232108   7.563   0.799   3.824 -0.0437  0.0368  0.2910
10722TIP3    H132109   7.540   0.843   3.905  0.3316  0.0135  0.4138
10722TIP3    H232110   7.656   0.819   3.811 -0.2148  0.4204 -0.3742
10723TIP3   OH232111   6.865   2.726   5.359 -0.0684  0.0697 -0.4012
10723TIP3    H132112   6.798   2.780   5.317 -1.1202 -0.2205  0.8584
10723TIP3    H232113   6.837   2.720   5.451  1.5185 -0.3171  0.0753
10724TIP3   OH232114   7.357   3.907   6.691  0.7764 -0.8586 -0.5751
10724TIP3    H132115   7.374   3.882   6.781  0.0458  1.0324  0.1219
10724TIP3    H232116   7.273   3.953   6.694  0.1423 -1.8291 -2.4175
10725TIP3   OH232117   6.404   3.471   5.882  0.3618  0.0818  0.1250
10725TIP3    H132118   6.368   3.396   5.834  1.5605 -0.1058 -0.4990
10725TIP3    H232119   6.440   3.433   5.962  0.4463  0.0706  0.0819
10726TIP3   OH232120   5.547   3.523   6.149 -0.0990  0.0117 -0.5685
10726TIP3    H132121   5.476   3.524   6.213 -0.5621  0.0604 -1.0745
10726TIP3    H232122   5.576   3.614   6.143 -0.6631  0.1610 -1.0910
10727TIP3   OH232123   6.625   4.118   6.558  0.5026 -0.2135 -0.0475
10727TIP3    H132124   6.623   4.036   6.509 -1.4459 -0.6567  0.7131
10727TIP3    H232125   6.573   4.178   6.506  2.2073  0.6654 -0.7711
10728TIP3   OH232126   8.149   4.191   4.458 -0.4949  0.1850  0.1458
10728TIP3    H132127   8.115   4.128   4.521 -0.3841 -1.5796 -1.5263
10728TIP3    H232128   8.085   4.262   4.459 -1.9523 -1.0963  0.2335
10729TIP3   OH232129   8.065   2.106   4.924  0.2549  0.3421  0.0651
10729TIP3    H132130   8.055   2.058   4.842 -0.9810 -1.2931  1.1431
10729TIP3    H232131   7.990   2.166   4.926 -0.7871 -0.9585  0.8642
10730TIP3   OH232132   7.045   2.696   5.804  0.1353 -0.3342 -0.1943
10730TIP3    H132133   7.086   2.782   5.799 -0.3069 -0.1128 -0.0854
10730TIP3    H232134   7.011   2.690   5.893 -1.3810  0.1065 -0.7293
10731TIP3   OH232135   7.425   3.117   5.277  0.2584 -0.0756  0.1607
10731TIP3    H132136   7.381   3.189   5.233  3.1764  0.7530 -1.5150
10731TIP3    H232137   7.384   3.113   5.364  0.5898  4.1333  0.5893
10732TIP3   OH232138   1.091   1.333   0.817 -0.1389 -0.0303 -0.4793
10732TIP3    H132139   1.179   1.363   0.792  0.2074 -0.3298  0.3587
10732TIP3    H232140   1.061   1.282   0.742  0.4654 -0.0472 -0.7142
10733TIP3   OH232141   7.893   3.004   5.404 -0.0761 -0.2340  0.4260
10733TIP3    H132142   7.820   2.999   5.343  0.6578  0.5948 -0.5372
10733TIP3    H232143   7.853   3.030   5.487 -1.1072 -1.5614  0.3601
10734TIP3   OH232144   7.246   3.732   4.135  0.1362 -0.0147  0.4185
10734TIP3    H132145   7.262   3.638   4.136  4.4382  0.6305  1.5399
10734TIP3    H232146   7.229   3.752   4.042  0.1386 -1.6978  0.0384
10735TIP3   OH232147   6.687   3.498   3.148  0.3135 -0.0657  0.0830
10735TIP3    H132148   6.779   3.522   3.157  0.3173 -0.1684  0.2990
10735TIP3    H232149   6.686   3.402   3.152 -0.0083  0.0116  1.8618
10736TIP3   OH232150   6.492   4.537   6.647 -0.0796  0.1022  0.8876
10736TIP3    H132151   6.565   4.588   6.682  1.1659 -0.0403 -1.4263
10736TIP3    H232152   6.435   4.602   6.606 -0.4056  0.0387  1.2428
10737TIP3   OH232153   6.736   1.973   6.384 -0.1984 -0.2567  0.4765
10737TIP3    H132154   6.723   1.881   6.362 -0.2312 -0.1653  0.1068
10737TIP3    H232155   6.651   2.014   6.370  0.0466  0.0069 -0.2660
10738TIP3   OH232156   2.537   0.386   0.826 -0.2509  0.6057  0.2139
10738TIP3    H132157   2.552   0.370   0.919 -0.6458  1.0499  0.3565
10738TIP3    H232158   2.531   0.481   0.819 -1.2618  0.5184 -0.1065
10739TIP3   OH232159   6.930   2.618   6.410 -0.2631 -0.2465  0.1915
10739TIP3    H132160   6.895   2.688   6.354 -1.8672 -0.5534  0.8079
10739TIP3    H232161   6.854   2.566   6.435  0.8534 -1.8724  0.2353
10740TIP3   OH232162   6.108   0.923   3.706 -0.3154 -0.2741  0.5545
10740TIP3    H132163   6.035   0.957   3.758  0.1538  0.4487  0.7662
10740TIP3    H232164   6.082   0.835   3.681 -1.5428  0.2181  0.0689
10741TIP3   OH232165   1.793   2.269   6.220  0.7930  0.2854 -0.2273
10741TIP3    H132166   1.741   2.244   6.143 -0.2033 -1.5919  1.0232
10741TIP3    H232167   1.752   2.348   6.253  1.1159  1.0029 -1.5013
10742TIP3   OH232168   7.729   3.563   5.168  0.4315 -0.4903  0.0048
10742TIP3    H132169   7.710   3.470   5.176 -0.9664 -0.0977  1.5761
10742TIP3    H232170   7.794   3.581   5.236  1.2812 -0.4404 -0.7962
10743TIP3   OH232171   0.716   5.532   0.428  0.3730  0.3886 -0.0447
10743TIP3    H132172   0.786   5.471   0.405  1.2020  1.1601  0.4020
10743TIP3    H232173   0.636   5.480   0.422  1.1610 -1.0220  1.3328
10744TIP3   OH232174   4.747   3.221   6.110 -0.6324 -0.0925  0.1476
10744TIP3    H132175   4.799   3.148   6.075 -0.5381  0.6869 -1.3839
10744TIP3    H232176   4.686   3.242   6.040 -1.6513  0.3521  1.1537
10745TIP3   OH232177   5.887   1.708   6.446 -0.3979 -0.5973 -0.3089
10745TIP3    H132178   5.901   1.619   6.479  1.6213  0.3592  1.5197
10745TIP3    H232179   5.833   1.751   6.513  1.8156  0.6685  0.7112
10746TIP3   OH232180   4.034   0.825   0.042 -0.3642 -0.0383  0.4589
10746TIP3    H132181   4.111   0.769   0.030 -0.9947 -0.8821  0.2716
10746TIP3    H232182   4.069   0.906   0.077  0.8096  0.1686 -1.1105
10747TIP3   OH232183   8.462   2.533   6.664  0.9831 -0.2919  0.1832
10747TIP3    H132184   8.416   2.527   6.580  0.5741 -0.4600  0.4133
10747TIP3    H232185   8.525   2.461   6.662  1.1839 -0.1099 -0.1022
10748TIP3   OH232186   7.132   3.032   5.084 -0.1596 -0.8426 -0.4468
10748TIP3    H132187   7.057   3.078   5.122  0.3277  0.5693 -1.1226
10748TIP3    H232188   7.094   2.972   5.020 -0.8620 -1.9128  0.9633
10749TIP3   OH232189   0.729   5.606   1.232  0.7775 -0.4827  0.2208
10749TIP3    H132190   0.776   5.684   1.260 -2.1664  1.0418  1.1203
10749TIP3    H232191   0.668   5.637   1.165  0.2235 -2.1730 -0.0949
10750TIP3   OH232192   6.899   2.964   6.477 -0.1288 -0.0519 -0.1240
10750TIP3    H132193   6.849   2.925   6.406  1.1495  1.1483 -1.7017
10750TIP3    H232194   6.984   2.920   6.474  0.8834  1.9280 -1.1199
10751TIP3   OH232195   5.355   6.095   1.780  0.4597 -0.2733 -0.5035
10751TIP3    H132196   5.327   6.160   1.845  0.5902 -0.2989 -0.4188
10751TIP3    H232197   5.418   6.141   1.726 -0.2843 -0.0076 -1.1447
10752TIP3   OH232198   7.269   2.058   4.389 -0.0404 -0.0211  0.3340
10752TIP3    H132199   7.198   2.003   4.422  1.5969 -2.0082  0.6341
10752TIP3    H232200   7.291   2.115   4.462 -0.8739  0.1299  0.4684
10753TIP3   OH232201   1.905   6.655   0.395  0.2297 -0.0823 -0.1235
10753TIP3    H132202   1.883   6.745   0.420  0.7843  0.6065 -2.0170
10753TIP3    H232203   1.999   6.657   0.378 -0.0638 -0.6136 -1.8410
10754TIP3   OH232204   8.115   2.361   5.496  0.2927 -0.4555 -0.6493
10754TIP3    H132205   8.098   2.374   5.589  0.2337  1.0037 -0.8424
10754TIP3    H232206   8.167   2.438   5.470  2.3834 -2.0470 -1.2918
10755TIP3   OH232207   2.995   6.889   1.865 -0.1909 -0.4187 -0.1207
10755TIP3    H132208   3.050   6.967   1.880  0.7863 -1.0143 -0.5603
10755TIP3    H232209   2.905   6.923   1.866  0.3157  1.1294 -2.7644
10756TIP3   OH232210   2.435   0.557   0.504  0.4450 -0.1899  0.1069
10756TIP3    H132211   2.454   0.564   0.598 -0.3580  0.2627  0.2468
10756TIP3    H232212   2.428   0.463   0.488 -3.0139 -0.2118  1.2898
10757TIP3   OH232213   6.318   4.494   4.415 -0.0104  0.2098  0.6067
10757TIP3    H132214   6.275   4.551   4.479 -1.8984 -1.2651  0.6955
10757TIP3    H232215   6.359   4.426   4.469  0.5445  0.3723  0.3886
10758TIP3   OH232216   6.775   4.422   5.289 -0.2204  0.0623 -0.3184
10758TIP3    H132217   6.772   4.466   5.204 -1.1014  1.0686  0.2306
10758TIP3    H232218   6.824   4.342   5.272  0.5807  0.7896 -1.5370
10759TIP3   OH232219   1.141   6.975   0.058 -0.3443 -0.3550  0.4623
10759TIP3    H132220   1.164   6.949  -0.032  2.3067  0.8544  0.7635
10759TIP3    H232221   1.121   7.069   0.051  1.0953  0.0246  1.3410
10760TIP3   OH232222   6.903   2.878   4.132  0.1922 -0.6107 -0.4550
10760TIP3    H132223   6.968   2.947   4.123 -0.7512  0.2234 -1.0747
10760TIP3    H232224   6.873   2.861   4.042 -0.6349 -0.7896 -0.1533
10761TIP3   OH232225   6.603   4.509   5.899 -0.0651 -0.2204  0.3061
10761TIP3    H132226   6.579   4.424   5.935 -1.6820 -0.7274 -1.8672
10761TIP3    H232227   6.692   4.496   5.865 -0.3241 -1.0719 -0.0644
10762TIP3   OH232228   7.830   6.339   5.539 -0.4733 -0.2735  0.0545
10762TIP3    H132229   7.872   6.268   5.489 -1.8535 -0.0895 -1.4009
10762TIP3    H232230   7.882   6.417   5.519 -0.0589 -0.5083  0.2053
10763TIP3   OH232231   7.877   5.601   4.845  0.1466 -0.4893  0.1756
10763TIP3    H132232   7.857   5.652   4.923  0.2440 -1.6648  0.9831
10763TIP3    H232233   7.943   5.538   4.874  1.9296  0.5949 -1.4354
10764TIP3   OH232234   6.267   2.836   5.517 -0.2689  0.0888  0.0981
10764TIP3    H132235   6.200   2.860   5.453  0.0478  1.1487  0.1460
10764TIP3    H232236   6.236   2.873   5.600 -0.7886 -1.4731  0.6122
10765TIP3   OH232237   6.615   3.514   5.021 -0.3095  0.4733 -0.1548
10765TIP3    H132238   6.543   3.525   4.959  1.8543  0.0287 -2.8524
10765TIP3    H232239   6.639   3.421   5.015  1.1413  0.8212 -0.0946
10766TIP3   OH232240   7.266   0.102   0.217  0.1068  0.0618 -0.6914
10766TIP3    H132241   7.295   0.011   0.221  0.5537  0.2388  0.0905
10766TIP3    H232242   7.345   0.151   0.194  0.6097  0.6277  2.1011
10767TIP3   OH232243   8.199   2.749   2.021 -0.0946 -0.1406  0.0861
10767TIP3    H132244   8.110   2.742   1.986 -0.1756 -0.1660  0.2970
10767TIP3    H232245   8.254   2.760   1.943 -0.4257  1.2454  0.0310
10768TIP3   OH232246   8.347   2.952   3.310 -0.6009 -0.1675 -0.3197
10768TIP3    H132247   8.362   2.863   3.344 -1.2037 -0.3375 -0.4924
10768TIP3    H232248   8.284   2.990   3.371 -2.3965 -0.7938 -1.7457
10769TIP3   OH232249   7.495   1.577   4.351  0.4165 -0.2518  0.1855
10769TIP3    H132250   7.459   1.507   4.297 -0.1715 -0.2491  0.5775
10769TIP3    H232251   7.501   1.652   4.292  1.5499 -0.7643 -0.3853
10770TIP3   OH232252   6.465   2.642   5.197  0.7406  0.7796  0.6585
10770TIP3    H132253   6.432   2.729   5.175  0.7711  0.0097 -2.6011
10770TIP3    H232254   6.404   2.608   5.263 -1.3325  1.8519 -0.6732
10771TIP3   OH232255   6.894   2.624   6.052  0.1163 -0.3630 -0.1545
10771TIP3    H132256   6.907   2.660   6.140  0.2198  0.7293 -0.6217
10771TIP3    H232257   6.802   2.597   6.051 -0.4720  1.5745 -0.4210
10772TIP3   OH232258   3.293   7.222   0.199  1.2062 -0.1861  0.0158
10772TIP3    H132259   3.249   7.220   0.284 -1.4693 -2.1661 -1.3482
10772TIP3    H232260   3.370   7.166   0.210  0.6965 -0.6902  1.0189
10773TIP3   OH232261   0.115   3.136   3.998  0.2969 -0.2313  0.0540
10773TIP3    H132262   0.168   3.214   3.984  1.9104 -1.5149 -1.2639
10773TIP3    H232263   0.075   3.119   3.912 -1.8847  0.4564  0.9214
10774TIP3   OH232264   8.295   3.146   6.847  0.2222  0.0404  0.2519
10774TIP3    H132265   8.291   3.109   6.759  0.0890  0.0983  0.2344
10774TIP3    H232266   8.212   3.191   6.858  0.7208  1.0350 -0.0288
10775TIP3   OH232267   2.854   7.409   0.293 -0.2282  0.0512 -0.5385
10775TIP3    H132268   2.895   7.350   0.356 -1.3258  1.1303  1.2323
10775TIP3    H232269   2.835   7.354   0.217  0.5655 -1.4101  0.3000
10776TIP3   OH232270   0.538   2.846   4.280  0.3313  0.2081 -0.3097
10776TIP3    H132271   0.534   2.840   4.185 -0.4597 -0.0998 -0.2593
10776TIP3    H232272   0.447   2.846   4.308  0.5524  0.6476  0.4317
10777TIP3   OH232273   7.174   4.005   5.111 -0.0298  1.0027 -0.1718
10777TIP3    H132274   7.268   4.015   5.125  0.1751 -0.8816 -0.0223
10777TIP3    H232275   7.136   4.006   5.198  0.1580 -0.8151 -0.0447
10778TIP3   OH232276   0.316   2.643   4.592 -0.2960 -0.0151 -0.0484
10778TIP3    H132277   0.230   2.606   4.615 -0.9432  1.4215 -0.0958
10778TIP3    H232278   0.298   2.698   4.515  1.3960 -2.8289 -2.5700
10779TIP3   OH232279   7.021   3.364   5.028 -0.1029 -0.9542  0.0798
10779TIP3    H132280   6.975   3.412   5.097 -2.1440 -1.1147 -1.1430
10779TIP3    H232281   7.103   3.337   5.069  0.5927  2.5291  1.1800
10780TIP3   OH232282   6.978   3.865   4.927  0.2314 -0.0585  0.3348
10780TIP3    H132283   7.034   3.904   4.994  2.4939  0.4696 -1.7786
10780TIP3    H232284   6.895   3.848   4.972  2.2190 -1.3311  3.7168
10781TIP3   OH232285   1.544   6.028   0.803 -0.0585  0.2804  0.4766
10781TIP3    H132286   1.524   5.974   0.726 -2.7033  0.8297  0.7498
10781TIP3    H232287   1.604   6.095   0.769 -0.2549 -0.1903 -0.8579
10782TIP3   OH232288   5.439   6.540   0.625 -0.2659 -0.0170 -0.4535
10782TIP3    H132289   5.343   6.541   0.617 -0.2335 -0.6669 -0.9873
10782TIP3    H232290   5.470   6.585   0.547 -0.1582  1.0294  0.1891
10783TIP3   OH232291   6.990   4.245   6.038  0.0916 -0.1511 -0.4964
10783TIP3    H132292   6.949   4.202   6.113  0.1966 -0.5376 -0.6629
10783TIP3    H232293   7.081   4.258   6.065  0.2547 -0.7536 -0.7570
10784TIP3   OH232294   5.514   2.507   6.394  0.0059  0.0581  0.4413
10784TIP3    H132295   5.590   2.520   6.451 -0.2738  1.7533  0.4510
10784TIP3    H232296   5.439   2.515   6.453 -0.1947 -0.9421  0.3170
10785TIP3   OH232297   4.049   7.106   0.579 -0.2827  0.5848 -0.3782
10785TIP3    H132298   4.048   7.180   0.641  0.2524  0.8560 -0.6937
10785TIP3    H232299   4.000   7.037   0.624  1.4438  0.2305  1.0276
10786TIP3   OH232300   7.012   2.316   6.576 -0.1284 -0.6765 -0.0804
10786TIP3    H132301   7.041   2.406   6.592  0.2043 -0.9302  0.7747
10786TIP3    H232302   6.937   2.304   6.634  1.5266 -1.8397  1.8683
10787TIP3   OH232303   1.384   6.093   0.381  1.1544 -0.1955 -0.0261
10787TIP3    H132304   1.392   6.179   0.421 -0.0691 -0.2456  0.3325
10787TIP3    H232305   1.397   6.031   0.453 -1.5398 -0.2835  0.4351
10788TIP3   OH232306   1.395   7.835   0.813 -0.2142 -0.2623  0.1897
10788TIP3    H132307   1.302   7.830   0.834 -0.3924  0.5873 -0.4200
10788TIP3    H232308   1.433   7.887   0.884 -0.2059 -0.5414  0.3948
10789TIP3   OH232309   7.465   1.808   6.592  0.3173 -0.0526  0.0502
10789TIP3    H132310   7.456   1.732   6.649  0.3072  0.2198  0.4144
10789TIP3    H232311   7.452   1.773   6.503 -0.8411 -0.2692  0.3034
10790TIP3   OH232312   7.085   5.066   6.743 -0.2414 -0.1748  0.0299
10790TIP3    H132313   7.090   5.136   6.678 -0.3104 -0.6730 -0.5092
10790TIP3    H232314   7.033   4.997   6.701  0.1920 -0.7306  0.3988
10791TIP3   OH232315   2.279   3.254   6.318  0.2601 -0.0019  0.0221
10791TIP3    H132316   2.288   3.346   6.296  1.1848  0.2272  1.2947
10791TIP3    H232317   2.239   3.253   6.405 -0.4210 -0.8122 -0.2894
10792TIP3   OH232318   5.909   5.493   5.768  0.2104 -0.5531 -0.0516
10792TIP3    H132319   5.979   5.433   5.744 -0.5622 -1.4481 -0.0797
10792TIP3    H232320   5.829   5.443   5.757 -0.3195 -0.2245  2.0144
10793TIP3   OH232321   4.332   0.756   0.767 -0.2617 -0.2596 -0.1868
10793TIP3    H132322   4.329   0.675   0.717  0.4295  0.1196 -0.8418
10793TIP3    H232323   4.400   0.741   0.833  0.7137  0.2287 -1.0766
10794TIP3   OH232324   7.565   2.457   5.446 -0.1836  0.0852 -0.0838
10794TIP3    H132325   7.554   2.544   5.483  0.0920 -0.7003  1.9224
10794TIP3    H232326   7.651   2.429   5.475 -0.0890 -0.6970 -1.0800
10795TIP3   OH232327   8.077   4.506   5.320 -0.2127  0.8772  0.1006
10795TIP3    H132328   7.996   4.554   5.302  0.9666  2.8894 -0.0062
10795TIP3    H232329   8.096   4.459   5.238 -0.3776  1.7425 -0.4424
10796TIP3   OH232330   8.369   4.595   6.547  0.7593  0.1453 -0.5966
10796TIP3    H132331   8.395   4.561   6.633 -0.4278  0.1643 -0.2175
10796TIP3    H232332   8.373   4.690   6.556  1.6856  0.1387 -0.9006
10797TIP3   OH232333   7.138   2.585   3.500 -0.3725 -0.0768  0.4100
10797TIP3    H132334   7.153   2.626   3.415 -0.7365 -1.3494 -0.2874
10797TIP3    H232335   7.097   2.654   3.553 -0.7483  0.5300 -0.6553
10798TIP3   OH232336   5.335   2.527   6.596  0.4265  0.1775  0.2951
10798TIP3    H132337   5.413   2.552   6.646  0.2061 -0.8377  1.1720
10798TIP3    H232338   5.272   2.500   6.663 -0.1372 -0.4686 -0.4934
10799TIP3   OH232339   7.899   4.222   6.768 -0.0586 -0.7977 -0.0661
10799TIP3    H132340   7.954   4.195   6.841  0.6340 -1.7713 -0.9188
10799TIP3    H232341   7.905   4.149   6.706 -1.3516 -0.3818 -0.6888
10800TIP3   OH232342   6.939   2.121   4.217  0.6135 -0.5557 -0.1058
10800TIP3    H132343   7.016   2.170   4.189  0.3146 -0.3313 -0.5327
10800TIP3    H232344   6.974   2.040   4.253  1.0147 -0.7502 -0.9171
10801TIP3   OH232345   6.740   2.867   5.841  0.1332 -0.1112 -0.0633
10801TIP3    H132346   6.789   2.934   5.888  1.5253 -0.4888 -0.9731
10801TIP3    H232347   6.673   2.839   5.904  0.5527  0.9879  0.8899
10802TIP3   OH232348   8.394   0.737   4.607 -0.0792  0.1702 -0.0565
10802TIP3    H132349   8.402   0.691   4.524 -0.0533  0.1339 -0.0333
10802TIP3    H232350   8.409   0.829   4.585  2.1436 -0.0819  0.2658
10803TIP3   OH232351   3.306   7.921   5.562  0.3192 -0.0402 -0.0634
10803TIP3    H132352   3.255   7.950   5.638 -0.3400  0.1107 -0.5646
10803TIP3    H232353   3.295   7.990   5.497  0.5120 -0.3854 -0.4658
10804TIP3   OH232354   5.346   3.273   3.605 -0.1356  1.0280  0.3684
10804TIP3    H132355   5.337   3.301   3.513  2.3101 -2.6268 -1.0753
10804TIP3    H232356   5.263   3.230   3.625  0.4828 -1.0137 -1.2460
10805TIP3   OH232357   5.434   2.128   5.921 -0.1819  0.0673 -0.2776
10805TIP3    H132358   5.435   2.196   5.853  0.9129  0.3668  0.0229
10805TIP3    H232359   5.399   2.173   5.998 -1.3710 -0.2576 -0.6219
10806TIP3   OH232360   7.868   2.657   5.411 -0.2334  0.2378 -0.3713
10806TIP3    H132361   7.808   2.731   5.402 -0.8502 -0.0628  1.2053
10806TIP3    H232362   7.934   2.671   5.343 -1.7905  0.8546 -1.7783
10807TIP3   OH232363   6.284   3.677   3.492  0.1071  0.5472 -0.2776
10807TIP3    H132364   6.357   3.617   3.476 -0.5653 -0.8549  1.6946
10807TIP3    H232365   6.256   3.705   3.405  2.8689  0.9862 -1.0784
10808TIP3   OH232366   7.992   2.704   3.973 -0.0187  0.4111 -0.7943
10808TIP3    H132367   7.935   2.687   4.049  0.9517  0.6045 -0.0111
10808TIP3    H232368   8.080   2.706   4.010  0.3098  2.2282 -1.6715
10809TIP3   OH232369   6.659   2.444   5.022  0.2473  0.1835 -0.3795
10809TIP3    H132370   6.573   2.481   5.036  0.8714  1.0810  1.1372
10809TIP3    H232371   6.642   2.357   4.984 -1.3170  0.1237  0.4256
10810TIP3   OH232372   6.090   2.390   5.833 -0.3468 -0.1265  0.3644
10810TIP3    H132373   6.172   2.399   5.881 -0.0247  0.4696 -0.2831
10810TIP3    H232374   6.032   2.456   5.871 -0.8123 -1.1048  1.3850
10811TIP3   OH232375   6.703   2.643   4.809 -0.1341 -0.6136  0.0598
10811TIP3    H132376   6.735   2.642   4.719  1.5355 -0.0755  0.6227
10811TIP3    H232377   6.698   2.551   4.834  0.0225 -0.7401 -0.3696
10812TIP3   OH232378   7.070   1.009   5.117  0.0183  0.3580  0.7717
10812TIP3    H132379   7.148   0.991   5.065 -1.7725 -0.2997 -1.8367
10812TIP3    H232380   7.068   0.940   5.183  0.7212 -0.7018 -0.2886
10813TIP3   OH232381   8.128   4.122   6.467 -0.1178  0.8549 -0.3065
10813TIP3    H132382   8.123   4.124   6.372  1.1455  0.8426 -0.3703
10813TIP3    H232383   8.036   4.113   6.495 -0.4032 -0.1593 -1.5335
10814TIP3   OH232384   7.686   0.986   5.616 -0.7088 -0.1080  0.3399
10814TIP3    H132385   7.637   1.064   5.644 -1.2727  0.4548 -2.1557
10814TIP3    H232386   7.620   0.926   5.582 -0.0513 -0.8504  0.3550
10815TIP3   OH232387   6.766   3.940   4.095  0.3351  0.2546 -0.1826
10815TIP3    H132388   6.824   3.995   4.041 -0.7961  1.7714  0.0900
10815TIP3    H232389   6.680   3.981   4.086 -0.1508 -0.3178  1.6444
10816TIP3   OH232390   2.391   7.661   2.026  0.2306  0.3687 -0.2313
10816TIP3    H132391   2.471   7.623   2.061  0.5045  1.4173  0.3121
10816TIP3    H232392   2.385   7.628   1.936  0.8719 -0.3075 -0.0287
10817TIP3   OH232393   4.806   0.639   0.455 -0.6147  0.3589  0.3751
10817TIP3    H132394   4.841   0.557   0.489 -1.1548 -0.2815 -0.5875
10817TIP3    H232395   4.783   0.619   0.364  1.0555  2.1048 -0.4487
10818TIP3   OH232396   1.964   6.927   0.417  0.1054  0.2466  0.5283
10818TIP3    H132397   2.048   6.943   0.459  0.7468 -0.7103 -0.3564
10818TIP3    H232398   1.927   7.015   0.402  1.4746  0.7169 -0.1326
10819TIP3   OH232399   8.449   2.425   3.917  0.0625 -0.1707 -0.0141
10819TIP3    H132400   8.499   2.390   3.844  2.7692 -0.5555  1.9359
10819TIP3    H232401   8.458   2.359   3.986 -2.2892  0.2513  0.7541
10820TIP3   OH232402   6.201   1.514   2.986  0.2804 -0.2557 -0.2366
10820TIP3    H132403   6.237   1.543   3.070 -0.2175  2.9235 -1.0565
10820TIP3    H232404   6.114   1.480   3.008  0.0065  0.8869  0.4946
10821TIP3   OH232405   7.091   4.459   2.999 -0.1245  0.2573  0.1441
10821TIP3    H132406   7.038   4.386   3.031  0.4264  0.2160  0.9600
10821TIP3    H232407   7.086   4.451   2.903 -0.8557 -0.2730  0.2167
10822TIP3   OH232408   1.281   3.029   4.880 -0.2844 -0.1945 -0.2943
10822TIP3    H132409   1.261   3.082   4.803 -0.7749 -0.5479 -0.4139
10822TIP3    H232410   1.277   3.090   4.954  0.8393  0.2790 -0.6188
10823TIP3   OH232411   7.017   3.395   5.734 -1.2537  0.5358 -0.6519
10823TIP3    H132412   6.953   3.363   5.798 -0.8605  2.1025  0.5460
10823TIP3    H232413   7.014   3.490   5.743  2.0253  0.6251  0.2233
10824TIP3   OH232414   7.859   2.574   6.821 -0.2537 -0.4364  0.3549
10824TIP3    H132415   7.770   2.544   6.837 -0.1792 -0.1357  1.3623
10824TIP3    H232416   7.851   2.669   6.809 -0.2635 -0.6029 -1.1149
10825TIP3   OH232417   6.399   3.869   5.112 -0.5440  0.4742  0.3071
10825TIP3    H132418   6.326   3.810   5.132 -1.9047  2.3145  0.9322
10825TIP3    H232419   6.416   3.856   5.019 -0.8301 -0.8844  0.4315
10826TIP3   OH232420   0.020   4.406   4.927 -0.1607  0.5699  0.4258
10826TIP3    H132421   0.106   4.436   4.954 -0.1272 -0.9883  2.1489
10826TIP3    H232422  -0.036   4.419   5.004 -1.8886  3.1185 -1.1929
10827TIP3   OH232423   1.432   4.785   6.338 -0.5144  0.3340  0.2649
10827TIP3    H132424   1.430   4.876   6.369 -1.0399  0.7711 -1.0276
10827TIP3    H232425   1.522   4.757   6.355 -0.2733  1.1848  0.4430
10828TIP3   OH232426   2.990   7.686   0.925 -0.2637  0.3148  0.0053
10828TIP3    H132427   3.082   7.687   0.897 -0.5317  0.0384 -0.9091
10828TIP3    H232428   2.960   7.597   0.904 -1.1531  0.8688 -1.1116
10829TIP3   OH232429   0.266   1.491   4.614  0.0522 -0.0396 -0.0479
10829TIP3    H132430   0.211   1.458   4.686 -0.6180  0.2507 -0.4282
10829TIP3    H232431   0.348   1.516   4.657 -0.1856 -0.2773  0.5557
10830TIP3   OH232432   8.092   3.504   6.540  0.2707 -0.2190 -0.6230
10830TIP3    H132433   8.000   3.517   6.518  0.0650  0.2968  0.5350
10830TIP3    H232434   8.127   3.593   6.553  0.6265 -0.4676  0.1610
10831TIP3   OH232435   4.007   7.899   0.700 -0.6706  0.3397 -0.1022
10831TIP3    H132436   4.045   7.860   0.620 -0.4412 -0.3553  0.3370
10831TIP3    H232437   3.914   7.908   0.680 -1.0915 -2.1985  0.4364
10832TIP3   OH232438   0.041   0.996   4.533 -0.6293 -0.7520 -0.0434
10832TIP3    H132439  -0.045   1.026   4.560 -0.5811  0.3147 -1.0476
10832TIP3    H232440   0.094   1.076   4.529  0.0676 -1.2385 -0.6275
10833TIP3   OH232441   2.552   5.134   5.611  0.2737 -0.4806 -0.2838
10833TIP3    H132442   2.549   5.176   5.525 -2.2390  0.5906  0.2947
10833TIP3    H232443   2.503   5.053   5.600 -2.1484  0.7897  0.6804
10834TIP3   OH232444   8.397   1.362   3.847 -1.1315  0.1964  0.2303
10834TIP3    H132445   8.388   1.280   3.798 -0.2019  0.3771 -0.2537
10834TIP3    H232446   8.307   1.388   3.868 -1.4564 -0.6651 -0.0804
10835TIP3   OH232447   0.238   3.373   6.363  0.1568  0.4250  0.6997
10835TIP3    H132448   0.321   3.416   6.386  0.2716  0.6812 -0.1999
10835TIP3    H232449   0.188   3.374   6.445 -0.4031  3.5540  0.3695
10836TIP3   OH232450   2.538   7.174   0.310 -0.3416  0.2754 -0.7858
10836TIP3    H132451   2.504   7.263   0.316 -0.5804  0.0351  1.7963
10836TIP3    H232452   2.487   7.133   0.240 -1.8645  1.4285 -0.3615
10837TIP3   OH232453   8.142   2.494   1.093  0.5238  0.8231 -0.0637
10837TIP3    H132454   8.215   2.504   1.154  0.4846  0.8816 -0.0264
10837TIP3    H232455   8.148   2.403   1.063 -0.6077  0.2113  1.4970
10838TIP3   OH232456   1.059   3.332   5.803  0.2026  0.0954 -0.2098
10838TIP3    H132457   1.090   3.252   5.760  0.2887  0.3817 -0.6879
10838TIP3    H232458   0.983   3.359   5.752 -2.2649 -1.8338  2.3016
10839TIP3   OH232459   7.350   3.766   3.394 -0.2228 -0.1306 -0.0134
10839TIP3    H132460   7.428   3.742   3.344 -0.7367  1.0387 -1.3725
10839TIP3    H232461   7.278   3.724   3.348 -0.7455  1.2925 -0.4953
10840TIP3   OH232462   8.276   2.464   6.459  0.2944  0.3358  0.1518
10840TIP3    H132463   8.286   2.369   6.454 -0.0029  0.2093  1.7742
10840TIP3    H232464   8.186   2.476   6.490 -0.0701  1.1807 -1.1997
10841TIP3   OH232465   7.220   1.503   4.946 -0.0381  0.1621 -0.4855
10841TIP3    H132466   7.270   1.552   5.011 -0.5130  1.5232 -1.1443
10841TIP3    H232467   7.203   1.419   4.989  2.7410 -0.3134 -0.2312
10842TIP3   OH232468   1.960   7.101   0.852  0.4625 -0.3345 -0.1318
10842TIP3    H132469   2.011   7.024   0.827  0.9244 -0.3880  0.9525
10842TIP3    H232470   1.919   7.077   0.934 -1.0392 -0.1545 -0.8256
10843TIP3   OH232471   1.150   3.496   4.847  0.1730  0.3942  0.1920
10843TIP3    H132472   1.088   3.509   4.919 -0.7139  0.5914 -0.5936
10843TIP3    H232473   1.198   3.416   4.869 -1.6085 -0.7648 -0.0675
10844TIP3   OH232474   1.249   2.541   6.502  0.9357 -0.0723  0.3876
10844TIP3    H132475   1.252   2.448   6.526 -0.7305  0.0530  1.1658
10844TIP3    H232476   1.340   2.570   6.507  1.4048 -1.5421  0.6288
10845TIP3   OH232477   6.358   2.333   0.059  0.0312  0.6665  1.0546
10845TIP3    H132478   6.392   2.281   0.132  1.5059 -2.7592 -1.8986
10845TIP3    H232479   6.274   2.292   0.038  0.3387  0.5968 -0.1045
10846TIP3   OH232480   8.055   2.931   6.222  0.2268 -0.5894 -0.0142
10846TIP3    H132481   7.974   2.953   6.176 -0.2513 -1.8726  0.1815
10846TIP3    H232482   8.124   2.974   6.172 -0.3935 -1.0620 -1.2940
10847TIP3   OH232483   0.776   2.473   3.708  0.0988  0.1252 -0.1235
10847TIP3    H132484   0.697   2.466   3.653 -0.6459  0.4486  0.8880
10847TIP3    H232485   0.820   2.389   3.697 -1.1566 -0.6241  0.4551
10848TIP3   OH232486   1.452   5.092   6.281  0.1959  0.0465  0.0199
10848TIP3    H132487   1.548   5.100   6.281  0.0487  2.0370 -1.4553
10848TIP3    H232488   1.423   5.143   6.357  0.2947 -0.6031  0.5000
10849TIP3   OH232489   0.234   2.340   2.771  0.3364 -0.4994  0.3431
10849TIP3    H132490   0.179   2.328   2.849  0.4748 -0.2253  0.4851
10849TIP3    H232491   0.279   2.257   2.759 -1.1409 -1.1990 -0.5733
10850TIP3   OH232492   0.729   2.249   6.368  0.0003 -0.2184 -0.2024
10850TIP3    H132493   0.658   2.186   6.382  1.1583 -1.2616  1.1025
10850TIP3    H232494   0.684   2.333   6.360 -1.5615 -1.1736 -1.8629
10851TIP3   OH232495   6.442   2.084   4.406 -0.3217 -0.2775 -0.6306
10851TIP3    H132496   6.388   2.088   4.328 -0.0728  0.8311 -0.7400
10851TIP3    H232497   6.530   2.066   4.374 -0.0785  0.9713 -0.6570
10852TIP3   OH232498   7.255   4.105   5.553 -0.2362  0.3585 -0.0718
10852TIP3    H132499   7.233   4.064   5.636 -1.2718  0.9344 -0.0554
10852TIP3    H232500   7.182   4.164   5.535  0.5462  1.1301 -0.7979
10853TIP3   OH232501   0.498   1.019   5.878 -0.2000 -0.1691 -0.0282
10853TIP3    H132502   0.474   1.058   5.794  2.6977 -2.2971 -1.9498
10853TIP3    H232503   0.489   0.924   5.864  2.7694 -0.6731  1.2213
10854TIP3   OH232504   6.820   1.123   3.855  0.1598 -0.6503  0.2185
10854TIP3    H132505   6.903   1.111   3.808  0.3986  1.9531 -0.1121
10854TIP3    H232506   6.753   1.112   3.787  0.2049 -2.7913  0.4912
10855TIP3   OH232507   0.697   2.768   6.281  0.3561  0.1990  0.5806
10855TIP3    H132508   0.644   2.843   6.256 -1.3565 -0.6103  1.7079
10855TIP3    H232509   0.772   2.771   6.221 -0.9364  1.3701 -1.0237
10856TIP3   OH232510   0.072   2.559   5.259 -0.1407 -0.2505 -0.0974
10856TIP3    H132511   0.121   2.478   5.274 -0.3185 -0.0957  1.3703
10856TIP3    H232512   0.132   2.629   5.288 -0.0990  0.1267 -1.0780
10857TIP3   OH232513   0.670   4.752   6.796 -0.1658  0.0934  0.0440
10857TIP3    H132514   0.752   4.704   6.783 -0.3378 -0.4426  0.8950
10857TIP3    H232515   0.631   4.712   6.874 -2.2113 -1.0158 -1.5028
10858TIP3   OH232516   7.183   0.031   5.025  0.7368 -0.1435  0.0401
10858TIP3    H132517   7.135  -0.044   4.991  2.0202 -1.4084  0.9585
10858TIP3    H232518   7.236   0.062   4.951  0.2015 -0.1417 -0.3432
10859TIP3   OH232519   7.044   1.894   6.889  0.5405  0.4112  0.2201
10859TIP3    H132520   7.089   1.937   6.816 -1.2599  2.1210  0.0713
10859TIP3    H232521   6.967   1.949   6.905 -0.8333 -1.7484  1.2657
10860TIP3   OH232522   7.044   2.578   1.680 -0.0009 -0.2115  0.1682
10860TIP3    H132523   7.099   2.522   1.626 -0.5961 -0.0328 -0.6397
10860TIP3    H232524   7.072   2.667   1.660  0.9756 -0.2049  1.4845
10861TIP3   OH232525   1.797   3.523   6.570  0.3055 -0.3686  0.7774
10861TIP3    H132526   1.836   3.462   6.507  0.1531  0.7017 -0.3821
10861TIP3    H232527   1.746   3.467   6.629 -1.9532 -1.1521 -1.8160
10862TIP3   OH232528   7.697   1.950   6.295 -0.2793 -0.3516  0.5229
10862TIP3    H132529   7.633   1.883   6.319 -0.0681 -0.4368  0.8453
10862TIP3    H232530   7.672   2.027   6.348 -0.9967  0.0709 -0.4213
10863TIP3   OH232531   7.577   1.820   2.355  0.3284 -0.4309 -0.1448
10863TIP3    H132532   7.636   1.805   2.430  0.0009  0.1425  0.2321
10863TIP3    H232533   7.490   1.825   2.395 -0.1196 -2.3340 -0.8120
10864TIP3   OH232534   1.821   5.837   0.930  0.0680 -0.8001  0.2982
10864TIP3    H132535   1.845   5.751   0.896  0.8849  0.1112 -1.4674
10864TIP3    H232536   1.835   5.897   0.857  0.2326  0.9501  1.7302
10865TIP3   OH232537   2.876   5.301   0.246  0.6933  0.3894 -0.5859
10865TIP3    H132538   2.785   5.278   0.228  0.9518 -0.3907 -0.9341
10865TIP3    H232539   2.927   5.233   0.202  1.4864  1.7593 -1.8569
10866TIP3   OH232540   7.802   3.627   5.753  0.1824  0.2139  0.3769
10866TIP3    H132541   7.770   3.547   5.795  0.7428 -0.5030 -0.5450
10866TIP3    H232542   7.857   3.596   5.681  0.5161  1.4325  0.0973
10867TIP3   OH232543   7.863   4.140   3.679  0.3857 -0.3957  0.0636
10867TIP3    H132544   7.869   4.170   3.770  0.6918  1.5014 -0.5443
10867TIP3    H232545   7.884   4.218   3.628 -1.7151 -0.9221 -1.6703
10868TIP3   OH232546   7.999   2.139   2.429  0.2756  0.7423  0.5535
10868TIP3    H132547   7.936   2.083   2.386  0.4894  0.1885  0.9501
10868TIP3    H232548   7.988   2.225   2.388  0.3736  0.2613 -0.4791
10869TIP3   OH232549   3.130   7.806   1.370  0.0059  0.1304  0.8329
10869TIP3    H132550   3.176   7.734   1.328 -0.7609 -0.1517  0.4725
10869TIP3    H232551   3.039   7.797   1.342 -0.0985  1.2424  0.7731
10870TIP3   OH232552   1.585   7.518   1.650 -0.0567  0.0205 -0.3865
10870TIP3    H132553   1.586   7.505   1.555 -0.6596 -2.9244 -0.0350
10870TIP3    H232554   1.493   7.535   1.670  0.0628  0.5861 -0.3163
10871TIP3   OH232555   8.183   4.368   6.597 -0.6975  0.0748  0.4991
10871TIP3    H132556   8.172   4.278   6.565 -0.1163  0.3311 -0.4300
10871TIP3    H232557   8.180   4.422   6.518 -0.0132  0.7794  0.9541
10872TIP3   OH232558   5.710   0.089   0.319 -0.5275  0.4450 -0.2135
10872TIP3    H132559   5.672   0.020   0.373 -0.3929 -0.4342 -1.2243
10872TIP3    H232560   5.725   0.048   0.234 -1.9280  2.1345 -1.3379
10873TIP3   OH232561   7.100   2.192   2.091  0.3874 -0.4457 -0.6229
10873TIP3    H132562   7.070   2.270   2.044 -1.4061 -0.8271 -0.1397
10873TIP3    H232563   7.193   2.187   2.071  1.3482  3.8658  2.2634
10874TIP3   OH232564   0.956   2.763   5.212 -0.1249  0.0094 -0.8581
10874TIP3    H132565   0.951   2.673   5.181 -1.6283  0.0387 -0.7626
10874TIP3    H232566   0.974   2.815   5.133  1.4289 -0.4293 -0.8010
10875TIP3   OH232567   2.828   0.287   0.615 -0.2853 -0.2448 -0.3895
10875TIP3    H132568   2.814   0.193   0.623 -1.4614 -0.0886 -0.6262
10875TIP3    H232569   2.794   0.324   0.697  0.2553 -0.0346 -0.2567
10876TIP3   OH232570   1.147   2.732   3.696 -0.2338 -0.0852 -0.2289
10876TIP3    H132571   1.150   2.698   3.607 -1.1175  0.9102 -0.6444
10876TIP3    H232572   1.055   2.727   3.722  0.0510 -0.6126  0.7333
10877TIP3   OH232573   1.662   7.214   0.222 -0.0917 -0.1682 -0.4462
10877TIP3    H132574   1.673   7.247   0.132 -1.1507  0.9795 -0.1584
10877TIP3    H232575   1.750   7.182   0.246  0.3787  0.2090 -1.6107
10878TIP3   OH232576   7.209   1.983   6.699  0.5449 -0.1368  0.2441
10878TIP3    H132577   7.189   2.072   6.669  0.1849 -0.3591 -0.1915
10878TIP3    H232578   7.236   1.937   6.620  0.7583 -0.4046  0.4755
10879TIP3   OH232579   7.329   3.119   3.467 -0.4385  0.3093  0.5272
10879TIP3    H132580   7.423   3.129   3.480 -0.0009 -2.2797 -0.3260
10879TIP3    H232581   7.302   3.198   3.421  1.0833  1.6328  1.8665
10880TIP3   OH232582   7.553   2.931   3.686  0.0348 -0.3510 -0.3259
10880TIP3    H132583   7.627   2.988   3.665 -1.2291  0.5203 -2.4637
10880TIP3    H232584   7.486   2.991   3.720 -0.3403 -0.9231 -0.0584
10881TIP3   OH232585   1.260   1.252   5.919 -0.2888 -0.4958 -0.3297
10881TIP3    H132586   1.284   1.337   5.955 -0.1411 -0.1532 -1.2234
10881TIP3    H232587   1.168   1.241   5.943  0.6756 -1.8139  3.0935
10882TIP3   OH232588   7.123   4.678   6.142 -0.1042 -0.0399 -0.1678
10882TIP3    H132589   7.218   4.688   6.131 -0.2008  2.5261  0.8553
10882TIP3    H232590   7.085   4.739   6.078 -0.9501  1.8250  2.0442
10883TIP3   OH232591   7.702   1.545   6.549 -0.3553 -0.3789 -0.2810
10883TIP3    H132592   7.643   1.472   6.567 -0.8275 -0.5499 -2.3834
10883TIP3    H232593   7.765   1.510   6.486  0.3893  0.5688 -0.0734
10884TIP3   OH232594   7.770   5.445   6.381  0.5251  0.2081 -0.1376
10884TIP3    H132595   7.741   5.354   6.390  2.4441 -0.3555  0.5685
10884TIP3    H232596   7.825   5.445   6.302  1.1973  0.5688  0.3272
10885TIP3   OH232597   0.951   5.410   3.719 -0.4469  0.8648 -0.1102
10885TIP3    H132598   0.931   5.349   3.790  1.0638 -1.0767 -1.3264
10885TIP3    H232599   1.021   5.465   3.754 -0.8675  1.0335  0.4851
10886TIP3   OH232600   8.296   3.739   4.689  0.0371 -0.1942  0.3975
10886TIP3    H132601   8.349   3.697   4.622  0.1513 -1.1183  1.0415
10886TIP3    H232602   8.359   3.783   4.746 -0.0615  0.6198 -0.1159
10887TIP3   OH232603   0.628   2.826   2.656 -0.0491  0.9018 -0.0900
10887TIP3    H132604   0.637   2.731   2.645  0.0797  1.0748 -1.6354
10887TIP3    H232605   0.552   2.848   2.601  0.4907  1.8135 -0.4797
10888TIP3   OH232606   1.395   3.171   6.662  0.2400 -0.2532 -0.5327
10888TIP3    H132607   1.420   3.235   6.594  2.2055  0.0151  0.4187
10888TIP3    H232608   1.368   3.094   6.612  1.7027 -0.0777 -1.6505
10889TIP3   OH232609   2.368   1.216   6.017  0.0668  0.4182 -0.0767
10889TIP3    H132610   2.444   1.238   6.072  0.3302 -0.0233 -0.2639
10889TIP3    H232611   2.300   1.190   6.078  0.4370 -0.3089  0.0347
10890TIP3   OH232612   2.230   5.233   0.206 -0.6334 -0.1398 -0.2757
10890TIP3    H132613   2.172   5.234   0.281 -0.2391  1.1189  0.0227
10890TIP3    H232614   2.299   5.297   0.227  2.4782 -3.6210  0.6503
10891TIP3   OH232615   1.988   3.439   5.645 -0.6768 -0.2166  0.5325
10891TIP3    H132616   1.954   3.380   5.711 -0.5153 -0.9774 -0.0592
10891TIP3    H232617   1.917   3.502   5.630 -0.8935 -0.3332  1.0679
10892TIP3   OH232618   8.198   5.450   6.517 -0.3664 -0.3194 -0.3335
10892TIP3    H132619   8.117   5.485   6.554 -0.1091  0.9571 -0.9526
10892TIP3    H232620   8.227   5.385   6.581 -1.2726  0.0287  0.4503
10893TIP3   OH232621   7.350   2.900   3.300 -0.2047  0.5500  0.2180
10893TIP3    H132622   7.372   2.972   3.358 -2.1196  0.4352  1.1447
10893TIP3    H232623   7.306   2.941   3.226 -1.4207  0.3574  0.8121
10894TIP3   OH232624   5.976   0.291   2.531 -0.0218  0.1405 -0.2296
10894TIP3    H132625   5.946   0.241   2.607  2.4354 -1.0859 -0.0043
10894TIP3    H232626   6.069   0.271   2.525 -0.1955  0.1161 -3.6884
10895TIP3   OH232627   8.445   3.465   5.908  0.6153  0.2898 -0.2541
10895TIP3    H132628   8.467   3.534   5.844  1.0460  1.1165  0.7696
10895TIP3    H232629   8.524   3.412   5.913  1.1100  1.1216  0.7245
10896TIP3   OH232630   0.797   5.389   4.238  0.1846 -0.0729 -0.1277
10896TIP3    H132631   0.873   5.332   4.230  0.5305  0.0349  1.9972
10896TIP3    H232632   0.772   5.383   4.331 -2.0662  0.3019 -0.6739
10897TIP3   OH232633   4.616   0.403   1.586 -0.2568 -0.2604  0.2158
10897TIP3    H132634   4.664   0.336   1.635  1.3760  1.9906  1.7501
10897TIP3    H232635   4.541   0.424   1.642  0.1723  0.4206  0.5388
10898TIP3   OH232636   3.753   6.339   0.834 -0.5864 -0.0358 -0.1863
10898TIP3    H132637   3.823   6.403   0.845  2.6972 -2.7435 -3.9575
10898TIP3    H232638   3.741   6.301   0.921  1.4707  1.6333  0.8764
10899TIP3   OH232639   1.219   4.049   4.996 -0.6054  0.5667 -0.3756
10899TIP3    H132640   1.221   3.970   4.942  2.3426  0.7588 -0.6419
10899TIP3    H232641   1.302   4.048   5.044 -2.0459  1.7146  2.2713
10900TIP3   OH232642   6.995   2.800   4.983 -0.2466 -0.5455 -0.4052
10900TIP3    H132643   6.984   2.741   4.909  2.4187 -1.1779 -0.3692
10900TIP3    H232644   7.010   2.741   5.058  1.3661  0.1073 -0.1799
10901TIP3   OH232645   5.082   4.321   4.618  0.0373 -0.7937  0.2419
10901TIP3    H132646   5.168   4.349   4.588 -0.5367 -0.7327 -1.3970
10901TIP3    H232647   5.083   4.338   4.712  1.1863  0.8501 -0.0420
10902TIP3   OH232648   0.466   3.087   5.584 -0.5462  0.2932 -0.3040
10902TIP3    H132649   0.393   3.149   5.587 -1.1888 -0.5077  1.0002
10902TIP3    H232650   0.444   3.026   5.514 -0.9516  0.2627 -0.1474
10903TIP3   OH232651   7.276   4.242   6.111 -0.1296 -0.0219 -0.1553
10903TIP3    H132652   7.357   4.291   6.127  0.4190 -0.7225 -0.7672
10903TIP3    H232653   7.296   4.186   6.036 -2.1020  1.9110 -2.2277
10904TIP3   OH232654   0.328   3.869   6.047 -0.3865 -0.1604 -0.1333
10904TIP3    H132655   0.256   3.918   6.088  0.6346  0.4407  0.9868
10904TIP3    H232656   0.400   3.878   6.109 -0.3703 -3.6707  0.4146
10905TIP3   OH232657   7.087   1.639   5.478 -0.6893 -0.1842  0.0606
10905TIP3    H132658   7.146   1.577   5.435  0.1377  0.2771  0.5238
10905TIP3    H232659   7.122   1.725   5.457 -0.3471  0.0526  1.5401
10906TIP3   OH232660   7.637   3.088   4.992  0.1146 -0.2143 -0.0501
10906TIP3    H132661   7.663   3.046   5.074  0.2867  0.8377  0.4406
10906TIP3    H232662   7.544   3.064   4.982  0.0465 -0.2073  0.5407
10907TIP3   OH232663   0.625   3.167   2.657 -0.2957 -0.2334  0.1083
10907TIP3    H132664   0.564   3.104   2.619 -0.3132  0.4360 -0.9737
10907TIP3    H232665   0.707   3.153   2.610 -0.2192  0.3579  0.0642
10908TIP3   OH232666   8.518   2.201   6.102  0.1390 -0.2432 -0.1977
10908TIP3    H132667   8.433   2.176   6.136  0.7715 -1.0814  0.8011
10908TIP3    H232668   8.511   2.189   6.007 -1.6987  2.3331 -0.4204
10909TIP3   OH232669   7.887   2.849   6.816  0.7448  0.1173  0.3573
10909TIP3    H132670   7.963   2.895   6.851 -0.9838  2.2463  1.3902
10909TIP3    H232671   7.856   2.905   6.745  0.5081 -1.0785 -0.5093
10910TIP3   OH232672   8.186   3.326   5.992  0.2843  0.1147 -0.2383
10910TIP3    H132673   8.175   3.341   6.086  1.3638 -2.0712  0.2729
10910TIP3    H232674   8.263   3.378   5.969 -0.0981  0.8136  0.0317
10911TIP3   OH232675   5.591   0.379   0.109 -0.6098  0.1187  0.2853
10911TIP3    H132676   5.540   0.408   0.185  0.0009  0.9044  0.4074
10911TIP3    H232677   5.682   0.389   0.137 -0.3805  0.7305 -0.6843
10912TIP3   OH232678   2.038   4.111   5.014  0.5635  0.3702 -0.2719
10912TIP3    H132679   2.010   4.200   5.038  0.4046  0.2776 -0.1032
10912TIP3    H232680   2.104   4.089   5.080 -0.1784 -0.0469  0.3499
10913TIP3   OH232681   7.136   5.607   5.761 -0.4256 -0.4574 -0.0354
10913TIP3    H132682   7.189   5.527   5.757  0.1759 -0.0197 -1.0063
10913TIP3    H232683   7.195   5.676   5.731 -0.6442  0.5114  1.7272
10914TIP3   OH232684   6.769   3.454   6.320 -0.5912 -0.2348 -0.3353
10914TIP3    H132685   6.808   3.449   6.233 -1.2339 -0.4819 -0.6046
10914TIP3    H232686   6.795   3.372   6.362 -0.3635 -0.1579 -0.3201
10915TIP3   OH232687   1.694   2.953   6.002 -0.1202  0.0748 -0.0048
10915TIP3    H132688   1.653   2.899   6.069 -2.8337  1.3526 -0.5564
10915TIP3    H232689   1.753   2.894   5.956 -0.6588 -1.6078  1.4043
10916TIP3   OH232690   1.009   4.271   5.925  0.7098  0.4248  0.6758
10916TIP3    H132691   1.028   4.177   5.924 -0.1801  0.2360  1.1745
10916TIP3    H232692   1.088   4.311   5.890  1.2857 -0.4802  0.9026
10917TIP3   OH232693   6.430   3.505   4.832 -0.2104 -0.2019  0.0680
10917TIP3    H132694   6.373   3.571   4.792 -0.3960 -0.4809 -0.1382
10917TIP3    H232695   6.436   3.436   4.766 -0.2910 -0.5415  0.4134
10918TIP3   OH232696   1.903   4.498   6.563 -0.5473 -0.2790 -0.3666
10918TIP3    H132697   1.995   4.471   6.563 -0.1139  1.1476 -0.4388
10918TIP3    H232698   1.887   4.528   6.473 -0.6131  0.9785  0.0551
10919TIP3   OH232699   6.748   1.820   6.799  0.5311  0.3090 -0.1601
10919TIP3    H132700   6.778   1.896   6.750 -0.5503  0.5886 -0.4003
10919TIP3    H232701   6.660   1.844   6.829  0.4828 -0.5492  0.4102
10920TIP3   OH232702   6.316   2.310   5.268 -0.9379 -0.2379 -0.4191
10920TIP3    H132703   6.321   2.393   5.316 -1.7167 -1.3999  1.7466
10920TIP3    H232704   6.407   2.288   5.249 -0.6063  0.2440  0.5594
10921TIP3   OH232705   6.392   3.694   5.699 -0.5208 -0.7258 -0.0975
10921TIP3    H132706   6.326   3.655   5.642  0.1776 -2.8023  0.4638
10921TIP3    H232707   6.416   3.624   5.759  0.7994  0.5857  0.9367
10922TIP3   OH232708   3.421   5.329   0.532 -0.4795  0.0336  0.4817
10922TIP3    H132709   3.386   5.390   0.597 -1.8581  0.5219 -0.6755
10922TIP3    H232710   3.435   5.383   0.454 -1.7445 -1.1192 -0.5642
10923TIP3   OH232711   0.836   0.677   3.847  0.1566  0.0707 -0.1347
10923TIP3    H132712   0.864   0.624   3.772 -0.0662  0.6038 -0.6041
10923TIP3    H232713   0.824   0.614   3.918  1.6321 -0.2723 -0.1813
10924TIP3   OH232714   8.443   5.070   4.232 -0.0634  0.3198  0.3047
10924TIP3    H132715   8.522   5.088   4.283 -1.6723  3.5819  1.8243
10924TIP3    H232716   8.409   4.988   4.267  1.5980 -0.1171  0.9492
10925TIP3   OH232717   3.274   6.857   0.189  0.2931 -0.0471 -0.7108
10925TIP3    H132718   3.367   6.867   0.207  0.6279 -1.5341 -1.5298
10925TIP3    H232719   3.265   6.878   0.096 -0.2994  0.7070 -0.4902
10926TIP3   OH232720   8.385   2.354   2.129  0.0866 -0.2002 -0.6303
10926TIP3    H132721   8.453   2.319   2.072  0.5491 -1.5721  0.7395
10926TIP3    H232722   8.309   2.365   2.072  1.6362  2.0600 -2.3438
10927TIP3   OH232723   2.384   3.804   6.353  0.1340  0.1118 -0.4722
10927TIP3    H132724   2.479   3.801   6.360  0.1167  1.6651  0.4823
10927TIP3    H232725   2.355   3.714   6.373  1.2327  0.2298  1.7707
10928TIP3   OH232726   6.419   1.727   0.941  0.1003  0.4533  0.1774
10928TIP3    H132727   6.417   1.710   0.847 -0.9679 -1.5771  0.5463
10928TIP3    H232728   6.384   1.816   0.950  1.9420  1.3843 -1.4786
10929TIP3   OH232729   4.930   7.428   0.432 -0.3408  0.3274 -0.8827
10929TIP3    H132730   4.965   7.445   0.344  0.2790  1.1179 -0.4955
10929TIP3    H232731   4.842   7.465   0.430 -0.8196 -0.8266 -1.5708
10930TIP3   OH232732   2.093   3.612   6.519 -0.5718 -0.1005 -0.5035
10930TIP3    H132733   2.060   3.648   6.436  0.9443  0.2471 -0.9794
10930TIP3    H232734   2.025   3.550   6.547 -1.5227  0.4470 -1.5410
10931TIP3   OH232735   4.994   0.935   2.230  0.0539  0.0576  0.3034
10931TIP3    H132736   5.046   0.862   2.197  1.0715  0.9614 -0.1376
10931TIP3    H232737   4.950   0.971   2.153  1.2192  1.2067  0.1494
10932TIP3   OH232738   0.497   0.201   0.840 -0.0744 -0.1319  0.2838
10932TIP3    H132739   0.404   0.221   0.845  0.6673  4.1348 -0.5010
10932TIP3    H232740   0.516   0.198   0.746  0.7529  0.1825  0.4296
10933TIP3   OH232741   8.164   1.170   1.400  0.5794  0.1152  0.1131
10933TIP3    H132742   8.070   1.189   1.404  0.6944  0.6821  0.1803
10933TIP3    H232743   8.170   1.075   1.413  0.0055  0.0546 -0.0491
10934TIP3   OH232744   7.152   2.529   0.587  0.7324 -0.7457  0.1745
10934TIP3    H132745   7.227   2.562   0.537  0.5152 -1.0984 -0.3912
10934TIP3    H232746   7.190   2.484   0.662  1.0394  0.7045  0.9042
10935TIP3   OH232747   6.502   7.438   0.199 -0.5757 -0.2222 -0.0774
10935TIP3    H132748   6.419   7.394   0.219  0.3628 -1.8814  0.2123
10935TIP3    H232749   6.512   7.427   0.105  0.7438 -2.5721  0.3232
10936TIP3   OH232750   7.446   0.859   0.864 -0.2374 -0.1970  0.5245
10936TIP3    H132751   7.516   0.911   0.903 -1.0008 -0.0180  1.6733
10936TIP3    H232752   7.476   0.768   0.872  0.5341 -0.0293 -0.3607
10937TIP3   OH232753   0.230   3.865   4.866 -0.8591 -0.2400  0.4015
10937TIP3    H132754   0.252   3.958   4.867 -0.4917 -0.3218  0.0391
10937TIP3    H232755   0.307   3.822   4.903 -1.0179 -0.4002  0.5417
10938TIP3   OH232756   0.586   2.488   6.374  0.3222  0.0049  0.1527
10938TIP3    H132757   0.498   2.498   6.411  1.2634  0.3852  2.3604
10938TIP3    H232758   0.611   2.575   6.345  0.1514 -0.0138 -0.0493
10939TIP3   OH232759   5.457   1.889   0.094 -0.1630  0.3719  0.1813
10939TIP3    H132760   5.510   1.907   0.016  1.9910 -1.1715  1.2504
10939TIP3    H232761   5.436   1.796   0.088 -1.2625  0.5819  0.6896
10940TIP3   OH232762   0.824   3.677   5.209  0.2255  0.6956 -0.3539
10940TIP3    H132763   0.800   3.679   5.302  1.0978 -0.0532 -0.1070
10940TIP3    H232764   0.828   3.770   5.184 -2.4713  0.8682 -0.3182
10941TIP3   OH232765   7.979   0.659   0.971 -0.1559 -0.3115 -0.3864
10941TIP3    H132766   7.924   0.734   0.949  1.5299  1.2045  0.4845
10941TIP3    H232767   8.017   0.631   0.888 -1.3212 -0.6396 -0.8154
10942TIP3   OH232768   3.823   7.215   1.226 -1.2060  0.0475 -0.1263
10942TIP3    H132769   3.876   7.242   1.301 -0.9844  1.2656 -0.7176
10942TIP3    H232770   3.800   7.296   1.182 -0.7571 -0.7016 -1.7801
10943TIP3   OH232771   6.233   0.091   2.046 -0.1158  0.4104  0.3713
10943TIP3    H132772   6.182   0.056   2.119 -0.4624  0.3897  0.1165
10943TIP3    H232773   6.236   0.185   2.061  0.0961  0.3701  0.5930
10944TIP3   OH232774   2.109   7.403   0.154 -0.1294 -0.1506 -0.3245
10944TIP3    H132775   2.132   7.475   0.095  0.7224 -0.3946 -0.2880
10944TIP3    H232776   2.183   7.396   0.214 -0.1498 -1.1302 -0.3984
10945TIP3   OH232777   3.026   6.613   0.971  0.6297 -0.5572  0.0000
10945TIP3    H132778   3.072   6.533   0.997 -0.3187 -1.8735 -2.1258
10945TIP3    H232779   3.078   6.648   0.898  0.6204  0.3278  0.4230
10946TIP3   OH232780   6.502   1.053   0.215 -0.0776  0.5652  0.0585
10946TIP3    H132781   6.519   1.145   0.192  0.8202  0.9382  2.1278
10946TIP3    H232782   6.444   1.058   0.291  0.1529 -0.5778  0.3108
10947TIP3   OH232783   3.195   7.834   0.019  0.0087  0.1346  0.1906
10947TIP3    H132784   3.242   7.904   0.065  1.3570 -0.5331 -0.1482
10947TIP3    H232785   3.263   7.786  -0.027 -1.1642 -0.0886 -1.3457
10948TIP3   OH232786   7.069   2.445   1.944 -0.7318  0.6215 -0.0610
10948TIP3    H132787   7.140   2.403   1.895 -0.9022 -0.5718  0.7059
10948TIP3    H232788   7.028   2.504   1.881  0.0715  0.2852 -0.9011
10949TIP3   OH232789   5.190   0.050   1.180 -0.6045 -0.6602 -0.1759
10949TIP3    H132790   5.272   0.025   1.221  0.4914  0.6808 -1.4953
10949TIP3    H232791   5.193   0.146   1.176 -2.2166 -0.5992 -0.2664
10950TIP3   OH232792   1.818   7.292   0.706 -0.1309  0.1503  0.1848
10950TIP3    H132793   1.874   7.240   0.763  0.7525  2.1867  1.2252
10950TIP3    H232794   1.785   7.229   0.641  0.8043 -1.7008  1.4574
10951TIP3   OH232795   7.976   4.388   5.851 -0.2883  0.1830 -0.0787
10951TIP3    H132796   7.978   4.305   5.899  2.2409  0.1296 -0.2236
10951TIP3    H232797   7.929   4.368   5.770 -0.4701 -0.8703  0.2771
10952TIP3   OH232798   0.774   0.614   0.284  0.3940 -0.3496 -0.1672
10952TIP3    H132799   0.771   0.520   0.270  0.4782 -0.1828 -1.3570
10952TIP3    H232800   0.688   0.637   0.319  0.5529 -0.9413  0.6162
10953TIP3   OH232801   5.556   2.567   1.397 -0.1737 -0.2915 -0.2406
10953TIP3    H132802   5.551   2.522   1.313  1.9042 -0.9518 -0.0563
10953TIP3    H232803   5.635   2.622   1.389 -1.2879  1.4491  0.4272
10954TIP3   OH232804   5.426   1.275   0.945 -0.0456  0.2701  0.2504
10954TIP3    H132805   5.435   1.274   1.040  0.2452 -2.1621  0.2523
10954TIP3    H232806   5.503   1.321   0.913  0.4298  0.1048  1.1616
10955TIP3   OH232807   7.087   3.444   5.306 -0.6174  0.5121  0.3669
10955TIP3    H132808   6.995   3.464   5.288 -0.1205  0.8704 -1.8404
10955TIP3    H232809   7.119   3.520   5.354 -1.1501  0.9279  0.0665
10956TIP3   OH232810   5.829   8.007   1.302  0.3208  0.1029 -0.0150
10956TIP3    H132811   5.811   7.932   1.245 -0.9800  0.4128 -0.0267
10956TIP3    H232812   5.796   7.979   1.388 -0.0023  0.6031  0.0203
10957TIP3   OH232813   8.424   6.458   4.571  0.1269 -0.1260  0.2616
10957TIP3    H132814   8.477   6.482   4.496 -2.3488  0.8902 -1.2471
10957TIP3    H232815   8.434   6.363   4.578  0.0183 -0.3043 -1.6852
10958TIP3   OH232816   1.560   6.212   5.520  0.6444  0.2642 -0.3558
10958TIP3    H132817   1.534   6.160   5.444  1.8059 -0.8131 -0.0514
10958TIP3    H232818   1.599   6.291   5.483  0.2350  0.2261 -0.8649
10959TIP3   OH232819   0.067   4.579   6.105 -0.2989  0.2053  0.3525
10959TIP3    H132820   0.029   4.492   6.117  0.3321  0.0703  1.3906
10959TIP3    H232821   0.146   4.579   6.159  1.9288  0.0235 -2.8093
10960TIP3   OH232822   0.406   2.357   5.766  0.4930 -0.1319  0.8167
10960TIP3    H132823   0.472   2.388   5.828  3.6580 -0.8102 -2.0815
10960TIP3    H232824   0.380   2.436   5.718 -0.0952 -0.0330  1.2913
10961TIP3   OH232825   0.114   0.861   0.810 -0.1460 -0.4406 -0.0710
10961TIP3    H132826   0.177   0.821   0.751  1.1247  0.7641  0.4495
10961TIP3    H232827   0.043   0.797   0.815  0.4485 -1.2555 -1.6371
10962TIP3   OH232828   6.712   2.508   0.675 -0.4184  0.0727  0.3275
10962TIP3    H132829   6.712   2.572   0.746  0.4591  0.0611  0.3458
10962TIP3    H232830   6.745   2.557   0.599 -2.1805  0.3211 -0.3010
10963TIP3   OH232831   3.234   7.607   1.233 -0.1937 -0.7244  0.3366
10963TIP3    H132832   3.216   7.584   1.142 -3.0654 -2.4055  1.2747
10963TIP3    H232833   3.318   7.566   1.252  0.3235 -0.5482 -1.4599
10964TIP3   OH232834   0.718   5.409   5.674  0.1026  0.0979  0.0715
10964TIP3    H132835   0.780   5.342   5.644  0.6796  0.9214 -0.6035
10964TIP3    H232836   0.686   5.376   5.758 -0.4965 -1.5797 -0.8005
10965TIP3   OH232837   8.370   5.805   6.522  0.7534  0.0096  0.2263
10965TIP3    H132838   8.368   5.792   6.428 -0.5957  2.2194 -0.0909
10965TIP3    H232839   8.284   5.776   6.552  1.2998 -1.0105  0.8391
10966TIP3   OH232840   2.094   5.259   6.928 -0.0582  0.4772 -0.2638
10966TIP3    H132841   2.174   5.271   6.980 -0.1094 -1.1797  0.2221
10966TIP3    H232842   2.122   5.209   6.852 -0.5509  0.2969 -0.3258
10967TIP3   OH232843   8.110   5.066   6.766 -0.3171  0.4843  0.3810
10967TIP3    H132844   8.108   4.983   6.812  0.1238  0.4618  0.3635
10967TIP3    H232845   8.203   5.086   6.755 -0.4177  0.8851  0.2193
10968TIP3   OH232846   2.508   4.538   5.515 -0.6563 -0.6549 -0.4950
10968TIP3    H132847   2.546   4.471   5.571  0.0067  0.2280  0.1210
10968TIP3    H232848   2.524   4.620   5.561 -0.0757  0.0918 -1.9783
10969TIP3   OH232849   6.052   1.628   2.135 -0.2608 -0.1302 -0.6285
10969TIP3    H132850   6.120   1.674   2.183 -0.5665 -3.5592  3.4213
10969TIP3    H232851   5.972   1.644   2.185 -1.4140 -0.5299 -2.2943
10970TIP3   OH232852   0.247   4.220   5.425  0.1046  0.5281 -0.6188
10970TIP3    H132853   0.296   4.223   5.507  0.2007  0.1959 -0.6630
10970TIP3    H232854   0.209   4.307   5.417 -1.0639  0.1457  0.4911
10971TIP3   OH232855   5.957   7.005   1.210 -0.2962  0.2124  0.1627
10971TIP3    H132856   6.043   7.047   1.213  0.4202 -1.0917 -1.1624
10971TIP3    H232857   5.934   6.991   1.302  1.2308 -0.0588  0.5169
10972TIP3   OH232858   6.648   1.710   1.834  0.3792  0.5077  0.1602
10972TIP3    H132859   6.591   1.710   1.912 -0.0940  0.6998 -0.1816
10972TIP3    H232860   6.658   1.617   1.812  0.7916  0.4371  0.6555
10973TIP3   OH232861   0.595   7.212   0.159 -0.2376  0.1296 -0.6508
10973TIP3    H132862   0.588   7.127   0.115  0.4407 -0.8538  1.0740
10973TIP3    H232863   0.682   7.211   0.198 -0.8989  0.8687  0.8912
10974TIP3   OH232864   5.733   3.935   2.039 -0.0168 -0.3767  0.2997
10974TIP3    H132865   5.822   3.959   2.016  0.3730 -2.2983 -0.2936
10974TIP3    H232866   5.737   3.907   2.130  0.0269 -0.5866  0.2348
10975TIP3   OH232867   1.520   5.086   6.943 -0.1659  0.0737 -0.0569
10975TIP3    H132868   1.612   5.104   6.921 -0.4534 -0.4525 -1.7891
10975TIP3    H232869   1.491   5.026   6.874 -1.9791  0.7066  0.1403
10976TIP3   OH232870   3.560   7.345   2.206 -0.3311 -0.5667  0.7328
10976TIP3    H132871   3.482   7.353   2.152 -0.3320  0.3617  0.8541
10976TIP3    H232872   3.534   7.289   2.279 -0.5381 -1.2282  0.1542
10977TIP3   OH232873   3.498   7.633   1.530  0.1659 -0.6871 -0.2180
10977TIP3    H132874   3.511   7.633   1.624 -0.6011  0.9709 -0.0808
10977TIP3    H232875   3.433   7.702   1.515 -0.3016 -1.4560 -1.8751
10978TIP3   OH232876   3.882   6.780   0.219  0.4908  0.0511  0.4257
10978TIP3    H132877   3.860   6.687   0.220  2.9211 -0.5745 -0.2092
10978TIP3    H232878   3.866   6.810   0.308 -0.1944 -1.0020  0.6551
10979TIP3   OH232879   7.811   0.869   1.613 -0.2099  0.4058 -0.1989
10979TIP3    H132880   7.880   0.914   1.564 -1.5469  0.3676 -2.2022
10979TIP3    H232881   7.730   0.896   1.570 -1.2121 -2.0149  0.1032
10980TIP3   OH232882   4.538   1.558   1.742  0.0452 -0.0293  0.2078
10980TIP3    H132883   4.445   1.535   1.742 -0.6973  2.7480  1.0639
10980TIP3    H232884   4.565   1.550   1.651 -1.9479  2.4630 -0.6640
10981TIP3   OH232885   1.433   3.016   6.895 -0.4481 -0.0885  0.2233
10981TIP3    H132886   1.349   2.977   6.921 -1.1571  1.8779  0.9676
10981TIP3    H232887   1.411   3.073   6.821  0.4461 -0.4466 -0.3261
10982TIP3   OH232888   3.720   7.866   0.491  0.0101 -1.0626 -0.4502
10982TIP3    H132889   3.718   7.831   0.402 -1.4339  0.6547 -1.1037
10982TIP3    H232890   3.636   7.842   0.529 -0.9459  1.5289 -0.8575
10983TIP3   OH232891   0.222   6.049   6.326 -0.0611  0.3470 -0.3840
10983TIP3    H132892   0.176   6.098   6.395 -0.5411 -1.9191  0.9592
10983TIP3    H232893   0.314   6.055   6.350 -0.2669 -0.8613  0.7886
10984TIP3   OH232894   3.092   3.492   6.618 -0.4315  0.4970 -0.4520
10984TIP3    H132895   3.057   3.439   6.689 -1.2045  1.2797 -0.2526
10984TIP3    H232896   3.044   3.574   6.622 -1.6814 -0.0731 -2.9418
10985TIP3   OH232897   4.828   0.251   1.006 -0.3655  0.0313  0.4358
10985TIP3    H132898   4.733   0.256   1.019 -0.5502 -0.7356 -0.5168
10985TIP3    H232899   4.856   0.177   1.058 -0.1827  0.6534  1.2332
10986TIP3   OH232900   8.381   0.682   0.367 -0.4503 -0.7343 -0.0697
10986TIP3    H132901   8.330   0.737   0.307  3.2682  2.0762 -0.9010
10986TIP3    H232902   8.419   0.614   0.310 -0.6414 -0.8473 -0.0615
10987TIP3   OH232903   6.043   1.039   2.235  0.6432 -0.4969  0.1900
10987TIP3    H132904   6.076   1.063   2.149 -0.8450 -0.8311 -0.4919
10987TIP3    H232905   6.091   1.095   2.296  0.4439  0.9990 -1.0017
10988TIP3   OH232906   7.653   2.962   5.248  0.5813 -0.0264  0.3486
10988TIP3    H132907   7.638   2.868   5.256  2.2403 -0.2714  0.6549
10988TIP3    H232908   7.568   3.001   5.269 -0.0209 -1.4329  0.6108
10989TIP3   OH232909   6.423   1.736   1.343 -0.2027 -0.3665 -0.7935
10989TIP3    H132910   6.341   1.688   1.352 -0.7633  0.6174 -0.4583
10989TIP3    H232911   6.407   1.797   1.270  0.1269  0.0075 -0.5564
10990TIP3   OH232912   7.182   3.458   6.731 -0.7534  0.1255  0.7356
10990TIP3    H132913   7.093   3.470   6.696 -0.8886  0.4240  1.1801
10990TIP3    H232914   7.174   3.480   6.824 -0.9538 -3.0668  1.5466
10991TIP3   OH232915   0.882   3.052   6.798  0.1794  0.0835  0.2622
10991TIP3    H132916   0.945   3.071   6.867  0.8058 -0.4450 -0.1641
10991TIP3    H232917   0.904   2.964   6.768  0.3128  0.5413 -1.0351
10992TIP3   OH232918   0.244   3.261   5.632 -0.2205  0.1214 -0.3432
10992TIP3    H132919   0.192   3.290   5.557 -1.3177  0.0307  0.3773
10992TIP3    H232920   0.231   3.330   5.697  1.9590  0.9748 -0.7743
10993TIP3   OH232921   3.918   5.942   0.116 -0.5862 -0.4889 -0.3468
10993TIP3    H132922   3.838   5.890   0.121 -2.1053  1.4768 -2.9406
10993TIP3    H232923   3.894   6.027   0.152  1.2676 -0.8110  1.8186
10994TIP3   OH232924   2.986   7.838   2.172  0.0143  0.1531  1.1155
10994TIP3    H132925   2.898   7.871   2.187 -0.4868 -1.0363  0.8038
10994TIP3    H232926   2.978   7.743   2.177  1.1306  0.0020  0.3126
10995TIP3   OH232927   0.444   2.803   6.862  0.0465  0.7131  0.0570
10995TIP3    H132928   0.523   2.749   6.861 -0.1885  0.3658  0.2290
10995TIP3    H232929   0.455   2.863   6.788  0.8491  1.2126  0.5686
10996TIP3   OH232930   0.382   2.231   4.366 -0.1859 -0.2243  0.3131
10996TIP3    H132931   0.322   2.233   4.440  0.7879  1.1402  1.0740
10996TIP3    H232932   0.330   2.262   4.292 -1.0710 -1.2882  0.4784
10997TIP3   OH232933   6.551   1.119   0.557  0.8134  0.0733  0.7138
10997TIP3    H132934   6.643   1.146   0.557  0.2306  2.1169  1.8194
10997TIP3    H232935   6.539   1.079   0.643  0.6623 -0.1902  0.5699
10998TIP3   OH232936   4.376   7.473   1.868  0.3022  0.2567  0.0215
10998TIP3    H132937   4.292   7.450   1.908  0.0155  0.4401 -0.4729
10998TIP3    H232938   4.364   7.562   1.835  0.0984 -0.3623 -1.6371
10999TIP3   OH232939   1.303   3.959   5.701 -0.1652  0.3558  0.3767
10999TIP3    H132940   1.246   4.035   5.689 -0.6100  0.2886  1.9532
10999TIP3    H232941   1.378   3.976   5.644 -0.9872  1.2301 -0.4674
11000TIP3   OH232942   0.795   3.550   6.358  0.0213 -0.1585 -0.3043
11000TIP3    H132943   0.759   3.633   6.389  1.6440  0.5295 -0.2425
11000TIP3    H232944   0.755   3.484   6.415 -1.8855  0.4943 -0.8664
11001TIP3   OH232945   5.390   0.764   0.507  0.1632  0.0728  0.1704
11001TIP3    H132946   5.451   0.808   0.566  1.7503 -1.0375 -0.5950
11001TIP3    H232947   5.369   0.830   0.441 -0.3077  0.7965  1.0388
11002TIP3   OH232948   3.778   7.222   2.908 -0.3732  0.3784 -0.3491
11002TIP3    H132949   3.683   7.212   2.915 -0.3308  0.1284 -0.1108
11002TIP3    H232950   3.810   7.210   2.998 -0.1211  0.5128 -0.4200
11003TIP3   OH232951   0.788   3.623   4.678  0.4076 -0.1443 -0.1267
11003TIP3    H132952   0.831   3.540   4.698 -1.7531 -1.0699  0.7971
11003TIP3    H232953   0.695   3.605   4.688 -0.0764  2.5379  0.6450
11004TIP3   OH232954   6.506   1.273   1.188 -0.5983 -0.1919 -0.0469
11004TIP3    H132955   6.535   1.220   1.113  0.9293 -0.1714  0.5146
11004TIP3    H232956   6.454   1.343   1.148 -1.1587 -1.0899 -0.9447
11005TIP3   OH232957   5.392   0.253   1.701 -0.3746  0.0246  0.2404
11005TIP3    H132958   5.354   0.341   1.707  0.1440  0.3476 -0.9934
11005TIP3    H232959   5.472   0.265   1.649 -0.9393 -1.3660 -0.9782
11006TIP3   OH232960   6.187   0.119   0.014  0.0016 -0.0899  0.7049
11006TIP3    H132961   6.209   0.190  -0.047  2.6867 -1.7928 -0.4343
11006TIP3    H232962   6.223   0.148   0.098 -0.1931  0.5399  0.5731
11007TIP3   OH232963   3.229   6.484   1.622 -0.3374  0.1046 -0.0282
11007TIP3    H132964   3.181   6.405   1.600 -0.9574  0.9727 -1.8920
11007TIP3    H232965   3.160   6.549   1.640  0.1486  0.5820  0.1075
11008TIP3   OH232966   1.560   7.411   0.382 -0.1105 -0.4913 -0.2987
11008TIP3    H132967   1.646   7.450   0.400 -0.7465  1.4684 -1.3198
11008TIP3    H232968   1.579   7.331   0.334  1.2230 -1.1748  1.3071
11009TIP3   OH232969   5.876   1.290   1.378  0.3208 -0.2268  0.1064
11009TIP3    H132970   5.903   1.198   1.381  2.5416  0.3389 -1.6584
11009TIP3    H232971   5.939   1.336   1.433  0.5080  0.5304 -0.7341
11010TIP3   OH232972   5.672   0.535   1.021  0.0521  0.8345 -0.1718
11010TIP3    H132973   5.691   0.606   0.958 -2.9250  1.7293 -0.1325
11010TIP3    H232974   5.683   0.455   0.970 -1.3473  1.5158 -1.5982
11011TIP3   OH232975   7.398   1.669   0.146 -0.3581 -0.0201  0.4197
11011TIP3    H132976   7.360   1.679   0.234 -0.5414 -1.1497  0.4804
11011TIP3    H232977   7.477   1.722   0.147 -0.3699 -0.0177  1.2651
11012TIP3   OH232978   6.321   7.269   0.320  0.5556 -0.2418 -0.3711
11012TIP3    H132979   6.237   7.236   0.353  1.0439 -2.2270 -1.0378
11012TIP3    H232980   6.386   7.232   0.380  1.0040  0.7451 -0.2488
11013TIP3   OH232981   1.130   5.561   6.017  0.1627  0.3380 -0.9184
11013TIP3    H132982   1.192   5.489   6.030 -0.3975 -0.1190 -0.7329
11013TIP3    H232983   1.184   5.640   6.016  0.4034  0.3014  2.7657
11014TIP3   OH232984   0.512   5.289   6.676 -0.5546  0.1238  0.2129
11014TIP3    H132985   0.541   5.210   6.632  0.2984  1.0056 -0.8346
11014TIP3    H232986   0.588   5.317   6.728 -0.5946  0.6755 -0.0256
11015TIP3   OH232987   0.916   4.928   6.784  0.5746  0.2770 -0.7292
11015TIP3    H132988   0.877   4.985   6.849  0.0881 -0.8877  0.0161
11015TIP3    H232989   0.842   4.880   6.747  1.0663 -0.4477 -0.7781
11016TIP3   OH232990   7.298   0.890   0.638 -0.2239 -0.5513  0.3142
11016TIP3    H132991   7.356   0.887   0.713  0.4704 -1.0600 -0.2299
11016TIP3    H232992   7.328   0.818   0.582 -0.1138  0.4159 -0.8882
11017TIP3   OH232993   8.347   2.969   6.262  0.1382 -0.1721 -0.2619
11017TIP3    H132994   8.291   3.029   6.310 -2.7664 -1.9264 -1.3620
11017TIP3    H232995   8.335   2.992   6.170  1.1446 -0.6386 -0.5232
11018TIP3   OH232996   5.170   0.121   0.777  0.1873 -0.5504  0.1058
11018TIP3    H132997   5.261   0.099   0.756 -0.7052 -3.2110 -1.2743
11018TIP3    H232998   5.171   0.141   0.871  2.0836 -1.1660  0.2421
11019TIP3   OH232999   4.162   1.040   1.114  0.4493 -0.0096 -0.2130
11019TIP3    H133000   4.250   1.066   1.088  0.2105  1.9014  0.7506
11019TIP3    H233001   4.113   1.123   1.119 -1.5995 -1.1008 -1.4872
11020TIP3   OH233002   4.258   2.279   3.097  0.1465  0.3635 -0.6756
11020TIP3    H133003   4.290   2.311   3.012 -0.5262  0.2920 -0.9558
11020TIP3    H233004   4.322   2.212   3.123  0.0783  0.0288 -1.3651
11021TIP3   OH233005   1.691   1.311   4.777  0.4787  0.0627 -0.4361
11021TIP3    H133006   1.602   1.332   4.805  0.2161 -0.5467 -0.7786
11021TIP3    H233007   1.715   1.382   4.718 -0.0025 -0.0516 -0.7799
11022TIP3   OH233008   7.736   4.617   5.556 -0.0467  0.1768 -0.1914
11022TIP3    H133009   7.731   4.586   5.646  0.5622 -1.2579 -0.6464
11022TIP3    H233010   7.644   4.626   5.528 -0.2288  0.1435  0.3974
11023TIP3   OH233011   7.796   0.341   0.401 -0.7448 -0.4188  0.8546
11023TIP3    H133012   7.796   0.371   0.310 -0.4527  0.9980  1.3053
11023TIP3    H233013   7.831   0.252   0.398 -0.8801 -0.4307 -0.4294
11024TIP3   OH233014   0.218   1.111   0.621 -0.1173 -0.1749 -0.1382
11024TIP3    H133015   0.125   1.086   0.620  0.0821 -0.9586 -2.4217
11024TIP3    H233016   0.251   1.081   0.536  2.0626  0.7244  0.3782
11025TIP3   OH233017   8.311   6.764   5.236 -0.8595  0.0480 -0.1885
11025TIP3    H133018   8.288   6.752   5.144 -0.9125  0.6286 -0.2497
11025TIP3    H233019   8.242   6.719   5.285  0.9330 -3.1921 -0.4891
11026TIP3   OH233020   7.938   5.541   6.606 -0.4206 -0.0422 -0.0905
11026TIP3    H133021   7.888   5.526   6.525 -1.4595  1.0233  0.3385
11026TIP3    H233022   7.919   5.464   6.660 -1.5893  0.3569  0.0681
11027TIP3   OH233023   1.890   7.899   1.161  0.1887 -0.4321 -0.2693
11027TIP3    H133024   1.949   7.939   1.226  1.2404 -0.9790 -0.8829
11027TIP3    H233025   1.941   7.828   1.123 -1.6365 -2.3032  0.7112
11028TIP3   OH233026   2.855   4.260   6.306  0.2551  0.3421 -0.4032
11028TIP3    H133027   2.931   4.284   6.358  0.6773  0.4499 -1.0535
11028TIP3    H233028   2.881   4.280   6.216 -0.5703  0.4584 -0.6222
11029TIP3   OH233029   0.433   5.419   5.988 -0.4675 -0.0868  0.4742
11029TIP3    H133030   0.388   5.397   5.906  0.3389 -1.7226  0.4547
11029TIP3    H233031   0.525   5.430   5.962 -0.2549 -0.3532  1.1092
11030TIP3   OH233032   3.741   1.538   2.605 -0.6548  0.6275  0.2994
11030TIP3    H133033   3.778   1.624   2.627  1.7167 -0.2640 -0.0483
11030TIP3    H233034   3.724   1.543   2.511  1.9404 -0.1046 -0.2645
11031TIP3   OH233035   6.907   5.537   5.884 -0.0629  0.6474 -0.4860
11031TIP3    H133036   6.988   5.582   5.859  0.2795  0.4927  0.3137
11031TIP3    H233037   6.874   5.500   5.803  1.1386 -0.0409 -0.6768
11032TIP3   OH233038   7.545   1.351   0.187 -0.6802  0.0408 -0.0455
11032TIP3    H133039   7.585   1.276   0.141  0.3698  0.9208 -0.5951
11032TIP3    H233040   7.586   1.350   0.274 -0.1630  0.3772 -0.2840
11033TIP3   OH233041   1.014   2.289   5.870 -0.9276 -0.5193 -0.0167
11033TIP3    H133042   0.955   2.364   5.881 -0.5443 -0.5001  2.0267
11033TIP3    H233043   0.999   2.235   5.947 -1.4889 -2.7972 -1.6447
11034TIP3   OH233044   3.222   7.904   0.743  0.0646  0.2536  0.6664
11034TIP3    H133045   3.271   7.978   0.778  2.5733 -0.5202 -1.0854
11034TIP3    H233046   3.181   7.937   0.663  2.8934 -0.7275 -1.2623
11035TIP3   OH233047   2.127   8.009   1.291  0.0310 -0.2528  0.5048
11035TIP3    H133048   2.153   7.923   1.326 -1.4733 -1.5460 -1.4433
11035TIP3    H233049   2.195   8.029   1.226 -0.6148 -0.8414 -0.3559
11036TIP3   OH233050   3.747   2.367   6.523 -0.0872 -0.4068 -0.4527
11036TIP3    H133051   3.745   2.328   6.436  0.6435  0.7424 -0.9940
11036TIP3    H233052   3.812   2.317   6.571 -0.4170 -0.9737 -0.5907
11037TIP3   OH233053   6.625   1.012   1.019 -0.2200  0.8426  0.0421
11037TIP3    H133054   6.659   0.971   1.099  1.3884  1.0384 -0.5110
11037TIP3    H233055   6.537   0.977   1.009  0.7106 -1.6432  0.1925
11038TIP3   OH233056   7.816   2.997   6.537 -0.0636 -0.2569 -0.0465
11038TIP3    H133057   7.895   2.951   6.509 -0.6294  1.1562 -4.2716
11038TIP3    H233058   7.843   3.089   6.547 -0.7867 -0.0616  0.1810
11039TIP3   OH233059   1.140   2.055   5.413  0.0573 -0.1419  0.1911
11039TIP3    H133060   1.045   2.059   5.399  0.1069 -0.8310 -0.4204
11039TIP3    H233061   1.151   2.074   5.506 -0.6847 -0.0449  0.2683
11040TIP3   OH233062   0.351   5.162   6.240  0.4864  0.1028  0.4322
11040TIP3    H133063   0.283   5.107   6.280  2.5809 -2.3054  0.8301
11040TIP3    H233064   0.341   5.147   6.146  1.6661 -1.8088  0.5801
11041TIP3   OH233065   5.801   0.673   0.357 -0.3306  0.0754  0.1589
11041TIP3    H133066   5.861   0.679   0.432 -0.7831 -1.7166  0.6951
11041TIP3    H233067   5.859   0.660   0.282  0.0077 -0.9418  0.5844
11042TIP3   OH233068   6.083   2.900   1.472  0.5162  0.2160 -0.3118
11042TIP3    H133069   6.167   2.855   1.471  0.7651  0.6739 -0.4150
11042TIP3    H233070   6.081   2.950   1.390 -0.1634 -0.3487 -0.6461
11043TIP3   OH233071   0.728   5.120   4.664  0.4782 -0.2477 -0.9088
11043TIP3    H133072   0.721   5.053   4.595 -1.7837 -0.6732 -0.3145
11043TIP3    H233073   0.678   5.084   4.737 -0.8207  2.0909 -0.5929
11044TIP3   OH233074   1.403   5.642   6.733 -0.5339  0.1604 -0.0340
11044TIP3    H133075   1.365   5.663   6.647 -0.1884 -2.0311 -0.7494
11044TIP3    H233076   1.497   5.637   6.716 -0.3116  1.2479  0.8193
11045TIP3   OH233077   0.589   3.241   5.933  0.1036  0.2107  0.2244
11045TIP3    H133078   0.621   3.242   6.023 -1.6278  2.5075  0.8580
11045TIP3    H233079   0.502   3.202   5.939 -0.2179  0.8332 -0.3930
11046TIP3   OH233080   0.570   3.963   6.157  0.2210  0.8708 -0.4897
11046TIP3    H133081   0.597   4.054   6.173 -1.6214  1.0037  2.2648
11046TIP3    H233082   0.612   3.914   6.228 -2.0843  0.2331  0.4728
11047TIP3   OH233083   6.369   0.045   3.300 -0.0561 -0.3150 -0.0626
11047TIP3    H133084   6.462   0.053   3.279  0.5708  1.1226  2.9230
11047TIP3    H233085   6.363  -0.033   3.355 -0.7840 -1.0314 -1.1629
11048TIP3   OH233086   6.609   2.138   1.482  0.0598  0.1522 -0.6032
11048TIP3    H133087   6.562   2.179   1.410 -0.1767 -0.0000 -0.5382
11048TIP3    H233088   6.549   2.071   1.515  0.2943  0.0045 -0.4719
11049TIP3   OH233089   1.864   4.839   6.593 -0.2117  0.0441 -0.2235
11049TIP3    H133090   1.777   4.870   6.616 -0.2475 -0.0294 -0.2598
11049TIP3    H233091   1.919   4.867   6.666 -0.4861 -0.9144  0.3569
11050TIP3   OH233092   0.586   4.336   6.312 -0.2057  0.3825 -0.3215
11050TIP3    H133093   0.522   4.266   6.316 -1.6463  1.5292 -2.4589
11050TIP3    H233094   0.669   4.293   6.291 -0.7297 -0.8444  0.1081
11051TIP3   OH233095   3.400   7.961   2.447  0.0592 -0.0069  0.4949
11051TIP3    H133096   3.342   7.959   2.372 -0.3901  0.8832  0.8149
11051TIP3    H233097   3.447   8.044   2.439  0.5266 -0.2398  0.8035
11052TIP3   OH233098   2.900   7.764   2.910  0.6606  0.1004  0.2007
11052TIP3    H133099   2.950   7.727   2.838  0.8046  0.8362 -0.0813
11052TIP3    H233100   2.940   7.726   2.989  1.1346  0.0579 -0.0589
11053TIP3   OH233101   2.154   4.698   6.572 -0.1388  0.2041  0.0858
11053TIP3    H133102   2.073   4.738   6.540 -0.5760 -0.4622  0.3330
11053TIP3    H233103   2.214   4.771   6.585 -1.0577  0.8242  0.9272
11054TIP3   OH233104   2.622   3.237   6.441 -0.3407 -0.4687 -0.0827
11054TIP3    H133105   2.599   3.255   6.532  0.1194  0.1759 -0.0860
11054TIP3    H233106   2.595   3.316   6.394  2.3975  0.5774  0.0108
11055TIP3   OH233107   6.718   0.597   1.302  0.5154  0.2712 -0.2406
11055TIP3    H133108   6.651   0.558   1.358  1.5240  0.5534  1.1834
11055TIP3    H233109   6.799   0.592   1.353  1.2710  1.4152 -1.2788
11056TIP3   OH233110   4.658   7.001   0.124 -0.4210  0.1252  0.6968
11056TIP3    H133111   4.620   7.086   0.146 -1.0127  0.1023 -0.1777
11056TIP3    H233112   4.677   7.008   0.030  1.6013  0.0726  1.0844
11057TIP3   OH233113   2.719   5.733   5.897  0.2008 -0.4322  0.4718
11057TIP3    H133114   2.644   5.791   5.884  1.1821  1.2972  2.2384
11057TIP3    H233115   2.683   5.656   5.941 -0.5764  0.2859  1.1083
11058TIP3   OH233116   1.267   7.750   2.401  0.4587  0.3511  0.5951
11058TIP3    H133117   1.209   7.684   2.438  0.8397  0.9674  2.3793
11058TIP3    H233118   1.257   7.742   2.307 -0.8379 -1.0406  0.8399
11059TIP3   OH233119   5.157   1.879   2.000  0.0855  0.7209 -0.0668
11059TIP3    H133120   5.164   1.974   1.996 -2.2002  0.9683  0.5169
11059TIP3    H233121   5.067   1.863   2.031  0.8498 -1.5909  1.1425
11060TIP3   OH233122   4.988   6.599   2.059  0.1047  0.5541  0.1212
11060TIP3    H133123   4.928   6.549   2.115 -0.3561  0.0424 -0.8137
11060TIP3    H233124   4.931   6.652   2.004  0.5431  0.7414 -0.1545
11061TIP3   OH233125   7.806   1.817   1.081 -0.4091  0.1006 -0.0990
11061TIP3    H133126   7.811   1.825   1.177  2.0541  0.0502 -0.1880
11061TIP3    H233127   7.811   1.907   1.050  0.7384  0.0043 -0.2233
11062TIP3   OH233128   5.633   1.314   1.529 -0.3150 -0.5051  0.3462
11062TIP3    H133129   5.658   1.325   1.621 -0.8873  2.2533  0.2060
11062TIP3    H233130   5.716   1.312   1.482 -0.0549 -0.8084  0.8155
11063TIP3   OH233131   0.670   2.472   2.201 -0.3705 -0.5183  0.1603
11063TIP3    H133132   0.633   2.383   2.199 -0.8631 -0.3233  0.5471
11063TIP3    H233133   0.729   2.472   2.277  1.5161 -1.2526 -1.2547
11064TIP3   OH233134   5.306   7.229   1.387 -0.1221 -0.4692  0.1391
11064TIP3    H133135   5.241   7.193   1.326  0.6613 -2.0947  0.2410
11064TIP3    H233136   5.377   7.165   1.386  0.4052  0.0803  1.8677
11065TIP3   OH233137   6.830   2.213   1.907 -0.0748 -0.0686  0.0662
11065TIP3    H133138   6.739   2.186   1.891 -0.1326 -0.2491  0.6761
11065TIP3    H233139   6.877   2.131   1.922 -0.2473  0.1448  1.9157
11066TIP3   OH233140   0.589   1.406   0.981 -0.2024  0.1318 -0.0329
11066TIP3    H133141   0.588   1.311   0.972  0.5259 -0.1095  2.0607
11066TIP3    H233142   0.681   1.430   0.974 -0.1748  0.4587  1.3555
11067TIP3   OH233143   5.280   7.231   0.223 -0.2331  0.2162 -0.5571
11067TIP3    H133144   5.274   7.193   0.311 -1.4943  0.1337 -0.6703
11067TIP3    H233145   5.285   7.326   0.238  0.7901  0.1434 -0.3621
11068TIP3   OH233146   4.814   7.667   0.738  0.2459  0.1534 -0.4311
11068TIP3    H133147   4.820   7.680   0.832  2.3697  3.2741 -0.9377
11068TIP3    H233148   4.750   7.732   0.708 -0.1133 -0.5477 -1.2365
11069TIP3   OH233149   1.245   4.576   6.330 -0.3416 -0.4749  0.2500
11069TIP3    H133150   1.273   4.666   6.346 -1.2951 -0.0647 -0.3277
11069TIP3    H233151   1.326   4.528   6.314  0.0945  0.5353 -0.6715
11070TIP3   OH233152   1.710   4.231   5.287  0.0308 -0.2950  0.5496
11070TIP3    H133153   1.804   4.233   5.304 -0.3744  1.0042  2.8563
11070TIP3    H233154   1.702   4.187   5.202  2.6852 -0.6235  0.4207
11071TIP3   OH233155   2.055   2.562   5.476 -0.4669  0.5901  0.1854
11071TIP3    H133156   2.094   2.634   5.426 -2.4836  1.2287 -0.5483
11071TIP3    H233157   2.057   2.591   5.567  1.8724  0.0598  0.3373
11072TIP3   OH233158   5.539   0.552   0.314  0.1595  0.6715  0.2577
11072TIP3    H133159   5.611   0.614   0.328 -0.1735  1.0454  0.3388
11072TIP3    H233160   5.460   0.603   0.334  0.0261 -0.5371  2.9259
11073TIP3   OH233161   7.635   0.888   0.579  0.3242 -0.2660  0.1644
11073TIP3    H133162   7.565   0.937   0.537  0.0704 -0.3371  0.5024
11073TIP3    H233163   7.595   0.805   0.604  0.6652 -0.5140 -0.1097
11074TIP3   OH233164   2.215   4.280   6.898 -0.4885  0.1696  0.2792
11074TIP3    H133165   2.290   4.221   6.891 -0.0856  0.7357 -0.2766
11074TIP3    H233166   2.152   4.246   6.835 -0.6794 -0.2834  0.7147
11075TIP3   OH233167   1.981   3.721   6.299 -0.3631  0.1262  0.2690
11075TIP3    H133168   2.031   3.799   6.275  0.8559 -1.4063 -2.4990
11075TIP3    H233169   1.899   3.729   6.251 -0.1093 -0.3967 -0.2701
11076TIP3   OH233170   3.411   6.781   1.135  0.4926  0.0833  0.3775
11076TIP3    H133171   3.447   6.772   1.224  2.4117  1.7431 -0.1859
11076TIP3    H233172   3.365   6.698   1.119 -0.0179 -0.1868  2.9641
11077TIP3   OH233173   2.038   7.881   0.840  0.1832  0.2642 -0.0281
11077TIP3    H133174   2.113   7.899   0.897 -0.2685  2.7263 -0.1266
11077TIP3    H233175   2.073   7.888   0.751  0.0617  0.3860 -0.0669
11078TIP3   OH233176   0.313   2.700   5.353 -0.3826  0.3423 -0.0960
11078TIP3    H133177   0.360   2.783   5.350 -0.2591  0.2042 -2.9598
11078TIP3    H233178   0.261   2.705   5.434  1.7760  1.9857  1.2325
11079TIP3   OH233179   2.081   4.109   6.725  0.1752 -0.8132 -0.0200
11079TIP3    H133180   2.114   4.045   6.663  1.8489 -0.4033  0.4365
11079TIP3    H233181   1.999   4.141   6.686  0.8974 -0.9992 -1.7027
11080TIP3   OH233182   3.071   4.282   6.497  0.0383 -0.4439 -0.3831
11080TIP3    H133183   3.126   4.358   6.515 -1.1372  0.7898 -1.9055
11080TIP3    H233184   3.025   4.265   6.579  1.3165 -0.3776  0.3624
11081TIP3   OH233185   6.320   0.425   1.133 -0.3975 -0.5271  0.2058
11081TIP3    H133186   6.235   0.456   1.164  0.5997  2.3396  0.2455
11081TIP3    H233187   6.373   0.417   1.213  0.4080  1.1275 -0.1477
11082TIP3   OH233188   7.023   1.645   0.618  0.0545  0.3355  0.0969
11082TIP3    H133189   7.033   1.611   0.529 -2.8446 -1.1021  0.2876
11082TIP3    H233190   7.059   1.734   0.613  1.5665 -0.3450 -2.0403
11083TIP3   OH233191   5.928   4.878  -0.008  0.1226  0.1810 -0.0293
11083TIP3    H133192   5.993   4.921  -0.064  0.1954 -1.1902 -1.0227
11083TIP3    H233193   5.946   4.913   0.079  0.3572  1.9533 -0.7498
11084TIP3   OH233194   3.523   6.455   0.683 -0.0468 -0.1166  0.0116
11084TIP3    H133195   3.591   6.432   0.747 -1.1462 -0.8240  0.9440
11084TIP3    H233196   3.490   6.371   0.652  0.2167  0.2280 -1.2168
11085TIP3   OH233197   6.882   1.710   1.651 -0.3483  0.4011 -0.4096
11085TIP3    H133198   6.800   1.708   1.700 -0.6720 -0.3070 -0.9695
11085TIP3    H233199   6.935   1.777   1.695 -0.5059 -0.4491  1.1162
11086TIP3   OH233200   7.855   4.097   6.470  0.2804  0.1616  0.2235
11086TIP3    H133201   7.849   4.175   6.414 -0.9307  0.9781  1.4827
11086TIP3    H233202   7.823   4.026   6.415  0.5201  0.6949 -0.6239
11087TIP3   OH233203   2.861   5.230   0.950  0.4211  0.5598 -0.6171
11087TIP3    H133204   2.876   5.283   0.872 -0.2815 -0.9871 -1.8287
11087TIP3    H233205   2.804   5.159   0.921 -0.3920  0.3204  1.4574
11088TIP3   OH233206   8.350   2.839   0.216 -0.4644 -0.0010 -0.2424
11088TIP3    H133207   8.395   2.838   0.131  0.9025  0.5787  0.4659
11088TIP3    H233208   8.352   2.931   0.243 -0.1065 -0.3144  0.8278
11089TIP3   OH233209   6.947   0.308   1.709 -1.0450 -0.0863  0.5016
11089TIP3    H133210   6.917   0.278   1.795 -0.4884 -0.4347  0.5719
11089TIP3    H233211   7.042   0.310   1.716 -1.0400  0.9872  0.2662
11090TIP3   OH233212   0.308   1.392   0.586  0.0770  0.1585  0.1362
11090TIP3    H133213   0.237   1.441   0.545  0.7284 -0.2166 -1.4824
11090TIP3    H233214   0.267   1.312   0.618 -0.0159 -0.6809 -1.9967
11091TIP3   OH233215   0.924   4.479   6.938 -0.0453  0.1207  1.1769
11091TIP3    H133216   0.993   4.522   6.888 -0.2667 -0.3711  0.4479
11091TIP3    H233217   0.941   4.386   6.928 -2.0407 -0.0781 -0.8135
11092TIP3   OH233218   3.039   2.299   6.370 -0.3415 -0.0531  0.2762
11092TIP3    H133219   2.952   2.336   6.383 -0.3526 -0.0487  0.1900
11092TIP3    H233220   3.079   2.302   6.456 -0.6014 -0.5020  0.4156
11093TIP3   OH233221   2.310   7.863   0.956 -0.2227  0.6144 -0.0450
11093TIP3    H133222   2.322   7.918   1.033 -0.6809 -1.7606  1.7669
11093TIP3    H233223   2.393   7.818   0.945 -0.8348 -0.6199  0.3304
11094TIP3   OH233224   6.823   0.634   0.203  0.2073  0.0055  0.1069
11094TIP3    H133225   6.887   0.619   0.273 -1.4067  1.2121  1.9156
11094TIP3    H233226   6.836   0.726   0.179  0.1422 -0.1584 -0.5711
11095TIP3   OH233227   4.833   2.244   2.268  0.1935 -0.3681  0.8911
11095TIP3    H133228   4.797   2.229   2.180 -0.6016 -0.9763  1.3144
11095TIP3    H233229   4.831   2.158   2.310 -1.5144  0.2919  2.2537
11096TIP3   OH233230   3.957   7.420   2.802 -0.1477 -0.2197  0.4487
11096TIP3    H133231   3.865   7.394   2.815 -0.1915 -0.4690 -0.3718
11096TIP3    H233232   3.984   7.451   2.888 -0.5919 -1.4353  1.0496
11097TIP3   OH233233   6.257   0.617   0.706 -0.6321  0.2994 -0.3157
11097TIP3    H133234   6.317   0.552   0.743 -0.8372 -0.0821 -0.6413
11097TIP3    H233235   6.216   0.658   0.782 -0.4699  0.0729 -0.1056
11098TIP3   OH233236   6.390   0.818   1.513 -0.5898 -0.4389 -0.0903
11098TIP3    H133237   6.332   0.888   1.482  0.7492  0.7901  0.1012
11098TIP3    H233238   6.381   0.820   1.608  0.5696  0.4834  0.0078
11099TIP3   OH233239   4.413   7.559   0.513 -0.4359  0.0379 -0.3269
11099TIP3    H133240   4.359   7.529   0.440 -0.5568 -1.0645  0.1986
11099TIP3    H233241   4.363   7.535   0.591  0.6734 -0.7078  0.1572
11100TIP3   OH233242   4.616   5.978   0.145 -0.3157 -0.0203  0.9371
11100TIP3    H133243   4.578   5.892   0.159  1.7320 -1.0180  0.5538
11100TIP3    H233244   4.572   6.011   0.066 -1.2167 -0.6425  1.1763
11101TIP3   OH233245   2.019   3.991   6.168 -0.1151  0.3725 -0.4191
11101TIP3    H133246   2.093   4.013   6.112  0.8498 -0.0930  0.6582
11101TIP3    H233247   1.962   4.068   6.164  0.5243  0.8171 -1.0920
11102TIP3   OH233248   6.508   0.853   0.688  0.5468 -0.0896  0.3782
11102TIP3    H133249   6.564   0.786   0.729  0.5547 -0.0365  0.4555
11102TIP3    H233250   6.445   0.876   0.756  0.6539  0.1094  0.4104
11103TIP3   OH233251   5.322   7.503   0.319 -0.2986 -0.8376  0.6651
11103TIP3    H133252   5.296   7.581   0.369 -0.1425 -0.9255  0.8842
11103TIP3    H233253   5.417   7.508   0.315 -0.3232 -0.7142  0.1807
11104TIP3   OH233254   2.385   6.440   1.459 -0.3231  0.7616 -0.1276
11104TIP3    H133255   2.409   6.348   1.454  0.5939  0.9280  1.0595
11104TIP3    H233256   2.372   6.466   1.367  0.1195 -0.3511 -0.5176
11105TIP3   OH233257   2.489   2.265   5.920  0.4366 -0.2105 -0.2130
11105TIP3    H133258   2.414   2.257   5.978 -0.0298 -1.1933 -0.9345
11105TIP3    H233259   2.492   2.358   5.898 -0.3044 -0.0909  0.1620
11106TIP3   OH233260   1.406   2.254   5.934  0.0951  0.1387  0.3296
11106TIP3    H133261   1.412   2.212   5.848  0.4110 -0.2868  0.5592
11106TIP3    H233262   1.485   2.225   5.980  0.0104  0.5022  0.7037
11107TIP3   OH233263   6.100   0.361   0.715 -0.0428  0.0645  0.3502
11107TIP3    H133264   6.050   0.345   0.795  1.0039 -2.0974  0.5936
11107TIP3    H233265   6.166   0.426   0.740 -1.7988  1.8822  0.3752
11108TIP3   OH233266   5.354   0.310   1.274 -0.6898  0.2375  0.3168
11108TIP3    H133267   5.388   0.396   1.250  0.3143 -0.1045  0.5254
11108TIP3    H233268   5.377   0.253   1.201  0.3827 -0.2977  1.0668
11109TIP3   OH233269   1.087   4.275   5.222 -0.3787  0.0951 -0.1818
11109TIP3    H133270   1.091   4.225   5.140 -1.3167  1.1519 -0.8855
11109TIP3    H233271   1.172   4.320   5.226  0.1083 -0.8304 -0.0030
11110TIP3   OH233272   5.915   2.899   0.516 -0.5755 -0.2813  0.1905
11110TIP3    H133273   5.831   2.945   0.509 -0.2168  0.4112  0.3765
11110TIP3    H233274   5.965   2.927   0.440 -0.1817 -0.0037  0.5493
11111TIP3   OH233275   5.475   6.060   0.102 -0.2573 -0.5439 -0.2639
11111TIP3    H133276   5.422   5.998   0.154 -0.0421 -0.3556  0.1869
11111TIP3    H233277   5.530   6.103   0.167  1.5050 -1.7848 -0.8890
11112TIP3   OH233278   8.170   2.035   1.261  0.1886  0.1760 -0.5723
11112TIP3    H133279   8.140   1.991   1.182  0.2816 -0.3176 -0.3377
11112TIP3    H233280   8.218   1.967   1.309 -2.3789 -0.3676  1.3248
11113TIP3   OH233281   3.437   5.454   5.043  0.3778  0.3941 -0.2846
11113TIP3    H133282   3.479   5.453   5.129  0.5104 -1.9315 -0.3384
11113TIP3    H233283   3.344   5.442   5.062  0.4025 -0.0791 -0.4663
11114TIP3   OH233284   4.010   3.412   5.056  0.0987  0.7161 -0.0188
11114TIP3    H133285   3.944   3.390   5.122  0.4877 -0.1401  0.0885
11114TIP3    H233286   4.040   3.499   5.080 -1.1686  1.2281 -0.2108
11115TIP3   OH233287   0.390   4.164   5.658 -0.4721 -0.3395  0.2893
11115TIP3    H133288   0.425   4.252   5.672 -4.7282  1.5622 -0.3959
11115TIP3    H233289   0.383   4.126   5.745 -0.7147  0.8555  0.7969
11116TIP3   OH233290   5.715   4.262   5.570 -0.5766  1.1229 -0.2500
11116TIP3    H133291   5.760   4.284   5.489 -1.3905 -0.0750 -1.0471
11116TIP3    H233292   5.782   4.222   5.625 -0.5422 -0.2501 -1.2638
11117TIP3   OH233293   2.164   6.154   6.534  0.2658  0.0576 -0.2263
11117TIP3    H133294   2.111   6.081   6.500 -0.1783  0.9794 -1.5574
11117TIP3    H233295   2.249   6.115   6.553 -0.2751 -1.0199  0.0119
11118TIP3   OH233296   5.472   7.946   0.306  0.1512  0.1136 -0.4087
11118TIP3    H133297   5.522   7.871   0.338 -2.9451 -1.3501  1.2592
11118TIP3    H233298   5.421   7.912   0.233 -0.5109  0.8481 -0.3007
11119TIP3   OH233299   7.830   2.414   5.512 -0.3838 -0.5176 -0.4142
11119TIP3    H133300   7.897   2.385   5.450  1.7345  1.1859  1.0011
11119TIP3    H233301   7.833   2.510   5.508 -1.7556 -0.3990  0.7228
11120TIP3   OH233302   8.434   0.453   0.230 -0.0749 -0.1332  0.4885
11120TIP3    H133303   8.368   0.411   0.174 -1.3469  0.5483  1.4399
11120TIP3    H233304   8.517   0.434   0.187 -0.7698 -2.0444 -0.1000
11121TIP3   OH233305   2.464   6.642   6.303 -0.3828 -0.5685 -0.0688
11121TIP3    H133306   2.547   6.644   6.350 -1.1214  0.1936  1.2513
11121TIP3    H233307   2.413   6.574   6.346 -1.2452  0.4666  0.5971
11122TIP3   OH233308   1.885   0.347   0.465 -0.3513  0.2565 -0.2588
11122TIP3    H133309   1.977   0.364   0.488  0.1112 -0.7960 -1.2470
11122TIP3    H233310   1.835   0.373   0.542  1.0912 -2.7506  1.7719
11123TIP3   OH233311   1.998   5.860   5.061 -0.4379  0.3601  0.0213
11123TIP3    H133312   1.924   5.851   5.121  1.3044  0.4478  2.2211
11123TIP3    H233313   2.071   5.889   5.116  1.4801 -0.5862 -1.9372
11124TIP3   OH233314   1.698   5.144   4.331  0.1683  0.2156  0.2016
11124TIP3    H133315   1.684   5.118   4.422 -0.1333  1.1963  0.4458
11124TIP3    H233316   1.706   5.062   4.284  1.6391 -0.2993  1.3126
11125TIP3   OH233317   8.240   0.950   0.265  0.3161 -0.1392  0.1775
11125TIP3    H133318   8.297   1.008   0.214 -1.2460 -0.1243 -1.6002
11125TIP3    H233319   8.183   1.009   0.313  1.5800 -0.1609  1.7675
11126TIP3   OH233320   8.180   2.212   0.341 -0.2730  0.2202  0.1040
11126TIP3    H133321   8.094   2.192   0.303  0.0475  0.9311 -1.0068
11126TIP3    H233322   8.240   2.213   0.266  0.6242  0.1867  0.8148
11127TIP3   OH233323   4.328   4.214   5.804 -0.1429  0.4431  0.4015
11127TIP3    H133324   4.285   4.132   5.779 -1.0220  1.5499 -1.9207
11127TIP3    H233325   4.261   4.281   5.788  2.0683  2.0981 -2.3101
11128TIP3   OH233326   2.724   3.961   5.715  0.1354 -0.2271 -0.5037
11128TIP3    H133327   2.654   3.969   5.780 -1.9093 -1.9301 -2.4072
11128TIP3    H233328   2.779   3.890   5.746 -1.2075 -1.4720 -0.9180
11129TIP3   OH233329   1.846   2.147   5.530  0.1346  0.2881 -0.2429
11129TIP3    H133330   1.849   2.230   5.482  1.0107  0.6623  0.4416
11129TIP3    H233331   1.917   2.096   5.492  1.5702  1.0060  1.3728
11130TIP3   OH233332   1.142   4.475   6.680  0.2692  0.6515 -0.2115
11130TIP3    H133333   1.179   4.423   6.609 -0.8670  0.1531 -0.4422
11130TIP3    H233334   1.213   4.483   6.744  0.5105 -1.0225 -0.2643
11131TIP3   OH233335   4.544   3.356   6.340  0.7661  0.0346  0.0201
11131TIP3    H133336   4.451   3.360   6.317  0.4423  0.7864  1.4484
11131TIP3    H233337   4.589   3.351   6.255 -0.5736 -0.5767 -0.6764
11132TIP3   OH233338   1.431   5.472   4.469 -0.2288  0.0663 -0.1055
11132TIP3    H133339   1.497   5.472   4.538 -2.0222 -1.5542  1.6745
11132TIP3    H233340   1.375   5.547   4.489 -0.2322  0.1205 -0.3162
11133TIP3   OH233341   7.462   1.105   0.027 -0.4579 -0.6103 -1.3269
11133TIP3    H133342   7.498   1.107   0.116 -1.3324  0.7033 -0.9928
11133TIP3    H233343   7.526   1.056  -0.023  0.4079 -0.7386 -0.1217
11134TIP3   OH233344   0.040   4.092   6.483  0.2151 -0.2295 -0.6239
11134TIP3    H133345   0.017   4.087   6.576  1.5904  0.8299 -0.2039
11134TIP3    H233346   0.022   4.183   6.459 -0.3884 -0.5683 -1.4750
11135TIP3   OH233347   0.598   6.967   6.879  0.5753 -0.4541  0.8062
11135TIP3    H133348   0.550   6.930   6.805  1.4566 -0.7010  0.3524
11135TIP3    H233349   0.598   6.899   6.945  2.8255 -1.5869 -0.2973
11136TIP3   OH233350   4.293   3.596   6.083 -0.1589 -1.0514  0.3362
11136TIP3    H133351   4.348   3.529   6.041 -0.1686 -2.5898  2.7016
11136TIP3    H233352   4.336   3.679   6.060  1.6498 -2.0499 -0.0451
11137TIP3   OH233353   1.459   3.414   6.516  0.3936  0.0120  0.5884
11137TIP3    H133354   1.397   3.477   6.551 -1.5722 -0.5162 -1.7691
11137TIP3    H233355   1.502   3.460   6.444 -0.7764 -1.1334 -0.9006
11138TIP3   OH233356   4.165   4.797   5.852 -0.2901 -0.3578  0.2351
11138TIP3    H133357   4.125   4.879   5.879 -1.9544 -0.4434 -1.8586
11138TIP3    H233358   4.104   4.729   5.883 -0.6866 -0.5968 -1.0143
11139TIP3   OH233359   2.617   0.329   0.245  0.0929  0.4831  0.0410
11139TIP3    H133360   2.599   0.357   0.334  1.9920  1.9161 -0.0003
11139TIP3    H233361   2.549   0.372   0.192 -0.4961  0.3411  0.6758
11140TIP3   OH233362   0.844   2.943   1.335  0.3553 -0.2772 -0.3232
11140TIP3    H133363   0.831   3.036   1.354 -0.2548 -0.6109  0.9814
11140TIP3    H233364   0.899   2.912   1.406 -3.6178 -2.0147  2.1698
11141TIP3   OH233365   3.163   4.519   6.581 -0.6278  0.5206  0.2041
11141TIP3    H133366   3.114   4.584   6.631  0.2739  1.4690 -0.1266
11141TIP3    H233367   3.215   4.473   6.647  0.1460  1.4018  0.2225
11142TIP3   OH233368   5.677   5.499   6.103 -0.4255  0.0365  0.4051
11142TIP3    H133369   5.605   5.449   6.065 -0.2116 -0.9083  1.2198
11142TIP3    H233370   5.703   5.448   6.180  0.4599  0.8847  0.6698
11143TIP3   OH233371   4.776   3.983   5.576  0.4533  0.1744 -0.1014
11143TIP3    H133372   4.856   3.963   5.528  1.7585  0.6532  1.8083
11143TIP3    H233373   4.772   3.917   5.645 -1.2856 -0.3811 -0.7213
11144TIP3   OH233374   1.270   4.259   6.442 -0.1005 -0.5064  0.4905
11144TIP3    H133375   1.291   4.258   6.349 -0.3610  2.2859  0.3626
11144TIP3    H233376   1.329   4.324   6.479 -1.4287 -0.0767  1.9077
11145TIP3   OH233377   2.573   5.997   6.414 -0.0920  0.1532 -0.5527
11145TIP3    H133378   2.565   6.060   6.342 -2.4776 -1.6802 -1.9879
11145TIP3    H233379   2.651   6.024   6.461 -0.5393  3.6214 -1.6585
11146TIP3   OH233380   3.276   3.947   6.522  0.2448 -0.2934 -0.6074
11146TIP3    H133381   3.196   3.896   6.534  0.1880 -0.2754 -0.8934
11146TIP3    H233382   3.267   3.985   6.434  0.5206 -0.2102 -0.5999
11147TIP3   OH233383   8.210   0.347   0.080 -0.1084 -0.0777 -0.0956
11147TIP3    H133384   8.206   0.399   0.000 -1.6338  0.5484  0.3819
11147TIP3    H233385   8.175   0.261   0.055 -0.4721  0.0806 -0.1348
11148TIP3   OH233386   1.140   1.119   0.393 -0.9236 -0.0140 -0.3358
11148TIP3    H133387   1.083   1.043   0.406  0.2296 -0.7358  0.5124
11148TIP3    H233388   1.219   1.084   0.352 -0.3996  0.7205  0.0330
11149TIP3   OH233389   2.788   4.358   6.670 -0.2830 -0.5729 -0.7096
11149TIP3    H133390   2.719   4.373   6.734  0.8317  0.0973  0.3356
11149TIP3    H233391   2.837   4.283   6.704  0.5451  0.0243 -0.5668
11150TIP3   OH233392   2.604   0.057   1.029  0.3965  0.3711  0.4203
11150TIP3    H133393   2.519   0.013   1.026 -0.2946  1.6859  0.5154
11150TIP3    H233394   2.630   0.064   0.937 -0.7373  2.1203  0.2056
11151TIP3   OH233395   5.944   5.057   4.942  0.0634 -0.1242 -0.0182
11151TIP3    H133396   5.964   5.001   4.867 -0.2436 -0.0479 -0.1562
11151TIP3    H233397   5.999   5.134   4.930 -0.8525  0.4180 -0.7903
11152TIP3   OH233398   4.982   7.268   1.955 -0.2635 -0.2976  0.4862
11152TIP3    H133399   4.992   7.361   1.938 -0.6734 -0.3227  0.0959
11152TIP3    H233400   4.963   7.230   1.869  0.2483 -0.7875  0.5863
11153TIP3   OH233401   2.776   6.109   6.544  0.2831  0.3786  0.4063
11153TIP3    H133402   2.725   6.189   6.558 -1.2163 -0.4634 -0.1511
11153TIP3    H233403   2.806   6.084   6.631  0.3287  1.2645  0.6476
11154TIP3   OH233404   2.075   0.613   0.476  0.0956 -0.3936 -0.0479
11154TIP3    H133405   1.983   0.600   0.499 -0.1790  0.5970 -0.5615
11154TIP3    H233406   2.118   0.532   0.504 -1.2701 -1.7544 -1.6879
11155TIP3   OH233407   1.236   3.097   4.606  0.4370  0.4335  0.8676
11155TIP3    H133408   1.159   3.090   4.550  2.7788 -1.6321 -2.2847
11155TIP3    H233409   1.264   3.188   4.598  0.8356  0.1197 -1.5278
11156TIP3   OH233410   2.524   5.250   5.354  0.8151  0.2574 -0.3050
11156TIP3    H133411   2.465   5.324   5.366  0.1555 -0.2579 -0.3421
11156TIP3    H233412   2.516   5.229   5.261  0.9959  0.1421 -0.2933
11157TIP3   OH233413   1.749   7.682   5.039 -1.0594  0.1698  0.2577
11157TIP3    H133414   1.662   7.670   5.077 -0.9230 -0.0971  0.4859
11157TIP3    H233415   1.802   7.714   5.112 -0.8182 -0.2555  0.2721
11158TIP3   OH233416   1.853   5.564   6.646 -0.3881 -0.0033  0.2054
11158TIP3    H133417   1.871   5.533   6.735  0.2218  0.1156  0.1315
11158TIP3    H233418   1.761   5.545   6.631 -0.2091 -1.0797  0.4350
11159TIP3   OH233419   2.616   6.611   5.853 -0.5561  0.0120  0.2225
11159TIP3    H133420   2.643   6.522   5.876  0.7391 -0.1954 -2.0014
11159TIP3    H233421   2.678   6.638   5.785 -2.1046  1.9138 -0.4610
11160TIP3   OH233422   4.597   5.509   5.808  0.7533 -0.0005 -0.0897
11160TIP3    H133423   4.623   5.437   5.751  2.0828  1.2726 -1.1138
11160TIP3    H233424   4.538   5.468   5.871  0.6100 -1.7755 -1.3113
11161TIP3   OH233425   2.188   5.556   5.258 -0.5286 -0.1915 -0.0264
11161TIP3    H133426   2.212   5.523   5.345  0.1458 -0.9455 -0.4810
11161TIP3    H233427   2.106   5.603   5.272  0.3930  1.0704  1.2967
11162TIP3   OH233428   1.521   2.395   0.809  0.5674 -0.6729  0.2516
11162TIP3    H133429   1.564   2.466   0.762 -0.6029 -0.3196 -0.3054
11162TIP3    H233430   1.543   2.317   0.759 -0.0569 -0.3966 -0.4526
11163TIP3   OH233431   2.052   3.454   5.297  0.1975 -0.3229 -0.5967
11163TIP3    H133432   2.081   3.544   5.313  0.5815 -0.7713  1.3478
11163TIP3    H233433   2.127   3.400   5.325 -1.0735 -1.3478  0.9075
11164TIP3   OH233434   4.663   5.126   5.411  0.1545  0.0828  0.3200
11164TIP3    H133435   4.577   5.107   5.449 -0.3074 -2.7686 -1.9896
11164TIP3    H233436   4.725   5.079   5.467  0.1207  1.2389  1.3407
11165TIP3   OH233437   4.243   5.420   6.202 -0.6532 -0.1205  0.3045
11165TIP3    H133438   4.285   5.338   6.229  0.0379  0.5017  1.1479
11165TIP3    H233439   4.149   5.399   6.202 -0.4541 -1.0617 -0.0038
11166TIP3   OH233440   5.993   7.547   1.671 -0.4352  0.4282 -0.1385
11166TIP3    H133441   5.955   7.491   1.738 -0.1106 -0.3467 -0.6013
11166TIP3    H233442   5.983   7.499   1.589  1.3468  0.2907 -0.3008
11167TIP3   OH233443   2.671   4.373   5.667 -0.1185 -0.2392 -0.3068
11167TIP3    H133444   2.687   4.414   5.752 -2.4652 -1.2189  0.6607
11167TIP3    H233445   2.739   4.306   5.659 -0.2547 -0.5549  1.0863
11168TIP3   OH233446   2.444   5.184   5.899 -0.1469 -0.1622  0.1419
11168TIP3    H133447   2.474   5.163   5.811 -2.4364  0.5266 -0.8414
11168TIP3    H233448   2.469   5.109   5.952 -0.2622 -1.3427 -1.4555
11169TIP3   OH233449   4.273   4.063   6.859  0.1781  0.3835  0.3248
11169TIP3    H133450   4.350   4.026   6.904 -0.4424 -0.8234  0.4233
11169TIP3    H233451   4.223   3.986   6.832 -0.9376  1.1715  0.1482
11170TIP3   OH233452   3.126   5.133   5.602  0.5857  0.3373  0.6045
11170TIP3    H133453   3.031   5.127   5.606  0.3472  1.7566 -1.6742
11170TIP3    H233454   3.150   5.190   5.675 -0.3040 -0.1265  1.2590
11171TIP3   OH233455   1.909   4.905   6.125  0.2236  0.3690  0.1949
11171TIP3    H133456   1.900   4.937   6.035 -0.3061  0.1814  0.1787
11171TIP3    H233457   1.996   4.934   6.152  1.0476 -0.9603 -0.9443
11172TIP3   OH233458   1.472   2.831   3.738 -0.6609 -0.5425 -0.8228
11172TIP3    H133459   1.438   2.920   3.748 -1.0535 -0.9640  2.1300
11172TIP3    H233460   1.533   2.820   3.812  0.0877 -2.4053 -1.6800
11173TIP3   OH233461   0.874   1.884   5.616  0.2562 -0.5446  0.0109
11173TIP3    H133462   0.944   1.897   5.679  0.5191  0.5250 -0.4752
11173TIP3    H233463   0.802   1.847   5.666 -0.2700  2.2375  1.4008
11174TIP3   OH233464   4.762   6.624   6.226  0.0195  0.8813  0.0376
11174TIP3    H133465   4.684   6.589   6.184  1.0073 -0.3940 -0.7671
11174TIP3    H233466   4.733   6.649   6.314 -1.0789 -0.5068  0.0882
11175TIP3   OH233467   3.176   3.588   5.250  0.2682 -0.3578 -0.1091
11175TIP3    H133468   3.237   3.515   5.256 -1.1765 -1.7387 -1.4953
11175TIP3    H233469   3.137   3.594   5.337 -0.6505 -2.2415 -0.3453
11176TIP3   OH233470   7.818   0.606   0.640  0.2515  1.3503 -0.2033
11176TIP3    H133471   7.845   0.549   0.568  0.7396  0.1061  0.9413
11176TIP3    H233472   7.870   0.685   0.628 -0.3805  1.5393 -1.7787
11177TIP3   OH233473   3.539   2.075   5.579  0.3556 -0.1441  0.4578
11177TIP3    H133474   3.561   2.109   5.666  2.1046  1.2586 -0.4810
11177TIP3    H233475   3.468   2.130   5.548 -0.1119 -0.4964  0.9039
11178TIP3   OH233476   5.649   1.167   0.149  0.2238  0.2221 -0.5441
11178TIP3    H133477   5.734   1.157   0.105  0.5005  1.8727 -0.4053
11178TIP3    H233478   5.630   1.260   0.143 -1.0942  0.0149  0.3508
11179TIP3   OH233479   3.302   4.393   6.796  0.3773  0.7640 -0.5087
11179TIP3    H133480   3.332   4.303   6.779 -1.0368  0.1804 -0.0127
11179TIP3    H233481   3.383   4.444   6.803  1.3162 -0.9728  1.9856
11180TIP3   OH233482   7.726   3.376   5.846 -0.0989 -0.7318 -0.0393
11180TIP3    H133483   7.798   3.346   5.902  0.7739 -1.8569 -1.7053
11180TIP3    H233484   7.647   3.350   5.892  0.5835 -0.8552  1.0889
11181TIP3   OH233485   1.747   3.063   4.959  0.3251  0.2605  0.6541
11181TIP3    H133486   1.693   3.001   5.007  1.2873  0.0141  1.4351
11181TIP3    H233487   1.825   3.075   5.014  2.8602 -2.3026 -2.1209
11182TIP3   OH233488   4.525   5.896   6.399 -0.2097 -0.4844 -0.0015
11182TIP3    H133489   4.471   5.955   6.347  0.8444  0.6091  0.1384
11182TIP3    H233490   4.510   5.810   6.360  1.4584  0.4634 -2.9256
11183TIP3   OH233491   1.218   0.548   0.389  0.0013  0.1515  0.4308
11183TIP3    H133492   1.286   0.612   0.411 -1.0242  0.6090  2.3121
11183TIP3    H233493   1.190   0.572   0.301  1.0553  1.0117  0.3150
11184TIP3   OH233494   6.416   0.369   1.421 -0.3363  0.2666  0.1445
11184TIP3    H133495   6.470   0.436   1.464 -1.0755  0.1112  1.3563
11184TIP3    H233496   6.471   0.291   1.421  0.7456  0.9989 -1.7876
11185TIP3   OH233497   1.529   3.863   6.061  0.5388  0.0833 -0.1486
11185TIP3    H133498   1.614   3.853   6.103  0.2747  1.7317  0.8332
11185TIP3    H233499   1.471   3.807   6.112  0.7798 -0.0389 -0.0057
11186TIP3   OH233500   2.881   4.168   5.641 -0.5685 -0.2528 -0.0921
11186TIP3    H133501   2.911   4.171   5.550 -1.0662  1.4854 -0.2237
11186TIP3    H233502   2.832   4.086   5.648  2.4266 -2.1491 -0.4148
11187TIP3   OH233503   3.247   5.887   5.804 -0.4351 -0.2447 -0.8515
11187TIP3    H133504   3.164   5.859   5.767 -0.8285 -0.7693  0.4124
11187TIP3    H233505   3.235   5.979   5.826 -1.3217 -0.7944  1.0680
11188TIP3   OH233506   3.327   3.849   5.670 -0.3734 -0.4375 -0.3484
11188TIP3    H133507   3.418   3.838   5.695 -0.0873  1.3067 -0.5571
11188TIP3    H233508   3.303   3.935   5.703 -1.9864 -0.9379 -0.1796
11189TIP3   OH233509   0.797   3.673   6.640 -0.1815 -0.0855 -0.0910
11189TIP3    H133510   0.814   3.765   6.662 -0.6241 -0.0624  0.1674
11189TIP3    H233511   0.710   3.674   6.600 -0.9979 -0.6354  1.6051
11190TIP3   OH233512   2.629   4.424   6.321  0.6267 -0.1905  0.3942
11190TIP3    H133513   2.685   4.501   6.333  0.6926 -0.3617  1.1826
11190TIP3    H233514   2.687   4.349   6.335 -0.0323 -0.3627  2.2940
11191TIP3   OH233515   1.885   2.370   5.365  1.1610 -0.2005  0.1779
11191TIP3    H133516   1.931   2.425   5.428 -0.5168 -0.3181  1.5466
11191TIP3    H233517   1.825   2.430   5.320  1.7580 -0.2727 -0.7212
11192TIP3   OH233518   3.526   3.366   5.620 -0.5742 -0.3381  0.7321
11192TIP3    H133519   3.481   3.377   5.704 -1.0046 -1.0892  0.6003
11192TIP3    H233520   3.477   3.422   5.559  1.3053  2.2837  1.5287
11193TIP3   OH233521   3.555   2.558   6.533  0.4077 -0.0147  0.2541
11193TIP3    H133522   3.477   2.531   6.581 -0.1785  0.8470 -0.2106
11193TIP3    H233523   3.620   2.489   6.552 -0.3812 -0.6084  0.8234
11194TIP3   OH233524   1.111   3.411   1.033  0.7675  0.1283  0.7463
11194TIP3    H133525   1.121   3.316   1.023  2.0570  0.2960  0.3206
11194TIP3    H233526   1.057   3.437   0.958  1.7757 -0.0626 -0.0677
11195TIP3   OH233527   1.310   1.324   0.431 -0.1965  0.4045 -0.0079
11195TIP3    H133528   1.253   1.258   0.393  0.5347  0.1084 -0.6180
11195TIP3    H233529   1.331   1.383   0.359 -0.1202  0.7807  0.3193
11196TIP3   OH233530   1.857   2.126   1.568 -0.1179 -0.3833  0.2172
11196TIP3    H133531   1.902   2.086   1.494 -0.5389 -0.8234  0.1928
11196TIP3    H233532   1.844   2.054   1.629  1.3174  0.2255  1.2643
11197TIP3   OH233533   1.938   5.027   5.867  0.0164 -0.2403  0.5363
11197TIP3    H133534   2.015   5.078   5.840  0.7567 -2.1868 -1.0904
11197TIP3    H233535   1.864   5.071   5.825  0.2625  1.3997  1.7785
11198TIP3   OH233536   1.191   6.598   6.580 -0.0166 -0.1300 -0.1277
11198TIP3    H133537   1.151   6.668   6.530  0.4190  0.3696  0.2129
11198TIP3    H233538   1.134   6.588   6.657  1.1282  1.3970  0.9645
11199TIP3   OH233539   4.390   6.086   6.249 -0.1641  0.1848  0.1569
11199TIP3    H133540   4.324   6.064   6.184 -0.6994 -0.3173  0.8700
11199TIP3    H233541   4.361   6.170   6.286  0.0480  0.3827 -0.1203
11200TIP3   OH233542   5.514   0.393   0.540  0.1255 -0.2691 -0.1895
11200TIP3    H133543   5.452   0.324   0.516  0.2628  0.0248 -1.4434
11200TIP3    H233544   5.532   0.439   0.458  1.8125 -0.1923  0.2001
11201TIP3   OH233545   0.876   0.979   0.217 -0.1762 -0.2961  0.8712
11201TIP3    H133546   0.908   0.913   0.279 -0.5306 -0.1610  1.2050
11201TIP3    H233547   0.889   0.941   0.131 -0.8780 -1.0282  1.0865
11202TIP3   OH233548   1.680   5.311   4.940  0.4471 -0.0512  0.4535
11202TIP3    H133549   1.664   5.352   4.855  2.4005 -1.1871 -0.4752
11202TIP3    H233550   1.754   5.359   4.977 -0.4614  0.5113  1.5816
11203TIP3   OH233551   3.296   2.897   6.339  0.1680 -0.2892  0.0924
11203TIP3    H133552   3.368   2.835   6.326 -0.7433 -1.4788  0.6252
11203TIP3    H233553   3.292   2.946   6.258  1.5815 -0.2154  0.0546
11204TIP3   OH233554   4.171   6.346   4.087  1.1847  0.2662 -0.8019
11204TIP3    H133555   4.181   6.266   4.036  1.7605 -0.9569  1.1667
11204TIP3    H233556   4.086   6.381   4.060  0.4391 -1.5795 -0.9166
11205TIP3   OH233557   3.002   4.751   6.317  0.2527  0.4265  0.0605
11205TIP3    H133558   2.947   4.673   6.325  1.5274 -0.7302 -2.1117
11205TIP3    H233559   2.956   4.807   6.256  2.4290 -1.4830 -3.4821
11206TIP3   OH233560   8.118   7.502   0.480  0.1485  0.0911 -0.0184
11206TIP3    H133561   8.168   7.454   0.546 -0.6740 -0.4733  0.1999
11206TIP3    H233562   8.028   7.473   0.492 -0.2874  1.3209 -0.2105
11207TIP3   OH233563   3.138   4.943   4.638  0.2319 -0.2436 -0.2069
11207TIP3    H133564   3.217   4.963   4.688  0.3519 -1.1301 -0.0322
11207TIP3    H233565   3.103   5.028   4.613  0.5054  0.1854  0.8628
11208TIP3   OH233566   5.703   7.362   0.537 -0.3032  0.1431  0.0716
11208TIP3    H133567   5.787   7.380   0.579 -0.7990 -0.4021  1.3281
11208TIP3    H233568   5.722   7.291   0.476  0.1358 -0.0580  0.4346
11209TIP3   OH233569   0.494   2.827   1.258 -0.0590 -0.3280 -0.3152
11209TIP3    H133570   0.400   2.827   1.271 -0.1826  0.1764 -1.1228
11209TIP3    H233571   0.523   2.911   1.294  0.0289 -0.3237 -0.3949
11210TIP3   OH233572   2.448   5.186   6.385  0.8377  0.0190  0.2029
11210TIP3    H133573   2.467   5.270   6.426  1.5473 -0.4751  0.9019
11210TIP3    H233574   2.431   5.207   6.294 -0.5600  1.1148  0.7010
11211TIP3   OH233575   8.107   2.332   0.022 -0.4959 -0.4454  0.2126
11211TIP3    H133576   8.109   2.238   0.041 -0.6113 -0.0644  2.1872
11211TIP3    H233577   8.198   2.356   0.004 -0.6105 -1.1278 -1.3212
11212TIP3   OH233578   3.138   5.097   6.727 -0.3829 -0.0959 -0.3622
11212TIP3    H133579   3.129   5.081   6.634  0.3986 -0.3787 -0.3912
11212TIP3    H233580   3.194   5.175   6.733 -0.1590 -0.2754 -0.1213
11213TIP3   OH233581   3.967   4.456   6.951  0.0729 -0.3472  0.3571
11213TIP3    H133582   3.884   4.411   6.935 -0.4756  1.3102 -1.7194
11213TIP3    H233583   4.033   4.399   6.912 -0.3946 -0.3640 -0.4275
11214TIP3   OH233584   5.498   4.227   6.747  0.0268 -0.5223 -0.4053
11214TIP3    H133585   5.577   4.281   6.745  0.4231 -1.1379 -2.6112
11214TIP3    H233586   5.483   4.203   6.655 -3.4277  0.5996 -0.1969
11215TIP3   OH233587   3.556   6.174   5.636 -0.1075 -0.0919 -0.4050
11215TIP3    H133588   3.569   6.269   5.641  3.3168 -0.4115 -1.9662
11215TIP3    H233589   3.499   6.162   5.560 -0.1276  0.6979 -0.5220
11216TIP3   OH233590   2.537   5.522   5.916  0.3492 -0.2485 -0.0797
11216TIP3    H133591   2.506   5.525   5.826 -0.7855 -2.3550  0.2051
11216TIP3    H233592   2.457   5.524   5.969  0.8915 -1.2714  0.8002
11217TIP3   OH233593   4.126   4.586   5.296  0.3083  0.0379  0.2130
11217TIP3    H133594   4.081   4.651   5.242  0.4269 -0.2128 -0.1892
11217TIP3    H233595   4.080   4.504   5.279  1.4101 -0.3899 -0.8377
11218TIP3   OH233596   3.668   7.036   6.814 -0.5930 -0.0975 -0.2069
11218TIP3    H133597   3.727   6.995   6.750 -0.3987  0.4836 -0.4054
11218TIP3    H233598   3.588   7.055   6.764 -0.9865 -0.9734  0.0866
11219TIP3   OH233599   3.595   4.013   6.179  0.0902 -0.4189  0.1481
11219TIP3    H133600   3.675   3.985   6.134  1.3305  0.9247  1.4364
11219TIP3    H233601   3.626   4.043   6.264 -1.4900  2.3895 -0.2222
11220TIP3   OH233602   1.704   4.339   5.834 -0.0599 -0.5381  0.1363
11220TIP3    H133603   1.730   4.317   5.744  1.0387 -3.1563  1.0608
11220TIP3    H233604   1.667   4.427   5.827  2.9505  0.6225 -2.3709
11221TIP3   OH233605   2.184   4.722   4.903 -0.8939  0.3828  0.0979
11221TIP3    H133606   2.136   4.744   4.983  0.8129  3.0909  0.4492
11221TIP3    H233607   2.260   4.780   4.905  0.0380 -0.6926 -2.6790
11222TIP3   OH233608   3.243   4.765   6.466 -0.3981  0.1698  0.0433
11222TIP3    H133609   3.164   4.811   6.437 -2.1920 -2.6853  0.2274
11222TIP3    H233610   3.218   4.673   6.468  2.9531 -0.7904  0.1862
11223TIP3   OH233611   4.352   1.155   4.940 -0.1441 -0.4708  0.0155
11223TIP3    H133612   4.409   1.103   4.998 -0.8783  0.2735  1.4219
11223TIP3    H233613   4.363   1.245   4.970 -1.1345 -0.1712 -0.5003
11224TIP3   OH233614   1.079   1.821   0.704  0.1826  0.5796  0.4371
11224TIP3    H133615   1.007   1.760   0.688  0.1995  0.4120  0.9867
11224TIP3    H233616   1.093   1.864   0.620  1.0850 -1.1469 -0.3439
11225TIP3   OH233617   2.983   2.956   6.069 -0.2683 -0.0782 -0.1043
11225TIP3    H133618   3.027   2.903   6.002  1.5613  0.9993  0.2212
11225TIP3    H233619   2.947   2.892   6.130  1.9816 -0.9797  0.3235
11226TIP3   OH233620   3.389   5.007   5.824  0.2507  0.0753 -0.3594
11226TIP3    H133621   3.327   4.935   5.817  0.0290  0.1046  1.1197
11226TIP3    H233622   3.385   5.051   5.739 -0.4886 -0.9376 -0.8534
11227TIP3   OH233623   2.608   4.104   6.185  0.2784  0.4001  0.2049
11227TIP3    H133624   2.585   4.111   6.278  0.2033 -1.1301  0.3089
11227TIP3    H233625   2.703   4.112   6.183  0.4057 -0.9346  0.5603
11228TIP3   OH233626   6.957   1.752   1.124  0.1427  0.0923 -0.2734
11228TIP3    H133627   6.884   1.713   1.076 -0.4048 -1.6708  1.9066
11228TIP3    H233628   6.917   1.785   1.205  1.4921  0.5680  0.2060
11229TIP3   OH233629   1.646   3.513   4.777 -0.7683 -0.1954  0.5363
11229TIP3    H133630   1.637   3.601   4.812 -0.0579 -0.2495  0.8709
11229TIP3    H233631   1.712   3.472   4.833  0.1296 -0.3965 -0.6525
11230TIP3   OH233632   1.302   0.293   0.472  0.2037 -0.7702 -0.8258
11230TIP3    H133633   1.273   0.355   0.404 -0.5493 -0.4239 -0.2045
11230TIP3    H233634   1.231   0.294   0.536  0.2205 -2.2344 -0.7740
11231TIP3   OH233635   2.414   4.985   5.396 -0.3973  0.1049  0.1730
11231TIP3    H133636   2.419   5.080   5.399  0.7153  0.1272 -1.5334
11231TIP3    H233637   2.504   4.956   5.382 -0.9749 -1.0820 -1.2463
11232TIP3   OH233638   4.760   4.066   6.510 -0.5884  0.0100  0.3060
11232TIP3    H133639   4.853   4.043   6.520 -0.9678 -2.3953 -1.3690
11232TIP3    H233640   4.724   4.060   6.599  0.1770 -2.1956  0.4925
11233TIP3   OH233641   3.030   3.904   6.880  0.0215 -0.1098 -0.3035
11233TIP3    H133642   3.017   3.939   6.967  0.3738  0.6688 -0.5651
11233TIP3    H233643   3.099   3.838   6.890  0.0524 -0.0290  0.0044
11234TIP3   OH233644   0.590   2.153   0.370 -0.2994 -0.0625 -0.2227
11234TIP3    H133645   0.657   2.169   0.435 -1.7801  2.3671  0.7757
11234TIP3    H233646   0.516   2.117   0.419 -0.9875  0.6050 -0.7588
11235TIP3   OH233647   1.608   4.919   5.834 -0.0550  0.3610 -0.4093
11235TIP3    H133648   1.601   4.914   5.930 -0.7887  0.4566 -0.4546
11235TIP3    H233649   1.652   5.002   5.817 -0.1073  0.4412 -0.1611
11236TIP3   OH233650   3.578   2.995   0.946 -0.5217  0.5587  0.0370
11236TIP3    H133651   3.564   2.903   0.970  0.0576  0.0629 -1.4986
11236TIP3    H233652   3.491   3.030   0.933 -0.6573 -0.8236 -3.2019
11237TIP3   OH233653   8.061   1.903   0.536  0.4199  0.4176  0.3913
11237TIP3    H133654   8.136   1.962   0.540  1.9249 -1.3304 -1.1364
11237TIP3    H233655   8.061   1.871   0.446 -2.1601  0.3556  0.3769
11238TIP3   OH233656   3.232   4.412   5.491 -0.0867  0.0997  0.2400
11238TIP3    H133657   3.173   4.378   5.559 -0.9170  0.4583 -0.2990
11238TIP3    H233658   3.289   4.473   5.538 -0.1235 -0.2628  0.7690
11239TIP3   OH233659   2.895   5.801   3.851  0.4248 -0.2241 -0.3169
11239TIP3    H133660   2.813   5.847   3.836  1.7072  2.3301  0.1503
11239TIP3    H233661   2.878   5.746   3.927 -1.2733 -0.8487 -1.1361
11240TIP3   OH233662   0.559   0.668   0.454  0.0176 -0.3835  0.0491
11240TIP3    H133663   0.565   0.749   0.505  1.2556 -0.1356 -0.4691
11240TIP3    H233664   0.532   0.602   0.518 -2.1545  0.6534  0.2313
11241TIP3   OH233665   4.065   4.291   6.391  0.3162  0.0154  0.4086
11241TIP3    H133666   3.977   4.287   6.354  0.4849 -0.1812  0.0261
11241TIP3    H233667   4.059   4.357   6.460 -0.5197 -1.0784  1.4078
11242TIP3   OH233668   8.256   0.272   0.515  0.0843 -0.3650  0.1512
11242TIP3    H133669   8.193   0.200   0.511  0.9996 -1.2960  1.7658
11242TIP3    H233670   8.209   0.347   0.478 -1.7069 -1.2297  0.6018
11243TIP3   OH233671   2.010   6.563   5.450 -0.0842 -0.1978  0.5247
11243TIP3    H133672   2.016   6.556   5.355 -0.3398  0.0327  0.4888
11243TIP3    H233673   1.991   6.474   5.480 -3.4379  0.2796  0.0783
11244TIP3   OH233674   7.880   0.060   1.740 -0.1154 -0.3679 -0.1691
11244TIP3    H133675   7.826   0.061   1.661 -0.7833  0.0811  0.2883
11244TIP3    H233676   7.931  -0.021   1.734  0.1629 -0.1112 -1.2770
11245TIP3   OH233677   3.151   5.382   5.374  0.5707 -0.2006 -0.1170
11245TIP3    H133678   3.168   5.292   5.404  0.1394 -0.0041  0.7506
11245TIP3    H233679   3.137   5.374   5.280 -0.4718 -1.2046  0.1094
11246TIP3   OH233680   5.343   5.037   6.240  0.3791  0.0772  0.5889
11246TIP3    H133681   5.284   4.984   6.293 -0.3918 -0.1084 -0.4286
11246TIP3    H233682   5.369   5.109   6.297 -0.8467  0.1633  1.0632
11247TIP3   OH233683   8.059   1.607   0.987  0.3503  0.7023 -0.5649
11247TIP3    H133684   7.974   1.650   0.974 -0.4048 -0.9930 -1.3819
11247TIP3    H233685   8.121   1.661   0.937 -0.5852  0.8504 -1.5809
11248TIP3   OH233686   4.426   6.485   5.485  0.2602 -0.2257  0.1543
11248TIP3    H133687   4.506   6.513   5.529  0.6176 -1.4278  0.2890
11248TIP3    H233688   4.365   6.558   5.497  0.8029  0.0211  1.4810
11249TIP3   OH233689   6.329   1.771   0.043 -0.5744  0.7305 -0.2324
11249TIP3    H133690   6.378   1.717   0.104 -1.7589 -2.0642 -1.6360
11249TIP3    H233691   6.286   1.836   0.097  2.0122  1.1643  1.3578
11250TIP3   OH233692   5.125   3.329   6.280  0.0026 -0.2628 -0.0451
11250TIP3    H133693   5.175   3.299   6.204 -2.4350 -1.8747 -1.0651
11250TIP3    H233694   5.087   3.413   6.252  1.5350  0.6501  0.5111
11251TIP3   OH233695   2.838   1.642   0.110 -0.1934 -0.2670 -0.2841
11251TIP3    H133696   2.754   1.622   0.151  0.1392 -0.8577  0.1209
11251TIP3    H233697   2.846   1.737   0.116 -0.6616 -0.2462  0.0139
11252TIP3   OH233698   2.919   4.098   6.699  0.1345  0.1937  0.0671
11252TIP3    H133699   2.960   4.030   6.753 -0.3713 -0.8414 -0.8411
11252TIP3    H233700   2.883   4.051   6.624 -0.7546  1.3843 -0.2716
11253TIP3   OH233701   2.840   6.174   5.369  1.0342 -0.1155  0.0761
11253TIP3    H133702   2.801   6.148   5.285  3.1789  0.5622 -1.1653
11253TIP3    H233703   2.797   6.257   5.391 -1.5581 -1.6563  1.0976
11254TIP3   OH233704   0.148   0.014   0.171  0.1112 -0.5076  0.4340
11254TIP3    H133705   0.085   0.058   0.227 -1.2812 -2.1455  0.1668
11254TIP3    H233706   0.221  -0.007   0.228 -0.3747 -0.2622  1.1475
11255TIP3   OH233707   2.814   4.881   6.172 -0.0857  0.3211 -0.2171
11255TIP3    H133708   2.801   4.837   6.088 -1.0215  0.6063 -0.2191
11255TIP3    H233709   2.875   4.952   6.153 -0.6575  0.6715 -0.7478
11256TIP3   OH233710   4.729   7.055   2.472  0.1549 -0.2460  0.1057
11256TIP3    H133711   4.759   7.142   2.444 -1.9825  0.5860  0.2595
11256TIP3    H233712   4.653   7.037   2.417 -0.2374 -1.4131  1.0042
11257TIP3   OH233713   7.332   5.752   2.352  0.2581 -0.1180  0.2623
11257TIP3    H133714   7.247   5.736   2.393 -0.6730  1.6558 -0.9298
11257TIP3    H233715   7.315   5.745   2.258  1.8504 -1.6486  0.0554
11258TIP3   OH233716   2.822   5.742   6.456 -0.2120 -0.0852 -0.0040
11258TIP3    H133717   2.824   5.756   6.361 -0.2145 -2.2103 -0.3239
11258TIP3    H233718   2.903   5.781   6.488  0.6085 -0.8819 -1.0919
11259TIP3   OH233719   1.266   5.448   5.311 -0.1793  0.2398 -0.5694
11259TIP3    H133720   1.355   5.474   5.286  0.4470 -1.2586  0.0521
11259TIP3    H233721   1.242   5.380   5.247 -0.5736  0.0995 -0.2747
11260TIP3   OH233722   0.081   0.943   0.420 -0.0330  0.2961 -0.2812
11260TIP3    H133723   0.009   0.892   0.456 -1.4654  0.4881 -2.8112
11260TIP3    H233724   0.055   1.034   0.432 -0.0244  0.3721 -0.8382
11261TIP3   OH233725   7.382   7.073   1.399  0.1920  0.3703  0.0132
11261TIP3    H133726   7.291   7.044   1.400 -0.3029  1.8888  0.4534
11261TIP3    H233727   7.433   6.995   1.421 -0.8965 -0.7954 -1.5294
11262TIP3   OH233728   5.923   7.721   2.363  0.2882  0.1854 -0.1688
11262TIP3    H133729   5.940   7.633   2.397  1.7418  0.0720 -1.1223
11262TIP3    H233730   5.956   7.780   2.431  1.1650 -0.0308 -0.3901
11263TIP3   OH233731   6.730   2.292   1.063  0.0825  0.0867 -0.2192
11263TIP3    H133732   6.678   2.297   0.982 -1.4676 -0.9638  0.6832
11263TIP3    H233733   6.724   2.200   1.089  1.9483  0.0764  0.2227
11264TIP3   OH233734   5.803   5.944   0.726 -0.4529 -0.3365 -0.1963
11264TIP3    H133735   5.747   6.013   0.762 -0.0541  1.0858 -2.1982
11264TIP3    H233736   5.763   5.863   0.755 -1.9858  0.7080  0.7087
11265TIP3   OH233737   0.458   0.958   0.422  0.5815 -0.0691  0.6332
11265TIP3    H133738   0.510   0.987   0.347  0.9912 -0.2109  0.8589
11265TIP3    H233739   0.391   0.901   0.384 -0.1968  1.1008  0.1891
11266TIP3   OH233740   4.403   1.129   0.994  0.0816  0.1131 -0.2344
11266TIP3    H133741   4.490   1.092   0.983  0.2994  0.8440 -0.9959
11266TIP3    H233742   4.418   1.212   1.040 -0.0733  0.9361 -1.6640
11267TIP3   OH233743   0.193   3.383   4.952  0.0123  0.1292  0.1664
11267TIP3    H133744   0.231   3.376   4.864  0.5669  0.9975  0.3383
11267TIP3    H233745   0.254   3.438   5.000 -1.6692  1.8967  0.3161
11268TIP3   OH233746   5.937   3.503   0.566  0.6593  0.1083  0.1969
11268TIP3    H133747   5.879   3.572   0.597  1.1144  0.7999 -0.4804
11268TIP3    H233748   5.953   3.524   0.474 -0.4566 -1.7569 -0.4694
11269TIP3   OH233749   6.199   0.487   1.527 -0.3487 -0.2248 -0.4275
11269TIP3    H133750   6.278   0.461   1.479  0.5645  1.0118  0.3736
11269TIP3    H233751   6.231   0.547   1.594 -1.5779 -2.0661  1.8714
11270TIP3   OH233752   4.381   4.992   6.481  0.2969 -0.3452 -0.1501
11270TIP3    H133753   4.406   5.033   6.398 -1.1946  0.2081 -0.3492
11270TIP3    H233754   4.428   5.042   6.548  0.0838  0.3774 -0.5379
11271TIP3   OH233755   0.914   3.864   6.007  0.0077 -0.2060  0.4993
11271TIP3    H133756   0.949   3.813   5.933  0.0782 -0.9530  1.0400
11271TIP3    H233757   0.822   3.876   5.986  0.2214  0.3502 -0.1383
11272TIP3   OH233758   3.038   5.349   6.334 -0.0717  0.2780 -0.3723
11272TIP3    H133759   3.104   5.307   6.388  1.2071  2.0535 -0.5077
11272TIP3    H233760   2.982   5.396   6.396  1.1083  1.9145 -0.4850
11273TIP3   OH233761   8.461   5.837   6.778 -0.0255  0.0321 -0.0518
11273TIP3    H133762   8.537   5.895   6.767 -1.1967  1.4832 -0.7105
11273TIP3    H233763   8.435   5.816   6.688 -1.0114  0.3542  0.1627
11274TIP3   OH233764   4.155   5.086   5.188 -0.3812  0.7429 -0.6604
11274TIP3    H133765   4.131   5.059   5.277 -2.1735 -1.3149 -1.6994
11274TIP3    H233766   4.251   5.083   5.187 -0.3719 -0.2894  0.8821
11275TIP3   OH233767   0.405   0.369   0.099 -0.2647  0.3775 -0.1309
11275TIP3    H133768   0.402   0.381   0.004  1.2341  0.0867 -0.2213
11275TIP3    H233769   0.410   0.458   0.134 -0.2542  0.4622 -0.3462
11276TIP3   OH233770   7.749   1.283   0.399 -0.2098  0.4260  0.3292
11276TIP3    H133771   7.807   1.319   0.332  0.1590 -0.6030  0.0816
11276TIP3    H233772   7.792   1.303   0.482 -0.1512  0.7896  0.2145
11277TIP3   OH233773   5.661   5.350   5.670 -0.2530 -0.0638  0.4651
11277TIP3    H133774   5.644   5.257   5.683 -3.6983 -0.0608 -3.0450
11277TIP3    H233775   5.587   5.394   5.712 -0.7617  0.8476 -1.3472
11278TIP3   OH233776   3.386   3.135   5.469 -0.7957  0.2676  0.2982
11278TIP3    H133777   3.456   3.080   5.432 -1.1959  0.1737 -0.3333
11278TIP3    H233778   3.423   3.169   5.550  0.0945  0.4409 -0.1651
11279TIP3   OH233779   0.890   3.490   6.843  0.4541  0.0055 -0.2228
11279TIP3    H133780   0.859   3.548   6.773  1.1024  0.8391  0.1696
11279TIP3    H233781   0.814   3.435   6.864  0.7269 -1.3573 -2.6678
11280TIP3   OH233782   4.367   7.217   5.807 -0.0828  0.0168  0.4438
11280TIP3    H133783   4.428   7.210   5.880  1.4876  1.9662 -0.6472
11280TIP3    H233784   4.364   7.310   5.786 -2.6915 -0.1583 -0.1695
11281TIP3   OH233785   0.823   1.491   0.197  0.2831  0.4845 -0.2376
11281TIP3    H133786   0.873   1.411   0.182  1.3237  1.0641  0.1132
11281TIP3    H233787   0.842   1.515   0.287  1.1230  1.9156 -0.7753
11282TIP3   OH233788   4.060   5.024   5.942  0.0139  0.7218 -0.3436
11282TIP3    H133789   4.055   5.119   5.933 -0.4314  0.6787 -0.5304
11282TIP3    H233790   4.033   5.006   6.032  1.5515  0.8965  0.1687
11283TIP3   OH233791   4.779   5.895   4.507 -0.4892 -0.2172  0.6742
11283TIP3    H133792   4.707   5.915   4.567  1.2162 -1.5078  3.2501
11283TIP3    H233793   4.856   5.932   4.549  0.7533 -1.1829 -0.7121
11284TIP3   OH233794   4.035   4.002   5.141 -0.4279  0.5223  0.4131
11284TIP3    H133795   3.990   4.087   5.143  1.3715  1.6130 -2.3969
11284TIP3    H233796   4.103   4.010   5.207  0.7690  1.9263 -0.9353
11285TIP3   OH233797   7.220   1.743   0.827  0.3245 -0.2224  0.8013
11285TIP3    H133798   7.141   1.787   0.794  0.7979  0.8614  1.0817
11285TIP3    H233799   7.186   1.672   0.882 -0.4572  0.1671  0.8370
11286TIP3   OH233800   7.636   6.403   0.675 -0.1091  0.2459  0.5664
11286TIP3    H133801   7.705   6.383   0.739  0.9462  1.8064 -0.0732
11286TIP3    H233802   7.673   6.472   0.621 -0.7974 -1.4117 -2.1018
11287TIP3   OH233803   2.656   4.928   5.297  0.4105 -0.2242  0.0193
11287TIP3    H133804   2.729   4.990   5.301  0.2307  0.0745 -1.2203
11287TIP3    H233805   2.697   4.842   5.301  0.7507 -0.0403  0.4699
11288TIP3   OH233806   2.886   6.758   6.528 -0.0450 -0.1857  0.1154
11288TIP3    H133807   2.940   6.715   6.461  3.0119  2.5646  0.6800
11288TIP3    H233808   2.908   6.713   6.609 -1.0938 -1.2033 -0.1538
11289TIP3   OH233809   8.163   0.521   0.462  0.4513 -0.0164 -0.0549
11289TIP3    H133810   8.107   0.547   0.388  0.9797 -1.0333 -0.8272
11289TIP3    H233811   8.233   0.587   0.463 -0.5082  1.0065  0.6377
11290TIP3   OH233812   7.014   7.536   0.060 -0.0271  0.1216  0.4134
11290TIP3    H133813   7.090   7.581   0.098 -0.9187  2.3166 -0.2739
11290TIP3    H233814   6.968   7.499   0.135  2.0067 -1.7121  0.7843
11291TIP3   OH233815   4.628   1.779   5.639 -0.5433 -0.0290 -0.3583
11291TIP3    H133816   4.611   1.864   5.598  0.8156  0.9313  1.0224
11291TIP3    H233817   4.551   1.764   5.694 -0.2678  0.8844  0.3004
11292TIP3   OH233818   1.360   3.077   4.095  0.1181 -0.3043  0.3386
11292TIP3    H133819   1.316   3.062   4.011 -0.8207  0.3488  0.7113
11292TIP3    H233820   1.437   3.020   4.092 -0.4943 -1.1047 -0.5144
11293TIP3   OH233821   2.685   6.823   4.011 -0.2008 -0.4098  0.1279
11293TIP3    H133822   2.617   6.852   4.072  0.8054  0.3753  0.9066
11293TIP3    H233823   2.683   6.727   4.017 -1.9302 -0.4340 -0.6473
11294TIP3   OH233824   0.225   0.407   0.760  0.6266 -0.3067  0.1788
11294TIP3    H133825   0.212   0.318   0.727  0.8372  0.1371 -1.0974
11294TIP3    H233826   0.137   0.445   0.761  0.7585  0.0231 -0.8452
11295TIP3   OH233827   1.906   5.494   6.894  0.3348  0.6266  0.3198
11295TIP3    H133828   1.943   5.414   6.930 -1.5873 -1.2129 -1.6868
11295TIP3    H233829   1.884   5.546   6.972  0.9223 -1.0984  1.6815
11296TIP3   OH233830   3.082   6.764   5.987 -0.1175 -0.5519 -0.7394
11296TIP3    H133831   3.154   6.761   6.049 -0.3025 -2.7311 -0.5961
11296TIP3    H233832   3.123   6.751   5.901 -0.1073  0.4053 -0.8907
11297TIP3   OH233833   1.843   5.334   6.448  0.4301  0.1680  0.4306
11297TIP3    H133834   1.904   5.279   6.398  0.7582  1.9880 -1.2070
11297TIP3    H233835   1.890   5.353   6.529  0.7475 -1.0590  0.5568
11298TIP3   OH233836   3.165   3.683   0.440 -0.3420  0.2808  0.3877
11298TIP3    H133837   3.097   3.687   0.508 -0.5801  0.1556  0.1562
11298TIP3    H233838   3.183   3.590   0.429  0.7669  0.3692  1.3434
11299TIP3   OH233839   4.256   2.994   6.605  0.7431  0.1230  0.3828
11299TIP3    H133840   4.191   2.953   6.662 -0.1314  0.0366 -0.6534
11299TIP3    H233841   4.239   2.956   6.519  2.6604 -0.4682  0.2314
11300TIP3   OH233842   7.268   1.285   0.242  0.2388 -0.4150  0.0056
11300TIP3    H133843   7.360   1.308   0.238  0.4415 -1.0463  0.9107
11300TIP3    H233844   7.221   1.368   0.239  0.8552 -0.0636  0.2487
11301TIP3   OH233845   7.422   4.203   0.526  0.1006 -0.7346 -0.1909
11301TIP3    H133846   7.343   4.258   0.524  1.1932  1.0222  2.3555
11301TIP3    H233847   7.439   4.182   0.434 -1.6116  1.3602 -1.0278
11302TIP3   OH233848   2.478   6.204   6.228  0.6454  0.6028 -1.2204
11302TIP3    H133849   2.433   6.284   6.255 -1.2224 -0.4042 -1.2265
11302TIP3    H233850   2.468   6.202   6.133  2.6412  1.4744 -1.4750
11303TIP3   OH233851   1.710   2.571   5.211  0.5187  0.4236 -0.3392
11303TIP3    H133852   1.644   2.640   5.201 -0.7381 -0.6385  0.4422
11303TIP3    H233853   1.693   2.511   5.139  0.6855  0.2058 -0.1973
11304TIP3   OH233854   3.919   5.032   6.230  0.4020  0.7582  0.2407
11304TIP3    H133855   3.957   4.981   6.302  1.3053 -0.2642 -0.9384
11304TIP3    H233856   3.824   5.022   6.242  0.5586 -0.6258  0.4512
11305TIP3   OH233857   4.634   2.313   1.844  0.2168 -0.1506  0.1085
11305TIP3    H133858   4.657   2.405   1.854  2.3682 -0.6576  0.0576
11305TIP3    H233859   4.655   2.293   1.753  1.7862 -1.2137  0.6861
11306TIP3   OH233860   2.156   4.051   5.708  0.1082 -0.4806  0.2761
11306TIP3    H133861   2.170   4.011   5.622  0.4774 -0.5680  0.3746
11306TIP3    H233862   2.079   4.007   5.743  0.3143 -0.8683  0.2419
11307TIP3   OH233863   6.493   2.423   1.400  0.1939  0.6893 -0.2100
11307TIP3    H133864   6.584   2.419   1.430  0.4756 -0.1388 -1.1130
11307TIP3    H233865   6.489   2.359   1.329 -1.0659  0.8180 -0.2693
11308TIP3   OH233866   3.642   4.331   5.857  0.2829 -0.4131 -0.1757
11308TIP3    H133867   3.605   4.338   5.945  0.5392  1.4024 -0.1999
11308TIP3    H233868   3.591   4.393   5.804 -0.2014 -1.8453 -1.4455
11309TIP3   OH233869   0.267   7.114   0.189  0.4556 -0.3127  0.2237
11309TIP3    H133870   0.245   7.188   0.246 -0.8947 -1.4909  1.2770
11309TIP3    H233871   0.357   7.093   0.212  0.6837  0.6932  0.2757
11310TIP3   OH233872   4.294   4.055   5.250 -0.0714 -0.2886  0.1120
11310TIP3    H133873   4.335   4.054   5.336 -1.5302 -0.6777  0.8032
11310TIP3    H233874   4.349   4.114   5.198  0.9036 -0.1823  1.2459
11311TIP3   OH233875   0.888   2.274   5.339 -0.0964 -0.4107  0.3273
11311TIP3    H133876   0.819   2.324   5.383 -0.2345 -0.0626 -0.2748
11311TIP3    H233877   0.848   2.188   5.322  0.3328 -0.9409  1.8808
11312TIP3   OH233878   2.149   3.698   5.324 -0.5860 -0.1817  0.2670
11312TIP3    H133879   2.085   3.763   5.296 -0.8877 -0.2468  0.8125
11312TIP3    H233880   2.177   3.728   5.411  0.8451  0.3918 -0.3687
11313TIP3   OH233881   0.681   0.487   4.795 -0.0799 -0.0411  0.2870
11313TIP3    H133882   0.733   0.553   4.748  1.3551 -0.5083  1.1962
11313TIP3    H233883   0.591   0.509   4.774  0.4138  1.7402 -0.0739
11314TIP3   OH233884   4.737   3.800   5.782 -0.2368  0.7027 -0.4163
11314TIP3    H133885   4.775   3.716   5.754 -0.1189  0.8559 -0.7160
11314TIP3    H233886   4.785   3.823   5.861  2.2828  2.2900 -2.3114
11315TIP3   OH233887   4.427   5.799   5.173 -0.0771 -0.4686  0.4779
11315TIP3    H133888   4.484   5.821   5.246 -0.2412  0.5495  0.3091
11315TIP3    H233889   4.451   5.861   5.104 -0.2632 -1.0973 -0.1569
11316TIP3   OH233890   1.282   2.464   5.491 -0.1704  0.1917  0.5529
11316TIP3    H133891   1.331   2.544   5.469  1.0038 -0.4413  0.8619
11316TIP3    H233892   1.338   2.417   5.551 -0.5249 -1.2568 -0.2253
11317TIP3   OH233893   4.476   7.331   0.048 -0.2129  0.0068  0.2551
11317TIP3    H133894   4.477   7.273   0.124 -1.7442  0.1024  0.3628
11317TIP3    H233895   4.548   7.392   0.064  0.0361 -0.5138  1.1983
11318TIP3   OH233896   3.935   3.912   5.441 -0.4626 -0.3123 -0.4089
11318TIP3    H133897   3.851   3.957   5.451 -0.7647 -0.9103 -0.2633
11318TIP3    H233898   3.929   3.869   5.356  0.4026  1.1385 -1.2251
11319TIP3   OH233899   1.218   4.109   6.662  0.0577  0.2825  0.1317
11319TIP3    H133900   1.140   4.154   6.694 -1.3177 -0.7420 -1.7264
11319TIP3    H233901   1.230   4.141   6.573 -0.2899 -2.1639 -0.8321
11320TIP3   OH233902   4.090   6.324   5.145 -0.0036  0.3333 -0.2769
11320TIP3    H133903   4.183   6.341   5.159 -0.0491 -0.6984  1.3858
11320TIP3    H233904   4.046   6.371   5.215 -0.6830  0.0030 -0.4798
11321TIP3   OH233905   2.153   4.090   5.316 -0.3042 -0.4077 -0.4275
11321TIP3    H133906   2.213   4.156   5.348 -0.1628 -0.8334  0.1896
11321TIP3    H233907   2.207   4.034   5.259 -0.2005 -0.5582 -0.1836
11322TIP3   OH233908   1.955   3.354   6.396 -0.2005  0.3423 -0.2124
11322TIP3    H133909   1.949   3.263   6.368 -0.4512  0.6083 -1.0274
11322TIP3    H233910   1.936   3.405   6.318 -2.1503  1.0899  0.7253
11323TIP3   OH233911   0.552   6.813   6.607 -0.4677  0.0562 -0.0236
11323TIP3    H133912   0.540   6.804   6.512 -0.3176 -0.8937  0.0464
11323TIP3    H233913   0.643   6.838   6.617 -1.3577  3.6926 -0.3324
11324TIP3   OH233914   5.901   7.564   0.392 -0.0044  0.0594 -0.0948
11324TIP3    H133915   5.938   7.476   0.391 -0.6954 -0.2718  1.4128
11324TIP3    H233916   5.878   7.579   0.484 -0.2730  1.6538 -0.4041
11325TIP3   OH233917   0.686   0.686   1.217 -0.0061  0.0977 -0.2024
11325TIP3    H133918   0.730   0.633   1.151 -2.0414 -2.1917  0.1901
11325TIP3    H233919   0.628   0.743   1.167  0.6290  0.4644 -0.5264
11326TIP3   OH233920   2.496   1.611   1.681  0.3829  0.2738  0.4413
11326TIP3    H133921   2.418   1.618   1.626  0.7467 -0.2143 -0.1386
11326TIP3    H233922   2.549   1.544   1.639  0.6389 -0.1480  1.4242
11327TIP3   OH233923   6.373   4.843   4.887 -0.0145 -0.5406  0.0468
11327TIP3    H133924   6.461   4.812   4.863 -0.0465 -0.7734  0.2269
11327TIP3    H233925   6.382   4.873   4.978 -0.0528 -0.2938 -0.0309
11328TIP3   OH233926   8.437   7.699   0.140  0.2733 -0.7015  0.1503
11328TIP3    H133927   8.348   7.676   0.112  0.5261 -0.3129 -1.0235
11328TIP3    H233928   8.454   7.643   0.215 -0.1407 -2.3833 -0.9786
11329TIP3   OH233929   5.715   4.927   5.330 -0.8586 -0.5117 -0.0993
11329TIP3    H133930   5.731   4.883   5.414  0.6321  2.4502  1.2348
11329TIP3    H233931   5.667   5.006   5.352 -1.2263 -0.1237 -2.1590
11330TIP3   OH233932   0.139   0.353   0.100 -0.1998  1.1555 -0.3814
11330TIP3    H133933   0.151   0.261   0.075 -0.8799  1.4245 -1.7251
11330TIP3    H233934   0.220   0.376   0.145 -0.6533 -0.5506  1.3451
11331TIP3   OH233935   2.701   3.609   6.717 -0.3296 -0.4579 -0.0160
11331TIP3    H133936   2.665   3.584   6.632 -2.3302  1.1823  0.3172
11331TIP3    H233937   2.685   3.533   6.773  0.2501 -1.2250 -0.8861
11332TIP3   OH233938   4.650   5.202   6.187  0.5091  0.0252  0.0274
11332TIP3    H133939   4.724   5.181   6.244  1.1998 -0.1243 -0.9224
11332TIP3    H233940   4.632   5.295   6.205  1.4423  0.2819 -0.3095
11333TIP3   OH233941   6.169   3.841   6.713 -0.7433  0.2877 -0.1070
11333TIP3    H133942   6.181   3.746   6.716  1.7656  0.5856  0.9519
11333TIP3    H233943   6.092   3.854   6.659 -2.1978 -2.4411  1.1963
11334TIP3   OH233944   0.951   7.960   0.419  1.0413  0.0981  0.2533
11334TIP3    H133945   0.876   7.993   0.370 -1.6902 -1.8503  2.8892
11334TIP3    H233946   0.966   8.026   0.487  1.4847  0.3063 -0.0447
11335TIP3   OH233947   5.725   3.887   5.546  0.2539  0.4622  0.1992
11335TIP3    H133948   5.650   3.871   5.604  0.6868 -1.1988  0.3517
11335TIP3    H233949   5.706   3.835   5.468  1.5652 -0.5883  0.5427
11336TIP3   OH233950   3.367   3.581   5.519 -0.1841 -0.1395 -0.1339
11336TIP3    H133951   3.401   3.661   5.560 -1.5735  1.1128 -1.4081
11336TIP3    H233952   3.273   3.586   5.531 -0.3619 -1.1193 -1.0707
11337TIP3   OH233953   5.650   6.050   6.529 -0.8471  0.5848 -0.1602
11337TIP3    H133954   5.706   5.974   6.517 -1.2987  0.3318 -0.6676
11337TIP3    H233955   5.634   6.083   6.440 -1.3010  0.8010 -0.0003
11338TIP3   OH233956   5.859   3.209   6.814 -0.3283  0.2349  0.2847
11338TIP3    H133957   5.844   3.247   6.900 -2.0222  1.0863 -0.3629
11338TIP3    H233958   5.909   3.276   6.767 -0.5660  0.3373  0.1765
11339TIP3   OH233959   4.642   4.114   4.776 -0.1625  0.3309 -0.2634
11339TIP3    H133960   4.691   4.094   4.696  1.2911 -1.9743  1.1287
11339TIP3    H233961   4.631   4.209   4.774  2.0623  0.6124 -1.9662
11340TIP3   OH233962   5.117   3.857   5.841  0.3247  0.4710 -0.4733
11340TIP3    H133963   5.033   3.847   5.887  0.4011  1.8165  0.0010
11340TIP3    H233964   5.118   3.786   5.777  0.7094 -2.1928  2.3605
11341TIP3   OH233965   6.390   4.715   5.481  0.1540 -0.0356  0.1176
11341TIP3    H133966   6.365   4.726   5.389  0.8915  0.0561 -0.0730
11341TIP3    H233967   6.309   4.690   5.525 -0.9231  3.1385  0.0377
11342TIP3   OH233968   1.611   0.389   0.095  0.2584  0.4693  0.0733
11342TIP3    H133969   1.579   0.425   0.012  0.2379  0.9123  0.2704
11342TIP3    H233970   1.546   0.323   0.119  0.0807  0.5854 -0.0904
11343TIP3   OH233971   0.277   6.760   3.249 -0.1943 -0.5268  0.5908
11343TIP3    H133972   0.197   6.810   3.260  0.8257  1.2049  0.2425
11343TIP3    H233973   0.270   6.689   3.314 -1.2655  0.5152  1.6335
11344TIP3   OH233974   6.669   7.258   1.362  0.4803  0.5928 -0.1754
11344TIP3    H133975   6.725   7.286   1.434  2.2283 -1.8099 -0.5429
11344TIP3    H233976   6.731   7.229   1.294 -1.1089  2.7322 -2.6321
11345TIP3   OH233977   6.061   4.938   6.372 -0.2944  0.2719  0.3793
11345TIP3    H133978   6.024   5.024   6.355 -1.1993 -0.3681 -0.9576
11345TIP3    H233979   6.126   4.925   6.302 -0.7940 -0.4826  0.0400
11346TIP3   OH233980   2.577   3.491   5.376  0.3707  0.4826 -0.3295
11346TIP3    H133981   2.621   3.408   5.393 -0.9911 -0.4540 -1.3563
11346TIP3    H233982   2.589   3.541   5.457 -0.2880 -1.3457  0.9200
11347TIP3   OH233983   3.623   4.104   5.161 -0.0162 -0.3101 -0.0788
11347TIP3    H133984   3.650   4.073   5.247 -0.8341 -0.9165 -0.0321
11347TIP3    H233985   3.608   4.198   5.173 -1.1813 -0.5853  0.7215
11348TIP3   OH233986   3.488   4.994   6.133 -0.5030  0.1613 -0.0042
11348TIP3    H133987   3.406   4.960   6.169 -1.4074  3.4174  1.1115
11348TIP3    H233988   3.482   4.975   6.039 -2.5399  0.4115  0.0621
11349TIP3   OH233989   2.259   0.814   0.463  0.2253 -0.1030  0.2639
11349TIP3    H133990   2.216   0.735   0.497  0.9198  0.3962  2.3393
11349TIP3    H233991   2.351   0.791   0.456  0.2222  0.0854 -0.4703
11350TIP3   OH233992   6.798   3.855   5.329 -0.1543 -0.2451 -0.4775
11350TIP3    H133993   6.886   3.819   5.317 -0.1907 -0.2484 -0.7538
11350TIP3    H233994   6.807   3.918   5.400  0.4173  0.9093 -1.5488
11351TIP3   OH233995   6.088   3.315   6.467 -0.1982 -0.0202 -0.3482
11351TIP3    H133996   6.097   3.239   6.524 -0.4049 -1.0308 -1.6483
11351TIP3    H233997   6.001   3.307   6.428 -1.5380  2.5862  1.9062
11352TIP3   OH233998   3.694   3.307   4.318  0.4214  0.5252  0.5713
11352TIP3    H133999   3.745   3.227   4.325  1.4536  1.1432  0.1881
11352TIP3    H234000   3.716   3.342   4.232 -0.8461  0.6711  0.2948
11353TIP3   OH234001   5.636   6.797   3.857 -0.0855 -0.1317  0.1626
11353TIP3    H134002   5.580   6.862   3.900 -0.9026 -0.4483 -0.3968
11353TIP3    H234003   5.627   6.718   3.909  1.7603  0.4910  1.4676
11354TIP3   OH234004   7.838   4.331   5.599  0.4049 -0.5954  0.0812
11354TIP3    H134005   7.839   4.243   5.564  0.7447 -0.1259 -1.1125
11354TIP3    H234006   7.771   4.377   5.548  2.5603  0.7538 -1.6521
11355TIP3   OH234007   5.746   2.964   5.867 -0.0546 -0.0379 -0.2962
11355TIP3    H134008   5.754   2.887   5.811  0.3831  0.0094 -0.2977
11355TIP3    H234009   5.829   3.010   5.857  1.1305 -1.4477  2.4922
11356TIP3   OH234010   4.340   3.299   4.642 -0.0062 -0.4961 -0.2510
11356TIP3    H134011   4.351   3.393   4.623  0.2723 -0.8629 -1.9466
11356TIP3    H234012   4.286   3.266   4.570  0.1815 -1.7143  0.1561
11357TIP3   OH234013   2.172   0.097   0.626 -0.0252 -0.2362 -0.0427
11357TIP3    H134014   2.096   0.063   0.579  0.5682 -0.9450 -0.4963
11357TIP3    H234015   2.244   0.039   0.602  0.3846 -0.3510  1.4218
11358TIP3   OH234016   6.264   3.050   6.255 -0.1101  0.3784 -0.2203
11358TIP3    H134017   6.278   3.143   6.275 -0.1192  0.5365 -0.9182
11358TIP3    H234018   6.284   3.043   6.161  0.1751 -0.3834 -0.1065
11359TIP3   OH234019   0.772   0.177   0.811 -0.0906 -0.3602 -0.3655
11359TIP3    H134020   0.719   0.209   0.883 -0.2667 -0.5727 -0.3982
11359TIP3    H234021   0.794   0.255   0.760  1.4831  0.0305  0.8645
11360TIP3   OH234022   5.938   5.140   3.866 -0.5639 -0.0435 -0.2348
11360TIP3    H134023   5.918   5.077   3.796 -0.5347  0.2933 -0.5460
11360TIP3    H234024   6.021   5.108   3.902 -0.8198 -0.4919 -0.0354
11361TIP3   OH234025   1.940   0.822   0.044  0.1473  0.1447  0.7044
11361TIP3    H134026   1.853   0.794   0.014  0.5380 -0.2455 -0.0628
11361TIP3    H234027   1.941   0.798   0.137 -1.1881  1.6851  1.1366
11362TIP3   OH234028   7.637   4.090   5.763  0.1691 -0.2262 -0.3332
11362TIP3    H134029   7.638   3.994   5.762  0.7194 -0.2955  2.2052
11362TIP3    H234030   7.568   4.114   5.702  0.3286 -2.2300 -1.3406
11363TIP3   OH234031   1.757   3.753   0.978 -0.4095  0.7136  0.2696
11363TIP3    H134032   1.799   3.715   1.055  1.0193 -0.2131 -0.9198
11363TIP3    H234033   1.826   3.804   0.936 -1.2277  1.3756 -0.2761
11364TIP3   OH234034   5.655   4.837   6.659  0.6454 -0.0582  0.2963
11364TIP3    H134035   5.729   4.856   6.601  1.8433 -2.3919  0.9696
11364TIP3    H234036   5.626   4.750   6.633  0.2063 -0.4907  2.1447
11365TIP3   OH234037   4.628   4.392   4.789  0.6012  0.3586 -0.6578
11365TIP3    H134038   4.703   4.411   4.844  0.8806  0.2073 -0.9846
11365TIP3    H234039   4.572   4.469   4.797  0.7366  0.4247 -0.3283
11366TIP3   OH234040   3.218   3.448   4.520 -0.1068  0.4377 -0.1912
11366TIP3    H134041   3.279   3.452   4.594  0.1866 -0.5182 -0.3735
11366TIP3    H234042   3.158   3.521   4.535 -1.3480 -1.0075  2.1442
11367TIP3   OH234043   6.535   6.154   5.412 -0.0863  0.3708 -0.2537
11367TIP3    H134044   6.457   6.161   5.357 -0.4758  1.9619  0.4666
11367TIP3    H234045   6.577   6.240   5.406  1.4314 -0.3598 -0.3513
11368TIP3   OH234046   2.482   2.633   0.844  0.7174 -0.1437  0.4389
11368TIP3    H134047   2.423   2.564   0.873 -0.8666  2.1860  2.9941
11368TIP3    H234048   2.463   2.644   0.750 -1.0536 -1.2220  0.6518
11369TIP3   OH234049   4.991   2.909   4.660  0.0939  0.1456  0.0679
11369TIP3    H134050   5.023   2.998   4.668 -1.3918  0.5078  2.3381
11369TIP3    H234051   5.068   2.858   4.633  0.9782  2.0493 -1.1044
11370TIP3   OH234052   2.286   2.949   5.863  0.1782  0.2472  0.6259
11370TIP3    H134053   2.350   2.993   5.920  0.5282 -0.4642  0.7873
11370TIP3    H234054   2.336   2.879   5.821 -0.8661 -1.2671  1.8834
11371TIP3   OH234055   6.845   6.379   4.957  0.0768  0.4991  0.1878
11371TIP3    H134056   6.792   6.448   4.916 -2.3814 -0.7714  1.0992
11371TIP3    H234057   6.815   6.377   5.048 -0.2944 -2.0963  0.0597
11372TIP3   OH234058   0.745   0.684   0.695  0.1827  0.1326  0.2301
11372TIP3    H134059   0.745   0.779   0.682 -0.2234  0.3649  1.8280
11372TIP3    H234060   0.831   0.656   0.665  1.2037  1.3312  1.9594
11373TIP3   OH234061   4.363   4.162   6.622 -0.8489 -0.0806 -0.3690
11373TIP3    H134062   4.458   4.165   6.628 -0.8634 -0.6217  0.1951
11373TIP3    H234063   4.336   4.109   6.697 -1.5284 -0.7385 -1.0611
11374TIP3   OH234064   5.353   4.537   4.567 -0.0243 -0.4015 -0.1514
11374TIP3    H134065   5.377   4.444   4.555  0.3915 -0.1080 -1.8151
11374TIP3    H234066   5.428   4.574   4.614  0.5429 -0.5828 -0.8865
11375TIP3   OH234067   3.248   2.819   0.358  0.1878 -0.0233  0.4270
11375TIP3    H134068   3.167   2.856   0.393  0.1066 -0.3696  0.6045
11375TIP3    H234069   3.235   2.818   0.263 -0.2532 -0.6286  0.4909
11376TIP3   OH234070   5.466   5.824   6.367 -0.9794 -0.1171  0.1304
11376TIP3    H134071   5.386   5.841   6.318 -0.7616 -2.4643 -1.1486
11376TIP3    H234072   5.537   5.852   6.309 -0.8178  1.0066  0.8452
11377TIP3   OH234073   4.920   4.426   5.708  0.3356 -0.1890  0.3514
11377TIP3    H134074   5.002   4.462   5.676 -0.0027 -0.7117 -1.1381
11377TIP3    H234075   4.868   4.411   5.630  0.0769 -2.9383  0.9851
11378TIP3   OH234076   5.436   5.280   4.559  0.2306  0.8890  0.1723
11378TIP3    H134077   5.366   5.214   4.553 -0.1655  1.4977 -2.3483
11378TIP3    H234078   5.494   5.246   4.627 -1.1357 -0.9459  0.4823
11379TIP3   OH234079   8.243   7.526   0.021  0.0599  0.3107 -0.0734
11379TIP3    H134080   8.232   7.441   0.064  0.4692  0.9573  1.3434
11379TIP3    H234081   8.334   7.525  -0.010 -0.4949 -0.5147 -1.7788
11380TIP3   OH234082   5.671   4.570   6.610  0.1155  0.8942  0.5108
11380TIP3    H134083   5.677   4.489   6.661  1.7433  1.1383  0.7251
11380TIP3    H234084   5.723   4.552   6.532 -0.4084  1.3648  0.0518
11381TIP3   OH234085   4.496   7.028   5.488  0.0946 -0.4196 -0.6369
11381TIP3    H134086   4.441   6.990   5.557  0.9240 -0.1018  0.2162
11381TIP3    H234087   4.507   7.120   5.515  1.8230 -0.7153 -0.2873
11382TIP3   OH234088   1.955   1.529   0.123  0.4049  0.1541  0.2560
11382TIP3    H134089   1.977   1.566   0.037  0.0209 -0.6773 -0.2129
11382TIP3    H234090   1.864   1.500   0.113  0.8167 -1.2437  0.4835
11383TIP3   OH234091   8.281   5.341   1.197  0.1238  0.2387 -0.1907
11383TIP3    H134092   8.269   5.278   1.126 -3.4486  0.5231  0.0859
11383TIP3    H234093   8.298   5.424   1.153 -0.2167  0.0638 -0.6537
11384TIP3   OH234094   4.080   4.291   5.326  0.5268  0.3143 -0.0422
11384TIP3    H134095   4.145   4.283   5.395 -0.0608 -0.5824  0.4328
11384TIP3    H234096   4.125   4.260   5.247  1.2452  1.4865 -0.0924
11385TIP3   OH234097   5.295   6.232   4.427 -0.2924 -0.3980  0.1912
11385TIP3    H134098   5.342   6.211   4.346 -0.2530 -0.4528  0.2294
11385TIP3    H234099   5.341   6.185   4.495  0.8699  1.1907  0.5396
11386TIP3   OH234100   4.787   3.072   5.608  0.1453 -0.1959 -0.4545
11386TIP3    H134101   4.868   3.021   5.610  0.8420  0.9227  0.0258
11386TIP3    H234102   4.753   3.059   5.519  0.4157 -1.3186 -0.4057
11387TIP3   OH234103   8.310   6.875   0.683 -0.1370 -0.2182 -0.2116
11387TIP3    H134104   8.302   6.970   0.691  0.7484 -0.3505  3.0463
11387TIP3    H234105   8.377   6.862   0.616 -0.4943  1.4565 -0.9151
11388TIP3   OH234106   0.789   4.686   4.579 -0.8371  0.1731  0.0631
11388TIP3    H134107   0.859   4.725   4.526 -1.3394  2.3096  0.9053
11388TIP3    H234108   0.717   4.672   4.518 -0.0869 -0.9184 -0.5711
11389TIP3   OH234109   4.937   3.720   6.689  0.5606 -0.2762 -0.5590
11389TIP3    H134110   4.847   3.746   6.667  0.8971  0.3842 -1.1978
11389TIP3    H234111   4.935   3.701   6.783  0.1162  1.3466 -0.2281
11390TIP3   OH234112   3.051   3.683   5.027 -0.0665 -0.3879  0.1154
11390TIP3    H134113   3.085   3.653   5.112 -0.6632  1.0534  0.8915
11390TIP3    H234114   2.966   3.640   5.019  0.6805 -1.7652 -0.4962
11391TIP3   OH234115   4.691   0.321   0.332  0.5223  0.0677 -0.0757
11391TIP3    H134116   4.753   0.378   0.288  1.2073  0.0674  0.8720
11391TIP3    H234117   4.709   0.233   0.298  0.2672  0.2400 -0.6511
11392TIP3   OH234118   1.294   0.773   0.144  0.6864 -0.1092 -0.0649
11392TIP3    H134119   1.200   0.765   0.124  0.6430  1.1144 -0.4093
11392TIP3    H234120   1.337   0.759   0.060  0.5959  3.1724 -0.7401
11393TIP3   OH234121   5.573   4.213   4.243 -0.0946 -0.3783 -0.0943
11393TIP3    H134122   5.605   4.128   4.213  1.6056  0.2002 -0.0183
11393TIP3    H234123   5.544   4.198   4.333  0.7875 -0.7650  0.1347
11394TIP3   OH234124   3.545   3.549   5.299  0.1222  0.0861 -0.0262
11394TIP3    H134125   3.532   3.589   5.214 -2.4271  0.7344  0.6298
11394TIP3    H234126   3.477   3.482   5.305  0.2088  0.1225  1.5440
11395TIP3   OH234127   4.131   4.439   4.686 -0.4302 -0.1623 -0.3809
11395TIP3    H134128   4.227   4.432   4.682 -0.0985  1.7029  2.6783
11395TIP3    H234129   4.100   4.372   4.625  2.7971 -2.8904  0.7909
11396TIP3   OH234130   7.130   0.190   6.716 -0.4134  0.5792 -0.8862
11396TIP3    H134131   7.176   0.111   6.689 -0.3954  0.3463 -0.1909
11396TIP3    H234132   7.039   0.175   6.692 -0.5054  0.1110 -0.2585
11397TIP3   OH234133   3.161   0.079   0.721  0.3248 -0.2571  0.0750
11397TIP3    H134134   3.206   0.127   0.790 -2.2766 -0.9361  2.3391
11397TIP3    H234135   3.147   0.144   0.652  0.8940  1.0630  1.1676
11398TIP3   OH234136   6.213   3.844   5.478  0.5227 -0.3805  0.3285
11398TIP3    H134137   6.262   3.926   5.464  2.2840 -1.4978 -0.2974
11398TIP3    H234138   6.181   3.850   5.568  1.4124  0.6104  0.5910
11399TIP3   OH234139   4.890   5.072   6.294  0.0837  0.0970 -0.1730
11399TIP3    H134140   4.950   5.127   6.344  0.2096 -0.8805  0.7896
11399TIP3    H234141   4.904   4.984   6.329  0.9175 -0.7887 -2.6883
11400TIP3   OH234142   5.213   3.439   4.188 -0.0538 -0.0174  0.1157
11400TIP3    H134143   5.179   3.524   4.158  0.3488  0.3238  0.6277
11400TIP3    H234144   5.175   3.376   4.126 -1.2480  0.4099  0.3896
11401TIP3   OH234145   4.460   3.957   4.910 -0.2973 -0.4817  0.1246
11401TIP3    H134146   4.525   3.995   4.851  0.3202  3.0202  2.8550
11401TIP3    H234147   4.383   4.014   4.901 -0.5590 -0.5239  1.8255
11402TIP3   OH234148   7.524   3.603   6.408 -0.4634 -0.8625  0.3772
11402TIP3    H134149   7.515   3.561   6.494 -1.6374 -0.1762  0.6047
11402TIP3    H234150   7.515   3.697   6.427  0.3366 -0.6366 -0.3585
11403TIP3   OH234151   3.557   4.315   6.467  0.2462 -0.3142 -0.8685
11403TIP3    H134152   3.498   4.389   6.481 -1.0020 -1.5826  0.7075
11403TIP3    H234153   3.637   4.338   6.515  0.0729  0.2426 -0.8496
11404TIP3   OH234154   3.449   3.034   6.796  0.6676 -0.1700 -0.1258
11404TIP3    H134155   3.473   2.942   6.801 -1.0021 -0.5786  0.7908
11404TIP3    H234156   3.388   3.039   6.723  0.5247  0.1611  0.0155
11405TIP3   OH234157   6.466   3.290   4.685  0.2781 -0.6299  0.0261
11405TIP3    H134158   6.476   3.213   4.741  0.2887 -0.3519  0.4076
11405TIP3    H234159   6.501   3.263   4.601  1.1466 -0.7451  0.4191
11406TIP3   OH234160   4.508   5.073   5.975 -0.3322 -0.1260 -0.5942
11406TIP3    H134161   4.548   5.145   6.025 -0.0452 -0.6488 -0.0693
11406TIP3    H234162   4.416   5.097   5.969 -0.4367 -0.2232  0.4841
11407TIP3   OH234163   5.718   5.082   5.097 -0.3931 -0.3351 -0.2207
11407TIP3    H134164   5.725   5.029   5.177  0.1713  0.1864  0.0856
11407TIP3    H234165   5.801   5.068   5.052  0.6292  1.8765  0.8831
11408TIP3   OH234166   6.631   3.521   6.558 -0.2686  0.7494  0.0775
11408TIP3    H134167   6.645   3.525   6.463 -0.6751 -1.6122 -0.0915
11408TIP3    H234168   6.555   3.465   6.570 -0.2722  1.0781  1.8168
11409TIP3   OH234169   5.199   6.030   5.608 -0.7793  0.4168  0.3527
11409TIP3    H134170   5.183   6.110   5.557  0.7552  0.1871 -0.5367
11409TIP3    H234171   5.226   5.965   5.542 -1.6726 -0.7427  1.1067
11410TIP3   OH234172   4.606   4.187   6.312  0.2088  0.4776  0.3319
11410TIP3    H134173   4.643   4.141   6.387 -0.9336 -0.2434  0.4672
11410TIP3    H234174   4.650   4.272   6.312  1.6560 -0.2682  0.6249
11411TIP3   OH234175   5.450   5.319   6.058 -0.6521 -0.0011  0.1835
11411TIP3    H134176   5.482   5.233   6.031  0.6381  0.3142  0.7080
11411TIP3    H234177   5.371   5.332   6.005  0.1029 -0.7546 -1.1554
11412TIP3   OH234178   3.562   5.829   5.373  0.3696  0.2070 -0.2683
11412TIP3    H134179   3.541   5.806   5.464  1.9065 -1.6329 -0.3564
11412TIP3    H234180   3.580   5.923   5.376  0.0547  0.2339  1.2515
11413TIP3   OH234181   5.869   4.637   5.834  0.0835 -0.1046 -0.1158
11413TIP3    H134182   5.920   4.559   5.856  1.0572  0.2916 -0.9391
11413TIP3    H234183   5.786   4.625   5.881 -0.0579 -1.9657 -0.7691
11414TIP3   OH234184   1.914   2.694   0.901 -0.2921  0.3749  0.4632
11414TIP3    H134185   1.892   2.734   0.817 -1.6686  1.2387  1.2249
11414TIP3    H234186   1.830   2.677   0.942  0.4062  1.4896  2.3814
11415TIP3   OH234187   0.591   7.619   0.908 -0.1728  0.2734  0.3516
11415TIP3    H134188   0.518   7.631   0.847  0.6834  1.2837 -0.4910
11415TIP3    H234189   0.575   7.534   0.949 -1.7289  0.4190  0.0517
11416TIP3   OH234190   4.353   4.501   6.112  0.0063  0.0730 -0.5628
11416TIP3    H134191   4.292   4.455   6.169  0.8538 -0.1885  0.1538
11416TIP3    H234192   4.440   4.472   6.142  0.4987  1.0065 -1.0637
11417TIP3   OH234193   7.337   5.592   4.017  0.4280  0.3961  0.2635
11417TIP3    H134194   7.403   5.616   3.952  0.4168 -0.1441  0.0489
11417TIP3    H234195   7.357   5.648   4.092  2.9260 -1.7218  1.2782
11418TIP3   OH234196   4.252   5.530   4.250 -0.0098 -0.3261 -0.4787
11418TIP3    H134197   4.317   5.488   4.306  1.5799  0.8548 -1.3986
11418TIP3    H234198   4.171   5.527   4.301  1.0218 -0.7612  1.1817
11419TIP3   OH234199   5.343   4.707   6.123 -0.3698 -0.0730  0.0230
11419TIP3    H134200   5.346   4.663   6.208 -0.2477  1.4460  0.8181
11419TIP3    H234201   5.274   4.773   6.133  1.7864  2.2467  0.0162
11420TIP3   OH234202   5.672   2.648   6.049 -0.3313 -0.2045  0.0582
11420TIP3    H134203   5.687   2.556   6.073 -0.5241 -0.5608 -1.1318
11420TIP3    H234204   5.652   2.692   6.131  0.4769 -1.0910  0.7431
11421TIP3   OH234205   7.802   7.449   0.885 -0.4700 -0.2553 -0.2084
11421TIP3    H134206   7.875   7.447   0.947 -0.3591  0.1401 -0.3243
11421TIP3    H234207   7.778   7.357   0.873 -0.5966 -0.3161  0.5405
11422TIP3   OH234208   5.740   2.631   6.803 -0.0285  0.2312  0.4856
11422TIP3    H134209   5.770   2.721   6.786 -1.9817  1.1307  1.6201
11422TIP3    H234210   5.810   2.591   6.854  1.0601  0.9509 -0.4129
11423TIP3   OH234211   1.867   2.574   0.249  0.1589  0.7886  0.5085
11423TIP3    H134212   1.832   2.488   0.269  1.1139  0.4054  0.5623
11423TIP3    H234213   1.824   2.633   0.312  0.8150  0.0790  1.6393
11424TIP3   OH234214   2.590   1.883   1.493 -0.1260 -0.1239  0.0571
11424TIP3    H134215   2.578   1.798   1.535 -1.3720 -1.0209 -2.0264
11424TIP3    H234216   2.682   1.905   1.510  0.1574 -1.7799  0.7914
11425TIP3   OH234217   5.721   4.916   6.901  0.2800 -0.9539 -0.0832
11425TIP3    H134218   5.716   4.889   6.809 -0.2949 -0.9001 -0.0648
11425TIP3    H234219   5.666   4.853   6.948  2.3295 -2.3577  0.5357
11426TIP3   OH234220   4.848   6.580   5.787  0.3894  0.1577 -0.7877
11426TIP3    H134221   4.770   6.598   5.735 -0.6095 -0.7793  0.3280
11426TIP3    H234222   4.851   6.651   5.851 -0.4013 -0.6111  0.1096
11427TIP3   OH234223   5.058   5.138   6.487  0.2283 -0.6780  0.1663
11427TIP3    H134224   4.990   5.120   6.552 -0.1357  0.9726  0.2714
11427TIP3    H234225   5.132   5.085   6.515  0.2628  0.3992  2.2615
11428TIP3   OH234226   4.739   5.138   4.238 -0.3430  0.1228 -0.4581
11428TIP3    H134227   4.754   5.097   4.323 -1.3140  1.7353  0.5076
11428TIP3    H234228   4.665   5.091   4.201 -0.3367 -0.1547 -0.1194
11429TIP3   OH234229   4.576   3.202   4.547  0.0790 -0.3157  0.3523
11429TIP3    H134230   4.501   3.241   4.592  0.2830 -0.2160  0.6108
11429TIP3    H234231   4.582   3.113   4.582 -0.1403 -0.4394  0.0660
11430TIP3   OH234232   6.205   6.173   4.519 -0.4542 -0.2489 -0.1297
11430TIP3    H134233   6.119   6.172   4.562 -0.2977  1.2040  0.2382
11430TIP3    H234234   6.256   6.108   4.567 -0.1390  1.6498  2.1937
11431TIP3   OH234235   5.812   5.853   6.428 -1.2428  0.0044  0.1857
11431TIP3    H134236   5.885   5.915   6.423 -1.6136  0.3669 -0.8118
11431TIP3    H234237   5.781   5.846   6.338 -1.2815 -1.5410  0.3113
11432TIP3   OH234238   3.982   5.293   6.202  0.3299  0.0709 -0.0978
11432TIP3    H134239   3.989   5.201   6.226 -1.1832 -0.1795 -0.5838
11432TIP3    H234240   3.888   5.312   6.204  0.4676  1.0738 -1.8936
11433TIP3   OH234241   3.670   6.585   5.328  0.5330 -0.7001  0.3068
11433TIP3    H134242   3.673   6.551   5.238 -0.3863  1.1896 -0.4728
11433TIP3    H234243   3.749   6.550   5.369  2.2655  0.3616 -1.9622
11434TIP3   OH234244   6.119   3.531   3.145 -0.4985  0.2810  0.6296
11434TIP3    H134245   6.142   3.438   3.143  1.6904  0.8163 -1.0922
11434TIP3    H234246   6.087   3.550   3.057  0.7711  1.5385  0.4078
11435TIP3   OH234247   1.343   0.451   1.106 -0.5836 -0.1783  0.4477
11435TIP3    H134248   1.280   0.516   1.076 -0.2879  0.1930  0.6277
11435TIP3    H234249   1.291   0.386   1.152 -0.8375  0.1342  0.6047
11436TIP3   OH234250   6.303   6.831   4.009 -0.2116 -0.1144 -0.1114
11436TIP3    H134251   6.390   6.806   3.976  0.0946  1.0306 -0.2199
11436TIP3    H234252   6.267   6.751   4.046  1.0788 -0.5026  0.3269
11437TIP3   OH234253   6.037   4.736   6.098  0.6337 -0.2233 -0.1565
11437TIP3    H134254   6.112   4.680   6.081 -0.1061 -0.9202 -1.2277
11437TIP3    H234255   5.964   4.674   6.109  0.1201  0.4648  0.3054
11438TIP3   OH234256   4.896   3.888   6.009 -0.5801  0.4501  0.0260
11438TIP3    H134257   4.864   3.979   6.011 -2.1441 -0.0557 -1.0101
11438TIP3    H234258   4.944   3.878   6.091  0.7360  2.6120 -0.4544
11439TIP3   OH234259   5.460   6.623   6.078  0.0427  0.4697 -0.4830
11439TIP3    H134260   5.549   6.597   6.055  1.2620  0.9810  3.3131
11439TIP3    H234261   5.470   6.708   6.122 -2.3263  0.6982 -0.3071
11440TIP3   OH234262   1.673   1.125   1.113  0.4571 -0.0746 -0.6794
11440TIP3    H134263   1.635   1.118   1.026  0.7318  0.3752 -0.8340
11440TIP3    H234264   1.737   1.053   1.117  0.5317 -0.0193 -0.8921
11441TIP3   OH234265   3.876   6.718   5.906  0.0381 -0.0196  0.0394
11441TIP3    H134266   3.962   6.688   5.935 -0.5855 -2.4803 -0.6106
11441TIP3    H234267   3.853   6.788   5.968  1.7483 -0.5150  1.2530
11442TIP3   OH234268   3.306   5.106   5.323  0.1124 -0.1583  0.6120
11442TIP3    H134269   3.231   5.054   5.292 -0.3255  0.4155  0.6937
11442TIP3    H234270   3.376   5.086   5.261 -1.1915  2.1674 -1.7163
11443TIP3   OH234271   2.189   6.719   5.903 -0.3837  0.1825 -0.5253
11443TIP3    H134272   2.241   6.753   5.976 -0.6438 -0.5269 -0.0071
11443TIP3    H234273   2.173   6.628   5.926  0.4223 -0.3306 -1.9666
11444TIP3   OH234274   4.487   5.610   4.675  0.1528 -0.4577 -0.2795
11444TIP3    H134275   4.395   5.585   4.677  0.4800 -1.7698 -0.9969
11444TIP3    H234276   4.532   5.540   4.722  1.0574 -1.1591 -2.1340
11445TIP3   OH234277   3.795   4.417   6.603 -0.1638  0.0965  0.3476
11445TIP3    H134278   3.755   4.454   6.681 -1.4919 -0.0706 -0.2415
11445TIP3    H234279   3.884   4.453   6.602 -1.1008  2.5002  0.3083
11446TIP3   OH234280   3.840   7.459   4.498  0.6893  0.1670  0.4257
11446TIP3    H134281   3.861   7.543   4.538  0.4475  0.9846 -1.1372
11446TIP3    H234282   3.859   7.471   4.405  1.1770 -1.6874  0.2720
11447TIP3   OH234283   1.372   1.282   0.753 -0.5568 -0.5574  0.3488
11447TIP3    H134284   1.444   1.332   0.715 -0.1512  0.0924  1.9535
11447TIP3    H234285   1.323   1.250   0.677 -0.3149  1.5172 -0.7304
11448TIP3   OH234286   3.384   2.246   6.504  0.3282  0.3367  0.1108
11448TIP3    H134287   3.310   2.289   6.547  0.1552 -0.5732  0.7444
11448TIP3    H234288   3.435   2.209   6.576 -0.0793 -1.3948 -0.4667
11449TIP3   OH234289   3.250   4.373   5.977 -0.2362 -0.0474 -0.2249
11449TIP3    H134290   3.208   4.354   5.893 -1.2370 -0.2598  0.3143
11449TIP3    H234291   3.292   4.291   6.002 -1.1349 -0.4041  0.1518
11450TIP3   OH234292   6.223   5.140   6.869 -0.2900  0.2016 -0.0512
11450TIP3    H134293   6.165   5.148   6.944  0.7389  1.2653  0.6598
11450TIP3    H234294   6.262   5.227   6.860  0.5622 -0.2667 -1.0139
11451TIP3   OH234295   4.627   6.201   5.251 -0.3223  0.4242  0.2514
11451TIP3    H134296   4.651   6.142   5.322 -1.4245 -0.7258 -0.3199
11451TIP3    H234297   4.681   6.279   5.266  0.8210 -0.5345  1.2696
11452TIP3   OH234298   6.272   4.156   5.525  0.1752  0.2290 -0.1041
11452TIP3    H134299   6.279   4.211   5.447 -0.7050 -0.1226 -0.4330
11452TIP3    H234300   6.319   4.205   5.593  1.3733  0.3140 -0.9653
11453TIP3   OH234301   3.546   1.514   0.236  0.3469  0.6484  0.1248
11453TIP3    H134302   3.511   1.603   0.225  0.7649  0.6628 -1.1171
11453TIP3    H234303   3.468   1.458   0.239  0.1293  0.9242 -0.3173
11454TIP3   OH234304   5.586   4.689   4.297  0.4816 -0.8754  0.8005
11454TIP3    H134305   5.584   4.772   4.345  0.6021 -0.9054  0.8573
11454TIP3    H234306   5.669   4.690   4.250 -0.7070  0.2410 -1.3389
11455TIP3   OH234307   3.814   3.904   6.025  0.1042  0.5047  0.3982
11455TIP3    H134308   3.791   3.858   5.944  0.9162  0.9797 -0.1078
11455TIP3    H234309   3.855   3.837   6.080 -2.4312 -0.3616  1.3183
11456TIP3   OH234310   5.392   4.662   5.638 -0.2553  0.2399  0.1676
11456TIP3    H134311   5.427   4.575   5.621 -1.6818 -0.3812  0.3884
11456TIP3    H234312   5.439   4.719   5.576 -0.6427 -0.9612 -1.2568
11457TIP3   OH234313   4.664   6.075   6.164 -0.2449 -0.5490  0.4467
11457TIP3    H134314   4.652   6.128   6.085 -0.1551  3.2731  2.8398
11457TIP3    H234315   4.578   6.073   6.205 -0.1355 -1.8942  0.6296
11458TIP3   OH234316   3.839   5.369   4.705 -0.5658 -0.4091 -0.2754
11458TIP3    H134317   3.780   5.330   4.641 -1.4455 -0.6284  0.6658
11458TIP3    H234318   3.819   5.463   4.702  0.7562 -0.1488 -1.7137
11459TIP3   OH234319   7.175   0.109   6.382 -0.0564 -0.3685 -0.2014
11459TIP3    H134320   7.239   0.177   6.360 -1.1042  1.2325  1.5798
11459TIP3    H234321   7.207   0.072   6.463  0.5430 -2.0777 -1.2022
11460TIP3   OH234322   3.642   5.041   6.391 -0.2178  0.0865 -0.2623
11460TIP3    H134323   3.673   4.965   6.439 -1.9011 -0.0943  0.5898
11460TIP3    H234324   3.597   5.005   6.314 -1.0382  0.2031  0.1541
11461TIP3   OH234325   5.138   6.541   5.724  0.2670 -0.3482  0.0897
11461TIP3    H134326   5.043   6.552   5.723 -0.0423 -2.7639  0.1988
11461TIP3    H234327   5.166   6.581   5.807 -0.5378  1.0291 -0.2819
11462TIP3   OH234328   6.728   5.148   5.882  0.2152 -0.0753  0.0854
11462TIP3    H134329   6.728   5.083   5.812 -0.4023 -0.3233  0.3121
11462TIP3    H234330   6.675   5.109   5.951  1.0909  0.0244  0.8277
11463TIP3   OH234331   3.087   4.341   5.698 -0.5363 -0.7166  0.9597
11463TIP3    H134332   3.048   4.418   5.740 -0.1495  0.5430 -0.9590
11463TIP3    H234333   3.012   4.285   5.678 -1.4014  1.3810 -2.0529
11464TIP3   OH234334   4.010   6.051   6.488  0.0622  0.1881  0.3542
11464TIP3    H134335   3.949   5.979   6.472  1.0127 -0.5012 -0.1837
11464TIP3    H234336   3.990   6.115   6.421 -0.0548 -0.0562  0.1544
11465TIP3   OH234337   5.724   5.220   4.009 -0.0622  0.2949 -0.2017
11465TIP3    H134338   5.646   5.172   3.981  0.5640 -0.9089  0.0691
11465TIP3    H234339   5.792   5.192   3.948  0.4327  0.4501  0.2772
11466TIP3   OH234340   8.465   7.497   0.320 -0.6739 -0.1779  0.2420
11466TIP3    H134341   8.502   7.480   0.406 -0.9069  0.5623  0.4904
11466TIP3    H234342   8.517   7.443   0.260 -1.6676 -2.0780  1.0587
11467TIP3   OH234343   3.793   4.981   4.707 -0.2121  0.7332 -0.4353
11467TIP3    H134344   3.776   4.949   4.796 -0.0023 -0.2706 -0.7514
11467TIP3    H234345   3.711   5.025   4.682 -0.5499  0.3350 -0.0411
11468TIP3   OH234346   4.895   4.546   6.179  0.5792  0.2996  0.1509
11468TIP3    H134347   4.971   4.539   6.120  1.5770 -0.4952  1.5162
11468TIP3    H234348   4.820   4.537   6.121  1.5425 -0.1238 -1.0704
11469TIP3   OH234349   3.687   3.665   6.564 -0.0642 -0.6359 -0.5810
11469TIP3    H134350   3.613   3.626   6.517 -2.1434  0.8309  1.4048
11469TIP3    H234351   3.647   3.717   6.633  2.8175  1.0913 -0.1527
11470TIP3   OH234352   4.142   7.443   5.631 -0.3679  0.5908  0.3110
11470TIP3    H134353   4.176   7.448   5.541 -1.2296 -0.6482 -0.0913
11470TIP3    H234354   4.109   7.531   5.648 -0.2921  0.8161 -0.6329
11471TIP3   OH234355   5.216   4.462   5.258 -0.1086  0.1173  0.3438
11471TIP3    H134356   5.310   4.469   5.279 -0.1225  0.1337  0.4023
11471TIP3    H234357   5.205   4.372   5.229 -0.0963  0.0828  0.4441
11472TIP3   OH234358   0.394   7.364   0.028  0.7266  0.2919  0.3221
11472TIP3    H134359   0.392   7.457   0.049  0.3805  0.9724 -2.5419
11472TIP3    H234360   0.450   7.326   0.096  0.3659  2.4549  1.8974
11473TIP3   OH234361   1.043   5.243   4.857  0.4482 -0.3725  0.6547
11473TIP3    H134362   1.103   5.193   4.802 -2.0262 -2.5208 -0.1683
11473TIP3    H234363   0.984   5.178   4.894  0.0542  1.4231  3.3265
11474TIP3   OH234364   7.560   6.812   0.744 -0.2224 -0.6476  0.0645
11474TIP3    H134365   7.474   6.828   0.705  0.0118  2.7005  0.8382
11474TIP3    H234366   7.541   6.760   0.823 -1.5780  0.4410  0.4697
11475TIP3   OH234367   2.586   5.605   6.219  0.4779  0.2622  0.0350
11475TIP3    H134368   2.605   5.673   6.153  3.3827 -1.2939 -0.8319
11475TIP3    H234369   2.672   5.568   6.240 -0.7445 -1.2279  2.6177
11476TIP3   OH234370   5.127   3.604   6.125  0.4414  0.3689 -0.8176
11476TIP3    H134371   5.116   3.691   6.163  0.9269  0.3375 -0.6144
11476TIP3    H234372   5.037   3.577   6.103  0.1588  0.3918  0.2692
11477TIP3   OH234373   3.030   5.921   6.489 -0.2185  0.5785 -0.1246
11477TIP3    H134374   3.120   5.934   6.459 -0.0970 -0.6420 -0.3085
11477TIP3    H234375   3.036   5.928   6.584  0.1714 -0.0471 -0.0973
11478TIP3   OH234376   2.506   1.234   1.383  0.1989 -0.3751 -0.5762
11478TIP3    H134377   2.584   1.284   1.361  0.2872 -1.1952 -2.1343
11478TIP3    H234378   2.538   1.147   1.406 -0.2750 -0.7751 -1.4270
11479TIP3   OH234379   5.224   6.854   4.732 -0.2542 -0.9221 -0.0622
11479TIP3    H134380   5.211   6.921   4.666 -2.9395 -0.3023  1.0477
11479TIP3    H234381   5.136   6.831   4.762  0.7872 -2.6210  1.8670
11480TIP3   OH234382   2.060   5.673   5.597 -0.0587 -0.1316 -0.0271
11480TIP3    H134383   2.014   5.726   5.662  0.0314  0.4989 -0.4710
11480TIP3    H234384   2.130   5.730   5.565  0.8369 -0.9792  0.4186
11481TIP3   OH234385   4.422   4.673   5.906  0.0403  0.1334  0.1382
11481TIP3    H134386   4.348   4.733   5.901 -0.5179 -0.4957  0.9069
11481TIP3    H234387   4.397   4.608   5.971  1.1056 -0.3072  0.1206
11482TIP3   OH234388   2.523   4.227   5.473 -0.0093 -0.4038 -0.0965
11482TIP3    H134389   2.439   4.270   5.460  0.8257  1.1752 -0.4103
11482TIP3    H234390   2.558   4.266   5.553  0.7208 -0.5934 -0.3208
11483TIP3   OH234391   6.035   5.307   3.481 -0.7128 -0.1102  0.1599
11483TIP3    H134392   5.990   5.288   3.399  1.6539  0.4078 -1.3284
11483TIP3    H234393   6.091   5.231   3.497  0.3176  0.6424  0.2227
11484TIP3   OH234394   4.277   4.928   6.209 -0.3167  0.3321  0.1816
11484TIP3    H134395   4.362   4.914   6.251  0.2179  0.7976 -0.7375
11484TIP3    H234396   4.222   4.857   6.243  0.0869  0.7371  1.7096
11485TIP3   OH234397   4.187   5.539   6.503 -0.2485  0.4397 -0.4726
11485TIP3    H134398   4.139   5.581   6.432 -0.8892  0.2115 -0.1728
11485TIP3    H234399   4.150   5.576   6.583 -0.6684 -0.5321 -0.2160
11486TIP3   OH234400   6.217   4.637   4.877 -0.1445 -0.7443 -0.3100
11486TIP3    H134401   6.271   4.714   4.893 -0.8058 -0.2200 -0.5985
11486TIP3    H234402   6.227   4.619   4.784 -1.6556  0.2719 -0.6951
11487TIP3   OH234403   5.606   5.800   4.853 -0.1961  0.5663  0.1045
11487TIP3    H134404   5.523   5.810   4.806 -0.4930 -1.4463  0.1588
11487TIP3    H234405   5.588   5.731   4.917  0.6128  2.3013  2.2326
11488TIP3   OH234406   4.260   1.924   0.557  0.1168 -0.3536  0.3420
11488TIP3    H134407   4.234   1.981   0.485  1.2893  0.2447  0.3856
11488TIP3    H234408   4.195   1.853   0.556  0.2157 -0.4399 -1.3963
11489TIP3   OH234409   5.045   4.376   4.931  0.1507 -0.7718 -0.5257
11489TIP3    H134410   5.120   4.358   4.989 -0.6536  1.0703  1.1434
11489TIP3    H234411   4.995   4.294   4.932  0.0853 -0.7505  1.5360
11490TIP3   OH234412   5.169   5.483   4.423 -0.0461  0.6466  0.7922
11490TIP3    H134413   5.126   5.564   4.397 -0.0253 -0.0803 -1.6170
11490TIP3    H234414   5.259   5.509   4.444 -0.1896  1.3291  0.5611
11491TIP3   OH234415   6.525   3.894   5.535  0.1546 -0.2661  0.5176
11491TIP3    H134416   6.448   3.859   5.579 -0.6774  1.4011  0.4226
11491TIP3    H234417   6.530   3.845   5.452 -1.1813  0.0494  0.2342
11492TIP3   OH234418   1.283   7.524   1.214 -0.5503  0.0081 -0.0018
11492TIP3    H134419   1.377   7.531   1.202 -0.6331 -0.6895 -1.0827
11492TIP3    H234420   1.271   7.522   1.309  0.6580 -1.7000  0.1336
11493TIP3   OH234421   7.626   7.522   0.275 -0.0627 -0.1730 -0.0522
11493TIP3    H134422   7.672   7.540   0.356 -3.0274  0.3465  1.5893
11493TIP3    H234423   7.620   7.606   0.230  1.2567 -0.3939 -0.6633
11494TIP3   OH234424   4.475   5.899   5.816  0.0893 -0.1798  0.6381
11494TIP3    H134425   4.527   5.850   5.752  0.0889  0.6359 -0.0075
11494TIP3    H234426   4.518   5.985   5.820 -1.5632  0.7277 -0.3848
11495TIP3   OH234427   5.366   3.034   6.326  0.2510  0.1917 -0.1071
11495TIP3    H134428   5.422   3.111   6.320  1.6709 -0.8896 -1.0421
11495TIP3    H234429   5.278   3.069   6.343  0.7177  2.0510 -1.3937
11496TIP3   OH234430   3.721   2.502   4.921 -0.3805  0.4513  0.5241
11496TIP3    H134431   3.806   2.484   4.960  0.0787 -0.1108 -0.7228
11496TIP3    H234432   3.660   2.501   4.994  0.5027 -0.3761  1.2496
11497TIP3   OH234433   5.707   2.972   4.639  0.0413 -0.9585 -0.1077
11497TIP3    H134434   5.774   3.025   4.682  1.2033 -1.3178 -1.4311
11497TIP3    H234435   5.694   2.898   4.699  2.9775 -2.4306 -1.1530
11498TIP3   OH234436   4.076   0.082   0.294 -0.1127 -0.4285  0.1936
11498TIP3    H134437   4.143   0.043   0.349 -0.0455  0.1281  0.5152
11498TIP3    H234438   3.994   0.066   0.340 -0.1586 -0.7700 -0.0064
11499TIP3   OH234439   3.828   5.671   5.944  0.2530 -0.2507 -0.5296
11499TIP3    H134440   3.900   5.732   5.960  3.0320 -3.7619  1.0194
11499TIP3    H234441   3.848   5.631   5.859 -1.2881  0.5563 -1.3038
11500TIP3   OH234442   5.288   3.770   6.635  0.3135  0.1472  0.6992
11500TIP3    H134443   5.238   3.695   6.603  0.7910  0.0440  0.1992
11500TIP3    H234444   5.234   3.806   6.706  0.2477 -0.8798  1.1872
11501TIP3   OH234445   5.078   3.858   6.205  0.0728 -0.2630  0.3543
11501TIP3    H134446   5.155   3.914   6.197  1.9187 -2.8525 -0.9505
11501TIP3    H234447   5.047   3.872   6.294  1.8311  1.1220  0.7783
11502TIP3   OH234448   6.438   5.078   5.866 -0.4820 -0.4690 -0.7692
11502TIP3    H134449   6.482   5.050   5.946 -0.2931 -0.4435 -0.8642
11502TIP3    H234450   6.448   5.004   5.805  1.2660  0.3370 -1.5137
11503TIP3   OH234451   1.393   0.744   0.388 -0.3876  0.2158 -0.1163
11503TIP3    H134452   1.361   0.765   0.300  0.1719 -0.2467 -0.4334
11503TIP3    H234453   1.471   0.691   0.373 -0.0697  0.4579  0.6584
11504TIP3   OH234454   7.926   7.703   0.760  0.2909  0.2513 -0.1905
11504TIP3    H134455   7.909   7.615   0.795  1.8256 -0.0440 -0.1584
11504TIP3    H234456   7.854   7.757   0.793 -1.2361 -1.2086 -1.0403
11505TIP3   OH234457   5.554   6.023   6.797  0.0777  0.2813 -0.1011
11505TIP3    H134458   5.602   6.006   6.716  1.2461 -0.1328  0.6575
11505TIP3    H234459   5.608   5.983   6.865  0.5268  3.0162  1.2061
11506TIP3   OH234460   4.857   3.636   5.579  0.4565 -0.8777 -0.7907
11506TIP3    H134461   4.930   3.577   5.558  1.1878  1.0666 -3.9629
11506TIP3    H234462   4.779   3.588   5.551  0.3994 -3.0146  2.7173
11507TIP3   OH234463   3.940   3.699   6.175 -0.1596  0.2876 -0.0074
11507TIP3    H134464   3.978   3.779   6.211  2.9493 -1.6627  1.2119
11507TIP3    H234465   4.015   3.650   6.140 -2.4252 -0.3019 -4.5008
11508TIP3   OH234466   2.684   1.094   0.017  0.5572  0.0807  0.2365
11508TIP3    H134467   2.765   1.048  -0.003 -0.3901 -0.1190 -3.4512
11508TIP3    H234468   2.703   1.186   0.000 -0.1406 -0.0429 -1.3139
11509TIP3   OH234469   3.186   3.780   1.688 -0.0170  0.5789 -0.1912
11509TIP3    H134470   3.193   3.808   1.597  1.1591 -2.1674 -1.0101
11509TIP3    H234471   3.266   3.729   1.703 -0.3973  0.6569  2.2619
11510TIP3   OH234472   3.931   3.745   6.631 -0.3571  0.3652  0.1500
11510TIP3    H134473   3.847   3.717   6.596 -0.2570  0.4471 -0.1548
11510TIP3    H234474   3.985   3.764   6.554 -0.2064  0.7483  0.3482
11511TIP3   OH234475   5.988   6.032   6.256 -0.1375 -0.0604 -0.0378
11511TIP3    H134476   6.050   5.959   6.256 -0.3555 -0.2568  1.2087
11511TIP3    H234477   5.942   6.025   6.173 -0.4953 -1.6432  0.2892
11512TIP3   OH234478   3.742   5.775   5.639  0.7633  0.2768  0.0060
11512TIP3    H134479   3.742   5.694   5.588 -1.3150  0.3620 -0.1873
11512TIP3    H234480   3.777   5.841   5.580  0.5814 -0.0904 -0.5154
11513TIP3   OH234481   6.750   5.302   6.886  0.4906 -0.3481 -0.2490
11513TIP3    H134482   6.723   5.214   6.860 -0.3547 -0.1881  0.0803
11513TIP3    H234483   6.827   5.288   6.942  0.3498 -0.8717 -0.1801
11514TIP3   OH234484   4.686   7.032   6.737 -0.5199  0.1261  0.2694
11514TIP3    H134485   4.693   7.075   6.652  1.9722  1.0077  0.8799
11514TIP3    H234486   4.686   6.939   6.717 -0.1265  0.3342 -0.6999
11515TIP3   OH234487   5.109   5.486   5.639 -0.5732 -0.6241 -0.0985
11515TIP3    H134488   5.020   5.456   5.620 -0.7286 -0.9923  1.1504
11515TIP3    H234489   5.099   5.548   5.711  0.0425  0.4018 -0.8862
11516TIP3   OH234490   1.527   0.677   1.008 -0.3936  1.2551 -0.1215
11516TIP3    H134491   1.485   0.758   1.040 -0.5341  1.2909 -0.3989
11516TIP3    H234492   1.513   0.614   1.079 -0.7106  1.3339 -0.1115
11517TIP3   OH234493   4.996   5.906   6.787 -0.0584  0.0239 -0.3148
11517TIP3    H134494   4.901   5.916   6.786  0.0005  0.6153 -0.3760
11517TIP3    H234495   5.024   5.926   6.698  0.0434 -1.0237 -0.5243
11518TIP3   OH234496   5.135   6.571   6.922 -0.0660  0.2200 -0.5487
11518TIP3    H134497   5.216   6.611   6.951  0.0139 -1.4519  1.7033
11518TIP3    H234498   5.163   6.491   6.876 -0.4088 -0.5986  0.6277
11519TIP3   OH234499   3.772   5.164   5.976 -0.3279 -0.1405 -0.6449
11519TIP3    H134500   3.777   5.202   6.064 -1.0979 -0.7607 -0.3301
11519TIP3    H234501   3.678   5.162   5.955 -0.2083 -0.6996 -1.1685
11520TIP3   OH234502   3.467   6.968   5.305 -0.2111 -0.6340 -0.5789
11520TIP3    H134503   3.396   6.980   5.241 -0.3886 -2.5433 -0.7706
11520TIP3    H234504   3.450   6.882   5.343 -0.0814  0.4449  2.0320
11521TIP3   OH234505   5.883   4.036   5.703  0.2718 -0.2329  0.0292
11521TIP3    H134506   5.957   3.975   5.710 -0.2580 -0.7277  1.5248
11521TIP3    H234507   5.819   3.989   5.650  1.0778  0.2440 -1.3690
11522TIP3   OH234508   4.328   2.782   5.395 -0.6489  0.3503 -0.4830
11522TIP3    H134509   4.412   2.773   5.440 -0.9338 -0.0797 -0.0373
11522TIP3    H234510   4.322   2.703   5.340 -1.2808 -0.1913  0.3496
11523TIP3   OH234511   6.811   2.329   6.763 -0.1811  0.0778 -0.9293
11523TIP3    H134512   6.736   2.357   6.710 -1.6156 -2.2499 -0.2322
11523TIP3    H234513   6.812   2.389   6.837 -1.1860  0.3108 -1.0977
11524TIP3   OH234514   4.145   3.927   6.140  0.2469  0.3112 -0.6133
11524TIP3    H134515   4.172   3.897   6.053 -1.8828  2.4189 -2.0521
11524TIP3    H234516   4.217   3.985   6.168  0.8371 -0.2000 -1.0634
11525TIP3   OH234517   7.996   6.460   0.790  0.3908 -0.8728  0.2291
11525TIP3    H134518   8.077   6.457   0.841 -0.3494 -1.7307  1.3827
11525TIP3    H234519   7.926   6.458   0.855 -0.5705 -0.1393 -0.7541
11526TIP3   OH234520   5.812   4.837   6.410  0.1237 -0.3137 -0.3003
11526TIP3    H134521   5.897   4.880   6.412 -0.3582  0.7823 -2.2739
11526TIP3    H234522   5.822   4.768   6.345 -1.1932  1.3898 -2.3607
11527TIP3   OH234523   3.735   0.751   0.847 -0.1917  0.0695 -0.3345
11527TIP3    H134524   3.779   0.669   0.824 -0.2492  0.3686 -1.5583
11527TIP3    H234525   3.710   0.789   0.763 -2.4728  0.0859  0.3279
11528TIP3   OH234526   0.799   6.249   0.681  0.3748 -0.3539  0.0070
11528TIP3    H134527   0.796   6.320   0.617 -1.0751 -0.8894 -0.5536
11528TIP3    H234528   0.707   6.233   0.703  0.8471 -0.3555  2.0440
11529TIP3   OH234529   6.024   4.409   5.934 -0.4254  0.3562  0.9618
11529TIP3    H134530   6.031   4.337   5.871 -2.9427  1.1029 -0.2510
11529TIP3    H234531   6.107   4.457   5.925 -0.7986  0.5642 -1.9876
11530TIP3   OH234532   2.143   5.512   3.328  0.3589  0.6017 -0.0153
11530TIP3    H134533   2.235   5.514   3.355  0.3797  0.2778 -0.0605
11530TIP3    H234534   2.107   5.436   3.373  0.1560  0.6250 -0.1381
11531TIP3   OH234535   7.032   2.564   4.273  0.0724  0.4540  0.0231
11531TIP3    H134536   7.026   2.659   4.260 -1.0569  0.3904  0.0295
11531TIP3    H234537   7.049   2.529   4.186  0.3529  0.6527 -0.0029
11532TIP3   OH234538   3.882   4.762   5.194  0.1327  0.0982  0.1194
11532TIP3    H134539   3.811   4.813   5.233 -0.8865 -1.0683 -0.1659
11532TIP3    H234540   3.858   4.671   5.212 -0.5193 -0.5046 -3.4217
11533TIP3   OH234541   5.033   5.704   4.386 -0.2460 -0.1124  0.3391
11533TIP3    H134542   5.045   5.724   4.479  1.0741  1.3120 -0.1193
11533TIP3    H234543   4.995   5.784   4.349  0.0930 -0.3366 -0.5199
11534TIP3   OH234544   4.880   3.447   4.269 -0.1262 -0.2814 -0.1992
11534TIP3    H134545   4.933   3.460   4.348  3.1101 -0.4351 -2.2512
11534TIP3    H234546   4.857   3.354   4.270 -0.2388 -0.2482  0.6265
11535TIP3   OH234547   3.086   5.871   6.749 -0.1056 -0.5015 -0.2641
11535TIP3    H134548   3.096   5.930   6.823 -1.8590  0.0022 -0.3990
11535TIP3    H234549   3.033   5.798   6.783 -0.0889 -0.7506 -0.7607
11536TIP3   OH234550   6.096   4.221   5.743  0.3456  0.3967 -0.4952
11536TIP3    H134551   6.109   4.238   5.650  1.9966 -2.0608 -0.7636
11536TIP3    H234552   6.031   4.150   5.745 -1.5136  2.0622  0.3439
11537TIP3   OH234553   3.325   5.293   6.853 -0.1914 -0.2790 -0.2560
11537TIP3    H134554   3.367   5.239   6.920 -0.7518 -0.1224  0.2324
11537TIP3    H234555   3.300   5.373   6.899 -1.6058 -0.6400 -0.3725
11538TIP3   OH234556   5.687   3.632   4.174  0.2068  0.7677 -0.2613
11538TIP3    H134557   5.768   3.620   4.223 -1.1039  0.3832  1.8585
11538TIP3    H234558   5.628   3.678   4.234 -1.6937 -0.4121 -1.1679
11539TIP3   OH234559   4.414   2.934   1.102 -0.2685 -0.4838  0.1645
11539TIP3    H134560   4.319   2.945   1.099 -0.2346 -0.4319 -0.9634
11539TIP3    H234561   4.427   2.845   1.137 -0.7090 -0.1854  1.0986
11540TIP3   OH234562   7.400   4.792   4.639  0.2756  0.4882  0.2111
11540TIP3    H134563   7.385   4.698   4.652 -1.5529  0.3968 -2.1902
11540TIP3    H234564   7.317   4.825   4.606  2.4174  1.9273 -4.0832
11541TIP3   OH234565   7.414   4.705   6.110  0.1265 -0.2832 -0.4773
11541TIP3    H134566   7.432   4.612   6.098 -0.3866 -0.2087 -1.9387
11541TIP3    H234567   7.495   4.749   6.086  0.1670 -0.3233 -0.4127
11542TIP3   OH234568   5.010   4.723   5.830 -0.2983  0.4455 -0.4014
11542TIP3    H134569   5.088   4.672   5.851  0.1218  0.3444 -2.1649
11542TIP3    H234570   4.959   4.723   5.911  0.2493 -1.7532 -0.0319
11543TIP3   OH234571   5.603   4.768   6.018  0.6201  0.5262  0.3822
11543TIP3    H134572   5.530   4.749   6.077  1.3978  2.3939  1.9842
11543TIP3    H234573   5.629   4.857   6.040  3.2914 -0.0538 -0.2728
11544TIP3   OH234574   6.520   4.617   6.219  0.7039  0.0768 -0.1729
11544TIP3    H134575   6.612   4.639   6.204  1.5265 -1.9063  1.6597
11544TIP3    H234576   6.498   4.663   6.300 -0.3176  1.5517 -1.2593
11545TIP3   OH234577   5.934   2.717   5.719  0.2874 -0.2304  0.2116
11545TIP3    H134578   5.986   2.668   5.783 -0.9014  0.0080  1.3904
11545TIP3    H234579   5.892   2.649   5.665 -0.0692 -0.4862  0.8018
11546TIP3   OH234580   6.647   2.567   6.865 -0.6763 -0.0390  0.4712
11546TIP3    H134581   6.614   2.642   6.817  0.6553 -0.2361 -0.7858
11546TIP3    H234582   6.738   2.589   6.884 -0.3366 -1.2366  0.2813
11547TIP3   OH234583   6.264   4.507   5.836  0.0955  0.0586 -0.3983
11547TIP3    H134584   6.292   4.531   5.924 -2.4471  1.3973  0.0903
11547TIP3    H234585   6.317   4.430   5.815  1.0155 -0.0707  2.1276
11548TIP3   OH234586   7.575   4.536   3.444  0.9490 -0.0700  0.0354
11548TIP3    H134587   7.501   4.589   3.416  1.5300  2.4238  3.0224
11548TIP3    H234588   7.640   4.547   3.374 -0.0933  0.6526 -0.8396
11549TIP3   OH234589   7.749   1.101   4.367  0.4678  0.4740 -0.0248
11549TIP3    H134590   7.683   1.123   4.434  1.0328  1.1771  0.3020
11549TIP3    H234591   7.754   1.179   4.312  0.7811  0.2872 -0.2590
11550TIP3   OH234592   7.175   4.952   4.477 -0.0602  0.1464  0.4707
11550TIP3    H134593   7.117   4.882   4.505  0.5056 -0.0392  1.1861
11550TIP3    H234594   7.194   4.932   4.386 -1.9771  0.8011 -0.1104
11551TIP3   OH234595   7.069   3.157   4.471 -0.3543 -0.3405 -0.3267
11551TIP3    H134596   7.126   3.086   4.502  0.9872  0.9364  0.2174
11551TIP3    H234597   7.060   3.215   4.547  0.6335  1.3554 -1.4642
11552TIP3   OH234598   6.355   3.428   6.475  0.7059  0.4084 -0.1739
11552TIP3    H134599   6.338   3.519   6.452 -0.9061  0.5293  1.4100
11552TIP3    H234600   6.273   3.383   6.459  0.7105 -0.2454  1.5736
11553TIP3   OH234601   5.447   4.142   4.949  0.6366  0.4466 -0.0786
11553TIP3    H134602   5.480   4.078   5.012  1.8225  0.8512 -0.2648
11553TIP3    H234603   5.363   4.107   4.920 -1.1263  1.3951  3.5300
11554TIP3   OH234604   7.317   5.300   6.369  0.0475 -0.5945  0.8546
11554TIP3    H134605   7.341   5.337   6.284 -1.5674 -0.7676  0.3171
11554TIP3    H234606   7.354   5.362   6.432 -2.5299  1.9909 -0.0317
11555TIP3   OH234607   5.841   1.473   0.135  0.2784 -0.0782 -0.2303
11555TIP3    H134608   5.773   1.481   0.068  1.0640 -0.4616 -1.0815
11555TIP3    H234609   5.794   1.442   0.213 -0.9400  2.1771 -0.0430
11556TIP3   OH234610   7.595   5.582   3.674  0.0833  0.8260 -0.2682
11556TIP3    H134611   7.581   5.487   3.673  1.9210  0.5286 -0.7080
11556TIP3    H234612   7.527   5.617   3.617 -0.3406 -0.2748 -0.4571
11557TIP3   OH234613   5.406   3.814   5.947 -0.3629  0.2877  0.0902
11557TIP3    H134614   5.314   3.803   5.972  0.6913 -2.0697  3.2125
11557TIP3    H234615   5.441   3.875   6.011  0.7938 -0.5451  0.2608
11558TIP3   OH234616   1.064   6.184   5.888  0.0096 -0.0699 -0.1522
11558TIP3    H134617   1.083   6.277   5.902  4.3642 -0.7979 -0.3830
11558TIP3    H234618   1.063   6.174   5.793  1.4252 -0.5406 -0.1318
11559TIP3   OH234619   1.747   1.150   0.179  0.5839  0.2036 -0.0532
11559TIP3    H134620   1.795   1.204   0.116  0.1892 -0.7358 -1.1836
11559TIP3    H234621   1.671   1.119   0.130  0.4148 -0.7661  0.8080
11560TIP3   OH234622   7.375   6.736   4.504 -0.1925 -0.3845  0.5946
11560TIP3    H134623   7.463   6.771   4.517 -0.8865  1.3009  0.8533
11560TIP3    H234624   7.378   6.647   4.539  1.8057 -0.8776 -0.7469
11561TIP3   OH234625   5.667   5.318   4.265 -0.0493 -0.1021 -0.3091
11561TIP3    H134626   5.706   5.293   4.181 -0.2828 -1.6561  0.0261
11561TIP3    H234627   5.618   5.241   4.292  0.9148 -0.0150  1.7745
11562TIP3   OH234628   8.407   3.033   5.636  0.0754 -0.1275  0.1549
11562TIP3    H134629   8.364   3.098   5.581  2.0425  0.7207 -0.4148
11562TIP3    H234630   8.452   2.975   5.575  1.0430 -0.0713  0.8083
11563TIP3   OH234631   1.423   2.820   4.794 -0.0606 -0.8479 -0.0562
11563TIP3    H134632   1.376   2.794   4.714  0.4463  0.5627 -0.8289
11563TIP3    H234633   1.388   2.906   4.816  2.7366  0.6342 -1.1383
11564TIP3   OH234634   7.719   3.872   6.342  0.5281  0.4600 -0.2693
11564TIP3    H134635   7.650   3.858   6.407  0.8766 -0.6624 -0.1366
11564TIP3    H234636   7.673   3.876   6.258  0.3201 -0.5436 -0.2094
11565TIP3   OH234637   5.731   6.551   4.694  0.0548 -0.3761 -0.1642
11565TIP3    H134638   5.784   6.595   4.760  1.2097 -0.9325 -0.7243
11565TIP3    H234639   5.658   6.513   4.744  1.6305 -1.9287  0.9935
11566TIP3   OH234640   6.643   5.120   5.155 -1.2689 -0.6562  0.3067
11566TIP3    H134641   6.577   5.056   5.129 -0.0109 -1.6983 -0.3763
11566TIP3    H234642   6.681   5.084   5.236 -1.6715  0.0414  0.8099
11567TIP3   OH234643   8.327   5.040   4.795 -0.2617 -0.0893 -0.0499
11567TIP3    H134644   8.312   5.127   4.759 -0.8459 -0.3997 -0.5787
11567TIP3    H234645   8.239   5.008   4.817 -0.0233 -0.4123  0.4435
11568TIP3   OH234646   5.599   3.254   4.922  0.0853 -0.2235 -0.0363
11568TIP3    H134647   5.511   3.217   4.927 -0.4719  1.0765  0.1386
11568TIP3    H234648   5.655   3.190   4.965 -0.3978 -2.1856 -2.2691
11569TIP3   OH234649   5.479   3.982   4.600  0.1879 -0.1682 -0.3197
11569TIP3    H134650   5.507   3.894   4.624 -1.3520 -0.3602  0.8700
11569TIP3    H234651   5.404   3.969   4.542 -0.3450  0.3544  0.2414
11570TIP3   OH234652   5.277   4.101   6.000  0.6619  0.0758 -0.8558
11570TIP3    H134653   5.277   4.175   5.939  1.7303 -0.3026 -1.3446
11570TIP3    H234654   5.211   4.040   5.966 -0.0066  0.6654 -0.6179
11571TIP3   OH234655   5.953   1.775   2.667 -0.0601  0.3869  0.4250
11571TIP3    H134656   5.908   1.846   2.621  0.9029  0.1054 -0.9965
11571TIP3    H234657   5.884   1.728   2.712 -1.2125  0.0017 -1.6780
11572TIP3   OH234658   0.031   4.481   6.793  0.2489  0.1383 -0.7570
11572TIP3    H134659  -0.012   4.514   6.872 -1.9950 -1.5438 -1.2175
11572TIP3    H234660   0.091   4.414   6.824 -1.2168 -1.0884 -0.5217
11573TIP3   OH234661   3.617   3.976   1.059  0.5048 -0.0946  0.2629
11573TIP3    H134662   3.581   4.032   1.127 -0.1353 -2.7124  2.1659
11573TIP3    H234663   3.555   3.903   1.052  2.7386 -2.0419 -0.0662
11574TIP3   OH234664   6.120   4.625   4.037  0.1709  0.1559 -0.1173
11574TIP3    H134665   6.098   4.563   4.106 -0.5406  0.2218 -0.2791
11574TIP3    H234666   6.063   4.600   3.964 -1.4013  2.0938  0.4128
11575TIP3   OH234667   8.213   3.063   6.563 -0.0526  0.5282  0.3244
11575TIP3    H134668   8.190   2.969   6.562  1.7415  0.0786 -0.1092
11575TIP3    H234669   8.129   3.108   6.553 -1.0493 -1.0074  1.5578
11576TIP3   OH234670   2.835   1.911   0.103 -0.3152  0.1798 -0.2569
11576TIP3    H134671   2.920   1.894   0.144 -0.1682  0.4280 -0.4593
11576TIP3    H234672   2.823   2.006   0.113 -0.6503  0.1160 -0.0665
11577TIP3   OH234673   6.538   2.778   6.002 -0.3218 -0.0789  0.3815
11577TIP3    H134674   6.551   2.828   6.083  0.5460  0.6563 -0.1938
11577TIP3    H234675   6.444   2.766   5.996 -0.3499 -0.7100  1.8452
11578TIP3   OH234676   1.921   2.936   1.422 -0.2201  0.5322 -0.3113
11578TIP3    H134677   1.907   2.854   1.469 -0.2166  1.9765  2.2872
11578TIP3    H234678   1.983   2.913   1.353  0.0633 -1.5685  0.5945
11579TIP3   OH234679   7.442   4.740   6.378 -0.0219  0.5491 -0.1162
11579TIP3    H134680   7.416   4.741   6.286 -0.7677  0.0769  0.0902
11579TIP3    H234681   7.374   4.689   6.423  0.5203  0.4737  0.6404
11580TIP3   OH234682   5.723   5.770   6.704 -0.3576  0.0646  0.3033
11580TIP3    H134683   5.717   5.729   6.617  0.3788  0.6317 -0.0136
11580TIP3    H234684   5.752   5.699   6.761 -0.2132 -0.1498 -0.0316
11581TIP3   OH234685   8.109   5.022   5.594 -0.3532  0.2667  0.5171
11581TIP3    H134686   8.047   5.092   5.615  0.2221  0.6873  0.8328
11581TIP3    H234687   8.057   4.941   5.602 -0.8957  0.6230  0.6406
11582TIP3   OH234688   5.519   4.816   4.560  0.5337  0.0419  0.3988
11582TIP3    H134689   5.435   4.806   4.515  1.5128 -0.1668 -1.3858
11582TIP3    H234690   5.527   4.910   4.574  0.1892  0.1004  0.2100
11583TIP3   OH234691   6.644   4.833   4.860  0.0738 -0.4880  0.3165
11583TIP3    H134692   6.658   4.842   4.954 -0.6033 -0.6693  0.4343
11583TIP3    H234693   6.662   4.920   4.825 -2.8207  0.4283  1.0034
11584TIP3   OH234694   6.934   5.267   5.457  0.3460 -0.5047  0.0652
11584TIP3    H134695   7.008   5.322   5.430 -0.2316 -0.3302 -1.2047
11584TIP3    H234696   6.964   5.178   5.440  0.0988 -0.4104 -0.8836
11585TIP3   OH234697   6.418   3.787   6.159  0.3238  0.1120 -0.2966
11585TIP3    H134698   6.347   3.733   6.125  0.9946 -0.4213 -0.8586
11585TIP3    H234699   6.496   3.756   6.114  0.6232  2.0091 -1.1487
11586TIP3   OH234700   7.716   5.144   5.954  0.1154  0.1800 -0.2016
11586TIP3    H134701   7.796   5.184   5.989  0.9040 -1.2067 -0.3809
11586TIP3    H234702   7.685   5.206   5.888  1.0650  0.7034 -0.1655
11587TIP3   OH234703   8.134   3.653   5.897  0.0241 -0.1252  0.6156
11587TIP3    H134704   8.053   3.704   5.903 -0.1424 -0.2223 -0.6391
11587TIP3    H234705   8.110   3.577   5.844  1.4787  0.9761 -1.6821
11588TIP3   OH234706   7.529   4.905   5.564 -0.9470  0.1163  0.0971
11588TIP3    H134707   7.604   4.933   5.616  0.2128 -0.4948 -1.2143
11588TIP3    H234708   7.533   4.810   5.564 -0.1741  0.1020 -2.1255
11589TIP3   OH234709   6.371   3.177   4.434 -0.1059  0.8887 -0.3886
11589TIP3    H134710   6.288   3.210   4.469 -0.5681 -0.2183 -0.4302
11589TIP3    H234711   6.356   3.173   4.339 -1.0292 -2.0392 -0.1763
11590TIP3   OH234712   5.967   5.234   5.327  0.0051  0.5569  0.1799
11590TIP3    H134713   6.013   5.170   5.382 -1.2221 -0.0293  0.5564
11590TIP3    H234714   6.028   5.254   5.257  0.0568 -1.7767 -0.4854
11591TIP3   OH234715   8.408   5.273   3.387 -0.6241 -0.2332 -0.6275
11591TIP3    H134716   8.376   5.191   3.350  1.4277 -1.1807 -0.4087
11591TIP3    H234717   8.431   5.327   3.312 -0.5384 -0.4626 -0.7658
11592TIP3   OH234718   0.605   8.010   0.687 -0.8283 -0.7186 -0.0667
11592TIP3    H134719   0.644   7.975   0.767 -0.7996 -0.6342 -0.0438
11592TIP3    H234720   0.510   8.006   0.703 -0.7980  0.7547  0.6003
11593TIP3   OH234721   6.512   4.036   4.629  0.0231 -0.0743  0.0039
11593TIP3    H134722   6.578   3.968   4.642  1.4827  1.0813 -1.1272
11593TIP3    H234723   6.443   3.994   4.579  1.2946 -0.5416 -1.4031
11594TIP3   OH234724   7.917   3.623   6.372  0.7923 -0.2783 -0.2436
11594TIP3    H134725   7.842   3.682   6.381 -0.2133 -1.3894 -1.1990
11594TIP3    H234726   7.979   3.672   6.316 -0.1172 -0.2121 -1.1970
11595TIP3   OH234727   4.327   0.966   0.227 -0.0944 -0.1372  0.1918
11595TIP3    H134728   4.409   0.965   0.275  0.3515  0.8582 -0.5361
11595TIP3    H234729   4.335   0.895   0.164  0.0442 -0.2969  0.3908
11596TIP3   OH234730   7.610   5.462   5.485 -0.6310 -0.8115 -0.4754
11596TIP3    H134731   7.572   5.502   5.406  0.2011  1.3235  0.1761
11596TIP3    H234732   7.672   5.527   5.518  0.6168 -2.5753  0.7556
11597TIP3   OH234733   0.913   4.661   2.784 -0.4725 -0.6999  0.5770
11597TIP3    H134734   0.849   4.711   2.734 -1.1923 -0.7188  1.4699
11597TIP3    H234735   0.945   4.595   2.723 -1.9375 -1.2281  0.3760
11598TIP3   OH234736   6.580   5.004   6.078 -0.6877 -0.2386 -0.6946
11598TIP3    H134737   6.590   4.917   6.040  1.8709  0.0581 -0.7747
11598TIP3    H234738   6.601   4.993   6.170 -2.7953 -0.1496 -0.1713
11599TIP3   OH234739   5.135   4.661   4.214  0.6255  0.0812 -0.0682
11599TIP3    H134740   5.152   4.567   4.220 -3.6999 -0.6785  1.5448
11599TIP3    H234741   5.080   4.671   4.137 -0.2610  1.0698  0.6761
11600TIP3   OH234742   7.467   6.518   3.271  0.8583 -0.1273  0.0171
11600TIP3    H134743   7.490   6.447   3.332 -0.6872 -1.1059 -0.4828
11600TIP3    H234744   7.539   6.580   3.276  1.3016 -0.7860  1.9630
11601TIP3   OH234745   6.654   4.563   3.065 -0.0506  0.1513 -0.1779
11601TIP3    H134746   6.718   4.581   3.134  0.9046 -1.0048 -0.7468
11601TIP3    H234747   6.570   4.564   3.110  0.3844  1.3727  0.6355
11602TIP3   OH234748   8.130   7.728   1.837  0.6470  0.1203 -0.6805
11602TIP3    H134749   8.121   7.700   1.746 -0.4033  1.5079 -1.0088
11602TIP3    H234750   8.201   7.792   1.836  0.4631  0.3231 -0.5492
11603TIP3   OH234751   4.063   6.141   4.412 -0.4434  0.2822  0.1517
11603TIP3    H134752   4.015   6.082   4.470 -0.2357  0.7955  0.8609
11603TIP3    H234753   3.999   6.207   4.387 -0.3128  0.5414  0.4911
11604TIP3   OH234754   2.567   6.655   0.029  0.3403 -0.3074 -0.4158
11604TIP3    H134755   2.614   6.664  -0.054  1.2115  0.4409  0.1502
11604TIP3    H234756   2.619   6.591   0.078 -0.9712 -1.8520 -0.9941
11605TIP3   OH234757   7.584   2.644   6.430 -0.9397  0.3118 -0.0433
11605TIP3    H134758   7.579   2.738   6.448 -0.1888  0.1879  0.8008
11605TIP3    H234759   7.668   2.633   6.386  0.0636 -0.3006  1.9597
11606TIP3   OH234760   5.806   4.049   4.081 -0.1929  0.0191 -0.2865
11606TIP3    H134761   5.720   4.015   4.058 -0.2252  0.2352 -0.4756
11606TIP3    H234762   5.868   3.990   4.038 -0.2255 -0.9310  0.9142
11607TIP3   OH234763   6.718   4.947   5.405  0.1858  0.6038 -0.0938
11607TIP3    H134764   6.807   4.978   5.393  0.0757  0.5859 -1.0175
11607TIP3    H234765   6.727   4.857   5.437  0.5009  0.6412 -0.0854
11608TIP3   OH234766   7.695   4.626   4.111 -0.4448  0.0487 -0.4088
11608TIP3    H134767   7.736   4.694   4.059 -0.1533 -0.1326 -0.4173
11608TIP3    H234768   7.604   4.654   4.120  0.4460  2.2038  2.5070
11609TIP3   OH234769   4.240   0.388   0.851  0.2292  0.6818 -0.0349
11609TIP3    H134770   4.277   0.415   0.767  0.2563  0.6975 -0.0178
11609TIP3    H234771   4.197   0.304   0.833  3.7261 -1.3831  0.8261
11610TIP3   OH234772   4.420   4.979   5.119  0.6514 -0.6303  0.2892
11610TIP3    H134773   4.476   5.054   5.103 -0.1353 -0.4623 -1.7996
11610TIP3    H234774   4.479   4.904   5.117  1.4338 -0.1082  2.3321
11611TIP3   OH234775   4.102   0.171   0.738  0.2789  0.0154 -0.0919
11611TIP3    H134776   4.147   0.096   0.699 -0.9373 -1.9301  2.0892
11611TIP3    H234777   4.032   0.192   0.677  0.5565 -0.6950 -0.6617
11612TIP3   OH234778   1.890   7.932   0.128  0.0546 -0.1715  0.0256
11612TIP3    H134779   1.935   7.996   0.183 -0.7442 -0.2951  0.8577
11612TIP3    H234780   1.818   7.981   0.088 -0.4290 -0.4801  0.4970
11613TIP3   OH234781   6.174   2.905   4.101  0.1458 -0.0847 -0.4556
11613TIP3    H134782   6.095   2.918   4.049  0.0973  0.1871 -0.3164
11613TIP3    H234783   6.224   2.839   4.053  0.8746  1.3599 -1.7274
11614TIP3   OH234784   5.078   1.866   0.552  0.4230 -0.3338  0.7585
11614TIP3    H134785   5.163   1.874   0.509  0.3021 -3.6068 -0.1859
11614TIP3    H234786   5.097   1.827   0.637 -0.0495 -0.1832  0.9364
11615TIP3   OH234787   6.754   3.770   5.664  0.2235 -0.3009 -0.0380
11615TIP3    H134788   6.659   3.782   5.657  0.4693  1.4994 -0.6267
11615TIP3    H234789   6.771   3.686   5.623 -1.0636 -0.3620 -0.4662
11616TIP3   OH234790   6.791   6.259   4.323 -0.3482 -0.4694  0.0565
11616TIP3    H134791   6.858   6.191   4.312 -1.3085 -1.2673 -0.9243
11616TIP3    H234792   6.752   6.269   4.236 -0.1010  1.4754  0.1453
11617TIP3   OH234793   0.270   6.882   0.794  0.0722 -0.0478  0.0398
11617TIP3    H134794   0.241   6.941   0.724 -2.2390 -0.4195  0.6481
11617TIP3    H234795   0.239   6.796   0.767  0.5826 -0.4587  0.7460
11618TIP3   OH234796   3.002   1.920   0.508 -0.4619 -0.1683 -0.3912
11618TIP3    H134797   2.947   1.970   0.449  1.0882  1.4556 -0.4955
11618TIP3    H234798   3.050   1.860   0.450 -1.1783 -0.7016 -0.4364
11619TIP3   OH234799   6.055   5.273   4.406 -0.3475  0.4052  0.4860
11619TIP3    H134800   6.082   5.352   4.360 -0.0345  0.2231  0.3504
11619TIP3    H234801   6.007   5.222   4.340 -2.7682  1.6178  1.2677
11620TIP3   OH234802   7.126   4.461   5.652 -0.0607  0.1226 -0.0078
11620TIP3    H134803   7.220   4.470   5.633  0.3569 -1.2735  1.2792
11620TIP3    H234804   7.097   4.551   5.670  0.2417  1.0400 -3.6882
11621TIP3   OH234805   0.809   7.365   0.444  0.3066  0.2442  0.5408
11621TIP3    H134806   0.759   7.367   0.526  0.0639 -0.3735  0.4086
11621TIP3    H234807   0.880   7.427   0.459 -0.6070  1.2844  0.6569
11622TIP3   OH234808   5.821   6.390   6.488 -0.4610  0.2840 -0.4090
11622TIP3    H134809   5.860   6.449   6.552 -0.1426 -0.5221  0.1590
11622TIP3    H234810   5.895   6.343   6.450 -0.7920 -0.6456  0.0592
11623TIP3   OH234811   4.686   3.116   4.997  0.0666 -0.2768 -0.1702
11623TIP3    H134812   4.732   3.199   5.011  0.0436 -0.3050  0.0654
11623TIP3    H234813   4.695   3.100   4.903 -0.5429  0.3648 -0.3507
11624TIP3   OH234814   1.450   1.846   0.110  0.3102  0.0430  0.1476
11624TIP3    H134815   1.439   1.778   0.043  1.5248  1.2856 -1.3450
11624TIP3    H234816   1.383   1.911   0.089 -0.5513 -0.4400  1.3048
11625TIP3   OH234817   5.326   5.031   4.472 -0.2251  0.1187  0.3088
11625TIP3    H134818   5.257   4.965   4.484 -1.8001  1.8122  0.8823
11625TIP3    H234819   5.283   5.101   4.423  1.2594  0.9638  0.1923
11626TIP3   OH234820   7.500   3.870   6.461  0.0851  0.4019  0.5443
11626TIP3    H134821   7.448   3.899   6.536 -0.7931 -0.8494  0.4364
11626TIP3    H234822   7.476   3.931   6.390 -1.1783 -0.1020  0.5210
11627TIP3   OH234823   6.163   1.395   5.911  0.0021 -0.1926 -0.2990
11627TIP3    H134824   6.213   1.412   5.831 -1.2552 -0.9701 -1.2864
11627TIP3    H234825   6.082   1.355   5.879 -1.0989  0.7465  1.2775
11628TIP3   OH234826   3.460   3.990   0.568 -0.3122 -0.0115 -0.1040
11628TIP3    H134827   3.454   3.959   0.658 -0.1467  0.7448  0.1602
11628TIP3    H234828   3.541   3.951   0.535  1.0805  1.9554  0.9241
11629TIP3   OH234829   5.745   5.376   5.033 -0.2832 -0.2346 -0.2724
11629TIP3    H134830   5.752   5.284   5.061 -0.3921  0.1974  1.2163
11629TIP3    H234831   5.822   5.418   5.072 -0.7678  0.5161 -0.1198
11630TIP3   OH234832   8.330   3.221   5.232 -0.3627 -0.4477  0.0098
11630TIP3    H134833   8.393   3.211   5.161  0.0813 -1.4114  0.5379
11630TIP3    H234834   8.381   3.209   5.312 -0.8123  0.8657  0.5110
11631TIP3   OH234835   0.286   4.874   4.645  0.1447 -0.4483  0.5965
11631TIP3    H134836   0.193   4.897   4.639  0.3762 -0.0230 -1.6050
11631TIP3    H234837   0.332   4.954   4.619  1.1146 -0.8494  1.0720
11632TIP3   OH234838   7.951   6.174   3.529  0.0312  0.2098 -0.1031
11632TIP3    H134839   7.858   6.156   3.514  0.2333 -1.2547  0.2401
11632TIP3    H234840   7.974   6.239   3.464 -1.1126  0.1748 -0.5531
11633TIP3   OH234841   7.854   4.728   4.844 -0.2297 -0.8568  0.0451
11633TIP3    H134842   7.916   4.658   4.823  0.2390 -0.6689  0.7849
11633TIP3    H234843   7.806   4.695   4.920  0.3156 -0.1900  0.6928
11634TIP3   OH234844   5.618   6.100   3.909 -0.0546 -0.2521 -0.3362
11634TIP3    H134845   5.636   6.006   3.903 -2.7601 -0.8606  0.3938
11634TIP3    H234846   5.675   6.131   3.980  0.4279 -1.4472 -0.1945
11635TIP3   OH234847   6.520   6.059   6.773 -0.3269 -0.2164 -0.5469
11635TIP3    H134848   6.493   5.967   6.772  0.4186 -0.4359 -0.7094
11635TIP3    H234849   6.570   6.070   6.693  1.6436 -0.3004  0.6399
11636TIP3   OH234850   5.957   3.144   4.233  0.0783  0.1126 -0.5546
11636TIP3    H134851   5.866   3.120   4.215 -0.4278  0.2737  1.6435
11636TIP3    H234852   6.008   3.070   4.200 -0.8862 -0.2100 -1.3391
11637TIP3   OH234853   0.987   0.561   1.223 -0.4819  0.5484 -0.2496
11637TIP3    H134854   0.960   0.557   1.315 -0.0088  1.5251 -0.0591
11637TIP3    H234855   0.942   0.488   1.182 -0.2930 -0.2215  0.8677
11638TIP3   OH234856   7.004   5.060   2.739  0.0341  0.0818  0.8176
11638TIP3    H134857   7.078   5.086   2.683 -0.7017 -0.4861 -0.4578
11638TIP3    H234858   6.997   5.130   2.804  1.1919  0.5388  0.4765
11639TIP3   OH234859   0.330   5.116   4.941 -0.1063 -0.3157 -0.2816
11639TIP3    H134860   0.243   5.080   4.929 -0.3735  0.5177 -0.9309
11639TIP3    H234861   0.319   5.184   5.008  0.3301 -1.2042  0.7037
11640TIP3   OH234862   0.946   6.413   3.363  0.3392  0.1111  0.6243
11640TIP3    H134863   0.978   6.413   3.453  0.3404 -0.0982  0.6231
11640TIP3    H234864   0.851   6.409   3.372  0.3550 -0.3365  0.6101
11641TIP3   OH234865   5.473   1.187   1.746 -0.4140  0.2109  0.0407
11641TIP3    H134866   5.547   1.132   1.720  1.1188  1.1127  2.2931
11641TIP3    H234867   5.466   1.253   1.676  1.3765  0.5306  0.1346
11642TIP3   OH234868   7.088   5.812   6.452 -0.2960  0.6679  0.5715
11642TIP3    H134869   7.109   5.828   6.360 -0.2095 -1.9230  0.1120
11642TIP3    H234870   7.172   5.810   6.497 -0.1457 -0.6861  0.2486
11643TIP3   OH234871   3.620   0.132   0.270  0.8153 -0.7325 -0.6542
11643TIP3    H134872   3.695   0.162   0.218 -0.3215  2.8900 -0.3150
11643TIP3    H234873   3.544   0.167   0.225 -0.4400 -1.0138  1.1989
11644TIP3   OH234874   5.967   4.309   4.549  0.1156  0.7924 -0.4410
11644TIP3    H134875   5.904   4.248   4.588  1.7340 -0.0905  0.8196
11644TIP3    H234876   5.936   4.320   4.459 -0.4471 -1.5668 -0.5684
11645TIP3   OH234877   6.443   3.287   5.215 -0.5770 -0.1367  0.6680
11645TIP3    H134878   6.393   3.350   5.163 -0.1380 -0.2439  0.1207
11645TIP3    H234879   6.483   3.340   5.284  0.7024  0.3724 -0.4454
11646TIP3   OH234880   4.066   1.870   5.147 -0.0958 -0.0310 -0.2938
11646TIP3    H134881   4.075   1.819   5.066  0.9814 -1.3451  0.6386
11646TIP3    H234882   4.153   1.906   5.162 -0.5664  1.1344 -0.3022
11647TIP3   OH234883   7.630   4.907   6.067  0.5282  0.2341 -0.2740
11647TIP3    H134884   7.651   4.992   6.028  0.0978  0.8264  0.7577
11647TIP3    H234885   7.713   4.877   6.104  1.1304 -0.7322 -2.3922
11648TIP3   OH234886   6.892   1.492   5.623  0.0990  0.1430 -0.0377
11648TIP3    H134887   6.937   1.408   5.622 -0.1293  0.0309 -1.2561
11648TIP3    H234888   6.955   1.554   5.586 -1.0590 -0.2004 -2.7235
11649TIP3   OH234889   6.579   5.493   5.213  0.0612 -0.1305  0.0316
11649TIP3    H134890   6.509   5.475   5.150 -0.4424  1.6044  0.0420
11649TIP3    H234891   6.651   5.528   5.160  0.0794  0.1921  0.2648
11650TIP3   OH234892   5.920   5.200   2.939  0.2819 -0.4229  0.0410
11650TIP3    H134893   5.928   5.224   3.031 -0.5985 -0.4419  0.1255
11650TIP3    H234894   5.834   5.232   2.913 -0.3622 -2.2534 -0.2047
11651TIP3   OH234895   6.643   2.528   6.053 -0.1422  0.3793  0.3091
11651TIP3    H134896   6.604   2.605   6.011  0.1269  0.4848  0.2544
11651TIP3    H234897   6.615   2.454   5.999  0.1285  0.5049  0.0004
11652TIP3   OH234898   5.327   6.310   5.851 -0.8795 -0.8377 -0.0301
11652TIP3    H134899   5.286   6.383   5.897  0.9241 -0.0570  0.3953
11652TIP3    H234900   5.283   6.232   5.884 -0.3479 -0.2200  2.2423
11653TIP3   OH234901   4.849   6.150   4.140  0.0074  0.5288  0.5792
11653TIP3    H134902   4.812   6.181   4.057 -0.8615 -0.3125  0.6424
11653TIP3    H234903   4.785   6.174   4.206  0.1818  0.2194  0.8661
11654TIP3   OH234904   6.338   4.056   6.486  0.2625  0.3483 -0.6435
11654TIP3    H134905   6.350   4.151   6.494  0.6000  0.1774  1.1127
11654TIP3    H234906   6.268   4.036   6.549  0.1670 -0.5720 -1.0385
11655TIP3   OH234907   6.526   3.006   5.716  0.3330  0.4285  0.2307
11655TIP3    H134908   6.597   2.945   5.738 -2.4248 -3.0917 -0.1125
11655TIP3    H234909   6.531   3.015   5.621  0.4127  0.3167  0.2233
11656TIP3   OH234910   1.700   6.846   0.130  0.4219  0.2320  0.1074
11656TIP3    H134911   1.633   6.813   0.070  0.3475 -1.8515  1.2792
11656TIP3    H234912   1.654   6.907   0.187 -0.2196 -0.2923  0.1545
11657TIP3   OH234913   5.041   5.835   2.908  0.4436  0.0668  0.2536
11657TIP3    H134914   5.133   5.857   2.924 -0.0672  3.0348 -0.5606
11657TIP3    H234915   5.026   5.859   2.817 -1.7657  2.0943  1.0915
11658TIP3   OH234916   3.207   3.805   4.732 -0.2923 -0.2863  0.8382
11658TIP3    H134917   3.203   3.867   4.805 -0.5391  0.5709  0.1059
11658TIP3    H234918   3.298   3.774   4.732  0.7117  2.4774 -0.7390
11659TIP3   OH234919   5.865   6.735   6.140  0.5103  0.1483  0.3942
11659TIP3    H134920   5.789   6.787   6.166  1.6080  2.0049 -0.0275
11659TIP3    H234921   5.844   6.646   6.169 -0.1258  1.3436  3.8281
11660TIP3   OH234922   4.740   4.820   5.367 -0.4611  0.1943 -0.0132
11660TIP3    H134923   4.797   4.801   5.442 -1.3614 -1.4128  0.2791
11660TIP3    H234924   4.662   4.860   5.406 -0.4712  0.3635 -0.2053
11661TIP3   OH234925   7.103   4.698   5.155 -0.2042  0.1529 -0.5220
11661TIP3    H134926   7.102   4.784   5.112  0.7008 -0.8526 -2.5882
11661TIP3    H234927   7.127   4.718   5.246 -1.9534  2.2766 -0.4943
11662TIP3   OH234928   3.147   1.564   0.634  0.2162  0.4730 -0.1988
11662TIP3    H134929   3.101   1.539   0.554  0.5845 -0.6526 -0.0774
11662TIP3    H234930   3.239   1.563   0.610  0.2972  0.6502  0.0992
11663TIP3   OH234931   3.837   2.027   0.091 -0.2654 -0.1390 -0.0088
11663TIP3    H134932   3.824   2.070   0.006  0.2721 -0.9565 -0.5038
11663TIP3    H234933   3.894   1.953   0.072  2.9545  1.8096  1.6595
11664TIP3   OH234934   7.086   5.556   4.482  0.2914 -0.0480 -0.1013
11664TIP3    H134935   7.091   5.637   4.432 -0.0230  0.2036  0.2734
11664TIP3    H234936   7.026   5.501   4.431  0.7619 -0.1738 -0.5278
11665TIP3   OH234937   3.067   4.229   2.030 -0.0594  0.1108 -0.1393
11665TIP3    H134938   3.062   4.175   1.951  1.5595 -1.2480  0.6520
11665TIP3    H234939   2.976   4.234   2.061 -0.4653 -0.7342 -1.1480
11666TIP3   OH234940   6.193   4.340   4.705 -0.3314 -0.4781  0.2423
11666TIP3    H134941   6.105   4.323   4.672  0.6612 -0.7484 -2.3482
11666TIP3    H234942   6.180   4.405   4.774 -2.4511  0.1401 -0.6906
11667TIP3   OH234943   3.342   2.448   0.220  0.2994  0.5254  0.5286
11667TIP3    H134944   3.264   2.498   0.242  0.2888  0.3091  0.9770
11667TIP3    H234945   3.412   2.490   0.271  0.5643  1.0069 -0.2156
11668TIP3   OH234946   6.830   4.526   4.832  0.0229 -0.4414 -0.3054
11668TIP3    H134947   6.740   4.499   4.851  0.0970 -0.9488 -0.6591
11668TIP3    H234948   6.821   4.587   4.758  0.0317 -1.0917 -0.8538
11669TIP3   OH234949   8.121   7.923   0.638 -0.1303  0.3717 -0.0019
11669TIP3    H134950   8.076   7.865   0.701  1.1294 -0.3253  0.2733
11669TIP3    H234951   8.143   7.866   0.565 -1.3373  1.1255 -0.9668
11670TIP3   OH234952   8.248   3.422   3.245  0.5385 -0.1687  0.1109
11670TIP3    H134953   8.189   3.366   3.194 -0.5114 -0.8806  2.0319
11670TIP3    H234954   8.270   3.494   3.187  1.5911 -2.3573 -2.3006
11671TIP3   OH234955   5.694   4.627   5.227 -0.5586  0.3766 -0.4957
11671TIP3    H134956   5.724   4.601   5.314  0.5537 -0.0335 -0.9981
11671TIP3    H234957   5.709   4.722   5.224 -0.8922  0.4426 -0.1289
11672TIP3   OH234958   6.066   3.828   5.722 -0.5236  0.4603 -0.1842
11672TIP3    H134959   6.133   3.831   5.790 -0.5840  0.6596 -0.1350
11672TIP3    H234960   5.991   3.787   5.765 -0.1691 -0.5085 -0.4678
11673TIP3   OH234961   7.086   4.414   4.783  0.2697  0.6043 -0.1284
11673TIP3    H134962   7.105   4.370   4.866  1.2279  0.0745 -0.6191
11673TIP3    H234963   6.991   4.420   4.780  0.1636 -0.6038  0.3878
11674TIP3   OH234964   5.782   3.181   6.514 -0.4581 -0.4704 -0.6924
11674TIP3    H134965   5.782   3.100   6.463 -0.7258 -0.4682 -0.6941
11674TIP3    H234966   5.836   3.161   6.591 -0.0705 -0.4790 -0.9642
11675TIP3   OH234967   5.968   5.979   5.370 -0.1981 -0.0033  0.4889
11675TIP3    H134968   5.919   5.966   5.452 -1.2558 -0.8524 -0.2615
11675TIP3    H234969   6.010   5.895   5.353  0.2280  0.2475  0.2992
11676TIP3   OH234970   8.076   5.681   6.335  0.1019 -0.0388  0.5778
11676TIP3    H134971   8.001   5.735   6.313  1.1152  1.6950  1.2885
11676TIP3    H234972   8.107   5.716   6.419  2.8586  0.5474 -0.6318
11677TIP3   OH234973   6.808   4.242   4.280 -0.1905 -0.2520 -0.2980
11677TIP3    H134974   6.750   4.277   4.347 -0.0665 -0.6867  0.0341
11677TIP3    H234975   6.896   4.249   4.318 -0.1909 -1.1781 -0.1214
11678TIP3   OH234976   6.065   4.902   6.723 -0.0486 -0.5773 -0.4029
11678TIP3    H134977   5.979   4.939   6.700 -0.3666 -1.9038 -1.3756
11678TIP3    H234978   6.064   4.898   6.819 -0.5832  0.5535 -0.3448
11679TIP3   OH234979   5.260   4.891   5.757  0.2433 -0.0435  0.0091
11679TIP3    H134980   5.285   4.818   5.701  0.8277 -0.4680  0.8117
11679TIP3    H234981   5.180   4.862   5.800 -0.4595  0.4609 -0.9217
11680TIP3   OH234982   7.392   4.590   4.179  0.0178 -0.1873 -0.9304
11680TIP3    H134983   7.437   4.530   4.239 -1.8152 -1.1643 -0.4825
11680TIP3    H234984   7.300   4.564   4.184 -1.0273  3.4110  0.0982
11681TIP3   OH234985   3.759   1.808   0.681 -0.1366 -0.0966  0.2188
11681TIP3    H134986   3.833   1.811   0.620 -1.4857 -0.2469 -1.4263
11681TIP3    H234987   3.776   1.730   0.735  1.2042  0.2069  0.2582
11682TIP3   OH234988   6.603   5.283   6.195 -0.0019  0.7733  0.3253
11682TIP3    H134989   6.569   5.205   6.151 -1.3593  1.0013  0.9535
11682TIP3    H234990   6.561   5.356   6.151 -2.0256  0.9773  2.4717
11683TIP3   OH234991   5.902   4.969   6.053  0.5389  0.0132  0.3319
11683TIP3    H134992   5.825   4.960   6.109 -0.4262  0.0745 -0.9666
11683TIP3    H234993   5.947   4.885   6.060  0.4946  0.0643  1.2924
11684TIP3   OH234994   1.632   5.998   3.981 -0.3593  0.3847 -0.5109
11684TIP3    H134995   1.648   6.047   3.900 -0.4289 -0.2614 -0.9172
11684TIP3    H234996   1.703   6.025   4.040  0.2304  0.1509 -1.1067
11685TIP3   OH234997   5.745   2.546   4.736 -0.2078  0.1476 -0.3348
11685TIP3    H134998   5.724   2.487   4.808  2.1113 -0.8190 -0.4043
11685TIP3    H234999   5.670   2.606   4.731 -1.8534 -1.7554  0.8031
11686TIP3   OH235000   3.304   1.152   0.191  0.2882 -0.1438 -0.1942
11686TIP3    H135001   3.399   1.150   0.204 -0.0865 -1.5352  2.8100
11686TIP3    H235002   3.271   1.200   0.267 -1.4966 -0.8752 -0.4898
11687TIP3   OH235003   6.228   3.570   6.795  0.0608 -0.0138  0.5075
11687TIP3    H135004   6.313   3.591   6.755 -0.2463 -0.1881 -0.2460
11687TIP3    H235005   6.243   3.577   6.889  1.4145 -1.9082  0.4532
11688TIP3   OH235006   6.436   4.302   4.591  0.2578 -0.0843  0.1607
11688TIP3    H135007   6.448   4.209   4.610  1.3640  0.2754  1.2327
11688TIP3    H235008   6.349   4.322   4.626  0.4755 -0.4560  0.9185
11689TIP3   OH235009   8.402   4.279   5.600  0.6473 -0.1615  0.0990
11689TIP3    H135010   8.407   4.269   5.505 -0.7524 -2.0239  0.1857
11689TIP3    H235011   8.327   4.337   5.615  0.9001  0.1744  0.0692
11690TIP3   OH235012   4.133   0.093   0.031  0.1038 -0.0101 -0.3435
11690TIP3    H135013   4.129   0.081   0.126  2.0353  1.8223  0.0118
11690TIP3    H235014   4.067   0.161   0.014 -0.4034 -0.5006 -0.3546
11691TIP3   OH235015   6.874   6.831   4.277 -0.1061 -0.5074  0.5722
11691TIP3    H135016   6.928   6.836   4.199 -0.2825  0.2415  0.4886
11691TIP3    H235017   6.919   6.769   4.334  0.7984  0.0428  0.4693
11692TIP3   OH235018   5.318   5.404   1.693 -0.3421  0.0341  0.2314
11692TIP3    H135019   5.320   5.447   1.608  0.0245  0.4774  0.4561
11692TIP3    H235020   5.252   5.452   1.743  0.5172  0.7733  0.6958
11693TIP3   OH235021   3.631   3.320   0.960  0.2216 -0.2032 -0.4064
11693TIP3    H135022   3.702   3.283   1.012 -0.6457 -2.2133 -0.6176
11693TIP3    H235023   3.553   3.308   1.013 -0.1787  0.7268 -0.7722
11694TIP3   OH235024   3.915   6.048   3.737 -0.2642  0.6532  0.0889
11694TIP3    H135025   3.869   6.058   3.820  0.2977  0.7207  0.3972
11694TIP3    H235026   3.991   6.105   3.744  2.2498 -2.6678  1.3524
11695TIP3   OH235027   1.327   5.076   6.040  0.0150  0.5606  0.4117
11695TIP3    H135028   1.372   5.071   6.124  0.1483 -1.5418  0.2560
11695TIP3    H235029   1.318   4.985   6.013 -0.8623  1.1663 -1.4126
11696TIP3   OH235030   4.482   1.000   1.719 -0.1272  0.8745 -0.3136
11696TIP3    H135031   4.575   0.996   1.743  0.1528 -2.1881 -1.6551
11696TIP3    H235032   4.436   0.997   1.803  0.9762  0.4340  0.2966
11697TIP3   OH235033   8.410   3.621   6.369 -0.0489  0.1749 -0.6721
11697TIP3    H135034   8.379   3.640   6.280 -0.2255 -0.8953 -0.8458
11697TIP3    H235035   8.492   3.575   6.356 -1.3292 -2.2590 -0.3571
11698TIP3   OH235036   8.246   4.663   4.857  0.2895  0.4317 -0.2309
11698TIP3    H135037   8.172   4.608   4.830 -0.3800  0.5984  1.2124
11698TIP3    H235038   8.216   4.753   4.842 -0.4937  0.5689  1.9901
11699TIP3   OH235039   6.810   3.805   6.772  0.0163  0.4877 -0.0234
11699TIP3    H135040   6.772   3.741   6.832  0.6521 -0.0573 -0.2018
11699TIP3    H235041   6.771   3.888   6.799 -0.1012  0.1721  0.8021
11700TIP3   OH235042   5.460   5.488   4.375  0.0498  0.7656  0.1929
11700TIP3    H135043   5.528   5.455   4.316  0.5998  1.2190  0.5743
11700TIP3    H235044   5.436   5.412   4.428 -1.5276 -0.0561 -1.6029
11701TIP3   OH235045   0.758   6.713   6.200 -0.0632  0.4405 -0.1194
11701TIP3    H135046   0.796   6.801   6.198 -1.3399  0.9841 -1.6711
11701TIP3    H235047   0.809   6.666   6.266  0.4800  2.4134  0.8863
11702TIP3   OH235048   7.093   3.873   6.314 -0.5123 -0.3360 -0.1837
11702TIP3    H135049   7.034   3.848   6.385 -0.9250  0.2054 -0.3258
11702TIP3    H235050   7.110   3.966   6.329 -0.6976 -0.1851 -0.8540
11703TIP3   OH235051   6.735   3.589   3.744  0.4691 -0.2628  0.7915
11703TIP3    H135052   6.721   3.682   3.725 -0.4411 -0.2676  1.4011
11703TIP3    H235053   6.810   3.588   3.803  0.7959  0.0423  0.3898
11704TIP3   OH235054   6.854   4.621   5.106 -0.5147 -0.2078 -0.6791
11704TIP3    H135055   6.941   4.647   5.135 -0.6737  0.7280 -1.0456
11704TIP3    H235056   6.868   4.581   5.020 -0.3323 -0.8977 -0.3304
11705TIP3   OH235057   5.250   5.139   4.831  0.3253 -0.1934  0.1820
11705TIP3    H135058   5.334   5.141   4.878  0.7139 -1.1457 -0.4624
11705TIP3    H235059   5.232   5.046   4.819 -0.6643  0.0176  0.0157
11706TIP3   OH235060   5.109   1.064   0.107 -0.0184 -0.1754 -0.1707
11706TIP3    H135061   5.039   1.001   0.126  0.2325 -0.4148 -0.0394
11706TIP3    H235062   5.133   1.047   0.016 -1.2063  0.9585 -0.7115
11707TIP3   OH235063   3.396   1.649   0.028  0.3334  0.5757  0.2755
11707TIP3    H135064   3.320   1.591   0.017  0.9826 -0.6069  1.8730
11707TIP3    H235065   3.374   1.702   0.104  1.2546 -0.0197  0.9637
11708TIP3   OH235066   6.664   3.399   4.426 -0.2193 -0.1815  0.6537
11708TIP3    H135067   6.698   3.341   4.357 -0.2405 -0.7409  1.1061
11708TIP3    H235068   6.703   3.365   4.507  0.9096  1.3176  0.7596
11709TIP3   OH235069   5.995   5.202   6.355 -0.4579  0.1033  0.0518
11709TIP3    H135070   6.058   5.226   6.287 -0.8128 -0.6203 -0.5376
11709TIP3    H235071   5.916   5.253   6.334 -1.0838 -1.2769 -0.9795
11710TIP3   OH235072   6.827   5.293   3.779 -0.3190 -0.4108  0.0437
11710TIP3    H135073   6.905   5.346   3.765 -1.0200  0.1467 -1.8537
11710TIP3    H235074   6.822   5.236   3.702 -1.8851 -0.2790  0.0194
11711TIP3   OH235075   5.288   3.302   6.048  0.5394 -0.4149 -0.1031
11711TIP3    H135076   5.322   3.373   5.995 -0.8216 -0.9772 -1.7552
11711TIP3    H235077   5.361   3.279   6.107  1.1024  2.0697  0.2289
11712TIP3   OH235078   6.789   3.215   6.461  0.1136 -0.0048  0.2208
11712TIP3    H135079   6.835   3.132   6.477  0.2242 -0.1510 -0.8478
11712TIP3    H235080   6.699   3.198   6.490  0.3772 -0.1605  0.9863
11713TIP3   OH235081   0.570   5.568   6.463  0.4193  0.4156 -0.4828
11713TIP3    H135082   0.649   5.534   6.505  1.3194 -1.3847 -3.4875
11713TIP3    H235083   0.504   5.501   6.478  0.2458  0.5853 -0.4847
11714TIP3   OH235084   6.676   2.834   5.193 -0.2402  0.2416  0.6584
11714TIP3    H135085   6.677   2.915   5.142  0.7609 -0.4599 -0.4567
11714TIP3    H235086   6.593   2.792   5.170 -0.1887  0.3475  0.2814
11715TIP3   OH235087   6.329   3.985   6.904  0.2794 -0.0287 -0.1545
11715TIP3    H135088   6.285   3.953   6.825  1.3628  0.4687 -0.9753
11715TIP3    H235089   6.405   4.033   6.871  1.8432 -1.4892  1.2650
11716TIP3   OH235090   7.076   5.332   6.019  0.4754  0.2557  0.3692
11716TIP3    H135091   7.031   5.277   6.083 -0.1514  0.9527  0.5425
11716TIP3    H235092   7.005   5.365   5.963  0.9817 -0.0994 -0.4937
11717TIP3   OH235093   7.222   3.303   6.146 -0.9504 -0.2701 -0.4796
11717TIP3    H135094   7.231   3.359   6.223  0.2180 -2.4779  1.0592
11717TIP3    H235095   7.140   3.255   6.161  0.0988 -1.8906  0.2381
11718TIP3   OH235096   4.583   4.128   3.342 -0.1588 -0.2503 -0.2488
11718TIP3    H135097   4.586   4.223   3.343 -1.6518 -0.1894 -0.3407
11718TIP3    H235098   4.518   4.107   3.275 -2.0587 -1.2550  1.8529
11719TIP3   OH235099   7.372   3.503   4.393 -0.1805 -0.0782  0.2591
11719TIP3    H135100   7.409   3.516   4.306  0.5396 -1.3468  0.3572
11719TIP3    H235101   7.277   3.495   4.378  0.0285 -1.1922 -0.5263
11720TIP3   OH235102   8.164   2.925   2.893  0.1468  0.6263  0.7335
11720TIP3    H135103   8.209   2.906   2.810 -0.3257  1.9177  0.1631
11720TIP3    H235104   8.229   2.972   2.945  0.3984 -0.0601  1.0367
11721TIP3   OH235105   1.432   6.639   0.325  0.0406 -0.4436  0.2633
11721TIP3    H135106   1.430   6.719   0.271  1.1444 -1.2716 -1.0256
11721TIP3    H235107   1.481   6.664   0.403  2.0278 -0.3649 -0.9826
11722TIP3   OH235108   0.163   0.818   6.511 -0.5204  1.1246 -0.1423
11722TIP3    H135109   0.110   0.868   6.450 -1.6511  1.6869  1.2617
11722TIP3    H235110   0.239   0.873   6.529 -0.3282  1.0784 -0.8043
11723TIP3   OH235111   3.277   1.150   1.044  0.1419  0.3887  0.1404
11723TIP3    H135112   3.235   1.075   1.002  1.6270 -0.8085  0.7791
11723TIP3    H235113   3.211   1.183   1.106 -0.6469 -0.1580 -0.4025
11724TIP3   OH235114   4.851   5.677   6.834 -0.0077  0.2472 -0.5671
11724TIP3    H135115   4.798   5.705   6.759  0.6035 -0.9460 -1.4582
11724TIP3    H235116   4.934   5.723   6.823  0.2468 -0.2899 -0.8692
11725TIP3   OH235117   7.703   5.842   6.000  0.1067  0.2219  0.2666
11725TIP3    H135118   7.765   5.769   6.007 -0.4581 -0.1705  1.2816
11725TIP3    H235119   7.619   5.805   6.027 -0.9292  0.3506 -2.5791
11726TIP3   OH235120   7.920   3.302   5.490  0.1381 -0.2726 -0.2931
11726TIP3    H135121   7.881   3.272   5.407  2.7556  1.1795 -2.1180
11726TIP3    H235122   7.907   3.229   5.550 -2.4183 -1.1120 -1.7685
11727TIP3   OH235123   6.958   5.063   6.100 -0.0829 -0.2648 -0.4729
11727TIP3    H135124   7.014   5.038   6.173 -0.5152 -1.2800 -0.4887
11727TIP3    H235125   6.980   5.001   6.030 -0.5911 -0.1027 -0.7774
11728TIP3   OH235126   2.665   3.364   0.122  0.4567  0.3916 -0.2464
11728TIP3    H135127   2.670   3.292   0.059  0.7245  2.8584 -3.1984
11728TIP3    H235128   2.572   3.375   0.138  0.2580  0.8412 -1.6084
11729TIP3   OH235129   7.616   4.891   4.810 -0.5607 -0.3495  0.8198
11729TIP3    H135130   7.680   4.832   4.770 -1.2095  0.1325 -0.9675
11729TIP3    H235131   7.536   4.838   4.817 -1.4458  0.6048 -1.7531
11730TIP3   OH235132   5.360   7.409   6.137 -0.1580 -0.1321  0.0961
11730TIP3    H135133   5.351   7.460   6.217 -1.8640 -0.5034  0.1542
11730TIP3    H235134   5.402   7.468   6.075  3.1072 -0.5060  1.8669
11731TIP3   OH235135   7.762   5.675   5.577 -0.1704 -0.6411 -0.3183
11731TIP3    H135136   7.706   5.752   5.586  0.3904 -0.5054  2.4509
11731TIP3    H235137   7.842   5.707   5.537 -0.7770 -0.2095 -1.1987
11732TIP3   OH235138   5.082   7.251   6.423  0.4176  0.0968  0.2233
11732TIP3    H135139   4.998   7.284   6.391  0.2295 -1.2476 -0.7193
11732TIP3    H235140   5.129   7.224   6.343  1.4802  0.2343  0.7904
11733TIP3   OH235141   4.908   6.229   5.416  0.0155 -0.0340 -0.5967
11733TIP3    H135142   4.857   6.298   5.373  1.2172  0.7803 -0.7386
11733TIP3    H235143   4.924   6.263   5.504  2.0652  0.6327 -1.2124
11734TIP3   OH235144   6.587   4.578   3.747 -0.2965 -0.0222  0.4392
11734TIP3    H135145   6.510   4.522   3.745 -1.1403  1.1251  0.1714
11734TIP3    H235146   6.567   4.648   3.684  0.4976  0.8732  1.1756
11735TIP3   OH235147   4.862   5.195   5.907 -0.0527  0.2260 -0.8050
11735TIP3    H135148   4.859   5.250   5.985  0.1610 -0.1725 -0.5212
11735TIP3    H235149   4.776   5.207   5.866 -0.6542 -0.6396  0.2128
11736TIP3   OH235150   6.859   4.435   5.861 -0.1788 -0.0827 -0.3854
11736TIP3    H135151   6.937   4.467   5.815  0.2329 -0.0750  0.3114
11736TIP3    H235152   6.893   4.391   5.938 -0.8190 -0.9940 -0.6145
11737TIP3   OH235153   6.734   4.700   3.935  0.0485 -0.3183  0.1005
11737TIP3    H135154   6.705   4.647   3.860  2.0223 -0.1904 -0.7724
11737TIP3    H235155   6.690   4.784   3.923 -0.7009 -0.7464 -0.1775
11738TIP3   OH235156   4.122   3.665   5.074 -0.1900  0.2075  0.6436
11738TIP3    H135157   4.135   3.673   4.980 -0.8189 -1.6437  0.3752
11738TIP3    H235158   4.206   3.690   5.113  0.2465  0.4145 -0.4216
11739TIP3   OH235159   5.047   3.439   5.498  0.1251  0.2360 -0.7739
11739TIP3    H135160   5.010   3.382   5.566 -1.0450  0.2154 -1.4190
11739TIP3    H235161   5.090   3.378   5.438  0.9990  0.2386 -0.1641
11740TIP3   OH235162   2.806   0.034   0.487  0.5266  0.3939  0.3252
11740TIP3    H135163   2.888   0.045   0.439 -0.4906 -1.0463 -1.8213
11740TIP3    H235164   2.748  -0.011   0.426 -0.8208 -1.5578  2.9462
11741TIP3   OH235165   6.121   1.251   0.546 -0.1801  0.2396 -0.1380
11741TIP3    H135166   6.064   1.291   0.480 -0.7473 -0.0944  0.1514
11741TIP3    H235167   6.175   1.190   0.497 -1.0337 -0.4740 -0.2061
11742TIP3   OH235168   5.856   7.193   6.843 -0.2423  0.2159 -0.3083
11742TIP3    H135169   5.880   7.207   6.934  0.2982 -0.7071 -0.3074
11742TIP3    H235170   5.930   7.146   6.805 -0.6801  0.1468 -1.0996
11743TIP3   OH235171   0.122   5.059   6.347  0.3704  0.4297 -0.5381
11743TIP3    H135172   0.069   5.104   6.412  1.4119  1.8037 -0.6212
11743TIP3    H235173   0.075   4.978   6.329 -0.7538  0.7970  0.7218
11744TIP3   OH235174   6.064   4.180   5.022 -0.5560 -0.2428  0.3664
11744TIP3    H135175   6.150   4.181   5.063 -0.5603  1.7869  0.3491
11744TIP3    H235176   6.079   4.140   4.936  0.0382 -1.4130  0.9952
11745TIP3   OH235177   6.593   6.086   4.622  0.3280 -0.1983 -0.0168
11745TIP3    H135178   6.605   6.001   4.579 -2.0049 -0.6114  0.1089
11745TIP3    H235179   6.571   6.146   4.551 -1.1141 -0.3740  0.2649
11746TIP3   OH235180   5.967   3.365   5.646  0.1936 -0.0348 -0.2729
11746TIP3    H135181   6.057   3.379   5.616  0.4079  0.4675  0.6087
11746TIP3    H235182   5.916   3.356   5.565  1.3778 -2.6066 -0.7735
11747TIP3   OH235183   5.795   2.854   6.419  0.0270 -0.3752  0.4542
11747TIP3    H135184   5.793   2.847   6.514  1.0575 -1.4033  0.4065
11747TIP3    H235185   5.887   2.867   6.397 -0.5388  3.1458 -0.2105
11748TIP3   OH235186   1.958   1.231   0.841 -0.0894  0.1305 -0.0855
11748TIP3    H135187   2.017   1.220   0.767  0.5898 -0.0861  0.4862
11748TIP3    H235188   1.896   1.158   0.833 -1.5713  1.5236 -1.8621
11749TIP3   OH235189   5.510   3.937   5.132 -0.2662  0.5279  0.8503
11749TIP3    H135190   5.442   3.875   5.104  0.2058  0.1380  0.5651
11749TIP3    H235191   5.500   3.943   5.227 -0.8759  0.6774  0.7774
11750TIP3   OH235192   5.205   1.265   0.768  0.5934 -0.5818  0.2604
11750TIP3    H135193   5.210   1.238   0.677  0.9298  1.1222 -0.2588
11750TIP3    H235194   5.293   1.249   0.803  0.9304  0.2441 -0.1778
11751TIP3   OH235195   7.339   5.739   6.594 -0.2967  0.6189 -0.4193
11751TIP3    H135196   7.274   5.716   6.660 -1.0169  2.7644 -0.3289
11751TIP3    H235197   7.357   5.658   6.547 -1.1481 -0.5277  1.2223
11752TIP3   OH235198   1.777   5.871   5.993 -0.2233  0.0807  0.3332
11752TIP3    H135199   1.717   5.835   6.058 -1.6543  0.5581 -0.6977
11752TIP3    H235200   1.757   5.965   5.992  1.8390  0.5704  1.3050
11753TIP3   OH235201   7.862   4.701   2.044 -0.7381  0.0279 -0.1005
11753TIP3    H135202   7.801   4.774   2.035 -3.1368 -1.9119 -0.1615
11753TIP3    H235203   7.880   4.696   2.138 -1.5327 -0.0596  0.0504
11754TIP3   OH235204   7.460   5.956   4.924 -0.0031 -0.1724  0.0523
11754TIP3    H135205   7.383   5.988   4.877 -0.7053 -1.3228  0.4024
11754TIP3    H235206   7.525   5.940   4.855 -0.3435  0.0570 -0.3241
11755TIP3   OH235207   8.098   3.789   6.218  0.0448 -0.0254  0.2605
11755TIP3    H135208   8.159   3.847   6.264 -0.1630 -0.7151  1.4185
11755TIP3    H235209   8.152   3.743   6.154  0.5049  0.3038  0.4105
11756TIP3   OH235210   8.100   4.397   4.152  0.2781 -0.0956  0.2823
11756TIP3    H135211   8.056   4.406   4.067  1.7836  2.4718 -0.2638
11756TIP3    H235212   8.063   4.466   4.206 -0.1767 -1.2944  1.5304
11757TIP3   OH235213   6.901   5.582   6.199  0.5938  0.1931  0.5025
11757TIP3    H135214   6.991   5.570   6.170  0.0800 -0.5103 -0.8246
11757TIP3    H235215   6.908   5.601   6.293  1.9887 -2.0415  0.8716
11758TIP3   OH235216   1.715   3.914   4.493 -0.1209  0.2134  0.0407
11758TIP3    H135217   1.703   3.819   4.488  0.3236  0.1778 -0.4477
11758TIP3    H235218   1.664   3.948   4.418 -0.5399  0.3881  0.4009
11759TIP3   OH235219   8.213   7.203   4.239 -0.2056  0.2497  0.3428
11759TIP3    H135220   8.225   7.276   4.300  0.0503 -0.8358  1.6151
11759TIP3    H235221   8.213   7.125   4.295 -0.6006 -0.7166 -0.9855
11760TIP3   OH235222   8.396   3.209   6.445  0.0221  0.4907  0.1716
11760TIP3    H135223   8.332   3.147   6.480  1.6662 -0.7128  1.1505
11760TIP3    H235224   8.413   3.270   6.517  1.4784 -0.4321  0.6438
11761TIP3   OH235225   0.981   3.965   6.229  0.0844 -0.1458  0.3097
11761TIP3    H135226   1.062   3.927   6.262  0.3758  0.3389  0.1411
11761TIP3    H235227   0.962   3.915   6.149 -0.6081 -1.3023  1.1831
11762TIP3   OH235228   1.425   3.684   5.154 -0.2219 -0.0694  0.5019
11762TIP3    H135229   1.332   3.675   5.133  0.1424 -0.6284 -0.9619
11762TIP3    H235230   1.427   3.739   5.232 -1.7504  0.4316  0.2064
11763TIP3   OH235231   7.591   4.421   5.262 -0.1517  0.2481  0.1503
11763TIP3    H135232   7.520   4.464   5.215 -0.3292  0.9424  1.0407
11763TIP3    H235233   7.558   4.410   5.351  0.0072 -1.4605  0.0160
11764TIP3   OH235234   3.925   7.533   0.080  0.1200  0.1607 -0.0849
11764TIP3    H135235   3.864   7.503   0.013  1.6540 -2.6992 -0.3055
11764TIP3    H235236   3.997   7.573   0.030 -0.2384  0.9604  0.0329
11765TIP3   OH235237   0.061   3.360   5.454  0.3292 -0.3139  0.1427
11765TIP3    H135238  -0.025   3.376   5.494  1.3587 -3.4873  3.9390
11765TIP3    H235239   0.100   3.447   5.445 -1.9611  0.8938  1.3621
11766TIP3   OH235240   2.730   5.233   6.322  0.7971 -0.3665 -0.2388
11766TIP3    H135241   2.636   5.239   6.340  0.5964 -1.2651 -0.9344
11766TIP3    H235242   2.763   5.172   6.386  0.8724 -0.2073 -0.1261
11767TIP3   OH235243   6.494   2.617   5.754  0.2369  0.9062 -0.4822
11767TIP3    H135244   6.536   2.636   5.837 -0.1071 -0.5752  0.0526
11767TIP3    H235245   6.401   2.610   5.775  0.2256 -0.1857 -0.8427
11768TIP3   OH235246   6.674   4.707   6.814  0.3595 -0.1255 -0.3661
11768TIP3    H135247   6.614   4.656   6.868 -1.4834  1.1877 -1.1341
11768TIP3    H235248   6.726   4.757   6.878  1.0732 -1.7065  0.3203
11769TIP3   OH235249   0.153   4.517   5.186  0.0605  0.4058 -0.1821
11769TIP3    H135250   0.064   4.541   5.164  0.5421  1.5748 -0.8704
11769TIP3    H235251   0.156   4.521   5.282 -0.9656 -0.9313 -0.0691
11770TIP3   OH235252   6.697   4.022   5.927 -0.0175  0.0647  0.8165
11770TIP3    H135253   6.764   3.999   5.992  0.2274  1.5528  1.1015
11770TIP3    H235254   6.739   4.008   5.843  1.3022  2.7365  0.9849
11771TIP3   OH235255   0.217   6.246   5.412  0.1213 -0.4584 -0.9999
11771TIP3    H135256   0.194   6.222   5.502  0.9503 -2.3387 -1.2427
11771TIP3    H235257   0.164   6.187   5.358 -0.8394  1.0946 -1.7769
11772TIP3   OH235258   7.246   2.616   3.227 -0.7068  0.2368 -0.2761
11772TIP3    H135259   7.285   2.687   3.176 -1.4970  1.1852  0.4256
11772TIP3    H235260   7.312   2.548   3.228  0.3555  1.2594 -0.3118
11773TIP3   OH235261   7.698   3.248   6.501  0.0677  0.4324  0.1227
11773TIP3    H135262   7.697   3.303   6.423  0.0764  0.4013  0.1009
11773TIP3    H235263   7.628   3.185   6.487  0.3103  0.1950 -0.0231
11774TIP3   OH235264   8.365   4.276   5.319  0.3544 -0.5431  0.2488
11774TIP3    H135265   8.381   4.188   5.285  1.4038  0.0760 -0.9178
11774TIP3    H235266   8.375   4.333   5.243  0.8115  0.6888  1.2192
11775TIP3   OH235267   5.892   1.102   0.058  0.1641 -0.2999  0.1934
11775TIP3    H135268   5.954   1.043   0.101 -0.1291  1.0569  2.6212
11775TIP3    H235269   5.947   1.166   0.013  0.5396  0.1050  1.2088
11776TIP3   OH235270   0.318   5.270   5.151  0.1568  0.0487 -0.1674
11776TIP3    H135271   0.412   5.288   5.151  0.3588 -0.9950  0.1031
11776TIP3    H235272   0.300   5.236   5.238 -0.7827  1.8033  0.3326
11777TIP3   OH235273   6.972   4.958   4.908  0.0806 -0.3357  0.0693
11777TIP3    H135274   6.882   4.985   4.889  0.4615  0.6610 -0.3468
11777TIP3    H235275   7.025   5.003   4.843  1.0555  0.3641  1.3158
11778TIP3   OH235276   7.478   4.419   6.107  0.0237 -0.3631  0.1197
11778TIP3    H135277   7.530   4.388   6.181 -0.7555 -0.9642  0.4313
11778TIP3    H235278   7.537   4.417   6.032  1.3642  2.0044  1.0640
11779TIP3   OH235279   0.800   5.485   5.360 -0.2796  0.0163 -0.0834
11779TIP3    H135280   0.876   5.530   5.394 -0.1552 -0.6667  0.5489
11779TIP3    H235281   0.738   5.483   5.433 -0.9215  0.6155 -0.6077
11780TIP3   OH235282   7.539   2.504   4.459 -0.7212  0.3408  0.3160
11780TIP3    H135283   7.519   2.587   4.416  0.7938  0.2249 -0.6679
11780TIP3    H235284   7.590   2.456   4.394  1.8776  0.2822  2.3168
11781TIP3   OH235285   8.477   4.660   4.463 -0.0650 -0.0193  0.5611
11781TIP3    H135286   8.556   4.627   4.505  1.2373  0.7649 -1.2445
11781TIP3    H235287   8.408   4.599   4.491  1.2614 -1.0428  1.6724
11782TIP3   OH235288   6.298   5.336   6.445 -0.5115  0.0388 -0.2070
11782TIP3    H135289   6.261   5.260   6.491  0.4721  0.6909  1.7000
11782TIP3    H235290   6.324   5.301   6.359  1.3096 -2.1556  1.1755
11783TIP3   OH235291   7.704   3.886   4.749 -0.4057 -0.3680 -0.2112
11783TIP3    H135292   7.662   3.851   4.827  0.8007  0.1538  0.6857
11783TIP3    H235293   7.777   3.826   4.732  1.6649  1.6322  1.3174
11784TIP3   OH235294   8.385   6.071   3.496 -0.5097  0.0715  0.2738
11784TIP3    H135295   8.309   6.041   3.547 -0.2471 -2.1747 -0.5837
11784TIP3    H235296   8.460   6.045   3.549 -0.2662 -1.3521 -0.7316
11785TIP3   OH235297   7.862   4.173   3.997 -0.2539  0.4585 -0.1793
11785TIP3    H135298   7.883   4.266   3.989 -1.3521  0.6645 -0.7557
11785TIP3    H235299   7.886   4.151   4.087 -1.3868  1.6710  0.4273
11786TIP3   OH235300   7.535   4.913   4.437 -0.2358  0.1182 -0.3386
11786TIP3    H135301   7.505   4.878   4.521 -1.0123  1.7190  0.0878
11786TIP3    H235302   7.460   4.904   4.379 -0.1448  0.2206 -0.4735
11787TIP3   OH235303   8.291   4.815   4.320  0.2794 -0.4367  0.4146
11787TIP3    H135304   8.234   4.828   4.395  0.5661 -1.8841  0.9032
11787TIP3    H235305   8.358   4.754   4.351  3.4456  2.9153  0.5840
11788TIP3   OH235306   0.265   7.185   4.217 -0.0147  0.1651 -0.1984
11788TIP3    H135307   0.252   7.258   4.157 -0.6429  0.3504  0.1596
11788TIP3    H235308   0.320   7.221   4.287  1.2028 -0.2107 -0.9542
11789TIP3   OH235309   8.399   4.218   4.204  0.1575  0.1456  0.0335
11789TIP3    H135310   8.350   4.286   4.250 -0.8127  0.2356 -1.1088
11789TIP3    H235311   8.475   4.202   4.259  1.2590  3.3231 -0.5012
11790TIP3   OH235312   0.744   5.888   4.468 -0.1215 -0.4620 -0.1652
11790TIP3    H135313   0.795   5.846   4.536  1.1701  1.1646 -0.0942
11790TIP3    H235314   0.776   5.978   4.466 -1.3203 -0.0408 -1.7679
11791TIP3   OH235315   8.329   4.408   4.001  0.1297 -0.3436  0.0612
11791TIP3    H135316   8.378   4.373   4.075 -1.5194  2.1889  2.4608
11791TIP3    H235317   8.237   4.388   4.022 -0.5594  2.5715 -0.0252
11792TIP3   OH235318   6.941   4.130   3.985  0.0675 -0.1000  0.4079
11792TIP3    H135319   6.944   4.161   4.075 -1.4501  0.5919  0.2332
11792TIP3    H235320   7.033   4.119   3.960  0.4966 -0.0695  1.9514
11793TIP3   OH235321   1.128   6.300   3.198 -0.0002 -0.0268  0.5608
11793TIP3    H135322   1.204   6.353   3.174  0.8892 -0.5248  2.2073
11793TIP3    H235323   1.081   6.354   3.262  0.1032 -0.6142  1.1275
11794TIP3   OH235324   0.727   4.098   5.744  0.2031 -0.0766  0.0555
11794TIP3    H135325   0.668   4.038   5.790  1.8118 -1.1108  0.8200
11794TIP3    H235326   0.756   4.160   5.811  0.5241  0.0057 -0.1578
11795TIP3   OH235327   7.493   3.839   4.184  0.4654  0.2955 -0.6489
11795TIP3    H135328   7.516   3.826   4.092 -0.0237 -0.7779 -0.6268
11795TIP3    H235329   7.403   3.807   4.192  0.3298  0.8470  0.0911
11796TIP3   OH235330   1.000   6.615   4.539  0.4190  0.2869 -0.0522
11796TIP3    H135331   1.044   6.597   4.456  0.6637 -0.1977  0.1757
11796TIP3    H235332   0.991   6.528   4.580 -0.1724  0.4612  0.1860
11797TIP3   OH235333   8.414   3.313   4.617 -0.1385  0.5410 -0.3349
11797TIP3    H135334   8.458   3.382   4.567  0.4104  0.6664  0.3166
11797TIP3    H235335   8.381   3.358   4.695  0.0639  0.1051  0.0006
11798TIP3   OH235336   6.007   6.193   5.220 -0.3457  0.2148 -0.5531
11798TIP3    H135337   6.014   6.101   5.246 -0.6557 -0.0504 -1.3688
11798TIP3    H235338   5.924   6.222   5.258 -0.5498 -0.0241 -0.8137
11799TIP3   OH235339   7.702   2.737   3.468 -0.4028 -0.0188 -0.0068
11799TIP3    H135340   7.659   2.710   3.549 -1.5319  0.4029 -0.4599
11799TIP3    H235341   7.656   2.688   3.399  0.3239 -0.1115 -0.4293
11800TIP3   OH235342   0.159   6.367   4.342  0.4020 -0.2099  0.0356
11800TIP3    H135343   0.252   6.392   4.345  0.5662 -0.9404  1.4673
11800TIP3    H235344   0.112   6.448   4.362  0.6872  0.3014 -1.2616
11801TIP3   OH235345   1.411   4.438   5.048 -0.0642 -0.0087 -0.1108
11801TIP3    H135346   1.452   4.454   5.133 -1.1850 -1.8879  0.7988
11801TIP3    H235347   1.407   4.525   5.007  1.8604  0.6945  1.0941
11802TIP3   OH235348   0.957   5.621   4.311  0.2969 -0.0775 -0.1319
11802TIP3    H135349   0.880   5.656   4.356 -1.1168 -0.0802 -2.4462
11802TIP3    H235350   0.937   5.528   4.297  1.4002 -0.4381  0.5845
11803TIP3   OH235351   2.610   7.495   0.033  0.3145  0.2105  0.2624
11803TIP3    H135352   2.679   7.428   0.039 -0.3053 -0.4675 -0.1028
11803TIP3    H235353   2.542   7.454  -0.020 -0.1648  1.0593  0.2263
11804TIP3   OH235354   8.161   3.751   6.615 -0.3034 -0.5750 -0.1941
11804TIP3    H135355   8.088   3.813   6.619  1.1387  1.3202 -2.0207
11804TIP3    H235356   8.237   3.801   6.643  0.7433 -1.7840 -0.8006
11805TIP3   OH235357   6.712   4.705   4.643 -0.0666  0.7543  0.1692
11805TIP3    H135358   6.782   4.771   4.638 -0.6507  1.3285 -0.6255
11805TIP3    H235359   6.664   4.727   4.723 -1.1386  2.2098 -0.8482
11806TIP3   OH235360   0.161   4.846   5.704 -0.0694  0.8738 -0.3393
11806TIP3    H135361   0.157   4.843   5.800  0.4183 -1.3459 -0.3600
11806TIP3    H235362   0.245   4.805   5.683 -1.0769 -0.4929 -1.7792
11807TIP3   OH235363   1.321   6.735   4.461  0.5216  0.3829 -0.1771
11807TIP3    H135364   1.327   6.685   4.379 -0.5395  2.0887 -1.3220
11807TIP3    H235365   1.315   6.668   4.529  2.1847 -1.0888 -1.3965
11808TIP3   OH235366   8.210   4.055   4.049 -0.0534 -0.1741 -0.2602
11808TIP3    H135367   8.278   4.091   4.105  0.2525 -1.0059 -0.0852
11808TIP3    H235368   8.128   4.073   4.095 -0.0519  1.6633 -0.9140
11809TIP3   OH235369   7.924   5.354   5.862 -0.2189 -0.4962 -0.1441
11809TIP3    H135370   7.912   5.320   5.774 -1.9171 -1.1632  0.3199
11809TIP3    H235371   8.000   5.306   5.896  0.8137  0.1976 -1.4361
11810TIP3   OH235372   1.381   2.781   5.178  0.3964 -0.2099 -0.1929
11810TIP3    H135373   1.344   2.694   5.161  0.1805 -0.9502  3.4787
11810TIP3    H235374   1.316   2.842   5.144 -0.4955 -1.4924 -0.8359
11811TIP3   OH235375   7.602   3.404   5.582  0.0087 -0.4006  0.6174
11811TIP3    H135376   7.689   3.383   5.549  0.1340  0.7169  0.2185
11811TIP3    H235377   7.595   3.357   5.665  0.7463 -1.0086  0.3331
11812TIP3   OH235378   6.802   3.243   4.948  0.4040 -0.3824  0.0960
11812TIP3    H135379   6.820   3.196   4.867 -0.7027  0.7503 -0.8321
11812TIP3    H235380   6.888   3.274   4.978  0.5712  1.3249 -1.9922
11813TIP3   OH235381   7.139   2.749   5.399 -0.3942 -0.1743  0.0009
11813TIP3    H135382   7.135   2.840   5.429 -0.3858  0.2696 -1.3469
11813TIP3    H235383   7.054   2.732   5.360 -0.6693 -1.0003  0.9176
11814TIP3   OH235384   6.794   5.004   6.327  0.0352  0.2471  0.3232
11814TIP3    H135385   6.819   5.044   6.245 -0.2368 -0.1149  0.0607
11814TIP3    H235386   6.784   5.077   6.388  0.2726  0.5095  0.0445
11815TIP3   OH235387   6.599   4.337   6.188 -0.2940 -0.4034 -0.1347
11815TIP3    H135388   6.603   4.249   6.227  2.4378  0.9394  2.8515
11815TIP3    H235389   6.523   4.377   6.228  0.0452 -0.4946  0.6167
11816TIP3   OH235390   2.411   6.811   0.498 -0.3843 -0.1718  0.1203
11816TIP3    H135391   2.482   6.822   0.436 -1.0785  1.3900 -0.4129
11816TIP3    H235392   2.426   6.878   0.565 -1.3171  0.1345  0.0345
11817TIP3   OH235393   7.109   5.973   3.759 -0.1595  0.2062 -0.6019
11817TIP3    H135394   7.121   5.992   3.666  2.0752  0.5695 -0.2750
11817TIP3    H235395   7.175   6.026   3.803 -2.0505  1.0588  1.3163
11818TIP3   OH235396   4.951   7.877   6.521  0.2151 -0.0639  0.3200
11818TIP3    H135397   4.918   7.946   6.463  0.0094 -0.3771  0.0615
11818TIP3    H235398   5.045   7.892   6.524 -0.2358  2.5008  3.2263
11819TIP3   OH235399   7.422   3.747   6.902 -0.2271 -0.7472  0.2047
11819TIP3    H135400   7.501   3.785   6.941 -1.0354 -0.1944  1.3381
11819TIP3    H235401   7.413   3.662   6.943 -0.9787 -0.2393  1.1178
11820TIP3   OH235402   7.413   2.781   4.701  0.4663 -0.6850  0.2201
11820TIP3    H135403   7.376   2.710   4.753 -0.5702  0.3320  0.9165
11820TIP3    H235404   7.463   2.738   4.631 -1.0867 -2.0995 -0.0420
11821TIP3   OH235405   1.162   5.294   5.127 -0.3392 -0.2563 -0.8208
11821TIP3    H135406   1.102   5.285   5.053 -1.9148  0.2235  0.3883
11821TIP3    H235407   1.241   5.248   5.099 -1.1587 -0.6653 -2.5304
11822TIP3   OH235408   7.516   4.760   6.956  0.4442 -0.3075  0.3723
11822TIP3    H135409   7.504   4.709   6.876  0.0270  0.1963  0.1085
11822TIP3    H235410   7.543   4.846   6.926  1.2227 -0.3854  0.8212
11823TIP3   OH235411   0.463   5.243   4.724 -0.3331  0.4448  0.7846
11823TIP3    H135412   0.399   5.243   4.795 -1.4511  1.1102 -0.2063
11823TIP3    H235413   0.544   5.272   4.766 -0.4998 -0.9962  2.1793
11824TIP3   OH235414   8.221   2.404   1.639 -0.0346 -0.5305 -0.3093
11824TIP3    H135415   8.150   2.457   1.676 -0.5594 -1.2779 -0.2278
11824TIP3    H235416   8.179   2.320   1.618  0.9021 -1.0931  0.0487
11825TIP3   OH235417   0.494   4.212   4.204 -0.0522 -0.1367  0.4445
11825TIP3    H135418   0.431   4.159   4.155 -0.6337  0.3114  0.7022
11825TIP3    H235419   0.536   4.267   4.138 -0.3634 -0.0043  0.3576
11826TIP3   OH235420   8.420   4.976   3.858 -0.5706  0.0154  0.1034
11826TIP3    H135421   8.451   4.939   3.775 -1.1233 -1.3115  0.4720
11826TIP3    H235422   8.394   4.900   3.910  0.1410  0.8155  1.6559
11827TIP3   OH235423   6.921   3.523   6.652  0.4378 -0.6598 -0.0672
11827TIP3    H135424   6.920   3.615   6.679 -0.1546 -0.3342 -1.1831
11827TIP3    H235425   6.840   3.512   6.603 -0.8262 -2.4553  2.2906
11828TIP3   OH235426   2.195   7.659   0.289 -0.0272  0.1106  0.1846
11828TIP3    H135427   2.115   7.632   0.335 -0.7667  0.9545 -0.5743
11828TIP3    H235428   2.185   7.622   0.201  0.0883  0.8069 -0.1204
11829TIP3   OH235429   0.931   4.565   5.704 -0.0452  0.3520 -0.1204
11829TIP3    H135430   0.925   4.558   5.800  1.6897  1.2688  0.0817
11829TIP3    H235431   0.920   4.658   5.686  0.4474  0.2934 -0.7412
11830TIP3   OH235432   0.466   6.049   6.412  0.5464  0.7162  0.0741
11830TIP3    H135433   0.475   5.957   6.436  0.0464  0.8829  0.9103
11830TIP3    H235434   0.555   6.082   6.409  0.9563 -0.5016 -3.0743
11831TIP3   OH235435   8.458   5.723   5.952  0.0935 -0.0814 -0.1900
11831TIP3    H135436   8.373   5.687   5.978  0.4829 -1.1975 -0.4471
11831TIP3    H235437   8.504   5.650   5.911  0.6694  0.8618 -1.2628
11832TIP3   OH235438   8.043   5.153   4.231  0.9288 -0.1514  0.0577
11832TIP3    H135439   8.040   5.086   4.164 -0.2370 -1.6142  1.5311
11832TIP3    H235440   8.012   5.233   4.188  1.7724 -0.6752 -1.5448
11833TIP3   OH235441   1.259   4.266   6.134  0.6593 -0.4047  0.7600
11833TIP3    H135442   1.268   4.334   6.067  1.2834  0.4475  1.6848
11833TIP3    H235443   1.300   4.188   6.096  0.3564 -0.1327 -0.1295
11834TIP3   OH235444   7.620   6.459   4.453  0.0098 -0.0801  0.4541
11834TIP3    H135445   7.663   6.482   4.535 -2.1662 -0.1115  1.6395
11834TIP3    H235446   7.534   6.426   4.479 -0.7470 -0.0134 -1.8287
11835TIP3   OH235447   1.332   7.117   0.609  0.1708  1.5622  0.4527
11835TIP3    H135448   1.316   7.085   0.698  2.1597 -0.7693  0.0324
11835TIP3    H235449   1.254   7.090   0.560  1.1957 -1.6526  0.4228
11836TIP3   OH235450   0.096   5.164   2.962 -0.1822 -0.3834 -0.6555
11836TIP3    H135451   0.038   5.139   3.034 -1.6370  0.5329 -1.4956
11836TIP3    H235452   0.056   5.243   2.925  1.3646 -0.0005 -1.5272
11837TIP3   OH235453   0.085   6.675   5.247  1.0310  0.2110 -0.0015
11837TIP3    H135454   0.105   6.688   5.340 -0.6361  0.7354  0.2926
11837TIP3    H235455  -0.002   6.712   5.235  0.0628 -2.3434 -1.1768
11838TIP3   OH235456   6.650   5.723   4.776 -0.1164 -0.0557  0.1347
11838TIP3    H135457   6.722   5.738   4.714 -1.1184 -0.5529 -1.1692
11838TIP3    H235458   6.686   5.748   4.861  1.7297 -0.6558 -0.4454
11839TIP3   OH235459   8.364   3.939   4.371 -0.3098 -0.3672 -0.6469
11839TIP3    H135460   8.324   4.025   4.357 -1.5172 -1.1069 -1.8704
11839TIP3    H235461   8.325   3.883   4.304  1.8832 -1.4143 -1.1034
11840TIP3   OH235462   0.466   4.765   4.847 -0.3985  0.4406  0.0726
11840TIP3    H135463   0.413   4.742   4.923  0.4055  1.7294  1.0478
11840TIP3    H235464   0.403   4.794   4.781 -1.0127  0.5250  0.6960
11841TIP3   OH235465   7.568   5.522   4.290 -0.1507  0.1409  0.0587
11841TIP3    H135466   7.547   5.467   4.365  0.3506  0.1514  0.2094
11841TIP3    H235467   7.572   5.611   4.325 -1.1329  0.3014 -0.2177
11842TIP3   OH235468   1.198   2.799   0.403 -0.2999 -0.0904  0.3123
11842TIP3    H135469   1.157   2.725   0.448  0.1996  0.0427  0.9896
11842TIP3    H235470   1.232   2.854   0.473  0.5023  0.1140 -0.2327
11843TIP3   OH235471   8.423   5.371   2.877 -0.4012  0.1809 -0.3718
11843TIP3    H135472   8.436   5.466   2.876  0.1078  0.1189  0.0204
11843TIP3    H235473   8.383   5.352   2.792 -0.9589  0.8050 -0.2557
11844TIP3   OH235474   6.167   5.072   5.466  0.4952 -0.4849  0.2951
11844TIP3    H135475   6.230   5.142   5.485 -1.0937  0.9326  0.4787
11844TIP3    H235476   6.147   5.034   5.551  0.3193 -0.2295  0.3703
11845TIP3   OH235477   7.434   4.196   2.181  0.3196  0.0446 -0.0630
11845TIP3    H135478   7.447   4.278   2.229 -0.7712  0.2086 -0.0533
11845TIP3    H235479   7.499   4.199   2.111 -0.3404  1.3495 -0.6241
11846TIP3   OH235480   0.262   5.974   6.072  0.1005  1.0778 -0.2761
11846TIP3    H135481   0.223   6.002   6.155  2.6199  1.9830  0.6553
11846TIP3    H235482   0.187   5.961   6.014 -1.5488  3.3073  1.2602
11847TIP3   OH235483   0.804   1.386   5.478 -0.1506 -0.1694 -0.3453
11847TIP3    H135484   0.826   1.294   5.463  1.4171  0.3989 -1.6511
11847TIP3    H235485   0.880   1.434   5.447 -0.3679  1.5176  1.6976
11848TIP3   OH235486   7.405   4.756   5.179  0.1717 -0.8558  0.0755
11848TIP3    H135487   7.334   4.775   5.241 -0.6782  0.1852 -1.1676
11848TIP3    H235488   7.398   4.662   5.162 -0.8624 -0.7780  0.0411
11849TIP3   OH235489   7.177   2.867   6.419  0.0012  0.1568 -0.2917
11849TIP3    H135490   7.209   2.807   6.352  0.9758  1.2931 -0.8564
11849TIP3    H235491   7.237   2.856   6.492 -0.5083 -0.3896  0.0547
11850TIP3   OH235492   8.376   2.462   4.424  0.3660  0.6820  0.5571
11850TIP3    H135493   8.332   2.464   4.339 -0.0013  1.2757  0.7543
11850TIP3    H235494   8.332   2.391   4.472  1.6651 -0.7425 -0.3140
11851TIP3   OH235495   0.681   3.357   4.033  0.7253 -0.9642  0.6081
11851TIP3    H135496   0.637   3.319   4.109 -0.3198 -1.8467 -0.4169
11851TIP3    H235497   0.618   3.421   3.999  0.3955 -1.9250 -0.6117
11852TIP3   OH235498   7.769   5.169   6.481 -0.8952  0.1239 -0.1549
11852TIP3    H135499   7.758   5.155   6.575  1.2343 -1.6699 -0.1277
11852TIP3    H235500   7.716   5.100   6.440  1.6594 -1.9307 -0.1550
11853TIP3   OH235501   8.349   2.852   4.614  0.3548 -0.4541 -0.3802
11853TIP3    H135502   8.307   2.767   4.627  1.3330 -0.3568  4.4809
11853TIP3    H235503   8.293   2.914   4.660  1.9374  0.8136 -0.0948
11854TIP3   OH235504   0.648   3.120   3.824  0.0922 -0.1980  0.2125
11854TIP3    H135505   0.666   3.172   3.902 -1.2927  0.6395 -0.0130
11854TIP3    H235506   0.731   3.076   3.805  0.4295 -0.4691  2.1951
11855TIP3   OH235507   8.151   5.583   3.624 -0.1305 -0.6574 -0.5330
11855TIP3    H135508   8.141   5.591   3.719  3.8866 -1.0032  0.0454
11855TIP3    H235509   8.178   5.492   3.610  1.0203 -0.1516 -1.7571
11856TIP3   OH235510   7.623   2.297   4.604 -0.4214 -0.3791  0.1270
11856TIP3    H135511   7.618   2.348   4.685  1.9245  0.5615 -0.2957
11856TIP3    H235512   7.617   2.361   4.534 -0.1035 -0.9515 -0.4304
11857TIP3   OH235513   0.284   5.106   5.983 -0.0478 -0.2329 -0.1142
11857TIP3    H135514   0.338   5.148   5.917  1.5889 -1.7074  0.2601
11857TIP3    H235515   0.301   5.012   5.973 -0.3694 -0.5269  1.8746
11858TIP3   OH235516   7.254   5.004   5.478 -0.5196 -0.1081 -0.2801
11858TIP3    H135517   7.228   5.087   5.440 -1.4337 -0.9225 -1.4745
11858TIP3    H235518   7.348   5.011   5.489 -0.3775  0.5021 -1.8142
11859TIP3   OH235519   5.786   7.773   3.013  0.2476 -0.0350 -0.3680
11859TIP3    H135520   5.698   7.796   3.044 -0.4924  0.2710 -2.6088
11859TIP3    H235521   5.782   7.678   2.999  0.9312 -0.3628  1.4679
11860TIP3   OH235522   8.430   6.471   5.491 -0.2276 -0.1378  0.1962
11860TIP3    H135523   8.347   6.463   5.444 -1.4551  0.4544  2.2073
11860TIP3    H235524   8.474   6.388   5.475 -1.3413 -0.5927 -0.6206
11861TIP3   OH235525   8.034   6.516   3.692  0.4083 -0.0062 -0.5483
11861TIP3    H135526   8.108   6.455   3.696  1.0864  0.8382  0.1739
11861TIP3    H235527   8.066   6.588   3.637  1.0763  1.5869  1.8310
11862TIP3   OH235528   0.426   3.647   4.253 -0.2036 -0.1649  0.2764
11862TIP3    H135529   0.334   3.669   4.238 -0.5205 -0.7876  1.2906
11862TIP3    H235530   0.471   3.731   4.250 -0.5202 -0.0412 -2.1560
11863TIP3   OH235531   8.435   4.037   3.289 -0.3629  0.2007  0.4852
11863TIP3    H135532   8.429   4.099   3.217  0.3980 -1.2228 -0.8526
11863TIP3    H235533   8.346   4.002   3.298 -0.6179  0.9029  0.7283
11864TIP3   OH235534   6.967   0.193   5.070 -0.4085 -0.6787  0.0754
11864TIP3    H135535   7.043   0.137   5.052  0.3148  0.4525 -0.4732
11864TIP3    H235536   6.909   0.179   4.996  0.6762  0.7973 -1.0837
11865TIP3   OH235537   8.261   6.750   4.525  0.0429  0.2921  0.0016
11865TIP3    H135538   8.282   6.658   4.514 -2.9485 -0.4822  0.4222
11865TIP3    H235539   8.306   6.775   4.606 -2.8077 -2.0600  2.4227
11866TIP3   OH235540   0.739   5.762   5.068 -0.5285  0.2817 -0.4520
11866TIP3    H135541   0.747   5.853   5.098 -1.4547  0.7383 -1.5225
11866TIP3    H235542   0.829   5.731   5.060 -0.2081  1.0125  0.1981
11867TIP3   OH235543   0.622   6.405   4.567 -0.0296  0.0752 -0.1894
11867TIP3    H135544   0.562   6.343   4.608 -0.8481  1.1838  0.3209
11867TIP3    H235545   0.675   6.438   4.639 -0.4299  0.8817 -0.2588
11868TIP3   OH235546   7.207   4.155   3.947 -0.1104  0.4851  0.5981
11868TIP3    H135547   7.192   4.211   3.871 -1.1217 -0.8087 -0.1539
11868TIP3    H235548   7.279   4.098   3.921  0.6657  1.1490  1.2329
11869TIP3   OH235549   5.128   1.216   2.140 -0.4169 -0.1579 -0.3707
11869TIP3    H135550   5.135   1.204   2.045  1.2239 -1.1206 -0.1487
11869TIP3    H235551   5.042   1.180   2.163 -0.5754 -0.4445 -1.4063
11870TIP3   OH235552   0.633   0.885   2.121  0.0748 -0.0927 -0.1593
11870TIP3    H135553   0.593   0.801   2.145  0.8022 -0.2816  0.3860
11870TIP3    H235554   0.626   0.889   2.026 -0.9536 -0.2752 -0.0974
11871TIP3   OH235555   0.387   6.142   5.884  0.3990 -0.6777  0.2083
11871TIP3    H135556   0.354   6.229   5.907  0.6142  0.0066 -1.9865
11871TIP3    H235557   0.342   6.083   5.945 -0.1975  0.8839  1.3269
11872TIP3   OH235558   7.638   1.920   0.562 -0.2543 -0.1937  0.3001
11872TIP3    H135559   7.652   1.839   0.612  0.3993 -0.0316  0.3846
11872TIP3    H235560   7.627   1.987   0.629 -2.1201 -0.4216  0.2420
11873TIP3   OH235561   0.144   4.499   5.465 -0.4513 -0.9098  0.4882
11873TIP3    H135562   0.053   4.503   5.495 -0.8661  2.0126 -0.9635
11873TIP3    H235563   0.192   4.554   5.527  0.0098 -0.9512  0.1734
11874TIP3   OH235564   7.816   4.591   5.280  0.1096  0.4327 -0.3294
11874TIP3    H135565   7.797   4.612   5.371 -0.6182  0.7976 -0.5626
11874TIP3    H235566   7.745   4.532   5.254 -0.8878  2.0282 -1.2948
11875TIP3   OH235567   0.334   5.309   6.856  0.1441 -0.6983 -0.1488
11875TIP3    H135568   0.411   5.281   6.806  1.4861 -0.3773  1.6699
11875TIP3    H235569   0.323   5.401   6.834  1.0300 -0.4304  0.4952
11876TIP3   OH235570   7.257   5.219   5.267  0.1446 -0.2080  0.3233
11876TIP3    H135571   7.347   5.201   5.293  0.1797  0.9698  1.0431
11876TIP3    H235572   7.264   5.252   5.177  0.7485  2.6807  1.3695
11877TIP3   OH235573   7.795   5.079   6.753 -0.0417 -0.4046 -0.5395
11877TIP3    H135574   7.728   5.087   6.820  0.6515 -0.2147  0.1372
11877TIP3    H235575   7.843   4.999   6.776  2.0038  1.1547  0.8626
11878TIP3   OH235576   7.821   5.416   4.331  0.3728 -0.1719 -0.0987
11878TIP3    H135577   7.734   5.441   4.300  0.9933  0.4061 -1.4381
11878TIP3    H235578   7.804   5.357   4.405 -1.2026 -1.5423 -1.4837
11879TIP3   OH235579   6.357   1.495   1.107  0.0459 -0.0099 -0.4565
11879TIP3    H135580   6.272   1.470   1.071 -0.3322  0.8947 -0.2076
11879TIP3    H235581   6.375   1.581   1.068  2.3408 -1.5714 -3.0322
11880TIP3   OH235582   5.891   0.715   0.603  0.2546  0.1235  0.1368
11880TIP3    H135583   5.811   0.713   0.656  1.6380 -1.8425  2.2491
11880TIP3    H235584   5.946   0.781   0.646  0.2706  0.5398 -0.5257
11881TIP3   OH235585   0.056   5.237   6.070  0.2340  0.3946  0.4028
11881TIP3    H135586   0.128   5.174   6.058  0.5762  1.0228 -0.9323
11881TIP3    H235587   0.062   5.263   6.162  1.6068  0.2976  0.3561
11882TIP3   OH235588   4.458   1.379   1.089  0.7114 -0.3154 -0.0506
11882TIP3    H135589   4.425   1.444   1.028 -0.8370  0.0717  1.1732
11882TIP3    H235590   4.535   1.421   1.129  0.2917  0.3859  0.0255
11883TIP3   OH235591   4.528   1.103   1.466 -0.2223  0.1001  0.1994
11883TIP3    H135592   4.617   1.115   1.500 -0.3746  0.8202  0.3570
11883TIP3    H235593   4.481   1.059   1.536 -0.4858  1.4139  0.8576
11884TIP3   OH235594   7.863   3.913   6.102  0.1008  0.5924  0.1814
11884TIP3    H135595   7.925   3.854   6.059 -1.4131 -1.4281  0.6433
11884TIP3    H235596   7.867   3.888   6.195 -0.2493  1.5191  0.4463
11885TIP3   OH235597   6.728   4.098   5.502  0.5375 -0.0440 -0.4253
11885TIP3    H135598   6.684   4.178   5.533  0.3321  0.9905 -3.2178
11885TIP3    H235599   6.661   4.030   5.510  0.0928  0.4527  0.1825
11886TIP3   OH235600   0.098   6.102   3.262  0.1743  0.8319 -0.5101
11886TIP3    H135601   0.142   6.175   3.305  1.5749  2.1136 -3.9799
11886TIP3    H235602   0.021   6.085   3.316 -0.4006  5.1267  0.1678
11887TIP3   OH235603   8.104   4.576   3.474 -0.1273 -0.5039 -0.6125
11887TIP3    H135604   8.124   4.669   3.482 -0.0103 -0.4853 -1.1325
11887TIP3    H235605   8.046   4.558   3.548 -0.9864  0.2092 -1.1185
11888TIP3   OH235606   8.393   4.699   2.822  0.6547 -0.0824 -0.6091
11888TIP3    H135607   8.373   4.740   2.738  0.3138 -1.3231 -1.1405
11888TIP3    H235608   8.473   4.649   2.806  1.2826  0.6631  0.1371
11889TIP3   OH235609   7.311   5.114   4.990 -0.0037 -0.5929 -0.2091
11889TIP3    H135610   7.251   5.090   4.919 -0.4451  2.1305 -0.8069
11889TIP3    H235611   7.397   5.119   4.948 -0.0428 -0.3094 -0.2532
11890TIP3   OH235612   7.683   3.326   4.851  0.3764  0.5112 -0.0270
11890TIP3    H135613   7.605   3.333   4.796 -1.0952  1.3929  2.1313
11890TIP3    H235614   7.678   3.238   4.888  1.1705  0.0598 -0.9451
11891TIP3   OH235615   7.296   4.070   4.361 -0.0952 -0.3080  0.6935
11891TIP3    H135616   7.303   4.090   4.267 -0.4879  0.3986  0.8075
11891TIP3    H235617   7.382   4.093   4.396  0.3605 -1.4753  0.3460
11892TIP3   OH235618   7.062   3.556   6.100 -0.1727 -0.1760 -0.3932
11892TIP3    H135619   7.023   3.554   6.187  0.7243 -0.5750  0.0033
11892TIP3    H235620   6.999   3.510   6.044 -0.6439 -0.1103  0.0795
11893TIP3   OH235621   6.281   3.639   5.314  0.0331  0.0411 -0.6337
11893TIP3    H135622   6.374   3.627   5.297  0.3225  1.4224 -0.1160
11893TIP3    H235623   6.276   3.719   5.366 -1.2711 -1.0857  1.0689
11894TIP3   OH235624   6.684   5.065   6.786  0.0820 -0.1093  0.3283
11894TIP3    H135625   6.610   5.008   6.765  1.5586 -1.4181 -1.5111
11894TIP3    H235626   6.760   5.019   6.751  1.8778  0.8330  2.8565
11895TIP3   OH235627   6.345   6.011   3.968  0.2283 -0.1693 -0.5822
11895TIP3    H135628   6.326   5.982   4.057 -2.4910  1.7252 -0.4946
11895TIP3    H235629   6.438   6.033   3.969  0.1124  0.3380  1.9500
11896TIP3   OH235630   0.424   5.295   3.965  0.6209 -0.1914  0.7617
11896TIP3    H135631   0.395   5.375   4.009  1.8047  0.5738  0.1991
11896TIP3    H235632   0.352   5.271   3.907  0.2623  0.4851  0.9282
11897TIP3   OH235633   1.767   6.251   0.766 -0.2922  0.4030 -0.5267
11897TIP3    H135634   1.758   6.290   0.853  0.0064  0.0673 -0.3423
11897TIP3    H235635   1.786   6.324   0.708 -0.1921  0.5891 -0.2608
11898TIP3   OH235636   7.810   3.399   4.410 -0.1463 -0.4781  0.5951
11898TIP3    H135637   7.733   3.351   4.441 -0.3926 -0.8202 -0.5269
11898TIP3    H235638   7.803   3.396   4.315 -0.3314  2.0419  0.4986
11899TIP3   OH235639   6.365   5.935   5.881 -1.0569 -0.2722  0.3184
11899TIP3    H135640   6.388   5.862   5.823 -0.0966  0.3333 -0.0639
11899TIP3    H235641   6.334   5.892   5.961  0.2480 -1.1150  0.3932
11900TIP3   OH235642   7.361   4.067   5.867 -0.0726  0.0638 -0.1500
11900TIP3    H135643   7.450   4.103   5.868  0.3868 -0.9980 -1.1972
11900TIP3    H235644   7.373   3.974   5.844 -1.4984  0.0856 -1.0390
11901TIP3   OH235645   0.221   3.673   5.550  0.0004  0.8935  0.5344
11901TIP3    H135646   0.242   3.752   5.500 -0.9281  1.1438  0.5429
11901TIP3    H235647   0.298   3.659   5.605 -0.4345  2.6451  1.6213
11902TIP3   OH235648   7.067   4.837   5.929  0.0330  0.4636  0.1651
11902TIP3    H135649   7.149   4.799   5.897  0.8160  0.9536  1.5567
11902TIP3    H235650   7.050   4.910   5.868  0.7594  0.5125  0.0131
11903TIP3   OH235651   8.148   7.393   4.069  0.5303 -0.3103 -0.7717
11903TIP3    H135652   8.113   7.479   4.094  1.0978 -0.2898 -0.0255
11903TIP3    H235653   8.129   7.336   4.143  2.2222 -0.2491 -0.2636
11904TIP3   OH235654   7.819   4.256   5.219  0.3421  0.2879 -0.0475
11904TIP3    H135655   7.752   4.322   5.242 -0.1665  0.8921 -2.9832
11904TIP3    H235656   7.802   4.183   5.278 -1.0217  1.6228  1.2626
11905TIP3   OH235657   8.384   5.817   4.179 -0.2791  0.0050  0.4384
11905TIP3    H135658   8.366   5.903   4.142 -1.1190 -0.6153 -0.6149
11905TIP3    H235659   8.474   5.798   4.153 -0.8898 -0.4671 -1.4164
11906TIP3   OH235660   0.748   4.303   4.976  0.1086  0.4752  0.5692
11906TIP3    H135661   0.809   4.367   4.938  0.6554 -0.1437  0.3969
11906TIP3    H235662   0.731   4.241   4.906  0.5033 -0.2319  1.0953
11907TIP3   OH235663   7.635   3.847   5.664 -0.0009  0.4914 -0.0019
11907TIP3    H135664   7.645   3.757   5.695  0.6096 -0.2150 -2.1880
11907TIP3    H235665   7.554   3.846   5.612 -0.3399  1.3687  0.4911
11908TIP3   OH235666   2.626   6.427   0.197 -0.1019  0.3868  0.4874
11908TIP3    H135667   2.685   6.352   0.208 -0.8556 -0.4681 -1.1326
11908TIP3    H235668   2.551   6.391   0.151 -0.4619  2.1699 -0.3384
11909TIP3   OH235669   5.919   4.577   4.645  0.5658 -0.2499  0.3180
11909TIP3    H135670   5.838   4.582   4.594  0.1785 -1.4242  0.7933
11909TIP3    H235671   5.951   4.488   4.630  1.3605 -0.0382  0.7447
11910TIP3   OH235672   8.447   3.866   4.866  0.0787  0.1016 -0.9577
11910TIP3    H135673   8.540   3.854   4.845  0.1407 -0.4511 -0.4088
11910TIP3    H235674   8.439   3.830   4.955 -0.3043  1.7524 -0.3156
11911TIP3   OH235675   6.443   3.774   2.312  0.1564  0.4318  0.1096
11911TIP3    H135676   6.365   3.827   2.299 -1.3837 -1.2969  1.9717
11911TIP3    H235677   6.510   3.836   2.343 -0.6228  1.8111 -0.9312
11912TIP3   OH235678   8.158   6.092   5.599  0.2736 -0.7958  0.1932
11912TIP3    H135679   8.099   6.051   5.662  1.6680 -0.3315  1.8407
11912TIP3    H235680   8.101   6.115   5.525 -1.3908 -1.3988  1.2396
11913TIP3   OH235681   8.242   5.112   2.670  0.3425 -0.0622 -0.9843
11913TIP3    H135682   8.168   5.065   2.631  2.0731 -2.8868 -1.0281
11913TIP3    H235683   8.203   5.172   2.733 -2.0466 -0.5718 -1.9471
11914TIP3   OH235684   0.809   4.402   5.515 -0.2596  0.5547  0.6396
11914TIP3    H135685   0.820   4.438   5.603  0.5114 -0.3529  0.9251
11914TIP3    H235686   0.871   4.330   5.510 -0.3316  0.5546 -0.6371
11915TIP3   OH235687   1.935   7.243   0.309  0.0725 -0.4815 -0.1635
11915TIP3    H135688   2.000   7.223   0.376 -1.0536  0.3474  1.2233
11915TIP3    H235689   1.985   7.282   0.238  0.9678  1.4802  1.4726
11916TIP3   OH235690   0.294   4.529   5.893 -0.3348 -0.1312 -0.2305
11916TIP3    H135691   0.325   4.529   5.984 -0.1629 -0.9346 -0.2858
11916TIP3    H235692   0.227   4.460   5.891 -1.2153  0.7201 -0.4229
11917TIP3   OH235693   7.150   3.310   4.106 -0.0965  0.1335 -0.3754
11917TIP3    H135694   7.091   3.359   4.050 -1.5156 -0.8339  0.2254
11917TIP3    H235695   7.131   3.341   4.194 -0.1411 -0.5890 -0.1208
11918TIP3   OH235696   0.260   0.774   6.084  0.8501  0.2860  0.0085
11918TIP3    H135697   0.311   0.707   6.039  1.0371 -0.0542  0.7156
11918TIP3    H235698   0.194   0.726   6.133  0.7712  0.6362  0.2482
11919TIP3   OH235699   2.123   6.889   1.127 -0.0623  0.3488  0.3796
11919TIP3    H135700   2.099   6.814   1.182  1.4987 -1.5270 -1.3928
11919TIP3    H235701   2.040   6.917   1.088 -0.5971 -0.7732  0.6734
11920TIP3   OH235702   6.770   3.197   2.949  0.4615 -0.3446  0.1516
11920TIP3    H135703   6.734   3.216   3.036 -0.8953 -1.0038 -0.2498
11920TIP3    H235704   6.695   3.203   2.890  1.3769  0.1187 -0.9873
11921TIP3   OH235705   8.221   5.326   5.453  0.1699 -1.2887 -0.0534
11921TIP3    H135706   8.204   5.376   5.533  2.9499 -0.0834 -0.1540
11921TIP3    H235707   8.210   5.389   5.382  0.9411 -1.5170 -0.3832
11922TIP3   OH235708   5.503   0.104   0.043 -0.2249 -0.1694  0.4749
11922TIP3    H135709   5.508   0.192   0.081  0.1562 -0.2162  0.5432
11922TIP3    H235710   5.573   0.102  -0.022 -1.4482  0.2017 -0.8651
11923TIP3   OH235711   6.487   2.219   1.244  0.5604 -0.2109 -0.0350
11923TIP3    H135712   6.455   2.254   1.161 -0.2251 -1.5800 -0.3130
11923TIP3    H235713   6.513   2.129   1.224  0.5158 -0.4933  1.1677
11924TIP3   OH235714   6.339   0.509   2.829 -0.8710  0.1934 -0.4120
11924TIP3    H135715   6.416   0.510   2.773 -1.9763 -2.7103 -2.0688
11924TIP3    H235716   6.355   0.579   2.892  1.9673  1.2740 -2.2274
11925TIP3   OH235717   6.031   3.329   1.425 -0.0738  0.2416  0.2370
11925TIP3    H135718   6.004   3.324   1.333  0.0548  1.0270  0.1596
11925TIP3    H235719   5.959   3.288   1.473 -0.3336  0.2066 -0.1761
11926TIP3   OH235720   5.565   2.495   2.086 -0.0776  0.2386  0.0812
11926TIP3    H135721   5.558   2.527   1.996  0.4201  0.5456  0.1504
11926TIP3    H235722   5.611   2.564   2.133 -0.6095  0.2204  0.6486
11927TIP3   OH235723   8.237   5.593   6.039 -0.3280  0.1832  0.3012
11927TIP3    H135724   8.152   5.630   6.015  0.2182  0.2733 -1.6065
11927TIP3    H235725   8.217   5.508   6.077 -1.1576 -0.7850 -2.2263
11928TIP3   OH235726   7.666   2.584   1.259  0.1562  0.3151 -0.0980
11928TIP3    H135727   7.755   2.593   1.225  0.9713  0.4815  2.0171
11928TIP3    H235728   7.647   2.491   1.249  0.9391  0.1014  0.3476
11929TIP3   OH235729   6.222   1.816   1.155 -0.2021  0.4001  0.7696
11929TIP3    H135730   6.157   1.800   1.086  0.2845  0.7726  0.2231
11929TIP3    H235731   6.179   1.879   1.214 -0.9904 -0.6588  1.3366
11930TIP3   OH235732   6.262   1.450   0.021 -0.0585 -0.7151  0.0328
11930TIP3    H135733   6.334   1.410   0.069 -0.4203  1.0996  2.1905
11930TIP3    H235734   6.184   1.428   0.072 -0.4780  0.9834  0.1788
11931TIP3   OH235735   7.624   4.072   0.688 -0.1740 -0.3510 -0.4879
11931TIP3    H135736   7.561   4.130   0.645 -0.2497 -0.2988 -0.3051
11931TIP3    H235737   7.572   3.998   0.718 -0.0040 -0.7484 -1.1480
11932TIP3   OH235738   7.013   1.953   0.708  0.4794 -0.3450  0.1119
11932TIP3    H135739   6.953   1.977   0.638  1.5219  0.8888 -0.3517
11932TIP3    H235740   6.959   1.956   0.788 -0.4559 -0.8141 -0.4913
11933TIP3   OH235741   4.897   1.700   0.817  0.5326 -0.6029  0.6441
11933TIP3    H135742   4.815   1.672   0.857 -0.8509 -0.9997 -2.3386
11933TIP3    H235743   4.919   1.781   0.863 -1.9682 -0.0390  0.9257
11934TIP3   OH235744   4.999   1.968   1.730  0.1743  0.3473 -0.1695
11934TIP3    H135745   4.967   2.041   1.783 -2.0331  0.4412 -1.5539
11934TIP3    H235746   5.090   1.956   1.757  0.5653  3.5966  0.0903
11935TIP3   OH235747   8.015   5.768   5.091  0.0383 -0.1988 -0.3868
11935TIP3    H135748   8.059   5.815   5.162 -1.2215 -1.6325  1.3808
11935TIP3    H235749   8.086   5.734   5.037  0.9997  1.9823 -0.5734
11936TIP3   OH235750   1.130   6.783   6.391 -0.4124  0.3166 -0.1110
11936TIP3    H135751   1.074   6.855   6.419  2.5776  2.6774  0.0313
11936TIP3    H235752   1.167   6.812   6.307  0.9380 -0.9862  0.0104
11937TIP3   OH235753   7.664   6.138   5.284 -0.1176  0.4459  0.2557
11937TIP3    H135754   7.758   6.146   5.301 -0.0711 -0.7129  0.6246
11937TIP3    H235755   7.622   6.183   5.358  0.1470  1.4344 -0.1906
11938TIP3   OH235756   5.683   1.414   0.344 -0.3462  0.1587  0.6391
11938TIP3    H135757   5.713   1.342   0.399 -0.9480 -1.1619 -0.7169
11938TIP3    H235758   5.613   1.456   0.394 -1.3967 -1.4920  0.5845
11939TIP3   OH235759   6.781   2.745   0.808 -0.5324 -0.1411 -0.2795
11939TIP3    H135760   6.815   2.757   0.719  0.9382  1.7144  0.5102
11939TIP3    H235761   6.852   2.774   0.865 -2.2723  0.7871  1.4576
11940TIP3   OH235762   1.015   6.330   6.540  0.0788 -0.4805 -0.1812
11940TIP3    H135763   1.063   6.346   6.621  0.2896 -0.6244 -0.2779
11940TIP3    H235764   1.031   6.238   6.520 -0.7145 -0.6845  0.0979
11941TIP3   OH235765   5.534   4.561   2.305  0.4530  0.4808  0.0604
11941TIP3    H135766   5.627   4.539   2.306  0.2820 -0.4758  4.1653
11941TIP3    H235767   5.491   4.484   2.269  0.9889 -0.3163  1.1288
11942TIP3   OH235768   1.040   5.172   6.329 -0.0090 -0.0253 -0.1863
11942TIP3    H135769   1.083   5.174   6.414  1.8459 -0.8739 -1.0782
11942TIP3    H235770   0.946   5.176   6.349  0.3413 -1.9588  1.9573
11943TIP3   OH235771   0.573   6.239   5.285 -0.4333  0.6013 -1.0713
11943TIP3    H135772   0.492   6.283   5.260 -0.7074  2.2367  2.3935
11943TIP3    H235773   0.552   6.146   5.281 -2.3991  1.0062 -0.4986
11944TIP3   OH235774   2.095   6.411   6.583  0.1971 -0.2401 -0.1050
11944TIP3    H135775   2.094   6.324   6.543 -2.6877 -0.5947  0.6099
11944TIP3    H235776   2.025   6.459   6.539  1.4991  1.6013 -0.2198
11945TIP3   OH235777   1.384   6.427   5.952 -0.9923 -0.4040 -0.3109
11945TIP3    H135778   1.431   6.451   5.872  2.4702 -3.4169  0.6971
11945TIP3    H235779   1.358   6.336   5.938 -1.9103 -0.3940  1.3049
11946TIP3   OH235780   1.095   7.008   6.592 -0.1325 -0.3408 -0.1339
11946TIP3    H135781   1.160   6.979   6.655  2.0153  2.2195 -1.0754
11946TIP3    H235782   1.041   7.071   6.641  0.2303  0.0670 -0.2494
11947TIP3   OH235783   1.186   6.259   3.705  0.6297 -0.2237  0.0661
11947TIP3    H135784   1.105   6.256   3.756  0.0866  1.7996 -0.6328
11947TIP3    H235785   1.201   6.168   3.680 -0.4438 -0.8913  1.7070
11948TIP3   OH235786   7.220   2.059   0.125 -0.3718  0.5993  0.3250
11948TIP3    H135787   7.309   2.059   0.160 -0.1707 -3.0819  0.0388
11948TIP3    H235788   7.232   2.044   0.031 -1.3030 -1.5603  0.5261
11949TIP3   OH235789   0.079   3.198   0.107  0.0415 -0.0878  0.2034
11949TIP3    H135790   0.103   3.281   0.149 -0.2115  0.6374 -1.0881
11949TIP3    H235791  -0.002   3.172   0.151  1.1033 -0.6266  1.9318
11950TIP3   OH235792   4.427   1.335   1.375 -0.1253 -0.1443  0.0028
11950TIP3    H135793   4.395   1.311   1.288  0.6314 -1.2399  0.0150
11950TIP3    H235794   4.489   1.266   1.398  0.3617  0.6136  1.0346
11951TIP3   OH235795   6.717   1.978   1.739  0.0073 -1.0453  0.2540
11951TIP3    H135796   6.713   1.894   1.785 -1.0286 -1.5770 -0.7690
11951TIP3    H235797   6.630   1.988   1.700 -0.3174  1.1301  1.4338
11952TIP3   OH235798   2.125   5.742   6.779  0.1710  0.0601 -0.1059
11952TIP3    H135799   2.161   5.825   6.747 -0.8384 -0.0180 -1.4861
11952TIP3    H235800   2.151   5.678   6.713 -3.8919  0.2839 -2.0564
11953TIP3   OH235801   7.323   2.958   4.393  0.0545 -0.5023  0.2301
11953TIP3    H135802   7.412   2.929   4.416  0.2863 -0.1968 -0.2643
11953TIP3    H235803   7.280   2.971   4.477  0.3948 -0.9112  0.4720
11954TIP3   OH235804   5.009   7.984   0.455  0.4020 -0.2408  0.0828
11954TIP3    H135805   5.013   8.049   0.385  0.7348 -1.7976 -1.3464
11954TIP3    H235806   4.935   7.928   0.433 -0.0784 -0.1925  1.4764
11955TIP3   OH235807   6.113   1.245   1.100  0.3344 -0.3978 -0.3055
11955TIP3    H135808   6.095   1.338   1.104  1.1284 -0.2494 -0.0963
11955TIP3    H235809   6.071   1.215   1.019 -0.0140  0.1147 -0.3111
11956TIP3   OH235810   0.597   4.486   6.082  0.2247  0.3373 -0.1996
11956TIP3    H135811   0.575   4.441   6.163 -0.5770 -0.1096 -0.6558
11956TIP3    H235812   0.637   4.419   6.027 -2.6635 -0.3193 -1.5832
11957TIP3   OH235813   6.321   3.390   1.223  0.0456 -0.1842  0.1291
11957TIP3    H135814   6.293   3.441   1.298  0.0021  0.3928 -0.2812
11957TIP3    H235815   6.240   3.356   1.185  0.0655 -0.4510  0.3180
11958TIP3   OH235816   3.509   0.544   1.050  0.1527  0.1531  0.1587
11958TIP3    H135817   3.578   0.548   1.116 -0.3259 -0.6409  0.7166
11958TIP3    H235818   3.555   0.554   0.967  0.5976  2.6603  0.6645
11959TIP3   OH235819   7.474   3.490   0.208  0.0833 -0.0498 -0.0560
11959TIP3    H135820   7.501   3.571   0.249  1.2106 -0.8071  0.7183
11959TIP3    H235821   7.381   3.503   0.188  0.3913  1.6209 -0.4454
11960TIP3   OH235822   7.786   1.865   0.288  0.1212 -0.2252  0.4483
11960TIP3    H135823   7.744   1.841   0.206  0.2322  0.2360  0.2531
11960TIP3    H235824   7.718   1.855   0.354  0.1826 -1.1361  0.3880
11961TIP3   OH235825   5.241   2.039   0.028 -0.2243 -0.5074 -0.0294
11961TIP3    H135826   5.308   1.972   0.042 -0.8886 -1.0649  0.4554
11961TIP3    H235827   5.246   2.094   0.107  0.1969 -0.0811 -0.3467
11962TIP3   OH235828   5.764   3.073   0.830  0.4302  0.1823 -0.2239
11962TIP3    H135829   5.792   3.150   0.780 -0.5105  0.8699  0.2999
11962TIP3    H235830   5.764   3.103   0.921 -0.0982 -0.3961 -0.0350
11963TIP3   OH235831   5.917   1.216   0.358 -0.0240  0.2954  0.1383
11963TIP3    H135832   5.841   1.198   0.414 -0.2861  2.7363  0.6546
11963TIP3    H235833   5.913   1.151   0.289 -0.8797 -1.4895  1.8275
11964TIP3   OH235834   2.837   5.154   5.593 -0.3203 -0.2975 -0.4480
11964TIP3    H135835   2.786   5.074   5.587  0.1050 -1.0778  4.3183
11964TIP3    H235836   2.797   5.203   5.665  2.6615  1.2519  0.2716
11965TIP3   OH235837   1.701   7.265   6.486  0.1270 -0.0147 -0.7720
11965TIP3    H135838   1.671   7.174   6.478 -2.9515  0.7888  1.0624
11965TIP3    H235839   1.730   7.288   6.398 -1.4789 -1.9556 -1.8582
11966TIP3   OH235840   6.666   1.307   1.426  0.3696  0.1381 -0.7609
11966TIP3    H135841   6.593   1.299   1.364 -0.5956 -0.8273  0.4609
11966TIP3    H235842   6.693   1.398   1.420 -0.1986  0.2404 -2.0451
11967TIP3   OH235843   6.631   3.722   0.876  0.2899 -0.0452  0.1023
11967TIP3    H135844   6.634   3.719   0.780 -0.6653 -0.5134  0.0848
11967TIP3    H235845   6.569   3.653   0.900  1.3457 -0.6647  1.1015
11968TIP3   OH235846   5.201   2.193   1.021  0.0762  0.6035  0.5994
11968TIP3    H135847   5.229   2.238   1.101 -1.8312  1.1433  1.0159
11968TIP3    H235848   5.192   2.101   1.047  1.4510  0.4284  0.4531
11969TIP3   OH235849   4.232   3.524   1.097  0.0390 -0.0701 -0.3324
11969TIP3    H135850   4.228   3.502   1.004 -0.2694  1.2086 -0.6332
11969TIP3    H235851   4.317   3.489   1.127  0.3124 -0.1391 -1.1856
11970TIP3   OH235852   7.049   1.735   0.059  0.2223  0.1802  0.1095
11970TIP3    H135853   7.100   1.810   0.088  0.5857  0.2020 -0.5840
11970TIP3    H235854   7.030   1.752  -0.033 -1.3613  0.3531  0.4551
11971TIP3   OH235855   6.101   4.737   2.121 -0.1517 -0.1732  0.8255
11971TIP3    H135856   6.173   4.715   2.061  0.4426 -1.4787  1.9809
11971TIP3    H235857   6.133   4.812   2.170 -0.2691  0.3184  0.1592
11972TIP3   OH235858   1.363   7.981   6.641 -0.1938 -0.2486  0.3926
11972TIP3    H135859   1.328   7.895   6.616 -1.9328  0.8293 -0.9989
11972TIP3    H235860   1.386   8.022   6.557 -0.7970  1.2135  0.9269
11973TIP3   OH235861   0.122   6.706   4.941  0.1434  0.8942 -0.0609
11973TIP3    H135862   0.121   6.773   5.009  0.2966 -1.7141  2.6088
11973TIP3    H235863   0.030   6.694   4.917  0.1536  2.3173 -0.8570
11974TIP3   OH235864   5.817   2.214   1.138  0.3946  0.3315  0.2059
11974TIP3    H135865   5.836   2.164   1.058  0.6160 -0.7602  0.9278
11974TIP3    H235866   5.722   2.225   1.137  0.5204  1.3892 -0.8280
11975TIP3   OH235867   8.262   4.819   5.891  0.2855 -0.1199  0.2686
11975TIP3    H135868   8.266   4.911   5.918 -2.1673 -0.0089  0.4057
11975TIP3    H235869   8.258   4.823   5.795 -2.3232  0.0940  0.3426
11976TIP3   OH235870   3.763   1.325   1.034 -0.6822 -0.5995  0.6838
11976TIP3    H135871   3.770   1.238   0.994 -1.5122 -0.0030 -0.7833
11976TIP3    H235872   3.669   1.341   1.040 -0.5278  0.3533  0.5904
11977TIP3   OH235873   5.653   1.601   1.431  0.1440 -0.1357  0.0679
11977TIP3    H135874   5.603   1.520   1.421  0.1114 -0.1122  0.0409
11977TIP3    H235875   5.687   1.598   1.520  0.6334 -0.4566 -0.1290
11978TIP3   OH235876   8.314   6.265   5.139  0.3911 -0.4552  0.2301
11978TIP3    H135877   8.356   6.350   5.128 -1.5799  0.4089 -0.8146
11978TIP3    H235878   8.383   6.208   5.173  2.3367  0.9912 -1.2111
11979TIP3   OH235879   3.261   0.934   0.409 -0.1525 -0.0853 -0.0106
11979TIP3    H135880   3.234   0.941   0.500  0.7069  0.5587  0.1988
11979TIP3    H235881   3.201   0.870   0.371 -1.2137  0.4622  0.7276
11980TIP3   OH235882   4.879   2.469   2.403  0.9248 -0.2580 -0.3952
11980TIP3    H135883   4.877   2.504   2.314  2.8286  0.2987 -0.2299
11980TIP3    H235884   4.866   2.375   2.392  1.2838 -0.2055 -1.2671
11981TIP3   OH235885   4.293   0.545   0.613 -0.4293 -0.3685  0.7836
11981TIP3    H135886   4.223   0.511   0.558 -1.0539  2.1790 -0.0825
11981TIP3    H235887   4.371   0.545   0.557 -0.6008  0.2984  0.5398
11982TIP3   OH235888   7.655   2.490   0.224  0.0218 -0.1495  0.3918
11982TIP3    H135889   7.648   2.446   0.308  0.4610  0.3918  0.7182
11982TIP3    H235890   7.738   2.459   0.187 -0.8335 -1.4601 -0.4783
11983TIP3   OH235891   4.550   3.180   0.954 -0.3880 -0.0159 -0.2725
11983TIP3    H135892   4.520   3.098   0.992  1.6828 -0.5763  0.2091
11983TIP3    H235893   4.578   3.157   0.865  0.4799  0.0980 -0.0343
11984TIP3   OH235894   5.965   1.837   1.521 -0.5166  0.0325  0.2166
11984TIP3    H135895   5.907   1.912   1.521 -1.9406 -1.0472 -0.3750
11984TIP3    H235896   5.956   1.799   1.434  0.3773 -0.6748  0.4235
11985TIP3   OH235897   6.852   3.138   0.911  0.0362  0.1898  0.3852
11985TIP3    H135898   6.861   3.233   0.922 -1.6346  0.2273  1.6575
11985TIP3    H235899   6.857   3.124   0.816 -0.5266  1.6606  0.1166
11986TIP3   OH235900   6.023   2.567   2.253  0.2455  0.0083  0.2856
11986TIP3    H135901   6.062   2.616   2.326  1.0814  0.4696 -0.4457
11986TIP3    H235902   6.032   2.626   2.178  0.0613 -0.7477 -0.3402
11987TIP3   OH235903   7.482   2.995   0.161 -0.3488  0.1971 -0.1726
11987TIP3    H135904   7.526   2.916   0.193  0.0685  1.3036  2.1349
11987TIP3    H235905   7.389   2.979   0.176 -0.2905 -0.0099 -0.0321
11988TIP3   OH235906   5.510   3.329   1.636  0.0822 -0.1673  0.7094
11988TIP3    H135907   5.421   3.326   1.600  0.0933 -0.1231  0.6774
11988TIP3    H235908   5.565   3.351   1.561  0.0303  0.5994  0.8945
11989TIP3   OH235909   6.824   2.139   0.029  0.0130 -0.5748  0.1415
11989TIP3    H135910   6.883   2.064   0.022 -0.4932 -1.0822  1.2042
11989TIP3    H235911   6.738   2.104   0.006  0.0765  0.1331 -1.2713
11990TIP3   OH235912   6.805   3.805   1.639  0.3075 -0.1499  0.1384
11990TIP3    H135913   6.728   3.809   1.582  0.4950 -0.1493 -0.1132
11990TIP3    H235914   6.848   3.890   1.628  2.1526 -1.3293 -2.2329
11991TIP3   OH235915   0.748   4.913   5.503  0.5656  0.6066  0.0497
11991TIP3    H135916   0.699   4.848   5.453 -0.4404  0.5905  1.0429
11991TIP3    H235917   0.782   4.974   5.437  1.6011 -0.9581 -0.9043
11992TIP3   OH235918   5.204   1.606   2.058 -0.1586  0.4177  0.0497
11992TIP3    H135919   5.118   1.577   2.030 -1.9447  2.4156  3.1691
11992TIP3    H235920   5.205   1.700   2.038  0.9065  0.6097  0.9453
11993TIP3   OH235921   5.032   2.386   1.840 -0.2164 -0.5001  0.2071
11993TIP3    H135922   5.047   2.389   1.746  0.9026  1.9471  0.4113
11993TIP3    H235923   5.117   2.360   1.877  0.0605  0.9635  0.6466
11994TIP3   OH235924   7.885   1.445   0.611 -0.2168  0.1244  0.8601
11994TIP3    H135925   7.900   1.367   0.664 -1.6749 -0.1583  0.8746
11994TIP3    H235926   7.963   1.498   0.625 -0.1260 -0.3983  2.4896
11995TIP3   OH235927   7.851   1.150   1.038  0.1728 -0.3169 -0.1073
11995TIP3    H135928   7.873   1.229   1.088  2.0342 -0.9317  0.0768
11995TIP3    H235929   7.859   1.177   0.947 -1.4419  0.3129 -0.0798
11996TIP3   OH235930   7.432   5.486   6.520 -0.5105 -0.3389 -0.7789
11996TIP3    H135931   7.439   5.438   6.602 -0.0046 -0.7217 -1.0380
11996TIP3    H235932   7.520   5.520   6.504 -0.7844  0.3756 -0.7796
11997TIP3   OH235933   6.197   2.002   1.589 -0.4606  0.4667 -0.3920
11997TIP3    H135934   6.121   1.954   1.556 -0.1703  0.5966 -1.2522
11997TIP3    H235935   6.194   2.086   1.543 -1.4692  1.6428  1.7392
11998TIP3   OH235936   5.789   0.945   0.353  0.1818 -0.0638 -0.2346
11998TIP3    H135937   5.706   0.927   0.308 -0.1420  0.5939  0.1035
11998TIP3    H235938   5.834   0.860   0.354 -0.2848 -0.3245 -0.8251
11999TIP3   OH235939   5.401   2.115   0.843  0.4128 -0.8215  0.5617
11999TIP3    H135940   5.330   2.153   0.894 -1.0229 -1.5417 -0.8264
11999TIP3    H235941   5.389   2.021   0.851 -1.0095 -0.9894 -2.5447
12000TIP3   OH235942   1.082   6.063   6.430 -0.1181  0.4108  0.1995
12000TIP3    H135943   1.038   6.051   6.346  0.8411  0.8577 -0.3662
12000TIP3    H235944   1.099   5.975   6.461  0.1883  0.2470 -0.4263
12001TIP3   OH235945   7.599   1.023   1.043 -0.3118 -0.0737  0.4163
12001TIP3    H135946   7.684   1.066   1.053 -0.4349  0.6263 -1.4021
12001TIP3    H235947   7.590   0.970   1.123  0.8446  1.4974  1.6375
12002TIP3   OH235948   8.269   2.575   1.420  0.0277 -0.9954 -0.3431
12002TIP3    H135949   8.240   2.660   1.453  1.0161 -0.9850  0.5196
12002TIP3    H235950   8.256   2.516   1.494  2.4949 -0.9249  0.1850
12003TIP3   OH235951   5.175   0.947   0.590 -0.1313  0.2233 -0.7221
12003TIP3    H135952   5.096   0.937   0.537 -0.9193  1.9100  0.1122
12003TIP3    H235953   5.234   0.999   0.535  0.3291 -0.8404 -1.2522
12004TIP3   OH235954   0.974   6.282   5.628  0.4528 -0.2448 -0.2416
12004TIP3    H135955   0.935   6.368   5.647 -0.9807 -0.7898 -0.6426
12004TIP3    H235956   0.904   6.233   5.585  1.2094 -1.6746  0.1127
12005TIP3   OH235957   8.380   3.098   0.312 -0.1168 -0.3790  0.1526
12005TIP3    H135958   8.414   3.160   0.376 -1.4555 -0.6698  1.1821
12005TIP3    H235959   8.291   3.079   0.342 -0.7763 -0.5141 -1.8093
12006TIP3   OH235960   5.122   1.894   1.077 -0.0424 -0.3120  0.3069
12006TIP3    H135961   5.135   1.807   1.115  0.1412 -1.1937 -1.6885
12006TIP3    H235962   5.028   1.897   1.058 -0.2860  0.4593  1.5861
12007TIP3   OH235963   1.341   6.179   5.892  0.0133 -0.4796 -0.1246
12007TIP3    H135964   1.278   6.162   5.823  0.2909 -0.4376 -0.3889
12007TIP3    H235965   1.425   6.149   5.856 -0.3346 -3.5054  1.3884
12008TIP3   OH235966   6.761   3.702   0.377  0.0824  0.3744  0.0480
12008TIP3    H135967   6.814   3.777   0.406  1.5237 -0.3414 -0.6905
12008TIP3    H235968   6.825   3.638   0.345 -1.0168 -1.7893  2.0171
12009TIP3   OH235969   2.172   5.469   4.793  0.0044  0.3619 -0.0753
12009TIP3    H135970   2.227   5.405   4.838  1.4556  0.9318 -0.9989
12009TIP3    H235971   2.231   5.512   4.731 -1.7898  0.0261 -2.0859
12010TIP3   OH235972   4.042   7.760   0.430 -0.6319  0.0553 -0.1037
12010TIP3    H135973   4.023   7.671   0.400  0.5535 -0.2596  0.0560
12010TIP3    H235974   3.992   7.816   0.371  1.1341 -0.5863 -2.2719
12011TIP3   OH235975   5.874   1.630   0.379  0.1751  0.1355  0.0507
12011TIP3    H135976   5.846   1.576   0.305 -1.4097 -0.6142  1.1637
12011TIP3    H235977   5.902   1.712   0.339 -0.8928 -0.1687 -1.3816
12012TIP3   OH235978   4.366   1.575   2.219 -0.0876 -0.7832 -0.1068
12012TIP3    H135979   4.398   1.589   2.130 -1.6698 -2.0988 -0.9054
12012TIP3    H235980   4.293   1.636   2.229  0.2471 -0.4536  0.3938
12013TIP3   OH235981   5.464   2.294   1.588  0.3629  0.0947  0.9115
12013TIP3    H135982   5.501   2.249   1.512  2.1398  1.2521  1.0408
12013TIP3    H235983   5.387   2.340   1.555  0.1506 -0.7932  0.1857
12014TIP3   OH235984   2.925   5.676   6.879  0.2946  0.3697 -0.0682
12014TIP3    H135985   2.831   5.667   6.865 -0.0076  1.0906  1.3871
12014TIP3    H235986   2.956   5.586   6.889 -0.5545  0.2200  1.3139
12015TIP3   OH235987   7.241   2.091   0.984  0.0028 -0.2895 -0.1559
12015TIP3    H135988   7.175   2.160   0.997  1.0300  0.5255  0.8624
12015TIP3    H235989   7.246   2.081   0.889 -1.0163  0.2053 -0.2782
12016TIP3   OH235990   6.313   0.810   0.500 -0.3069 -0.1242 -0.0351
12016TIP3    H135991   6.391   0.821   0.554  0.9162  0.4381 -1.8722
12016TIP3    H235992   6.265   0.738   0.541  1.8834 -1.4181  0.3330
12017TIP3   OH235993   7.559   4.459   0.130 -0.2256 -0.1469 -0.0797
12017TIP3    H135994   7.592   4.394   0.191 -0.6072  0.0283  0.3144
12017TIP3    H235995   7.631   4.521   0.119 -0.1682 -0.1627  0.2156
12018TIP3   OH235996   8.167   2.285   0.607 -0.0446  0.5174  0.2119
12018TIP3    H135997   8.255   2.293   0.643  0.1463 -1.4285  0.2335
12018TIP3    H235998   8.180   2.281   0.513 -0.2812  2.2005  0.0896
12019TIP3   OH235999   1.820   5.795   6.446 -0.9558 -0.2621  0.0194
12019TIP3    H136000   1.824   5.725   6.511  0.1188 -1.3851 -1.2286
12019TIP3    H236001   1.910   5.825   6.435 -0.9295 -0.9036 -1.7923
12020TIP3   OH236002   0.470   3.689   6.595 -0.7274 -0.0025 -0.5869
12020TIP3    H136003   0.498   3.681   6.686  0.3624  0.3465 -0.8851
12020TIP3    H236004   0.391   3.744   6.599 -1.7487 -1.5092  0.3190
12021TIP3   OH236005   6.066   1.844   0.947  0.6359 -0.2901  0.0415
12021TIP3    H136006   6.055   1.761   0.900  0.7430  0.2802 -1.0119
12021TIP3    H236007   6.019   1.908   0.893  1.7891  0.5975  0.0756
12022TIP3   OH236008   5.021   4.562   0.935 -0.0646 -0.0049 -0.1588
12022TIP3    H136009   4.926   4.552   0.942  0.1678 -1.1453  1.8033
12022TIP3    H236010   5.051   4.484   0.888  0.2039 -1.2507  2.0203
12023TIP3   OH236011   8.423   1.216   1.726  0.4130 -0.8082 -0.0626
12023TIP3    H136012   8.430   1.301   1.768 -1.2794 -0.0653 -1.1945
12023TIP3    H236013   8.346   1.176   1.765  0.1310 -1.0309 -0.8222
12024TIP3   OH236014   5.522   5.212   2.412 -0.9722 -0.4433  0.1372
12024TIP3    H136015   5.467   5.143   2.377 -0.2854 -0.2730 -1.3203
12024TIP3    H236016   5.608   5.171   2.423 -0.3900  0.3595 -1.3843
12025TIP3   OH236017   6.922   5.485   0.143 -0.0740 -0.0940  0.2805
12025TIP3    H136018   6.955   5.398   0.117 -2.0018 -0.3688 -1.3958
12025TIP3    H236019   7.001   5.540   0.146  1.0012 -1.5741 -0.0451
12026TIP3   OH236020   0.457   4.988   6.816  0.0846  0.0707 -0.1425
12026TIP3    H136021   0.399   4.959   6.746  0.5499  0.3978 -0.6685
12026TIP3    H236022   0.416   4.955   6.896  0.1272 -1.2422 -0.6508
12027TIP3   OH236023   6.094   1.437   0.342 -0.0405 -0.3709 -0.1104
12027TIP3    H136024   6.077   1.529   0.363  0.0002  0.1671 -2.3554
12027TIP3    H236025   6.007   1.400   0.326 -0.0628 -0.7616  0.8533
12028TIP3   OH236026   4.781   2.648   1.638  0.0002 -0.4373 -0.4212
12028TIP3    H136027   4.765   2.742   1.633 -0.8326 -0.5534  0.0285
12028TIP3    H236028   4.860   2.634   1.585  1.3559  0.8163  1.1964
12029TIP3   OH236029   8.062   0.569   0.188 -0.0429  0.1675  0.3340
12029TIP3    H136030   8.132   0.508   0.164  0.5651  0.3187  1.6438
12029TIP3    H236031   7.981   0.525   0.161  0.5797  0.2542 -1.7481
12030TIP3   OH236032   7.116   2.790   0.515  0.0810  0.3306  0.5030
12030TIP3    H136033   7.124   2.705   0.558  2.3565  0.2669  0.0094
12030TIP3    H236034   7.201   2.832   0.528 -0.4074  1.7926 -0.8149
12031TIP3   OH236035   1.411   5.270   6.525  0.2322 -0.0013 -0.4224
12031TIP3    H136036   1.389   5.275   6.618 -1.2662  1.2776 -0.8281
12031TIP3    H236037   1.345   5.323   6.482  2.6630  1.9368 -1.9215
12032TIP3   OH236038   6.164   6.408   5.839 -0.4880 -0.5192 -0.0610
12032TIP3    H136039   6.221   6.352   5.786 -0.0504  0.4095 -0.5805
12032TIP3    H236040   6.134   6.476   5.778  1.5585  1.7032  1.3105
12033TIP3   OH236041   6.002   1.353   2.277  0.0185 -0.5893 -0.3837
12033TIP3    H136042   6.063   1.304   2.222  0.6012 -1.3133  0.8981
12033TIP3    H236043   6.015   1.444   2.252  0.8574 -0.8345 -0.8588
12034TIP3   OH236044   0.327   1.483   1.011 -0.1647 -0.0140 -0.2746
12034TIP3    H136045   0.291   1.395   0.996  0.6584 -0.5423  0.7853
12034TIP3    H236046   0.421   1.470   1.019 -0.2481  0.6589  2.0471
12035TIP3   OH236047   0.302   4.241   1.608  0.1749  0.2679  0.1061
12035TIP3    H136048   0.247   4.317   1.628 -0.8302 -0.5320  0.3639
12035TIP3    H236049   0.373   4.278   1.554 -1.0584  1.1678 -0.9526
12036TIP3   OH236050   2.318   6.426   6.413 -0.6555  0.1271  0.2723
12036TIP3    H136051   2.252   6.459   6.474  0.7338 -0.9534  2.4582
12036TIP3    H236052   2.294   6.334   6.399 -0.1936 -0.0022  0.3007
12037TIP3   OH236053   2.964   5.401   6.935 -0.1380 -0.1280 -0.2962
12037TIP3    H136054   2.975   5.316   6.979 -0.5085  0.2922  0.6222
12037TIP3    H236055   2.886   5.390   6.881 -0.7827 -0.0629  0.6036
12038TIP3   OH236056   6.819   2.392   0.180  0.0797 -0.0005 -0.1957
12038TIP3    H136057   6.891   2.402   0.243 -0.1598  0.0069  0.0783
12038TIP3    H236058   6.809   2.297   0.170  1.9254 -0.0056 -2.3027
12039TIP3   OH236059   4.014   7.129   5.120 -0.3443 -0.2911 -0.4463
12039TIP3    H136060   3.938   7.079   5.091 -0.0259 -0.4806 -0.9748
12039TIP3    H236061   4.043   7.086   5.200 -0.0896 -0.9486 -0.8835
12040TIP3   OH236062   0.683   6.243   6.689  0.8849  0.0368  0.0117
12040TIP3    H136063   0.666   6.200   6.773  0.6816 -1.5331 -0.8086
12040TIP3    H236064   0.627   6.320   6.689 -0.2626 -0.7769  0.6837
12041TIP3   OH236065   5.786   1.599   0.665  0.0976 -0.3234 -0.1466
12041TIP3    H136066   5.794   1.576   0.572  1.5761  1.9571 -0.6329
12041TIP3    H236067   5.769   1.694   0.665 -0.3302 -0.3648  1.9121
12042TIP3   OH236068   0.667   6.938   5.301 -0.1288  0.0864 -0.1361
12042TIP3    H136069   0.663   6.842   5.295 -2.1849  0.0756  0.9902
12042TIP3    H236070   0.593   6.968   5.248  1.2517  1.1102 -1.4990
12043TIP3   OH236071   3.469   5.848   4.539 -0.1843  0.1164  0.1824
12043TIP3    H136072   3.391   5.857   4.483  0.8980  2.0364 -1.0592
12043TIP3    H236073   3.499   5.937   4.552  0.8722 -0.5052  2.0328
12044TIP3   OH236074   0.508   7.180   6.319 -0.7076 -0.2227 -0.1756
12044TIP3    H136075   0.539   7.114   6.380 -1.3797 -0.2634  0.1283
12044TIP3    H236076   0.534   7.148   6.233  2.7002  1.1806  0.2744
12045TIP3   OH236077   4.872   5.576   4.636 -0.1357 -0.3346  0.1532
12045TIP3    H136078   4.778   5.595   4.637  0.0465  0.5932  0.0880
12045TIP3    H236079   4.883   5.510   4.567 -0.3724  1.5476 -1.7352
12046TIP3   OH236080   2.337   5.967   6.683  0.0886 -0.3147 -0.1566
12046TIP3    H136081   2.379   5.994   6.764  1.2019  0.4194 -0.9582
12046TIP3    H236082   2.401   5.908   6.642 -0.6686 -1.0693 -0.2789
12047TIP3   OH236083   4.083   0.123   6.816 -0.3372 -0.3842 -0.5527
12047TIP3    H136084   4.015   0.179   6.777 -0.0780  0.5971  0.3811
12047TIP3    H236085   4.112   0.067   6.744  0.2797  1.5371 -1.8393
12048TIP3   OH236086   4.382   6.940   6.779 -0.5937  0.0262 -0.0359
12048TIP3    H136087   4.323   6.942   6.704  1.3090 -0.1719 -1.5780
12048TIP3    H236088   4.436   7.019   6.770 -0.0394 -0.2338  0.8622
12049TIP3   OH236089   7.259   2.397   0.822  0.1597  0.1728  0.2489
12049TIP3    H136090   7.190   2.401   0.888  0.5882 -1.4474  0.8103
12049TIP3    H236091   7.262   2.305   0.796  2.1423  0.2274  0.2596
12050TIP3   OH236092   2.398   5.767   6.926  0.4032  0.3904 -0.2942
12050TIP3    H136093   2.331   5.751   6.860 -0.5876  0.4555  0.6588
12050TIP3    H236094   2.462   5.698   6.914  0.3839  0.5779 -1.5044
12051TIP3   OH236095   8.251   0.462   4.974 -0.0705  0.2256 -0.4682
12051TIP3    H136096   8.208   0.424   4.897  0.7850 -2.1690  0.1976
12051TIP3    H236097   8.327   0.509   4.938 -0.2331 -0.0262 -1.1593
12052TIP3   OH236098   7.413   1.616   0.687 -0.2806 -0.0691 -0.3621
12052TIP3    H136099   7.440   1.678   0.619  1.0793 -0.1738  0.0788
12052TIP3    H236100   7.343   1.663   0.734  1.2008  1.4474  0.4060
12053TIP3   OH236101   0.535   5.605   5.049 -0.0156  0.5502  0.0070
12053TIP3    H136102   0.612   5.662   5.049 -0.1348  0.7262 -1.3769
12053TIP3    H236103   0.571   5.516   5.040  0.1955  0.3351  2.6042
12054TIP3   OH236104   4.188   5.989   6.693 -0.2206 -0.1712 -0.5321
12054TIP3    H136105   4.152   5.988   6.782  0.2337  1.0737 -0.3288
12054TIP3    H236106   4.115   6.014   6.637 -0.3566 -0.3619 -0.4410
12055TIP3   OH236107   7.054   0.875   0.258 -0.5625  0.0599 -0.0536
12055TIP3    H136108   6.967   0.899   0.291 -1.4715  0.1488 -2.4203
12055TIP3    H236109   7.069   0.787   0.292 -1.2834  0.3036  0.9153
12056TIP3   OH236110   6.798   1.843   0.073 -0.3118 -0.1215 -0.5250
12056TIP3    H136111   6.786   1.765   0.019  2.8259 -0.9133 -0.2083
12056TIP3    H236112   6.807   1.809   0.162  0.6109  0.6221 -0.3232
12057TIP3   OH236113   0.926   6.568   6.354  0.1291  0.2528 -0.1246
12057TIP3    H136114   0.989   6.636   6.377  0.1126 -0.2680  1.5152
12057TIP3    H236115   0.949   6.494   6.410 -0.3175 -0.8341 -1.3658
12058TIP3   OH236116   0.234   5.917   4.547 -0.2456  0.3259  0.3020
12058TIP3    H136117   0.305   5.853   4.547 -1.0098 -0.5296  1.0045
12058TIP3    H236118   0.193   5.907   4.632  0.7061  2.9910  1.1174
12059TIP3   OH236119   0.350   6.831   6.230 -0.3689 -0.1129  0.0928
12059TIP3    H136120   0.302   6.912   6.248  1.8184  0.9910  1.0839
12059TIP3    H236121   0.350   6.824   6.134 -0.2446  1.2735 -0.0211
12060TIP3   OH236122   0.102   3.300   0.415 -0.0435 -0.0536  0.1001
12060TIP3    H136123   0.189   3.338   0.403 -0.5909  1.1043 -0.2565
12060TIP3    H236124   0.080   3.317   0.507 -1.1782  2.4594 -0.5789
12061TIP3   OH236125   5.939   3.266   0.212 -0.0156 -0.0704  0.2027
12061TIP3    H136126   5.843   3.267   0.206  0.0545  0.9206 -0.7749
12061TIP3    H236127   5.964   3.358   0.207  0.9885 -0.3090  0.6983
12062TIP3   OH236128   4.378   7.142   5.290  0.3406 -0.2307  0.2698
12062TIP3    H136129   4.292   7.123   5.327  0.3083 -0.8538 -0.1173
12062TIP3    H236130   4.438   7.089   5.341  0.4857  0.1185  0.4660
12063TIP3   OH236131   2.887   7.029   6.553 -0.1434  0.2792  0.0653
12063TIP3    H136132   2.895   6.937   6.577 -0.7149 -0.1490 -1.3138
12063TIP3    H236133   2.849   7.071   6.630  0.1047 -0.6413  0.6962
12064TIP3   OH236134   1.834   6.463   5.716 -0.1660 -0.2228  0.0944
12064TIP3    H136135   1.859   6.555   5.705 -1.8706  0.2277 -0.2873
12064TIP3    H236136   1.780   6.444   5.639 -0.8078 -1.1822  0.7630
12065TIP3   OH236137   8.339   2.263   0.821  0.0790  0.2203 -0.2893
12065TIP3    H136138   8.366   2.174   0.846 -0.1387 -0.3462 -2.0043
12065TIP3    H236139   8.421   2.313   0.821  0.5961 -0.5809 -1.7236
12066TIP3   OH236140   1.589   4.917   6.619  0.1592 -0.4671 -0.2894
12066TIP3    H136141   1.569   4.894   6.710 -0.1350  1.0384  0.0386
12066TIP3    H236142   1.517   4.974   6.593  1.2671  0.7105 -0.8183
12067TIP3   OH236143   0.750   1.928   1.728 -0.3763 -0.0690  0.2110
12067TIP3    H136144   0.726   1.848   1.681 -0.2281  0.9164 -1.5943
12067TIP3    H236145   0.740   1.998   1.664  0.8324  1.2017  1.3522
12068TIP3   OH236146   1.270   6.386   5.602 -0.0559  0.4758 -0.3102
12068TIP3    H136147   1.181   6.363   5.628 -0.2081  0.9120 -0.4277
12068TIP3    H236148   1.311   6.304   5.577 -0.6857  0.3820 -1.0380
12069TIP3   OH236149   6.876   5.575   6.476  0.6869 -0.1415  0.2430
12069TIP3    H136150   6.883   5.667   6.501 -0.8967 -0.1976  0.9754
12069TIP3    H236151   6.907   5.527   6.553  1.8392 -0.2126 -0.2673
12070TIP3   OH236152   0.365   6.244   6.668  0.2791  0.5113  0.4998
12070TIP3    H136153   0.415   6.201   6.599  0.5176 -1.8981  2.0970
12070TIP3    H236154   0.318   6.315   6.624  0.2503 -1.0962 -2.1700
12071TIP3   OH236155   1.608   6.952   4.564 -0.1740 -0.1499 -0.0409
12071TIP3    H136156   1.628   6.874   4.616  2.9686  0.0661 -0.8471
12071TIP3    H236157   1.677   7.014   4.586 -0.6814  1.1538 -1.9952
12072TIP3   OH236158   2.893   5.478   6.548  0.7803  0.2586 -0.5063
12072TIP3    H136159   2.813   5.444   6.588  1.6909 -1.5759 -0.1883
12072TIP3    H236160   2.873   5.570   6.527 -0.2584  0.8165  2.6949
12073TIP3   OH236161   3.633   6.439   4.862 -0.3633 -0.1058  0.2272
12073TIP3    H136162   3.547   6.411   4.833 -0.5891  0.8946 -0.0782
12073TIP3    H236163   3.633   6.534   4.851  1.1733 -0.2159 -0.8570
12074TIP3   OH236164   1.309   5.681   5.673  0.2503 -0.6111 -0.0253
12074TIP3    H136165   1.314   5.741   5.599  0.4557  0.1444  0.6016
12074TIP3    H236166   1.244   5.720   5.731 -0.6124 -1.6897 -0.2457
12075TIP3   OH236167   2.605   5.984   5.234  0.0947  0.1455 -0.2332
12075TIP3    H136168   2.687   5.987   5.184  0.2675  0.3441  0.0582
12075TIP3    H236169   2.573   6.074   5.233  0.4909  0.3003  0.6531
12076TIP3   OH236170   5.955   3.387   2.376  0.0045 -0.3292  0.2449
12076TIP3    H136171   5.901   3.465   2.367  1.1142  0.4545  0.3274
12076TIP3    H236172   6.036   3.417   2.416  0.1857 -1.6395  0.9046
12077TIP3   OH236173   1.920   4.618   6.027  0.4695  0.1869  0.6480
12077TIP3    H136174   1.916   4.700   6.075 -2.2213  0.3078  0.3122
12077TIP3    H236175   1.995   4.627   5.969  1.1324  1.7642  1.7485
12078TIP3   OH236176   2.554   5.697   6.541  0.2863  0.1206 -0.5401
12078TIP3    H136177   2.623   5.758   6.516 -0.1699  0.8728  0.0118
12078TIP3    H236178   2.584   5.660   6.624 -0.0661  0.6097 -0.1894
12079TIP3   OH236179   3.533   4.713   3.902 -0.7110  0.1668 -0.2134
12079TIP3    H136180   3.532   4.729   3.996  1.6029 -0.5115 -0.0334
12079TIP3    H236181   3.561   4.796   3.864  2.6242 -0.7724  0.0592
12080TIP3   OH236182   1.023   6.076   6.150 -0.2379  0.2007 -0.1406
12080TIP3    H136183   1.025   6.152   6.091 -0.1504  1.1127  1.0345
12080TIP3    H236184   0.952   6.021   6.116 -1.1852  1.4504 -0.1995
12081TIP3   OH236185   4.457   3.895   6.530  0.8371 -0.5020 -0.2793
12081TIP3    H136186   4.384   3.944   6.492  1.1638 -0.5076 -0.9297
12081TIP3    H236187   4.446   3.806   6.496  1.2420 -0.4608 -0.5291
12082TIP3   OH236188   6.253   2.418   0.622 -0.3197 -0.2859  0.0679
12082TIP3    H136189   6.302   2.336   0.612  0.1128 -0.0673  0.3879
12082TIP3    H236190   6.234   2.446   0.533 -0.2857 -0.6259 -0.0472
12083TIP3   OH236191   5.942   2.013   0.741 -0.1162 -0.3002  0.0173
12083TIP3    H136192   5.992   2.025   0.660 -1.2529  0.5288 -0.5911
12083TIP3    H236193   5.949   2.096   0.787 -1.1264 -0.0758 -0.2063
12084TIP3   OH236194   4.240   5.022   5.692  0.1508 -0.7386  0.6012
12084TIP3    H136195   4.217   5.079   5.767 -1.1517 -1.9280  1.1335
12084TIP3    H236196   4.231   4.933   5.726  1.0468 -1.2865 -0.5611
12085TIP3   OH236197   5.925   2.456   1.279 -0.5965 -0.3791  0.0280
12085TIP3    H136198   5.889   2.486   1.195  0.1415  1.2825  0.2751
12085TIP3    H236199   5.998   2.399   1.255  0.7612  1.5270 -0.4912
12086TIP3   OH236200   1.530   5.583   5.775  0.3709  0.6856 -0.3497
12086TIP3    H136201   1.451   5.636   5.772 -0.1340  0.0834  1.4850
12086TIP3    H236202   1.499   5.493   5.769  0.8561  0.4163  0.9850
12087TIP3   OH236203   2.425   6.288   5.955  0.3043 -0.3678 -0.2818
12087TIP3    H136204   2.439   6.211   5.901  2.3471 -0.5574  0.4664
12087TIP3    H236205   2.512   6.329   5.962 -0.0084 -0.0451  2.3667
12088TIP3   OH236206   1.467   6.737   6.653 -0.3586 -0.1628 -0.1221
12088TIP3    H136207   1.379   6.718   6.621 -0.1505 -0.8768 -0.2579
12088TIP3    H236208   1.525   6.716   6.580 -0.1062  0.6793 -0.1698
12089TIP3   OH236209   3.077   6.670   5.072 -0.1934 -0.4002 -0.2158
12089TIP3    H136210   3.104   6.741   5.129  0.3803 -2.0653  1.6505
12089TIP3    H236211   3.057   6.597   5.131 -2.2615 -1.3221 -1.9651
12090TIP3   OH236212   3.689   6.047   6.562  0.8367  0.3042  0.3850
12090TIP3    H136213   3.621   6.083   6.505  0.7565  0.1936  0.4073
12090TIP3    H236214   3.641   5.986   6.619  1.1848 -0.9430 -0.6252
12091TIP3   OH236215   1.460   7.362   6.804 -0.1501  0.0123  0.3259
12091TIP3    H136216   1.456   7.296   6.874  0.4031 -1.6610 -1.1771
12091TIP3    H236217   1.370   7.370   6.773 -0.2620  0.1477  0.6899
12092TIP3   OH236218   3.812   4.604   5.641  0.1005  0.0926  0.2499
12092TIP3    H136219   3.873   4.599   5.715 -1.3073 -1.2081  1.3473
12092TIP3    H236220   3.726   4.592   5.680 -0.6943 -0.2723 -1.5715
12093TIP3   OH236221   2.008   7.263   6.298 -0.1861 -0.3117 -0.5354
12093TIP3    H136222   2.024   7.260   6.392 -0.5995 -1.6760 -0.4985
12093TIP3    H236223   2.087   7.304   6.262  0.2404 -0.3411  0.3395
12094TIP3   OH236224   2.174   6.778   4.353  0.1353  0.3625 -0.2085
12094TIP3    H136225   2.113   6.831   4.404  0.5086 -0.0270  0.6639
12094TIP3    H236226   2.118   6.722   4.300 -0.2648  0.7759 -0.2234
12095TIP3   OH236227   2.206   0.670   0.144  0.1673  0.3347 -0.3930
12095TIP3    H136228   2.256   0.707   0.217 -0.3455 -1.6335  1.0039
12095TIP3    H236229   2.115   0.679   0.170  0.0377 -2.1298  0.1234
12096TIP3   OH236230   6.278   0.532   0.405 -0.3398  0.0553 -0.2050
12096TIP3    H136231   6.269   0.547   0.499 -1.3307  1.4023 -0.4892
12096TIP3    H236232   6.373   0.530   0.390 -0.1666 -1.6465  1.0265
12097TIP3   OH236233   0.387   4.255   0.847 -0.0019  0.7078 -0.2904
12097TIP3    H136234   0.412   4.325   0.786 -0.0046  1.9506  1.0968
12097TIP3    H236235   0.293   4.269   0.862 -0.2569 -0.3058 -0.8753
12098TIP3   OH236236   1.293   6.795   5.696  0.0686  0.3028 -0.0495
12098TIP3    H136237   1.301   6.701   5.707  2.2657  0.4613  0.0956
12098TIP3    H236238   1.384   6.827   5.699 -0.6644  2.4499  0.2754
12099TIP3   OH236239   8.282   2.783   0.676  0.7531 -0.3849  0.2144
12099TIP3    H136240   8.242   2.715   0.731 -1.2237  0.4887 -0.1021
12099TIP3    H236241   8.247   2.766   0.589 -0.1124  1.3008  0.2212
12100TIP3   OH236242   3.150   5.239   4.287  0.5132 -0.0656 -0.2984
12100TIP3    H136243   3.191   5.230   4.201 -1.9049  0.7218 -1.5768
12100TIP3    H236244   3.141   5.333   4.300 -0.5273 -0.2151  0.1155
12101TIP3   OH236245   3.110   7.971   6.404 -0.1037  0.0477 -0.1469
12101TIP3    H136246   3.140   7.914   6.475  1.7382  1.7240  0.4935
12101TIP3    H236247   3.158   7.939   6.327  0.4032  0.2828  0.0658
12102TIP3   OH236248   1.200   5.085   4.714 -0.2190  0.0794 -0.2815
12102TIP3    H136249   1.216   4.994   4.691 -0.1359 -0.8738  3.2756
12102TIP3    H236250   1.287   5.124   4.720 -0.2637  0.4915 -2.0377
12103TIP3   OH236251   4.886   1.089   1.075  0.5821  0.0266  0.3331
12103TIP3    H136252   4.927   1.008   1.046 -0.1250  0.1624 -1.1242
12103TIP3    H236253   4.937   1.158   1.032 -0.1603  0.2564 -0.1923
12104TIP3   OH236254   2.568   4.576   6.839 -0.2262  0.4902 -0.0390
12104TIP3    H136255   2.527   4.578   6.752  0.7529  2.8008 -0.5004
12104TIP3    H236256   2.530   4.652   6.884 -0.1888 -0.2741  1.2958
12105TIP3   OH236257   2.169   2.331   1.170 -0.4954 -0.3351  0.1680
12105TIP3    H136258   2.148   2.267   1.102 -0.0835  1.9008 -2.1619
12105TIP3    H236259   2.084   2.358   1.206 -0.6621 -2.1673  1.1650
12106TIP3   OH236260   2.275   5.795   6.093  0.6968  0.0232 -0.0783
12106TIP3    H136261   2.182   5.800   6.114  0.6253  1.9815 -0.7248
12106TIP3    H236262   2.319   5.806   6.177  0.3502 -1.2690  0.2824
12107TIP3   OH236263   0.571   5.941   5.289 -0.2452  0.3782 -0.2441
12107TIP3    H136264   0.485   5.938   5.246 -0.5358  2.4906  0.1584
12107TIP3    H236265   0.585   5.852   5.320 -3.5173  0.5714  2.0600
12108TIP3   OH236266   7.939   5.648   6.855  0.2204 -0.5439 -0.1377
12108TIP3    H136267   7.891   5.730   6.846  0.5076 -0.4784 -1.1799
12108TIP3    H236268   7.930   5.606   6.769  1.5588 -0.7824 -0.1692
12109TIP3   OH236269   4.707   4.774   6.547  0.1465 -0.3153  0.0200
12109TIP3    H136270   4.718   4.692   6.595 -2.2663 -1.1823 -0.8331
12109TIP3    H236271   4.627   4.761   6.496  1.2415  1.5599 -2.2221
12110TIP3   OH236272   7.464   0.779   0.298 -0.1854 -0.7584 -0.4749
12110TIP3    H136273   7.402   0.740   0.359 -0.9577  1.6000  0.3037
12110TIP3    H236274   7.421   0.775   0.213 -1.1793  0.3579 -0.0303
12111TIP3   OH236275   1.304   5.777   5.980  0.5963  0.2552 -0.2054
12111TIP3    H136276   1.298   5.868   6.010 -1.8074  0.2708 -0.5978
12111TIP3    H236277   1.369   5.737   6.037  1.1852  2.0413  0.4260
12112TIP3   OH236278   7.677   4.135   0.071  0.0809 -0.0188 -0.4351
12112TIP3    H136279   7.770   4.157   0.073  0.3014 -0.9420 -0.3324
12112TIP3    H236280   7.672   4.052   0.023 -0.3772 -1.3825  1.8692
12113TIP3   OH236281   1.719   4.676   4.650  0.3060  0.1327  0.2163
12113TIP3    H136282   1.797   4.676   4.705  0.8798  0.0569 -0.5822
12113TIP3    H236283   1.751   4.698   4.562 -0.6762  0.8301  0.0249
12114TIP3   OH236284   2.575   6.418   6.617 -0.1054 -0.2055  0.4558
12114TIP3    H136285   2.480   6.417   6.629 -0.0652 -1.9508  0.8425
12114TIP3    H236286   2.592   6.496   6.565 -2.1407 -1.6223 -2.4879
12115TIP3   OH236287   1.947   5.709   4.381  0.4865 -0.3973  0.4518
12115TIP3    H136288   1.930   5.721   4.475 -0.7286 -1.8384  0.4459
12115TIP3    H236289   1.997   5.628   4.376 -1.0737 -1.3408 -0.2621
12116TIP3   OH236290   3.269   6.202   6.677  0.0125  0.2651 -0.2871
12116TIP3    H136291   3.181   6.231   6.701  0.1730 -1.2932  2.4904
12116TIP3    H236292   3.315   6.194   6.761  1.5525 -2.8253 -1.3251
12117TIP3   OH236293   1.622   5.014   4.568 -0.0789  0.2936 -0.3880
12117TIP3    H136294   1.573   4.944   4.611 -0.5372  1.6027  1.2572
12117TIP3    H236295   1.711   5.006   4.602 -0.3270  1.0229  0.4435
12118TIP3   OH236296   4.148   6.323   4.869  0.2286  0.2370 -0.6740
12118TIP3    H136297   4.084   6.379   4.825 -0.2204  0.5797  0.3774
12118TIP3    H236298   4.104   6.297   4.951  0.6727 -1.1494 -0.8649
12119TIP3   OH236299   1.605   5.380   3.220  0.5174 -0.2661  0.3019
12119TIP3    H136300   1.587   5.436   3.295 -1.2578  0.6211 -0.7521
12119TIP3    H236301   1.584   5.292   3.250  2.7708 -0.3411  1.7877
12120TIP3   OH236302   3.783   6.408   5.098 -0.2615 -0.3517  0.2358
12120TIP3    H136303   3.718   6.435   5.032 -0.2932 -0.4223  0.2373
12120TIP3    H236304   3.837   6.343   5.052 -0.8620 -1.0858  0.5604
12121TIP3   OH236305   1.522   4.550   5.746  0.2704  0.1415  0.1985
12121TIP3    H136306   1.509   4.483   5.679  1.0603 -1.0982  1.2467
12121TIP3    H236307   1.460   4.619   5.724 -1.3335 -1.4240 -0.2936
12122TIP3   OH236308   2.548   5.146   5.095 -0.3215  0.3298 -0.4627
12122TIP3    H136309   2.497   5.174   5.019 -1.1991 -0.0639 -0.0332
12122TIP3    H236310   2.591   5.065   5.066  0.3671  0.8655 -0.9498
12123TIP3   OH236311   7.040   5.232   6.493  0.5338  0.0962 -0.1787
12123TIP3    H136312   7.100   5.200   6.426  0.1040  0.7395 -0.8932
12123TIP3    H236313   6.974   5.281   6.443 -0.0763  0.1464  0.6739
12124TIP3   OH236314   4.335   6.345   6.733 -0.8920  0.5612  0.3263
12124TIP3    H136315   4.361   6.263   6.776 -1.5688  0.6273  0.8788
12124TIP3    H236316   4.417   6.393   6.721 -0.6154  0.2526  0.9600
12125TIP3   OH236317   0.558   1.505   1.366 -0.2851 -0.1661 -0.2243
12125TIP3    H136318   0.647   1.487   1.396 -0.3366  2.1481  1.4791
12125TIP3    H236319   0.512   1.421   1.375  0.4342 -0.2175  3.6715
12126TIP3   OH236320   3.418   7.432   6.184  0.1425 -0.4947  0.1869
12126TIP3    H136321   3.484   7.363   6.191  0.3780 -0.3546 -0.5331
12126TIP3    H236322   3.417   7.454   6.090  0.1974  0.5984  0.4314
12127TIP3   OH236323   0.458   2.322   0.207  0.4219  0.0595  0.6847
12127TIP3    H136324   0.451   2.412   0.239 -1.8610 -0.8411  2.9007
12127TIP3    H236325   0.517   2.279   0.269  2.5997  0.3311 -1.1525
12128TIP3   OH236326   2.727   6.347   5.960  0.1161  0.1481  0.0796
12128TIP3    H136327   2.811   6.358   5.915 -0.2104 -1.1209 -0.8621
12128TIP3    H236328   2.745   6.373   6.051  1.2547  0.8981 -0.3445
12129TIP3   OH236329   1.869   6.107   6.315 -0.1320 -0.1980  0.6779
12129TIP3    H136330   1.843   6.122   6.406  1.5636  0.3940  1.0795
12129TIP3    H236331   1.791   6.128   6.263 -0.8449  0.2557  1.9288
12130TIP3   OH236332   2.756   6.449   6.205  0.0355  0.0007  0.4006
12130TIP3    H136333   2.818   6.399   6.258  0.5482  1.0379  0.8016
12130TIP3    H236334   2.716   6.510   6.268  0.1644  0.7897 -0.2778
12131TIP3   OH236335   3.018   6.102   4.934  0.5253 -0.2490  0.8717
12131TIP3    H136336   3.044   6.182   4.980 -1.3307  2.0000 -1.8101
12131TIP3    H236337   3.057   6.111   4.847 -2.6776 -0.4618 -0.6655
12132TIP3   OH236338   0.029   7.396   4.968  0.5844  0.0628  0.4372
12132TIP3    H136339   0.050   7.402   5.061  0.1695  0.4215  0.5114
12132TIP3    H236340  -0.012   7.480   4.947 -0.5781 -0.5400  0.2585
12133TIP3   OH236341   0.825   6.850   6.599 -0.2845  0.5163 -0.4567
12133TIP3    H136342   0.884   6.785   6.638  1.8384  0.2709 -3.8687
12133TIP3    H236343   0.856   6.934   6.632 -0.9948  0.0922  1.3865
12134TIP3   OH236344   0.107   6.674   5.513  0.0649  0.0884 -0.2168
12134TIP3    H136345   0.031   6.616   5.521  0.4846 -0.6084 -1.2329
12134TIP3    H236346   0.169   6.641   5.578  0.2493 -0.5212 -0.7022
12135TIP3   OH236347   5.718   1.070   1.745  0.3704  0.0521  0.3185
12135TIP3    H136348   5.755   1.156   1.761 -0.2464  0.3821  0.0020
12135TIP3    H236349   5.683   1.043   1.830 -2.4761  1.6006 -0.2872
12136TIP3   OH236350   1.954   6.723   4.632  0.2859 -0.1920 -0.3700
12136TIP3    H136351   1.950   6.735   4.727  1.8780 -2.3879  0.0123
12136TIP3    H236352   1.900   6.646   4.616 -1.7249  1.4213 -1.5413
12137TIP3   OH236353   5.870   3.559   1.160  0.1847  0.1169 -0.0625
12137TIP3    H136354   5.920   3.478   1.151  0.0231 -0.0811  0.7632
12137TIP3    H236355   5.903   3.599   1.241 -0.7922  0.1290  0.3329
12138TIP3   OH236356   4.006   0.091   4.856  0.1134 -0.2637 -0.2655
12138TIP3    H136357   4.085   0.145   4.859  0.3697 -0.5353 -1.6683
12138TIP3    H236358   4.028   0.012   4.906  0.3203  0.1680  0.3354
12139TIP3   OH236359   2.464   6.623   5.435 -0.4445 -0.4347  0.4423
12139TIP3    H136360   2.432   6.654   5.350 -1.0600  0.0116  0.8390
12139TIP3    H236361   2.519   6.694   5.467  0.3480 -0.8871  0.1105
12140TIP3   OH236362   4.962   4.367   1.770 -0.6929  0.3068  0.8610
12140TIP3    H136363   4.900   4.396   1.838 -0.0787  0.7998  1.2113
12140TIP3    H236364   5.029   4.435   1.769  0.7968 -1.1443  1.7186
12141TIP3   OH236365   1.899   3.951   5.806  0.0640  0.0403  0.5699
12141TIP3    H136366   1.866   3.867   5.838  0.7261 -0.4023  0.1203
12141TIP3    H236367   1.875   4.014   5.873 -0.9519 -0.4131  0.6410
12142TIP3   OH236368   1.931   6.282   5.896  0.6589  0.4559 -0.1178
12142TIP3    H136369   1.889   6.357   5.854  2.0569  1.5505  0.4157
12142TIP3    H236370   1.862   6.243   5.949 -0.9967 -0.6177 -2.9158
12143TIP3   OH236371   5.344   0.247   0.379 -0.6314  1.1577  0.0656
12143TIP3    H136372   5.329   0.172   0.321  2.1821  0.9807 -0.5233
12143TIP3    H236373   5.276   0.310   0.355 -0.0955  0.7116 -2.8502
12144TIP3   OH236374   3.691   7.860   6.664  0.0271 -0.0773  0.2745
12144TIP3    H136375   3.734   7.778   6.638 -1.3016 -0.7959  0.2924
12144TIP3    H236376   3.749   7.898   6.730 -0.7536 -2.4931  2.4620
12145TIP3   OH236377   5.221   5.838   6.183 -0.2818 -0.1093 -0.0004
12145TIP3    H136378   5.165   5.882   6.119 -0.5161  0.4368  0.5763
12145TIP3    H236379   5.171   5.760   6.209  0.1886 -0.7838 -1.1124
12146TIP3   OH236380   7.028   0.591   0.400 -0.0125  0.3737 -0.0324
12146TIP3    H136381   7.032   0.495   0.394  0.1226  0.3679  0.1420
12146TIP3    H236382   6.971   0.607   0.476  1.2323  0.4193  0.9112
12147TIP3   OH236383   2.630   6.837   4.357  0.4289 -0.6196 -0.0355
12147TIP3    H136384   2.707   6.871   4.310 -0.1593 -0.1817 -0.6985
12147TIP3    H236385   2.560   6.840   4.292 -0.0329 -1.4782  0.4251
12148TIP3   OH236386   3.560   5.649   5.852 -0.2983 -0.0207  0.3793
12148TIP3    H136387   3.649   5.670   5.824  0.0242 -1.3829  0.3028
12148TIP3    H236388   3.571   5.610   5.939 -0.8003 -0.2967  0.3239
12149TIP3   OH236389   1.414   4.819   5.724 -0.2335  0.2316  0.3007
12149TIP3    H136390   1.484   4.859   5.776 -1.9549  1.6855  1.5598
12149TIP3    H236391   1.393   4.884   5.657  0.7923 -0.9358 -1.2014
12150TIP3   OH236392   6.648   2.736   0.310  0.4224 -0.0410  0.1827
12150TIP3    H136393   6.626   2.821   0.349 -2.3088  0.9132 -3.2306
12150TIP3    H236394   6.573   2.680   0.332  0.1639 -0.2769 -1.2505
12151TIP3   OH236395   1.591   2.882   5.513 -0.3472 -0.0513 -0.1044
12151TIP3    H136396   1.668   2.834   5.483  0.0567  0.8779 -0.5483
12151TIP3    H236397   1.613   2.910   5.602 -0.5729 -0.6587  0.1451
12152TIP3   OH236398   2.815   4.712   5.261  0.1238  0.4052  0.0631
12152TIP3    H136399   2.761   4.638   5.233 -1.4877  1.4489  0.3212
12152TIP3    H236400   2.905   4.683   5.245 -0.4115 -1.9587  1.0004
12153TIP3   OH236401   1.358   1.464   0.991 -0.0079  0.2735 -0.2244
12153TIP3    H136402   1.396   1.422   0.913  0.6267  0.4509 -0.0081
12153TIP3    H236403   1.289   1.521   0.956 -0.4062 -0.4119 -0.5786
12154TIP3   OH236404   4.161   6.602   5.586  0.3883 -0.1065  0.1190
12154TIP3    H136405   4.131   6.557   5.665 -1.8665  0.3260 -0.4457
12154TIP3    H236406   4.198   6.684   5.617  0.1315 -0.2354  0.7756
12155TIP3   OH236407   0.872   5.057   4.934 -0.3531  0.0759 -0.2933
12155TIP3    H136408   0.789   5.051   4.887 -0.4978 -0.5700  0.0340
12155TIP3    H236409   0.861   5.000   5.010 -0.0397  0.9395  0.4121
12156TIP3   OH236410   3.255   6.437   6.534  0.0167  0.3794  0.7281
12156TIP3    H136411   3.294   6.387   6.606  0.1471 -0.4714  0.0801
12156TIP3    H236412   3.330   6.473   6.486 -0.0493  0.3181  0.5789
12157TIP3   OH236413   5.314   0.940   4.231  0.1671 -0.2464  0.0613
12157TIP3    H136414   5.397   0.966   4.193  0.4853  1.1660  1.6297
12157TIP3    H236415   5.252   1.009   4.203  0.1162  0.0905  0.9775
12158TIP3   OH236416   6.181   4.000   0.286  0.3510 -0.4329 -0.0886
12158TIP3    H136417   6.096   4.041   0.301 -0.8927 -3.0396  0.2026
12158TIP3    H236418   6.203   3.960   0.369  1.4071 -0.6175 -0.4530
12159TIP3   OH236419   3.627   6.445   5.664 -0.7073  0.5078 -0.4517
12159TIP3    H136420   3.593   6.488   5.742  1.9527  2.1007 -0.1179
12159TIP3    H236421   3.677   6.513   5.618 -0.0028 -1.1050 -2.1507
12160TIP3   OH236422   4.182   0.063   5.467  0.0037 -0.2879 -0.0506
12160TIP3    H136423   4.127   0.103   5.534 -2.4841 -2.4933 -0.7136
12160TIP3    H236424   4.173   0.121   5.391 -0.5689 -0.0953  0.1618
12161TIP3   OH236425   0.574   6.053   6.106  0.1388 -0.4919  0.5489
12161TIP3    H136426   0.528   6.052   6.190 -0.6153  1.4901  0.1894
12161TIP3    H236427   0.510   6.088   6.044  1.6112  0.8004 -0.2809
12162TIP3   OH236428   7.266   1.180   6.141  0.1831  0.3749 -0.0232
12162TIP3    H136429   7.252   1.137   6.225  0.9365 -0.1197 -0.1428
12162TIP3    H236430   7.187   1.233   6.127 -0.0032  0.3498  0.9223
12163TIP3   OH236431   4.803   1.678   0.543 -0.3975  0.3025  0.2196
12163TIP3    H136432   4.848   1.691   0.626  0.5899  1.6873 -0.4879
12163TIP3    H236433   4.806   1.765   0.501 -1.5103 -0.1984 -0.9355
12164TIP3   OH236434   2.143   6.722   6.924  0.0632 -0.1471 -0.4281
12164TIP3    H136435   2.160   6.655   6.858 -0.1508 -1.4722  0.8213
12164TIP3    H236436   2.080   6.781   6.883  0.4650 -0.5602 -1.6577
12165TIP3   OH236437   1.461   6.494   6.807 -0.6130 -0.4905 -0.3844
12165TIP3    H136438   1.486   6.575   6.763 -0.1806 -0.0030  0.7456
12165TIP3    H236439   1.366   6.490   6.797 -0.7384  0.6178  0.3306
12166TIP3   OH236440   4.530   6.605   4.802  0.4787 -0.4847  0.4112
12166TIP3    H136441   4.604   6.646   4.846  0.5950  2.2866 -2.1835
12166TIP3    H236442   4.453   6.638   4.849  0.7423 -1.1101  1.3058
12167TIP3   OH236443   1.022   5.501   4.772  0.0040 -0.1226  0.3145
12167TIP3    H136444   1.008   5.410   4.797 -0.5465  0.1134  0.8746
12167TIP3    H236445   1.116   5.514   4.782  0.0992 -0.6464  0.1515
12168TIP3   OH236446   2.659   6.375   5.440  0.0569  0.0909 -0.2033
12168TIP3    H136447   2.581   6.424   5.466 -0.8892 -1.2325 -0.5236
12168TIP3    H236448   2.731   6.438   5.450 -0.9416  1.0920  0.8154
12169TIP3   OH236449   1.825   6.860   6.277  0.1467 -0.0598  0.4721
12169TIP3    H136450   1.764   6.797   6.240 -1.8958  2.6748 -1.0444
12169TIP3    H236451   1.903   6.855   6.222 -0.5016 -0.3739 -0.4120
12170TIP3   OH236452   7.195   3.212   0.112  0.1374  0.1505 -0.2038
12170TIP3    H136453   7.215   3.281   0.176  1.0839  0.7992 -1.1670
12170TIP3    H236454   7.227   3.132   0.152  1.9591  0.7411 -0.4078
12171TIP3   OH236455   4.217   6.323   6.315  0.7481 -0.1989  0.1791
12171TIP3    H136456   4.122   6.333   6.319  0.5880 -0.7740 -1.5843
12171TIP3    H236457   4.251   6.399   6.361 -0.5754 -1.0610  2.6929
12172TIP3   OH236458   0.072   1.519   0.841 -0.1337 -0.2512 -0.1466
12172TIP3    H136459   0.000   1.458   0.821 -0.5357 -0.3584  1.4927
12172TIP3    H236460   0.135   1.466   0.889 -0.8867  0.7862  2.0682
12173TIP3   OH236461   2.370   6.645   4.503  0.0273  0.2690 -0.3239
12173TIP3    H136462   2.448   6.654   4.449  1.4740  1.4184  1.9177
12173TIP3    H236463   2.300   6.685   4.450  1.3933  1.3047 -1.3812
12174TIP3   OH236464   1.159   4.799   5.992  0.1668  0.4069 -0.0597
12174TIP3    H136465   1.171   4.772   5.900 -0.6536  0.4959 -0.1960
12174TIP3    H236466   1.240   4.772   6.035  2.0591  3.5110 -1.5196
12175TIP3   OH236467   0.149   3.553   1.572  0.7127 -0.0341  0.1582
12175TIP3    H136468   0.197   3.609   1.511  0.0659 -0.8563 -1.1355
12175TIP3    H236469   0.216   3.517   1.630  1.2928  1.0265  0.1567
12176TIP3   OH236470   2.148   1.677   0.860 -0.1044 -0.3350  0.0817
12176TIP3    H136471   2.110   1.657   0.775 -0.3602 -1.2464  0.4066
12176TIP3    H236472   2.243   1.670   0.846 -0.1638 -0.9618 -0.0118
12177TIP3   OH236473   6.885   6.133   5.424  0.1377 -0.0221 -0.1762
12177TIP3    H136474   6.948   6.111   5.355 -1.0240 -0.8584 -0.9930
12177TIP3    H236475   6.866   6.049   5.466 -1.6129 -0.0533 -0.9784
12178TIP3   OH236476   2.634   3.648   5.611  0.2418  0.0667 -0.0941
12178TIP3    H136477   2.681   3.731   5.615  0.1335  0.1128  0.1988
12178TIP3    H236478   2.577   3.648   5.687 -1.6961  0.8651 -1.5061
12179TIP3   OH236479   2.652   5.286   6.750  0.4376 -0.1750 -0.4892
12179TIP3    H136480   2.582   5.261   6.689 -1.0616 -1.5180  1.7326
12179TIP3    H236481   2.628   5.374   6.779 -0.1432 -0.4902 -0.0073
12180TIP3   OH236482   1.845   6.469   6.470  0.4410  0.0915  0.6393
12180TIP3    H136483   1.859   6.561   6.488  2.5390 -0.4074  1.6664
12180TIP3    H236484   1.898   6.451   6.393  1.4826 -0.6593  1.5184
12181TIP3   OH236485   7.804   0.456   0.158  0.0587 -0.1866 -0.0129
12181TIP3    H136486   7.778   0.387   0.098  0.7225  0.7321 -1.3730
12181TIP3    H236487   7.752   0.532   0.132  0.7956  0.3868  0.1670
12182TIP3   OH236488   2.557   7.437   6.746 -0.3491 -0.6898  0.1622
12182TIP3    H136489   2.577   7.409   6.657 -1.1903 -1.6458  0.2609
12182TIP3    H236490   2.497   7.370   6.779 -0.0780 -0.3231  1.4306
12183TIP3   OH236491   0.129   2.584   0.618 -0.1809 -0.3142  0.2446
12183TIP3    H136492   0.222   2.603   0.612 -0.1831 -0.4420 -0.2121
12183TIP3    H236493   0.089   2.636   0.548 -0.2517 -1.5402 -0.6411
12184TIP3   OH236494   0.215   2.963   0.132 -0.3654  0.1118 -0.1809
12184TIP3    H136495   0.174   3.049   0.133 -0.5539  0.0154  0.2635
12184TIP3    H236496   0.308   2.980   0.147 -0.5232  0.1663  0.7282
12185TIP3   OH236497   6.692   1.242   0.116  0.2138 -0.2963 -0.4915
12185TIP3    H136498   6.704   1.333   0.143 -0.5218 -0.8421  1.7343
12185TIP3    H236499   6.681   1.247   0.021  0.8142  1.8674 -0.4821
12186TIP3   OH236500   2.996   4.701   6.680 -0.4493 -0.1943 -0.1686
12186TIP3    H136501   2.999   4.790   6.715 -1.0907 -0.2235 -0.0216
12186TIP3    H236502   2.950   4.651   6.748 -0.5722 -0.5175 -0.4891
12187TIP3   OH236503   0.716   5.701   5.524 -0.4197 -0.4503 -0.2436
12187TIP3    H136504   0.670   5.677   5.444  1.1204  0.4157 -1.4373
12187TIP3    H236505   0.753   5.787   5.505  1.5171 -1.0350  0.7408
12188TIP3   OH236506   1.725   7.390   4.528  0.0101  0.3771  0.3973
12188TIP3    H136507   1.683   7.354   4.450 -0.8917  1.9210  0.1379
12188TIP3    H236508   1.664   7.459   4.558  0.9230  0.6153  1.7621
12189TIP3   OH236509   0.263   5.729   5.083 -0.9080 -0.2108  0.6559
12189TIP3    H136510   0.189   5.678   5.050 -0.3893  0.6695 -1.9922
12189TIP3    H236511   0.338   5.670   5.073 -0.8656 -0.2208  1.0252
12190TIP3   OH236512   4.145   1.498   0.344  0.3084  0.2917 -0.2009
12190TIP3    H136513   4.210   1.445   0.389 -1.1563 -0.4804  1.0452
12190TIP3    H236514   4.143   1.463   0.255 -1.0963 -2.2668  0.7593
12191TIP3   OH236515   2.223   5.983   5.162  0.1693  0.1370 -0.4070
12191TIP3    H136516   2.290   5.969   5.095  0.8723 -1.6552  0.6286
12191TIP3    H236517   2.262   6.048   5.221  1.1530 -1.1201  0.3614
12192TIP3   OH236518   4.691   6.218   6.659  0.0756  0.5813 -0.0801
12192TIP3    H136519   4.759   6.284   6.659 -0.8120  1.5230  0.7907
12192TIP3    H236520   4.717   6.156   6.591  2.0985  0.5964  0.6486
12193TIP3   OH236521   1.667   6.480   5.450  0.2896 -0.7446  0.3465
12193TIP3    H136522   1.758   6.455   5.436  0.3686  1.2363 -3.3876
12193TIP3    H236523   1.623   6.457   5.368 -1.9238  1.1970  0.9357
12194TIP3   OH236524   2.914   5.219   4.809  0.1235  0.7249 -0.2800
12194TIP3    H136525   2.966   5.220   4.728  1.0581 -0.1093  0.2938
12194TIP3    H236526   2.845   5.156   4.792  0.3568  0.5036 -0.4128
12195TIP3   OH236527   3.862   7.041   4.713 -0.6579 -0.3225 -0.1256
12195TIP3    H136528   3.821   6.994   4.786 -1.0497 -1.0454 -0.8057
12195TIP3    H236529   3.886   7.126   4.750  1.3976 -1.5616  1.5425
12196TIP3   OH236530   2.378   5.993   4.018  0.7950  0.9312  0.2254
12196TIP3    H136531   2.381   6.089   4.025  0.1978  1.1016 -1.4425
12196TIP3    H236532   2.303   5.977   3.961  0.0559 -0.6085  1.5974
12197TIP3   OH236533   2.499   5.696   5.580  0.5381 -0.4869 -0.2550
12197TIP3    H136534   2.488   5.732   5.493 -1.7255  1.0670  0.6452
12197TIP3    H236535   2.531   5.769   5.633  1.0074 -1.1717  0.4167
12198TIP3   OH236536   2.686   4.954   4.328  0.0315  0.1827 -0.0136
12198TIP3    H136537   2.688   4.872   4.279  0.8844 -0.6548  1.3970
12198TIP3    H236538   2.777   4.983   4.329  0.1437 -0.1605  1.6258
12199TIP3   OH236539   1.759   5.982   4.693  0.1491  0.2496  0.0607
12199TIP3    H136540   1.796   6.008   4.777  1.4182 -1.0199 -0.0644
12199TIP3    H236541   1.826   6.007   4.629 -0.5770  0.7297 -0.5214
12200TIP3   OH236542   3.327   5.856   3.859  0.2515  0.0101 -0.4292
12200TIP3    H136543   3.390   5.860   3.787  0.4621 -0.4463 -0.2706
12200TIP3    H236544   3.291   5.768   3.856 -0.9181  0.4940 -0.9660
12201TIP3   OH236545   7.030   0.657   1.722  0.4196 -0.3870 -0.4438
12201TIP3    H136546   7.073   0.642   1.806  0.7949 -1.4197 -0.8195
12201TIP3    H236547   7.089   0.621   1.657 -0.3339 -0.4927 -1.0833
12202TIP3   OH236548   0.186   0.978   1.061 -0.2132  0.0270  0.3689
12202TIP3    H136549   0.184   0.926   0.980  0.5533 -1.5993  1.3796
12202TIP3    H236550   0.112   0.946   1.112 -1.1064  1.5270  0.0473
12203TIP3   OH236551   5.059   4.413   5.986 -0.2247  0.2384 -0.3910
12203TIP3    H136552   5.025   4.334   5.944  0.4671  0.3719 -1.2285
12203TIP3    H236553   5.122   4.448   5.923  1.0568  0.3006  0.8769
12204TIP3   OH236554   3.471   7.529   6.465 -0.1842  1.1925 -0.1777
12204TIP3    H136555   3.433   7.498   6.383 -0.1051  1.9650 -0.5117
12204TIP3    H236556   3.566   7.520   6.453 -0.2327 -0.5641  0.5875
12205TIP3   OH236557   2.908   4.688   5.617 -0.1128  0.0567  0.3521
12205TIP3    H136558   2.982   4.744   5.594  0.3853 -0.2710  1.1278
12205TIP3    H236559   2.873   4.659   5.533 -1.2875  2.6992 -0.1059
12206TIP3   OH236560   1.033   2.427   1.200  0.2844  0.2392  0.3369
12206TIP3    H136561   0.977   2.448   1.275 -0.5066  1.6231 -0.6155
12206TIP3    H236562   1.022   2.502   1.141  2.0792 -0.1286 -0.4741
12207TIP3   OH236563   2.174   4.410   6.556  0.2382  0.1079  0.4669
12207TIP3    H136564   2.238   4.365   6.500 -2.3224 -0.8359 -1.7758
12207TIP3    H236565   2.182   4.502   6.531  0.6222 -0.0283  0.0744
12208TIP3   OH236566   2.692   4.847   6.431  0.4375 -0.0060 -0.0222
12208TIP3    H136567   2.723   4.849   6.340 -1.5653 -0.5713 -0.7445
12208TIP3    H236568   2.688   4.754   6.452  0.2471  0.1042  0.4170
12209TIP3   OH236569   2.759   5.714   5.203 -0.3720 -0.2790 -0.2306
12209TIP3    H136570   2.812   5.709   5.123 -0.4855 -0.0824 -0.3187
12209TIP3    H236571   2.807   5.775   5.259 -1.2225  0.9753 -0.8600
12210TIP3   OH236572   0.256   2.615   0.297  0.0756 -0.2697 -0.0183
12210TIP3    H136573   0.256   2.705   0.263 -0.0370 -0.3033 -0.1049
12210TIP3    H236574   0.347   2.587   0.290  0.3043  0.1918  0.9307
12211TIP3   OH236575   2.279   4.324   5.363  0.2906 -0.6570 -0.4701
12211TIP3    H136576   2.228   4.403   5.376  1.7831  0.1085  1.0374
12211TIP3    H236577   2.330   4.341   5.284  0.0504 -0.4179 -0.5749
12212TIP3   OH236578   2.022   5.464   5.974  0.0017 -0.3967 -0.0110
12212TIP3    H136579   1.947   5.472   5.914 -0.3284  0.1653  0.4718
12212TIP3    H236580   1.983   5.465   6.061  0.3664 -2.4430  0.2122
12213TIP3   OH236581   3.778   4.112   5.744  0.1868  0.4096  0.6284
12213TIP3    H136582   3.844   4.170   5.706 -0.2318  2.0976  2.4042
12213TIP3    H236583   3.724   4.170   5.798 -2.7334 -0.9430 -0.7647
12214TIP3   OH236584   3.046   6.269   6.091 -0.7939 -0.3673 -0.3926
12214TIP3    H136585   3.074   6.338   6.152  1.5603 -1.2461 -0.4286
12214TIP3    H236586   2.995   6.209   6.145  0.6122 -0.7249  0.5682
12215TIP3   OH236587   2.818   6.382   5.120 -0.2110  0.0643 -0.0472
12215TIP3    H136588   2.913   6.371   5.118  0.0199  2.0467 -1.1742
12215TIP3    H236589   2.804   6.462   5.171 -1.2843 -0.2862  0.2197
12216TIP3   OH236590   7.935   5.951   6.744 -0.2112 -0.3725  0.2178
12216TIP3    H136591   7.910   6.018   6.681  0.6159 -1.3677 -1.1906
12216TIP3    H236592   7.981   5.999   6.813 -3.6481  1.1190  1.5636
12217TIP3   OH236593   5.596   1.575   1.720  0.1230 -0.0762  0.4748
12217TIP3    H136594   5.649   1.646   1.757  2.7299 -1.0878 -1.1712
12217TIP3    H236595   5.566   1.526   1.796 -0.1806  1.7211  1.5402
12218TIP3   OH236596   3.069   7.489   6.002  0.1626  0.5779 -0.3385
12218TIP3    H136597   3.030   7.501   5.915  1.0204  0.4014 -0.7489
12218TIP3    H236598   3.055   7.397   6.022 -0.4190  0.7130 -0.0922
12219TIP3   OH236599   6.019   1.641   1.723  0.9592 -0.0406 -0.1429
12219TIP3    H136600   5.938   1.653   1.772 -0.0859  1.6949 -2.1950
12219TIP3    H236601   6.018   1.711   1.657  3.4237 -0.8732 -1.1343
12220TIP3   OH236602   2.566   3.909   6.644  0.1580 -0.0722  0.0722
12220TIP3    H136603   2.502   3.839   6.657  2.4427 -2.1735  0.3175
12220TIP3    H236604   2.610   3.919   6.728  1.4093  0.0609 -0.5728
12221TIP3   OH236605   2.779   7.152   6.776 -0.2625 -0.2367 -0.0945
12221TIP3    H136606   2.822   7.221   6.826 -0.0051 -0.1013 -0.4922
12221TIP3    H236607   2.686   7.162   6.794 -0.1254 -0.5729  0.8272
12222TIP3   OH236608   3.144   5.705   6.020  0.3933  0.4396 -0.3775
12222TIP3    H136609   3.229   5.748   6.020  0.8113 -0.3645 -0.7498
12222TIP3    H236610   3.127   5.686   5.928  0.4642 -0.6521 -0.1742
12223TIP3   OH236611   1.807   6.217   6.592 -0.4589 -0.0335  0.0688
12223TIP3    H136612   1.805   6.223   6.688  0.2473 -0.0751  0.0905
12223TIP3    H236613   1.842   6.302   6.564 -2.0152  0.5293 -0.2294
12224TIP3   OH236614   0.939   5.244   6.056  0.3597 -0.2416 -0.5686
12224TIP3    H136615   0.995   5.267   5.982 -0.9177 -1.3466 -1.9301
12224TIP3    H236616   0.992   5.185   6.109  1.4302  0.8765 -0.3932
12225TIP3   OH236617   1.044   0.657   0.163 -0.0270  0.2649  0.2351
12225TIP3    H136618   0.967   0.639   0.217  0.0228 -0.3832  0.0968
12225TIP3    H236619   1.053   0.580   0.107 -0.0650  0.9218 -0.6830
12226TIP3   OH236620   6.301   4.168   0.632  0.3747 -0.4874 -0.2344
12226TIP3    H136621   6.364   4.145   0.700 -0.3915  1.4679  1.1688
12226TIP3    H236622   6.350   4.225   0.572 -0.3078  1.9609  1.4645
12227TIP3   OH236623   7.937   4.161   6.016  0.2783  0.2836 -0.8873
12227TIP3    H136624   7.933   4.218   6.092  1.5439 -0.1564 -0.4665
12227TIP3    H236625   7.907   4.076   6.048 -1.8634  0.7462 -1.5776
12228TIP3   OH236626   0.531   6.659   6.333  0.4927  0.1268  0.2378
12228TIP3    H136627   0.466   6.718   6.295  1.1282 -0.1101 -1.2452
12228TIP3    H236628   0.611   6.677   6.285  0.9053 -1.3330  0.3617
12229TIP3   OH236629   0.822   5.164   5.376  0.0229 -0.0231 -0.2247
12229TIP3    H136630   0.801   5.228   5.308  0.9340  0.3568 -0.1553
12229TIP3    H236631   0.871   5.214   5.442 -0.1915 -0.5539  0.3454
12230TIP3   OH236632   8.290   3.248   0.110  0.2852 -0.1450  0.7386
12230TIP3    H136633   8.302   3.198   0.191 -0.6678 -1.3313  0.1646
12230TIP3    H236634   8.198   3.234   0.087  0.5488  0.1785 -0.5462
12231TIP3   OH236635   3.456   6.184   5.907  0.3358 -0.2552 -0.4905
12231TIP3    H136636   3.501   6.197   5.824 -0.2249 -0.5494 -0.8334
12231TIP3    H236637   3.364   6.177   5.885  0.2339 -0.8758  0.1015
12232TIP3   OH236638   2.937   4.788   4.522 -0.1178  0.5651 -0.0380
12232TIP3    H136639   2.987   4.856   4.568  1.4160 -1.4368  1.3054
12232TIP3    H236640   2.976   4.785   4.435  1.1468  0.0172  0.5413
12233TIP3   OH236641   1.567   5.457   4.730 -0.0700  0.2770 -0.4210
12233TIP3    H136642   1.630   5.529   4.724 -0.0085  0.3594  0.9826
12233TIP3    H236643   1.483   5.499   4.746 -0.0722  0.0583  0.1649
12234TIP3   OH236644   8.108   1.870   0.267 -0.5438 -0.2277 -0.2787
12234TIP3    H136645   8.200   1.843   0.266  0.5059  3.1728 -1.1422
12234TIP3    H236646   8.072   1.834   0.186  0.6041  0.2918 -1.0325
12235TIP3   OH236647   2.570   7.200   6.181 -0.1767 -0.4391  0.2874
12235TIP3    H136648   2.623   7.126   6.211  2.3440  0.1543 -2.4314
12235TIP3    H236649   2.622   7.277   6.204 -1.6026  0.3548  0.8725
12236TIP3   OH236650   7.235   3.544   0.728  0.0532 -0.2010 -0.2731
12236TIP3    H136651   7.165   3.498   0.681  0.4326 -0.5152 -0.5369
12236TIP3    H236652   7.316   3.502   0.698  0.1973 -1.6846  2.0890
12237TIP3   OH236653   1.028   3.674   6.491 -0.4185 -0.3862  0.1484
12237TIP3    H136654   0.950   3.666   6.546 -0.2621 -0.2153  0.3973
12237TIP3    H236655   1.016   3.609   6.422 -1.4584  0.6208 -0.6364
12238TIP3   OH236656   1.481   5.541   5.117  0.1874  0.2609 -0.1287
12238TIP3    H136657   1.526   5.614   5.076  3.0286 -0.7044  1.1005
12238TIP3    H236658   1.549   5.474   5.126 -1.1546 -0.7595  3.0566
12239TIP3   OH236659   6.946   1.136   1.632  0.1516 -0.5414 -0.6392
12239TIP3    H136660   6.914   1.089   1.555  0.1340 -1.6023  0.0062
12239TIP3    H236661   6.949   1.070   1.701  0.2860  0.3713  0.2428
12240TIP3   OH236662   0.927   6.977   5.163  0.2268 -0.2579 -0.5710
12240TIP3    H136663   0.864   7.030   5.213  0.9379  0.5462 -0.5253
12240TIP3    H236664   0.872   6.911   5.119 -0.5148 -0.3306  0.4377
12241TIP3   OH236665   7.545   0.833   1.251 -0.7883  0.1058 -0.0263
12241TIP3    H136666   7.449   0.832   1.252 -0.7863 -1.2697  1.1867
12241TIP3    H236667   7.570   0.744   1.276  0.8124  0.2079 -1.2018
12242TIP3   OH236668   1.269   5.651   4.989 -0.2602  0.3597  0.1451
12242TIP3    H136669   1.307   5.650   4.901  1.2102  0.6244  0.7583
12242TIP3    H236670   1.325   5.593   5.040 -0.6158  0.8429  1.0958
12243TIP3   OH236671   4.215   5.591   5.629 -0.1517  0.2495  0.0304
12243TIP3    H136672   4.277   5.523   5.655 -0.5733 -0.3595 -0.5312
12243TIP3    H236673   4.246   5.620   5.543 -0.0086  0.7355  0.2396
12244TIP3   OH236674   0.465   2.552   1.307  0.1572  0.1367  0.1873
12244TIP3    H136675   0.466   2.648   1.302 -1.1659  0.1618  0.1894
12244TIP3    H236676   0.482   2.523   1.217 -1.1810  0.3971 -0.1565
12245TIP3   OH236677   7.062   6.832   4.091  0.0397 -0.0985 -0.1920
12245TIP3    H136678   7.132   6.866   4.146 -0.6716  1.3003 -0.1260
12245TIP3    H236679   7.082   6.864   4.003  0.9218 -1.9396 -0.6744
12246TIP3   OH236680   5.737   7.359   4.408 -0.1823 -0.5047  0.1635
12246TIP3    H136681   5.645   7.345   4.430 -0.3268 -0.2501 -0.2875
12246TIP3    H236682   5.736   7.403   4.324  0.3607 -0.7025  0.0493
12247TIP3   OH236683   2.500   3.251   1.092 -0.9650 -0.5236  0.4750
12247TIP3    H136684   2.550   3.327   1.062 -3.0067 -0.2225 -2.3356
12247TIP3    H236685   2.462   3.279   1.176  1.7185 -0.0003  1.5797
12248TIP3   OH236686   4.484   7.033   6.340 -0.2614  0.3170 -0.2902
12248TIP3    H136687   4.401   7.045   6.387 -1.4902 -1.3110 -1.9581
12248TIP3    H236688   4.500   7.118   6.299  0.2303  1.4067  2.0741
12249TIP3   OH236689   4.708   5.439   4.286 -0.1241  0.0312 -0.1443
12249TIP3    H136690   4.720   5.421   4.193  1.6227 -0.1208  0.1006
12249TIP3    H236691   4.726   5.532   4.295  2.1247 -0.4364  0.4185
12250TIP3   OH236692   3.519   5.476   6.088  0.2076  0.1328  0.1829
12250TIP3    H136693   3.488   5.401   6.038 -0.0579 -0.0226  0.5749
12250TIP3    H236694   3.439   5.526   6.107  0.2012 -0.2441  1.1626
12251TIP3   OH236695   5.593   6.439   5.406 -0.0802  0.1391 -0.0852
12251TIP3    H136696   5.541   6.438   5.487 -0.3228 -3.5355 -0.1747
12251TIP3    H236697   5.530   6.417   5.337  0.7611 -0.1292 -0.7836
12252TIP3   OH236698   2.348   6.758   5.197 -0.8130  0.0525 -0.2233
12252TIP3    H136699   2.413   6.744   5.127  0.4176  1.0255  0.6959
12252TIP3    H236700   2.285   6.819   5.159 -0.8654 -0.4220 -0.9142
12253TIP3   OH236701   5.552   7.739   4.444  0.2848  0.1266 -0.1110
12253TIP3    H136702   5.488   7.688   4.394  0.2488  0.9002 -0.8673
12253TIP3    H236703   5.511   7.824   4.455  0.5403  0.1397  0.7539
12254TIP3   OH236704   4.920   6.332   5.695 -0.5581 -0.1780  0.6672
12254TIP3    H136705   4.888   6.419   5.720 -0.6610  0.5278 -1.8131
12254TIP3    H236706   4.952   6.294   5.777  0.7003  2.6990  1.5650
12255TIP3   OH236707   5.046   7.150   4.597  0.0904 -0.7536  0.6101
12255TIP3    H136708   5.106   7.093   4.548 -0.4560 -0.7933 -0.0092
12255TIP3    H236709   5.086   7.237   4.591  0.5452 -0.9359  0.9443
12256TIP3   OH236710   2.238   1.483   0.525  0.4066  0.1970  0.0662
12256TIP3    H136711   2.309   1.489   0.589  0.5356  0.7537 -0.1258
12256TIP3    H236712   2.282   1.465   0.442  0.1727 -1.4681  0.2829
12257TIP3   OH236713   4.396   3.985   5.519 -0.4940  0.1361  0.0243
12257TIP3    H136714   4.423   3.938   5.599  0.7507 -1.5554 -1.3589
12257TIP3    H236715   4.478   4.002   5.473 -1.4248 -1.8529 -2.5019
12258TIP3   OH236716   7.917   0.308   5.383  0.2027 -0.4260  0.1947
12258TIP3    H136717   7.955   0.371   5.444 -0.1587 -1.2790  1.3102
12258TIP3    H236718   7.991   0.272   5.335  0.3589  1.4021 -1.0308
12259TIP3   OH236719   2.702   4.231   0.187 -0.3275  0.3189 -0.0450
12259TIP3    H136720   2.740   4.284   0.117 -3.4150  4.3869  1.1507
12259TIP3    H236721   2.767   4.233   0.258  0.4196  0.8232 -0.7445
12260TIP3   OH236722   2.631   3.848   0.002 -0.5285  0.0419 -0.4896
12260TIP3    H136723   2.625   3.914   0.071 -1.7758 -1.1898  0.6230
12260TIP3    H236724   2.599   3.768   0.043  1.7568 -1.4672 -1.5643
12261TIP3   OH236725   3.779   4.796   6.458 -0.4667 -1.0045  1.2537
12261TIP3    H136726   3.744   4.707   6.464  1.4829 -2.0691 -1.6850
12261TIP3    H236727   3.874   4.785   6.462 -0.0610  0.5600 -1.8907
12262TIP3   OH236728   6.046   6.596   5.678 -0.5754 -0.1390 -0.7152
12262TIP3    H136729   6.037   6.646   5.597  1.3695  1.9417  0.3241
12262TIP3    H236730   6.033   6.659   5.748  1.3542 -1.1615  0.6185
12263TIP3   OH236731   6.163   5.638   6.589  0.4579 -0.5599 -0.1365
12263TIP3    H136732   6.245   5.599   6.557  0.0680 -2.9879  1.6675
12263TIP3    H236733   6.183   5.664   6.679 -0.4016 -0.0474 -0.0896
12264TIP3   OH236734   4.926   7.242   5.290 -0.0688  0.3066 -0.1821
12264TIP3    H136735   4.843   7.203   5.318 -1.2705  2.0788 -1.1900
12264TIP3    H236736   4.989   7.171   5.298 -1.3120 -0.5840  2.3557
12265TIP3   OH236737   3.812   6.009   4.032 -0.3687 -0.1816 -0.2512
12265TIP3    H136738   3.891   5.996   4.085 -0.6929  0.9766  0.5242
12265TIP3    H236739   3.769   5.923   4.032  0.3049 -0.5227  0.2616
12266TIP3   OH236740   5.068   5.277   4.688  0.1317  0.2137  0.1799
12266TIP3    H136741   5.134   5.215   4.720 -0.1837 -0.5573 -0.6298
12266TIP3    H236742   5.093   5.293   4.597  0.7702  2.0476  0.6532
12267TIP3   OH236743   5.884   6.957   5.564  0.6600 -0.5401 -0.6730
12267TIP3    H136744   5.890   6.869   5.527 -0.7427 -0.1212 -1.9367
12267TIP3    H236745   5.879   7.015   5.488 -3.4892  0.2587  0.1121
12268TIP3   OH236746   3.923   5.370   4.981 -0.3771  0.6291 -0.0495
12268TIP3    H136747   3.886   5.282   4.987  0.0553  0.4494  0.0223
12268TIP3    H236748   3.910   5.394   4.889  0.4360  0.0650 -0.3262
12269TIP3   OH236749   4.642   6.303   4.317  0.6513 -0.0761  0.2516
12269TIP3    H136750   4.727   6.341   4.293  0.2448  1.4618  1.1633
12269TIP3    H236751   4.636   6.317   4.411 -1.0871  0.8213  0.0248
12270TIP3   OH236752   1.026   2.250   2.736 -0.3415 -0.1014 -0.2974
12270TIP3    H136753   1.020   2.207   2.650 -0.8655 -0.1487 -0.2375
12270TIP3    H236754   1.049   2.340   2.716 -0.5553 -0.0890 -0.4952
12271TIP3   OH236755   5.132   7.581   5.092 -0.7930 -0.4097 -0.1881
12271TIP3    H136756   5.079   7.528   5.034  2.4451 -3.9841 -0.0677
12271TIP3    H236757   5.122   7.540   5.178  0.2371  0.3691  0.3163
12272TIP3   OH236758   5.069   6.474   4.781 -0.1484  0.6984 -0.6694
12272TIP3    H136759   5.064   6.424   4.700  0.3411  1.2739 -1.0629
12272TIP3    H236760   5.127   6.423   4.837 -0.4153  0.3446 -0.7137
12273TIP3   OH236761   0.234   1.667   5.770 -0.5947 -0.2159  0.1318
12273TIP3    H136762   0.145   1.640   5.794 -0.5471 -0.2384  0.2868
12273TIP3    H236763   0.266   1.598   5.713 -0.8907  0.0811 -0.3979
12274TIP3   OH236764   2.827   5.342   6.097  0.3192  0.1517 -0.0887
12274TIP3    H136765   2.775   5.291   6.158  1.7421 -0.7844  0.3477
12274TIP3    H236766   2.787   5.429   6.099 -0.5778 -0.2723  1.0205
12275TIP3   OH236767   4.319   6.512   4.990  0.0362 -0.3010  0.0679
12275TIP3    H136768   4.345   6.454   5.061 -0.1038 -1.4830 -0.8371
12275TIP3    H236769   4.267   6.457   4.932  1.2962  0.2923 -1.6605
12276TIP3   OH236770   4.413   7.478   5.737  0.0491  0.1209  0.3321
12276TIP3    H136771   4.453   7.563   5.720  1.6121 -0.5167  0.7425
12276TIP3    H236772   4.341   7.472   5.674  1.1063  0.9413 -0.9857
12277TIP3   OH236773   1.747   5.328   3.555 -0.6057 -0.0897 -0.1702
12277TIP3    H136774   1.737   5.247   3.506  2.1746 -0.4424 -0.2390
12277TIP3    H236775   1.711   5.309   3.641 -1.0678 -1.0068 -0.5602
12278TIP3   OH236776   0.898   0.678   4.325 -0.0659 -0.2847  0.0921
12278TIP3    H136777   0.881   0.643   4.412  0.8655 -1.1500 -0.0627
12278TIP3    H236778   0.993   0.679   4.318 -0.1126  1.1388 -0.3761
12279TIP3   OH236779   6.565   6.744   4.506  0.3645 -0.1828 -0.0511
12279TIP3    H136780   6.469   6.746   4.511  0.3084  0.3936 -1.1199
12279TIP3    H236781   6.585   6.663   4.461  0.3840 -0.3038  0.1727
12280TIP3   OH236782   7.838   1.372   2.876  0.0922  0.0336 -0.3137
12280TIP3    H136783   7.808   1.461   2.857 -0.5838 -0.1633 -0.1862
12280TIP3    H236784   7.855   1.372   2.970  0.5248  0.1568 -0.3934
12281TIP3   OH236785   2.600   1.881   1.210  0.0523 -0.4855 -0.1445
12281TIP3    H136786   2.631   1.791   1.202 -1.2546 -1.0238  0.8128
12281TIP3    H236787   2.606   1.900   1.303  0.9411  0.6544 -0.4217
12282TIP3   OH236788   5.960   6.324   4.290  0.5995  0.3392  0.0722
12282TIP3    H136789   6.004   6.269   4.355 -0.4820 -1.5391 -0.7619
12282TIP3    H236790   5.900   6.379   4.342  0.9930  0.0805  0.8109
12283TIP3   OH236791   2.940   4.134   2.535  0.5159  0.3411  0.1069
12283TIP3    H136792   3.011   4.142   2.598  1.1816  1.9775 -0.8057
12283TIP3    H236793   2.980   4.158   2.451 -0.9880  0.8071 -0.5031
12284TIP3   OH236794   1.431   1.946   0.403  0.0189 -0.2093  0.0283
12284TIP3    H136795   1.442   1.886   0.329 -1.2662  1.3206 -1.4323
12284TIP3    H236796   1.359   1.909   0.454 -0.1932 -0.3763 -0.3925
12285TIP3   OH236797   5.215   5.540   6.043  0.2150 -0.1548 -0.1870
12285TIP3    H136798   5.178   5.453   6.029  1.2232 -0.6570  0.2500
12285TIP3    H236799   5.157   5.581   6.107  0.8676 -1.2427  1.1206
12286TIP3   OH236800   2.102   7.032   4.841 -0.3615 -0.2572 -0.0739
12286TIP3    H136801   2.075   7.056   4.752  0.7934  0.0358 -0.3568
12286TIP3    H236802   2.131   7.115   4.880 -4.1499  0.2754  1.8003
12287TIP3   OH236803   0.095   1.190   5.671  0.3877 -0.1968 -0.2036
12287TIP3    H136804   0.087   1.138   5.591  0.6840 -0.2400 -0.2055
12287TIP3    H236805   0.139   1.131   5.733 -0.2968 -0.3384  0.1497
12288TIP3   OH236806   5.610   6.086   5.966 -0.3520  0.1421  0.4569
12288TIP3    H136807   5.671   6.018   5.995  0.0483  1.3124  2.4517
12288TIP3    H236808   5.523   6.050   5.986 -0.3432 -1.3188 -1.9441
12289TIP3   OH236809   3.264   4.407   2.994  0.0173 -0.2407  0.0383
12289TIP3    H136810   3.240   4.405   3.087  2.8901 -1.6508  0.8127
12289TIP3    H236811   3.360   4.406   2.995  0.0921 -3.4340 -3.0007
12290TIP3   OH236812   7.514   0.363   3.987  0.5275 -0.4899 -0.3081
12290TIP3    H136813   7.511   0.420   3.911  3.0010 -0.8352 -0.7279
12290TIP3    H236814   7.435   0.384   4.037  0.1545  1.5158 -1.6905
12291TIP3   OH236815   4.722   6.898   5.676  0.4572 -0.2289 -0.2007
12291TIP3    H136816   4.690   6.970   5.731  0.5878 -0.4793  0.2015
12291TIP3    H236817   4.804   6.931   5.640  1.7341 -1.0437  1.8415
12292TIP3   OH236818   4.524   6.030   5.065 -0.0151  0.3789 -0.2229
12292TIP3    H136819   4.578   6.025   4.986  0.2772  1.4559 -0.0971
12292TIP3    H236820   4.567   6.095   5.120 -1.8906  1.8814 -0.4714
12293TIP3   OH236821   1.158   4.017   1.716  0.5553 -0.6622 -0.3532
12293TIP3    H136822   1.217   3.959   1.766  1.5610  2.0466  1.7441
12293TIP3    H236823   1.088   4.039   1.777  0.6082  0.9598 -0.8577
12294TIP3   OH236824   3.849   7.004   5.978  0.2033 -0.6096 -0.1765
12294TIP3    H136825   3.919   7.029   6.038  0.5199 -0.8822 -0.4329
12294TIP3    H236826   3.819   7.087   5.940  1.1736 -0.5914 -0.9337
12295TIP3   OH236827   2.755   7.146   4.612 -0.6265 -0.0812  0.2275
12295TIP3    H136828   2.699   7.168   4.686  1.1193 -1.4798  2.0307
12295TIP3    H236829   2.697   7.101   4.551 -1.9401  0.4588  1.0541
12296TIP3   OH236830   4.025   0.133   6.047  0.3023  0.0837  0.3482
12296TIP3    H136831   3.958   0.184   6.002 -0.9096 -1.6013  0.2175
12296TIP3    H236832   4.004   0.141   6.140  0.1574 -0.0858  0.3320
12297TIP3   OH236833   4.664   7.388   3.072  0.4134  0.1054  0.1232
12297TIP3    H136834   4.672   7.395   3.167 -0.9776 -1.7786  0.4123
12297TIP3    H236835   4.637   7.476   3.044  3.3870  1.4167  1.1213
12298TIP3   OH236836   4.335   7.512   5.431  0.1892  0.3309  0.4241
12298TIP3    H136837   4.421   7.537   5.397 -0.1921  1.4111  0.2319
12298TIP3    H236838   4.280   7.589   5.417 -0.2792  0.3949  2.4046
12299TIP3   OH236839   4.979   7.221   5.693  0.0001  0.1677 -0.1863
12299TIP3    H136840   5.031   7.146   5.720 -0.3768 -0.9500 -2.4598
12299TIP3    H236841   5.037   7.273   5.638 -0.9089 -0.5179 -1.8365
12300TIP3   OH236842   3.140   4.692   4.795 -0.0372 -0.4524 -0.5399
12300TIP3    H136843   3.210   4.720   4.855 -0.0955 -0.5457 -0.4288
12300TIP3    H236844   3.136   4.761   4.729  1.4556 -1.3680 -1.6216
12301TIP3   OH236845   0.544   3.262   0.347  0.1664 -0.3334 -0.0494
12301TIP3    H136846   0.481   3.334   0.341  2.0576  1.2446 -1.8635
12301TIP3    H236847   0.536   3.230   0.437 -2.1847  0.7650  0.1688
12302TIP3   OH236848   2.655   2.792   1.533 -0.1398  0.3838  0.3997
12302TIP3    H136849   2.577   2.759   1.489 -1.0692  1.2489  1.3839
12302TIP3    H236850   2.623   2.832   1.614  1.5070 -0.8586  1.7088
12303TIP3   OH236851   0.814   2.240   0.149  0.4084 -0.1549 -0.2822
12303TIP3    H136852   0.881   2.172   0.154  1.6728  1.1535  1.1950
12303TIP3    H236853   0.758   2.225   0.225  0.1991 -0.0459 -0.4129
12304TIP3   OH236854   5.101   5.121   5.688 -0.5967 -0.1978  0.8766
12304TIP3    H136855   5.141   5.039   5.717 -1.8056 -0.8337  0.8023
12304TIP3    H236856   5.008   5.109   5.705 -0.9765  0.5494 -0.5544
12305TIP3   OH236857   4.451   5.578   3.929 -0.5532  0.4769 -0.2153
12305TIP3    H136858   4.382   5.536   3.981  0.1310  0.3811  0.6224
12305TIP3    H236859   4.465   5.662   3.971  1.2926 -0.3531  0.8783
12306TIP3   OH236860   5.384   5.935   5.988  0.8027  0.4974  0.4758
12306TIP3    H136861   5.346   5.917   6.074  0.6061 -0.1738  0.2554
12306TIP3    H236862   5.314   5.976   5.939  0.5224 -0.2437  0.2454
12307TIP3   OH236863   5.637   4.972   6.196 -0.0194  0.2683  0.3177
12307TIP3    H136864   5.552   5.009   6.218  0.3025  0.2997  1.5217
12307TIP3    H236865   5.672   4.940   6.279  0.4918 -1.1043 -0.3952
12308TIP3   OH236866   3.532   5.896   6.908 -0.5425 -0.0766  0.2147
12308TIP3    H136867   3.496   5.945   6.982 -0.1706  0.6422 -0.0708
12308TIP3    H236868   3.511   5.805   6.926 -0.1173  0.0582  1.3958
12309TIP3   OH236869   4.395   6.668   5.895 -0.2411 -0.0621  0.4070
12309TIP3    H136870   4.382   6.596   5.957  0.9595 -0.4170  0.2569
12309TIP3    H236871   4.430   6.740   5.948 -1.0341  0.2896  0.4767
12310TIP3   OH236872   4.877   5.978   5.783  0.1667  0.6272  0.1932
12310TIP3    H136873   4.843   5.958   5.696  0.7935  1.0576 -0.1565
12310TIP3    H236874   4.831   6.057   5.809  0.9924  1.2933 -0.3404
12311TIP3   OH236875   1.620   2.160   0.666 -0.1760 -0.9886  0.3796
12311TIP3    H136876   1.597   2.196   0.580  1.1585  2.0983  1.2848
12311TIP3    H236877   1.681   2.088   0.647 -0.4097 -0.7580 -1.2693
12312TIP3   OH236878   4.416   3.605   4.264 -0.1127 -0.1641 -0.2260
12312TIP3    H136879   4.412   3.623   4.170  0.5895  0.0205 -0.2246
12312TIP3    H236880   4.409   3.510   4.271  0.6763 -0.2456 -0.5189
12313TIP3   OH236881   1.419   5.281   5.748  0.2153  0.3354 -0.2394
12313TIP3    H136882   1.332   5.320   5.757  0.9469  2.7886 -3.1607
12313TIP3    H236883   1.410   5.219   5.676  1.3619  2.1615 -1.9880
12314TIP3   OH236884   4.445   6.217   3.675  0.2834 -0.1678  0.0018
12314TIP3    H136885   4.378   6.277   3.709  0.8642  0.5616 -0.1293
12314TIP3    H236886   4.525   6.244   3.719  0.8481  0.1442 -1.2002
12315TIP3   OH236887   4.963   7.442   4.339  0.1906 -0.5741 -0.0473
12315TIP3    H136888   5.003   7.479   4.260 -0.5434 -1.7227 -0.9765
12315TIP3    H236889   4.890   7.500   4.359 -0.5375 -1.1071 -1.0976
12316TIP3   OH236890   2.646   6.823   5.548 -0.2346  0.3370 -0.1292
12316TIP3    H136891   2.707   6.763   5.592 -0.3920  1.0305  1.0623
12316TIP3    H236892   2.698   6.863   5.478  1.1304  2.0001  1.7860
12317TIP3   OH236893   2.087   6.036   5.884 -0.0645 -0.0924  0.5523
12317TIP3    H136894   2.138   6.052   5.805  0.4226 -0.6376  0.7511
12317TIP3    H236895   2.021   6.105   5.885 -0.2590 -0.2553 -0.4836
12318TIP3   OH236896   4.616   5.721   5.643  0.0435  0.1043  0.3540
12318TIP3    H136897   4.592   5.649   5.701  0.8182 -0.5855 -0.1837
12318TIP3    H236898   4.706   5.703   5.617 -0.0573  0.7809 -0.5025
12319TIP3   OH236899   3.447   5.649   6.722  0.1664  0.1124  0.8486
12319TIP3    H136900   3.527   5.698   6.702 -1.6257  2.5238 -0.7312
12319TIP3    H236901   3.436   5.659   6.816  0.3588  1.9490  0.6916
12320TIP3   OH236902   5.769   6.728   4.923 -0.6587  0.6253 -0.4155
12320TIP3    H136903   5.787   6.818   4.894 -0.9439  0.7612 -0.1724
12320TIP3    H236904   5.687   6.735   4.972 -1.4569 -0.0075 -1.6145
12321TIP3   OH236905   5.677   0.845   5.646  0.0017  0.0586 -0.2472
12321TIP3    H136906   5.687   0.792   5.725 -0.6119 -0.2650 -0.3846
12321TIP3    H236907   5.715   0.792   5.576  0.9247  0.5209 -0.1070
12322TIP3   OH236908   5.419   5.526   6.274  0.3613 -0.0122 -0.6490
12322TIP3    H136909   5.455   5.581   6.203 -2.9563  1.6927 -1.0938
12322TIP3    H236910   5.407   5.440   6.234  0.6842  0.3296 -1.4999
12323TIP3   OH236911   6.613   5.689   6.192 -0.3427 -0.1719  0.3697
12323TIP3    H136912   6.614   5.784   6.201 -0.5518 -0.1644  0.3116
12323TIP3    H236913   6.593   5.656   6.279  0.2742 -0.1798  0.5081
12324TIP3   OH236914   5.165   4.893   3.628  0.3184  0.4217 -0.0426
12324TIP3    H136915   5.105   4.957   3.589  1.0358  0.5380 -0.9948
12324TIP3    H236916   5.200   4.936   3.706  1.4285  1.5541 -1.1262
12325TIP3   OH236917   2.784   2.561   1.069 -0.2487  0.1766 -0.1734
12325TIP3    H136918   2.728   2.498   1.115 -0.6197  0.2500 -0.5248
12325TIP3    H236919   2.822   2.510   0.997  0.5566 -0.0140  0.3809
12326TIP3   OH236920   3.023   5.494   5.650 -0.6449 -0.1021  0.3308
12326TIP3    H136921   2.931   5.468   5.656 -0.5369 -0.6505 -0.2821
12326TIP3    H236922   3.053   5.455   5.568 -0.3221  1.4955 -0.3312
12327TIP3   OH236923   3.249   3.399   0.657  0.1733 -0.2232 -0.1503
12327TIP3    H136924   3.201   3.341   0.716  0.4435 -1.6436 -1.2822
12327TIP3    H236925   3.228   3.367   0.569  0.8096  1.0222 -0.7793
12328TIP3   OH236926   4.757   5.596   6.017  0.2736 -0.4943 -0.4767
12328TIP3    H136927   4.706   5.530   5.969  0.4276 -0.7468 -0.2956
12328TIP3    H236928   4.695   5.667   6.034 -0.4133 -1.3986  0.9587
12329TIP3   OH236929   5.785   0.934   6.463  0.3353 -0.1921  0.2250
12329TIP3    H136930   5.823   0.891   6.540  0.7167  1.1441  0.8197
12329TIP3    H236931   5.824   0.890   6.388  1.0768 -0.5543  0.8162
12330TIP3   OH236932   3.626   7.883   4.676  0.2564 -0.0206 -0.0530
12330TIP3    H136933   3.534   7.892   4.651  0.2690 -0.0876 -0.1210
12330TIP3    H236934   3.637   7.945   4.749  0.2843  0.3676 -0.3812
12331TIP3   OH236935   4.456   5.821   4.400 -0.5922  0.9416  0.5659
12331TIP3    H136936   4.365   5.819   4.370 -0.2755  0.3417 -0.3621
12331TIP3    H236937   4.459   5.757   4.471 -0.4142 -0.6244 -0.8177
12332TIP3   OH236938   6.350   0.083   5.811 -0.3352 -0.1678  0.2460
12332TIP3    H136939   6.428   0.027   5.808  0.3633  0.8106  0.1043
12332TIP3    H236940   6.338   0.112   5.720 -1.1274 -0.6607  0.1826
12333TIP3   OH236941   4.782   1.159   1.624  0.0700  0.0243 -0.0845
12333TIP3    H136942   4.795   1.229   1.688 -0.4253 -1.9762  2.3016
12333TIP3    H236943   4.816   1.081   1.668 -2.0289 -1.7441 -1.5278
12334TIP3   OH236944   6.930   5.994   5.737  0.6970 -0.2830 -0.0504
12334TIP3    H136945   6.882   5.970   5.817  1.3576 -1.5192 -0.0214
12334TIP3    H236946   6.935   6.090   5.741  0.4312 -0.3103  1.2240
12335TIP3   OH236947   5.800   6.983   4.774  0.2618 -0.2498 -0.4711
12335TIP3    H136948   5.834   6.931   4.701  1.1907  2.0445 -1.7189
12335TIP3    H236949   5.726   7.031   4.737 -0.4673 -0.5270  0.6078
12336TIP3   OH236950   1.551   4.898   4.814  0.0955  0.1444 -0.6290
12336TIP3    H136951   1.642   4.870   4.826  0.4215 -0.2365 -3.5917
12336TIP3    H236952   1.507   4.821   4.778 -0.9100  0.9721 -1.1809
12337TIP3   OH236953   3.196   4.563   1.323 -0.1864  0.2680  0.1516
12337TIP3    H136954   3.191   4.599   1.234  2.1426 -1.2740 -0.6468
12337TIP3    H236955   3.120   4.505   1.329  0.3323 -0.5876 -1.3063
12338TIP3   OH236956   3.979   7.088   2.768 -0.2213  0.1709  0.3149
12338TIP3    H136957   3.947   7.164   2.816 -3.1208  0.0709 -1.3668
12338TIP3    H236958   3.992   7.021   2.835 -0.5323  1.2129  1.4253
12339TIP3   OH236959   5.247   5.251   5.259  0.0416 -0.3128  0.2143
12339TIP3    H136960   5.292   5.262   5.344 -0.0971 -2.7006  0.6174
12339TIP3    H236961   5.179   5.319   5.260  2.4045  2.1774  0.3814
12340TIP3   OH236962   2.747   7.010   6.312 -0.2908  0.4377  0.7065
12340TIP3    H136963   2.793   6.946   6.258 -0.2758  0.9678  0.0790
12340TIP3    H236964   2.801   7.020   6.390  0.0206  0.1424  0.5255
12341TIP3   OH236965   4.683   5.582   5.049 -0.1705 -0.0150 -0.3329
12341TIP3    H136966   4.624   5.622   4.985  2.6100  1.4254 -2.1112
12341TIP3    H236967   4.626   5.528   5.104 -2.9837  0.6169 -2.5046
12342TIP3   OH236968   1.773   7.094   6.142  0.2315 -0.2843  0.0802
12342TIP3    H136969   1.748   7.011   6.183  1.6090 -1.2613 -1.0042
12342TIP3    H236970   1.855   7.118   6.186  0.9183 -0.5696 -1.0288
12343TIP3   OH236971   4.910   5.886   4.246 -0.1734 -0.0484  0.8039
12343TIP3    H136972   4.820   5.883   4.279 -0.4328  1.4685  0.3047
12343TIP3    H236973   4.919   5.975   4.210  1.1661 -0.5520 -0.1543
12344TIP3   OH236974   4.057   7.699   5.951  0.1259 -0.1228  0.3999
12344TIP3    H136975   3.976   7.750   5.959  0.9177  0.8892  2.4467
12344TIP3    H236976   4.114   7.755   5.899 -0.3972 -0.7260 -0.8306
12345TIP3   OH236977   6.665   4.791   5.161 -0.3971  0.3475  0.2376
12345TIP3    H136978   6.694   4.826   5.245  1.1693  3.8212 -1.6157
12345TIP3    H236979   6.733   4.729   5.135 -0.1096  0.4009  0.8740
12346TIP3   OH236980   0.279   0.154   5.207  0.3910  0.2062 -0.2516
12346TIP3    H136981   0.351   0.092   5.200  0.4230  0.1512  0.5328
12346TIP3    H236982   0.248   0.165   5.117  1.8256  0.7753 -0.6830
12347TIP3   OH236983   6.262   0.893   3.437  0.0183 -0.3031 -0.6790
12347TIP3    H136984   6.348   0.910   3.475 -1.0606  0.6217  1.4031
12347TIP3    H236985   6.200   0.912   3.507 -1.8957 -1.0536 -2.1175
12348TIP3   OH236986   5.431   8.029   6.706 -0.2167 -0.3380 -0.6233
12348TIP3    H136987   5.455   7.982   6.786  1.5269  1.7352  0.1220
12348TIP3    H236988   5.475   7.981   6.636 -2.7340 -2.8983 -0.5720
12349TIP3   OH236989   6.642   2.246   5.611 -0.0462 -0.0370 -0.2158
12349TIP3    H136990   6.596   2.318   5.569 -2.7939 -1.2280  0.6401
12349TIP3    H236991   6.576   2.178   5.621  1.4688 -1.1490  2.7164
12350TIP3   OH236992   6.353   0.202   5.542  0.1774  0.8104  0.3354
12350TIP3    H136993   6.264   0.233   5.558 -0.4286 -0.2080 -1.0065
12350TIP3    H236994   6.361   0.200   5.447  1.5581  0.6669  0.4442
12351TIP3   OH236995   1.641   7.349   4.024 -0.1403  0.3899 -0.1408
12351TIP3    H136996   1.736   7.358   4.019 -0.1159  0.2229  0.0538
12351TIP3    H236997   1.609   7.388   3.942 -0.0604  2.7708  0.9286
12352TIP3   OH236998   5.335   6.148   5.068  0.0829  0.1103 -0.2689
12352TIP3    H136999   5.405   6.087   5.089  0.4408  0.1702 -1.2486
12352TIP3    H237000   5.260   6.092   5.045 -0.3190  0.0452  1.1371
12353TIP3   OH237001   3.023   4.865   5.946  0.1936 -0.7675 -0.4425
12353TIP3    H137002   2.987   4.952   5.927  0.8955 -0.2119  0.6373
12353TIP3    H237003   3.083   4.848   5.874  0.2513 -0.2332 -0.5287
12354TIP3   OH237004   8.156   0.405   4.715 -0.2505 -0.2587  0.6994
12354TIP3    H137005   8.226   0.413   4.649 -1.4329  2.0701 -0.3536
12354TIP3    H237006   8.098   0.337   4.680  0.0168 -0.2148  0.1548
12355TIP3   OH237007   5.092   3.895   6.885  0.5102  0.1988  0.4257
12355TIP3    H137008   5.155   3.860   6.947 -0.9325 -0.1647  1.7126
12355TIP3    H237009   5.007   3.867   6.918 -0.3254  0.5451 -1.3658
12356TIP3   OH237010   5.217   6.660   5.069  0.1354  0.0862 -0.0060
12356TIP3    H137011   5.191   6.574   5.035  1.6107 -0.7218  0.8443
12356TIP3    H237012   5.234   6.645   5.162 -0.6884  1.5637  0.3942
12357TIP3   OH237013   3.607   3.853   5.738 -0.5706 -0.1079 -0.7842
12357TIP3    H137014   3.644   3.941   5.746 -0.5819 -0.2031  0.4579
12357TIP3    H237015   3.657   3.812   5.667  0.6509  0.2983 -0.1705
12358TIP3   OH237016   4.949   6.206   5.972  0.7678 -0.2899  0.5789
12358TIP3    H137017   4.873   6.263   5.985  0.1935 -0.6210 -1.2827
12358TIP3    H237018   5.004   6.223   6.049 -0.6250  0.8167  1.3651
12359TIP3   OH237019   3.287   6.515   6.883 -0.1090  0.0356 -0.6296
12359TIP3    H137020   3.378   6.535   6.906  0.0319 -0.3069 -0.8844
12359TIP3    H237021   3.252   6.469   6.959  0.4540 -1.3925 -1.2125
12360TIP3   OH237022   5.037   6.507   6.478 -0.8685 -0.2293  0.1252
12360TIP3    H137023   5.111   6.448   6.466  1.1330  2.0209  0.9124
12360TIP3    H237024   5.020   6.543   6.391  0.5945  1.0907  0.3694
12361TIP3   OH237025   1.441   1.025   0.290  0.1833  0.1365 -0.0262
12361TIP3    H137026   1.430   1.062   0.203 -2.0769 -0.4404 -0.0089
12361TIP3    H237027   1.493   0.946   0.276  0.1959  0.2763 -0.7911
12362TIP3   OH237028   3.457   2.900   0.549 -0.1333 -0.3964 -0.0007
12362TIP3    H137029   3.407   2.889   0.468 -1.4253  0.0070  0.7434
12362TIP3    H237030   3.545   2.924   0.519 -0.1707 -1.8030 -1.3322
12363TIP3   OH237031   3.854   5.932   5.451  0.0015  0.8842 -0.2499
12363TIP3    H137032   3.905   6.009   5.474 -1.0707  1.4639  0.1895
12363TIP3    H237033   3.909   5.885   5.388  0.3514  2.3655 -1.0780
12364TIP3   OH237034   7.773   0.206   5.999 -0.0956 -0.5507 -0.0408
12364TIP3    H137035   7.694   0.247   6.036  1.0616  0.4258  1.4320
12364TIP3    H237036   7.817   0.277   5.952  1.0546 -0.4945  1.0869
12365TIP3   OH237037   2.766   6.087   5.890  0.3613 -0.0146 -0.2973
12365TIP3    H137038   2.671   6.074   5.893  0.2060  0.9975 -0.5011
12365TIP3    H237039   2.789   6.115   5.978  0.2245  1.2447 -0.6439
12366TIP3   OH237040   6.685   5.665   5.772  0.4220 -0.0020 -0.1517
12366TIP3    H137041   6.743   5.638   5.702 -0.2697  0.9591 -1.1263
12366TIP3    H237042   6.606   5.696   5.727 -0.5875 -0.6964  1.1150
12367TIP3   OH237043   1.469   1.663   0.391  0.3643  0.0511  0.4242
12367TIP3    H137044   1.555   1.694   0.364  0.0121  1.6103  1.0614
12367TIP3    H237045   1.430   1.627   0.311  1.1994  0.2887 -0.0909
12368TIP3   OH237046   5.667   7.234   6.488 -0.5574  0.1539  0.4632
12368TIP3    H137047   5.747   7.201   6.447 -1.9255 -1.1714 -1.2090
12368TIP3    H237048   5.660   7.183   6.569  0.3498  0.3605  0.6753
12369TIP3   OH237049   7.128   2.544   1.020 -0.3797  0.1952 -0.1428
12369TIP3    H137050   7.188   2.615   0.995  1.6205 -1.3637  0.1147
12369TIP3    H237051   7.054   2.589   1.061 -0.1457  2.2735 -1.8745
12370TIP3   OH237052   4.353   7.618   4.659 -0.2173  0.1055 -0.1721
12370TIP3    H137053   4.436   7.606   4.706  0.9670  0.0714 -2.2060
12370TIP3    H237054   4.369   7.579   4.572 -3.0169 -1.6765  0.0525
12371TIP3   OH237055   3.122   6.146   4.411 -0.8066  0.2105  0.1658
12371TIP3    H137056   3.195   6.208   4.413 -0.1311 -0.5872  1.1305
12371TIP3    H237057   3.126   6.106   4.325 -0.4687  0.6076 -0.0029
12372TIP3   OH237058   5.729   6.252   3.070  0.1076 -0.0410 -0.1929
12372TIP3    H137059   5.633   6.255   3.070  0.1259  0.5841  0.3295
12372TIP3    H237060   5.753   6.260   3.162  0.6985  0.9676 -0.4334
12373TIP3   OH237061   8.283   2.554   0.438  0.0249  0.1525 -0.4412
12373TIP3    H137062   8.208   2.494   0.431 -2.0803  2.7082 -0.4205
12373TIP3    H237063   8.353   2.510   0.390 -2.2384 -1.1318 -2.6719
12374TIP3   OH237064   4.734   4.404   5.499  0.9657  0.0370  0.1027
12374TIP3    H137065   4.743   4.394   5.404  0.1252 -1.7427  0.1791
12374TIP3    H237066   4.733   4.498   5.513 -1.8593  0.3917 -1.9654
12375TIP3   OH237067   1.456   4.562   0.383  0.2383  0.0679  0.7752
12375TIP3    H137068   1.546   4.562   0.352 -0.5285  0.1858 -1.5314
12375TIP3    H237069   1.448   4.645   0.431  0.4493  1.6384 -1.8254
12376TIP3   OH237070   0.432   0.504   6.605  0.2971  0.1497 -0.1064
12376TIP3    H137071   0.509   0.502   6.661  0.5005  2.4190 -0.2843
12376TIP3    H237072   0.365   0.549   6.656 -0.3653 -0.1853 -0.6574
12377TIP3   OH237073   1.977   6.707   5.697  0.0627 -0.1915 -0.5787
12377TIP3    H137074   2.026   6.654   5.634 -1.0403 -1.0755 -0.6948
12377TIP3    H237075   2.034   6.712   5.773  0.7211 -0.4553 -1.0495
12378TIP3   OH237076   5.485   7.124   6.240  0.1866  0.0714  0.2622
12378TIP3    H137077   5.513   7.191   6.302 -0.6507 -1.2640  2.1319
12378TIP3    H237078   5.392   7.140   6.227  0.3389  0.2905 -0.6047
12379TIP3   OH237079   3.707   5.323   4.471  0.4336 -0.1791  0.1251
12379TIP3    H137080   3.638   5.389   4.459 -0.4735 -1.1096  0.2131
12379TIP3    H237081   3.695   5.262   4.398  0.1600 -1.2304  1.0480
12380TIP3   OH237082   4.752   7.270   6.865 -0.2682  0.0494 -0.0345
12380TIP3    H137083   4.840   7.306   6.851  0.1785  0.9441  4.5284
12380TIP3    H237084   4.755   7.183   6.825  2.6158  0.1182 -0.0456
12381TIP3   OH237085   4.054   4.891   5.013 -0.1784  0.4525  0.2571
12381TIP3    H137086   4.093   4.965   5.061 -3.2138  1.3405  1.5144
12381TIP3    H237087   3.997   4.849   5.077 -1.9119 -0.2816 -1.7209
12382TIP3   OH237088   1.742   2.616  -0.000 -0.1532  0.4407  0.0106
12382TIP3    H137089   1.667   2.668   0.028  1.3522  2.9231 -0.4130
12382TIP3    H237090   1.799   2.612   0.077  0.7367  1.2922 -0.5905
12383TIP3   OH237091   0.104  -0.009   2.774  0.2965  0.5142  0.2748
12383TIP3    H137092   0.145   0.064   2.726 -0.6748  2.2006  1.9189
12383TIP3    H237093   0.010   0.009   2.767  0.0887 -0.1559  1.3590
12384TIP3   OH237094   5.075   5.630   6.270 -0.1080  0.2485 -0.5182
12384TIP3    H137095   5.008   5.562   6.268 -1.5586  1.6559 -0.1603
12384TIP3    H237096   5.132   5.606   6.343 -1.3573  0.1169  0.4174
12385TIP3   OH237097   2.996   7.030   5.548 -0.4188  0.2102  0.4394
12385TIP3    H137098   3.030   6.948   5.584  1.4245  0.0979 -1.4244
12385TIP3    H237099   2.950   7.071   5.621  1.4990 -0.9102  2.3661
12386TIP3   OH237100   5.588   6.325   6.598 -0.0239  0.1887  0.0961
12386TIP3    H137101   5.596   6.230   6.604  0.0825  0.3112  2.5003
12386TIP3    H237102   5.648   6.350   6.529  0.3235 -1.4475 -0.2214
12387TIP3   OH237103   5.736   7.460   5.026 -0.2137  0.8015  0.2366
12387TIP3    H137104   5.749   7.409   4.947 -0.9898  0.1664  0.5191
12387TIP3    H237105   5.701   7.544   4.996 -2.7006 -0.2612  0.0716
12388TIP3   OH237106   4.678   6.900   5.333  0.0305  0.1297 -0.5447
12388TIP3    H137107   4.632   6.920   5.415  1.3098  1.1098 -0.0453
12388TIP3    H237108   4.663   6.978   5.279  1.2485  0.5472 -0.2979
12389TIP3   OH237109   5.214   7.562   3.874  0.4505  0.4193  0.0930
12389TIP3    H137110   5.198   7.656   3.866 -0.0080  0.2793 -0.6397
12389TIP3    H237111   5.308   7.552   3.860  0.8742  1.0067  2.3372
12390TIP3   OH237112   8.363   6.170   5.795 -0.3066  0.2325 -0.8816
12390TIP3    H137113   8.348   6.248   5.848  1.2405  0.8559 -1.3200
12390TIP3    H237114   8.277   6.148   5.759 -0.9521  1.0851  0.1149
12391TIP3   OH237115   1.995   3.546   0.122  0.0595 -0.4406 -0.0603
12391TIP3    H137116   1.925   3.590   0.171 -1.0993 -0.9815 -1.2088
12391TIP3    H237117   2.056   3.616   0.099 -1.8787  0.6402 -2.0691
12392TIP3   OH237118   0.020   0.927   5.542  0.0796  0.5255  0.1393
12392TIP3    H137119  -0.060   0.934   5.490  0.2812  3.3059  0.1347
12392TIP3    H237120   0.086   0.897   5.480 -0.7787 -1.1669 -0.0020
12393TIP3   OH237121   7.971   4.905   6.575 -0.1932 -0.3702 -0.5570
12393TIP3    H137122   8.003   4.982   6.621 -3.7240  1.3380 -0.8107
12393TIP3    H237123   8.004   4.915   6.486 -1.4436  1.3526 -0.8297
12394TIP3   OH237124   7.347   8.003   0.032  0.5171 -0.1246 -0.5714
12394TIP3    H137125   7.377   7.916   0.005 -1.4641 -1.0020 -0.0392
12394TIP3    H237126   7.360   8.004   0.127 -0.4764 -0.2753 -0.4237
12395TIP3   OH237127   6.067   7.250   4.374  0.5010  0.0677 -0.1485
12395TIP3    H137128   6.007   7.178   4.389  0.3888 -0.2578 -2.0056
12395TIP3    H237129   6.025   7.326   4.415 -0.9332 -0.2656 -0.9593
12396TIP3   OH237130   1.636   6.329   5.220 -0.3785 -0.5599 -0.1981
12396TIP3    H137131   1.656   6.355   5.130  1.5183  0.5604  0.5148
12396TIP3    H237132   1.637   6.233   5.218  3.3872 -0.5994 -0.6436
12397TIP3   OH237133   6.730   0.186   3.853 -0.4345 -0.3353 -0.0257
12397TIP3    H137134   6.796   0.117   3.851 -0.9956 -0.8689 -0.1765
12397TIP3    H237135   6.685   0.178   3.769 -0.0220  0.6802 -0.3523
12398TIP3   OH237136   4.300   5.639   4.974  0.3060  0.2577 -0.1072
12398TIP3    H137137   4.263   5.558   5.009  0.7835 -0.2958 -0.8596
12398TIP3    H237138   4.347   5.677   5.048  0.3318 -0.3137  0.1782
12399TIP3   OH237139   3.841   7.122   5.460  0.0126 -0.2029  0.0552
12399TIP3    H137140   3.768   7.180   5.480  1.2432  1.5180 -0.3110
12399TIP3    H237141   3.836   7.109   5.365  0.9293  1.0100 -0.1816
12400TIP3   OH237142   0.395   3.494   0.338 -0.0061  0.5817  0.4752
12400TIP3    H137143   0.468   3.555   0.336  0.3749  0.0936 -1.2922
12400TIP3    H237144   0.319   3.547   0.363  0.5865  1.4812  0.3725
12401TIP3   OH237145   3.421   3.869   0.789 -0.2160  0.0477  0.1200
12401TIP3    H137146   3.365   3.799   0.755 -0.9559  0.8391 -0.3285
12401TIP3    H237147   3.422   3.856   0.884 -1.0247 -0.0722  0.1139
12402TIP3   OH237148   3.351   5.017   4.797 -0.1105  0.3173  0.3703
12402TIP3    H137149   3.411   5.047   4.729  0.3586  0.9940  1.0713
12402TIP3    H237150   3.407   5.002   4.874 -0.3319 -2.3390  0.0540
12403TIP3   OH237151   6.511   7.353   4.798 -0.1809  0.2552  0.1879
12403TIP3    H137152   6.425   7.334   4.763  0.8311 -0.5606 -1.9092
12403TIP3    H237153   6.533   7.277   4.852 -1.5298  1.2990  2.2851
12404TIP3   OH237154   5.599   7.168   5.995 -0.0229 -0.0462  0.3143
12404TIP3    H137155   5.598   7.102   5.925 -1.5969  1.1556 -0.8229
12404TIP3    H237156   5.542   7.131   6.063 -1.4533  0.4103 -0.6062
12405TIP3   OH237157   3.933   7.652   5.632  0.8012 -0.3808  0.0381
12405TIP3    H137158   3.857   7.681   5.581  0.3743 -1.8743 -0.2108
12405TIP3    H237159   3.984   7.732   5.647 -0.7012  0.5993  0.0163
12406TIP3   OH237160   5.889   7.318   3.575 -0.3451  0.0673 -0.0567
12406TIP3    H137161   5.808   7.364   3.550  0.0453  0.2151 -1.0724
12406TIP3    H237162   5.937   7.309   3.493  0.4246 -0.5125  0.4590
12407TIP3   OH237163   1.860   6.464   4.559  0.0404 -1.0503 -0.5803
12407TIP3    H137164   1.789   6.458   4.623  1.8329 -1.8983  1.3779
12407TIP3    H237165   1.844   6.392   4.499 -0.3900 -1.6425  0.2298
12408TIP3   OH237166   6.183   5.909   3.108  0.1501  0.2444  0.3729
12408TIP3    H137167   6.157   5.992   3.149  1.3738  2.7818 -3.6375
12408TIP3    H237168   6.104   5.877   3.065 -0.0332  0.0112  0.8927
12409TIP3   OH237169   0.134   0.058   3.968 -0.2452  0.7492 -0.9259
12409TIP3    H137170   0.122   0.148   3.998 -0.7492  0.2562  0.3987
12409TIP3    H237171   0.217   0.059   3.922  0.0038  1.7873 -0.4651
12410TIP3   OH237172   6.966   5.758   5.568 -0.2180 -0.0677 -0.3226
12410TIP3    H137173   7.014   5.678   5.589 -2.5808 -1.0878  1.3749
12410TIP3    H237174   6.987   5.818   5.640  1.3387  0.7736 -1.4548
12411TIP3   OH237175   4.633   6.572   4.546 -0.3146 -0.3645 -0.1067
12411TIP3    H137176   4.566   6.582   4.479 -1.5513 -0.5711  1.0674
12411TIP3    H237177   4.589   6.524   4.617  1.0113 -0.3271  0.7648
12412TIP3   OH237178   4.060   5.206   1.771  0.0411 -0.5803 -0.6872
12412TIP3    H137179   3.972   5.182   1.801  0.4079 -0.5794  0.4148
12412TIP3    H237180   4.049   5.293   1.733 -0.5223 -0.7695 -0.9629
12413TIP3   OH237181   2.877   3.789   0.509  0.2498 -0.0984 -0.3719
12413TIP3    H137182   2.893   3.844   0.586  0.1019 -0.0696 -0.3625
12413TIP3    H237183   2.896   3.846   0.435 -1.6551  0.5240 -0.4063
12414TIP3   OH237184   5.015   5.746   4.799 -0.0988  0.0692  0.3295
12414TIP3    H137185   4.974   5.696   4.729  0.0312  0.7298 -0.2172
12414TIP3    H237186   4.991   5.699   4.879 -0.7475 -0.3442 -0.1038
12415TIP3   OH237187   5.289   4.565   5.881 -0.2813  0.8570 -0.0207
12415TIP3    H137188   5.339   4.611   5.814  0.1376  0.2535 -0.1248
12415TIP3    H237189   5.327   4.593   5.964  0.8375 -0.3073 -0.1362
12416TIP3   OH237190   3.212   5.654   6.598  0.4017 -0.4339  0.0984
12416TIP3    H137191   3.216   5.745   6.627  2.1002 -0.2042 -0.7504
12416TIP3    H237192   3.274   5.608   6.654 -0.2004 -1.0079  0.2971
12417TIP3   OH237193   0.024   0.026   5.650  0.3027 -0.0997  0.2242
12417TIP3    H137194   0.068   0.051   5.732  1.1652 -0.0365 -0.2583
12417TIP3    H237195   0.094  -0.008   5.595  0.0081  1.4439 -1.1299
12418TIP3   OH237196   0.534   3.111   1.297  0.5449 -0.7062 -0.0287
12418TIP3    H137197   0.490   3.189   1.330 -1.2113 -1.2636 -1.0040
12418TIP3    H237198   0.625   3.139   1.284 -0.0510  1.1706 -0.3235
12419TIP3   OH237199   2.994   3.074   0.181  0.4951  0.2228 -0.6360
12419TIP3    H137200   2.977   3.019   0.258 -0.5936 -0.9844 -1.7039
12419TIP3    H237201   2.947   3.030   0.110  1.4254  1.3620 -1.9779
12420TIP3   OH237202   3.187   5.142   3.587  0.0677 -0.3964 -0.3253
12420TIP3    H137203   3.137   5.148   3.668  0.0821 -1.6843 -0.2167
12420TIP3    H237204   3.143   5.075   3.535  0.3963  0.0115 -1.1512
12421TIP3   OH237205   2.310   7.023   5.816  0.2120 -0.1717 -0.5597
12421TIP3    H137206   2.354   6.938   5.815  1.3915  0.3885  1.6006
12421TIP3    H237207   2.381   7.087   5.813 -0.5941  0.7370 -0.5532
12422TIP3   OH237208   4.701   5.294   6.572  0.0121 -0.0929  0.5643
12422TIP3    H137209   4.702   5.202   6.598 -0.2939  0.1861  1.5850
12422TIP3    H237210   4.782   5.330   6.606 -1.6124  0.8970  3.4882
12423TIP3   OH237211   4.884   6.418   6.692 -0.1226 -0.0651 -0.1958
12423TIP3    H137212   4.929   6.361   6.755 -1.6390 -0.0807  0.9041
12423TIP3    H237213   4.951   6.440   6.628  1.3464 -0.4233  1.1805
12424TIP3   OH237214   4.270   6.729   5.161 -0.0097 -0.6246 -0.3433
12424TIP3    H137215   4.305   6.722   5.250  1.4388  0.6870 -0.7688
12424TIP3    H237216   4.315   6.659   5.112 -0.3002 -0.9129 -0.1993
12425TIP3   OH237217   3.978   5.036   6.619  0.5671 -0.4828 -0.5108
12425TIP3    H137218   4.024   4.970   6.568 -0.2677  0.3389 -2.3536
12425TIP3    H237219   3.909   4.987   6.664  0.3300 -0.9750 -1.3943
12426TIP3   OH237220   2.018   3.909   0.411 -0.3949  0.1368 -0.1935
12426TIP3    H137221   1.985   3.894   0.500  0.7049 -0.1488  0.1854
12426TIP3    H237222   2.113   3.918   0.423 -0.5054  2.5596 -1.0504
12427TIP3   OH237223   0.057   2.420   0.272 -0.2160  0.4202  0.4635
12427TIP3    H137224   0.127   2.481   0.248 -0.1342 -0.2965 -1.1677
12427TIP3    H237225   0.097   2.364   0.339  0.9461 -0.3262 -0.8352
12428TIP3   OH237226   1.585   6.322   6.130 -0.1123  0.0245  0.4092
12428TIP3    H137227   1.596   6.358   6.218 -0.7245 -1.3298  1.0508
12428TIP3    H237228   1.501   6.357   6.100 -0.9645 -1.2274  1.2427
12429TIP3   OH237229   5.356   6.900   5.468 -0.1698 -0.2568  0.1545
12429TIP3    H137230   5.399   6.844   5.403  1.5792  0.3359  0.7518
12429TIP3    H237231   5.428   6.948   5.508 -1.3911  0.5142  1.4533
12430TIP3   OH237232   5.044   6.537   6.188  0.7060  0.0837  0.2951
12430TIP3    H137233   4.950   6.554   6.190  0.6732 -0.0479 -0.3290
12430TIP3    H237234   5.051   6.442   6.179  0.9012  0.0360  0.9011
12431TIP3   OH237235   6.650   0.337   6.133 -0.0077 -0.3503 -0.1680
12431TIP3    H137236   6.562   0.373   6.115  0.2840  0.4989  0.0849
12431TIP3    H237237   6.689   0.399   6.193  0.5781 -1.0185  0.1430
12432TIP3   OH237238   5.426   4.544   6.342 -0.3685 -0.4661  0.6491
12432TIP3    H137239   5.518   4.570   6.341 -0.0515 -1.4275  2.3234
12432TIP3    H237240   5.427   4.450   6.323 -0.9916 -0.4661  0.6002
12433TIP3   OH237241   1.214   3.155   0.979  0.1827 -0.2429  0.1121
12433TIP3    H137242   1.202   3.142   0.885  1.7867 -0.1473 -0.1324
12433TIP3    H237243   1.220   3.066   1.015  2.8095 -0.3174 -0.3709
12434TIP3   OH237244   5.190   6.308   5.474 -0.5252  0.0477  0.5274
12434TIP3    H137245   5.172   6.383   5.530  0.1805  2.7697 -2.7297
12434TIP3    H237246   5.105   6.286   5.435  0.0169  2.0570 -1.8951
12435TIP3   OH237247   8.204   0.192   6.197  0.3374  0.1401  0.1273
12435TIP3    H137248   8.164   0.279   6.203  1.0020  0.3668  1.3280
12435TIP3    H237249   8.129   0.133   6.186 -0.3449  0.5681  2.3140
12436TIP3   OH237250   1.060   4.830   1.158  0.2226 -0.3446 -0.2520
12436TIP3    H137251   1.143   4.868   1.187  0.2192  0.2711 -1.0283
12436TIP3    H237252   1.028   4.891   1.092  0.1776 -1.6479 -1.4657
12437TIP3   OH237253   4.549   7.706   5.670 -0.6098 -0.6328  0.5780
12437TIP3    H137254   4.566   7.788   5.717  0.7549 -1.3022  1.2711
12437TIP3    H237255   4.618   7.702   5.605 -1.7663 -0.3352 -0.7009
12438TIP3   OH237256   4.642   7.723   6.065 -0.3693  0.1589 -0.2091
12438TIP3    H137257   4.681   7.798   6.020  0.0969 -0.7543 -1.3754
12438TIP3    H237258   4.549   7.743   6.069  0.1750  2.4193  2.6882
12439TIP3   OH237259   5.855   6.414   5.636 -0.4603 -0.2052 -0.2787
12439TIP3    H137260   5.831   6.379   5.722 -1.1395  1.1865  0.1142
12439TIP3    H237261   5.921   6.481   5.656 -1.0036  0.4822 -0.8070
12440TIP3   OH237262   2.875   7.280   4.870  0.0903  0.2858  0.3719
12440TIP3    H137263   2.836   7.291   4.957 -1.5979 -1.0677 -0.1807
12440TIP3    H237264   2.946   7.217   4.884 -0.2610 -0.0276  0.7538
12441TIP3   OH237265   6.909   2.951   6.738  0.5164  0.2227 -0.1666
12441TIP3    H137266   6.900   3.046   6.730  2.7869  0.4204 -0.8428
12441TIP3    H237267   6.890   2.918   6.650 -0.4936  0.0363  0.1239
12442TIP3   OH237268   5.348   5.736   5.735 -0.1346  0.2085 -0.3128
12442TIP3    H137269   5.344   5.797   5.661  1.7089 -1.2240 -1.6410
12442TIP3    H237270   5.258   5.729   5.766 -0.3072  4.1006  0.2963
12443TIP3   OH237271   4.828   4.345   3.394 -0.9785 -0.6773 -0.4484
12443TIP3    H137272   4.895   4.285   3.360  0.1053 -0.0069  0.4370
12443TIP3    H237273   4.808   4.311   3.481  0.3184  0.7553  0.4270
12444TIP3   OH237274   5.228   6.580   5.966 -0.0315  1.1063  0.4709
12444TIP3    H137275   5.165   6.570   6.038  1.1649  1.2173  1.5362
12444TIP3    H237276   5.311   6.599   6.009  0.8670  0.3561 -0.9072
12445TIP3   OH237277   3.749   5.272   3.979 -0.8034  0.1329  0.3553
12445TIP3    H137278   3.710   5.266   4.066  1.0907 -1.2432  1.1360
12445TIP3    H237279   3.682   5.237   3.920 -0.9372 -1.8208  1.6116
12446TIP3   OH237280   5.760   6.484   4.404  0.2125 -0.6202  0.2521
12446TIP3    H137281   5.689   6.508   4.345  2.4584  1.1338 -1.8225
12446TIP3    H237282   5.747   6.539   4.481 -0.1390  0.3841 -0.5191
12447TIP3   OH237283   3.269   5.210   6.175 -0.5065  0.2666  0.3681
12447TIP3    H137284   3.321   5.216   6.255 -0.1603 -1.3529  0.2806
12447TIP3    H237285   3.333   5.213   6.104 -0.7188  0.5489  0.1867
12448TIP3   OH237286   4.881   5.366   6.839  0.6592  0.2358 -0.1783
12448TIP3    H137287   4.909   5.416   6.916  0.9483 -0.6172  0.2787
12448TIP3    H237288   4.934   5.401   6.767  1.0268  0.4203  0.1815
12449TIP3   OH237289   3.139   6.471   4.837  0.2231 -0.0753 -0.2040
12449TIP3    H137290   3.135   6.453   4.931  0.5359 -1.5899 -0.4683
12449TIP3    H237291   3.187   6.554   4.831  0.8434 -0.3342  0.9399
12450TIP3   OH237292   2.935   6.653   6.780  0.6145 -0.1904 -0.2655
12450TIP3    H137293   2.900   6.721   6.837  0.2159 -0.3714 -0.2937
12450TIP3    H237294   2.883   6.576   6.800  0.6088 -0.3085 -0.7296
12451TIP3   OH237295   5.680   3.512   6.827  0.1305  0.8080  0.4425
12451TIP3    H137296   5.637   3.588   6.787  0.8155  2.1288  2.1845
12451TIP3    H237297   5.752   3.491   6.768  0.0697  1.6447  0.0677
12452TIP3   OH237298   5.349   7.757   4.108 -0.1661 -0.0169  0.2242
12452TIP3    H137299   5.381   7.838   4.148 -0.7795  0.5478 -0.4276
12452TIP3    H237300   5.255   7.770   4.097 -0.0265 -0.1950 -1.3321
12453TIP3   OH237301   2.063   7.190   1.805  0.6816 -0.4533  0.4110
12453TIP3    H137302   2.125   7.206   1.734  0.5173 -0.7830  0.1906
12453TIP3    H237303   2.117   7.161   1.879  0.8741  0.0983  0.4919
12454TIP3   OH237304   5.407   6.507   6.647 -0.5701 -0.2940  0.3411
12454TIP3    H137305   5.331   6.461   6.683 -0.9717  1.1485  1.3724
12454TIP3    H237306   5.472   6.439   6.633 -1.6761 -1.3878  0.4627
12455TIP3   OH237307   4.748   6.376   5.993 -0.5948 -0.1874  0.0645
12455TIP3    H137308   4.724   6.435   6.065 -0.7258  1.3230 -1.1917
12455TIP3    H237309   4.770   6.435   5.921 -0.9605 -1.6931 -1.2921
12456TIP3   OH237310   2.184   5.938   3.831  0.0397  0.0527 -0.1522
12456TIP3    H137311   2.153   5.857   3.869  0.5314 -0.7159 -1.3475
12456TIP3    H237312   2.171   5.927   3.737  2.6416  0.2372 -0.5702
12457TIP3   OH237313   4.485   4.104   2.160  0.0667 -0.0490 -0.0921
12457TIP3    H137314   4.435   4.024   2.170 -1.6588  1.0899  0.4959
12457TIP3    H237315   4.421   4.175   2.170  1.9091  1.4525  1.5718
12458TIP3   OH237316   7.086   1.006   5.532 -0.1581 -0.1539 -0.4978
12458TIP3    H137317   7.017   0.940   5.545 -1.1254  1.2929  2.0189
12458TIP3    H237318   7.168   0.958   5.543 -0.6087 -2.2648 -5.1699
12459TIP3   OH237319   5.798   5.677   4.195  0.1773  0.2172  0.0630
12459TIP3    H137320   5.750   5.672   4.112 -0.5391 -1.9153  0.5563
12459TIP3    H237321   5.885   5.643   4.174  0.6787  1.6797 -0.2687
12460TIP3   OH237322   5.588   5.921   5.441  0.5198  0.0385 -0.1915
12460TIP3    H137323   5.636   6.004   5.447 -0.3424  0.4972  0.5203
12460TIP3    H237324   5.622   5.868   5.513 -0.0085  0.3446  0.2829
12461TIP3   OH237325   6.865   4.232   6.573  0.1391  0.1664 -0.5456
12461TIP3    H137326   6.780   4.190   6.561  1.3393 -3.7168  3.4214
12461TIP3    H237327   6.848   4.303   6.635 -0.4223  0.4007 -0.9566
12462TIP3   OH237328   7.606   5.145   4.904  0.6733 -0.3023  0.1422
12462TIP3    H137329   7.692   5.168   4.868  0.1888  0.5903 -0.4539
12462TIP3    H237330   7.582   5.063   4.861  1.6521 -1.0722  1.0249
12463TIP3   OH237331   0.703   0.961   5.507 -0.1297  0.4738 -0.0187
12463TIP3    H137332   0.776   1.011   5.470  0.0431  0.4599  0.3005
12463TIP3    H237333   0.738   0.925   5.588 -0.5869  0.7118  0.2858
12464TIP3   OH237334   3.447   4.623   5.361  1.0165 -0.0165 -1.0115
12464TIP3    H137335   3.454   4.580   5.446 -0.6014  0.3498 -0.6746
12464TIP3    H237336   3.476   4.713   5.376 -0.2171  0.3263 -0.5997
12465TIP3   OH237337   8.193   0.412   4.263 -0.0389  0.2254  0.9226
12465TIP3    H137338   8.188   0.325   4.303 -0.4420  0.6777  1.8572
12465TIP3    H237339   8.125   0.463   4.306  1.4891  1.5865  1.8233
12466TIP3   OH237340   5.706   7.364   5.692 -0.0808  0.3758  0.6424
12466TIP3    H137341   5.705   7.440   5.634 -1.2433  0.0049  0.1597
12466TIP3    H237342   5.770   7.304   5.653  0.0705  0.6666  0.4476
12467TIP3   OH237343   6.333   7.040   4.526  0.2671 -0.0855  0.1254
12467TIP3    H137344   6.406   7.056   4.587 -0.5688 -0.7883  1.3323
12467TIP3    H237345   6.375   7.012   4.445  1.3116 -1.2278  1.0496
12468TIP3   OH237346   0.589   3.504   5.009  0.0334 -0.1952 -0.0237
12468TIP3    H137347   0.667   3.546   5.045  0.1842  1.0899 -1.7481
12468TIP3    H237348   0.535   3.482   5.085  0.8462  1.3814  1.0231
12469TIP3   OH237349   6.767   6.302   5.222  0.0572 -0.5046  0.5222
12469TIP3    H137350   6.695   6.244   5.199  0.3259 -0.5584 -0.2122
12469TIP3    H237351   6.824   6.248   5.277  0.1498 -0.8412  0.0976
12470TIP3   OH237352   7.223   3.242   4.792 -0.5931 -0.5375  0.4629
12470TIP3    H137353   7.181   3.315   4.748 -2.2134 -1.1657  0.9291
12470TIP3    H237354   7.199   3.252   4.884  0.4553 -0.8048  0.7816
12471TIP3   OH237355   1.374   0.040   3.896 -0.3796 -0.6835  0.0344
12471TIP3    H137356   1.355   0.121   3.944  1.3694 -0.2212 -0.0297
12471TIP3    H237357   1.335  -0.029   3.950 -0.6858  0.0706  0.7957
12472TIP3   OH237358   5.642   6.145   6.264 -0.0417 -0.5704 -0.3270
12472TIP3    H137359   5.565   6.193   6.235 -0.6344 -1.0189  0.4523
12472TIP3    H237360   5.687   6.119   6.184 -1.0229 -0.8050 -0.8023
12473TIP3   OH237361   5.505   6.350   3.640 -0.0305  0.1763 -0.0854
12473TIP3    H137362   5.548   6.434   3.621 -1.0065  0.7273  0.1411
12473TIP3    H237363   5.412   6.366   3.625 -0.0203 -1.4659 -2.1423
12474TIP3   OH237364   1.559   4.219   6.055 -0.5514  0.5163  0.0193
12474TIP3    H137365   1.501   4.154   6.016 -0.5312  0.1728  0.5587
12474TIP3    H237366   1.604   4.259   5.980 -1.7683  1.0682 -0.4280
12475TIP3   OH237367   6.867   3.290   3.429  0.2850 -0.1032  0.0309
12475TIP3    H137368   6.959   3.266   3.420  0.5530  0.8094  0.2882
12475TIP3    H237369   6.841   3.257   3.515  0.8944  1.2940  0.7580
12476TIP3   OH237370   8.352   0.128   5.475 -0.5578  0.3589 -0.4662
12476TIP3    H137371   8.287   0.061   5.492  0.5707 -0.6005  0.1535
12476TIP3    H237372   8.428   0.103   5.529  0.4667  1.2200 -1.4679
12477TIP3   OH237373   5.777   5.070   3.398 -0.1591  0.1311 -0.9332
12477TIP3    H137374   5.734   5.140   3.446 -0.1263 -0.0073 -0.7045
12477TIP3    H237375   5.798   5.004   3.464  2.2540  1.0916 -0.7000
12478TIP3   OH237376   2.711   2.796   0.299 -0.5467  0.3177  0.4830
12478TIP3    H137377   2.651   2.869   0.283 -1.3494 -0.4626 -0.1466
12478TIP3    H237378   2.657   2.717   0.284  0.6567 -0.3954 -0.2092
12479TIP3   OH237379   5.375   5.488   5.633  0.2960  0.1364 -0.1612
12479TIP3    H137380   5.280   5.485   5.626  0.4245 -0.6251 -1.8280
12479TIP3    H237381   5.395   5.579   5.655 -0.7159  0.6701 -1.4511
12480TIP3   OH237382   4.543   7.171   3.693 -0.1638  0.5587 -0.8961
12480TIP3    H137383   4.574   7.089   3.732 -0.6942  1.9514  2.6551
12480TIP3    H237384   4.618   7.205   3.645  0.8353 -0.7825 -0.3040
12481TIP3   OH237385   4.548   6.155   3.161 -0.0175 -0.5913 -0.4828
12481TIP3    H137386   4.489   6.208   3.214  0.6466  0.5418 -0.8534
12481TIP3    H237387   4.630   6.204   3.160  0.4776 -1.4138 -1.1931
12482TIP3   OH237388   8.030   5.659   1.441  0.0556 -0.2221  0.0781
12482TIP3    H137389   7.962   5.710   1.397  1.6601  0.6194 -1.5248
12482TIP3    H237390   8.065   5.717   1.508  0.3930  0.0007 -0.2876
12483TIP3   OH237391   1.679   5.167   5.775  0.1461 -0.4614  0.0115
12483TIP3    H137392   1.715   5.212   5.698 -0.2105 -0.8811 -0.4051
12483TIP3    H237393   1.602   5.217   5.798  1.1759  0.6488  1.1211
12484TIP3   OH237394   8.213   6.540   4.738 -0.1003  0.2026 -0.0342
12484TIP3    H137395   8.303   6.522   4.711 -0.4720 -0.7922 -0.6457
12484TIP3    H237396   8.176   6.453   4.756 -0.6731  0.6661  1.0686
12485TIP3   OH237397   8.107   0.098   3.860  0.6215 -0.0490  0.1558
12485TIP3    H137398   8.045   0.046   3.911  0.3086 -0.4281 -0.6106
12485TIP3    H237399   8.153   0.151   3.925  0.3058 -0.6193  0.8466
12486TIP3   OH237400   5.265   7.586   3.361 -0.3622 -0.2251 -0.0968
12486TIP3    H137401   5.204   7.541   3.419 -0.2933 -0.0469  0.1209
12486TIP3    H237402   5.305   7.517   3.309 -0.8695 -0.3217 -0.3544
12487TIP3   OH237403   7.973   6.990   3.768 -0.5356  0.1655 -0.1575
12487TIP3    H137404   7.971   7.063   3.706 -1.2841  0.3694  0.0993
12487TIP3    H237405   8.027   7.022   3.841 -1.4687  0.7526  0.2953
12488TIP3   OH237406   6.078   7.248   3.875 -0.4426 -0.0984 -0.1660
12488TIP3    H137407   6.136   7.179   3.906 -0.2886  0.5976  1.1479
12488TIP3    H237408   6.086   7.317   3.941  0.4133  1.7209 -2.1069
12489TIP3   OH237409   6.643   5.430   5.949 -0.1009  0.7269 -0.3295
12489TIP3    H137410   6.663   5.339   5.925  2.1003  1.3976 -1.1874
12489TIP3    H237411   6.576   5.457   5.885 -2.1520 -0.8338  1.0929
12490TIP3   OH237412   8.355   5.281   4.628  0.0879  0.2270 -0.2662
12490TIP3    H137413   8.384   5.362   4.669  0.4636  0.1962 -0.4757
12490TIP3    H237414   8.433   5.244   4.586 -0.2206  0.0963 -0.7395
12491TIP3   OH237415   4.965   8.008   3.628 -0.7750  0.3491  0.1257
12491TIP3    H137416   5.005   7.922   3.643 -0.7979  0.6877  2.3449
12491TIP3    H237417   5.037   8.062   3.595 -0.1425  0.1145  1.0896
12492TIP3   OH237418   0.691   6.964   3.971  0.2786 -0.4290 -0.3810
12492TIP3    H137419   0.683   6.869   3.984 -1.2691 -0.2917 -0.3359
12492TIP3    H237420   0.752   6.992   4.039  0.4030 -1.3267 -0.1149
12493TIP3   OH237421   7.218   0.172   4.477  0.0498  0.0828  0.3391
12493TIP3    H137422   7.172   0.192   4.396  2.5472  0.3313 -1.0650
12493TIP3    H237423   7.149   0.171   4.544 -2.3516 -2.1061 -2.0519
12494TIP3   OH237424   7.474   6.732   2.727  0.0718  0.5044  0.0933
12494TIP3    H137425   7.490   6.700   2.816 -0.1309 -0.3883 -0.1850
12494TIP3    H237426   7.380   6.719   2.713  0.0002  1.1585 -0.0522
12495TIP3   OH237427   4.052   7.427   5.121  0.1038 -0.3406  0.5305
12495TIP3    H137428   4.069   7.338   5.152  0.3382 -0.7516 -0.7871
12495TIP3    H237429   4.136   7.471   5.128  0.2023 -0.4904  0.2610
12496TIP3   OH237430   5.693   7.751   4.943 -0.6435 -0.2708 -0.7170
12496TIP3    H137431   5.657   7.710   4.864 -0.3556  0.2873 -1.1415
12496TIP3    H237432   5.656   7.839   4.944 -0.7556 -0.3211 -0.1514
12497TIP3   OH237433   8.142   6.272   5.932 -0.3317  0.1490  0.3107
12497TIP3    H137434   8.136   6.354   5.981  1.3736  0.4371  0.0697
12497TIP3    H237435   8.160   6.205   5.998  0.7400  0.3539  0.2376
12498TIP3   OH237436   6.670   7.240   4.027 -0.1971 -0.6351 -0.0380
12498TIP3    H137437   6.591   7.223   3.975  0.0024  0.1275 -0.5952
12498TIP3    H237438   6.687   7.334   4.015  1.2796 -0.9683 -0.6112
12499TIP3   OH237439   4.861   6.929   4.598 -0.4697  0.1263  0.2368
12499TIP3    H137440   4.925   6.998   4.584  0.7544 -1.0628 -0.1701
12499TIP3    H237441   4.910   6.860   4.644 -1.9379 -0.0233  1.6290
12500TIP3   OH237442   6.306   7.247   4.216 -0.3553 -0.2384 -0.1251
12500TIP3    H137443   6.230   7.250   4.273  0.5630  0.0332  1.1103
12500TIP3    H237444   6.351   7.330   4.231 -0.7245  0.3650 -2.1374
12501TIP3   OH237445   4.923   0.892   0.453  0.0106  0.7242 -0.2220
12501TIP3    H137446   4.871   0.814   0.471  0.4814 -0.1456 -2.4049
12501TIP3    H237447   4.859   0.959   0.429 -0.1883 -0.3000 -2.7672
12502TIP3   OH237448   8.050   5.470   5.198  0.0703 -0.4709  0.4974
12502TIP3    H137449   8.137   5.507   5.183  0.0743 -0.9620 -0.8228
12502TIP3    H237450   8.022   5.507   5.281  1.1693  0.4053  0.4945
12503TIP3   OH237451   5.648   6.867   2.409 -0.7898  0.2369  0.4085
12503TIP3    H137452   5.610   6.860   2.496 -1.3189 -1.3751  0.0783
12503TIP3    H237453   5.610   6.793   2.360  0.6284  0.2308 -0.7407
12504TIP3   OH237454   0.570   6.687   3.649 -0.5609 -0.0368 -0.5380
12504TIP3    H137455   0.527   6.732   3.721 -0.2579  0.4453 -0.6622
12504TIP3    H237456   0.659   6.722   3.647  0.9719 -3.5141  1.9343
12505TIP3   OH237457   7.789   1.446   6.309  0.6891  0.0198 -0.0314
12505TIP3    H137458   7.856   1.510   6.283  1.5914 -0.9471 -0.1161
12505TIP3    H237459   7.839   1.369   6.337 -0.3892 -1.5620 -2.2355
12506TIP3   OH237460   8.023   6.699   4.665  0.0466 -0.1278 -0.5203
12506TIP3    H137461   8.076   6.728   4.590 -1.5410  0.4938 -1.4350
12506TIP3    H237462   8.077   6.632   4.708  0.8999 -0.6680 -2.3619
12507TIP3   OH237463   8.002   0.882   4.038  0.6817 -0.0943 -0.0553
12507TIP3    H137464   8.001   0.872   4.133  1.0157  1.6795  0.1690
12507TIP3    H237465   7.917   0.920   4.017  0.9767  0.4375 -0.3256
12508TIP3   OH237466   0.577   7.006   3.452  0.2175  0.0144  0.2399
12508TIP3    H137467   0.648   7.067   3.430 -1.1968  1.3637 -0.6975
12508TIP3    H237468   0.615   6.920   3.436  2.8224  0.4978  3.2357
12509TIP3   OH237469   6.884   5.693   4.640 -0.8551 -0.1980 -0.0352
12509TIP3    H137470   6.911   5.780   4.609 -0.3857  0.6832  2.7043
12509TIP3    H237471   6.962   5.659   4.684 -2.3907 -0.0989  2.8431
12510TIP3   OH237472   8.331   6.718   2.412  0.2723 -0.1395 -0.4326
12510TIP3    H137473   8.300   6.661   2.341 -1.9872  0.8499 -0.3065
12510TIP3    H237474   8.264   6.709   2.480  0.6908  1.4827  0.2041
12511TIP3   OH237475   8.223   0.771   5.659  0.3610  0.8787 -0.5212
12511TIP3    H137476   8.276   0.786   5.581 -0.5194 -1.1278 -1.5387
12511TIP3    H237477   8.134   0.759   5.627  0.1503 -1.0292  0.6339
12512TIP3   OH237478   7.485   5.208   5.452  0.3308 -0.3747  0.1688
12512TIP3    H137479   7.559   5.163   5.413  0.2886  0.8220 -1.3187
12512TIP3    H237480   7.507   5.301   5.446 -0.6570 -0.0750  1.0112
12513TIP3   OH237481   6.374   5.750   4.865 -0.1317  0.3134  0.0871
12513TIP3    H137482   6.464   5.731   4.839 -0.3385  0.6736 -0.9177
12513TIP3    H237483   6.379   5.771   4.958  0.6313 -0.9612  0.3469
12514TIP3   OH237484   6.815   5.305   5.053 -0.5525 -0.1741 -0.3600
12514TIP3    H137485   6.755   5.248   5.102 -1.6971  1.0283 -0.3564
12514TIP3    H237486   6.839   5.373   5.116  0.3844 -0.3347 -0.5374
12515TIP3   OH237487   7.368   6.422   4.578  0.4129 -0.1271 -0.6598
12515TIP3    H137488   7.407   6.378   4.654  1.0839 -0.7372 -1.3518
12515TIP3    H237489   7.284   6.455   4.610  1.5310  1.2730  0.8621
12516TIP3   OH237490   5.583   7.110   4.643  0.7952 -0.0128 -0.1711
12516TIP3    H137491   5.570   7.172   4.571  0.3389 -2.1901 -1.9919
12516TIP3    H237492   5.505   7.120   4.698  1.0616  1.5241 -0.0385
12517TIP3   OH237493   2.057   0.405   3.638  0.3625  0.2027 -0.1941
12517TIP3    H137494   2.075   0.348   3.564 -3.5707 -2.0648  0.5240
12517TIP3    H237495   1.986   0.462   3.609  0.9709  1.5021  0.7697
12518TIP3   OH237496   6.481   5.864   2.859  0.0525 -0.0775  0.7369
12518TIP3    H137497   6.406   5.902   2.813  1.2902 -0.7109 -1.9360
12518TIP3    H237498   6.490   5.917   2.938 -2.4774  0.7579  0.5137
12519TIP3   OH237499   3.239   5.996   4.077 -0.3220  0.0209  0.0850
12519TIP3    H137500   3.258   5.983   3.984 -3.0608 -1.4301 -0.3177
12519TIP3    H237501   3.166   6.058   4.079  1.1722  1.7898  1.3879
12520TIP3   OH237502   5.429   7.333   6.583  0.0399 -0.7431  0.2624
12520TIP3    H137503   5.504   7.305   6.531 -0.1720 -0.8659  0.0238
12520TIP3    H237504   5.466   7.394   6.647  0.5010 -1.5667  0.7876
12521TIP3   OH237505   5.830   7.380   4.068  0.2263 -0.1690  0.3485
12521TIP3    H137506   5.856   7.306   4.124  2.0816 -0.3056 -0.6441
12521TIP3    H237507   5.879   7.454   4.103  1.6104 -0.3099 -1.2296
12522TIP3   OH237508   7.356   5.788   4.219  0.3613 -0.9101 -0.3107
12522TIP3    H137509   7.420   5.777   4.289  0.7761  2.2739 -0.0891
12522TIP3    H237510   7.272   5.791   4.264  0.1757 -3.3683 -0.4338
12523TIP3   OH237511   5.574   7.213   5.373  0.2388  0.3392 -0.5069
12523TIP3    H137512   5.569   7.150   5.301 -0.4040 -0.1589 -0.0369
12523TIP3    H237513   5.657   7.259   5.359  0.4591 -0.2421 -1.1587
12524TIP3   OH237514   3.946   1.208   0.218  0.0785  0.1058 -0.3420
12524TIP3    H137515   3.934   1.118   0.249 -0.5881  0.1271 -0.5304
12524TIP3    H237516   4.035   1.209   0.183  0.9152  0.1449  1.7476
12525TIP3   OH237517   7.668   5.906   4.768  0.4233 -0.3451 -0.2688
12525TIP3    H137518   7.748   5.943   4.805 -0.1367  0.2645  0.3546
12525TIP3    H237519   7.640   5.970   4.703  0.0787 -0.2237 -0.0042
12526TIP3   OH237520   8.265   5.960   4.678  0.1628 -0.1231  0.0299
12526TIP3    H137521   8.199   5.891   4.684  1.8364 -1.6788  1.0521
12526TIP3    H237522   8.332   5.924   4.621  2.0587 -0.1950  2.2608
12527TIP3   OH237523   4.786   5.944   4.897  0.0331 -0.1602 -0.3404
12527TIP3    H137524   4.878   5.923   4.883  0.0895 -1.2847  1.6115
12527TIP3    H237525   4.739   5.897   4.828  0.6607 -2.0733  0.5214
12528TIP3   OH237526   7.642   6.152   4.995  0.1875  0.0586 -0.0832
12528TIP3    H137527   7.575   6.094   4.957  0.9141  0.1494 -1.5453
12528TIP3    H237528   7.614   6.165   5.085 -1.3500 -0.5395 -0.4573
12529TIP3   OH237529   5.681   4.345   4.728 -0.1725  0.3059  0.0831
12529TIP3    H137530   5.643   4.397   4.657 -0.6729  1.2686  1.0377
12529TIP3    H237531   5.709   4.264   4.686  1.4338  1.6900 -1.6233
12530TIP3   OH237532   4.627   5.922   5.415  0.0822 -0.1503 -0.4811
12530TIP3    H137533   4.717   5.909   5.387  0.1992 -0.7280  0.1530
12530TIP3    H237534   4.606   5.843   5.466 -0.4000  0.5130  0.3514
12531TIP3   OH237535   8.408   6.424   4.089 -0.0478 -0.5075 -0.5005
12531TIP3    H137536   8.452   6.344   4.061  0.1370 -1.5666  2.6696
12531TIP3    H237537   8.315   6.402   4.088 -0.1804  0.0299 -1.9244
12532TIP3   OH237538   6.243   5.671   5.896 -0.1707 -0.5893  0.4718
12532TIP3    H137539   6.298   5.628   5.830  0.7608  2.3779 -0.7839
12532TIP3    H237540   6.196   5.739   5.847 -0.1009  1.1254  2.6864
12533TIP3   OH237541   6.983   5.934   4.572 -0.0947  0.7576 -0.3797
12533TIP3    H137542   6.915   5.958   4.635  0.0352  1.8636 -0.6644
12533TIP3    H237543   7.030   6.015   4.553  1.8451 -0.1360  0.4301
12534TIP3   OH237544   4.907   5.997   6.254 -0.3880  0.1661  0.0514
12534TIP3    H137545   4.914   5.925   6.192 -1.3074  0.0288  0.0981
12534TIP3    H237546   4.844   6.057   6.215 -0.9693  0.0808  0.8401
12535TIP3   OH237547   6.410   5.828   3.726  0.4858 -0.0434  0.3145
12535TIP3    H137548   6.441   5.902   3.778  0.9476  0.3671 -0.5380
12535TIP3    H237549   6.470   5.824   3.652 -0.2490 -0.5420 -0.2647
12536TIP3   OH237550   5.448   5.659   6.027  0.1170  0.0329 -0.1843
12536TIP3    H137551   5.423   5.744   5.991 -1.2029 -0.0033  0.6268
12536TIP3    H237552   5.369   5.605   6.018  0.4883 -0.6559  0.6559
12537TIP3   OH237553   5.544   6.740   6.810  0.0121  0.2601  0.1260
12537TIP3    H137554   5.476   6.794   6.769  0.7472  1.2240  0.1531
12537TIP3    H237555   5.537   6.655   6.767 -1.2084  0.3587  0.1209
12538TIP3   OH237556   7.002   7.712   4.915  0.4339 -0.1507 -0.2351
12538TIP3    H137557   7.030   7.634   4.963 -0.6250 -0.6141 -0.3481
12538TIP3    H237558   7.058   7.713   4.837  1.9220  0.4145  0.8227
12539TIP3   OH237559   8.003   0.164   4.396 -0.2203 -0.3206 -0.6365
12539TIP3    H137560   7.973   0.212   4.473 -0.1232 -0.6837 -0.3710
12539TIP3    H237561   7.923   0.145   4.347 -0.2558  0.1519 -0.7662
12540TIP3   OH237562   5.948   3.694   5.453 -0.4174  0.5234  0.1954
12540TIP3    H137563   6.026   3.746   5.433 -0.7893  0.5647 -1.1862
12540TIP3    H237564   5.901   3.746   5.519  0.7800  0.4376  1.1289
12541TIP3   OH237565   4.418   6.640   4.371 -0.5988  0.7266 -0.0065
12541TIP3    H137566   4.396   6.554   4.334 -0.4265  0.0563  1.3859
12541TIP3    H237567   4.385   6.703   4.308 -0.5763 -0.3773 -1.1395
12542TIP3   OH237568   6.712   7.101   3.366  0.7186 -0.5513 -0.2478
12542TIP3    H137569   6.756   7.080   3.449  1.9481 -0.0927 -0.7767
12542TIP3    H237570   6.619   7.101   3.388  1.0826  0.6547  1.3970
12543TIP3   OH237571   6.655   7.566   4.389  0.6288  0.3453 -0.1080
12543TIP3    H137572   6.739   7.610   4.398  1.7582 -1.7206 -0.2215
12543TIP3    H237573   6.652   7.505   4.463 -0.9371  0.6704  0.1054
12544TIP3   OH237574   2.988   6.429   5.901  0.0361 -0.0265  0.7375
12544TIP3    H137575   3.022   6.367   5.966  1.2915  0.0975  0.2065
12544TIP3    H237576   3.052   6.500   5.900  0.4373 -0.3904 -1.2025
12545TIP3   OH237577   0.651   0.577   5.367 -0.2931 -0.5101  0.3439
12545TIP3    H137578   0.691   0.513   5.308 -1.8712 -1.3726  0.1967
12545TIP3    H237579   0.722   0.603   5.426  0.9218 -0.7205 -1.0147
12546TIP3   OH237580   3.109   1.946   0.133  0.4982 -0.0725 -0.0022
12546TIP3    H137581   3.102   1.961   0.039 -1.2432  0.2552  0.1663
12546TIP3    H237582   3.152   2.024   0.167 -0.6464  0.7008 -0.2818
12547TIP3   OH237583   6.113   7.181   4.986 -0.5697  0.2504 -0.4534
12547TIP3    H137584   6.090   7.273   4.979  1.3206  0.7936 -0.0008
12547TIP3    H237585   6.115   7.150   4.895 -0.9190  0.7349 -0.6266
12548TIP3   OH237586   7.491   5.590   5.257 -0.3844  0.2596 -0.6678
12548TIP3    H137587   7.403   5.607   5.224 -0.9081 -2.3583 -0.6744
12548TIP3    H237588   7.539   5.556   5.181 -0.0982 -0.7768 -0.0308
12549TIP3   OH237589   4.264   7.864   4.328  0.0497  0.2397 -0.1010
12549TIP3    H137590   4.181   7.901   4.355 -0.2566 -0.0833 -0.5913
12549TIP3    H237591   4.241   7.794   4.267  0.6992  0.5048 -0.6652
12550TIP3   OH237592   1.123   0.404   3.425 -0.2563  0.2582 -0.8333
12550TIP3    H137593   1.143   0.413   3.518  0.1498 -1.6123 -0.7291
12550TIP3    H237594   1.135   0.311   3.406 -2.8362  0.1425 -2.1692
12551TIP3   OH237595   4.243   7.792   5.748 -0.0961  0.0058  0.4600
12551TIP3    H137596   4.324   7.768   5.703  0.8273  0.6938  1.7311
12551TIP3    H237597   4.205   7.860   5.694  1.5101  1.5249  1.2010
12552TIP3   OH237598   6.038   6.823   3.493 -0.3173  0.4196  0.2278
12552TIP3    H137599   6.004   6.901   3.537 -0.6753  1.3332 -1.6061
12552TIP3    H237600   6.022   6.751   3.554 -0.4217  1.7124  1.7421
12553TIP3   OH237601   8.527   1.260   4.751 -0.1287  0.1358 -0.6117
12553TIP3    H137602   8.441   1.284   4.715  0.3736  0.7825 -1.4000
12553TIP3    H237603   8.519   1.278   4.844 -0.6133  0.9071 -0.7913
12554TIP3   OH237604   8.374   1.462   4.953  0.5142 -0.3979  0.5359
12554TIP3    H137605   8.446   1.446   5.014 -0.1513 -1.2633  1.1026
12554TIP3    H237606   8.299   1.481   5.009  0.0606 -0.5262 -0.0238
12555TIP3   OH237607   5.320   6.630   4.587 -0.5923 -0.5571  0.3866
12555TIP3    H137608   5.243   6.665   4.632 -0.9432 -1.0894  0.1991
12555TIP3    H237609   5.387   6.697   4.599 -1.1585  0.0182  0.3320
12556TIP3   OH237610   6.643   5.150   3.047 -0.4698  0.0955  0.3189
12556TIP3    H137611   6.560   5.103   3.047  0.6732 -2.0059  1.3325
12556TIP3    H237612   6.634   5.216   2.978 -2.5886 -0.7946 -0.2759
12557TIP3   OH237613   0.054   0.600   6.185 -0.0025 -0.9153  0.5480
12557TIP3    H137614   0.108   0.576   6.261  0.2378  0.8809  0.9869
12557TIP3    H237615  -0.026   0.636   6.224 -0.3455 -1.0240 -0.0662
12558TIP3   OH237616   5.752   3.342   4.366 -0.0140 -0.4499 -0.0268
12558TIP3    H137617   5.732   3.284   4.440 -1.7566  0.0799 -0.0454
12558TIP3    H237618   5.722   3.292   4.289  0.6289 -0.4817 -0.2547
12559TIP3   OH237619   8.096   1.222   4.875 -0.2154  0.2205 -0.0502
12559TIP3    H137620   8.118   1.309   4.907 -2.1765  0.3710  0.9707
12559TIP3    H237621   8.126   1.221   4.784 -1.5741  2.5106 -0.5446
12560TIP3   OH237622   3.605   2.057   0.672 -0.0346  0.4325  0.1739
12560TIP3    H137623   3.632   2.029   0.759  0.3103 -0.8457 -0.3236
12560TIP3    H237624   3.681   2.104   0.637  1.1001 -1.9830 -0.7081
12561TIP3   OH237625   7.925   6.968   4.665  0.8023  1.2707 -0.2829
12561TIP3    H137626   7.858   6.990   4.729  0.7991  0.8344 -0.1345
12561TIP3    H237627   7.949   6.878   4.685  0.2959  0.8870 -1.3356
12562TIP3   OH237628   8.038   0.039   6.529  0.2538  0.4401  0.5650
12562TIP3    H137629   8.126   0.041   6.568 -0.7356 -0.4612  2.9221
12562TIP3    H237630   8.046  -0.023   6.456  1.0962 -1.2102  2.0254
12563TIP3   OH237631   4.196   5.820   4.398 -0.0011 -0.4909 -0.1208
12563TIP3    H137632   4.170   5.761   4.469 -1.2117 -0.0551 -0.2011
12563TIP3    H237633   4.114   5.850   4.360  0.6116  0.8422 -0.4244
12564TIP3   OH237634   0.115   6.121   4.267 -0.7133 -0.5204  1.0714
12564TIP3    H137635   0.126   6.214   4.287  2.6423 -0.6271  0.0018
12564TIP3    H237636   0.093   6.119   4.174 -1.5663 -0.7818  1.2727
12565TIP3   OH237637   6.388   6.072   6.221 -0.1982  0.2805  0.1919
12565TIP3    H137638   6.368   6.118   6.303  1.8337  0.7735  0.4390
12565TIP3    H237639   6.388   6.141   6.155  2.1581  0.5867  0.4526
12566TIP3   OH237640   0.238   0.770   4.081 -0.1678 -0.6794  0.4808
12566TIP3    H137641   0.248   0.817   4.164  1.3482 -1.0126  0.5004
12566TIP3    H237642   0.272   0.831   4.015 -2.0316 -0.1328  0.0042
12567TIP3   OH237643   6.817   6.034   4.768 -0.3290 -0.4237  0.4816
12567TIP3    H137644   6.781   5.996   4.848  2.1071 -0.3431  1.6404
12567TIP3    H237645   6.741   6.071   4.723 -1.6729 -0.1295  2.9303
12568TIP3   OH237646   5.371   7.218   5.789 -0.9631  0.2260 -0.1067
12568TIP3    H137647   5.364   7.123   5.783 -0.6124  0.2021 -0.1169
12568TIP3    H237648   5.455   7.234   5.832 -0.8885  0.5372 -0.3629
12569TIP3   OH237649   6.451   5.410   4.991 -0.3059 -0.1524 -0.2779
12569TIP3    H137650   6.358   5.389   5.000 -0.1662 -0.6226  0.0895
12569TIP3    H237651   6.478   5.370   4.909  0.2247 -2.3837  0.9573
12570TIP3   OH237652   8.108   0.638   5.167  0.0620 -0.2918 -0.0278
12570TIP3    H137653   8.174   0.624   5.099  0.8537  1.3161  0.3831
12570TIP3    H237654   8.045   0.698   5.127 -1.1667 -1.8036 -0.4105
12571TIP3   OH237655   6.553   5.943   4.266  0.6289 -0.4782 -0.0297
12571TIP3    H137656   6.519   6.024   4.303 -1.9585 -1.5416  0.0905
12571TIP3    H237657   6.584   5.967   4.179  0.9849  0.8565  0.4620
12572TIP3   OH237658   7.049   4.803   6.438  0.3167 -0.1095 -0.0407
12572TIP3    H137659   7.119   4.746   6.471 -0.8319 -0.6393  1.5295
12572TIP3    H237660   7.090   4.851   6.366  2.5663  0.2569  1.4208
12573TIP3   OH237661   8.161   0.209   0.977 -0.3149 -0.2933 -0.0095
12573TIP3    H137662   8.088   0.239   0.923  0.1713 -0.5998 -0.8488
12573TIP3    H237663   8.122   0.147   1.039 -1.0697  0.9435  0.7629
12574TIP3   OH237664   2.852   2.466   0.146  0.2194 -0.0871 -0.5080
12574TIP3    H137665   2.797   2.533   0.187  0.3785 -0.1516 -0.1891
12574TIP3    H237666   2.836   2.476   0.052 -0.2021  0.0135 -0.4273
12575TIP3   OH237667   5.260   6.932   3.945 -0.0746  0.1815 -0.5694
12575TIP3    H137668   5.295   6.860   3.997  1.5629  1.7470  0.5271
12575TIP3    H237669   5.337   6.980   3.915 -1.1670  2.0395 -0.4592
12576TIP3   OH237670   5.067   6.943   6.438  0.2681 -0.2372  0.4850
12576TIP3    H137671   5.010   7.018   6.457  0.9566  0.2231  0.7635
12576TIP3    H237672   5.071   6.894   6.520  1.4099  0.5095  0.8904
12577TIP3   OH237673   4.421   5.626   6.389  0.4578  0.2160 -0.1738
12577TIP3    H137674   4.347   5.687   6.380 -0.5662 -0.8765  0.6252
12577TIP3    H237675   4.381   5.539   6.380  1.5577 -0.4020  0.8661
12578TIP3   OH237676   2.401   1.736   3.182 -0.2571 -0.3762 -0.0653
12578TIP3    H137677   2.345   1.793   3.234  1.0512  0.1388  0.7766
12578TIP3    H237678   2.348   1.716   3.104 -2.5832 -1.8574  1.8177
12579TIP3   OH237679   4.245   7.058   6.498  0.9122  0.4952  0.3206
12579TIP3    H137680   4.226   7.136   6.551  0.8161  1.1347 -0.6286
12579TIP3    H237681   4.174   6.997   6.517  1.6479  0.1416  2.0084
12580TIP3   OH237682   7.783   6.546   4.710  0.1191  0.2903  0.1480
12580TIP3    H137683   7.843   6.476   4.737  0.3388  0.9905  1.5288
12580TIP3    H237684   7.832   6.627   4.727 -0.3030  0.7880 -1.0015
12581TIP3   OH237685   5.980   7.877   2.573 -0.1654 -0.3067  0.3130
12581TIP3    H137686   5.972   7.972   2.586  1.8126  0.0271 -0.8118
12581TIP3    H237687   6.030   7.847   2.648  0.4732 -0.2370 -0.0826
12582TIP3   OH237688   6.025   7.286   3.343  0.2444 -0.0952 -0.2118
12582TIP3    H137689   6.034   7.372   3.301  1.2522  0.0567  0.3156
12582TIP3    H237690   6.086   7.230   3.296  1.0362 -0.0380  0.7471
12583TIP3   OH237691   6.385   6.238   5.821  0.2389  0.4063  0.1350
12583TIP3    H137692   6.419   6.148   5.818  0.1383  0.4135 -3.4670
12583TIP3    H237693   6.462   6.292   5.837  1.1569  0.0205 -2.7471
12584TIP3   OH237694   6.933   5.487   3.994  0.1536  0.0624  0.0827
12584TIP3    H137695   7.000   5.516   3.932  1.2038 -1.0000  0.6957
12584TIP3    H237696   6.883   5.421   3.946 -0.2808  0.6615 -0.2878
12585TIP3   OH237697   3.138   1.566   0.105 -0.4932 -0.6023  0.4592
12585TIP3    H137698   3.090   1.542   0.026  0.1100 -3.0788  0.8061
12585TIP3    H237699   3.079   1.625   0.152 -1.4806 -0.3286 -1.0928
12586TIP3   OH237700   5.213   5.334   5.867 -0.0122 -0.2804 -0.0247
12586TIP3    H137701   5.196   5.246   5.833 -1.0886 -0.2232  0.3217
12586TIP3    H237702   5.188   5.392   5.795 -0.8976 -0.2100  0.3299
12587TIP3   OH237703   4.595   6.087   5.633  0.3383  0.0693  0.0202
12587TIP3    H137704   4.583   6.030   5.557  0.0882  0.2042 -0.0424
12587TIP3    H237705   4.530   6.156   5.622  0.9040  0.5852 -0.1018
12588TIP3   OH237706   8.461   0.943   6.040  0.0909  0.4436 -0.3753
12588TIP3    H137707   8.386   0.884   6.044  1.1525 -0.8593  1.0211
12588TIP3    H237708   8.509   0.916   5.962 -1.5291  2.1402 -2.0316
12589TIP3   OH237709   5.993   5.462   5.123  0.0422  0.1757 -0.1322
12589TIP3    H137710   6.041   5.484   5.203  0.4756  0.7875 -0.5671
12589TIP3    H237711   6.035   5.512   5.054 -0.2676 -0.4349 -0.7729
12590TIP3   OH237712   3.905   4.462   0.454 -0.8305  0.0062 -0.1434
12590TIP3    H137713   3.846   4.408   0.506  0.7727  0.3995  2.1657
12590TIP3    H237714   3.960   4.398   0.407 -0.8262 -0.3620  0.3576
12591TIP3   OH237715   0.206   0.932   4.312  0.0560 -0.6410  0.2114
12591TIP3    H137716   0.192   1.016   4.268  0.1304 -1.1450 -0.7860
12591TIP3    H237717   0.146   0.934   4.386  1.7749  1.2972  1.5943
12592TIP3   OH237718   5.561   6.768   5.362  0.5659 -0.5175 -0.0251
12592TIP3    H137719   5.597   6.822   5.291 -0.3773 -0.2102 -0.2800
12592TIP3    H237720   5.636   6.718   5.394  1.5247  1.1404  0.4030
12593TIP3   OH237721   6.866   7.932   5.081  0.0458 -0.5320 -0.0495
12593TIP3    H137722   6.956   7.900   5.087 -0.1998 -1.6894 -1.9681
12593TIP3    H237723   6.853   7.948   4.988 -1.7583 -0.4482  0.1997
12594TIP3   OH237724   7.499   5.779   4.448  0.5533  0.0887  1.1630
12594TIP3    H137725   7.446   5.780   4.528  1.9395  2.3910  2.1270
12594TIP3    H237726   7.589   5.785   4.480  1.1382  0.6660 -0.5513
12595TIP3   OH237727   7.296   5.355   4.531 -0.0311  0.6961 -0.2810
12595TIP3    H137728   7.248   5.436   4.513  0.0757  1.2344  1.7133
12595TIP3    H237729   7.230   5.286   4.527 -0.2617  0.9767 -1.2706
12596TIP3   OH237730   4.434   7.669   3.336 -0.2845 -0.0656  0.4355
12596TIP3    H137731   4.340   7.679   3.331 -0.4114 -1.6168 -0.8651
12596TIP3    H237732   4.453   7.661   3.430 -1.6467 -1.3608  0.6160
12597TIP3   OH237733   3.612   5.019   0.764  0.2239  0.4782  0.3379
12597TIP3    H137734   3.532   4.966   0.764  1.4716 -1.4279  1.7413
12597TIP3    H237735   3.611   5.063   0.678 -1.9975  0.0248  0.0843
12598TIP3   OH237736   6.689   4.769   5.934 -0.8938  0.2016  0.0974
12598TIP3    H137737   6.662   4.679   5.954 -0.8636 -0.3604 -2.2378
12598TIP3    H237738   6.736   4.798   6.012  1.4198 -2.7733 -0.1178
12599TIP3   OH237739   6.995   5.015   5.379 -0.5914  0.0047 -0.5376
12599TIP3    H137740   7.070   4.980   5.427 -1.2201  0.4602  0.8148
12599TIP3    H237741   7.022   5.013   5.287  0.2539 -1.8564 -0.2800
12600TIP3   OH237742   5.616   5.332   6.569 -0.5888 -0.3130  0.0833
12600TIP3    H137743   5.576   5.395   6.629 -0.5379 -0.1203 -0.0802
12600TIP3    H237744   5.587   5.247   6.600 -0.0955 -0.2493  0.7255
12601TIP3   OH237745   6.158   5.591   4.872 -0.7111  0.4231  0.7237
12601TIP3    H137746   6.244   5.633   4.877  0.3052 -1.5223  0.2906
12601TIP3    H237747   6.119   5.625   4.792  0.0147  0.6883  0.4796
12602TIP3   OH237748   5.777   6.236   5.386 -0.4375  0.4153  0.2036
12602TIP3    H137749   5.696   6.286   5.376 -1.0614 -0.3441  1.3695
12602TIP3    H237750   5.812   6.264   5.471  0.4895  0.6824 -0.2601
12603TIP3   OH237751   7.095   4.760   4.663  0.1416 -0.8485  0.2686
12603TIP3    H137752   7.171   4.736   4.715 -0.2352 -0.8265  0.8256
12603TIP3    H237753   7.039   4.810   4.722  0.2622  0.1991 -0.4743
12604TIP3   OH237754   6.547   4.569   5.623 -0.4407 -0.1896 -0.6809
12604TIP3    H137755   6.496   4.630   5.570 -0.4497 -0.4487 -0.9699
12604TIP3    H237756   6.555   4.613   5.708 -0.2325  0.3279 -0.9631
12605TIP3   OH237757   5.421   4.604   6.747 -0.1741 -0.1804  0.8853
12605TIP3    H137758   5.476   4.648   6.812 -0.8559  0.6421  0.9155
12605TIP3    H237759   5.479   4.540   6.705  0.9979  1.1998  0.3857
12606TIP3   OH237760   6.534   6.896   3.699  0.0468  0.3094  0.3552
12606TIP3    H137761   6.468   6.827   3.689  0.4579 -0.2076  1.1435
12606TIP3    H237762   6.561   6.917   3.610  0.0437 -0.6694  0.1226
12607TIP3   OH237763   7.101   6.814   3.674 -0.1600  0.3095 -0.0611
12607TIP3    H137764   7.145   6.856   3.748  0.5201 -1.3139  0.5020
12607TIP3    H237765   7.161   6.826   3.600  0.5598 -0.5880  0.3546
12608TIP3   OH237766   0.316   0.998   3.954 -0.0624 -0.0539  0.1044
12608TIP3    H137767   0.227   1.033   3.952  0.9237  2.5386 -0.1944
12608TIP3    H237768   0.338   0.984   3.862  0.9525  2.3761 -0.0700
12609TIP3   OH237769   5.811   5.686   3.522  0.2740  0.1307  0.1500
12609TIP3    H137770   5.728   5.639   3.528 -0.0025  0.4066 -1.3404
12609TIP3    H237771   5.800   5.744   3.446  1.6689  0.4831  0.2127
12610TIP3   OH237772   7.010   0.075   4.088  0.1563 -0.4802 -0.3583
12610TIP3    H137773   7.016   0.150   4.147  1.6040 -0.2165 -0.8258
12610TIP3    H237774   6.945   0.018   4.128 -0.4802  0.7246  0.3402
12611TIP3   OH237775   0.856   7.137   3.746  0.0117 -0.0757  0.2008
12611TIP3    H137776   0.898   7.064   3.792 -1.0773 -1.1594 -0.5084
12611TIP3    H237777   0.797   7.175   3.811 -2.1925 -2.1579 -0.5177
12612TIP3   OH237778   5.948   6.969   6.412 -0.1186 -0.3459  0.5076
12612TIP3    H137779   6.001   6.906   6.364 -0.7242 -0.0587 -0.5406
12612TIP3    H237780   5.859   6.952   6.383 -0.2713  1.0877  0.1090
12613TIP3   OH237781   7.405   7.060   3.892  0.3383 -0.0741  0.4453
12613TIP3    H137782   7.432   7.131   3.835  1.7823 -1.2563 -0.3706
12613TIP3    H237783   7.486   7.024   3.926 -0.3804 -1.2865  0.9082
12614TIP3   OH237784   6.180   7.775   5.321 -0.3589  0.3283 -0.8802
12614TIP3    H137785   6.137   7.822   5.250 -0.9469  0.6925 -0.2899
12614TIP3    H237786   6.273   7.777   5.299 -0.0198  4.3518  0.6385
12615TIP3   OH237787   2.072   5.878   3.568  0.6408  0.1633 -0.0929
12615TIP3    H137788   2.125   5.822   3.511  1.1342 -0.2293  0.7455
12615TIP3    H237789   1.997   5.823   3.592  1.2977 -0.2596  1.0050
12616TIP3   OH237790   6.992   6.625   4.496 -0.4414  0.3868 -0.5691
12616TIP3    H137791   7.020   6.597   4.409  1.1902 -0.2305  0.1189
12616TIP3    H237792   6.943   6.550   4.530  0.6343 -0.1768 -0.2115
12617TIP3   OH237793   5.883   1.067   4.307 -0.5542 -0.0266  0.3224
12617TIP3    H137794   5.882   1.054   4.212 -0.1982  0.1278  0.3002
12617TIP3    H237795   5.845   1.154   4.320 -0.6701 -0.0772  0.3296
12618TIP3   OH237796   0.450   6.455   4.348 -0.2604 -0.2312  0.1298
12618TIP3    H137797   0.498   6.416   4.422  1.3341  0.1004 -0.7169
12618TIP3    H237798   0.427   6.543   4.379  0.0659 -0.2271  0.3680
12619TIP3   OH237799   7.485   5.502   6.035  0.4476 -0.6435  0.5918
12619TIP3    H137800   7.447   5.417   6.014 -0.9785 -0.3019  1.7800
12619TIP3    H237801   7.578   5.484   6.049  0.3610 -1.8054 -0.2559
12620TIP3   OH237802   8.246   6.164   3.267  0.2854  0.3427 -0.1686
12620TIP3    H137803   8.321   6.157   3.326 -0.7761 -0.5507  1.1026
12620TIP3    H237804   8.238   6.076   3.229  1.1117  0.9723 -1.8651
12621TIP3   OH237805   7.239   5.325   5.676  0.0906  0.2396 -0.0302
12621TIP3    H137806   7.209   5.385   5.608  1.5211  0.9750 -0.0332
12621TIP3    H237807   7.158   5.286   5.711 -0.7281  0.7690 -1.2909
12622TIP3   OH237808   7.114   5.684   3.860 -0.3955 -0.0620  0.2839
12622TIP3    H137809   7.182   5.670   3.926  1.9201 -0.1787 -2.0398
12622TIP3    H237810   7.134   5.771   3.823 -0.8259 -0.5713 -1.1838
12623TIP3   OH237811   8.319   5.533   5.224  0.1266  0.2315  0.2757
12623TIP3    H137812   8.328   5.627   5.239  1.8188 -0.0606  1.3291
12623TIP3    H237813   8.394   5.511   5.168 -0.3779 -0.4494 -0.1344
12624TIP3   OH237814   4.896   0.457   0.835  0.1408  0.1712  0.2875
12624TIP3    H137815   4.870   0.397   0.904  0.6480  0.6004  0.8658
12624TIP3    H237816   4.989   0.476   0.853  0.1890  0.5435 -0.3153
12625TIP3   OH237817   8.346   4.068   5.138 -0.2374 -0.3662 -0.2149
12625TIP3    H137818   8.259   4.042   5.106 -1.0168 -0.8729  2.2244
12625TIP3    H237819   8.396   3.986   5.138 -0.3334 -0.4236  0.1683
12626TIP3   OH237820   1.092   5.798   6.515  0.3243  0.2576  0.7148
12626TIP3    H137821   1.179   5.760   6.504 -0.0925 -0.4003 -0.3243
12626TIP3    H237822   1.038   5.726   6.547 -0.2693  0.1671 -0.4535
12627TIP3   OH237823   6.979   4.702   5.681  0.0046 -0.4866 -0.0818
12627TIP3    H137824   6.916   4.712   5.752 -0.9749 -0.5766 -0.9208
12627TIP3    H237825   7.002   4.792   5.657 -1.2120 -0.3930 -0.9831
12628TIP3   OH237826   7.134   5.815   6.121 -0.4990 -0.5295  0.4521
12628TIP3    H137827   7.154   5.731   6.162  0.3696  0.2651  1.7231
12628TIP3    H237828   7.220   5.851   6.098 -0.6134  1.3544  2.7223
12629TIP3   OH237829   0.372   6.310   5.096 -0.0644  0.1963 -0.4703
12629TIP3    H137830   0.292   6.339   5.141 -1.2675  0.7161 -2.8442
12629TIP3    H237831   0.376   6.216   5.114 -2.1409 -0.1582 -1.5935
12630TIP3   OH237832   0.311   6.541   3.712 -0.1826 -0.7119  0.4510
12630TIP3    H137833   0.300   6.614   3.773 -1.0913 -0.3444 -0.1406
12630TIP3    H237834   0.393   6.559   3.667  0.9485 -1.4369  2.1608
12631TIP3   OH237835   7.607   5.160   5.183  0.4942 -0.2213 -0.1856
12631TIP3    H137836   7.615   5.066   5.202  1.6919 -0.0439  0.2419
12631TIP3    H237837   7.600   5.165   5.088 -0.9657 -0.8349 -0.1167
12632TIP3   OH237838   8.346   6.739   3.359  0.4035 -0.0085  0.2396
12632TIP3    H137839   8.317   6.817   3.405 -0.1982 -1.5398  2.5214
12632TIP3    H237840   8.436   6.725   3.389  0.3508 -0.4552  0.1970
12633TIP3   OH237841   3.362   2.439   0.958 -0.0249  0.0530  0.3851
12633TIP3    H137842   3.458   2.441   0.965  0.0969 -0.4587 -0.8445
12633TIP3    H237843   3.344   2.490   0.879 -0.7894  0.4157  0.7981
12634TIP3   OH237844   7.881   1.168   5.023 -0.4044  0.0667 -0.3821
12634TIP3    H137845   7.826   1.233   4.980 -0.4435  0.5567  0.4010
12634TIP3    H237846   7.970   1.187   4.991 -0.3824  0.6544  0.0259
12635TIP3   OH237847   0.069   1.098   3.974  0.3422  0.8071 -0.0404
12635TIP3    H137848   0.031   1.157   3.908  1.3842  2.6318  0.9571
12635TIP3    H237849   0.026   1.122   4.055  0.4724 -0.1139  0.3080
12636TIP3   OH237850   3.548   5.554   1.089  0.0453  0.0831 -0.7296
12636TIP3    H137851   3.577   5.562   0.998  1.9434 -3.2122 -0.5072
12636TIP3    H237852   3.624   5.580   1.141 -1.0127  1.8883 -0.0392
12637TIP3   OH237853   6.826   6.840   3.675 -0.0468 -0.4286 -0.2432
12637TIP3    H137854   6.920   6.829   3.686  0.0583 -0.2724 -0.9478
12637TIP3    H237855   6.803   6.913   3.733  0.0366 -1.3137  0.9201
12638TIP3   OH237856   6.821   6.279   5.629 -0.6474  0.0951 -0.0563
12638TIP3    H137857   6.748   6.319   5.581 -1.6060 -1.9101 -0.3177
12638TIP3    H237858   6.891   6.271   5.564 -0.5770  0.9941 -0.0946
12639TIP3   OH237859   0.224   1.106   6.571  0.1406 -0.2143 -0.5797
12639TIP3    H137860   0.218   1.192   6.611  1.7926 -1.3885  2.3726
12639TIP3    H237861   0.278   1.119   6.493  0.1844  1.4429 -0.2861
12640TIP3   OH237862   4.897   6.438   4.314 -0.2923 -0.3043  0.3474
12640TIP3    H137863   4.954   6.385   4.369  0.4152 -1.1779 -1.1976
12640TIP3    H237864   4.869   6.510   4.371  0.8363 -0.8923  1.6760
12641TIP3   OH237865   7.136   6.837   4.560  0.2230  0.2941 -0.2120
12641TIP3    H137866   7.222   6.812   4.526  0.8284  1.0438  0.7492
12641TIP3    H237867   7.081   6.760   4.544  1.0091 -0.1057 -1.0432
12642TIP3   OH237868   3.204   2.567   0.475 -0.4780  0.2843  0.1340
12642TIP3    H137869   3.187   2.632   0.407 -0.6165  0.0760 -0.0332
12642TIP3    H237870   3.121   2.559   0.522 -0.9094 -0.8691 -0.7998
12643TIP3   OH237871   6.175   5.530   5.512 -0.1398 -0.5113 -0.7404
12643TIP3    H137872   6.250   5.550   5.569  0.3596 -0.8877 -1.2581
12643TIP3    H237873   6.126   5.464   5.560 -0.5871  0.3294 -0.0282
12644TIP3   OH237874   6.298   7.737   3.344 -0.1032  0.0197 -0.4064
12644TIP3    H137875   6.243   7.690   3.406 -0.7397  0.8327 -0.3517
12644TIP3    H237876   6.350   7.668   3.301 -0.1972 -0.6100  0.4871
12645TIP3   OH237877   4.999   6.399   4.019  0.3588 -0.0086  0.2854
12645TIP3    H137878   4.974   6.393   4.111  1.3804 -2.4158  0.4424
12645TIP3    H237879   5.039   6.314   3.999 -1.2184 -0.1003 -2.7939
12646TIP3   OH237880   7.776   0.493   4.440  0.1962 -0.7161 -1.1553
12646TIP3    H137881   7.750   0.432   4.510  2.7959  0.6437  1.0829
12646TIP3    H237882   7.706   0.558   4.438 -0.1636 -1.0625 -0.1664
12647TIP3   OH237883   4.907   5.942   5.460  0.0990  0.3996 -0.0321
12647TIP3    H137884   4.920   6.037   5.464 -2.4483  0.8562 -2.0085
12647TIP3    H237885   4.950   5.916   5.378 -0.4939  0.0558 -0.2298
12648TIP3   OH237886   6.844   5.638   5.182  0.0682 -0.2657 -0.2011
12648TIP3    H137887   6.824   5.708   5.244  2.0632 -1.2208  1.5962
12648TIP3    H237888   6.882   5.682   5.107  0.3863  0.6739  0.5033
12649TIP3   OH237889   4.847   5.242   4.833 -0.1565  0.4735 -0.2790
12649TIP3    H137890   4.901   5.208   4.904  0.9552  1.7807 -0.4626
12649TIP3    H237891   4.910   5.260   4.762 -1.0228  0.7082 -1.0007
12650TIP3   OH237892   6.717   5.955   5.041 -0.6257 -0.0824 -0.5370
12650TIP3    H137893   6.780   5.952   5.113 -0.2749 -0.2411 -0.8425
12650TIP3    H237894   6.647   6.012   5.072  0.0827  0.7832 -0.5127
12651TIP3   OH237895   6.383   5.261   5.288 -1.0173  0.3535 -0.4552
12651TIP3    H137896   6.377   5.212   5.369 -0.2904 -0.0950 -0.6680
12651TIP3    H237897   6.476   5.260   5.265 -1.2984 -0.0860 -1.6319
12652TIP3   OH237898   7.810   6.370   3.806 -0.4020 -0.0353 -0.4455
12652TIP3    H137899   7.818   6.275   3.797 -0.6783 -0.0856 -0.1907
12652TIP3    H237900   7.880   6.406   3.751 -0.5613 -0.3775 -0.8776
12653TIP3   OH237901   6.286   4.394   5.008 -0.0055 -0.0532  0.1151
12653TIP3    H137902   6.286   4.483   4.973  0.8695 -0.6695 -1.5281
12653TIP3    H237903   6.346   4.346   4.951  0.9599 -1.2745  2.1173
12654TIP3   OH237904   8.482   7.262   1.849 -0.3113  0.0662 -0.0272
12654TIP3    H137905   8.424   7.220   1.787  0.0003  2.8328 -2.3107
12654TIP3    H237906   8.425   7.319   1.901 -0.1520 -0.0324  0.2569
12655TIP3   OH237907   6.612   5.791   3.574  0.7569  0.3549  0.4041
12655TIP3    H137908   6.688   5.755   3.620  1.0459 -1.2564 -1.2559
12655TIP3    H237909   6.635   5.783   3.481 -0.1814  2.6878 -0.0563
12656TIP3   OH237910   5.812   5.684   5.960 -0.1705 -0.4101 -0.4477
12656TIP3    H137911   5.861   5.622   5.905 -1.3351 -1.5416 -0.2483
12656TIP3    H237912   5.772   5.629   6.027  0.1066  0.7968  0.7087
12657TIP3   OH237913   8.257  -0.009   3.389 -0.1993 -0.1804  0.5332
12657TIP3    H137914   8.281   0.006   3.481 -0.8019  0.9792  0.5078
12657TIP3    H237915   8.339   0.004   3.341  0.1492 -0.9346  0.9243
12658TIP3   OH237916   4.697   5.837   6.665 -0.2655  0.2225  0.9837
12658TIP3    H137917   4.730   5.914   6.619 -0.4461 -1.6120 -2.3541
12658TIP3    H237918   4.602   5.841   6.652 -0.2242 -0.8283  0.3100
12659TIP3   OH237919   6.387   4.975   6.351 -0.1813  0.1621 -0.0906
12659TIP3    H137920   6.344   4.980   6.266 -0.4573  0.3006  0.0576
12659TIP3    H237921   6.358   5.053   6.398 -0.6553 -0.3094  0.4178
12660TIP3   OH237922   1.262   0.847   2.914 -0.2903 -0.3582  0.6841
12660TIP3    H137923   1.308   0.780   2.965 -1.0060  0.3877  2.3411
12660TIP3    H237924   1.319   0.924   2.919 -0.7115 -0.0631  0.9985
12661TIP3   OH237925   5.380   1.837   1.820  0.1796  0.0177 -0.4126
12661TIP3    H137926   5.337   1.868   1.900 -0.1467  0.3502 -0.7136
12661TIP3    H237927   5.429   1.913   1.788  1.6775 -0.5982  0.3742
12662TIP3   OH237928   4.635   0.288   3.123  0.1810  0.0022  0.2379
12662TIP3    H137929   4.555   0.335   3.101  0.2637 -0.9081 -2.1906
12662TIP3    H237930   4.623   0.201   3.085  1.6631 -0.6544  1.2369
12663TIP3   OH237931   7.119   7.673   4.675  0.0413  0.3997  0.1965
12663TIP3    H137932   7.157   7.625   4.601  2.2871 -0.1263  1.6282
12663TIP3    H237933   7.158   7.760   4.669 -3.3391  1.8859 -1.8710
12664TIP3   OH237934   1.886   6.721   2.621  0.4105 -0.0563 -0.3550
12664TIP3    H137935   1.946   6.652   2.592  2.5148  0.6507  2.0753
12664TIP3    H237936   1.856   6.692   2.707 -0.3266  1.0800 -0.2172
12665TIP3   OH237937   3.408   0.977   5.492  0.4563 -0.5594  0.7633
12665TIP3    H137938   3.370   1.054   5.449  0.1937 -0.2275  1.5912
12665TIP3    H237939   3.486   0.957   5.440 -0.7371 -1.1343 -0.8402
12666TIP3   OH237940   0.408   6.361   4.101 -0.3671 -0.2085 -0.0460
12666TIP3    H137941   0.407   6.400   4.188 -1.1359 -1.5166  0.5335
12666TIP3    H237942   0.317   6.362   4.073 -0.4260 -1.7976  0.0703
12667TIP3   OH237943   2.098   0.587   1.593  0.4338 -0.2164  0.3702
12667TIP3    H137944   2.106   0.492   1.589 -0.8597 -0.2463 -2.3397
12667TIP3    H237945   2.013   0.602   1.633  0.0242 -0.2275 -0.4863
12668TIP3   OH237946   6.536   6.127   5.094 -0.2819 -0.0285 -0.2411
12668TIP3    H137947   6.492   6.114   5.010 -1.9671 -0.4905  0.6951
12668TIP3    H237948   6.467   6.154   5.154  1.0837  1.3105  0.7760
12669TIP3   OH237949   3.792   0.179   4.250 -0.5035  0.0884 -0.4076
12669TIP3    H137950   3.746   0.096   4.259 -0.4918  0.2346  1.0854
12669TIP3    H237951   3.749   0.222   4.176  0.1395 -1.6493 -1.8346
12670TIP3   OH237952   0.866   6.358   4.069  0.6017  0.3705 -0.2336
12670TIP3    H137953   0.844   6.265   4.066  2.2458 -0.0381 -0.0889
12670TIP3    H237954   0.794   6.401   4.022  0.8021 -1.1567 -1.9793
12671TIP3   OH237955   0.662   5.555   4.676 -0.3173 -0.3389  0.1650
12671TIP3    H137956   0.636   5.494   4.745  0.2514 -1.5313 -0.6547
12671TIP3    H237957   0.737   5.512   4.634 -2.1926 -0.7948 -2.8089
12672TIP3   OH237958   7.547   5.321   3.727  0.0542  0.4940 -0.3057
12672TIP3    H137959   7.609   5.254   3.700 -0.8805 -0.2911 -0.5166
12672TIP3    H237960   7.550   5.320   3.823 -1.4688 -1.2957 -0.2517
12673TIP3   OH237961   2.078  -0.007   4.601 -0.0996  0.4746 -0.7946
12673TIP3    H137962   2.009  -0.017   4.666  0.4271 -0.5314 -0.3705
12673TIP3    H237963   2.128   0.069   4.631 -0.3239  0.4916 -0.4603
12674TIP3   OH237964   7.339   5.272   6.040  0.2597  0.2976  0.2608
12674TIP3    H137965   7.246   5.290   6.027  0.0526 -1.3881 -0.6817
12674TIP3    H237966   7.346   5.177   6.036  1.5479  0.1831  3.6631
12675TIP3   OH237967   1.591   6.100   2.755  0.5917 -0.1458 -0.1599
12675TIP3    H137968   1.566   6.153   2.680  0.1925 -0.4271 -0.2229
12675TIP3    H237969   1.509   6.080   2.799  0.8581  0.3866  0.5996
12676TIP3   OH237970   7.695   6.128   3.416  0.6088 -0.1583  0.0157
12676TIP3    H137971   7.639   6.064   3.461 -2.3711  0.6566 -2.3807
12676TIP3    H237972   7.697   6.099   3.325  3.0820  0.5778 -0.2043
12677TIP3   OH237973   5.329   1.622   0.077 -0.5200  0.5630  0.0173
12677TIP3    H137974   5.288   1.551   0.127  0.1950 -1.4437 -2.1751
12677TIP3    H237975   5.262   1.650   0.015  0.3417 -0.5379 -1.4200
12678TIP3   OH237976   7.044   6.131   5.216 -0.3598  0.0651 -0.0098
12678TIP3    H137977   7.129   6.086   5.218 -0.5810 -0.3169  0.6918
12678TIP3    H237978   7.050   6.189   5.140  0.2626 -0.4856 -0.3853
12679TIP3   OH237979   7.391   6.047   5.496 -0.0105  0.2367  0.0539
12679TIP3    H137980   7.441   6.128   5.507  0.5782  0.1153 -1.5687
12679TIP3    H237981   7.390   6.033   5.401  1.7340 -2.8081  0.4524
12680TIP3   OH237982   7.000   5.728   4.961 -0.6737  0.0718 -0.0040
12680TIP3    H137983   7.064   5.675   4.914 -0.3885 -0.5324  1.0351
12680TIP3    H237984   6.953   5.776   4.893  0.0663 -0.3983 -0.8577
12681TIP3   OH237985   0.669   5.416   3.960 -0.2861  0.0829 -0.0622
12681TIP3    H137986   0.585   5.373   3.947 -0.7465  0.7261  0.7720
12681TIP3    H237987   0.695   5.392   4.050 -0.6816  1.7583  0.5222
12682TIP3   OH237988   8.121   6.574   3.256 -0.4118 -0.9061  0.2699
12682TIP3    H137989   8.198   6.614   3.294 -1.0552 -0.3836  1.0385
12682TIP3    H237990   8.101   6.628   3.179 -0.2662 -0.7958  0.3095
12683TIP3   OH237991   7.692   5.827   3.474  0.0207  0.0777 -0.2887
12683TIP3    H137992   7.656   5.850   3.560 -0.4057  2.2895 -1.0214
12683TIP3    H237993   7.623   5.850   3.412  2.1183  3.2286 -1.6089
12684TIP3   OH237994   6.063   4.371   5.459  0.6663 -0.0550 -0.5970
12684TIP3    H137995   6.127   4.372   5.387  1.7454  0.9344  0.3456
12684TIP3    H237996   5.983   4.335   5.420  1.4954 -0.3394 -2.0665
12685TIP3   OH237997   7.504   3.505   6.152 -0.1986  0.2340  0.3878
12685TIP3    H137998   7.453   3.586   6.155 -0.0576  0.4479 -1.8024
12685TIP3    H237999   7.534   3.491   6.242 -0.8466  2.2013  0.9254
12686TIP3   OH238000   2.198   0.197   2.760  0.1533  0.6637  0.4377
12686TIP3    H138001   2.240   0.254   2.824  1.5180  1.2002 -0.9173
12686TIP3    H238002   2.201   0.246   2.678 -0.4014 -0.5549 -0.3243
12687TIP3   OH238003   7.196   5.547   6.179  0.6039  0.7695 -1.0757
12687TIP3    H138004   7.281   5.550   6.135  1.9965 -0.5056  1.4256
12687TIP3    H238005   7.164   5.459   6.161  0.9635  0.4064  0.0433
12688TIP3   OH238006   3.019   0.203   3.878  0.1860  0.0723  0.7246
12688TIP3    H138007   3.062   0.212   3.964  0.4599 -1.0646  0.7204
12688TIP3    H238008   3.033   0.111   3.855  0.6551  0.5232 -0.8258
12689TIP3   OH238009   0.916   5.799   4.667 -0.5324 -0.1320 -0.1750
12689TIP3    H138010   0.996   5.753   4.643  0.8168  1.8044  0.4426
12689TIP3    H238011   0.884   5.752   4.744 -0.0456 -0.9738 -0.4734
12690TIP3   OH238012   0.359   6.676   4.462  0.0324 -0.6631 -0.3874
12690TIP3    H138013   0.365   6.665   4.557  0.5024 -0.0431 -0.3414
12690TIP3    H238014   0.346   6.770   4.450 -2.6454 -1.0464 -0.8248
12691TIP3   OH238015   7.576   3.557   3.540 -0.2636  0.7802  0.3361
12691TIP3    H138016   7.637   3.575   3.468 -1.2143 -1.2341 -1.0291
12691TIP3    H238017   7.632   3.528   3.612  0.6006  1.5250 -0.0218
12692TIP3   OH238018   7.085   5.813   4.352 -0.1981 -0.3638  0.7233
12692TIP3    H138019   7.023   5.831   4.282  0.6691 -1.0622 -0.2309
12692TIP3    H238020   7.045   5.852   4.430  0.2139  3.0822 -0.7022
12693TIP3   OH238021   8.006   4.519   4.762 -0.2471 -0.5447  0.7210
12693TIP3    H138022   7.989   4.540   4.670  1.7265 -0.9270  0.2271
12693TIP3    H238023   8.038   4.429   4.760  2.6439  0.3904  1.3888
12694TIP3   OH238024   5.827   6.486   5.080  0.6346  0.5769  0.2707
12694TIP3    H138025   5.743   6.441   5.079  1.4879 -1.0248 -0.2348
12694TIP3    H238026   5.818   6.555   5.014 -0.4051  0.6605  0.4877
12695TIP3   OH238027   0.442   6.215   2.921  0.1522 -0.0871  0.1477
12695TIP3    H138028   0.359   6.169   2.905 -1.0429  1.8823  0.5606
12695TIP3    H238029   0.505   6.145   2.937 -2.2288 -1.5530  3.7138
12696TIP3   OH238030   8.360   7.345   4.674 -0.4007  0.8247  0.6516
12696TIP3    H138031   8.315   7.427   4.652  0.1741  0.3410 -2.5965
12696TIP3    H238032   8.290   7.288   4.706 -1.1149  1.9585  1.1743
12697TIP3   OH238033   1.037   6.888   3.406  0.2219  0.1692  0.0352
12697TIP3    H138034   1.028   6.912   3.498 -0.9454  0.1782 -0.0769
12697TIP3    H238035   1.027   6.970   3.358 -1.3278 -0.1395 -0.2088
12698TIP3   OH238036   8.031   4.227   4.807  0.2172  0.1405 -0.1214
12698TIP3    H138037   8.088   4.167   4.758 -1.6031 -0.0413 -2.0903
12698TIP3    H238038   7.943   4.193   4.792 -0.6100  1.7611  0.9573
12699TIP3   OH238039   2.100   5.721   3.986 -0.5269  0.2286  0.5909
12699TIP3    H138040   2.169   5.701   4.049  1.5064 -1.8330 -2.1823
12699TIP3    H238041   2.039   5.648   3.994  0.9528 -1.2627 -1.4419
12700TIP3   OH238042   0.998   6.488   4.267 -0.0077  0.5846  0.4907
12700TIP3    H138043   0.971   6.421   4.329  1.1787  0.6035  1.0462
12700TIP3    H238044   0.947   6.470   4.188  0.2806 -0.9561  0.6365
12701TIP3   OH238045   2.135   3.871   3.528  0.1941 -0.0720 -0.1489
12701TIP3    H138046   2.061   3.866   3.467  0.1666  0.7662 -0.1879
12701TIP3    H238047   2.135   3.786   3.572 -3.3394  1.3362  2.7997
12702TIP3   OH238048   0.397   4.114   5.935  0.1079  0.2209  0.1980
12702TIP3    H138049   0.369   4.029   5.969  0.5231 -0.5570 -1.3567
12702TIP3    H238050   0.340   4.177   5.979 -0.2290 -0.8572  1.3362
12703TIP3   OH238051   0.117   3.898   3.892  0.0606 -0.0063 -0.4600
12703TIP3    H138052   0.154   3.923   3.807  0.4434 -2.3345 -1.0142
12703TIP3    H238053   0.023   3.908   3.880 -0.0584 -2.5816 -1.9604
12704TIP3   OH238054   8.185   6.419   5.365 -0.2385  0.3349  0.4896
12704TIP3    H138055   8.208   6.342   5.313 -2.2423 -0.0804  0.1858
12704TIP3    H238056   8.089   6.424   5.360 -0.2683  1.7757  2.0273
12705TIP3   OH238057   0.805   5.098   2.466  0.3759  0.4168  0.2033
12705TIP3    H138058   0.872   5.097   2.534  1.3899  0.2494 -0.7751
12705TIP3    H238059   0.797   5.006   2.439  0.5184  0.5821 -0.4128
12706TIP3   OH238060   7.567   6.231   5.598  0.0530  1.0384  0.2451
12706TIP3    H138061   7.581   6.190   5.683  1.1418 -0.7873 -0.7908
12706TIP3    H238062   7.648   6.280   5.582  0.7061 -0.3032 -0.6494
12707TIP3   OH238063   7.220   1.947   2.853  0.2509  0.1500  0.0683
12707TIP3    H138064   7.218   1.858   2.890  0.6380  1.1806  2.6989
12707TIP3    H238065   7.313   1.967   2.845  0.1986 -0.7165 -3.2342
12708TIP3   OH238066   7.149   5.001   3.687  0.5502 -0.5535 -0.9516
12708TIP3    H138067   7.203   5.079   3.675 -1.0389  0.7468  0.0208
12708TIP3    H238068   7.072   5.033   3.735 -1.3739 -2.2028 -2.8410
12709TIP3   OH238069   7.898   4.072   2.517  0.5263  0.5253 -0.1469
12709TIP3    H138070   7.821   4.057   2.462 -0.1044  0.0675  0.8416
12709TIP3    H238071   7.891   4.006   2.587  0.4137  2.1632  1.4344
12710TIP3   OH238072   6.677   4.942   5.727  0.6051 -0.7935 -0.0645
12710TIP3    H138073   6.609   4.930   5.660  2.1774 -1.9945 -1.4774
12710TIP3    H238074   6.673   4.862   5.780 -0.7937  0.2525  1.4793
12711TIP3   OH238075   7.301   5.751   4.646 -0.1175 -0.1783 -0.2915
12711TIP3    H138076   7.265   5.799   4.720  0.7172 -0.3982  0.2688
12711TIP3    H238077   7.225   5.729   4.592 -0.6896  0.3001  0.3118
12712TIP3   OH238078   7.338   3.978   4.675 -0.3344 -0.1981 -0.3604
12712TIP3    H138079   7.385   3.915   4.619  2.8915 -0.4288  2.4226
12712TIP3    H238080   7.346   3.942   4.763  2.8956  4.7070  1.5380
12713TIP3   OH238081   0.310   6.605   4.750 -0.2251 -0.0975  0.6045
12713TIP3    H138082   0.266   6.635   4.830  0.7590 -0.0102  1.1127
12713TIP3    H238083   0.269   6.521   4.731 -0.3717 -0.1801  1.2729
12714TIP3   OH238084   7.802   6.422   3.163  0.5537 -0.9527  0.3421
12714TIP3    H138085   7.855   6.458   3.093 -0.5607 -2.5419 -1.3768
12714TIP3    H238086   7.865   6.397   3.231  1.4529  2.7351  0.9811
12715TIP3   OH238087   8.143   7.871   4.759 -0.8017 -0.5124 -0.6229
12715TIP3    H138088   8.236   7.885   4.778 -1.1779  3.0273 -1.0889
12715TIP3    H238089   8.096   7.910   4.833 -1.9419  0.2901 -1.7302
12716TIP3   OH238090   0.385   4.683   5.692  0.5978 -0.6613 -0.1580
12716TIP3    H138091   0.349   4.629   5.762  0.5717 -0.3541  0.0646
12716TIP3    H238092   0.418   4.620   5.628  2.6523 -0.9774  1.1453
12717TIP3   OH238093   1.309   7.445   3.368 -0.3833 -0.4391 -0.3057
12717TIP3    H138094   1.313   7.492   3.451 -0.0156  0.0509 -0.5974
12717TIP3    H238095   1.363   7.367   3.381  0.3118  0.0349 -0.3390
12718TIP3   OH238096   8.204   5.201   3.067  0.6463  1.1157 -0.6374
12718TIP3    H138097   8.190   5.208   2.973 -3.7986 -1.9741 -0.3106
12718TIP3    H238098   8.135   5.255   3.106  1.4604  1.0844  0.8891
12719TIP3   OH238099   0.815   5.753   2.691 -0.4558 -0.3824  0.1639
12719TIP3    H138100   0.850   5.842   2.694 -2.4598  0.4629 -0.2704
12719TIP3    H238101   0.829   5.724   2.601  0.7705 -0.7534  0.4712
12720TIP3   OH238102   0.819   6.769   3.653  0.2562  0.5603 -0.1657
12720TIP3    H138103   0.912   6.755   3.675  0.6053  3.2926  0.2906
12720TIP3    H238104   0.820   6.795   3.561  0.1252  2.2008  0.2868
12721TIP3   OH238105   6.706   3.905   6.343  0.7478  0.3444  0.0778
12721TIP3    H138106   6.624   3.891   6.295  1.1246 -1.1841 -0.1264
12721TIP3    H238107   6.774   3.899   6.276  1.1030  0.7491  0.3973
12722TIP3   OH238108   7.797   5.850   4.485 -0.0563  0.0613 -0.2829
12722TIP3    H138109   7.865   5.875   4.547  0.2444  0.1838 -0.6569
12722TIP3    H238110   7.806   5.914   4.413 -0.8929  0.3976 -0.0982
12723TIP3   OH238111   7.985   5.329   6.775 -0.4751  0.1558  0.6756
12723TIP3    H138112   7.973   5.234   6.773 -0.0761  0.1190 -0.9554
12723TIP3    H238113   7.983   5.351   6.868  1.0785 -1.6633  1.1830
12724TIP3   OH238114   1.027   1.104   2.887 -0.1430  0.0686 -0.9054
12724TIP3    H138115   1.115   1.128   2.860 -0.2548  1.2990 -0.1915
12724TIP3    H238116   1.005   1.028   2.833  1.6913 -0.7856 -0.4726
12725TIP3   OH238117   6.885   5.862   6.943 -0.1688 -0.2479 -0.1018
12725TIP3    H138118   6.886   5.846   6.849 -0.6531  1.3922 -0.3928
12725TIP3    H238119   6.841   5.786   6.980  0.1565 -0.9668 -1.1772
12726TIP3   OH238120   6.829   7.550   3.277  0.0612 -0.1340 -0.3107
12726TIP3    H138121   6.742   7.512   3.291 -0.5193  0.9512 -0.9117
12726TIP3    H238122   6.873   7.540   3.362 -0.5281 -0.9996 -0.1034
12727TIP3   OH238123   0.409   6.122   3.738 -0.1538 -0.2679  0.1263
12727TIP3    H138124   0.455   6.165   3.666  0.1168  3.2110  2.3042
12727TIP3    H238125   0.472   6.119   3.809 -2.2779  1.7750  2.1617
12728TIP3   OH238126   7.990   6.360   4.786  0.6735  0.3680 -0.2212
12728TIP3    H138127   8.010   6.321   4.871 -1.3258 -2.9778 -1.2015
12728TIP3    H238128   8.033   6.303   4.722 -1.0657  0.6043 -1.6541
12729TIP3   OH238129   0.437   7.128   2.426  0.4868  0.0551 -0.5425
12729TIP3    H138130   0.465   7.200   2.369  0.9718 -0.9435 -1.5860
12729TIP3    H238131   0.380   7.170   2.491  2.2215  1.6921 -0.0028
12730TIP3   OH238132   0.801   6.096   3.500 -0.4705  0.5685  0.4065
12730TIP3    H138133   0.838   6.107   3.588  0.9347 -0.8714  0.0305
12730TIP3    H238134   0.876   6.105   3.441 -1.2437  0.5868 -0.5882
12731TIP3   OH238135   1.047   0.284   3.722 -0.2494 -0.2653  0.0995
12731TIP3    H138136   0.982   0.351   3.699  0.4455 -0.0607 -1.3158
12731TIP3    H238137   1.128   0.334   3.738  0.3483 -0.7856 -1.2635
12732TIP3   OH238138   7.858   7.808   4.445 -0.1083 -0.1408  0.8471
12732TIP3    H138139   7.804   7.871   4.492 -0.0425  1.7290 -1.5040
12732TIP3    H238140   7.948   7.832   4.468 -0.1444 -0.8477  1.7545
12733TIP3   OH238141   8.414   7.519   3.549 -0.4613 -0.3832 -0.0483
12733TIP3    H138142   8.397   7.574   3.474 -0.0912 -0.7778 -0.4259
12733TIP3    H238143   8.405   7.429   3.516  3.5174 -0.6794 -0.6236
12734TIP3   OH238144   7.953   6.817   3.316 -0.2127  0.2808  0.2113
12734TIP3    H138145   8.006   6.822   3.236 -1.6642 -1.2854 -0.8797
12734TIP3    H238146   7.994   6.748   3.368 -0.0735  0.3767  0.2312
12735TIP3   OH238147   7.123   4.162   4.649  0.2908 -0.0783 -0.6310
12735TIP3    H138148   7.188   4.110   4.696  0.8093 -0.4372 -1.7292
12735TIP3    H238149   7.111   4.240   4.703 -0.7053 -1.4387  1.1844
12736TIP3   OH238150   0.173   7.554   3.645  0.3481 -0.2155 -0.4032
12736TIP3    H138151   0.155   7.597   3.728  1.2487 -0.3261 -0.1493
12736TIP3    H238152   0.086   7.537   3.607 -0.0493  0.1697  0.3361
12737TIP3   OH238153   7.086   3.910   5.942  0.1884  0.0652 -0.4310
12737TIP3    H138154   7.179   3.930   5.956 -0.1119  0.6561  0.7108
12737TIP3    H238155   7.055   3.979   5.884  0.5154 -0.2767 -1.0250
12738TIP3   OH238156   6.445   6.281   2.997  0.4472 -0.0819 -0.0783
12738TIP3    H138157   6.512   6.350   2.999  1.0808 -0.7187  1.1657
12738TIP3    H238158   6.430   6.266   2.904  0.5164  1.5229 -0.3751
12739TIP3   OH238159   6.853   4.963   4.591  0.2740  0.1571 -0.4437
12739TIP3    H138160   6.763   4.987   4.568  0.8504  1.8273 -1.0113
12739TIP3    H238161   6.891   5.045   4.624  1.2445 -0.8129  0.8543
12740TIP3   OH238162   2.264   0.107   3.482 -0.3315 -0.3973  0.2583
12740TIP3    H138163   2.307   0.034   3.526 -1.0069 -1.0202 -0.0871
12740TIP3    H238164   2.226   0.067   3.403 -0.2209  0.4435 -0.2247
12741TIP3   OH238165   7.316   4.849   4.238 -0.0024  0.0661 -0.0496
12741TIP3    H138166   7.345   4.758   4.232 -1.3220 -0.3708  0.0144
12741TIP3    H238167   7.344   4.889   4.156  0.6323 -0.3737 -0.0505
12742TIP3   OH238168   0.757   3.761   5.478  0.3125 -0.0275  0.3880
12742TIP3    H138169   0.708   3.730   5.554 -0.3662  0.4711  0.1624
12742TIP3    H238170   0.745   3.856   5.479 -1.1864 -0.1740 -1.3380
12743TIP3   OH238171   0.064   7.636   3.345  0.5266  0.1632  0.2111
12743TIP3    H138172   0.102   7.597   3.267 -1.4869 -3.0592  0.7374
12743TIP3    H238173   0.126   7.615   3.415 -0.1079 -1.4132  0.3280
12744TIP3   OH238174   5.584   7.142   4.152 -0.7591  0.4121  0.1382
12744TIP3    H138175   5.554   7.130   4.061 -0.5579 -0.8942  0.2389
12744TIP3    H238176   5.558   7.232   4.173  1.4704  1.6476 -2.0806
12745TIP3   OH238177   6.274   5.521   5.256 -0.0880  0.2538 -0.1779
12745TIP3    H138178   6.309   5.432   5.254  2.3211  1.1850 -0.1979
12745TIP3    H238179   6.259   5.539   5.348 -0.9746 -0.2929 -0.2015
12746TIP3   OH238180   0.464   7.358   4.320 -0.2014 -0.0524  0.3173
12746TIP3    H138181   0.512   7.440   4.333  0.8282 -0.6580  0.3987
12746TIP3    H238182   0.513   7.312   4.253  0.0791 -1.2596  1.3409
12747TIP3   OH238183   1.937   0.652   3.767 -0.2694  0.2113  0.1330
12747TIP3    H138184   2.030   0.667   3.750 -0.5290  2.4974  0.5323
12747TIP3    H238185   1.935   0.581   3.831  1.2346  0.7985  0.8585
12748TIP3   OH238186   2.911   0.476   2.913  0.0670  0.1522 -0.1348
12748TIP3    H138187   2.875   0.560   2.886 -0.0898 -0.3619 -1.5584
12748TIP3    H238188   2.915   0.481   3.008  0.9293  2.1215 -0.2502
12749TIP3   OH238189   8.010   7.669   4.115  0.2382 -0.4560  0.0105
12749TIP3    H138190   8.022   7.758   4.149 -0.0438  0.2040 -1.5867
12749TIP3    H238191   7.915   7.657   4.112  0.2804 -1.4545  1.8163
12750TIP3   OH238192   0.909   4.506   4.808  0.0491  0.0792  0.1547
12750TIP3    H138193   0.904   4.599   4.830  0.5040 -0.0754  0.9175
12750TIP3    H238194   0.856   4.497   4.729 -1.1483  0.7306  0.8786
12751TIP3   OH238195   1.186   6.942   5.152  0.2885 -0.2517 -0.5966
12751TIP3    H138196   1.218   6.920   5.240  1.8593  0.7199 -0.8996
12751TIP3    H238197   1.096   6.970   5.166  0.4390 -0.3621  0.6832
12752TIP3   OH238198   8.481   6.285   2.799  0.1883 -0.7228  0.2951
12752TIP3    H138199   8.419   6.357   2.788 -1.2331 -1.8020  1.2452
12752TIP3    H238200   8.519   6.273   2.711 -0.1700  0.6133 -0.0527
12753TIP3   OH238201   6.527   6.074   2.642 -0.3039  0.4604  0.1297
12753TIP3    H138202   6.494   5.990   2.673 -1.2731  0.9077  0.3522
12753TIP3    H238203   6.608   6.053   2.595 -1.0917 -0.7156 -0.7379
12754TIP3   OH238204   1.328   7.644   3.564 -0.5425  0.0273 -0.0878
12754TIP3    H138205   1.340   7.735   3.591  0.9707 -0.6486  1.5378
12754TIP3    H238206   1.414   7.617   3.532 -0.7546 -1.1267  0.3182
12755TIP3   OH238207   8.480   5.211   6.530 -0.6375  0.7120 -0.6794
12755TIP3    H138208   8.525   5.204   6.614 -1.9949 -0.2372 -0.0236
12755TIP3    H238209   8.474   5.305   6.514  0.6945  0.8716 -0.3030
12756TIP3   OH238210   8.418   6.121   5.487 -0.2481  0.5008  1.0180
12756TIP3    H138211   8.477   6.099   5.559  1.3486 -1.9523 -0.9543
12756TIP3    H238212   8.331   6.094   5.518  0.3370 -0.0905  2.1865
12757TIP3   OH238213   7.781   5.255   4.713 -0.0173 -0.5199 -0.0864
12757TIP3    H138214   7.711   5.320   4.699 -2.1378 -2.1508  2.4716
12757TIP3    H238215   7.788   5.211   4.628  0.8431  2.3908 -1.6153
12758TIP3   OH238216   2.637   1.189   2.786  0.0670 -0.1232  0.3191
12758TIP3    H138217   2.706   1.126   2.807 -0.7970 -0.8994  0.8483
12758TIP3    H238218   2.585   1.195   2.866 -1.6094 -0.9938 -0.6731
12759TIP3   OH238219   7.069   0.515   5.368 -0.2757 -0.3222 -0.5360
12759TIP3    H138220   7.067   0.502   5.463 -0.0833 -0.2304 -0.5194
12759TIP3    H238221   7.160   0.538   5.349 -0.1578 -1.0213 -0.8299
12760TIP3   OH238222   7.382   6.133   3.528  0.0711  0.5178 -0.0549
12760TIP3    H138223   7.413   6.223   3.531  0.2045  0.4551  0.4782
12760TIP3    H238224   7.287   6.140   3.521  0.0678  0.6966  0.1781
12761TIP3   OH238225   0.204   6.809   1.795 -0.3386 -0.0093 -0.4231
12761TIP3    H138226   0.114   6.796   1.767 -0.8551 -0.4900  1.3947
12761TIP3    H238227   0.199   6.819   1.890  1.4178  0.9333 -0.3988
12762TIP3   OH238228   3.024   0.264   3.616  0.0246  0.1777 -0.1341
12762TIP3    H138229   3.040   0.250   3.709  2.2991 -1.5630 -0.7298
12762TIP3    H238230   2.964   0.193   3.591  0.2071  0.0403 -0.1868
12763TIP3   OH238231   0.736   4.477   5.266 -0.3295 -0.1565  0.1361
12763TIP3    H138232   0.808   4.493   5.205  0.2790 -0.6838  0.7127
12763TIP3    H238233   0.778   4.443   5.345 -1.3166 -1.6038  0.0593
12764TIP3   OH238234   0.024   6.178   3.978 -0.3649  0.2558  0.0792
12764TIP3    H138235   0.005   6.094   3.936  1.4142 -0.1315  0.0104
12764TIP3    H238236   0.083   6.223   3.917 -1.5724  1.7152 -0.0466
12765TIP3   OH238237   0.403   5.887   5.547  0.1402 -0.2747 -0.8135
12765TIP3    H138238   0.420   5.896   5.453 -1.8073  2.1147 -0.9931
12765TIP3    H238239   0.385   5.794   5.559  3.9697 -1.2499 -2.1362
12766TIP3   OH238240   7.483   4.235   5.579  0.2169  0.0749  0.4512
12766TIP3    H138241   7.471   4.329   5.589 -0.0032  0.3767 -2.2183
12766TIP3    H238242   7.395   4.200   5.569  0.2494 -0.5222  2.1769
12767TIP3   OH238243   0.571   6.240   3.557  0.2448 -0.1705 -0.1370
12767TIP3    H138244   0.634   6.175   3.525  0.6493  1.1781 -2.1997
12767TIP3    H238245   0.617   6.323   3.547 -0.5561  0.5113  1.7623
12768TIP3   OH238246   0.357   5.769   3.788 -0.6182  0.2117  0.0170
12768TIP3    H138247   0.265   5.743   3.798  0.3632 -3.6876 -0.4123
12768TIP3    H238248   0.387   5.785   3.877 -1.2063 -0.4471  0.3390
12769TIP3   OH238249   6.204   4.883   5.273  0.5591  0.4545  0.1916
12769TIP3    H138250   6.114   4.874   5.242 -0.1125  0.8929  1.9715
12769TIP3    H238251   6.197   4.936   5.353  2.4727  1.1314 -0.0566
12770TIP3   OH238252   5.336   6.105   6.652 -0.3211 -0.8904  0.4301
12770TIP3    H138253   5.308   6.015   6.666 -0.0036 -0.7851  1.8392
12770TIP3    H238254   5.420   6.111   6.697 -1.3136  0.6583  2.1826
12771TIP3   OH238255   5.928   4.619   5.394 -0.0018  0.8833  0.1892
12771TIP3    H138256   5.975   4.650   5.316  1.4165  1.6266  1.3291
12771TIP3    H238257   5.975   4.540   5.421 -1.3521 -0.2025 -0.5039
12772TIP3   OH238258   4.776   7.763   4.400 -0.5466 -0.0685  0.5650
12772TIP3    H138259   4.714   7.722   4.340 -0.4950 -0.5672  0.8513
12772TIP3    H238260   4.721   7.809   4.464 -0.5941  1.5711 -0.6099
12773TIP3   OH238261   6.038   7.736   4.463  0.1504  0.1088 -0.1751
12773TIP3    H138262   5.993   7.700   4.539  1.0294 -1.7200 -0.5080
12773TIP3    H238263   6.008   7.827   4.459 -1.0299 -0.1812  1.4829
12774TIP3   OH238264   2.652   0.294   2.677  0.2238  0.1589  0.1759
12774TIP3    H138265   2.575   0.320   2.627  0.6971 -1.2268 -1.3090
12774TIP3    H238266   2.643   0.199   2.686  1.1978  0.1389  0.9510
12775TIP3   OH238267   2.309   0.356   3.390 -0.2191  0.3969  0.4585
12775TIP3    H138268   2.305   0.270   3.432 -1.9157  0.1972 -0.0659
12775TIP3    H238269   2.294   0.339   3.297 -0.0535  1.1959  0.2763
12776TIP3   OH238270   0.627   5.323   3.588  0.4217 -0.1698 -0.1254
12776TIP3    H138271   0.557   5.384   3.565  2.8390  2.0557 -1.7748
12776TIP3    H238272   0.630   5.325   3.684 -0.5341  1.1126 -0.1115
12777TIP3   OH238273   8.187   5.924   5.253  0.2807 -0.3126  0.4435
12777TIP3    H138274   8.252   5.973   5.202  0.9868 -0.3819  1.2761
12777TIP3    H238275   8.132   5.992   5.292 -1.5714 -0.2911 -2.0706
12778TIP3   OH238276   5.866   5.113   5.663 -0.6364 -0.5271 -0.6761
12778TIP3    H138277   5.851   5.018   5.663 -2.1422 -0.2896 -0.4833
12778TIP3    H238278   5.793   5.149   5.713 -1.0354  0.8901 -2.2379
12779TIP3   OH238279   1.565   3.364   5.441  0.1259 -1.0037  0.2726
12779TIP3    H138280   1.529   3.276   5.453  0.3251 -1.1146  0.0669
12779TIP3    H238281   1.653   3.349   5.406 -0.0260 -0.7131 -0.2359
12780TIP3   OH238282   1.543   5.432   2.955 -0.2974 -0.2182 -0.3412
12780TIP3    H138283   1.579   5.416   3.042  0.5020 -0.1326 -0.6498
12780TIP3    H238284   1.450   5.451   2.970 -0.5397 -1.8462  0.3499
12781TIP3   OH238285   1.133   3.115   3.662  0.1231 -0.5540 -0.3317
12781TIP3    H138286   1.222   3.102   3.695  0.3955  0.6148 -0.6057
12781TIP3    H238287   1.144   3.150   3.574 -0.6147 -0.9100 -0.5720
12782TIP3   OH238288   2.914   0.204   3.085 -0.8798 -0.1201  0.4927
12782TIP3    H138289   2.980   0.136   3.099 -2.5347 -1.8341  0.3136
12782TIP3    H238290   2.901   0.243   3.171  0.3633  0.2300  0.5258
12783TIP3   OH238291   7.986   4.882   5.869 -0.0018  0.2518 -0.1234
12783TIP3    H138292   7.927   4.810   5.891 -0.2036 -0.0245 -1.5088
12783TIP3    H238293   8.074   4.845   5.877 -0.0977 -0.0696 -0.5404
12784TIP3   OH238294   1.011   6.215   4.394 -0.1280 -0.4683  0.1948
12784TIP3    H138295   0.920   6.197   4.369 -0.3981  0.4701  0.4671
12784TIP3    H238296   1.055   6.130   4.388 -0.6900 -0.6677 -1.3105
12785TIP3   OH238297   8.350   3.984   3.840  0.1855 -0.5913  0.1173
12785TIP3    H138298   8.307   4.036   3.909  1.9437  1.0390  0.0416
12785TIP3    H238299   8.324   4.027   3.759 -0.6761 -1.6051 -0.1515
12786TIP3   OH238300   4.722   0.365   1.329  0.0905  0.0285 -0.1328
12786TIP3    H138301   4.809   0.407   1.327 -0.2003  0.5716 -1.5218
12786TIP3    H238302   4.672   0.418   1.391 -0.0955  1.4167 -1.4417
12787TIP3   OH238303   2.284   7.116   0.123  0.0845 -0.1505 -0.0051
12787TIP3    H138304   2.319   7.030   0.102 -1.9434 -1.3254  1.1924
12787TIP3    H238305   2.192   7.100   0.145  0.1009  2.0408  1.9523
12788TIP3   OH238306   7.727   5.717   0.904 -0.2405 -0.1996  0.3157
12788TIP3    H138307   7.645   5.720   0.954  0.3127 -1.7899  1.3425
12788TIP3    H238308   7.707   5.663   0.828 -0.5870  0.7712 -0.2982
12789TIP3   OH238309   5.747   0.578   5.710 -0.3643  0.0163 -0.3673
12789TIP3    H138310   5.831   0.613   5.681 -0.7039  1.8560  0.7980
12789TIP3    H238311   5.770   0.515   5.778  0.1107 -0.1296 -0.6592
12790TIP3   OH238312   0.318   5.535   6.216  0.4952 -0.0189  0.2458
12790TIP3    H138313   0.330   5.506   6.306 -0.9544 -1.7169 -0.0658
12790TIP3    H238314   0.375   5.478   6.164 -0.6015 -0.7909 -0.1423
12791TIP3   OH238315   6.810   3.199   0.643 -0.0946 -0.2035  0.5814
12791TIP3    H138316   6.717   3.217   0.630  0.4701  2.8015  0.5517
12791TIP3    H238317   6.824   3.116   0.597 -2.2854  0.3947 -1.2712
12792TIP3   OH238318   7.901   6.083   4.317  0.2208  0.0956  0.2578
12792TIP3    H138319   7.994   6.067   4.302  0.1353  0.7564 -1.0072
12792TIP3    H238320   7.893   6.178   4.319 -0.9136  0.0957 -2.8370
12793TIP3   OH238321   8.464   3.453   0.088  0.4506  0.3448  0.4457
12793TIP3    H138322   8.388   3.398   0.105  0.2276  0.0484 -1.4295
12793TIP3    H238323   8.460   3.472  -0.006  2.3939  0.7622  0.4191
12794TIP3   OH238324   8.116   3.029   0.375  0.3465  1.0273  0.1007
12794TIP3    H138325   8.070   3.084   0.438  0.4282  0.4817  0.6327
12794TIP3    H238326   8.096   2.940   0.401 -1.4708  0.7666 -1.9957
12795TIP3   OH238327   4.286   0.449   5.370  0.0778 -0.4715 -0.5692
12795TIP3    H138328   4.248   0.456   5.458 -1.8363 -0.9215 -1.3237
12795TIP3    H238329   4.302   0.355   5.359  0.0936 -0.4423 -0.7899
12796TIP3   OH238330   6.566   1.356   0.388  0.1111 -0.1252 -0.2229
12796TIP3    H138331   6.569   1.362   0.483  0.8185  0.3832 -0.2738
12796TIP3    H238332   6.604   1.270   0.368 -0.3381 -0.3691 -0.0345
12797TIP3   OH238333   1.251   5.347   4.108 -0.1605  0.1089  0.5673
12797TIP3    H138334   1.187   5.275   4.107 -0.4252  0.3436  0.4662
12797TIP3    H238335   1.332   5.306   4.138  0.1836 -0.6471 -1.3376
12798TIP3   OH238336   6.541   4.284   0.377 -0.3594  0.3004 -0.5779
12798TIP3    H138337   6.602   4.313   0.310  0.8847 -0.6185  0.1482
12798TIP3    H238338   6.546   4.188   0.375 -0.2029  0.2680  0.9200
12799TIP3   OH238339   1.310   7.361   4.592 -1.1681 -0.2901 -0.6489
12799TIP3    H138340   1.387   7.417   4.600 -0.6335 -1.1109 -0.0071
12799TIP3    H238341   1.262   7.373   4.674 -0.9462 -0.9262 -0.4229
12800TIP3   OH238342   8.243   4.816   0.610 -0.0803  0.2760 -0.0459
12800TIP3    H138343   8.247   4.781   0.700 -0.0014  0.2429 -0.0621
12800TIP3    H238344   8.225   4.909   0.621 -0.9736  0.1025 -0.0204
12801TIP3   OH238345   3.939   0.086   6.409  0.7225  0.5754  0.0689
12801TIP3    H138346   3.917   0.078   6.502 -0.2057 -2.4630 -0.3624
12801TIP3    H238347   4.034   0.095   6.407  0.7812  0.2768  1.2892
12802TIP3   OH238348   8.421   4.964   5.636  0.9528 -0.2838 -0.2651
12802TIP3    H138349   8.502   4.937   5.681  0.2227 -0.9624  0.6708
12802TIP3    H238350   8.367   4.885   5.634 -0.1694  0.4571  0.1736
12803TIP3   OH238351   1.854   5.534   6.226 -0.6567 -0.2863 -0.4728
12803TIP3    H138352   1.786   5.482   6.185 -2.4965  2.0352 -0.4597
12803TIP3    H238353   1.858   5.503   6.316 -0.4453 -1.6207 -0.9369
12804TIP3   OH238354   8.211   5.338   4.990  0.2609  0.2557 -0.0007
12804TIP3    H138355   8.220   5.433   5.000  0.2492  0.2192  0.3536
12804TIP3    H238356   8.152   5.328   4.915  0.3759  0.5257 -0.1311
12805TIP3   OH238357   0.854   5.921   5.412  0.6151 -0.3182  0.0314
12805TIP3    H138358   0.826   6.007   5.380  2.0350  0.3079  0.4309
12805TIP3    H238359   0.948   5.930   5.425  0.5930 -1.5985  1.1695
12806TIP3   OH238360   0.725   6.138   6.413  0.0296 -0.7176 -0.6664
12806TIP3    H138361   0.745   6.171   6.500 -1.0590 -0.1182 -0.6276
12806TIP3    H238362   0.794   6.174   6.357 -0.7544  1.1351 -0.5049
12807TIP3   OH238363   8.412   3.958   1.199  0.0384  0.3261  0.5717
12807TIP3    H138364   8.437   4.038   1.245  0.4032  0.3922  0.2694
12807TIP3    H238365   8.434   3.976   1.107 -1.5279  0.5461  0.2233
12808TIP3   OH238366   1.298   6.026   6.129 -0.6742 -0.2807 -0.4955
12808TIP3    H138367   1.333   6.079   6.057 -0.4808  0.9681  0.4813
12808TIP3    H238368   1.210   6.061   6.144  0.4831  1.7420  2.0133
12809TIP3   OH238369   6.925   1.328   1.813 -0.0078 -0.1687 -0.0183
12809TIP3    H138370   6.975   1.283   1.881 -0.4536 -0.9284 -0.1894
12809TIP3    H238371   6.920   1.265   1.741 -1.9971 -0.4566  0.3496
12810TIP3   OH238372   3.800   7.394   5.687 -0.6016  0.5868 -0.4713
12810TIP3    H138373   3.752   7.389   5.604 -2.5969  0.0312  0.6856
12810TIP3    H238374   3.868   7.459   5.671 -1.2669  0.8579 -2.3916
12811TIP3   OH238375   2.325   7.270   5.462  0.1291  0.3820 -0.0419
12811TIP3    H138376   2.420   7.283   5.451  0.5731 -1.5965  1.1736
12811TIP3    H238377   2.302   7.327   5.535  1.0036 -1.4265  1.6903
12812TIP3   OH238378   2.206   7.083   6.731 -0.1406 -0.7610 -0.2311
12812TIP3    H138379   2.142   7.068   6.800 -1.8300  0.9030 -1.3934
12812TIP3    H238380   2.189   7.015   6.667 -1.2940  0.1816 -0.9255
12813TIP3   OH238381   8.230   4.033   4.708  0.3123  0.1370  0.0775
12813TIP3    H138382   8.242   3.968   4.639 -0.5876  0.6784 -0.5974
12813TIP3    H238383   8.316   4.075   4.715  1.0156 -1.4026  0.8181
12814TIP3   OH238384   3.469   0.505   5.965  0.0793  0.2181  0.0784
12814TIP3    H138385   3.440   0.446   6.034 -1.8385  1.6735  0.5502
12814TIP3    H238386   3.524   0.569   6.011  0.9684 -0.3490 -0.1913
12815TIP3   OH238387   6.550   3.729   0.597 -0.3005 -0.0389  0.1887
12815TIP3    H138388   6.613   3.701   0.531  0.7832 -0.0023  1.1702
12815TIP3    H238389   6.509   3.649   0.627  0.2559 -0.2159  0.4916
12816TIP3   OH238390   1.070   7.564   5.696 -0.2051  0.0841  0.1462
12816TIP3    H138391   1.128   7.577   5.771 -1.6389 -0.4011  1.3346
12816TIP3    H238392   1.038   7.652   5.675 -0.1063  0.1651  0.3368
12817TIP3   OH238393   3.226   6.417   3.041 -0.2537  0.4443 -0.1487
12817TIP3    H138394   3.295   6.350   3.038 -0.7574 -0.0100 -1.8541
12817TIP3    H238395   3.144   6.368   3.038 -0.6332  1.1129 -0.9004
12818TIP3   OH238396   1.197   7.795   4.280  0.1428  0.0667 -0.2189
12818TIP3    H138397   1.280   7.774   4.237  1.1271  1.4445  0.9147
12818TIP3    H238398   1.224   7.839   4.361 -1.6541 -2.1138  1.6043
12819TIP3   OH238399   6.129   0.105   4.412 -0.0123  0.3104  0.3857
12819TIP3    H138400   6.185   0.033   4.382 -1.4391 -0.8772  0.4830
12819TIP3    H238401   6.187   0.181   4.416  1.4317 -0.7388 -0.1391
12820TIP3   OH238402   3.813   1.991   5.121 -0.3160  0.6067 -0.4780
12820TIP3    H138403   3.900   1.958   5.145 -0.6784 -0.9975 -1.3310
12820TIP3    H238404   3.812   2.081   5.155  2.8665  1.7709 -3.2036
12821TIP3   OH238405   1.147   6.286   4.034 -0.7902 -0.0617  0.4188
12821TIP3    H138406   1.101   6.206   4.060  0.5760 -1.1377 -0.4275
12821TIP3    H238407   1.077   6.347   4.009 -1.8234 -1.1035  0.7197
12822TIP3   OH238408   6.916   2.904   0.119 -0.2438 -0.2034 -0.5341
12822TIP3    H138409   6.916   2.811   0.095  0.5366 -0.6455  1.1168
12822TIP3    H238410   6.842   2.913   0.180 -0.2388  0.2393 -0.5920
12823TIP3   OH238411   1.294   7.388   5.995 -0.1328  0.1824  0.1406
12823TIP3    H138412   1.292   7.292   6.001  0.0640  0.0555 -1.6197
12823TIP3    H238413   1.368   7.414   6.050  2.0402 -0.9303 -2.1700
12824TIP3   OH238414   5.890   0.451   6.024 -0.0416 -0.1810  0.5548
12824TIP3    H138415   5.963   0.494   6.068 -0.0767 -0.3332  0.7653
12824TIP3    H238416   5.815   0.508   6.042  0.3151  0.7887 -0.9655
12825TIP3   OH238417   6.578   0.315   5.704 -0.4277  0.2198  0.3744
12825TIP3    H138418   6.520   0.342   5.776  1.0936 -2.9019  2.8884
12825TIP3    H238419   6.519   0.277   5.639 -1.6499  1.4970  0.7038
12826TIP3   OH238420   1.712   6.124   5.985  0.5350  0.3296 -0.3779
12826TIP3    H138421   1.656   6.096   5.912  0.1277 -2.4261  0.9339
12826TIP3    H238422   1.658   6.188   6.032  1.0108  2.5812 -2.7248
12827TIP3   OH238423   2.827   5.186   3.981 -0.1685 -0.1386 -1.1259
12827TIP3    H138424   2.901   5.197   4.041 -0.6044 -0.4048 -0.5439
12827TIP3    H238425   2.801   5.275   3.958  0.1904 -0.0408 -1.1621
12828TIP3   OH238426   2.335   7.320   6.077  0.0047 -0.1031 -0.6617
12828TIP3    H138427   2.401   7.270   6.126 -0.9403 -0.0918  0.6422
12828TIP3    H238428   2.270   7.345   6.143 -0.9404  0.4966 -1.8086
12829TIP3   OH238429   3.714   7.080   5.202 -0.2347 -0.0718  0.5477
12829TIP3    H138430   3.623   7.052   5.204 -0.7608  0.9834 -3.6170
12829TIP3    H238431   3.709   7.176   5.204  0.9304 -0.0264  2.3952
12830TIP3   OH238432   4.151   6.021   5.466  0.2222 -0.1619 -0.1692
12830TIP3    H138433   4.223   6.064   5.513 -0.6300  2.5382 -1.2744
12830TIP3    H238434   4.074   6.073   5.485 -0.7015 -0.7194 -2.1863
12831TIP3   OH238435   3.917   0.605   6.259 -0.4426  0.4509 -0.0724
12831TIP3    H138436   3.847   0.619   6.323  0.2846  1.6816  0.4652
12831TIP3    H238437   3.998   0.628   6.306  0.4587 -2.1568 -0.2826
12832TIP3   OH238438   3.340   0.028   5.698  0.0282  0.1827 -0.2273
12832TIP3    H138439   3.295   0.039   5.614  1.2854  3.1709 -0.5780
12832TIP3    H238440   3.433   0.022   5.675  0.5532  2.9710  1.0379
12833TIP3   OH238441   3.529   1.270   6.759 -0.0341 -0.9934 -1.2852
12833TIP3    H138442   3.558   1.286   6.669 -0.2531 -4.0643 -1.9500
12833TIP3    H238443   3.443   1.229   6.750 -0.6034 -0.2009  0.3688
12834TIP3   OH238444   4.238   7.647   5.091 -0.3026  0.6331 -0.1849
12834TIP3    H138445   4.308   7.656   5.156  0.8101 -0.0739 -1.2746
12834TIP3    H238446   4.262   7.709   5.022 -0.0590 -0.5434 -1.1626
12835TIP3   OH238447   1.758   7.662   6.244 -0.2374  0.5012  0.1720
12835TIP3    H138448   1.759   7.577   6.288 -0.6291  0.6002  0.3763
12835TIP3    H238449   1.670   7.696   6.261 -0.6696  0.1816 -1.3631
12836TIP3   OH238450   0.915   7.125   6.770 -0.3192  0.8503 -0.5807
12836TIP3    H138451   0.837   7.151   6.818 -0.6220 -1.6071  0.3236
12836TIP3    H238452   0.984   7.182   6.803 -1.4180  2.0439 -0.3157
12837TIP3   OH238453   4.387   5.192   6.252 -0.1827  0.0839 -0.0739
12837TIP3    H138454   4.482   5.190   6.238  0.0179  0.6339  1.2002
12837TIP3    H238455   4.356   5.110   6.214  0.8023 -0.0876 -0.5261
12838TIP3   OH238456   6.874   4.735   0.715 -0.5191 -0.0311 -0.3723
12838TIP3    H138457   6.779   4.718   0.713 -0.6062  0.2675  1.2244
12838TIP3    H238458   6.887   4.803   0.649 -1.0231 -1.9296 -2.5100
12839TIP3   OH238459   5.557   0.758   4.942  0.1310  0.1880  0.5856
12839TIP3    H138460   5.566   0.803   5.025  1.4336  2.9875 -1.0221
12839TIP3    H238461   5.645   0.728   4.920 -0.1096 -0.0845 -0.0464
12840TIP3   OH238462   5.410   0.461   6.468 -0.0124 -0.0418  0.0764
12840TIP3    H138463   5.372   0.490   6.551  1.0248  0.3837  0.4135
12840TIP3    H238464   5.355   0.502   6.401 -1.0258 -0.6186  0.5519
12841TIP3   OH238465   0.081   5.532   6.406 -0.0293  0.4335  0.3056
12841TIP3    H138466   0.007   5.563   6.353 -1.0080  0.8767  1.8877
12841TIP3    H238467   0.157   5.576   6.368 -0.2289 -1.6960 -2.7219
12842TIP3   OH238468   1.282   7.056   3.700  0.2435  0.3929 -0.0522
12842TIP3    H138469   1.240   7.115   3.638  2.9233  2.4316 -0.0143
12842TIP3    H238470   1.241   7.077   3.784 -0.7437  0.2378 -0.4834
12843TIP3   OH238471   6.488   0.436   5.045 -0.0658  0.0625  0.0729
12843TIP3    H138472   6.511   0.439   4.952  1.2899 -0.0188  0.3911
12843TIP3    H238473   6.535   0.510   5.083 -1.2180  0.5510  0.5827
12844TIP3   OH238474   3.063   7.717   5.660  0.6628  0.4652 -0.1349
12844TIP3    H138475   3.156   7.731   5.678  0.6073  1.1768 -0.3957
12844TIP3    H238476   3.051   7.622   5.668  1.4815  0.3331 -0.4417
12845TIP3   OH238477   0.286   2.760   0.792  0.1216 -0.1309  0.0339
12845TIP3    H138478   0.254   2.791   0.876  1.1911  0.5083  0.2126
12845TIP3    H238479   0.217   2.782   0.729  0.9228  2.7868  0.1203
12846TIP3   OH238480   2.109   7.091   5.669  0.0114  0.1886  0.1084
12846TIP3    H138481   2.188   7.070   5.717  0.9878  0.8672 -1.1607
12846TIP3    H238482   2.107   7.029   5.596 -0.3399  0.5292 -0.1753
12847TIP3   OH238483   2.059   7.643   5.143  0.0336 -0.3280  0.2635
12847TIP3    H138484   2.029   7.558   5.111  2.3226  0.0267 -3.0668
12847TIP3    H238485   2.105   7.623   5.225 -0.4256 -2.1475  0.0884
12848TIP3   OH238486   2.973   7.075   4.467  0.3753 -0.3562  0.4164
12848TIP3    H138487   2.898   7.131   4.488 -0.1134 -1.1134  0.7182
12848TIP3    H238488   2.969   7.005   4.532  1.4543 -0.3053  0.5418
12849TIP3   OH238489   1.036   5.508   6.606 -0.1053 -0.1991  0.1695
12849TIP3    H138490   0.948   5.475   6.591 -0.2427  0.6962 -1.1309
12849TIP3    H238491   1.093   5.444   6.563 -0.3957  1.3783 -2.7185
12850TIP3   OH238492   2.065   6.272   5.222 -0.4611 -0.5986  0.0094
12850TIP3    H138493   2.014   6.195   5.247 -0.1767 -0.1100  2.2656
12850TIP3    H238494   2.147   6.264   5.273 -0.2735  0.9737 -0.0135
12851TIP3   OH238495   2.146   7.005   6.314 -0.1899  0.2007 -0.1263
12851TIP3    H138496   2.110   7.090   6.288 -0.6378  0.0991  0.1504
12851TIP3    H238497   2.148   6.954   6.233 -0.8911  0.1328 -0.1064
12852TIP3   OH238498   1.613   6.678   5.882  0.2321  0.2446  0.0162
12852TIP3    H138499   1.691   6.654   5.833  0.2505  1.0114 -0.3335
12852TIP3    H238500   1.543   6.626   5.841  0.4352  0.0703 -0.1149
12853TIP3   OH238501   1.096   6.495   5.869 -0.0438  0.0116 -0.7045
12853TIP3    H138502   1.072   6.478   5.960 -1.4138 -2.2832 -1.4614
12853TIP3    H238503   1.186   6.528   5.874 -0.6492  1.4171  1.5728
12854TIP3   OH238504   6.909   5.201   1.784 -0.1504  0.2449  0.2600
12854TIP3    H138505   6.920   5.275   1.843  3.3066 -0.4747  0.6161
12854TIP3    H238506   6.951   5.229   1.702 -1.8729 -0.0512 -0.7515
12855TIP3   OH238507   2.945   7.332   6.364  0.2486 -0.1074  0.5116
12855TIP3    H138508   2.984   7.260   6.413  1.0088 -0.0234  0.0416
12855TIP3    H238509   3.011   7.354   6.297  0.2356  1.3321  0.9489
12856TIP3   OH238510   4.835   0.243   3.973 -0.2400  0.2037 -0.3606
12856TIP3    H138511   4.875   0.327   3.948  0.5189 -0.3286 -0.9272
12856TIP3    H238512   4.747   0.267   4.003 -0.5178  1.0475 -1.8237
12857TIP3   OH238513   1.369   6.573   4.254 -0.0563  0.1439  0.1131
12857TIP3    H138514   1.320   6.576   4.172 -0.0383  0.8351  0.1242
12857TIP3    H238515   1.461   6.581   4.227  0.0124 -0.4997  0.1407
12858TIP3   OH238516   1.261   7.229   6.511  0.9455  0.1295  0.3418
12858TIP3    H138517   1.226   7.149   6.551  1.9866 -0.1824  0.6556
12858TIP3    H238518   1.190   7.262   6.457  0.1048 -0.3801  1.1268
12859TIP3   OH238519   3.359   7.559   5.615 -0.3933 -0.7358 -0.8881
12859TIP3    H138520   3.421   7.624   5.647  0.1379 -2.1396  1.0436
12859TIP3    H238521   3.377   7.552   5.521 -1.9744  3.4512 -1.5890
12860TIP3   OH238522   1.215   6.061   5.663 -0.5336  0.5977 -0.1110
12860TIP3    H138523   1.184   5.976   5.695  0.3366  0.1273 -0.4972
12860TIP3    H238524   1.239   6.045   5.572  2.0665  0.6087  0.5373
12861TIP3   OH238525   3.432   6.797   4.393  0.5248 -0.3562  0.1366
12861TIP3    H138526   3.422   6.876   4.340  0.3018 -2.1523 -2.5515
12861TIP3    H238527   3.492   6.823   4.463  1.0906  1.9744 -1.1569
12862TIP3   OH238528   4.378   6.764   5.407  0.7372  0.4215  0.2471
12862TIP3    H138529   4.372   6.788   5.499  1.7446 -1.5792  0.8417
12862TIP3    H238530   4.460   6.804   5.377 -0.0727  1.8921 -0.0507
12863TIP3   OH238531   4.138   0.538   6.078  0.6287  0.2842  0.4683
12863TIP3    H138532   4.214   0.484   6.100 -0.6464 -2.0044 -0.6057
12863TIP3    H238533   4.072   0.515   6.143  0.0927  0.5849  0.0336
12864TIP3   OH238534   1.204   7.712   4.911 -0.2045 -0.0360  0.0635
12864TIP3    H138535   1.230   7.627   4.946  0.2848  0.1096  0.0647
12864TIP3    H238536   1.276   7.737   4.852 -1.4370 -0.6974 -1.7707
12865TIP3   OH238537   1.096   5.509   5.605 -0.1102 -0.2333  0.1981
12865TIP3    H138538   1.076   5.528   5.513  0.6345 -2.2022 -0.3914
12865TIP3    H238539   1.177   5.557   5.623  1.7877 -2.7810 -1.2813
12866TIP3   OH238540   1.020   7.793   6.669  0.6999  0.0810  0.3411
12866TIP3    H138541   0.953   7.792   6.601  0.2999  0.1459  0.7399
12866TIP3    H238542   1.103   7.790   6.620  0.4039 -1.9641 -0.0951
12867TIP3   OH238543   0.792   3.586   0.548  0.2269  0.3487  0.3620
12867TIP3    H138544   0.753   3.601   0.634 -0.9787 -0.7961  0.0192
12867TIP3    H238545   0.824   3.672   0.521  0.3203  0.7853  1.7961
12868TIP3   OH238546   1.273   7.469   5.029 -0.5485  0.1687 -0.0354
12868TIP3    H138547   1.243   7.481   5.119 -0.1219 -1.5687  0.3410
12868TIP3    H238548   1.356   7.422   5.037 -0.5871 -0.1482 -1.3586
12869TIP3   OH238549   3.285   7.278   5.580  0.4438  0.1346  0.0207
12869TIP3    H138550   3.301   7.272   5.674 -0.8005 -1.2827  0.1698
12869TIP3    H238551   3.312   7.367   5.556  1.8121  0.1272  1.4929
12870TIP3   OH238552   2.627   6.347   4.459 -0.1042 -0.5604  0.4896
12870TIP3    H138553   2.617   6.292   4.538 -0.0651 -0.5394  0.5090
12870TIP3    H238554   2.663   6.429   4.491  2.0321 -1.3449  0.1550
12871TIP3   OH238555   1.288   6.007   6.692  0.6152 -0.0290 -0.2332
12871TIP3    H138556   1.293   6.035   6.600 -0.7722  2.1996  0.3266
12871TIP3    H238557   1.194   5.993   6.707  1.0362 -2.6415  0.2357
12872TIP3   OH238558   2.224   6.020   5.666 -0.0479  0.0447 -0.1269
12872TIP3    H138559   2.287   6.079   5.627  1.2328 -0.1320  1.5844
12872TIP3    H238560   2.230   5.940   5.614  0.6021  0.2873 -0.4255
12873TIP3   OH238561   0.555   7.747   5.811  0.2165  0.6526 -0.1579
12873TIP3    H138562   0.542   7.841   5.801  2.5876  1.1257  0.8804
12873TIP3    H238563   0.521   7.709   5.730 -0.2670  2.4457 -0.8137
12874TIP3   OH238564   1.301   5.813   5.227 -0.6841  0.1252 -1.0130
12874TIP3    H138565   1.367   5.881   5.210  0.1768 -0.6958 -0.9563
12874TIP3    H238566   1.295   5.765   5.145 -0.8869 -0.0870 -0.8722
12875TIP3   OH238567   1.809   5.914   5.574 -0.1923 -0.4092  0.1172
12875TIP3    H138568   1.755   5.982   5.616  0.8086 -0.1186  0.9654
12875TIP3    H238569   1.866   5.883   5.644  0.4343 -1.0232 -0.6605
12876TIP3   OH238570   0.266   6.354   4.671  0.7029  0.0984  0.5370
12876TIP3    H138571   0.242   6.291   4.604  0.1999  0.1039  0.7097
12876TIP3    H238572   0.288   6.301   4.748  0.6845  0.1172  0.5552
12877TIP3   OH238573   4.964   1.491   5.726 -0.2633 -0.1878 -0.0802
12877TIP3    H138574   4.923   1.566   5.768  0.5235  1.9566 -3.0030
12877TIP3    H238575   4.891   1.438   5.694 -0.8118 -0.3160  1.3625
12878TIP3   OH238576   6.600   0.924   6.014  0.5934 -0.6118  0.1055
12878TIP3    H138577   6.642   0.879   6.087 -0.7282 -0.4628  0.9748
12878TIP3    H238578   6.592   1.015   6.044 -0.8508 -0.7530  0.1971
12879TIP3   OH238579   0.595   7.634   4.309  0.3549 -0.1791  0.5282
12879TIP3    H138580   0.584   7.712   4.255 -0.5278  0.4955  1.6637
12879TIP3    H238581   0.685   7.605   4.291 -0.0857 -0.2451 -1.6369
12880TIP3   OH238582   4.263   6.054   4.220 -0.1217 -0.3393 -0.2283
12880TIP3    H138583   4.239   6.069   4.128 -0.9722 -0.8933 -0.0972
12880TIP3    H238584   4.184   6.076   4.269  0.5585  0.6593  0.4353
12881TIP3   OH238585   5.788   0.533   5.255 -0.0888  0.0720  0.8385
12881TIP3    H138586   5.802   0.533   5.160 -1.2727 -0.3832  0.6478
12881TIP3    H238587   5.786   0.440   5.279  2.5075  0.1915  1.6949
12882TIP3   OH238588   6.600   3.095   0.373 -0.1457 -0.2873  0.5593
12882TIP3    H138589   6.514   3.067   0.402  0.6702 -1.0199  2.3111
12882TIP3    H238590   6.661   3.039   0.420  1.3112  0.4697 -0.3846
12883TIP3   OH238591   6.106   1.812   5.962 -0.0927  0.0539  0.0995
12883TIP3    H138592   6.122   1.865   6.040  0.1565  1.1788 -0.6971
12883TIP3    H238593   6.012   1.819   5.947 -0.2358 -0.6763  0.6599
12884TIP3   OH238594   6.704   1.785   0.993 -1.1557  0.0712  0.2383
12884TIP3    H138595   6.626   1.779   0.937  0.3714 -1.9830 -1.7793
12884TIP3    H238596   6.686   1.725   1.065 -2.4435  1.4613  1.0998
12885TIP3   OH238597   0.111   3.626   0.259 -0.1425 -0.4785  0.0718
12885TIP3    H138598   0.170   3.646   0.187  2.6143 -2.6658  1.6329
12885TIP3    H238599   0.050   3.561   0.223 -0.2344  0.1565 -0.9285
12886TIP3   OH238600   2.872   7.706   6.224 -0.0111  0.5286 -0.0831
12886TIP3    H138601   2.961   7.683   6.201 -0.2185  0.0993 -0.4701
12886TIP3    H238602   2.868   7.801   6.217  1.2541  0.8753  2.8613
12887TIP3   OH238603   7.961   0.460   2.999 -0.4301 -0.1275  0.2989
12887TIP3    H138604   7.902   0.461   2.924  0.9624 -2.0471 -0.8383
12887TIP3    H238605   7.988   0.369   3.007  1.3395  0.4982  1.6474
12888TIP3   OH238606   3.550   7.267   5.785  0.5628  0.1682  0.5553
12888TIP3    H138607   3.501   7.333   5.833 -0.4208 -0.2810  0.1903
12888TIP3    H238608   3.631   7.311   5.759 -0.3948  1.4662 -0.3177
12889TIP3   OH238609   3.557   6.162   5.064 -0.6875 -0.0573  0.7538
12889TIP3    H138610   3.602   6.166   5.148 -0.7341 -0.1781  0.7846
12889TIP3    H238611   3.616   6.206   5.003 -0.1082 -1.0363  0.6083
12890TIP3   OH238612   0.941   7.474   3.529  0.4075  0.0852  0.4818
12890TIP3    H138613   0.949   7.545   3.594 -1.5384 -0.1669  1.0194
12890TIP3    H238614   0.912   7.517   3.449  0.9079  0.1186  0.3132
12891TIP3   OH238615   3.056   2.595   5.886 -0.1785  0.0427  0.1367
12891TIP3    H138616   2.965   2.575   5.864 -1.4522  1.5334  3.7301
12891TIP3    H238617   3.066   2.688   5.862 -0.1967  0.3976  1.4644
12892TIP3   OH238618   1.600   6.611   6.455 -0.0818  0.0211  0.0064
12892TIP3    H138619   1.664   6.541   6.467 -0.5554 -0.2852  0.7939
12892TIP3    H238620   1.628   6.656   6.376  1.8278  0.6860  1.0374
12893TIP3   OH238621   2.452   7.152   6.810 -0.5071  0.7495 -0.4173
12893TIP3    H138622   2.363   7.151   6.773 -0.6845 -0.3700  0.0106
12893TIP3    H238623   2.443   7.106   6.893  0.6312 -0.0530 -0.7365
12894TIP3   OH238624   2.648   8.018   6.014 -0.8631 -0.1937  0.9332
12894TIP3    H138625   2.561   8.041   6.047 -0.0511  1.1373  2.1606
12894TIP3    H238626   2.630   7.966   5.936 -2.7563  0.8962  0.6075
12895TIP3   OH238627   2.627   6.713   6.509 -0.1651  0.6473  0.1846
12895TIP3    H138628   2.697   6.776   6.525  0.2367  0.5758 -1.2737
12895TIP3    H238629   2.551   6.752   6.553  0.3380  1.6165  0.2248
12896TIP3   OH238630   7.789   4.294   0.631  0.1835  0.3316  0.1449
12896TIP3    H138631   7.728   4.223   0.653  1.7741 -0.7153  1.3352
12896TIP3    H238632   7.870   4.249   0.609  1.3259  1.8146  1.2541
12897TIP3   OH238633   5.368   6.903   6.684 -0.0486  0.0343  0.1861
12897TIP3    H138634   5.345   6.855   6.604  2.7295 -0.6483 -0.2563
12897TIP3    H238635   5.385   6.992   6.655 -0.1710  0.0654  0.2090
12898TIP3   OH238636   1.158   7.044   4.898  0.0511 -0.3224  0.2033
12898TIP3    H138637   1.167   7.023   4.991  0.3704  1.1012  0.5083
12898TIP3    H238638   1.241   7.017   4.859  0.5610  0.5877  0.6374
12899TIP3   OH238639   1.943   5.829   5.794  0.5327  0.1454 -0.1346
12899TIP3    H138640   1.879   5.857   5.860  0.1743 -1.6572  0.2957
12899TIP3    H238641   2.021   5.882   5.813  0.1413  0.2615  1.1824
12900TIP3   OH238642   5.604   3.426   1.136  0.3108 -0.3003 -0.1431
12900TIP3    H138643   5.663   3.351   1.131 -1.1862 -1.5405  0.2244
12900TIP3    H238644   5.653   3.498   1.097  1.4524 -1.6792 -1.3226
12901TIP3   OH238645   3.526   0.540   3.897 -0.1205  0.0430 -0.1953
12901TIP3    H138646   3.541   0.626   3.935  1.2820  0.4470 -1.6218
12901TIP3    H238647   3.488   0.558   3.811  1.6424 -0.6938 -1.1566
12902TIP3   OH238648   6.211   0.406   5.033 -0.3693 -0.2620 -0.2106
12902TIP3    H138649   6.200   0.324   4.984 -0.1056 -0.5672  0.2396
12902TIP3    H238650   6.306   0.422   5.031 -0.1105 -1.3869  1.9962
12903TIP3   OH238651   5.097   1.057   6.485 -0.5095  0.3647  0.2604
12903TIP3    H138652   5.097   1.123   6.553 -0.4306 -0.1146  0.7312
12903TIP3    H238653   5.009   1.059   6.448 -0.4399  0.8805  0.1268
12904TIP3   OH238654   0.742   7.216   3.206 -0.0751  0.0341  0.1040
12904TIP3    H138655   0.836   7.207   3.191 -0.4086 -0.7084 -1.7318
12904TIP3    H238656   0.734   7.267   3.287  1.9080 -1.5135  1.3144
12905TIP3   OH238657   0.986   5.089   1.053 -0.0638  0.2933 -0.1478
12905TIP3    H138658   1.042   5.156   1.092 -2.8831  0.5202  3.7931
12905TIP3    H238659   0.905   5.093   1.104 -1.6961 -3.5803 -2.2567
12906TIP3   OH238660   4.260   0.188   4.779 -0.1539 -0.3546  0.0945
12906TIP3    H138661   4.274   0.235   4.696  0.6900  0.2683  0.5878
12906TIP3    H238662   4.346   0.152   4.801 -0.7323 -1.8965 -0.1298
12907TIP3   OH238663   3.763   6.585   4.157 -0.0212 -0.1093 -0.2917
12907TIP3    H138664   3.675   6.588   4.119 -0.0277  1.4616 -0.1946
12907TIP3    H238665   3.748   6.574   4.251 -0.0969 -0.7401 -0.3811
12908TIP3   OH238666   1.173   7.480   6.680  0.6579 -0.0586  0.3376
12908TIP3    H138667   1.198   7.395   6.647 -1.0599  0.2173 -1.8120
12908TIP3    H238668   1.105   7.461   6.745 -1.1244 -0.2669 -1.5421
12909TIP3   OH238669   7.954   3.803   0.975 -0.7216  0.1373 -0.0611
12909TIP3    H138670   7.964   3.897   0.990 -0.5533  0.3211 -1.2726
12909TIP3    H238671   7.863   3.784   0.999 -0.7971  0.6304  0.0416
12910TIP3   OH238672   1.165   3.918   1.261 -0.0407 -0.3876 -0.0846
12910TIP3    H138673   1.157   3.829   1.228 -0.1231 -0.3593 -0.1429
12910TIP3    H238674   1.161   3.909   1.357 -1.9282 -0.2775 -0.1323
12911TIP3   OH238675   7.207   1.151   6.680 -0.3468  0.0225 -0.0355
12911TIP3    H138676   7.155   1.206   6.738  1.4679 -0.6680  2.3470
12911TIP3    H238677   7.282   1.206   6.656  0.3088 -0.6166  0.5183
12912TIP3   OH238678   2.962   7.872   6.820  0.4489  0.0596 -0.0027
12912TIP3    H138679   2.945   7.778   6.825 -0.9721  0.2418 -1.0865
12912TIP3    H238680   3.040   7.880   6.765 -0.6970 -0.3853 -1.7214
12913TIP3   OH238681   1.949   6.694   6.594  0.8489  0.0125 -0.1409
12913TIP3    H138682   2.027   6.744   6.568  2.3468 -0.5942  2.9561
12913TIP3    H238683   1.920   6.735   6.675  0.2592 -2.2001  0.7981
12914TIP3   OH238684   0.952   2.440   0.590  0.4269  0.0438 -0.0157
12914TIP3    H138685   1.015   2.510   0.608  0.5972 -0.5827  1.8381
12914TIP3    H238686   0.867   2.485   0.587  0.6279  0.4523  0.3533
12915TIP3   OH238687   2.792   7.926   6.437 -0.3128  0.1891 -0.2855
12915TIP3    H138688   2.765   7.933   6.346 -1.2553  1.6688  0.0896
12915TIP3    H238689   2.883   7.956   6.438 -1.0075  2.3954 -0.3999
12916TIP3   OH238690   2.359   5.837   6.353  0.2239  0.3133  0.3098
12916TIP3    H138691   2.411   5.764   6.385 -1.1282 -0.9620 -0.3756
12916TIP3    H238692   2.418   5.913   6.359  1.9284 -0.9818  0.1347
12917TIP3   OH238693   4.282   6.878   5.644 -0.4277 -0.0926  0.4018
12917TIP3    H138694   4.194   6.915   5.658  0.4038  1.5766  1.3234
12917TIP3    H238695   4.301   6.830   5.725 -0.0569  0.4422  0.6327
12918TIP3   OH238696   7.601   4.505   1.245 -0.3644  0.3584  0.2094
12918TIP3    H138697   7.533   4.459   1.197  0.6924  0.1541 -1.1184
12918TIP3    H238698   7.661   4.437   1.273  0.8248  0.8277 -1.1515
12919TIP3   OH238699   7.891   3.683   0.744 -0.0301  0.7223  0.7583
12919TIP3    H138700   7.862   3.592   0.751 -0.8144  1.1453  3.2977
12919TIP3    H238701   7.925   3.705   0.830 -0.5660  3.0874  0.4085
12920TIP3   OH238702   3.308   7.308   6.521 -0.0099  0.3406  0.2885
12920TIP3    H138703   3.281   7.293   6.611 -0.2759  2.0913  0.5137
12920TIP3    H238704   3.383   7.367   6.527 -0.3300  0.8648 -0.6427
12921TIP3   OH238705   1.335   6.228   5.250 -0.1757  0.5251 -0.4523
12921TIP3    H138706   1.403   6.161   5.260  1.2630  2.0316 -0.0061
12921TIP3    H238707   1.326   6.239   5.155 -0.2124 -0.0798 -0.5228
12922TIP3   OH238708   5.729   7.588   5.533 -0.2259 -0.0822  0.4584
12922TIP3    H138709   5.798   7.655   5.537  0.2450 -0.5213 -0.2291
12922TIP3    H238710   5.669   7.620   5.465  1.3541 -1.6097 -1.7231
12923TIP3   OH238711   1.778   7.376   6.254 -0.0906  0.1901 -0.1575
12923TIP3    H138712   1.870   7.350   6.250  1.2044  4.6141 -0.8577
12923TIP3    H238713   1.741   7.345   6.172  0.8201 -1.3843  0.0026
12924TIP3   OH238714   6.533   0.777   5.476  0.1561 -0.8238 -0.1270
12924TIP3    H138715   6.475   0.833   5.424  2.5466  1.1786 -0.7563
12924TIP3    H238716   6.482   0.757   5.555 -1.6946  0.1632 -1.0263
12925TIP3   OH238717   3.116   6.756   4.535 -0.6133  1.1213 -0.3566
12925TIP3    H138718   3.043   6.790   4.587 -1.4957 -0.8664 -0.2911
12925TIP3    H238719   3.087   6.765   4.445 -0.8584  0.5407 -0.3384
12926TIP3   OH238720   4.124   1.127   4.717  0.3156  0.3329  0.3296
12926TIP3    H138721   4.037   1.159   4.692  0.2333 -0.0026  0.1911
12926TIP3    H238722   4.158   1.195   4.775  1.1587  1.9392 -1.9290
12927TIP3   OH238723   5.912   0.382   4.507  0.6962  0.2502  0.1037
12927TIP3    H138724   5.958   0.312   4.552  1.0057  0.3711 -0.0216
12927TIP3    H238725   5.969   0.459   4.517  0.8519  0.2341 -0.6332
12928TIP3   OH238726   5.796   4.628  -0.028  0.3436 -0.1191  0.2572
12928TIP3    H138727   5.834   4.716  -0.023 -0.3274  0.1979 -0.1503
12928TIP3    H238728   5.817   4.588   0.056  0.1795  0.6235  0.6550
12929TIP3   OH238729   4.617   0.577   6.679  0.0148  0.2770 -0.3930
12929TIP3    H138730   4.645   0.490   6.704  0.0428  0.2094 -0.6609
12929TIP3    H238731   4.569   0.610   6.755  0.3003  0.1617 -0.1671
12930TIP3   OH238732   2.855   6.594   5.298 -0.1406 -0.6827 -0.4500
12930TIP3    H138733   2.928   6.620   5.354 -0.8195 -1.0830  0.6473
12930TIP3    H238734   2.812   6.677   5.276  0.6926 -0.4415 -1.1723
12931TIP3   OH238735   3.574   6.727   4.862  0.3405 -0.3989  0.0579
12931TIP3    H138736   3.653   6.747   4.912 -0.0693 -0.4678  0.7560
12931TIP3    H238737   3.507   6.714   4.930  0.0402 -1.6503 -0.4757
12932TIP3   OH238738   4.136   6.400   5.825 -0.0633  0.0202  0.3995
12932TIP3    H138739   4.182   6.317   5.819 -0.7848 -0.4820  1.5908
12932TIP3    H238740   4.043   6.376   5.829 -0.3519  0.9469 -0.5719
12933TIP3   OH238741   1.539   2.820   0.069 -0.0618  0.2149  0.0057
12933TIP3    H138742   1.539   2.870  -0.013  0.7302  1.3945  0.6946
12933TIP3    H238743   1.576   2.881   0.133  1.8111 -1.5787  0.6885
12934TIP3   OH238744   0.347   6.678   5.660 -0.0045 -0.2205 -0.3505
12934TIP3    H138745   0.367   6.667   5.753  0.5720  1.3784 -0.2669
12934TIP3    H238746   0.423   6.643   5.614  0.1937 -0.0024 -0.1886
12935TIP3   OH238747   7.739   2.292   0.382  0.4208 -0.0694  0.1197
12935TIP3    H138748   7.747   2.257   0.471 -2.2785 -0.9647  0.0433
12935TIP3    H238749   7.799   2.239   0.330  0.7205 -0.6879  1.0768
12936TIP3   OH238750   7.501   0.215   5.479  0.4464  0.1070 -0.1222
12936TIP3    H138751   7.424   0.185   5.431 -0.8129  1.0258  1.2820
12936TIP3    H238752   7.574   0.198   5.420 -0.9430  0.2454 -1.9330
12937TIP3   OH238753   7.285   2.645   0.335  0.0534  0.4388  0.1034
12937TIP3    H138754   7.373   2.638   0.299 -1.1502 -2.0339 -2.5662
12937TIP3    H238755   7.232   2.587   0.280 -2.9535  0.7135  2.5738
12938TIP3   OH238756   3.401   0.946   6.429  0.2771  0.2412  0.0767
12938TIP3    H138757   3.344   0.893   6.372  0.5106  0.6098 -0.5070
12938TIP3    H238758   3.355   1.029   6.438 -0.3716 -0.2551  1.4719
12939TIP3   OH238759   2.810   7.568   6.751 -0.2766  0.3457  0.2704
12939TIP3    H138760   2.841   7.553   6.662  0.0386  1.0253  0.2621
12939TIP3    H238761   2.726   7.523   6.756 -0.3766  0.4564 -0.4265
12940TIP3   OH238762   2.502   6.503   4.181  0.0343 -0.1403 -0.0896
12940TIP3    H138763   2.459   6.439   4.237  1.1722 -0.1778  0.7578
12940TIP3    H238764   2.592   6.471   4.172  0.1947  0.5070 -0.9424
12941TIP3   OH238765   2.284   7.121   5.225  0.5148  0.1168 -0.1797
12941TIP3    H138766   2.370   7.104   5.188  0.2217  1.8290 -1.7277
12941TIP3    H238767   2.301   7.155   5.313  1.4737  1.8147 -1.0196
12942TIP3   OH238768   6.565   4.341   0.695 -0.3380 -0.2036  0.2006
12942TIP3    H138769   6.613   4.418   0.664  0.8133 -0.9282  0.1906
12942TIP3    H238770   6.566   4.281   0.620 -1.1969 -0.2598  0.2253
12943TIP3   OH238771   0.587   5.360   5.204  0.3524  0.7301 -0.5341
12943TIP3    H138772   0.601   5.373   5.298 -0.5749  1.3822 -0.4840
12943TIP3    H238773   0.668   5.391   5.163  0.6176  0.7817  0.0305
12944TIP3   OH238774   2.694   7.008   5.939 -0.6416 -0.4426  0.4479
12944TIP3    H138775   2.646   7.076   5.987 -0.0875 -0.1148  0.5377
12944TIP3    H238776   2.656   6.925   5.970 -1.5115 -0.1669  0.1264
12945TIP3   OH238777   2.455   5.873   5.887  0.0880 -0.0532 -0.4758
12945TIP3    H138778   2.383   5.918   5.843  0.9669  1.4380 -0.4250
12945TIP3    H238779   2.415   5.838   5.967 -1.0020 -0.8828 -1.3676
12946TIP3   OH238780   4.280   4.700   5.526 -0.5289  0.0667  0.0121
12946TIP3    H138781   4.257   4.630   5.464 -0.9015  0.0510  0.1688
12946TIP3    H238782   4.198   4.748   5.539  0.1565  1.7679 -1.6627
12947TIP3   OH238783   4.354   1.637   0.984  0.6435  0.4579  0.1297
12947TIP3    H138784   4.340   1.727   1.011  1.7633  0.2157  1.5659
12947TIP3    H238785   4.273   1.613   0.937 -0.1934  1.7602  0.8855
12948TIP3   OH238786   8.378   6.764   4.187 -0.4298  0.0414  0.0508
12948TIP3    H138787   8.287   6.784   4.207 -0.0743  1.7984 -0.0125
12948TIP3    H238788   8.427   6.840   4.218  0.7332  0.2587 -2.1588
12949TIP3   OH238789   1.620   7.400   2.790  0.5230  0.3059 -0.2277
12949TIP3    H138790   1.668   7.359   2.862  0.4114 -1.9531 -1.3978
12949TIP3    H238791   1.541   7.435   2.831  0.9515 -0.0413  0.9193
12950TIP3   OH238792   0.808   5.731   6.578  0.5204  0.1412  0.2810
12950TIP3    H138793   0.766   5.803   6.625 -1.6119 -0.4158 -0.7292
12950TIP3    H238794   0.790   5.748   6.486  1.3566 -0.8523 -0.0855
12951TIP3   OH238795   3.433   6.187   3.729 -0.0027  0.0030 -0.4298
12951TIP3    H138796   3.451   6.264   3.783  0.8324 -0.3223 -0.2321
12951TIP3    H238797   3.501   6.188   3.662 -0.9170  0.2954 -1.3697
12952TIP3   OH238798   6.442   2.587   0.397  0.3432  0.1267  0.3495
12952TIP3    H138799   6.386   2.633   0.460  2.7814  0.6323  2.2207
12952TIP3    H238800   6.392   2.509   0.373 -1.4150  0.8718  1.5134
12953TIP3   OH238801   8.419   4.292   1.001 -0.2772 -0.5965  0.9251
12953TIP3    H138802   8.399   4.334   1.085  0.9733  1.7648  0.0900
12953TIP3    H238803   8.391   4.355   0.935  1.7085 -1.0156 -0.3767
12954TIP3   OH238804   7.825   4.406   1.982  0.1399 -0.6508  0.0008
12954TIP3    H138805   7.857   4.417   1.893 -0.0365 -2.5412 -0.3223
12954TIP3    H238806   7.811   4.495   2.014  1.6428  0.0818 -1.3241
12955TIP3   OH238807   1.235   5.231   4.439 -0.5672  0.0025  0.2808
12955TIP3    H138808   1.316   5.282   4.432 -1.2343  1.1362  0.6325
12955TIP3    H238809   1.248   5.177   4.517 -0.1529  0.2083  0.3563
12956TIP3   OH238810   5.260   1.582   5.890  0.1333 -0.0506  0.2639
12956TIP3    H138811   5.208   1.601   5.812  0.2474  1.1375  0.4692
12956TIP3    H238812   5.329   1.649   5.889 -0.1312  0.2463  1.6126
12957TIP3   OH238813   7.238   0.896   6.169 -0.2009  0.2045 -0.4782
12957TIP3    H138814   7.164   0.937   6.124 -1.2831  0.1844  1.2342
12957TIP3    H238815   7.224   0.917   6.261  1.7886 -0.0499 -0.0967
12958TIP3   OH238816   7.532   1.320   5.151  0.0591 -0.2151  0.0538
12958TIP3    H138817   7.595   1.314   5.079 -0.0664  1.6202 -0.2219
12958TIP3    H238818   7.576   1.277   5.224  0.9564 -0.4246 -0.6010
12959TIP3   OH238819   8.123   0.921   2.612 -0.3894 -0.2292  0.0063
12959TIP3    H138820   8.108   1.014   2.591 -0.3865  0.0319  1.1629
12959TIP3    H238821   8.068   0.904   2.688  1.7064 -0.4332  1.5319
12960TIP3   OH238822   5.775   1.197   6.400  0.1849 -0.0832 -0.1682
12960TIP3    H138823   5.841   1.224   6.336 -1.6672  1.5716 -1.4385
12960TIP3    H238824   5.793   1.104   6.415  1.6225 -0.1176 -1.9040
12961TIP3   OH238825   4.723   0.941   4.931  0.5500 -0.3988 -0.6773
12961TIP3    H138826   4.672   1.019   4.950 -0.9358 -0.8261 -2.7890
12961TIP3    H238827   4.690   0.875   4.993 -2.6737 -1.1389 -3.0897
12962TIP3   OH238828   6.822   0.198   5.674 -0.1460  0.8165  0.0191
12962TIP3    H138829   6.776   0.276   5.642  0.3057  0.5533 -1.3025
12962TIP3    H238830   6.827   0.211   5.769  0.2777  2.5811 -0.2188
12963TIP3   OH238831   5.363   1.382   5.104  0.2550 -0.3371  0.2011
12963TIP3    H138832   5.281   1.431   5.106  1.0259  0.9925 -0.5162
12963TIP3    H238833   5.338   1.295   5.073 -1.2419 -0.6808  2.2846
12964TIP3   OH238834   3.075   2.634   0.169  0.2845 -0.2000 -1.2484
12964TIP3    H138835   3.046   2.714   0.125 -1.3658 -0.0467  0.0721
12964TIP3    H238836   3.012   2.567   0.143 -1.8202  0.2961  2.1732
12965TIP3   OH238837   3.944   6.183   5.538 -0.3202 -0.7895  0.7437
12965TIP3    H138838   3.915   6.181   5.629 -0.3622  0.7001  0.7664
12965TIP3    H238839   3.906   6.263   5.502  0.9213 -0.6045 -0.1749
12966TIP3   OH238840   3.554   7.248   5.026  0.2182  0.2169  0.0051
12966TIP3    H138841   3.543   7.265   4.933  2.5524 -0.8014 -0.4764
12966TIP3    H238842   3.593   7.328   5.061 -0.4461  0.5113  0.0914
12967TIP3   OH238843   1.522   6.952   5.602  0.0932 -0.0521  0.6989
12967TIP3    H138844   1.617   6.946   5.594  0.2004  0.6500  1.4047
12967TIP3    H238845   1.507   7.006   5.680 -0.8822 -0.0825  0.5468
12968TIP3   OH238846   3.986   6.934   4.221  0.2395  0.2801  0.3327
12968TIP3    H138847   4.042   6.919   4.297 -0.5718  1.3529  1.1529
12968TIP3    H238848   3.995   6.854   4.169  2.4059  0.3564  0.5227
12969TIP3   OH238849   3.519   7.047   6.111  0.4131  0.2201 -0.1505
12969TIP3    H138850   3.570   6.968   6.128 -0.8861  0.0220  3.4810
12969TIP3    H238851   3.579   7.119   6.130  0.7591  0.0740 -0.6774
12970TIP3   OH238852   6.534   0.079   4.872 -0.3279  0.7887 -0.1217
12970TIP3    H138853   6.617   0.034   4.878 -0.6135  0.2627 -0.0855
12970TIP3    H238854   6.557   0.170   4.853  0.2232  0.4971 -0.8724
12971TIP3   OH238855   3.223   6.608   5.759 -0.0396  0.2773 -0.6661
12971TIP3    H138856   3.288   6.672   5.733  0.1440  0.5774  0.5422
12971TIP3    H238857   3.202   6.561   5.677  0.5031  1.2345 -1.3613
12972TIP3   OH238858   5.321   2.245   6.796  0.0910 -0.5695 -0.4035
12972TIP3    H138859   5.270   2.302   6.738  0.4881 -0.2511 -0.4433
12972TIP3    H238860   5.317   2.288   6.881  1.6244  0.3214 -0.7534
12973TIP3   OH238861   2.394   7.672   5.613  0.1532 -0.1070 -0.2839
12973TIP3    H138862   2.354   7.590   5.642  1.0949 -0.2670  0.6210
12973TIP3    H238863   2.411   7.659   5.520  0.8843 -1.1978 -0.0067
12974TIP3   OH238864   4.681   8.018   6.222  0.5898  0.0859  0.3954
12974TIP3    H138865   4.711   7.969   6.146  1.7079 -0.4785  1.1872
12974TIP3    H238866   4.674   7.953   6.292  1.0576  0.8551  1.1757
12975TIP3   OH238867   5.927   7.827   5.449  0.1644 -0.5767 -0.4037
12975TIP3    H138868   6.018   7.809   5.424  0.0029  0.2408 -1.6466
12975TIP3    H238869   5.887   7.859   5.368 -1.5078 -1.9628 -0.1397
12976TIP3   OH238870   5.040   6.002   4.531  0.1188 -0.0322  0.7786
12976TIP3    H138871   5.130   5.971   4.525  0.1217  0.0962  0.1814
12976TIP3    H238872   5.045   6.078   4.590  0.4873  0.3190  0.2918
12977TIP3   OH238873   5.841  -0.014   3.961  0.2626  0.4812 -0.3761
12977TIP3    H138874   5.768   0.026   3.913  1.0801  2.2662 -0.1549
12977TIP3    H238875   5.865   0.052   4.026 -0.8320 -1.8815  2.5221
12978TIP3   OH238876   4.328   7.521   6.043  0.0213  1.0453  0.0859
12978TIP3    H138877   4.321   7.614   6.067  2.3216  1.4468 -0.6842
12978TIP3    H238878   4.328   7.521   5.948  1.2245  0.3716  0.0809
12979TIP3   OH238879   3.492   7.463   4.550 -0.3759 -0.6843 -0.6298
12979TIP3    H138880   3.494   7.557   4.533 -0.1796 -0.9003 -1.8623
12979TIP3    H238881   3.428   7.452   4.620 -0.0807  0.4153 -0.1900
12980TIP3   OH238882   5.824   0.761   4.900  0.0357  0.7303  0.8237
12980TIP3    H138883   5.880   0.695   4.942 -0.1692 -0.6804 -1.0741
12980TIP3    H238884   5.884   0.832   4.878  1.2433 -0.9543 -1.5803
12981TIP3   OH238885   6.603   1.709   4.454  0.9819  0.2499 -0.1776
12981TIP3    H138886   6.568   1.629   4.416 -0.8235 -0.2813  2.5167
12981TIP3    H238887   6.684   1.682   4.496  0.8912  0.0495 -0.1313
12982TIP3   OH238888   4.488   6.259   2.396  0.0770 -0.1529 -0.5100
12982TIP3    H138889   4.450   6.182   2.439  1.0027 -0.1180  0.3833
12982TIP3    H238890   4.507   6.230   2.307  0.7751 -1.0852 -0.0661
12983TIP3   OH238891   6.875   0.399   6.003 -0.1177  0.8584  0.1100
12983TIP3    H138892   6.884   0.438   5.915 -0.5123  0.8129  0.0469
12983TIP3    H238893   6.781   0.379   6.010 -0.0255  0.5401  0.4067
12984TIP3   OH238894   0.153   1.247   4.430 -0.1807  0.6311  0.4290
12984TIP3    H138895   0.169   1.235   4.336 -0.6936  0.7145  0.3282
12984TIP3    H238896   0.170   1.340   4.446  1.6828  0.2398  0.7813
12985TIP3   OH238897   6.859   1.913   3.556 -0.0710 -0.6465  0.2074
12985TIP3    H138898   6.875   2.007   3.568  1.0461 -0.9980  1.6762
12985TIP3    H238899   6.788   1.908   3.492  0.8367  1.1618 -0.9720
12986TIP3   OH238900   8.498   1.502   4.077  0.1465  0.1762  0.4463
12986TIP3    H138901   8.469   1.465   3.993  0.8262  1.2684 -0.2826
12986TIP3    H238902   8.421   1.494   4.134 -0.7370  0.5565 -0.6636
12987TIP3   OH238903   0.203   2.853   1.115 -0.5569  0.1592  0.2519
12987TIP3    H138904   0.236   2.921   1.056  0.7993 -1.1198 -0.5010
12987TIP3    H238905   0.231   2.882   1.202  1.4276 -0.2109 -0.2275
12988TIP3   OH238906   3.261   7.603   6.659  0.2265 -0.1717 -0.7644
12988TIP3    H138907   3.225   7.523   6.696 -0.7089 -0.3157 -1.9739
12988TIP3    H238908   3.320   7.573   6.589  1.7080  0.1124  0.3235
12989TIP3   OH238909   4.549   0.162   6.568 -0.2461 -0.1211  0.5725
12989TIP3    H138910   4.563   0.092   6.505 -1.2379  1.6038 -1.6382
12989TIP3    H238911   4.633   0.208   6.572 -0.8922  1.2978 -1.4658
12990TIP3   OH238912   1.866   6.075   5.350  0.3112  0.1681 -0.3780
12990TIP3    H138913   1.780   6.088   5.310  0.9219  0.1304 -1.7103
12990TIP3    H238914   1.851   6.009   5.418 -0.1290 -1.9930 -2.5310
12991TIP3   OH238915   0.100   2.081   2.805  0.0745  0.6788  0.0365
12991TIP3    H138916   0.110   2.154   2.744 -1.1737  0.5191 -0.3812
12991TIP3    H238917   0.023   2.105   2.858 -1.4146 -1.1268 -1.2725
12992TIP3   OH238918   6.820   0.944   6.627 -0.2702  0.2258 -0.6580
12992TIP3    H138919   6.867   0.989   6.557  1.1805  0.9096  0.7179
12992TIP3    H238920   6.730   0.976   6.621 -0.0899  0.5074 -1.9897
12993TIP3   OH238921   6.391   1.660   3.385 -0.6945 -0.3588  0.0389
12993TIP3    H138922   6.453   1.589   3.366 -1.2396 -0.6227 -0.7622
12993TIP3    H238923   6.335   1.625   3.454  0.4467  0.1176  1.2365
12994TIP3   OH238924   3.868   6.304   5.832  0.2196 -0.0615 -0.7003
12994TIP3    H138925   3.786   6.349   5.849  1.3181  2.5407 -1.9628
12994TIP3    H238926   3.902   6.282   5.919 -1.4334 -0.5413 -0.1488
12995TIP3   OH238927   0.768   3.877   0.559  0.1850 -0.1053 -0.4059
12995TIP3    H138928   0.855   3.849   0.587 -0.4001  1.6655  3.4798
12995TIP3    H238929   0.781   3.966   0.526  0.2162 -0.7502 -2.1744
12996TIP3   OH238930   4.412   5.824   6.674 -0.2144  0.3753 -0.0248
12996TIP3    H138931   4.329   5.845   6.716  0.2977  0.9222  0.7284
12996TIP3    H238932   4.402   5.856   6.584 -0.9780  0.0291 -0.0683
12997TIP3   OH238933   5.400   0.570   6.061 -0.3156  0.2617 -0.3202
12997TIP3    H138934   5.468   0.637   6.054 -1.6446  1.4813 -1.9041
12997TIP3    H238935   5.419   0.510   5.989 -0.7544  0.4440 -0.5853
12998TIP3   OH238936   2.320   6.296   5.604  0.5191  0.0748 -0.0994
12998TIP3    H138937   2.260   6.370   5.618  0.0320 -0.6174  1.6421
12998TIP3    H238938   2.394   6.315   5.662  0.8631 -0.2864 -0.4232
12999TIP3   OH238939   3.523   4.762   0.480  0.4469  0.1275  0.0640
12999TIP3    H138940   3.589   4.717   0.429  0.9793  0.4057  0.4994
12999TIP3    H238941   3.519   4.850   0.442  2.4331  1.0432  1.8935
13000TIP3   OH238942   8.044   2.027   4.385  0.4329 -0.2058  0.0885
13000TIP3    H138943   8.014   2.055   4.299  1.1772  0.1225 -0.0690
13000TIP3    H238944   8.012   2.095   4.445 -0.3287 -0.5832  0.1116
13001TIP3   OH238945   7.794   1.842   4.301  0.1320  0.0627  0.1916
13001TIP3    H138946   7.738   1.893   4.360 -0.9821  0.1126 -0.9134
13001TIP3    H238947   7.863   1.904   4.276  0.5009  0.1064  1.2560
13002TIP3   OH238948   6.994   0.921   5.884 -0.1060  0.2616 -0.4273
13002TIP3    H138949   6.990   1.001   5.832  1.2857  0.9449  0.4915
13002TIP3    H238950   6.966   0.949   5.972 -0.5482 -0.4676 -0.3340
13003TIP3   OH238951   2.760   5.485   5.367 -0.0194 -0.0568 -0.2926
13003TIP3    H138952   2.677   5.512   5.329 -0.0797  2.2196  1.3708
13003TIP3    H238953   2.824   5.548   5.333  0.3879  0.3702  1.2323
13004TIP3   OH238954   0.468   3.071   0.184 -0.1590 -0.2033  0.4200
13004TIP3    H138955   0.480   3.146   0.243 -1.5752  0.9878 -0.7757
13004TIP3    H238956   0.555   3.052   0.151 -0.1757  2.7279 -1.4190
13005TIP3   OH238957   8.364  -0.017   4.100  0.2852 -0.6592  0.3398
13005TIP3    H138958   8.329   0.071   4.083 -0.2666 -0.7651  0.9276
13005TIP3    H238959   8.455  -0.012   4.070 -0.2412 -0.4138 -1.2934
13006TIP3   OH238960   4.330   6.090   4.772  0.5943  0.3951 -0.0840
13006TIP3    H138961   4.329   6.134   4.858 -0.0541 -0.0435  0.1324
13006TIP3    H238962   4.277   6.012   4.784  0.1624  0.5426 -1.0062
13007TIP3   OH238963   7.329   0.549   5.257 -0.2082  0.3940 -0.0191
13007TIP3    H138964   7.391   0.606   5.303 -0.6375  1.0081 -0.1853
13007TIP3    H238965   7.380   0.472   5.234  0.6543  1.1393 -0.6555
13008TIP3   OH238966   3.865   6.718   6.271  0.4864 -0.0100  0.2154
13008TIP3    H138967   3.920   6.739   6.196 -0.1564 -0.4437 -0.3884
13008TIP3    H238968   3.886   6.626   6.290 -0.7379 -0.4840 -0.6473
13009TIP3   OH238969   5.591   1.425   5.308 -0.2362  0.4896 -0.1086
13009TIP3    H138970   5.535   1.416   5.231  1.0341  0.1403 -0.9896
13009TIP3    H238971   5.537   1.392   5.380 -0.9765 -0.3233 -1.0227
13010TIP3   OH238972   7.636   0.421   6.289 -0.1876 -0.0423  0.0103
13010TIP3    H138973   7.632   0.493   6.352 -1.8930 -0.0307 -0.0841
13010TIP3    H238974   7.720   0.432   6.244 -0.4388  1.8975 -0.0184
13011TIP3   OH238975   5.400   7.969   5.056  0.2740  0.3666 -0.2477
13011TIP3    H138976   5.323   7.945   5.004  0.1074  2.4623 -1.0418
13011TIP3    H238977   5.473   7.962   4.995  0.3351  1.0226 -0.2547
13012TIP3   OH238978   2.452   1.132   6.686  0.1293 -0.1658 -0.0571
13012TIP3    H138979   2.537   1.176   6.683 -0.1589  0.3818 -0.3620
13012TIP3    H238980   2.465   1.051   6.637  0.7060 -0.4924  0.6337
13013TIP3   OH238981   5.902   0.979   3.870 -0.4205 -1.1004 -0.3926
13013TIP3    H138982   5.911   1.053   3.930  0.5292 -1.3757 -0.1979
13013TIP3    H238983   5.807   0.965   3.863 -0.6260  0.5159 -0.8995
13014TIP3   OH238984   1.405   7.201   4.053 -0.1198  0.0345  0.5366
13014TIP3    H138985   1.492   7.241   4.060  1.3715 -2.8547 -0.4371
13014TIP3    H238986   1.366   7.211   4.139  0.6067  2.5768  0.6095
13015TIP3   OH238987   1.269   6.515   4.958 -0.2373 -0.0032 -0.3724
13015TIP3    H138988   1.294   6.559   4.876  4.0860 -0.5457  0.5429
13015TIP3    H238989   1.291   6.579   5.026 -1.2075 -0.6286  0.5223
13016TIP3   OH238990   5.771   7.491   2.910 -0.2136  0.4160 -0.1476
13016TIP3    H138991   5.827   7.413   2.908 -0.1560  0.4678 -0.5849
13016TIP3    H238992   5.683   7.456   2.927 -0.1381  0.2869 -0.0156
13017TIP3   OH238993   1.919   5.379   4.738 -0.5710 -0.3951 -0.5002
13017TIP3    H138994   2.006   5.413   4.755  0.5895 -1.9465 -3.0000
13017TIP3    H238995   1.910   5.304   4.797 -0.5554  0.2610  0.3405
13018TIP3   OH238996   2.379   7.717   6.284  0.2185 -0.5990  0.1312
13018TIP3    H138997   2.391   7.734   6.378 -0.1563 -0.4721  0.1584
13018TIP3    H238998   2.329   7.636   6.281 -2.4669  1.0036  0.1116
13019TIP3   OH238999   6.449   1.012   6.296 -0.0111  0.5470  0.0601
13019TIP3    H139000   6.364   1.019   6.341  0.1795 -2.5601  0.9867
13019TIP3    H239001   6.448   1.084   6.232 -1.5602  3.1901  2.9249
13020TIP3   OH239002   3.402   7.710   4.471  0.2995  0.8165  0.2216
13020TIP3    H139003   3.453   7.768   4.414 -0.1102  0.9591  0.0045
13020TIP3    H239004   3.356   7.768   4.530 -0.4970  0.7344 -0.3144
13021TIP3   OH239005   7.818   1.599   5.406  0.3097  0.5431  0.3054
13021TIP3    H139006   7.804   1.504   5.411  0.4386  0.5899  1.9760
13021TIP3    H239007   7.896   1.610   5.352 -0.7393 -0.2075 -1.3750
13022TIP3   OH239008   6.416   1.328   4.560  0.2967 -0.3866  0.2814
13022TIP3    H139009   6.335   1.362   4.521  0.6096  0.6911  0.5758
13022TIP3    H239010   6.396   1.320   4.653  0.8301  0.7592  0.4980
13023TIP3   OH239011   7.783   4.136   4.759  0.0933  0.2349 -0.5013
13023TIP3    H139012   7.774   4.043   4.779  0.6553 -0.0613 -1.5979
13023TIP3    H239013   7.764   4.143   4.666  1.5040  0.9943 -0.7543
13024TIP3   OH239014   7.399   1.762   3.468  0.2838 -0.1697  0.2055
13024TIP3    H139015   7.318   1.713   3.485  1.4138 -2.0565  0.3574
13024TIP3    H239016   7.370   1.844   3.428 -1.6791 -0.9563 -0.0497
13025TIP3   OH239017   4.480   7.776   6.399  0.0688  0.0649  0.3638
13025TIP3    H139018   4.576   7.768   6.402  0.1555  0.9071  0.0867
13025TIP3    H239019   4.448   7.686   6.408  0.8885 -0.2362  0.3547
13026TIP3   OH239020   6.812   1.146   4.189 -0.5103 -0.4506 -0.0022
13026TIP3    H139021   6.828   1.240   4.196  0.1830 -0.5335 -0.4053
13026TIP3    H239022   6.892   1.111   4.148 -0.2244 -1.3899  1.2987
13027TIP3   OH239023   0.109   2.909   0.591  0.1636  0.3610  0.0442
13027TIP3    H139024   0.050   2.856   0.536  0.2690 -1.1458  1.3223
13027TIP3    H239025   0.190   2.915   0.541  0.6385 -1.9429  0.4576
13028TIP3   OH239026   3.737   5.795   5.168  0.6420  0.2362  0.0277
13028TIP3    H139027   3.827   5.807   5.199  0.4532  1.5005  0.1035
13028TIP3    H239028   3.683   5.816   5.244  0.2936 -1.6144  0.3208
13029TIP3   OH239029   7.458   4.754   0.471  0.6587 -0.2786 -0.2381
13029TIP3    H139030   7.399   4.758   0.396  2.0741 -0.0216 -1.3680
13029TIP3    H239031   7.481   4.661   0.479 -1.3014 -0.6587  1.3490
13030TIP3   OH239032   5.721   0.670   6.112 -0.1037 -0.7123  0.0210
13030TIP3    H139033   5.785   0.728   6.153  1.0132 -2.5005  0.9147
13030TIP3    H239034   5.655   0.728   6.075  1.1146  1.1091  0.6487
13031TIP3   OH239035   3.525   7.736   4.038 -0.6972  0.1524  0.1512
13031TIP3    H139036   3.430   7.746   4.034 -0.4950  2.3120  0.1391
13031TIP3    H239037   3.549   7.705   3.950 -1.3139  0.1551 -0.0236
13032TIP3   OH239038   4.509   7.643   3.601 -0.1376  0.1422  0.3929
13032TIP3    H139039   4.518   7.573   3.665 -0.4085 -0.5827 -0.3658
13032TIP3    H239040   4.577   7.706   3.625  1.0378 -1.0447  0.2128
13033TIP3   OH239041   6.023   6.856   3.129 -0.1433 -0.2421  0.3126
13033TIP3    H139042   6.077   6.845   3.207 -1.1158  1.1542  1.2198
13033TIP3    H239043   5.975   6.938   3.145  0.0456  0.3518 -1.9939
13034TIP3   OH239044   2.612   7.834   5.818  0.4363 -0.1160 -0.4917
13034TIP3    H139045   2.649   7.787   5.743 -1.0349 -0.0134 -1.3113
13034TIP3    H239046   2.600   7.768   5.885 -0.8786 -0.7871 -1.3578
13035TIP3   OH239047   3.992   6.723   5.086 -0.0925  0.3886 -0.0176
13035TIP3    H139048   4.084   6.748   5.081 -0.3477  1.8811  2.2419
13035TIP3    H239049   3.986   6.669   5.164 -0.7513 -1.5861 -1.3902
13036TIP3   OH239050   8.356   1.313   5.759  0.1075  0.2052 -0.0706
13036TIP3    H139051   8.436   1.303   5.810  0.0967  3.7913  0.7891
13036TIP3    H239052   8.381   1.288   5.670  1.7747 -0.1659  0.4871
13037TIP3   OH239053   6.629   6.764   4.221 -0.1387  0.1462 -0.4789
13037TIP3    H139054   6.711   6.806   4.247 -0.6705  0.4327  0.7627
13037TIP3    H239055   6.629   6.680   4.267 -0.4897  0.1042 -0.5503
13038TIP3   OH239056   1.720   6.713   5.283  0.0165 -0.5821 -0.4308
13038TIP3    H139057   1.700   6.652   5.354 -1.6747  0.1821 -0.2236
13038TIP3    H239058   1.811   6.740   5.300 -0.7726  0.6131  2.2362
13039TIP3   OH239059   4.783   7.944   5.610  0.2368 -0.5475  0.6727
13039TIP3    H139060   4.705   7.992   5.637 -0.2394 -1.6742  1.3076
13039TIP3    H239061   4.855   8.006   5.625 -0.3892  0.0448  1.2703
13040TIP3   OH239062   5.380   0.668   2.472  0.4060 -0.0622  0.3732
13040TIP3    H139063   5.438   0.707   2.407 -0.1148  1.4301  0.7849
13040TIP3    H239064   5.361   0.739   2.533 -0.5882 -0.9597  1.1261
13041TIP3   OH239065   2.768   7.422   3.732  0.2653 -0.5527  0.4288
13041TIP3    H139066   2.768   7.387   3.821 -1.2889  0.2529  0.7515
13041TIP3    H239067   2.697   7.375   3.687  0.6313 -0.4992 -0.2165
13042TIP3   OH239068   5.175   6.058   5.884  0.1673  0.5921 -0.0397
13042TIP3    H139069   5.170   6.048   5.789  2.4546  1.6699 -0.3286
13042TIP3    H239070   5.089   6.090   5.910 -0.2723  0.9219 -1.8448
13043TIP3   OH239071   8.074   0.576   5.495  0.2951  0.1901  0.2392
13043TIP3    H139072   8.117   0.601   5.414  0.2259  2.8244  0.9672
13043TIP3    H239073   8.132   0.511   5.535  1.3477  0.3984 -0.9336
13044TIP3   OH239074   6.074   1.230   4.731 -0.2552 -0.6023  0.1492
13044TIP3    H139075   6.091   1.200   4.641 -1.3431 -0.1503 -0.2073
13044TIP3    H239076   6.161   1.249   4.766  0.2281 -1.4483 -0.5811
13045TIP3   OH239077   6.109   0.924   5.675 -0.2250 -0.2043  0.1671
13045TIP3    H139078   6.104   0.860   5.604  0.5273  0.4158 -0.4514
13045TIP3    H239079   6.035   0.983   5.660  0.3706  0.3640 -0.5296
13046TIP3   OH239080   4.587   7.461   5.129  0.1502 -0.5387  0.0604
13046TIP3    H139081   4.566   7.377   5.089  1.5345 -1.1854  0.6469
13046TIP3    H239082   4.647   7.503   5.067  0.6658 -0.6540  0.4762
13047TIP3   OH239083   6.692   1.656   5.382  0.8992 -0.5573  0.5101
13047TIP3    H139084   6.651   1.741   5.367  0.0892 -0.9147  0.6598
13047TIP3    H239085   6.707   1.653   5.477  1.6328 -0.2599  0.3988
13048TIP3   OH239086   8.027   2.846   6.484  0.2081 -0.0329  0.8431
13048TIP3    H139087   8.106   2.804   6.516 -0.8221 -0.7529  2.5139
13048TIP3    H239088   8.050   2.877   6.396  1.7326 -1.9724  0.5174
13049TIP3   OH239089   8.136   0.455   6.142  0.2943  0.4179 -0.3144
13049TIP3    H139090   8.041   0.460   6.148  0.1089 -0.9669 -1.9266
13049TIP3    H239091   8.163   0.545   6.123 -0.6904  0.7832 -0.0102
13050TIP3   OH239092   4.676   2.193   2.954 -0.3587  0.0001 -0.7203
13050TIP3    H139093   4.695   2.106   2.918 -1.1178 -0.9312  1.0699
13050TIP3    H239094   4.638   2.176   3.040 -1.5711  2.0833 -0.8025
13051TIP3   OH239095   5.862   0.925   2.868  0.3974  0.6240  0.1309
13051TIP3    H139096   5.873   0.975   2.788 -3.4362 -1.7691 -2.0205
13051TIP3    H239097   5.950   0.892   2.888  2.0872  4.2083 -0.9701
13052TIP3   OH239098   4.305   2.616   6.591 -0.0940 -0.1603  0.2414
13052TIP3    H139099   4.366   2.544   6.577 -1.3006 -1.1735  0.0575
13052TIP3    H239100   4.322   2.646   6.680  0.0359 -1.0586  0.5240
13053TIP3   OH239101   3.337   7.425   5.910  0.0300 -0.1967 -0.0973
13053TIP3    H139102   3.291   7.352   5.869 -1.6408 -0.0252  1.4089
13053TIP3    H239103   3.271   7.492   5.921  0.7559  0.2683  1.6200
13054TIP3   OH239104   2.170   6.459   5.993  0.0459  0.5925  0.2257
13054TIP3    H139105   2.258   6.422   5.989  0.1158  0.8338 -0.5507
13054TIP3    H239106   2.113   6.389   5.959  0.3957  1.8656 -3.1674
13055TIP3   OH239107   2.709   3.614   1.232  0.4522 -0.9362  0.1417
13055TIP3    H139108   2.681   3.548   1.169  0.4419 -1.3252  0.5490
13055TIP3    H239109   2.706   3.569   1.317 -0.2154 -0.2120  0.5096
13056TIP3   OH239110   4.529   7.434   3.779  0.0743  0.2958 -0.4985
13056TIP3    H139111   4.603   7.432   3.840  1.0614  0.9992 -1.6300
13056TIP3    H239112   4.533   7.350   3.733 -0.9946 -0.4579  0.7650
13057TIP3   OH239113   7.746   1.975   4.966 -0.2723 -0.7321  0.3523
13057TIP3    H139114   7.709   2.062   4.954  1.5731 -0.1067 -1.0469
13057TIP3    H239115   7.793   1.979   5.049 -0.8437 -0.6285  0.6675
13058TIP3   OH239116   6.736   0.543   5.269 -0.4466 -0.3364  0.0022
13058TIP3    H139117   6.674   0.506   5.332 -1.6062  0.2840 -0.7664
13058TIP3    H239118   6.731   0.637   5.282  1.4328 -0.3368  0.9373
13059TIP3   OH239119   3.761   7.390   5.162  0.0489 -0.0539 -0.2242
13059TIP3    H139120   3.726   7.479   5.167  0.2578  0.0114  0.1198
13059TIP3    H239121   3.854   7.402   5.140 -0.1371 -0.2252 -1.1305
13060TIP3   OH239122   8.352   0.642   4.188  0.7694  0.1487  0.1323
13060TIP3    H139123   8.435   0.597   4.201  0.2232 -0.7296  0.6236
13060TIP3    H239124   8.296   0.578   4.144  0.8044  1.2316 -1.5223
13061TIP3   OH239125   1.461   5.259   5.443  0.1704 -0.1309 -0.3329
13061TIP3    H139126   1.539   5.283   5.393 -0.3922 -1.0701 -1.6827
13061TIP3    H239127   1.399   5.331   5.428 -0.1124 -0.5647 -1.2439
13062TIP3   OH239128   4.804   7.709   5.488  0.3957  0.6302  0.2033
13062TIP3    H139129   4.788   7.795   5.526 -1.1407  0.1809  0.5920
13062TIP3    H239130   4.866   7.667   5.547  0.0938  0.9548  0.7513
13063TIP3   OH239131   7.954   7.586   3.417 -0.3006  0.3518 -0.1769
13063TIP3    H139132   7.896   7.650   3.459  0.0921  0.3053  0.4452
13063TIP3    H239133   7.960   7.515   3.481  0.3860  0.3234 -0.2774
13064TIP3   OH239134   4.051   6.880   6.893  0.2935 -0.3160 -0.7256
13064TIP3    H139135   4.006   6.815   6.947 -1.1277  1.2995  0.0700
13064TIP3    H239136   4.117   6.918   6.950 -0.3147  0.4464 -0.5197
13065TIP3   OH239137   4.364   5.279   6.727  0.5649 -0.3872 -0.2431
13065TIP3    H139138   4.406   5.349   6.677 -0.9581  0.5854 -0.1795
13065TIP3    H239139   4.312   5.231   6.662  0.0377 -0.2452  0.0719
13066TIP3   OH239140   5.746   0.744   4.154  0.4445  0.3982  0.3194
13066TIP3    H139141   5.841   0.754   4.144  0.4217 -0.9210 -1.4782
13066TIP3    H239142   5.736   0.673   4.218  0.6447  1.9238  2.0707
13067TIP3   OH239143   2.157   5.489   0.369  0.5720  0.4569 -0.2496
13067TIP3    H139144   2.169   5.583   0.385  0.2104  0.5722 -0.6468
13067TIP3    H239145   2.243   5.450   0.384  1.1759  1.1029 -1.9199
13068TIP3   OH239146   1.755   0.688   4.548  0.0173  0.2315  0.6120
13068TIP3    H139147   1.795   0.696   4.461  1.4304  0.7750  1.2998
13068TIP3    H239148   1.816   0.636   4.599 -1.2950 -0.9557  1.0044
13069TIP3   OH239149   6.919   0.648   6.113  0.2260 -0.3712  0.2339
13069TIP3    H139150   6.886   0.560   6.096  1.0796 -1.1057  2.1939
13069TIP3    H239151   6.992   0.659   6.052 -0.0786 -0.8974 -0.2283
13070TIP3   OH239152   5.481   7.325   4.509  0.4007 -0.1483  0.0430
13070TIP3    H139153   5.407   7.331   4.449 -0.9658 -2.2906  1.4369
13070TIP3    H239154   5.454   7.375   4.585  0.4966 -0.6863  0.4348
13071TIP3   OH239155   7.425   3.505   5.387 -0.3992  0.2503  0.4375
13071TIP3    H139156   7.494   3.479   5.448 -0.2525  0.7349  0.4793
13071TIP3    H239157   7.471   3.556   5.320 -0.5055 -0.5693 -0.2628
13072TIP3   OH239158   2.295   3.019   1.688  0.2961  0.0163  0.4058
13072TIP3    H139159   2.300   3.017   1.593 -1.4895 -1.3237  0.3105
13072TIP3    H239160   2.259   3.105   1.709 -0.5191 -0.1801 -0.1992
13073TIP3   OH239161   3.887   7.688   6.597  0.2837 -0.4359 -0.7941
13073TIP3    H139162   3.894   7.641   6.680  0.3158 -0.2887 -0.7152
13073TIP3    H239163   3.908   7.621   6.531  1.2092 -0.3147 -0.6320
13074TIP3   OH239164   0.359   1.736   0.286 -0.0351 -0.2453 -0.0286
13074TIP3    H139165   0.377   1.668   0.351  0.6231 -0.9904 -0.9558
13074TIP3    H239166   0.347   1.687   0.204 -1.7044  0.6062 -0.3157
13075TIP3   OH239167   3.584   6.823   6.242  0.1543  0.2210 -0.1279
13075TIP3    H139168   3.546   6.763   6.306 -0.2658  2.5657  1.8874
13075TIP3    H239169   3.675   6.796   6.235  0.5277  0.7295  2.4517
13076TIP3   OH239170   4.097   7.939   6.530  0.7461  0.2126 -0.5850
13076TIP3    H139171   4.191   7.958   6.526  0.5951  1.0709 -0.2978
13076TIP3    H239172   4.092   7.847   6.554  1.5160  0.1263 -0.7354
13077TIP3   OH239173   7.356   6.083   4.361 -0.2721 -0.1438 -0.1446
13077TIP3    H139174   7.386   5.993   4.373  0.7884  0.2076 -0.1011
13077TIP3    H239175   7.428   6.126   4.314 -1.2343  0.3953 -1.1458
13078TIP3   OH239176   7.700   0.148   5.277  0.3411  0.4119 -0.0637
13078TIP3    H139177   7.752   0.100   5.213  0.3780 -0.3980  0.5546
13078TIP3    H239178   7.762   0.206   5.321  0.1518  1.5943 -1.3431
13079TIP3   OH239179   6.846   1.758   3.148  0.1380  0.5287 -0.2298
13079TIP3    H139180   6.839   1.759   3.053  0.4557 -0.2800 -0.2728
13079TIP3    H239181   6.767   1.802   3.179 -0.9895 -1.0074 -0.8354
13080TIP3   OH239182   4.873   7.886   5.007  0.5099 -0.1538 -0.1043
13080TIP3    H139183   4.963   7.857   4.991  0.4796  0.3761 -1.2252
13080TIP3    H239184   4.847   7.837   5.085  1.8861 -0.0517  0.4474
13081TIP3   OH239185   8.317   0.395   5.600  0.7737  0.2198  0.4870
13081TIP3    H139186   8.338   0.320   5.546  0.3733  0.3928  0.0833
13081TIP3    H239187   8.401   0.425   5.635  0.9215 -0.4424  0.6879
13082TIP3   OH239188   5.869   5.966   4.578 -0.1045 -0.1769  0.0831
13082TIP3    H139189   5.806   5.932   4.515 -1.3590  0.2534  1.0940
13082TIP3    H239190   5.866   5.905   4.652  2.5758 -1.6285 -0.9250
13083TIP3   OH239191   0.753   3.297   3.050 -0.3028 -0.4206 -0.3001
13083TIP3    H139192   0.764   3.207   3.081  2.2651 -0.1734 -0.3638
13083TIP3    H239193   0.843   3.330   3.042 -1.1922  1.8568 -1.1225
13084TIP3   OH239194   5.746   3.213   1.091 -0.1007  0.3126 -0.6011
13084TIP3    H139195   5.741   3.132   1.141  1.0719  0.8046  0.3452
13084TIP3    H239196   5.838   3.239   1.096 -0.6066  2.1171 -0.2207
13085TIP3   OH239197   3.978   5.022   1.268  0.0777  0.1682  0.2407
13085TIP3    H139198   3.964   4.997   1.176  1.4551 -0.6016  0.2366
13085TIP3    H239199   4.026   5.104   1.264  0.8245 -0.2678  0.2780
13086TIP3   OH239200   8.112   2.771   3.123  0.0253 -0.3031 -0.7852
13086TIP3    H139201   8.183   2.707   3.118  0.9265  0.4925  1.4000
13086TIP3    H239202   8.135   2.837   3.056  0.6475 -0.7194 -0.9880
13087TIP3   OH239203   6.731   7.155   4.952 -0.1887  0.0498 -0.4269
13087TIP3    H139204   6.656   7.097   4.967 -0.7950  0.4006 -1.9240
13087TIP3    H239205   6.747   7.197   5.036 -1.9691  0.2884 -0.1914
13088TIP3   OH239206   4.049   7.690   3.595 -0.3980 -0.1497 -0.2244
13088TIP3    H139207   4.096   7.607   3.601  2.0328  1.1349 -0.8239
13088TIP3    H239208   4.019   7.707   3.685  2.3522  0.1201  0.6976
13089TIP3   OH239209   7.290   1.358   5.647  0.4439  0.3613 -0.0375
13089TIP3    H139210   7.274   1.410   5.726 -1.2528 -0.9346  0.4861
13089TIP3    H239211   7.252   1.409   5.576 -1.2769 -0.1768  0.4842
13090TIP3   OH239212   8.172   1.420   4.001 -0.2777  0.0650 -0.5448
13090TIP3    H139213   8.213   1.453   4.081  2.5752  0.7517 -2.2307
13090TIP3    H239214   8.133   1.497   3.960 -1.5877 -0.2613  0.0293
13091TIP3   OH239215   7.688   0.680   4.211 -0.0802  0.5882 -0.4261
13091TIP3    H139216   7.716   0.625   4.138  0.9399 -0.3027  0.6269
13091TIP3    H239217   7.610   0.636   4.246  1.2793 -0.7191  1.0046
13092TIP3   OH239218   6.342   6.759   4.994 -0.0229  0.4475 -0.2206
13092TIP3    H139219   6.431   6.761   4.959  0.5555  0.1790  1.2074
13092TIP3    H239220   6.291   6.712   4.928  0.8674  0.6702 -1.0786
13093TIP3   OH239221   0.938   0.919   3.268 -0.2279  0.2214  0.2775
13093TIP3    H139222   0.878   0.920   3.193  0.4364  0.0013 -0.2581
13093TIP3    H239223   0.987   0.837   3.259  0.4826  0.6232  0.4448
13094TIP3   OH239224   0.843   7.826   3.004  0.0437  0.0722  0.0769
13094TIP3    H139225   0.895   7.813   2.925 -0.7219 -2.1871 -0.0869
13094TIP3    H239226   0.908   7.840   3.073  0.7701  0.1506 -0.6144
13095TIP3   OH239227   2.923   6.323   6.379  0.2635  0.5981 -0.6114
13095TIP3    H139228   2.966   6.334   6.463  0.8233  0.0126 -0.8149
13095TIP3    H239229   2.930   6.229   6.361  1.2658  0.9053 -1.9064
13096TIP3   OH239230   7.792   1.004   5.989  0.0075 -0.2269  0.3833
13096TIP3    H139231   7.701   1.006   6.018  0.1086 -0.1806  0.6939
13096TIP3    H239232   7.793   1.059   5.910  0.0823  1.0965  1.2795
13097TIP3   OH239233   5.459   6.976   3.610  0.1719  0.8678 -0.0247
13097TIP3    H139234   5.390   6.914   3.586 -0.0623  1.1303 -0.0255
13097TIP3    H239235   5.539   6.939   3.570 -0.1521  1.1279 -0.9296
13098TIP3   OH239236   0.310   7.749   4.818 -0.5295 -0.0931  0.3576
13098TIP3    H139237   0.353   7.664   4.821  0.1806  0.2451 -0.0123
13098TIP3    H239238   0.250   7.749   4.892  0.9636 -0.1300  1.5876
13099TIP3   OH239239   0.428   3.757   0.071  0.0744 -0.7909 -0.5291
13099TIP3    H139240   0.356   3.720   0.020  1.6936 -2.8350 -1.4024
13099TIP3    H239241   0.480   3.805   0.007 -0.3332  0.4292  0.0452
13100TIP3   OH239242   6.066   5.740   5.339  0.4835  0.5444  0.4602
13100TIP3    H139243   5.976   5.709   5.347  0.4722 -0.0354 -1.7620
13100TIP3    H239244   6.119   5.674   5.384 -0.2816  1.5769  2.9798
13101TIP3   OH239245   5.017   5.136   5.014 -0.1615  0.1421  0.3137
13101TIP3    H139246   5.098   5.135   4.962  0.0246  0.6133  0.5868
13101TIP3    H239247   5.016   5.051   5.058  1.2754  0.9454  1.9539
13102TIP3   OH239248   5.756   7.191   3.882  0.3627 -0.3745 -0.0042
13102TIP3    H139249   5.787   7.256   3.945  0.9193 -0.8735  0.2284
13102TIP3    H239250   5.795   7.218   3.799  0.6420 -0.4463  0.1043
13103TIP3   OH239251   4.606   7.484   4.751 -0.3677  0.0469 -0.0374
13103TIP3    H139252   4.581   7.396   4.779  1.7594 -0.5345  0.1184
13103TIP3    H239253   4.647   7.471   4.666 -1.2620  1.0748 -0.6403
13104TIP3   OH239254   1.513   4.438   6.261 -0.4832  0.2254 -0.0292
13104TIP3    H139255   1.532   4.347   6.235  0.8578  0.3748  0.3811
13104TIP3    H239256   1.519   4.487   6.180  3.1434  0.6034  0.3786
13105TIP3   OH239257   2.646   7.610   5.140 -0.3695 -0.5096 -0.2519
13105TIP3    H139258   2.681   7.626   5.053  0.2319 -0.2431  0.0328
13105TIP3    H239259   2.558   7.647   5.138 -0.2657 -0.2834 -0.6662
13106TIP3   OH239260   4.108   7.211   4.484 -0.2317 -0.2542 -0.3757
13106TIP3    H139261   4.097   7.231   4.391 -0.2568  1.7005  0.0292
13106TIP3    H239262   4.200   7.231   4.502 -0.6900  1.1910  0.4325
13107TIP3   OH239263   5.153   7.666   6.101 -0.4495 -0.7298 -0.5236
13107TIP3    H139264   5.115   7.581   6.081  1.0804 -1.2090 -1.4782
13107TIP3    H239265   5.241   7.663   6.064  0.4488  0.4487  1.4070
13108TIP3   OH239266   7.666   0.582   5.812  0.0964 -0.1730 -0.3216
13108TIP3    H139267   7.653   0.487   5.808 -2.4111 -0.0266  2.2776
13108TIP3    H239268   7.701   0.598   5.899 -1.0152  1.4036 -0.1312
13109TIP3   OH239269   5.434   0.577   2.795 -0.3127  0.2552  0.1569
13109TIP3    H139270   5.417   0.657   2.746  0.4349  0.6582  0.5468
13109TIP3    H239271   5.526   0.558   2.778 -0.6791 -0.9328 -0.5317
13110TIP3   OH239272   4.099   7.180   5.787  0.2302 -0.0707 -0.0995
13110TIP3    H139273   4.059   7.266   5.802  0.4840  0.0059  0.1281
13110TIP3    H239274   4.185   7.200   5.750  0.7048 -0.2075  0.9200
13111TIP3   OH239275   1.206   3.015   0.216 -0.2123  0.9187  0.7734
13111TIP3    H139276   1.244   2.946   0.270 -0.7742  1.0293  1.3205
13111TIP3    H239277   1.115   2.988   0.203  0.4570 -0.1439 -1.8516
13112TIP3   OH239278   1.890   4.523   0.591 -0.1114  0.3787  0.3453
13112TIP3    H139279   1.947   4.589   0.631 -1.0932  2.5990 -1.7856
13112TIP3    H239280   1.947   4.449   0.574  1.2016  0.9677  2.0741
13113TIP3   OH239281   8.250   0.723   6.116 -0.1664  0.5139 -0.3112
13113TIP3    H139282   8.198   0.742   6.194  1.3409  1.9318  0.3848
13113TIP3    H239283   8.224   0.790   6.052  0.0453  0.5905 -0.3189
13114TIP3   OH239284   0.371   0.250   4.797 -0.1993 -0.5465 -0.2154
13114TIP3    H139285   0.365   0.342   4.771  3.4144  0.2486  1.3368
13114TIP3    H239286   0.389   0.253   4.891  1.5465 -2.7583 -0.4239
13115TIP3   OH239287   6.252   7.079   5.192  0.9016  0.4325 -0.4704
13115TIP3    H139288   6.256   7.151   5.255  1.5059  1.0988 -1.2608
13115TIP3    H239289   6.206   7.116   5.117  0.8892 -0.1213 -0.7367
13116TIP3   OH239290   7.368   0.961   4.655 -0.4859  0.6165 -0.4414
13116TIP3    H139291   7.364   0.868   4.633 -2.1708  0.0567  1.9792
13116TIP3    H239292   7.449   0.971   4.706 -1.0876  0.1433  0.6229
13117TIP3   OH239293   1.665   0.226   4.352  0.2165 -0.0956  0.3683
13117TIP3    H139294   1.641   0.138   4.326  0.2696 -0.3171  1.0569
13117TIP3    H239295   1.735   0.214   4.416  2.0000  0.5192 -1.3815
13118TIP3   OH239296   0.824   1.213   4.412  0.0819 -0.2483 -0.7072
13118TIP3    H139297   0.863   1.291   4.450 -0.4484  0.6060 -1.8911
13118TIP3    H239298   0.897   1.151   4.404  0.2562 -0.3530  1.3861
13119TIP3   OH239299   4.765   7.503   2.281 -0.0040  0.2404 -0.0179
13119TIP3    H139300   4.734   7.568   2.345 -0.6718 -0.8191  0.7537
13119TIP3    H239301   4.692   7.494   2.220 -1.0182 -1.7982  1.4460
13120TIP3   OH239302   5.865   1.065   5.584 -0.7998  0.3499 -0.6436
13120TIP3    H139303   5.797   1.006   5.614 -0.5917  1.0014  1.1596
13120TIP3    H239304   5.827   1.152   5.594  0.3108  0.7203  0.4653
13121TIP3   OH239305   1.065   0.619   4.983 -0.0687  0.7928  0.3907
13121TIP3    H139306   0.971   0.633   4.967 -0.0645  0.9031  0.4625
13121TIP3    H239307   1.077   0.524   4.973  0.1605  0.9896 -1.5036
13122TIP3   OH239308   7.404   8.031   3.013 -0.1038  0.2349 -0.0744
13122TIP3    H139309   7.456   8.037   2.934 -1.1510 -0.9915 -0.8787
13122TIP3    H239310   7.388   7.937   3.024 -1.5977  0.5426  0.5032
13123TIP3   OH239311   0.786   0.544   4.092 -0.2305  0.1474 -0.3754
13123TIP3    H139312   0.796   0.583   4.179  0.0362  2.2450 -1.3136
13123TIP3    H239313   0.874   0.512   4.070 -0.7932 -2.6153  1.0937
13124TIP3   OH239314   1.077   2.083   6.712 -0.1820 -0.9356  0.1990
13124TIP3    H139315   1.152   2.081   6.771 -0.4784 -1.2147  0.5741
13124TIP3    H239316   1.001   2.085   6.771 -0.4453  1.3534 -0.1585
13125TIP3   OH239317   6.672   7.369   4.572  0.3504  0.1331 -0.2788
13125TIP3    H139318   6.600   7.334   4.624  0.6067  0.0073 -0.0044
13125TIP3    H239319   6.736   7.398   4.637  0.1639  1.0611 -0.5110
13126TIP3   OH239320   6.260   1.919   3.031  0.2211 -0.2114 -0.3027
13126TIP3    H139321   6.217   1.912   3.117 -0.0338  1.9358 -0.2324
13126TIP3    H239322   6.204   1.978   2.981  0.8330 -0.7716 -1.6776
13127TIP3   OH239323   8.250   0.223   4.482 -0.0467 -0.0251  0.6817
13127TIP3    H139324   8.156   0.205   4.483 -0.3140  1.3097  0.7936
13127TIP3    H239325   8.290   0.147   4.523 -0.9135 -1.4552 -1.0444
13128TIP3   OH239326   7.729   1.037   5.225  0.7470  0.1794 -0.0926
13128TIP3    H139327   7.783   1.084   5.162  0.9317 -1.2161 -0.9854
13128TIP3    H239328   7.789   0.980   5.272  0.1281 -1.1662 -0.8916
13129TIP3   OH239329   6.965   5.265   5.747 -0.1776  0.7483 -0.2969
13129TIP3    H139330   6.915   5.326   5.692 -0.0091 -0.9311 -2.3425
13129TIP3    H239331   6.901   5.229   5.808 -1.0003  0.3147 -1.4129
13130TIP3   OH239332   2.972   3.944   6.227 -0.0105 -0.4368  0.4697
13130TIP3    H139333   2.920   3.927   6.305 -0.4559 -0.1621  0.2374
13130TIP3    H239334   2.945   3.876   6.165 -0.8638  0.3357 -0.0157
13131TIP3   OH239335   6.352   7.917   2.937  0.6847  0.3993  0.2157
13131TIP3    H139336   6.303   7.949   3.013  0.5803  0.8664 -0.0445
13131TIP3    H239337   6.442   7.910   2.969  0.6465  0.6201  0.3796
13132TIP3   OH239338   0.814   1.433   5.763 -0.3328  0.0338 -0.0861
13132TIP3    H139339   0.731   1.456   5.804 -0.8355  0.4035 -1.2715
13132TIP3    H239340   0.800   1.451   5.670  0.8049 -0.6971 -0.4048
13133TIP3   OH239341   8.270   0.995   4.631  0.2508 -0.3221  0.0025
13133TIP3    H139342   8.200   0.943   4.592  2.1404 -2.8267 -0.2624
13133TIP3    H239343   8.245   1.086   4.617 -3.1447 -1.1454  0.3461
13134TIP3   OH239344   8.484   0.430   5.244  0.4518 -0.1507  0.0654
13134TIP3    H139345   8.435   0.463   5.319 -1.8681 -0.4057 -1.2896
13134TIP3    H239346   8.438   0.350   5.219  1.7823 -0.5912 -1.0491
13135TIP3   OH239347   8.397   7.550   3.808  0.1690 -0.3697 -0.3455
13135TIP3    H139348   8.385   7.461   3.841 -1.4481 -0.1553 -0.3137
13135TIP3    H239349   8.387   7.542   3.713  2.8014 -0.6567 -0.6315
13136TIP3   OH239350   8.362   1.674   5.148  0.5788  0.0056 -0.4004
13136TIP3    H139351   8.278   1.705   5.181  0.6422  0.8859 -1.0386
13136TIP3    H239352   8.375   1.723   5.067  0.9304 -1.3311 -1.1655
13137TIP3   OH239353   0.307   4.109   4.961  0.5034  0.4056 -1.0261
13137TIP3    H139354   0.363   4.097   5.038 -0.6590  1.1588 -0.0554
13137TIP3    H239355   0.311   4.203   4.942 -0.0711  0.3897 -1.2333
13138TIP3   OH239356   7.677   1.039   2.255 -0.1278  0.3827  0.5369
13138TIP3    H139357   7.605   1.019   2.315 -0.8464  2.2330  0.3327
13138TIP3    H239358   7.637   1.092   2.186  0.8653 -1.0166 -1.1368
13139TIP3   OH239359   0.058   1.034   3.555 -0.1944 -0.1064 -0.1995
13139TIP3    H139360   0.111   1.097   3.506  2.9577 -3.1502 -0.8862
13139TIP3    H239361   0.047   0.960   3.495 -1.2125 -1.5146  1.6616
13140TIP3   OH239362   7.579   6.169   3.831 -0.1414  0.2056  0.3493
13140TIP3    H139363   7.529   6.145   3.909  0.1932 -1.2747  0.1161
13140TIP3    H239364   7.543   6.254   3.805 -3.3098 -1.3020 -0.4417
13141TIP3   OH239365   4.787   7.778   2.862  0.0729  0.4800 -0.0444
13141TIP3    H139366   4.845   7.706   2.837  0.2402  0.7934 -0.5629
13141TIP3    H239367   4.702   7.755   2.823 -0.2159 -0.0939  0.9093
13142TIP3   OH239368   0.302   1.749   2.445  0.6082  0.1558 -0.0285
13142TIP3    H139369   0.335   1.663   2.473 -0.9827 -0.8696 -1.2300
13142TIP3    H239370   0.257   1.784   2.522 -1.3747 -1.4481 -0.4106
13143TIP3   OH239371   5.730   7.746   3.885  0.1142 -0.0488  0.1168
13143TIP3    H139372   5.805   7.687   3.874 -0.5973 -0.7880 -0.9760
13143TIP3    H239373   5.766   7.833   3.870  0.5646 -0.4828 -1.4983
13144TIP3   OH239374   1.411   3.800   6.571 -0.0226  0.4594  0.1192
13144TIP3    H139375   1.439   3.880   6.527  1.1886 -0.2987 -0.5239
13144TIP3    H239376   1.485   3.778   6.628  0.0386 -0.6950 -0.3967
13145TIP3   OH239377   0.034   1.572   2.224 -0.2108 -0.4086 -0.0491
13145TIP3    H139378   0.058   1.546   2.135 -1.8933 -1.1370 -0.3176
13145TIP3    H239379   0.109   1.548   2.277  1.7412  2.0483 -1.5765
13146TIP3   OH239380   5.405   7.966   2.971 -0.2234  0.2240 -0.2209
13146TIP3    H139381   5.437   8.055   2.982 -0.1183  0.1035  0.5011
13146TIP3    H239382   5.438   7.939   2.885 -0.2220  0.8627 -0.4231
13147TIP3   OH239383   7.774   5.642   5.098 -0.1318 -0.1232  0.0269
13147TIP3    H139384   7.857   5.689   5.093 -0.6264  0.6809 -1.1170
13147TIP3    H239385   7.716   5.701   5.146  0.0094 -0.7522  0.9656
13148TIP3   OH239386   8.449   0.524   3.205 -0.1418  0.6134  0.0058
13148TIP3    H139387   8.410   0.609   3.220 -0.7761  0.0967  1.3640
13148TIP3    H239388   8.542   0.542   3.190 -0.0255  1.4342  1.6441
13149TIP3   OH239389   7.070   1.711   5.957  0.2760 -0.2281 -0.3666
13149TIP3    H139390   7.035   1.793   5.920  2.3529  1.1393  0.5802
13149TIP3    H239391   7.095   1.734   6.047  2.3102 -1.4701 -0.5655
13150TIP3   OH239392   5.967   1.052   5.066  0.1948 -0.2276 -0.0400
13150TIP3    H139393   5.985   1.066   4.973  0.4952 -1.1545 -0.1249
13150TIP3    H239394   5.956   0.957   5.074 -1.6079  0.0146  0.5449
13151TIP3   OH239395   0.083   2.002   3.954  0.3840  0.2750  0.3080
13151TIP3    H139396   0.050   1.912   3.954 -0.1674  0.4710 -0.2744
13151TIP3    H239397   0.009   2.054   3.921  0.0100  1.1907  2.5264
13152TIP3   OH239398   0.845   0.693   5.536 -0.1040  0.6552  0.2850
13152TIP3    H139399   0.880   0.750   5.604 -0.7548  0.8037  0.4905
13152TIP3    H239400   0.873   0.734   5.454  1.5533 -0.0608  0.4559
13153TIP3   OH239401   0.321   0.621   3.834  0.9682 -0.1232 -0.1773
13153TIP3    H139402   0.258   0.550   3.824  0.9227 -0.0913 -0.1192
13153TIP3    H239403   0.303   0.657   3.921  1.8715 -0.9098  0.3522
13154TIP3   OH239404   5.880   7.098   5.357 -0.2606  0.3129  0.5225
13154TIP3    H139405   5.862   7.192   5.354  2.6140  0.9268  1.1817
13154TIP3    H239406   5.911   7.077   5.269 -2.0995 -0.3229 -0.0050
13155TIP3   OH239407   0.074   7.078   4.040 -0.7411 -0.3278  0.4211
13155TIP3    H139408   0.156   7.050   3.999 -0.1597 -0.1791  1.4656
13155TIP3    H239409   0.075   7.036   4.126 -1.6623 -0.1496  0.5171
13156TIP3   OH239410   5.160   7.834   4.982 -0.3138 -0.7865  0.5219
13156TIP3    H139411   5.144   7.899   5.051  0.0873 -0.3481  0.2046
13156TIP3    H239412   5.159   7.750   5.028 -0.2878 -0.5140  1.0270
13157TIP3   OH239413   7.714   0.282   4.191  0.4220 -0.3793  0.8440
13157TIP3    H139414   7.655   0.289   4.116  0.2021  0.7338  1.1151
13157TIP3    H239415   7.714   0.370   4.230  0.3191 -1.0154  2.3046
13158TIP3   OH239416   6.216   0.973   2.611 -0.0331 -0.8419 -0.2043
13158TIP3    H139417   6.240   1.041   2.548 -0.1902 -0.8620 -0.2862
13158TIP3    H239418   6.261   0.998   2.692 -1.3981  0.2518  0.2226
13159TIP3   OH239419   2.197   0.942   4.444 -0.0626 -0.2905 -0.0931
13159TIP3    H139420   2.192   0.936   4.349  2.5232  2.1569 -0.4648
13159TIP3    H239421   2.135   1.011   4.467  0.2934  0.0649 -0.1793
13160TIP3   OH239422   7.904   0.412   5.100  0.0045  0.2199  0.3389
13160TIP3    H139423   7.994   0.426   5.071 -0.4343  2.0548 -0.1768
13160TIP3    H239424   7.911   0.395   5.194  1.0854 -2.0524 -0.1058
13161TIP3   OH239425   7.507   0.933   6.122  0.3738  0.0816  0.1327
13161TIP3    H139426   7.425   0.902   6.160  0.4480  0.4015  0.5532
13161TIP3    H239427   7.548   0.985   6.191  0.2874  1.0623 -0.5495
13162TIP3   OH239428   7.852   2.841   4.392  0.4242  0.0502  0.6483
13162TIP3    H139429   7.947   2.828   4.394  0.6229  1.0426 -1.0418
13162TIP3    H239430   7.840   2.929   4.428  0.0470 -0.4723  1.8133
13163TIP3   OH239431   2.156   0.240   4.678 -0.4917 -0.2640  0.5013
13163TIP3    H139432   2.117   0.315   4.722 -0.3114 -0.8040  1.6123
13163TIP3    H239433   2.196   0.276   4.599  0.0256  0.8972  1.2779
13164TIP3   OH239434   7.441   7.233   2.973 -0.4945 -0.2864 -0.2568
13164TIP3    H139435   7.459   7.141   2.991 -1.3956 -0.1353  1.4180
13164TIP3    H239436   7.496   7.281   3.034  1.2787  0.3492 -2.2799
13165TIP3   OH239437   8.290   1.825   4.897 -0.2415 -0.5028  0.9396
13165TIP3    H139438   8.333   1.774   4.828  0.8438  1.0533  0.4175
13165TIP3    H239439   8.197   1.805   4.888  0.2494 -3.1713  1.4337
13166TIP3   OH239440   1.501   0.336   3.346  0.4735  0.2399  0.0925
13166TIP3    H139441   1.549   0.413   3.315 -0.4343  0.4222 -0.8591
13166TIP3    H239442   1.542   0.263   3.300 -0.2572  0.4108 -0.8294
13167TIP3   OH239443   5.889   7.797   4.726 -0.0552  0.3198  0.6015
13167TIP3    H139444   5.973   7.762   4.753 -0.8982 -1.0271  1.5303
13167TIP3    H239445   5.837   7.801   4.806 -0.3605  2.6294  0.3229
13168TIP3   OH239446   6.333   7.771   2.121  0.5146  0.6364 -0.5913
13168TIP3    H139447   6.414   7.764   2.071  0.5148 -0.3488 -0.4609
13168TIP3    H239448   6.357   7.820   2.199  1.1792 -0.3604 -0.1567
13169TIP3   OH239449   7.743   0.069   4.327 -0.0707 -0.3309 -0.2902
13169TIP3    H139450   7.738   0.149   4.275  0.4995 -0.5083 -0.6290
13169TIP3    H239451   7.681   0.009   4.284 -1.0394  0.1692  0.4027
13170TIP3   OH239452   6.884   7.691   4.461  0.3993 -0.6290 -0.5640
13170TIP3    H139453   6.946   7.763   4.453 -1.1181  0.6675 -1.0658
13170TIP3    H239454   6.824   7.719   4.531  0.8444 -2.2054  0.4676
13171TIP3   OH239455   4.235   6.310   4.594 -0.2486 -0.1091 -0.1271
13171TIP3    H139456   4.214   6.303   4.687  0.0807 -2.4436 -0.1802
13171TIP3    H239457   4.163   6.265   4.550 -0.0763  0.4081 -0.9480
13172TIP3   OH239458   8.101   1.951   6.126 -0.0093  0.4351 -0.1922
13172TIP3    H139459   8.077   1.901   6.048  0.7798  1.0658 -0.8490
13172TIP3    H239460   8.053   1.909   6.197  1.1704 -1.7270 -0.6067
13173TIP3   OH239461   4.551   7.900   4.479 -0.3018  0.9765 -0.6849
13173TIP3    H139462   4.535   7.980   4.429 -2.1676 -0.0648 -1.7982
13173TIP3    H239463   4.464   7.869   4.504  0.4488 -0.2035  0.5742
13174TIP3   OH239464   6.286   6.728   4.599  0.1337  0.0592  0.0688
13174TIP3    H139465   6.263   6.719   4.691 -3.3995 -0.8790 -0.8287
13174TIP3    H239466   6.262   6.644   4.559  0.4803  0.8585 -1.9058
13175TIP3   OH239467   6.659   6.176   3.806  0.2317 -0.0753  0.0703
13175TIP3    H139468   6.677   6.143   3.717  0.8960  0.7645 -0.1235
13175TIP3    H239469   6.582   6.231   3.796  0.3383  0.0620 -0.0021
13176TIP3   OH239470   8.334   0.856   5.361 -0.6613  0.3649 -0.2952
13176TIP3    H139471   8.408   0.820   5.312 -0.7958  0.1832 -0.3684
13176TIP3    H239472   8.276   0.892   5.293 -0.6242  0.5348 -0.2357
13177TIP3   OH239473   7.928   2.661   1.194  0.2736 -0.4232 -0.0406
13177TIP3    H139474   7.991   2.732   1.187 -0.8447  0.6391  0.4089
13177TIP3    H239475   7.978   2.582   1.177  1.6035  0.4513 -0.2231
13178TIP3   OH239476   6.474   7.017   5.046 -0.0299  0.1652  0.2914
13178TIP3    H139477   6.414   6.950   5.012 -1.5221  2.3872 -1.6081
13178TIP3    H239478   6.418   7.076   5.097  0.9780  0.9109  0.5572
13179TIP3   OH239479   1.635   0.632   3.958  0.3057 -0.0533  0.2151
13179TIP3    H139480   1.542   0.641   3.977  0.1202  1.6380 -1.3569
13179TIP3    H239481   1.669   0.578   4.030 -2.3410 -2.8841 -0.5456
13180TIP3   OH239482   7.789   3.099   5.629  0.8979  0.5394  0.0091
13180TIP3    H139483   7.696   3.108   5.648  1.1941  2.6700  0.5848
13180TIP3    H239484   7.827   3.065   5.710  0.8229  1.0799  0.2763
13181TIP3   OH239485   5.015   7.918   2.260 -0.1964  0.6964  0.5421
13181TIP3    H139486   4.975   7.840   2.220 -3.3862  2.7451 -0.4896
13181TIP3    H239487   4.986   7.914   2.352 -0.3759  0.6962  0.4856
13182TIP3   OH239488   6.413   7.855   2.377  0.0340  0.0330 -0.2420
13182TIP3    H139489   6.416   7.938   2.329  0.8398  0.9491  1.3487
13182TIP3    H239490   6.469   7.870   2.453  0.6027 -2.1583 -0.2092
13183TIP3   OH239491   2.669   1.092   5.107 -0.8104 -0.1357  0.2334
13183TIP3    H139492   2.723   1.128   5.036 -0.4702 -0.4480  0.3343
13183TIP3    H239493   2.621   1.168   5.140 -0.8066  0.0535 -0.1839
13184TIP3   OH239494   1.978   1.760   1.278  0.1174  0.4097  0.0519
13184TIP3    H139495   2.036   1.684   1.272 -1.9822 -1.2906  0.6146
13184TIP3    H239496   1.934   1.763   1.193 -0.2686  0.6108  0.2591
13185TIP3   OH239497   6.679   2.217   3.598 -0.0820  0.5315 -0.5699
13185TIP3    H139498   6.660   2.293   3.652 -1.9273 -1.2779  1.4187
13185TIP3    H239499   6.773   2.201   3.611 -0.1259  1.2286  0.6717
13186TIP3   OH239500   0.332   2.663   4.914  0.2776 -1.0894 -0.4779
13186TIP3    H139501   0.300   2.626   4.832  0.0469 -0.0222 -0.8869
13186TIP3    H239502   0.282   2.744   4.924  0.9989 -0.7237  0.2132
13187TIP3   OH239503   0.128   1.951   3.406 -0.3560  0.4094  0.4507
13187TIP3    H139504   0.092   2.026   3.360 -2.3106  0.0403  1.3499
13187TIP3    H239505   0.170   1.989   3.484  2.8554  1.0195 -1.4679
13188TIP3   OH239506   7.393   2.100   3.971 -0.2890 -0.2771 -0.2083
13188TIP3    H139507   7.465   2.061   3.922  0.2805 -0.0082  0.4083
13188TIP3    H239508   7.422   2.190   3.989 -0.8751 -0.0945 -0.1594
13189TIP3   OH239509   5.596   7.982   4.848  0.1667 -0.7549  0.2185
13189TIP3    H139510   5.579   7.980   4.754 -1.5032 -0.4300  0.5036
13189TIP3    H239511   5.681   8.026   4.856  0.6716 -1.4623 -1.1689
13190TIP3   OH239512   5.775   6.596   3.353 -0.1659  0.1383 -0.3684
13190TIP3    H139513   5.709   6.580   3.421  0.5319  0.1724  0.3274
13190TIP3    H239514   5.858   6.604   3.401  0.3804 -0.1263 -1.2467
13191TIP3   OH239515   2.570   0.439   1.643  0.5070 -0.4505  0.4239
13191TIP3    H139516   2.566   0.344   1.648  0.6734 -0.5116 -0.5593
13191TIP3    H239517   2.553   0.459   1.551  0.7063  0.4545  0.5806
13192TIP3   OH239518   6.273   7.293   4.745 -0.1426 -0.1540 -0.4435
13192TIP3    H139519   6.248   7.229   4.678  1.2554  1.6811 -2.8113
13192TIP3    H239520   6.194   7.344   4.760  0.0467  0.7133 -2.2297
13193TIP3   OH239521   5.137   7.388   4.576 -0.1876  0.1815 -0.0775
13193TIP3    H139522   5.166   7.468   4.621 -0.9153  0.4161 -0.0235
13193TIP3    H239523   5.083   7.419   4.504  1.0438 -0.1997 -1.1710
13194TIP3   OH239524   5.395   7.531   4.307  0.3835  0.4843  0.1810
13194TIP3    H139525   5.346   7.575   4.237 -1.1949 -1.9551 -0.3490
13194TIP3    H239526   5.445   7.463   4.261  1.9858  1.0385  1.0733
13195TIP3   OH239527   7.518   7.131   4.584  0.6072 -0.2849  0.0129
13195TIP3    H139528   7.568   7.105   4.507  0.2813 -1.0913  0.0720
13195TIP3    H239529   7.441   7.175   4.549  0.8392  0.0285 -0.1047
13196TIP3   OH239530   8.042   2.528   4.671  0.3895 -0.3053 -0.6461
13196TIP3    H139531   8.061   2.470   4.745 -1.2905  1.2116  1.0386
13196TIP3    H239532   8.026   2.613   4.711 -0.6243  0.5361 -2.7550
13197TIP3   OH239533   7.728   2.166   5.440  0.1090  0.4603  0.4675
13197TIP3    H139534   7.771   2.249   5.462 -0.7695  1.1623 -0.4167
13197TIP3    H239535   7.660   2.156   5.507 -0.4815  1.0018 -0.0383
13198TIP3   OH239536   4.549   7.017   4.422 -0.1825 -0.5589  0.3435
13198TIP3    H139537   4.617   6.959   4.388 -1.2618 -0.7203 -1.6383
13198TIP3    H239538   4.552   7.005   4.516  2.9470 -0.0899  0.3658
13199TIP3   OH239539   1.672   1.426   4.496  0.4497 -0.7166  0.1779
13199TIP3    H139540   1.677   1.426   4.400 -1.3392  0.5390  0.0506
13199TIP3    H239541   1.758   1.455   4.525  0.6717 -0.0840 -1.0884
13200TIP3   OH239542   0.012   0.803   2.696 -0.4343 -0.1434  0.1217
13200TIP3    H139543  -0.008   0.807   2.789 -0.9538  0.1219 -0.0004
13200TIP3    H239544   0.033   0.893   2.671  2.2075 -0.6037  0.5216
13201TIP3   OH239545   7.678   1.801   1.670  0.0280 -0.1194 -0.1896
13201TIP3    H139546   7.642   1.776   1.584  2.5034 -2.0667 -0.7532
13201TIP3    H239547   7.645   1.734   1.730 -0.4798  0.3769  0.0896
13202TIP3   OH239548   8.158   1.518   5.793  0.2328 -0.0033  0.1908
13202TIP3    H139549   8.199   1.432   5.782  0.2818  0.0216  0.1834
13202TIP3    H239550   8.079   1.513   5.740  0.5067  0.1380 -0.2292
13203TIP3   OH239551   0.465   3.757   0.345  0.3789  0.0003  0.4306
13203TIP3    H139552   0.431   3.766   0.256 -1.1039  0.2029  0.9968
13203TIP3    H239553   0.552   3.718   0.334  0.2105  0.0272 -1.0964
13204TIP3   OH239554   8.205   3.166   4.501 -0.0209  0.5246 -0.5594
13204TIP3    H139555   8.191   3.100   4.569  0.3166  0.2954 -0.7163
13204TIP3    H239556   8.284   3.213   4.528  1.0649 -0.6436 -1.6515
13205TIP3   OH239557   7.009   0.475   4.994  0.4596  0.4937 -0.2804
13205TIP3    H139558   6.977   0.535   4.926 -0.3640  2.1882  1.5524
13205TIP3    H239559   7.098   0.452   4.966  0.0736  1.0246 -2.0094
13206TIP3   OH239560   0.207   2.266   3.914  0.1758  0.0894  1.0908
13206TIP3    H139561   0.186   2.173   3.916  0.6708 -0.0176  1.2652
13206TIP3    H239562   0.240   2.281   3.825  2.0172 -0.3212  1.6933
13207TIP3   OH239563   8.073   1.748   4.775 -0.1366  0.2174 -0.0239
13207TIP3    H139564   8.015   1.794   4.716 -1.1069  1.4000  1.7900
13207TIP3    H239565   8.016   1.690   4.825  0.6861 -0.8796 -0.3288
13208TIP3   OH239566   3.971   7.630   3.839 -0.1521  0.2602 -0.4338
13208TIP3    H139567   3.882   7.662   3.823 -0.1654  1.2308  1.4817
13208TIP3    H239568   3.957   7.545   3.883 -0.1518  0.9369  0.8932
13209TIP3   OH239569   2.451   0.936   6.321 -0.1313 -0.2658 -0.1726
13209TIP3    H139570   2.447   0.869   6.389  2.4299  1.4928  1.8326
13209TIP3    H239571   2.399   1.009   6.356  0.4124  0.2772 -0.4764
13210TIP3   OH239572   0.857   2.005   5.320 -0.3096  0.4926 -0.1389
13210TIP3    H139573   0.852   1.914   5.290  1.5608  0.1688  0.4670
13210TIP3    H239574   0.831   2.001   5.412  2.6418  0.0662  0.7328
13211TIP3   OH239575   7.843   1.996   3.880 -0.0613  0.5067 -0.3615
13211TIP3    H139576   7.828   2.080   3.838 -0.4950  0.6178  0.0166
13211TIP3    H239577   7.908   2.014   3.947  1.0407  0.2215 -1.3434
13212TIP3   OH239578   1.376   0.107   4.223 -0.4489  0.5184  0.3242
13212TIP3    H139579   1.370   0.016   4.194 -2.8915  1.9351 -4.0976
13212TIP3    H239580   1.327   0.110   4.305 -0.3441 -2.1277  0.5097
13213TIP3   OH239581   0.600   0.628   5.700  0.1507  0.2450 -0.2209
13213TIP3    H139582   0.678   0.669   5.662 -0.8282  1.0278 -1.3765
13213TIP3    H239583   0.588   0.548   5.648  0.4977 -0.1793  0.3316
13214TIP3   OH239584   1.247   0.233   4.735  0.1396  0.2037 -0.0799
13214TIP3    H139585   1.322   0.181   4.703 -0.5951 -0.2988 -1.0218
13214TIP3    H239586   1.242   0.307   4.675  0.9275  1.1762  1.0172
13215TIP3   OH239587   0.472   3.473   0.062  0.1530  0.3045 -0.5001
13215TIP3    H139588   0.561   3.509   0.058  0.3521 -0.0996  0.2616
13215TIP3    H239589   0.448   3.480   0.154 -0.6173  0.4244 -0.7065
13216TIP3   OH239590   0.282   1.222   1.232 -0.1485  0.7046 -0.4556
13216TIP3    H139591   0.270   1.136   1.274  1.4736  0.9909  0.6795
13216TIP3    H239592   0.206   1.273   1.259 -0.1026  0.2541  0.5709
13217TIP3   OH239593   0.037   1.897   1.444 -0.3273  0.0088  0.1971
13217TIP3    H139594   0.086   1.827   1.400 -1.8155 -1.6500  1.1017
13217TIP3    H239595  -0.054   1.882   1.417 -0.5328  2.2929 -0.4740
13218TIP3   OH239596   5.650   7.671   4.693  0.7245 -0.0518 -0.0278
13218TIP3    H139597   5.606   7.673   4.608  2.3178 -1.8934 -0.9305
13218TIP3    H239598   5.731   7.721   4.679 -0.0355  1.5262  1.0461
13219TIP3   OH239599   2.296   1.671   2.571 -0.2317  0.2179 -0.0877
13219TIP3    H139600   2.235   1.716   2.630 -0.5820  0.2543 -0.4754
13219TIP3    H239601   2.260   1.583   2.562 -1.0308  0.6817 -1.4791
13220TIP3   OH239602   1.975   0.849   2.448  0.7151  0.4886  0.6734
13220TIP3    H139603   1.955   0.897   2.368 -1.3046  2.9412  2.5512
13220TIP3    H239604   2.049   0.898   2.486 -0.3617  1.2388  1.8352
13221TIP3   OH239605   1.706   0.842   2.250  0.3653  0.0614 -0.0031
13221TIP3    H139606   1.697   0.850   2.345  0.5457  2.0502 -0.1325
13221TIP3    H239607   1.705   0.748   2.233  0.8866 -0.3186  2.0255
13222TIP3   OH239608   3.766   6.506   0.255  0.3110 -0.0278 -0.3670
13222TIP3    H139609   3.679   6.481   0.224 -0.3039  2.1379 -0.4677
13222TIP3    H239610   3.759   6.505   0.351  0.9317 -2.3380 -0.3160
13223TIP3   OH239611   2.936   0.206   0.225  0.1568  0.2745  0.3266
13223TIP3    H139612   2.851   0.199   0.181  0.2275 -0.8858  0.3527
13223TIP3    H239613   2.978   0.122   0.208  0.7811  0.3660  1.4067
13224TIP3   OH239614   7.744   7.778   3.481 -0.6394 -0.0567  0.2546
13224TIP3    H139615   7.655   7.744   3.471 -1.4157  1.6379  1.2818
13224TIP3    H239616   7.734   7.854   3.538  1.5823 -0.3507  1.0729
13225TIP3   OH239617   5.908   6.511   3.860  0.1753  0.0130 -0.3241
13225TIP3    H139618   5.924   6.416   3.866  2.9515  0.5737  2.8896
13225TIP3    H239619   5.827   6.525   3.910  1.9017 -0.2589  2.6689
13226TIP3   OH239620   7.074   7.418   2.903 -0.3599  0.5213 -1.2543
13226TIP3    H139621   7.026   7.499   2.886 -1.2344  0.3304  0.2097
13226TIP3    H239622   7.145   7.445   2.961 -0.5886  0.2589 -0.8530
13227TIP3   OH239623   3.154   0.607   3.412  0.0045 -0.4082 -0.3810
13227TIP3    H139624   3.157   0.627   3.506 -2.9203 -1.3632 -0.0145
13227TIP3    H239625   3.160   0.511   3.408 -2.4159 -0.5654 -0.9502
13228TIP3   OH239626   4.636   6.136   5.892 -0.5255 -0.3810  0.2439
13228TIP3    H139627   4.666   6.226   5.905 -1.3278 -0.1950  0.9087
13228TIP3    H239628   4.616   6.129   5.799  0.6430 -0.2208 -0.0176
13229TIP3   OH239629   7.374   1.060   5.130 -0.3543  0.3047 -0.3369
13229TIP3    H139630   7.337   1.069   5.042  0.3150  0.7897 -0.5665
13229TIP3    H239631   7.399   1.149   5.155 -0.1736  0.1080  0.1825
13230TIP3   OH239632   2.692   0.044   4.334 -0.3091  0.6267  0.2167
13230TIP3    H139633   2.699  -0.039   4.286  0.6184  0.3496  0.8236
13230TIP3    H239634   2.655   0.105   4.270  0.5994  0.1705 -0.7626
13231TIP3   OH239635   6.765   0.792   5.809  0.1333 -0.1112  0.2411
13231TIP3    H139636   6.857   0.817   5.822 -0.5172  2.5478 -0.1495
13231TIP3    H239637   6.715   0.855   5.861 -1.5525 -0.9002 -0.3817
13232TIP3   OH239638   2.903   5.459  -0.008 -0.3480  0.0287  0.4649
13232TIP3    H139639   2.950   5.405   0.055 -0.5954 -2.6139 -1.5495
13232TIP3    H239640   2.810   5.447   0.015 -0.4680 -1.3452 -0.6885
13233TIP3   OH239641   2.277   0.458   3.812  0.6067 -0.4852 -0.4169
13233TIP3    H139642   2.320   0.528   3.763 -1.0842  0.3420 -0.7468
13233TIP3    H239643   2.202   0.434   3.758 -0.6825 -0.3016  1.2857
13234TIP3   OH239644   0.180   0.689   4.745  0.2132  0.0341  0.0524
13234TIP3    H139645   0.084   0.689   4.749  0.2994  0.4719  2.3206
13234TIP3    H239646   0.203   0.776   4.713 -0.0202  1.6811  4.0732
13235TIP3   OH239647   5.921   6.777   5.181 -0.6018  0.5678  0.1842
13235TIP3    H139648   5.929   6.857   5.129  1.3055 -0.4356 -1.0950
13235TIP3    H239649   5.868   6.718   5.127  1.0432 -0.3301 -0.4867
13236TIP3   OH239650   8.150   6.686   3.914  0.0677  0.1774  0.2414
13236TIP3    H139651   8.105   6.649   3.839 -0.0554 -0.2061  0.5021
13236TIP3    H239652   8.086   6.745   3.954  0.3840  0.9593 -0.3808
13237TIP3   OH239653   5.219   7.766   4.712 -0.4081  0.2430 -0.0505
13237TIP3    H139654   5.132   7.741   4.683 -1.2924  2.4592  0.6090
13237TIP3    H239655   5.207   7.796   4.802  1.2727 -0.7281  0.5248
13238TIP3   OH239656   0.804   0.464   3.631 -0.5420 -0.0463  0.7221
13238TIP3    H139657   0.730   0.441   3.687 -1.3088 -1.0573 -0.6709
13238TIP3    H239658   0.767   0.466   3.543  0.4350  2.4037  0.3231
13239TIP3   OH239659   8.260  -0.011   5.721  0.0957 -0.0972 -0.1495
13239TIP3    H139660   8.345   0.008   5.682 -0.4846  1.3229 -0.7384
13239TIP3    H239661   8.270   0.011   5.813  0.4671 -0.2956 -0.1390
13240TIP3   OH239662   8.097   6.775   3.585 -0.4178  0.0513  0.4232
13240TIP3    H139663   8.062   6.827   3.658  1.3708  0.1811  1.2223
13240TIP3    H239664   8.157   6.835   3.541  1.5804 -1.2924  1.2818
13241TIP3   OH239665   1.910   0.257   4.113  0.1002  0.5871 -0.9074
13241TIP3    H139666   1.839   0.194   4.128 -0.0797  1.1712  0.7344
13241TIP3    H239667   1.934   0.243   4.021 -1.2090 -0.5691 -1.1032
13242TIP3   OH239668   0.016   0.358   4.704 -0.3316  0.3659  0.4120
13242TIP3    H139669   0.007   0.453   4.695  1.4841  0.6010  0.7775
13242TIP3    H239670   0.009   0.342   4.798 -1.4514  0.0231  0.2819
13243TIP3   OH239671   0.442   7.419   2.866  0.3431  0.7579 -0.0277
13243TIP3    H139672   0.347   7.405   2.866  0.5375 -0.6754  0.1113
13243TIP3    H239673   0.453   7.510   2.839 -0.9568  0.0865 -2.9989
13244TIP3   OH239674   0.030   0.424   5.971 -0.6282  0.2008 -0.0276
13244TIP3    H139675   0.034   0.485   6.045  0.7907 -1.0450  0.9478
13244TIP3    H239676  -0.001   0.477   5.898 -0.9894  1.7136  1.1913
13245TIP3   OH239677   4.454   8.015   4.162  0.2590 -0.0623 -0.2296
13245TIP3    H139678   4.413   7.978   4.241 -1.1916 -1.1618 -1.4547
13245TIP3    H239679   4.381   8.031   4.102  1.2311  1.7796 -0.9629
13246TIP3   OH239680   0.187   6.294   3.796 -0.3391  0.1635 -0.5918
13246TIP3    H139681   0.256   6.240   3.758 -1.0545  0.1342 -1.8957
13246TIP3    H239682   0.214   6.384   3.777 -0.8971  0.1356 -1.5415
13247TIP3   OH239683   2.603   1.799   5.034 -0.4702  0.1965  0.6520
13247TIP3    H139684   2.544   1.726   5.019 -0.0196 -0.1557  0.5615
13247TIP3    H239685   2.612   1.804   5.129 -0.5229  0.1467  0.6591
13248TIP3   OH239686   6.604   6.820   3.364 -0.3445  0.0910  0.1533
13248TIP3    H139687   6.681   6.877   3.359  0.6902 -1.4690 -2.8434
13248TIP3    H239688   6.637   6.738   3.401 -0.8045 -0.1827 -0.0383
13249TIP3   OH239689   3.406   1.860   4.875 -0.3519 -0.3097 -0.0575
13249TIP3    H139690   3.403   1.774   4.917  0.1843  0.2470  1.1693
13249TIP3    H239691   3.323   1.901   4.897  1.0341  1.0696  2.9287
13250TIP3   OH239692   6.596   7.745   3.394  0.2000 -0.0105 -0.2653
13250TIP3    H139693   6.590   7.813   3.326 -0.2563  0.3602  0.1460
13250TIP3    H239694   6.675   7.767   3.443 -0.7235  1.0656  0.7700
13251TIP3   OH239695   1.266   0.304   5.131 -0.2587 -0.7986 -0.4018
13251TIP3    H139696   1.320   0.349   5.196 -0.8706 -0.2689 -0.2546
13251TIP3    H239697   1.305   0.327   5.047  0.5129 -1.4527 -0.2368
13252TIP3   OH239698   1.175   0.692   4.311 -0.1807 -0.6504  0.3517
13252TIP3    H139699   1.198   0.600   4.300  1.2457 -0.0102 -2.4069
13252TIP3    H239700   1.259   0.737   4.318 -0.8450  0.6175  0.3147
13253TIP3   OH239701   1.649   2.509   3.662 -0.0781  0.0562 -0.2107
13253TIP3    H139702   1.648   2.420   3.627  0.1832 -0.3376  0.7533
13253TIP3    H239703   1.665   2.565   3.586  0.4127 -0.7720 -0.7246
13254TIP3   OH239704   7.483   7.496   4.562 -0.3293 -0.4478  0.2716
13254TIP3    H139705   7.560   7.518   4.508  0.3687  2.1576  2.2246
13254TIP3    H239706   7.513   7.426   4.619  0.4304  0.1283  0.5918
13255TIP3   OH239707   1.215   0.028   3.645  0.0815  0.0454  0.3870
13255TIP3    H139708   1.173   0.081   3.712  0.6180 -0.3066  1.0005
13255TIP3    H239709   1.304   0.013   3.678  0.5276  0.3347 -0.6451
13256TIP3   OH239710   0.838   1.162   3.937  0.4737  0.0321 -0.5118
13256TIP3    H139711   0.881   1.221   3.875  2.1910  0.4617  1.0212
13256TIP3    H239712   0.847   1.076   3.898 -0.3936  0.5592 -1.8887
13257TIP3   OH239713   3.796   5.567   0.220  0.3814 -0.0699 -0.2539
13257TIP3    H139714   3.811   5.569   0.125  0.6540 -2.1112 -0.2836
13257TIP3    H239715   3.700   5.566   0.228  0.3512 -0.7878 -0.5678
13258TIP3   OH239716   2.758   0.112   3.579  0.1384 -0.9506  0.1590
13258TIP3    H139717   2.717   0.071   3.503 -0.0871 -1.0479  0.3314
13258TIP3    H239718   2.753   0.045   3.647 -0.6514 -0.4774  0.5775
13259TIP3   OH239719   0.104   2.072   2.125  0.1313  0.5083  0.9945
13259TIP3    H139720   0.111   1.980   2.099 -0.6105  0.3856  1.2354
13259TIP3    H239721   0.081   2.117   2.044  0.4514  0.4783  0.8856
13260TIP3   OH239722   5.346   7.064   4.288  0.1444  0.0762  0.3577
13260TIP3    H139723   5.438   7.080   4.269 -0.0738  0.6770 -0.2219
13260TIP3    H239724   5.299   7.106   4.216 -0.5243 -1.3858 -0.0745
13261TIP3   OH239725   2.377   0.841   2.417 -0.2398  1.0212 -0.3209
13261TIP3    H139726   2.470   0.820   2.423 -0.6215 -0.6770  0.1540
13261TIP3    H239727   2.373   0.918   2.361  1.5639  2.0696  0.9387
13262TIP3   OH239728   5.380   7.493   4.997 -0.2233  0.3394 -0.8177
13262TIP3    H139729   5.428   7.478   5.079 -0.1611 -1.7089 -1.1820
13262TIP3    H239730   5.295   7.526   5.025 -0.5712 -1.3069  0.1528
13263TIP3   OH239731   1.469   1.004   3.029  0.6313 -0.6478 -0.4240
13263TIP3    H139732   1.505   1.058   3.100 -1.5416  1.7146 -1.0483
13263TIP3    H239733   1.520   1.029   2.952  1.2750 -1.3423 -0.2350
13264TIP3   OH239734   8.509   6.603   4.358 -0.7714 -0.1031  0.8700
13264TIP3    H139735   8.479   6.655   4.283  2.3354  1.8501  0.8803
13264TIP3    H239736   8.505   6.664   4.431  2.6285  0.0856  0.9525
13265TIP3   OH239737   8.133   3.455   5.197  0.4471 -0.1142  0.3186
13265TIP3    H139738   8.070   3.400   5.150 -0.6259  1.9910 -0.7929
13265TIP3    H239739   8.213   3.402   5.202 -0.1317 -1.2587 -1.9225
13266TIP3   OH239740   8.144   7.012   3.995 -0.7000 -0.0711  0.0482
13266TIP3    H139741   8.229   6.983   3.963 -0.3250  1.3742 -0.2826
13266TIP3    H239742   8.162   7.045   4.083 -1.0585 -0.5104  0.2862
13267TIP3   OH239743   4.375   7.455   4.421  0.2602 -0.0222 -0.3266
13267TIP3    H139744   4.373   7.367   4.458  0.0115 -0.0337 -0.3661
13267TIP3    H239745   4.304   7.456   4.357  0.0339  0.3158 -0.0753
13268TIP3   OH239746   7.375   1.967   2.165 -0.4277  0.2166  0.1915
13268TIP3    H139747   7.461   1.982   2.126  0.2634 -1.4354  1.0424
13268TIP3    H239748   7.388   1.894   2.226 -2.3567  0.1599  0.5759
13269TIP3   OH239749   7.857   5.634   3.437  0.1686 -0.0579  0.3295
13269TIP3    H139750   7.881   5.651   3.346  0.4058 -2.0605 -0.0076
13269TIP3    H239751   7.802   5.709   3.461  0.1271  0.5153 -1.4458
13270TIP3   OH239752   8.434   7.828   4.224  0.4149  0.9692 -0.3247
13270TIP3    H139753   8.524   7.856   4.243  0.3723  0.4814  0.6368
13270TIP3    H239754   8.430   7.738   4.259 -0.9367  1.5756  1.1424
13271TIP3   OH239755   4.149   0.116   3.487 -0.3342  0.2657 -0.4188
13271TIP3    H139756   4.154   0.212   3.479  0.8650  0.0655 -2.1912
13271TIP3    H239757   4.057   0.099   3.507 -0.2128  1.9007  1.8344
13272TIP3   OH239758   8.453   7.261   3.676 -0.1673  0.1798 -0.2085
13272TIP3    H139759   8.393   7.191   3.650  2.0086 -1.4772 -0.9183
13272TIP3    H239760   8.460   7.254   3.771  0.1238 -0.6517 -0.2902
13273TIP3   OH239761   8.375   5.329   1.697  0.0588  0.3843  0.2805
13273TIP3    H139762   8.365   5.422   1.715  2.0235  1.0366 -1.7087
13273TIP3    H239763   8.460   5.306   1.735  1.0545  0.1838 -1.9609
13274TIP3   OH239764   0.124   5.769   0.964 -0.7770  0.2737 -0.1842
13274TIP3    H139765   0.201   5.725   0.998 -1.0656  0.6441  0.9930
13274TIP3    H239766   0.088   5.709   0.899 -2.0591 -1.9731  2.4891
13275TIP3   OH239767   5.031   6.241   0.073 -0.1869  0.7158  0.1600
13275TIP3    H139768   5.053   6.239  -0.020  1.8354  0.6779  0.6185
13275TIP3    H239769   5.016   6.149   0.096 -3.2700  0.9652 -0.6908
13276TIP3   OH239770   7.296   4.531   0.844 -0.1238 -0.1817  0.4751
13276TIP3    H139771   7.314   4.451   0.794  0.6807 -0.3668  1.0478
13276TIP3    H239772   7.279   4.598   0.777 -0.3179 -0.7177 -0.0167
13277TIP3   OH239773   7.851   6.362   0.988 -0.0890  0.1766 -0.1461
13277TIP3    H139774   7.925   6.343   1.045 -0.8645  2.0794  1.5481
13277TIP3    H239775   7.844   6.285   0.931  0.8078 -1.7003  2.2014
13278TIP3   OH239776   2.340   3.666   6.631 -0.2505  0.1733 -0.2824
13278TIP3    H139777   2.245   3.661   6.617 -0.1423 -0.6889 -0.7592
13278TIP3    H239778   2.370   3.575   6.623  0.4811  0.3009  0.9036
13279TIP3   OH239779   6.720   3.165   1.161 -0.3370  0.3860  0.1539
13279TIP3    H139780   6.781   3.132   1.228 -0.0908 -0.3045 -0.4039
13279TIP3    H239781   6.769   3.158   1.079  0.0608  3.0245  0.1261
13280TIP3   OH239782   5.665   1.424   6.498  0.2091 -0.1068  0.0028
13280TIP3    H139783   5.695   1.336   6.473  0.1546 -0.5482  1.4126
13280TIP3    H239784   5.740   1.462   6.544 -0.7781 -0.5758  2.0605
13281TIP3   OH239785   7.917   5.430   0.293  0.4941  0.7376  0.5823
13281TIP3    H139786   7.870   5.389   0.220  0.9560 -0.5832  1.0130
13281TIP3    H239787   7.848   5.471   0.345 -0.2131 -1.2255  1.2417
13282TIP3   OH239788   7.715   4.683   1.043 -0.0321 -0.4230 -0.0379
13282TIP3    H139789   7.654   4.731   0.987  1.4401 -0.1629 -1.4609
13282TIP3    H239790   7.663   4.659   1.120 -1.2452  2.0141 -0.0343
13283TIP3   OH239791   6.514   0.307   6.521  0.5112  0.5147  0.3194
13283TIP3    H139792   6.608   0.324   6.527  0.7506 -1.0040  1.1756
13283TIP3    H239793   6.508   0.216   6.491 -0.6668  0.4461  0.7389
13284TIP3   OH239794   0.739   6.282   0.239  0.0696  0.2832  0.1140
13284TIP3    H139795   0.778   6.221   0.302 -0.0081  0.0632 -0.0530
13284TIP3    H239796   0.648   6.254   0.232  0.4341 -0.6057 -1.2198
13285TIP3   OH239797   0.534   7.043   1.058  0.0715  0.2146  0.3299
13285TIP3    H139798   0.534   7.057   1.152  1.7255 -0.0282  0.3834
13285TIP3    H239799   0.623   7.013   1.038 -0.5337 -0.6588 -1.1636
13286TIP3   OH239800   7.760   6.500   0.091 -0.2943 -0.4402 -0.9396
13286TIP3    H139801   7.807   6.573   0.131 -0.7069 -0.2207 -0.8556
13286TIP3    H239802   7.810   6.422   0.116 -1.0469 -0.3947  0.7334
13287TIP3   OH239803   6.500   4.305   2.451 -0.1053 -0.1698 -0.2497
13287TIP3    H139804   6.448   4.323   2.373 -2.5208 -0.1321  1.3227
13287TIP3    H239805   6.492   4.384   2.504 -2.5459 -1.9898  2.2028
13288TIP3   OH239806   0.776   4.348   0.245 -0.2562 -0.1044  1.0400
13288TIP3    H139807   0.837   4.323   0.175  0.4035 -1.0075  1.9361
13288TIP3    H239808   0.704   4.391   0.199  0.4206 -0.2286 -0.1560
13289TIP3   OH239809   6.771   5.139   2.221  0.2040  0.5878 -0.1329
13289TIP3    H139810   6.794   5.154   2.313  0.7315  0.6470 -0.2764
13289TIP3    H239811   6.760   5.045   2.214  0.2167  0.5772 -0.0240
13290TIP3   OH239812   7.766   5.124   0.304  0.6855  0.4580 -0.4794
13290TIP3    H139813   7.780   5.173   0.223 -0.5813  1.9228  0.1710
13290TIP3    H239814   7.698   5.060   0.282  1.1747  0.0674 -0.8759
13291TIP3   OH239815   1.375   5.370   1.382  0.5837  0.6624 -0.2318
13291TIP3    H139816   1.369   5.413   1.297 -2.2296 -1.3847 -1.1582
13291TIP3    H239817   1.356   5.278   1.364 -0.7090  0.2904  2.7021
13292TIP3   OH239818   8.272   4.693   0.878 -0.6387 -0.0809  0.5597
13292TIP3    H139819   8.278   4.695   0.973  0.8777  0.1916  0.4820
13292TIP3    H239820   8.284   4.601   0.855 -1.5090 -0.2201  0.6508
13293TIP3   OH239821   0.393   3.784   2.329  0.4886  0.1751 -0.0768
13293TIP3    H139822   0.458   3.721   2.360  2.0890  1.6445 -0.3674
13293TIP3    H239823   0.438   3.833   2.260 -1.3298  0.4235 -1.1341
13294TIP3   OH239824   2.577   7.430   1.426 -0.3879 -0.1625  0.3113
13294TIP3    H139825   2.619   7.504   1.382 -0.6678  0.3144  0.8423
13294TIP3    H239826   2.501   7.409   1.371  1.1753 -1.7876 -1.2980
13295TIP3   OH239827   0.432   7.462   0.366 -0.1733  0.1633 -0.5206
13295TIP3    H139828   0.386   7.511   0.298 -1.9889  0.7165  1.0654
13295TIP3    H239829   0.495   7.524   0.402 -0.2141  0.3235 -0.7239
13296TIP3   OH239830   1.383   5.973   1.362 -0.5423 -0.1995  0.0670
13296TIP3    H139831   1.348   5.896   1.406  1.7106 -0.7646  0.9512
13296TIP3    H239832   1.438   6.015   1.428 -0.0048  0.9639 -1.1006
13297TIP3   OH239833   6.678   6.506   0.800 -0.5867  0.3232 -0.3633
13297TIP3    H139834   6.690   6.415   0.774  0.5592 -0.0966  1.5278
13297TIP3    H239835   6.727   6.556   0.734 -0.8270 -0.4491 -1.1353
13298TIP3   OH239836   1.402   4.242   1.785 -0.4305  0.0029 -0.2036
13298TIP3    H139837   1.468   4.173   1.788  1.9979  2.1874 -1.1762
13298TIP3    H239838   1.374   4.244   1.694 -1.2407 -0.3582  0.0340
13299TIP3   OH239839   1.360   5.499   0.376  0.1224  0.0906  0.2930
13299TIP3    H139840   1.426   5.430   0.364 -1.1779 -1.5275  2.0254
13299TIP3    H239841   1.380   5.537   0.462  0.8010  1.8689 -0.6341
13300TIP3   OH239842   5.173   1.035   6.877 -0.7225  0.6754  0.4351
13300TIP3    H139843   5.158   1.041   6.971 -3.3669  1.3824  0.0183
13300TIP3    H239844   5.144   0.946   6.854  0.6965  0.2155  0.4139
13301TIP3   OH239845   0.128   5.237   2.390 -0.1210  0.3263  0.5736
13301TIP3    H139846   0.124   5.183   2.469 -1.8704 -0.4098 -0.0060
13301TIP3    H239847   0.152   5.176   2.320 -1.4707  0.4123  0.0282
13302TIP3   OH239848   3.774   0.914   0.126 -0.2757 -0.2912 -0.5029
13302TIP3    H139849   3.726   0.934   0.045 -0.5829 -2.4179 -0.8563
13302TIP3    H239850   3.860   0.886   0.097 -0.8834 -2.5639 -0.2098
13303TIP3   OH239851   6.624   4.509   0.191 -0.5333  0.5697 -0.5300
13303TIP3    H139852   6.664   4.425   0.168  0.3771  0.5103  1.2152
13303TIP3    H239853   6.697   4.571   0.192 -0.8212  0.9029  0.4899
13304TIP3   OH239854   0.173   5.841   4.257 -0.3162 -0.2403  0.5782
13304TIP3    H139855   0.188   5.933   4.280 -0.7160 -0.5543  2.1621
13304TIP3    H239856   0.258   5.811   4.223  0.2600  0.2912  1.5196
13305TIP3   OH239857   1.019   2.771   2.209  0.2311 -0.1857  0.1149
13305TIP3    H139858   1.064   2.843   2.252  1.9764 -1.4850  0.5378
13305TIP3    H239859   0.955   2.812   2.151  0.1124  1.6466  1.5223
13306TIP3   OH239860   0.547   5.519   0.948  0.3030 -0.0158  0.1275
13306TIP3    H139861   0.628   5.480   0.915  0.6213 -0.2580  1.1453
13306TIP3    H239862   0.503   5.554   0.871 -0.8437 -3.8989 -1.1086
13307TIP3   OH239863   5.682   1.131   6.938  0.4315  0.0261  0.4973
13307TIP3    H139864   5.628   1.122   6.859 -0.1968 -0.8703  1.0261
13307TIP3    H239865   5.621   1.123   7.011  0.4432  4.3835  1.1266
13308TIP3   OH239866   6.533   4.977   0.912 -0.3497  0.2059 -0.6123
13308TIP3    H139867   6.442   4.952   0.927  0.2741 -1.6311  0.3436
13308TIP3    H239868   6.573   4.975   0.998  0.6829  0.6745 -1.0672
13309TIP3   OH239869   1.003   5.337   2.112  0.1646  0.0262 -0.1383
13309TIP3    H139870   1.024   5.248   2.140 -0.7100 -0.8964 -2.3614
13309TIP3    H239871   1.072   5.360   2.051  0.3075  0.8312  0.3189
13310TIP3   OH239872   0.733   4.589   1.981  0.7668 -0.3304 -0.0338
13310TIP3    H139873   0.725   4.672   2.028  1.3715 -1.0316  1.3403
13310TIP3    H239874   0.757   4.614   1.892 -2.1681  1.0918 -0.4627
13311TIP3   OH239875   0.729   4.374   2.544  0.0243 -0.6538 -0.3673
13311TIP3    H139876   0.696   4.408   2.462  0.8286  3.1825  0.7868
13311TIP3    H239877   0.825   4.377   2.535  0.1141 -1.7411  0.1128
13312TIP3   OH239878   5.589   1.689   6.387  0.2012 -0.7438 -0.3643
13312TIP3    H139879   5.502   1.698   6.348  0.3771  0.4326 -0.4980
13312TIP3    H239880   5.583   1.612   6.444 -0.5131 -1.5138 -1.4847
13313TIP3   OH239881  -0.024   4.897   3.510 -0.2988 -0.1333 -0.2548
13313TIP3    H139882   0.023   4.910   3.428  1.3911  2.9966  1.1331
13313TIP3    H239883   0.023   4.825   3.553 -1.2405 -1.8395 -2.0059
13314TIP3   OH239884   6.354   2.628   6.157 -0.0469 -0.3228  0.3789
13314TIP3    H139885   6.446   2.608   6.170  0.3908  0.8406 -0.7794
13314TIP3    H239886   6.309   2.544   6.163  1.3540 -1.1972 -1.3090
13315TIP3   OH239887   6.209   2.348   6.595  0.0585 -0.7685 -0.3925
13315TIP3    H139888   6.289   2.308   6.629  0.5340 -0.1540 -0.7711
13315TIP3    H239889   6.140   2.317   6.654  0.9287  0.6471  1.4114
13316TIP3   OH239890   8.342   5.584   1.649 -0.5007  0.9507 -0.3451
13316TIP3    H139891   8.414   5.632   1.689  0.4104  0.6769 -1.6305
13316TIP3    H239892   8.307   5.643   1.582 -1.0630  0.8320 -0.1626
13317TIP3   OH239893   5.175   0.934   6.057 -0.0333 -0.1216  0.0893
13317TIP3    H139894   5.221   1.006   6.013 -0.0752 -0.3700 -0.3649
13317TIP3    H239895   5.200   0.856   6.008  0.1897 -0.4499  0.7191
13318TIP3   OH239896   8.423   5.315   0.743 -0.4382  0.3353 -0.6712
13318TIP3    H139897   8.392   5.268   0.821 -1.2496  0.1417 -1.1035
13318TIP3    H239898   8.348   5.369   0.717  0.5661  2.0642 -0.0363
13319TIP3   OH239899   2.362   7.785   6.840  0.3898 -0.1800 -1.0040
13319TIP3    H139900   2.418   7.718   6.800  0.1549 -1.3861  0.6426
13319TIP3    H239901   2.423   7.849   6.876  0.6900 -0.9349 -0.1597
13320TIP3   OH239902   5.802   2.487   5.597 -0.8351  0.3466  0.0395
13320TIP3    H139903   5.715   2.523   5.577 -1.0043  0.1074  0.3481
13320TIP3    H239904   5.788   2.393   5.601 -0.2887  0.1875 -1.3115
13321TIP3   OH239905   1.776   4.815   1.029 -0.3511  0.1268 -0.1314
13321TIP3    H139906   1.703   4.755   1.042  0.6715 -1.0488  0.2940
13321TIP3    H239907   1.842   4.764   0.982 -0.7287  1.8969 -2.6535
13322TIP3   OH239908   2.084   7.507   1.880  0.1929 -0.2636 -0.6005
13322TIP3    H139909   2.117   7.470   1.962 -1.2845 -1.3153 -0.4542
13322TIP3    H239910   1.995   7.471   1.872  0.1762  0.1654 -2.4462
13323TIP3   OH239911   6.760   4.263   0.192  0.2216  0.3732 -0.2348
13323TIP3    H139912   6.745   4.168   0.191 -1.3349  0.5824  0.4402
13323TIP3    H239913   6.841   4.275   0.144 -0.1117 -1.2155 -1.2475
13324TIP3   OH239914   0.419   5.444   0.361 -0.1248  0.3028 -0.5439
13324TIP3    H139915   0.437   5.350   0.347 -0.5462  0.0523  0.5880
13324TIP3    H239916   0.340   5.445   0.415  0.7856  1.2976  0.7666
13325TIP3   OH239917   8.188   4.773   1.231 -0.5360  0.3502  0.3142
13325TIP3    H139918   8.103   4.784   1.188 -0.8401  1.3802  1.1574
13325TIP3    H239919   8.208   4.859   1.267  0.8328  0.0930  0.1975
13326TIP3   OH239920   0.287   3.070   0.987  0.3378 -0.6139  0.4438
13326TIP3    H139921   0.248   3.130   1.051  1.2172  2.5729 -1.8995
13326TIP3    H239922   0.238   3.086   0.906  0.9070 -2.7466 -0.3496
13327TIP3   OH239923   6.052   0.699   6.455  0.3235  0.2098  0.1141
13327TIP3    H139924   6.134   0.662   6.488  0.4532  0.3338 -0.0685
13327TIP3    H239925   6.001   0.624   6.426 -0.4861 -0.0626  2.1533
13328TIP3   OH239926   7.582   4.234   3.013  0.6027  0.0497 -0.3669
13328TIP3    H139927   7.550   4.324   3.017  1.2058  0.2099  1.1706
13328TIP3    H239928   7.514   4.182   3.056  1.0640  0.0213  0.3491
13329TIP3   OH239929   0.318   6.966   0.472 -0.3741 -0.0317  0.4494
13329TIP3    H139930   0.376   6.902   0.431  0.8245 -0.8158  3.2735
13329TIP3    H239931   0.361   7.051   0.457  0.4998 -0.4046  0.8398
13330TIP3   OH239932   7.971   0.686   5.892  0.0565  0.5323 -0.5219
13330TIP3    H139933   7.928   0.754   5.840 -1.0489  0.9042  0.8566
13330TIP3    H239934   8.031   0.734   5.949  0.8720  0.1647 -1.0568
13331TIP3   OH239935   1.070   7.021   1.073  0.2039 -0.0242 -0.2628
13331TIP3    H139936   1.116   7.105   1.072  0.4083 -0.1257  0.4015
13331TIP3    H239937   1.137   6.956   1.093 -0.1870 -0.1935  0.5212
13332TIP3   OH239938   2.065   7.646   5.793 -0.4400  0.0447  0.0246
13332TIP3    H139939   1.999   7.675   5.856  0.2880  1.0686  0.3477
13332TIP3    H239940   2.143   7.632   5.846 -0.0007  0.2846 -0.5531
13333TIP3   OH239941   0.469   6.319   1.682  0.1622 -0.4708  0.2982
13333TIP3    H139942   0.531   6.261   1.727  1.2502  0.0206 -0.5291
13333TIP3    H239943   0.500   6.407   1.703 -0.2225 -0.2251 -0.1747
13334TIP3   OH239944   7.059   5.007   1.030 -0.4488  0.0180 -0.0839
13334TIP3    H139945   7.005   4.992   1.107  1.7252  0.7903  1.6319
13334TIP3    H239946   7.095   4.921   1.008 -1.7832 -0.3620 -0.7865
13335TIP3   OH239947   0.985   6.615   1.893 -0.4467  0.3176  0.1825
13335TIP3    H139948   1.056   6.551   1.899  0.1380  0.9540  0.1408
13335TIP3    H239949   0.912   6.566   1.854  1.1560  0.6147 -3.4061
13336TIP3   OH239950   5.161   5.287   6.254  0.5208 -0.1409 -0.1118
13336TIP3    H139951   5.242   5.327   6.286  0.0776 -0.5654  1.5419
13336TIP3    H239952   5.125   5.240   6.329 -0.2367 -1.6345 -1.3678
13337TIP3   OH239953   7.061   6.257   0.520 -0.7540 -0.1976  0.0028
13337TIP3    H139954   7.137   6.308   0.547 -0.9198  1.3812 -2.4116
13337TIP3    H239955   7.075   6.240   0.427 -2.9020 -0.6723 -0.2608
13338TIP3   OH239956   1.946   0.010   0.507 -0.0685 -0.0733  0.3649
13338TIP3    H139957   1.943  -0.002   0.412  0.6171 -0.3869  0.3834
13338TIP3    H239958   1.866   0.058   0.528 -0.4050 -0.3417 -0.3249
13339TIP3   OH239959   7.902   5.913   0.744 -0.2416 -0.6928 -0.8049
13339TIP3    H139960   7.809   5.919   0.721 -0.4083 -0.8165 -0.1676
13339TIP3    H239961   7.935   5.842   0.689 -0.5366 -0.6863 -0.9945
13340TIP3   OH239962   6.956   3.025   0.437  0.1260  0.4126  0.5231
13340TIP3    H139963   7.030   3.084   0.423  0.2999  0.2087  0.5838
13340TIP3    H239964   6.996   2.942   0.464  0.0944 -0.8419 -3.1160
13341TIP3   OH239965   7.054   1.802   6.222 -0.0308 -0.3883 -0.2420
13341TIP3    H139966   7.061   1.842   6.309  0.0416 -1.2510  0.1505
13341TIP3    H239967   7.043   1.709   6.239 -1.3000 -0.4167 -1.1247
13342TIP3   OH239968   6.061   1.267   6.292 -0.0821 -0.1674 -0.5066
13342TIP3    H139969   6.135   1.215   6.326  0.8584  2.0686  0.9504
13342TIP3    H239970   6.102   1.339   6.245 -1.3277  1.1031  0.3089
13343TIP3   OH239971   0.300   5.489   1.700  0.1200 -0.3426  0.2713
13343TIP3    H139972   0.281   5.485   1.794  0.3917  0.4846  0.3701
13343TIP3    H239973   0.383   5.441   1.690  0.1430 -0.3449  0.4739
13344TIP3   OH239974   0.257   6.498   1.634 -0.5751  0.3584  0.1361
13344TIP3    H139975   0.285   6.582   1.598 -1.2283 -0.3485 -2.1648
13344TIP3    H239976   0.334   6.442   1.628 -0.3686  0.5699  0.8836
13345TIP3   OH239977   0.789   7.209   0.884  0.0178  0.1508  0.1126
13345TIP3    H139978   0.779   7.120   0.916  0.2751 -0.3479 -1.1669
13345TIP3    H239979   0.836   7.255   0.954 -0.8595 -0.4897  1.1329
13346TIP3   OH239980   1.977   5.174   1.888  0.1402 -0.3272  0.2505
13346TIP3    H139981   1.932   5.227   1.954 -0.2308 -1.0768  0.6007
13346TIP3    H239982   2.056   5.144   1.932  0.1630 -0.3777  0.1740
13347TIP3   OH239983   8.458   4.328   2.485 -0.0991  0.3220  0.1490
13347TIP3    H139984   8.391   4.268   2.515 -0.3683  0.5308 -0.0363
13347TIP3    H239985   8.504   4.281   2.415 -1.0644  0.7755 -0.7996
13348TIP3   OH239986   0.553   7.860   2.899  0.0427  0.0297  0.5462
13348TIP3    H139987   0.640   7.902   2.895  0.2867 -0.5310 -0.1602
13348TIP3    H239988   0.558   7.801   2.974  0.2009  0.1712  0.6469
13349TIP3   OH239989   0.568   6.918   0.116 -0.1664  0.1579  0.5538
13349TIP3    H139990   0.526   6.859   0.178  0.4861 -1.0032 -0.0916
13349TIP3    H239991   0.656   6.933   0.152 -0.8848  2.0441  1.5551
13350TIP3   OH239992   1.632   4.967   0.116 -0.5980 -0.1465 -0.1419
13350TIP3    H139993   1.704   5.018   0.154 -1.0090  0.8029 -0.6264
13350TIP3    H239994   1.557   5.027   0.116 -0.7966 -0.3703 -1.7762
13351TIP3   OH239995   8.206   5.137   3.728 -0.1523  0.2690  0.2644
13351TIP3    H139996   8.286   5.109   3.773 -0.3712 -1.2618 -0.2602
13351TIP3    H239997   8.148   5.061   3.734 -2.0567  1.7909  1.7308
13352TIP3   OH239998   2.004   5.336   1.188  0.0303 -0.1482 -1.1754
13352TIP3    H139999   2.086   5.366   1.149 -0.1106  3.1559  0.8511
13352TIP3    H240000   2.029   5.298   1.272 -0.3849 -0.3519 -1.1391
13353TIP3   OH240001   3.888   5.389   0.554  0.4127  0.4318 -0.0368
13353TIP3    H140002   3.871   5.360   0.464 -2.2808  0.2850  0.4908
13353TIP3    H240003   3.881   5.310   0.606  1.9654  0.5208  0.3181
13354TIP3   OH240004   0.173   1.944   5.919  0.5793  0.7967 -0.1959
13354TIP3    H140005   0.192   1.856   5.886  2.3470  0.2162  2.2089
13354TIP3    H240006   0.078   1.943   5.934  0.6741 -0.9600  0.4655
13355TIP3   OH240007   6.184   2.610   6.653  0.4543 -0.5304  0.2247
13355TIP3    H140008   6.264   2.659   6.635 -0.3400  0.3724 -0.9282
13355TIP3    H240009   6.197   2.525   6.609  0.7311 -0.3376 -0.0654
13356TIP3   OH240010   1.309   5.573   0.659  0.1516  0.1636 -0.6432
13356TIP3    H140011   1.355   5.613   0.732  0.1600  0.5281 -0.8461
13356TIP3    H240012   1.241   5.636   0.635  0.0961  0.0127 -0.8992
13357TIP3   OH240013   6.479   1.517   6.569 -0.2296  0.0954 -0.6332
13357TIP3    H140014   6.464   1.584   6.503  1.5846  0.6340 -0.5040
13357TIP3    H240015   6.418   1.540   6.640 -0.3502  0.9865 -1.0229
13358TIP3   OH240016   0.341   4.850   0.257  0.0372 -0.3713  0.0106
13358TIP3    H140017   0.367   4.941   0.243  1.2630 -0.5306  1.1967
13358TIP3    H240018   0.303   4.849   0.345 -2.9541 -0.3888 -1.1943
13359TIP3   OH240019   2.118   6.252   0.857  0.4806 -0.0702 -0.2421
13359TIP3    H140020   2.064   6.306   0.799  0.4037 -0.4514 -0.5289
13359TIP3    H240021   2.123   6.167   0.813  0.9124 -0.1834  0.0213
13360TIP3   OH240022   7.830   5.289   1.017 -0.0700 -0.4854 -0.3636
13360TIP3    H140023   7.855   5.333   1.099  1.7765 -1.2568 -0.4946
13360TIP3    H240024   7.737   5.273   1.027  0.0313 -0.1381  1.4034
13361TIP3   OH240025   0.578   7.526   1.839  0.0963  0.5226 -0.1613
13361TIP3    H140026   0.506   7.523   1.776  0.6073 -0.7375 -0.7086
13361TIP3    H240027   0.545   7.478   1.915 -0.1865  1.2570  0.1862
13362TIP3   OH240028   7.591   5.932   0.662 -0.0814  0.4733  0.3719
13362TIP3    H140029   7.502   5.940   0.696 -0.5396  1.2109 -0.9508
13362TIP3    H240030   7.614   6.020   0.631 -0.0788 -0.3427 -2.0898
13363TIP3   OH240031   0.293   1.636   6.920  0.1277 -0.2510 -0.4960
13363TIP3    H140032   0.208   1.594   6.928  0.3354 -0.5992 -0.1301
13363TIP3    H240033   0.356   1.569   6.948  0.5188  0.0114 -0.7403
13364TIP3   OH240034   1.246   6.605   2.799 -0.1249 -0.3916  0.2601
13364TIP3    H140035   1.246   6.626   2.706 -1.9866  0.8757  0.5196
13364TIP3    H240036   1.288   6.519   2.804  1.9945  0.5012 -1.4893
13365TIP3   OH240037   1.110   6.684   0.838  0.0470  0.3966  0.1632
13365TIP3    H140038   1.065   6.720   0.762 -1.0890  0.1657  0.7108
13365TIP3    H240039   1.068   6.599   0.853  0.8853  0.0323  0.4959
13366TIP3   OH240040   7.619   2.449   5.974 -0.1903  0.1035 -0.8245
13366TIP3    H140041   7.534   2.482   6.003  0.3040  3.0735 -2.5491
13366TIP3    H240042   7.598   2.385   5.906 -1.0547  1.8770 -2.2596
13367TIP3   OH240043   2.547   3.618   0.106 -0.2032 -0.1604  0.1450
13367TIP3    H140044   2.618   3.554   0.099  0.6053  0.8181 -0.7627
13367TIP3    H240045   2.467   3.566   0.093  0.3743 -1.1555  0.4984
13368TIP3   OH240046   7.248   5.563   0.077  0.1095  0.3659 -0.0358
13368TIP3    H140047   7.213   5.652   0.079 -0.0372  0.3920 -2.3913
13368TIP3    H240048   7.204   5.522   0.003  1.3397 -1.1768  0.0724
13369TIP3   OH240049   4.760   2.881   6.849 -0.8487  0.1019  0.3363
13369TIP3    H140050   4.752   2.820   6.775  0.4729 -0.8299  0.9322
13369TIP3    H240051   4.740   2.827   6.926 -1.5133  0.8902  0.7207
13370TIP3   OH240052   7.968   1.759   5.622  0.0054 -0.3636  0.1393
13370TIP3    H140053   8.055   1.731   5.593 -0.6362 -1.6047 -0.6711
13370TIP3    H240054   7.908   1.715   5.562 -1.2059  0.1680  0.9358
13371TIP3   OH240055   5.966   6.432   0.255  0.0819  0.3215  0.5896
13371TIP3    H140056   5.979   6.429   0.350  1.3231 -0.8628  0.4012
13371TIP3    H240057   5.871   6.433   0.244 -0.0838  1.8940  1.8670
13372TIP3   OH240058   4.006   0.542   0.952  0.4425  0.2906  0.7046
13372TIP3    H140059   4.074   0.478   0.929  0.1800  0.5878 -0.9624
13372TIP3    H240060   3.994   0.531   1.046 -1.2493 -3.7573  0.1165
13373TIP3   OH240061   0.280   4.748   4.026 -0.1596 -0.2228  0.4959
13373TIP3    H140062   0.329   4.708   4.098  0.5461  0.3874  0.3543
13373TIP3    H240063   0.265   4.838   4.054 -1.4379 -0.4772  0.6510
13374TIP3   OH240064   0.366   4.437   2.578  0.6839  0.0345  0.0036
13374TIP3    H140065   0.341   4.383   2.652 -1.2030  0.7932 -0.0725
13374TIP3    H240066   0.295   4.427   2.515  0.9093  1.6210 -0.5271
13375TIP3   OH240067   2.214   4.886   1.901 -0.2790  0.7230 -0.1552
13375TIP3    H140068   2.201   4.867   1.808  1.8183  1.5216 -0.6327
13375TIP3    H240069   2.238   4.802   1.940 -2.0657  0.2014 -0.1523
13376TIP3   OH240070   6.199   6.043   2.075 -0.5090  0.0433 -0.2064
13376TIP3    H140071   6.219   5.962   2.121 -0.9107  0.4854  0.7571
13376TIP3    H240072   6.140   6.017   2.004  0.4539 -0.7030 -0.7359
13377TIP3   OH240073   6.824   1.180   0.559  0.2327 -0.2304 -0.1698
13377TIP3    H140074   6.826   1.129   0.640 -2.6837  0.6094  0.5036
13377TIP3    H240075   6.881   1.133   0.499  1.4252 -1.5791  1.9646
13378TIP3   OH240076   6.405   7.812   0.891 -0.0303 -0.1482 -0.2839
13378TIP3    H140077   6.486   7.850   0.857  0.8381 -0.8267  1.0088
13378TIP3    H240078   6.363   7.774   0.814  0.6966  0.5225 -1.0246
13379TIP3   OH240079   6.849   6.090   1.882 -0.1974  0.5189 -0.1320
13379TIP3    H140080   6.796   6.041   1.945  0.7324  0.2801  0.4795
13379TIP3    H240081   6.892   6.157   1.936 -2.0169  2.5004 -1.0608
13380TIP3   OH240082   6.605   7.839   3.044 -0.0976  0.4208  0.4220
13380TIP3    H140083   6.620   7.893   3.122 -0.9351  1.2769 -0.0049
13380TIP3    H240084   6.681   7.856   2.988  0.7840 -0.6310  1.2955
13381TIP3   OH240085   6.362   7.407   2.735  0.4332 -0.3326  0.5627
13381TIP3    H140086   6.305   7.468   2.689  1.3327 -0.6267 -0.9751
13381TIP3    H240087   6.394   7.348   2.667  2.3924 -0.3180  1.4298
13382TIP3   OH240088   6.121   7.112   2.837  0.1988  0.2964  0.3638
13382TIP3    H140089   6.188   7.065   2.887  0.6537 -1.0526 -1.4626
13382TIP3    H240090   6.124   7.072   2.750 -0.9092  2.2750 -0.6031
13383TIP3   OH240091   1.429   0.994   1.643 -0.1551  0.0724 -0.1036
13383TIP3    H140092   1.338   0.965   1.644 -0.3219  0.5523 -0.8182
13383TIP3    H240093   1.428   1.076   1.595  0.5376  0.5042  0.5989
13384TIP3   OH240094   6.612   6.668   1.014  0.5234 -0.4030  0.2019
13384TIP3    H140095   6.577   6.612   0.945  0.4185  1.4202 -1.2745
13384TIP3    H240096   6.598   6.757   0.981  0.2251  0.5007  2.7159
13385TIP3   OH240097   6.757   0.886   0.493 -0.1418  0.2955 -0.0429
13385TIP3    H140098   6.808   0.816   0.535 -0.1023  0.0608 -0.4747
13385TIP3    H240099   6.669   0.876   0.530  0.1433  0.7747  0.7917
13386TIP3   OH240100   5.179   6.081   2.245  0.4744  0.1514  0.1869
13386TIP3    H140101   5.189   6.132   2.326  1.3832  0.3954 -0.0736
13386TIP3    H240102   5.107   6.020   2.264  0.2287  0.6645  0.9426
13387TIP3   OH240103   8.493   5.473   1.463 -0.0650 -0.1337 -0.1830
13387TIP3    H140104   8.419   5.511   1.416 -1.0018 -0.2105  1.2202
13387TIP3    H240105   8.472   5.485   1.555  0.7707 -1.8742  0.2517
13388TIP3   OH240106   7.241   6.182   0.270  0.1971 -0.4862  0.0086
13388TIP3    H140107   7.264   6.096   0.305  0.6363 -1.4112 -2.4278
13388TIP3    H240108   7.324   6.229   0.264  0.3274 -0.8127 -0.9553
13389TIP3   OH240109   0.272   8.020   0.130 -0.5377  0.1560  0.0893
13389TIP3    H140110   0.266   7.941   0.075 -0.5004  0.5920 -0.5474
13389TIP3    H240111   0.357   8.012   0.174  0.0829  0.5068 -1.0194
13390TIP3   OH240112   3.050   0.479   0.010 -0.6191  0.5713  0.3507
13390TIP3    H140113   3.118   0.483   0.077  0.4399 -1.7069 -0.5337
13390TIP3    H240114   2.967   0.479   0.059  0.1353 -1.1302  1.6701
13391TIP3   OH240115   7.607   7.748   0.707 -0.6788 -0.5173  0.2811
13391TIP3    H140116   7.542   7.679   0.721 -0.7407 -0.7568 -1.1441
13391TIP3    H240117   7.649   7.725   0.625 -1.1604  1.5058 -0.5676
13392TIP3   OH240118   5.350   3.884   6.343  0.7925  0.0113  0.2941
13392TIP3    H140119   5.374   3.801   6.384 -0.6911 -0.1207  0.9129
13392TIP3    H240120   5.280   3.919   6.398  2.4580  2.4493  0.9641
13393TIP3   OH240121   6.826   7.858   2.309  0.1018  0.4284 -0.1448
13393TIP3    H140122   6.743   7.810   2.300 -1.1367  2.4407  0.1274
13393TIP3    H240123   6.868   7.851   2.223 -0.5922 -0.2078 -0.4340
13394TIP3   OH240124   3.588   2.350   6.086 -0.3911 -0.0788 -0.6360
13394TIP3    H140125   3.680   2.361   6.062 -1.1671  1.5180 -3.1946
13394TIP3    H240126   3.579   2.394   6.170  0.7431  1.6952 -1.4174
13395TIP3   OH240127   6.641   5.888   0.506  0.5247  0.2653  0.5206
13395TIP3    H140128   6.701   5.963   0.498  0.5030  0.0977 -1.3881
13395TIP3    H240129   6.658   5.835   0.428  0.9065 -2.0280  2.1013
13396TIP3   OH240130   1.753   0.206   1.794 -0.3369 -0.5646  0.2251
13396TIP3    H140131   1.706   0.279   1.754  0.4892 -0.5283 -0.7092
13396TIP3    H240132   1.763   0.231   1.886 -0.9566  0.0314  0.1352
13397TIP3   OH240133   6.459   5.677   0.843 -0.0251 -0.2860  0.4815
13397TIP3    H140134   6.386   5.619   0.821 -0.5344  0.1344  1.0643
13397TIP3    H240135   6.534   5.641   0.795 -0.0333 -2.1925  1.8596
13398TIP3   OH240136   7.087   7.359   1.793  0.0814  0.1642  0.7545
13398TIP3    H140137   7.096   7.302   1.717  1.6679  2.2231 -0.6332
13398TIP3    H240138   6.995   7.384   1.793 -0.1393 -0.6082  0.1030
13399TIP3   OH240139   3.187   0.392   1.985 -0.1674 -0.5034  0.2112
13399TIP3    H140140   3.138   0.397   2.067  0.5369 -0.4779  0.6323
13399TIP3    H240141   3.210   0.299   1.977 -0.0374 -0.4660  0.1601
13400TIP3   OH240142   5.047   2.914   6.666 -0.4704  0.0171 -0.5002
13400TIP3    H140143   4.998   2.857   6.725 -1.0265 -0.0438 -1.0187
13400TIP3    H240144   5.138   2.909   6.697 -0.6036 -0.7364 -0.2241
13401TIP3   OH240145   6.421   6.735   0.722 -0.3585 -0.1291 -0.3337
13401TIP3    H140146   6.403   6.806   0.661  0.0041  1.1533  1.0320
13401TIP3    H240147   6.517   6.729   0.725 -0.3757 -0.2158  0.0788
13402TIP3   OH240148   4.909   1.891   5.484  0.2208 -0.1409  0.1789
13402TIP3    H140149   4.860   1.815   5.452  1.0052 -1.1270  1.3103
13402TIP3    H240150   4.997   1.880   5.450  0.2637  0.4272  0.0934
13403TIP3   OH240151   7.509   6.766   0.417 -0.5762 -0.2821 -0.1896
13403TIP3    H140152   7.580   6.721   0.462 -0.0284  0.0716 -0.6918
13403TIP3    H240153   7.443   6.781   0.485 -1.1089 -2.4935 -0.1511
13404TIP3   OH240154   8.059   7.266   1.354  0.5247  0.0063 -0.0206
13404TIP3    H140155   7.979   7.231   1.314  0.7609  0.2822 -0.7296
13404TIP3    H240156   8.029   7.303   1.437  0.0168 -0.4581  0.0114
13405TIP3   OH240157   0.956   0.069   1.122  0.4327  0.5147 -0.5945
13405TIP3    H140158   1.004   0.077   1.205  1.2284  1.5064 -1.1455
13405TIP3    H240159   0.953  -0.025   1.106 -1.1960  0.1854  1.4150
13406TIP3   OH240160   4.809   3.369   6.591 -0.0966  0.2070  0.5392
13406TIP3    H140161   4.820   3.456   6.552  2.4399  0.3374  1.4603
13406TIP3    H240162   4.876   3.315   6.548  1.1629 -0.2190  2.9388
13407TIP3   OH240163   7.006   6.759   1.313 -0.0898 -0.5599 -0.1622
13407TIP3    H140164   7.010   6.711   1.230 -0.4976 -2.0693  0.6718
13407TIP3    H240165   6.923   6.731   1.352  0.1534  0.0590  0.8051
13408TIP3   OH240166   3.648   3.783   4.967  0.0674 -0.2662 -0.0472
13408TIP3    H140167   3.664   3.876   4.949  0.9504 -0.2594  0.6909
13408TIP3    H240168   3.728   3.754   5.011 -0.8153 -0.9951  1.1114
13409TIP3   OH240169   6.162   0.384   0.209  0.6396  0.1072 -0.3875
13409TIP3    H140170   6.186   0.440   0.282  0.2866 -0.6850  0.3390
13409TIP3    H240171   6.079   0.344   0.235  1.4574 -1.6221 -0.4160
13410TIP3   OH240172   7.404   0.633   0.601  0.3873 -0.7269 -0.0163
13410TIP3    H140173   7.315   0.604   0.622  0.1135 -0.7127 -1.1391
13410TIP3    H240174   7.455   0.552   0.595 -0.2410 -0.9842 -2.5117
13411TIP3   OH240175   4.677   6.930   0.646 -0.6611 -0.1798 -0.3255
13411TIP3    H140176   4.695   6.870   0.573 -0.7094  0.2743 -0.7102
13411TIP3    H240177   4.584   6.917   0.665 -0.8910  0.4365 -1.0106
13412TIP3   OH240178   5.956   6.532   2.450  0.6674 -0.5306  0.3923
13412TIP3    H140179   6.030   6.512   2.392 -0.6023 -1.1951 -1.0378
13412TIP3    H240180   5.950   6.628   2.447  0.3993 -0.5724 -0.8714
13413TIP3   OH240181   6.759   7.551   0.651 -0.3428 -0.3793 -0.5110
13413TIP3    H140182   6.682   7.504   0.621 -0.8310 -0.0259  0.1763
13413TIP3    H240183   6.741   7.643   0.630 -0.1481 -0.2868 -0.2762
13414TIP3   OH240184   7.488   7.428   0.012  0.2435 -0.3329 -0.1451
13414TIP3    H140185   7.406   7.388   0.040  0.5188 -0.4020  0.5614
13414TIP3    H240186   7.553   7.398   0.075  0.5408  0.8679  0.1315
13415TIP3   OH240187   0.451   1.233   1.461 -0.1860  0.1766  0.0657
13415TIP3    H140188   0.383   1.207   1.399 -2.3440  1.4300  1.7955
13415TIP3    H240189   0.406   1.291   1.523  2.3103  0.4821  1.6933
13416TIP3   OH240190   6.086   0.236   1.667 -0.1760  0.4048  0.3864
13416TIP3    H140191   6.141   0.199   1.597 -0.1107  2.0948 -0.4798
13416TIP3    H240192   6.101   0.330   1.662 -1.7209  0.7196  1.3816
13417TIP3   OH240193   6.527   4.249   5.922  0.2178  0.5664 -0.1396
13417TIP3    H140194   6.591   4.178   5.913 -1.0676 -0.5406 -0.6836
13417TIP3    H240195   6.503   4.247   6.015 -0.0076  0.1423 -0.2107
13418TIP3   OH240196   1.426   0.923   2.439 -0.1162  0.2162  0.0935
13418TIP3    H140197   1.369   0.903   2.365  1.3060  1.6158 -1.4214
13418TIP3    H240198   1.377   0.986   2.492 -0.7282 -0.0258 -0.1815
13419TIP3   OH240199   0.668   0.978   1.852 -0.1051 -0.1236 -0.0086
13419TIP3    H140200   0.671   1.017   1.765  0.5535 -3.1947 -1.4197
13419TIP3    H240201   0.649   1.051   1.910  2.6053  2.5644 -2.3401
13420TIP3   OH240202   2.284   2.642   6.393  0.4301  0.3678 -0.9556
13420TIP3    H140203   2.290   2.737   6.397  0.1850  0.3754 -0.7673
13420TIP3    H240204   2.288   2.621   6.300  1.8382  0.4750 -0.9214
13421TIP3   OH240205   6.520   5.141   0.693  0.0815  0.6195  0.1724
13421TIP3    H140206   6.541   5.078   0.761 -2.0351  1.5022  1.6995
13421TIP3    H240207   6.557   5.223   0.724 -0.1805  0.8574 -0.1467
13422TIP3   OH240208   2.165   0.346   0.521 -0.6712  0.2765 -0.1077
13422TIP3    H140209   2.164   0.282   0.592  2.4141  0.3867  0.1099
13422TIP3    H240210   2.209   0.301   0.449 -0.3203  1.4628 -0.6458
13423TIP3   OH240211   3.479   2.524   6.285 -0.6406 -0.0644 -0.5668
13423TIP3    H140212   3.501   2.612   6.254  0.0427  0.4699  1.4276
13423TIP3    H240213   3.486   2.528   6.380 -1.5653 -2.0230 -0.3717
13424TIP3   OH240214   1.780   4.485   6.825  0.0391 -0.9450 -0.1465
13424TIP3    H140215   1.705   4.514   6.774 -0.9673 -3.3196 -0.0897
13424TIP3    H240216   1.856   4.508   6.771 -0.7509  0.8181 -0.5305
13425TIP3   OH240217   7.880   6.728   1.547  0.4787  0.2562 -0.1279
13425TIP3    H140218   7.815   6.790   1.580  0.7379  0.7136 -0.4671
13425TIP3    H240219   7.830   6.650   1.525  0.2517  0.0927  0.9777
13426TIP3   OH240220   0.172   6.101   3.002  0.1382  0.3300  0.0298
13426TIP3    H140221   0.127   6.129   3.082 -0.8501  0.0201 -0.4189
13426TIP3    H240222   0.119   6.136   2.931 -0.3566 -1.5168 -0.5223
13427TIP3   OH240223   0.082   6.487   1.323 -0.3045 -0.1751 -0.2117
13427TIP3    H140224   0.064   6.503   1.415  0.7260 -1.4638  0.2274
13427TIP3    H240225   0.015   6.423   1.297  0.1988 -0.7942 -0.0078
13428TIP3   OH240226   7.719   7.198   0.825 -0.5558 -0.4812  0.1495
13428TIP3    H140227   7.713   7.171   0.734 -0.6694  0.4546 -0.1180
13428TIP3    H240228   7.756   7.121   0.870  3.5607  0.4858 -1.3753
13429TIP3   OH240229   2.342   0.117   1.494 -0.2166  0.1061  0.1559
13429TIP3    H140230   2.319   0.025   1.509 -1.9339  0.4884 -0.0138
13429TIP3    H240231   2.421   0.113   1.440  1.0547 -1.2541  2.0713
13430TIP3   OH240232   2.199   1.526   5.997 -0.2803  0.2562  0.0542
13430TIP3    H140233   2.251   1.605   5.980 -1.5009  1.0278 -0.1463
13430TIP3    H240234   2.158   1.505   5.913 -1.3142  0.4049  0.5125
13431TIP3   OH240235   5.473   2.615   6.803  0.2267  0.3929  0.2101
13431TIP3    H140236   5.443   2.705   6.817 -0.8541  0.2978 -1.2773
13431TIP3    H240237   5.566   2.617   6.822 -0.2642  1.2478  2.6499
13432TIP3   OH240238   4.070   1.501   6.055 -0.1082 -0.6446 -0.5676
13432TIP3    H140239   4.096   1.410   6.063  0.8272 -0.4173 -0.8833
13432TIP3    H240240   4.152   1.548   6.036 -0.9984 -0.1147 -3.2695
13433TIP3   OH240241   7.293   5.363   0.778 -0.1650 -0.0682 -0.1383
13433TIP3    H140242   7.302   5.268   0.786  1.7590  0.0985 -0.3081
13433TIP3    H240243   7.208   5.382   0.820 -0.9106 -1.9282 -0.7607
13434TIP3   OH240244   7.531   4.465   0.508  0.4166  0.2577 -0.6388
13434TIP3    H140245   7.621   4.432   0.508 -0.0196 -0.9463  0.0820
13434TIP3    H240246   7.477   4.387   0.516 -0.6662  1.0785  0.1466
13435TIP3   OH240247   3.137   2.522   6.132  0.3253  0.7645 -0.2431
13435TIP3    H140248   3.104   2.554   6.047  0.3566  1.3627 -0.0305
13435TIP3    H240249   3.058   2.495   6.179  0.3068  0.4379 -0.4645
13436TIP3   OH240250   6.701   7.806   0.601  0.4513 -0.9226  0.3606
13436TIP3    H140251   6.706   7.871   0.670 -0.8363 -1.1559  0.6869
13436TIP3    H240252   6.740   7.848   0.525  0.3092 -0.0453  0.7743
13437TIP3   OH240253   1.353   6.452   0.919 -0.4523 -0.1708 -0.4232
13437TIP3    H140254   1.323   6.418   0.834 -0.8617  1.6141 -1.0172
13437TIP3    H240255   1.331   6.545   0.916  0.0886  0.0208  1.4132
13438TIP3   OH240256   5.529   7.375   0.008 -0.0128 -0.1502 -0.0091
13438TIP3    H140257   5.527   7.423   0.091 -1.5009  0.3590 -0.3342
13438TIP3    H240258   5.516   7.284   0.032  1.1014 -0.2088  0.4454
13439TIP3   OH240259   4.051   3.445   6.067 -0.0001  0.0716 -0.4087
13439TIP3    H140260   4.036   3.490   5.984 -1.5023  0.2878 -0.0309
13439TIP3    H240261   4.136   3.477   6.097  0.0664  0.7867 -1.3532
13440TIP3   OH240262   6.640   5.112   0.448  0.1550 -0.3883  0.6745
13440TIP3    H140263   6.695   5.035   0.434 -1.5831 -1.6648  0.6994
13440TIP3    H240264   6.615   5.106   0.540  0.9804  0.8586  0.9783
13441TIP3   OH240265   6.012   7.941   0.334 -0.1528 -0.2882  0.6588
13441TIP3    H140266   6.089   7.885   0.335  1.9268  2.4411  0.3265
13441TIP3    H240267   5.974   7.931   0.421  1.4044 -0.5757  1.3331
13442TIP3   OH240268   2.813   1.626   0.542  0.6786  0.0742  0.3286
13442TIP3    H140269   2.893   1.610   0.493  0.1650 -0.7344 -0.2414
13442TIP3    H240270   2.752   1.663   0.478 -0.8332 -3.3219 -0.2657
13443TIP3   OH240271   7.163   1.646   6.829  0.3756  0.2181  0.2979
13443TIP3    H140272   7.119   1.728   6.850  0.4627  0.3198  0.0937
13443TIP3    H240273   7.123   1.618   6.747 -2.8773 -2.3037  2.6347
13444TIP3   OH240274   0.863   5.563   1.861 -0.3664 -0.1092 -0.6121
13444TIP3    H140275   0.811   5.628   1.907  1.0168 -0.0797  0.9642
13444TIP3    H240276   0.954   5.590   1.875  0.3155 -3.0001  1.0992
13445TIP3   OH240277   4.861   3.498   6.097 -0.1326 -0.1043 -0.0107
13445TIP3    H140278   4.818   3.414   6.109 -0.5503  0.0072 -0.7456
13445TIP3    H240279   4.912   3.489   6.017  1.4163 -0.3172  0.9924
13446TIP3   OH240280   8.264   5.928   1.816  0.0655  0.0139  0.3856
13446TIP3    H140281   8.171   5.910   1.831 -0.6493  1.6446 -1.8144
13446TIP3    H240282   8.286   5.994   1.881 -0.1472 -0.8400  1.3319
13447TIP3   OH240283   6.954   7.006   1.108  0.0361  0.2142 -0.2301
13447TIP3    H140284   6.974   6.981   1.018  1.0346 -0.5458  0.1996
13447TIP3    H240285   6.903   6.933   1.142  1.5375 -0.5141  0.5012
13448TIP3   OH240286   1.164   1.869   2.114  0.2686 -0.3481  0.2353
13448TIP3    H140287   1.205   1.814   2.048  1.2440  1.9611 -1.1638
13448TIP3    H240288   1.077   1.890   2.077  0.8235  0.9620 -0.3924
13449TIP3   OH240289   1.620   1.409   1.961  0.5061  0.1569 -0.0781
13449TIP3    H140290   1.549   1.467   1.933  2.1898  1.5766 -1.5002
13449TIP3    H240291   1.629   1.346   1.889 -1.2077 -1.8446  1.3864
13450TIP3   OH240292   7.792   7.891   1.746  0.3336 -0.3370  0.1451
13450TIP3    H140293   7.828   7.829   1.684 -1.4000 -1.1584 -0.0494
13450TIP3    H240294   7.728   7.841   1.797 -0.5798  1.0996  0.4516
13451TIP3   OH240295   8.152   4.018   0.418  0.3218  0.1690 -0.2433
13451TIP3    H140296   8.208   4.047   0.346  0.7592 -1.4672 -0.5920
13451TIP3    H240297   8.206   3.958   0.468  0.4304  2.2736  2.2322
13452TIP3   OH240298   2.633   7.679   1.149 -0.0665 -0.5184  0.3345
13452TIP3    H140299   2.572   7.605   1.153 -0.7288  0.0036  0.1210
13452TIP3    H240300   2.711   7.650   1.195 -0.2946 -1.3813  0.1746
13453TIP3   OH240301   7.563   7.617   2.903 -0.1954 -0.0244 -0.3536
13453TIP3    H140302   7.606   7.613   2.817  0.5572  2.8987 -0.1792
13453TIP3    H240303   7.629   7.656   2.960 -1.1219 -0.8159  1.2726
13454TIP3   OH240304   3.226   1.324   1.341 -0.3915  0.0814  0.0194
13454TIP3    H140305   3.272   1.245   1.369 -0.5012 -0.3376 -0.9617
13454TIP3    H240306   3.295   1.389   1.327 -0.2727  0.0591  0.5210
13455TIP3   OH240307   2.050   0.186   3.870  0.4556  0.0639  0.2221
13455TIP3    H140308   2.115   0.254   3.849 -0.5869  1.1134  0.3832
13455TIP3    H240309   1.994   0.182   3.793  1.2242 -1.4770 -0.2843
13456TIP3   OH240310   4.255   0.026   0.525  0.0174 -0.3283  0.0703
13456TIP3    H140311   4.333   0.081   0.510 -0.6987  0.5770 -0.3896
13456TIP3    H240312   4.288  -0.064   0.524  0.8069 -0.0302 -1.7212
13457TIP3   OH240313   0.948   6.790   2.996 -0.4961  0.2199  0.1014
13457TIP3    H140314   0.875   6.730   2.984 -2.1636  2.2162 -0.0084
13457TIP3    H240315   0.993   6.759   3.074 -0.3052 -2.1644 -0.9191
13458TIP3   OH240316   0.393   6.722   2.529 -0.2666  0.4450 -0.6121
13458TIP3    H140317   0.386   6.716   2.434 -1.7949 -0.0275 -0.4742
13458TIP3    H240318   0.303   6.730   2.560  0.3442  2.9748  0.6448
13459TIP3   OH240319   4.747   2.705   6.641  0.9509 -0.2993  0.1710
13459TIP3    H140320   4.659   2.728   6.610  0.9797  0.3647  0.5554
13459TIP3    H240321   4.804   2.720   6.565  0.6212 -1.5760 -0.3402
13460TIP3   OH240322   2.233   0.349   1.006 -0.0257 -0.1026 -0.3362
13460TIP3    H140323   2.239   0.315   0.917 -2.9096  0.9058 -0.9566
13460TIP3    H240324   2.156   0.308   1.043 -0.9170  2.1784  0.4656
13461TIP3   OH240325   7.864   6.686   2.528  0.1669 -0.4667 -0.3848
13461TIP3    H140326   7.857   6.675   2.433 -1.0568  2.5950 -0.6981
13461TIP3    H240327   7.922   6.761   2.540 -1.9238  0.9496  1.1947
13462TIP3   OH240328   2.832   1.669   2.811 -0.4821 -0.5866  0.1076
13462TIP3    H140329   2.895   1.735   2.783 -0.6765  0.0070  1.0368
13462TIP3    H240330   2.747   1.706   2.786 -0.5749 -0.5744  0.4307
13463TIP3   OH240331   1.074   4.148   2.600  0.2724  0.4496  0.0742
13463TIP3    H140332   1.064   4.243   2.598 -0.5697  0.4033  1.5458
13463TIP3    H240333   1.161   4.134   2.637 -0.3187  0.6274  1.5537
13464TIP3   OH240334   7.147   7.913   2.821  0.1059  0.1001 -0.1210
13464TIP3    H140335   7.062   7.879   2.793 -0.1443  2.1207 -1.9781
13464TIP3    H240336   7.125   7.987   2.878  0.5678  1.2667 -1.4158
13465TIP3   OH240337   8.440   7.963   2.073 -0.1782  1.0751 -0.4528
13465TIP3    H140338   8.442   7.921   1.987 -0.2456 -0.5243  0.3244
13465TIP3    H240339   8.352   8.002   2.079 -0.4959  0.3987 -0.7261
13466TIP3   OH240340   6.100   2.888   6.450  0.2811  0.0350  0.1139
13466TIP3    H140341   6.123   2.802   6.414 -1.9926 -0.0880 -1.1103
13466TIP3    H240342   6.115   2.949   6.377 -2.7169  0.0058 -0.5965
13467TIP3   OH240343   5.482   3.990   6.137  0.2608  0.4371 -0.1366
13467TIP3    H140344   5.459   3.955   6.223 -0.3146 -1.4225 -1.0076
13467TIP3    H240345   5.406   4.042   6.111 -0.4683 -0.7203 -0.3904
13468TIP3   OH240346   7.782   2.312   6.125  0.1891  0.8608 -0.4687
13468TIP3    H140347   7.734   2.368   6.064  1.4738  2.0865 -0.3925
13468TIP3    H240348   7.720   2.293   6.195 -0.1643  2.5320 -0.3057
13469TIP3   OH240349   0.308   6.485   0.365  0.5997 -0.3451  0.7135
13469TIP3    H140350   0.382   6.543   0.347 -0.7608  0.9251 -0.9264
13469TIP3    H240351   0.231   6.542   0.360 -0.7803 -2.3018 -1.1553
13470TIP3   OH240352   8.463   7.901   1.109 -0.2957  0.0128  0.2806
13470TIP3    H140353   8.386   7.949   1.079 -0.4836  0.0582  0.8393
13470TIP3    H240354   8.532   7.928   1.049 -1.1178 -1.3857 -1.3490
13471TIP3   OH240355   6.611   1.116   5.280  0.1083 -0.1600 -0.0673
13471TIP3    H140356   6.654   1.159   5.355  0.4801  1.8322 -1.3862
13471TIP3    H240357   6.523   1.152   5.280 -0.3138 -1.1850  0.2086
13472TIP3   OH240358   5.646   3.009   6.843 -0.6563 -0.0510 -0.2128
13472TIP3    H140359   5.703   3.082   6.819 -0.7034 -0.1198 -0.5406
13472TIP3    H240360   5.670   2.988   6.933 -1.9782  1.6121  0.5341
13473TIP3   OH240361   6.665   6.733   3.061  0.0041  0.1192 -0.3265
13473TIP3    H140362   6.583   6.690   3.035 -0.2929  0.8755 -0.6351
13473TIP3    H240363   6.638   6.796   3.128  0.2968  0.5737 -0.6397
13474TIP3   OH240364   7.848   6.911   0.752  0.0881  0.2523 -0.5168
13474TIP3    H140365   7.880   6.913   0.842 -0.2041 -1.2916 -0.3663
13474TIP3    H240366   7.753   6.905   0.760 -0.0076  1.1080 -0.9404
13475TIP3   OH240367   0.459   7.191   0.437 -0.3955 -0.5144 -0.0305
13475TIP3    H140368   0.447   7.273   0.390 -2.6821 -0.5946  0.3283
13475TIP3    H240369   0.500   7.216   0.520  0.1159  0.0842 -0.4632
13476TIP3   OH240370   0.836   2.688   3.163 -0.6895 -0.4030 -0.3181
13476TIP3    H140371   0.906   2.706   3.100 -0.9664  1.2963 -0.1707
13476TIP3    H240372   0.846   2.595   3.184  0.5996 -0.5306 -1.4132
13477TIP3   OH240373   7.931   7.494   2.897 -0.1360 -0.0033 -0.2747
13477TIP3    H140374   7.909   7.423   2.958 -2.0021 -0.2952 -1.2718
13477TIP3    H240375   7.870   7.564   2.919  0.7790  0.7945 -0.2348
13478TIP3   OH240376   7.307   4.351   6.690 -0.0326  0.2481 -0.1538
13478TIP3    H140377   7.385   4.335   6.743  0.0495  0.5515 -0.1806
13478TIP3    H240378   7.244   4.284   6.718 -0.6013  1.4402  1.5550
13479TIP3   OH240379   0.445   6.927   1.685  0.1057  0.0030 -0.7687
13479TIP3    H140380   0.370   6.891   1.732  0.5999 -0.0993 -0.0359
13479TIP3    H240381   0.433   7.022   1.693  0.4887 -0.0114  0.0770
13480TIP3   OH240382   0.080   6.911   0.151 -0.0316 -0.6339 -0.6931
13480TIP3    H140383   0.134   6.989   0.162 -0.2941 -0.2817 -1.8195
13480TIP3    H240384   0.143   6.840   0.140  0.2008 -0.4486 -0.5669
13481TIP3   OH240385   1.458   6.504   1.205  0.3623 -0.3889 -0.5986
13481TIP3    H140386   1.378   6.536   1.163  1.2785  1.2734 -1.0961
13481TIP3    H240387   1.447   6.526   1.297 -1.0759 -2.8844 -0.1300
13482TIP3   OH240388   0.114   6.112   0.644  0.3796 -0.1690 -0.4281
13482TIP3    H140389   0.186   6.053   0.620 -0.5791 -0.8326 -1.7159
13482TIP3    H240390   0.145   6.199   0.618  1.5278 -0.1557  0.8755
13483TIP3   OH240391   6.177   7.991   1.000 -0.5269 -0.1430 -0.3649
13483TIP3    H140392   6.178   8.057   0.931  0.8852 -0.0787 -0.2974
13483TIP3    H240393   6.259   7.943   0.988 -0.7827 -0.8261  0.5951
13484TIP3   OH240394   5.836   1.343   1.747  0.5496 -0.5381 -0.6175
13484TIP3    H140395   5.883   1.395   1.682 -1.0597  1.0629 -0.5191
13484TIP3    H240396   5.826   1.401   1.822  0.1328 -1.5322  0.1112
13485TIP3   OH240397   6.760   7.280   2.534  0.6176 -0.3033  0.7690
13485TIP3    H140398   6.710   7.225   2.594 -1.4949 -0.1361 -0.7901
13485TIP3    H240399   6.708   7.360   2.526  0.9699 -0.2342 -1.1055
13486TIP3   OH240400   7.791   7.441   3.258 -0.0453 -0.0807  0.0208
13486TIP3    H140401   7.862   7.387   3.223 -0.4384  0.5170 -1.7013
13486TIP3    H240402   7.832   7.494   3.326  0.8626 -0.7319 -0.0178
13487TIP3   OH240403   0.539   6.192   1.427 -0.2113 -0.3108  0.0098
13487TIP3    H140404   0.510   6.222   1.514  0.8680  0.2169  0.2111
13487TIP3    H240405   0.557   6.099   1.438 -1.4869 -0.5616 -0.0322
13488TIP3   OH240406   4.932   4.146   6.300  0.3876  0.0497 -0.0843
13488TIP3    H140407   4.873   4.136   6.375  2.5619 -0.4479  1.6347
13488TIP3    H240408   4.878   4.131   6.223 -1.8589  0.3571  1.4133
13489TIP3   OH240409   0.052   6.614   0.347 -0.1034 -0.7409  0.1048
13489TIP3    H140410   0.017   6.694   0.386 -0.3340 -0.6913 -0.1994
13489TIP3    H240411   0.088   6.642   0.263  0.4286 -0.8397  0.3022
13490TIP3   OH240412   0.235   5.372   1.968 -0.0195  0.3454 -0.3650
13490TIP3    H140413   0.263   5.330   2.049  0.3349  2.2121  0.4963
13490TIP3    H240414   0.182   5.305   1.924  0.7101 -1.0697  0.8682
13491TIP3   OH240415   0.170   7.343   2.907  0.6068 -0.0849  0.0302
13491TIP3    H140416   0.104   7.377   2.847  0.9319 -0.5315 -0.5877
13491TIP3    H240417   0.126   7.270   2.951  0.1361  0.6890  0.8569
13492TIP3   OH240418   0.157   7.256   2.060  0.5058 -0.1385  0.4654
13492TIP3    H140419   0.115   7.228   1.979 -3.8374  1.7393  1.9239
13492TIP3    H240420   0.131   7.191   2.125  0.7964  0.4224  1.1559
13493TIP3   OH240421   0.932   3.645   0.218  0.2787 -0.1657 -0.1953
13493TIP3    H140422   0.946   3.584   0.146  0.1831  0.0947 -0.4355
13493TIP3    H240423   0.842   3.629   0.246  0.3532 -0.3471 -0.0560
13494TIP3   OH240424   0.896   6.633   2.517  0.1107 -0.4746 -0.2607
13494TIP3    H140425   0.960   6.565   2.497  1.4076  0.4288  0.7747
13494TIP3    H240426   0.930   6.677   2.594 -1.5160  0.3433  0.0267
13495TIP3   OH240427   8.200   6.349   2.462  0.3815 -0.0231 -0.3941
13495TIP3    H140428   8.139   6.417   2.432  1.5724  2.2766  2.1405
13495TIP3    H240429   8.266   6.345   2.393 -0.9035 -0.2636 -1.6432
13496TIP3   OH240430   0.950   7.489   1.193  0.4579 -0.0437 -0.2227
13496TIP3    H140431   0.993   7.421   1.245 -0.3298 -0.3062  0.1041
13496TIP3    H240432   0.959   7.460   1.102 -1.2090 -1.3794  0.0186
13497TIP3   OH240433   0.262   6.712   0.132 -0.2795  0.3242  0.4384
13497TIP3    H140434   0.300   6.655   0.066 -1.3737  1.0373 -0.8366
13497TIP3    H240435   0.333   6.727   0.194  0.4210 -1.2914  0.0565
13498TIP3   OH240436   0.540   6.746   0.655  0.0990 -0.0818  0.3902
13498TIP3    H140437   0.551   6.746   0.560  0.2719  0.6566  0.4110
13498TIP3    H240438   0.519   6.837   0.677 -1.9877 -0.6475  0.8146
13499TIP3   OH240439   5.074   3.052   6.405 -0.2937  0.4048 -0.5025
13499TIP3    H140440   5.013   3.125   6.419  0.8722  1.7775 -2.4298
13499TIP3    H240441   5.067   3.000   6.485 -1.8250  2.1238  0.5271
13500TIP3   OH240442   8.156   7.176   3.703  0.0984 -0.4101  0.2318
13500TIP3    H140443   8.214   7.113   3.662 -0.4984 -1.8349  1.5383
13500TIP3    H240444   8.193   7.189   3.791 -0.0291  0.7282  0.1229
13501TIP3   OH240445   8.173   6.956   0.353 -1.0565 -0.3248  0.4379
13501TIP3    H140446   8.230   7.031   0.370 -0.5900 -0.4054 -0.7579
13501TIP3    H240447   8.230   6.889   0.316 -2.1486  0.0713 -2.0371
13502TIP3   OH240448   2.727   7.059   0.465  0.1382 -0.3945  0.2130
13502TIP3    H140449   2.665   7.091   0.399 -1.5262 -0.6790  1.6084
13502TIP3    H240450   2.796   7.126   0.467  0.2586 -0.4242 -1.8598
13503TIP3   OH240451   0.140   7.317   1.055 -0.0351  0.1563 -0.0009
13503TIP3    H140452   0.204   7.376   1.094  0.0521 -0.2232  0.4355
13503TIP3    H240453   0.190   7.240   1.030 -0.5972 -0.8139  1.8330
13504TIP3   OH240454   0.320   7.514   1.112 -0.0109  0.6501 -0.6811
13504TIP3    H140455   0.410   7.483   1.120 -0.6342 -0.7738  1.0804
13504TIP3    H240456   0.329   7.605   1.083  2.0011  0.8458  0.4632
13505TIP3   OH240457   7.861   7.398   0.589  0.2481 -0.3435 -0.4105
13505TIP3    H140458   7.835   7.333   0.524 -0.4434 -0.2814 -0.2037
13505TIP3    H240459   7.879   7.347   0.668 -2.3100 -0.1353  0.3666
13506TIP3   OH240460   3.781   0.137   5.024  0.0457 -0.3666 -0.1230
13506TIP3    H140461   3.817   0.199   5.088  0.6917  0.4920 -1.2938
13506TIP3    H240462   3.850   0.128   4.958 -0.5396 -1.3833 -0.6139
13507TIP3   OH240463   2.472   6.932   2.423  0.3519 -0.0028  0.1596
13507TIP3    H140464   2.469   7.006   2.483  1.3306  0.0426  0.1728
13507TIP3    H240465   2.451   6.969   2.337 -0.4910  0.0359  0.3775
13508TIP3   OH240466   3.990   3.997   6.365 -0.5293  0.0395 -0.1618
13508TIP3    H140467   4.031   4.076   6.400 -1.6776  0.6389 -0.1133
13508TIP3    H240468   4.044   3.973   6.290  0.2920  0.4075  0.3032
13509TIP3   OH240469   7.817   5.576   1.189 -0.2950 -0.2520 -0.1945
13509TIP3    H140470   7.756   5.545   1.255 -1.3350 -1.9175 -1.8806
13509TIP3    H240471   7.763   5.626   1.128  0.6693  1.3438  0.2139
13510TIP3   OH240472   8.247   7.309   0.645 -0.3186 -0.0824  0.0254
13510TIP3    H140473   8.304   7.309   0.722 -0.7799 -0.6807  0.3690
13510TIP3    H240474   8.180   7.243   0.664 -0.4306 -0.2428 -0.8855
13511TIP3   OH240475   8.438   7.176   1.204  0.2731 -0.0070 -0.5149
13511TIP3    H140476   8.508   7.223   1.159  0.6187 -0.4512 -0.4474
13511TIP3    H240477   8.400   7.119   1.137  0.3487 -0.1791 -0.4125
13512TIP3   OH240478   5.139   0.401   0.343 -0.6104 -0.3090 -0.6335
13512TIP3    H140479   5.121   0.437   0.430  1.8008 -0.5035 -0.0254
13512TIP3    H240480   5.075   0.331   0.332 -0.5637 -0.6402  1.2057
13513TIP3   OH240481   0.599   7.430   2.621  0.7413 -0.1076 -0.3125
13513TIP3    H140482   0.518   7.434   2.570  1.2727 -1.3817 -1.2805
13513TIP3    H240483   0.570   7.443   2.712 -0.9194 -3.0151 -0.3283
13514TIP3   OH240484   4.131   1.371   5.763 -0.3759  0.5815 -0.1491
13514TIP3    H140485   4.105   1.428   5.691 -2.2202  2.2738  1.7957
13514TIP3    H240486   4.079   1.292   5.752  0.3193  0.2869 -1.3964
13515TIP3   OH240487   0.053   6.733   2.053 -0.0458 -0.0580  1.0026
13515TIP3    H140488   0.092   6.807   2.099 -1.0504  1.5322 -0.6392
13515TIP3    H240489  -0.041   6.751   2.054 -0.2518 -1.0356  0.1131
13516TIP3   OH240490   4.891   2.812   4.910  0.4346 -0.6217 -0.0092
13516TIP3    H140491   4.977   2.801   4.951  0.3157  0.9251  0.6578
13516TIP3    H240492   4.909   2.807   4.816  1.7841  3.1400 -0.0075
13517TIP3   OH240493   1.381   1.547   3.125  0.1072 -0.1454  0.0141
13517TIP3    H140494   1.306   1.606   3.134  1.0232  1.1043 -0.4298
13517TIP3    H240495   1.342   1.463   3.098 -1.5396 -0.7126  3.7342
13518TIP3   OH240496   1.233   6.744   1.085 -0.2938 -0.3685  0.7740
13518TIP3    H140497   1.185   6.701   1.014  0.7125  0.5996 -0.5277
13518TIP3    H240498   1.173   6.742   1.159 -1.2311 -1.7271  0.0140
13519TIP3   OH240499   2.599   6.929   0.644  0.5152 -0.4328  0.1658
13519TIP3    H140500   2.647   6.961   0.568  1.5103 -1.8781  0.1700
13519TIP3    H240501   2.659   6.941   0.717  0.0907 -0.3657  0.5115
13520TIP3   OH240502   1.590   6.854   0.786 -0.4930 -0.3274 -0.1759
13520TIP3    H140503   1.519   6.797   0.755 -0.5631  0.0100 -0.6378
13520TIP3    H240504   1.567   6.872   0.877  0.5570 -2.6543  0.6060
13521TIP3   OH240505   3.633   2.171   0.311  0.1499 -0.0775 -0.8647
13521TIP3    H140506   3.553   2.191   0.360  1.5619  1.7248  0.7946
13521TIP3    H240507   3.621   2.081   0.280 -1.2717 -0.8480  1.8066
13522TIP3   OH240508   6.412   6.519   1.676 -0.1265 -0.6259 -0.4932
13522TIP3    H140509   6.370   6.497   1.759  0.3521 -1.8497 -0.5713
13522TIP3    H240510   6.394   6.612   1.664 -1.8041 -0.8586  0.0728
13523TIP3   OH240511   7.719   6.962   0.299 -0.4872  0.2538 -0.1463
13523TIP3    H140512   7.641   6.909   0.315 -0.8682  0.9668  0.3619
13523TIP3    H240513   7.694   7.023   0.231  0.2468 -0.8379 -1.4210
13524TIP3   OH240514   8.022   6.281   1.523  0.2849  0.1881 -0.3198
13524TIP3    H140515   8.054   6.196   1.492  0.8910  0.2216  0.1993
13524TIP3    H240516   7.957   6.308   1.458 -0.7363 -1.2029  0.1010
13525TIP3   OH240517   2.085   5.685   3.109  0.1611 -0.6902  0.1927
13525TIP3    H140518   2.138   5.657   3.183 -0.6370  0.6370  1.3100
13525TIP3    H240519   1.999   5.645   3.125 -0.3990  0.6953  0.7197
13526TIP3   OH240520   5.734   2.018   6.886 -0.3245  0.0349  0.5355
13526TIP3    H140521   5.688   2.090   6.841  1.1225 -0.2492 -1.4400
13526TIP3    H240522   5.748   1.952   6.818  2.2842 -0.2313  1.2808
13527TIP3   OH240523   2.301   2.186   2.131 -0.1362  0.5369  0.2567
13527TIP3    H140524   2.325   2.240   2.207  0.8058 -0.6294  0.8090
13527TIP3    H240525   2.221   2.142   2.158  0.0451  0.3363  0.4774
13528TIP3   OH240526   5.369   3.446   6.649 -0.1113 -0.1957 -0.5506
13528TIP3    H140527   5.434   3.387   6.610 -0.4000 -0.9075  0.0426
13528TIP3    H240528   5.412   3.482   6.726  1.1174  2.5769 -2.4432
13529TIP3   OH240529   1.335   7.291   3.104  0.0254 -0.2216  0.5997
13529TIP3    H140530   1.402   7.223   3.098  0.2982  0.1301 -0.3626
13529TIP3    H240531   1.384   7.373   3.110 -0.3069  0.2591 -2.6732
13530TIP3   OH240532   1.907   2.385   1.611  0.8103 -0.5589 -0.4300
13530TIP3    H140533   1.963   2.380   1.688 -1.7699 -0.3644  1.5080
13530TIP3    H240534   1.868   2.298   1.604 -0.5757  0.0336 -0.2482
13531TIP3   OH240535   1.576   6.644   0.558 -0.5404 -0.0392  0.1630
13531TIP3    H140536   1.505   6.644   0.622  0.2286  2.9520  1.1224
13531TIP3    H240537   1.631   6.719   0.583  1.8449 -1.0761 -1.7566
13532TIP3   OH240538   8.069   6.836   1.728 -0.5667  0.1496  0.4430
13532TIP3    H140539   8.009   6.823   1.655  0.1784 -0.9832  0.0201
13532TIP3    H240540   8.142   6.777   1.710 -0.0406  0.3932  1.7321
13533TIP3   OH240541   7.716   6.660   0.584  0.3025 -0.1092 -0.2456
13533TIP3    H140542   7.773   6.727   0.546  0.7855 -1.0541 -1.2014
13533TIP3    H240543   7.690   6.696   0.669  1.6231  0.7128 -0.1820
13534TIP3   OH240544   3.888   1.484   1.385  0.3120  0.2046  0.0018
13534TIP3    H140545   3.929   1.567   1.364  0.9318  0.3128  1.5599
13534TIP3    H240546   3.958   1.419   1.377  0.0346 -0.0511 -0.3818
13535TIP3   OH240547   2.512   2.171   1.971  0.1210  0.1913  0.4935
13535TIP3    H140548   2.521   2.079   1.945  0.9538  0.5076 -0.3841
13535TIP3    H240549   2.444   2.171   2.038 -1.2940 -0.8023 -0.9121
13536TIP3   OH240550   7.354   5.616   0.716  0.2031  0.4456 -0.2807
13536TIP3    H140551   7.391   5.624   0.804  1.2079  0.7123 -0.7204
13536TIP3    H240552   7.346   5.521   0.703 -0.9395  0.4205  0.4925
13537TIP3   OH240553   6.062   6.315   0.504 -0.0681 -0.1009  0.2571
13537TIP3    H140554   6.007   6.247   0.545 -0.8898  0.7601  0.6157
13537TIP3    H240555   6.136   6.325   0.564  0.4203 -1.1630 -0.1485
13538TIP3   OH240556   0.014   6.847   0.505  0.1676 -0.7870  0.4091
13538TIP3    H140557   0.071   6.789   0.555  0.4751 -1.5298 -0.7797
13538TIP3    H240558   0.074   6.909   0.462  0.2244 -2.2520 -1.7312
13539TIP3   OH240559   4.263   3.317   6.284 -0.0356  0.0153  0.2397
13539TIP3    H140560   4.256   3.286   6.375 -2.5027 -1.4648 -0.4175
13539TIP3    H240561   4.174   3.341   6.260  0.7137  1.0219 -1.5957
13540TIP3   OH240562   2.525   0.506   1.393 -0.0622 -0.1683 -0.2355
13540TIP3    H140563   2.523   0.479   1.301  1.3222  1.5794 -0.8040
13540TIP3    H240564   2.470   0.585   1.396  1.9763  1.2868 -0.1136
13541TIP3   OH240565   5.850   1.606   5.035 -0.4417 -0.1570 -0.3598
13541TIP3    H140566   5.903   1.533   5.002 -1.3039 -1.6270  1.4201
13541TIP3    H240567   5.762   1.569   5.044 -1.0047  1.2670  0.0468
13542TIP3   OH240568   2.088   1.506   1.296  0.4102  0.1023  0.3583
13542TIP3    H140569   2.167   1.464   1.261  1.8209  0.6011  2.7674
13542TIP3    H240570   2.020   1.440   1.288  1.4710 -0.9305 -0.2841
13543TIP3   OH240571   0.867   5.274  -0.013 -0.0330  0.1061  0.2512
13543TIP3    H140572   0.792   5.306   0.038  1.2460 -0.1307  2.3292
13543TIP3    H240573   0.852   5.180  -0.020  1.3664 -0.3490  2.9320
13544TIP3   OH240574   7.436   5.566   2.887 -0.1470 -0.1472 -0.6125
13544TIP3    H140575   7.393   5.515   2.955 -0.6284 -1.9548 -2.2275
13544TIP3    H240576   7.529   5.546   2.896 -0.4137 -2.0194 -1.7730
13545TIP3   OH240577   0.035   5.954   3.821 -0.6143 -0.6804  0.0793
13545TIP3    H140578  -0.028   5.903   3.770 -1.1740 -0.4386  0.5218
13545TIP3    H240579   0.099   5.984   3.756 -0.6403 -1.3950 -0.2860
13546TIP3   OH240580   4.561   2.855   6.138 -0.0075 -0.0727  0.2964
13546TIP3    H140581   4.523   2.777   6.177 -2.9656  0.3406 -1.5920
13546TIP3    H240582   4.499   2.925   6.161  0.4860  0.9422 -1.4008
13547TIP3   OH240583   1.934   7.605   0.389 -0.5535  0.7520  0.1003
13547TIP3    H140584   1.861   7.592   0.450 -1.7476 -0.4107 -1.5342
13547TIP3    H240585   1.906   7.679   0.335 -0.2471  0.7007 -0.1288
13548TIP3   OH240586   2.987   1.411   1.202  0.4971  0.3337 -0.3429
13548TIP3    H140587   2.945   1.327   1.184 -1.0987  1.0613 -0.1176
13548TIP3    H240588   3.068   1.388   1.248 -0.6488 -1.0431  1.0610
13549TIP3   OH240589   2.634   0.550   2.210  0.0239  0.2816  0.2624
13549TIP3    H140590   2.654   0.600   2.131  0.1602  0.0888  0.1770
13549TIP3    H240591   2.615   0.617   2.276  1.1530  0.4764  0.4052
13550TIP3   OH240592   0.386   7.557   3.449 -0.6559  0.2038  0.1645
13550TIP3    H140593   0.307   7.544   3.500 -0.3795  1.5369  0.9437
13550TIP3    H240594   0.454   7.577   3.513  0.0416  0.3296 -0.5958
13551TIP3   OH240595   8.338   7.105   0.895 -0.0838  0.3992 -0.3279
13551TIP3    H140596   8.366   7.014   0.901 -0.0742  0.4316  0.1094
13551TIP3    H240597   8.244   7.103   0.914  0.1839  0.6545  1.0847
13552TIP3   OH240598   3.667   1.083   1.302  0.2621 -0.3829 -0.1295
13552TIP3    H140599   3.585   1.108   1.344  0.6693  0.7032  0.0515
13552TIP3    H240600   3.670   1.137   1.223 -0.0442 -1.7166 -1.0632
13553TIP3   OH240601   0.508   7.321   1.259 -0.2317  0.9471 -0.1077
13553TIP3    H140602   0.473   7.236   1.286 -0.5712  0.8199 -0.9112
13553TIP3    H240603   0.468   7.384   1.319  0.9115  0.4306  1.2223
13554TIP3   OH240604   5.541   2.245   6.279 -0.0154  0.3088  1.0625
13554TIP3    H140605   5.476   2.193   6.325  0.6368 -1.2516  0.2608
13554TIP3    H240606   5.518   2.336   6.298 -1.0323 -0.2794  2.6736
13555TIP3   OH240607   1.194   7.204   2.161  0.1082  0.1074 -0.4043
13555TIP3    H140608   1.273   7.252   2.187 -0.3691  0.7043 -0.0384
13555TIP3    H240609   1.191   7.129   2.220  1.3525 -0.8877 -1.5751
13556TIP3   OH240610   2.837   6.756   0.161  0.5206  0.2299  0.1235
13556TIP3    H140611   2.915   6.708   0.135 -0.1931 -0.4073 -0.8432
13556TIP3    H240612   2.790   6.772   0.080 -0.7473 -0.0706  0.7836
13557TIP3   OH240613   0.449   8.001   1.055  0.0523  0.1036  0.1466
13557TIP3    H140614   0.514   8.066   1.080  0.7915 -0.6393  0.1784
13557TIP3    H240615   0.494   7.945   0.992 -0.4499 -0.6152  0.4196
13558TIP3   OH240616   8.322   6.325   1.239  0.2142 -0.4978  0.3856
13558TIP3    H140617   8.238   6.368   1.257 -0.1430 -1.1188  0.1899
13558TIP3    H240618   8.309   6.281   1.156  1.1144  0.3821 -0.2395
13559TIP3   OH240619   0.201   5.413   0.825  0.6687 -0.6777 -0.2598
13559TIP3    H140620   0.236   5.341   0.877  1.0202  0.6017  1.3119
13559TIP3    H240621   0.122   5.377   0.784 -0.1293 -1.4811  1.8770
13560TIP3   OH240622   0.537   7.034   2.023 -0.1632  0.1599 -0.5563
13560TIP3    H140623   0.539   7.092   2.099  0.1044 -0.8007  0.1841
13560TIP3    H240624   0.559   7.091   1.949  1.0597  0.8112  0.2827
13561TIP3   OH240625   4.849   1.726   5.826  0.0339  0.2841  0.3676
13561TIP3    H140626   4.891   1.812   5.823  1.9641 -0.6717 -0.8368
13561TIP3    H240627   4.787   1.726   5.753  1.6159 -0.1312 -0.9865
13562TIP3   OH240628   1.412   1.430   1.273 -0.5032 -0.2171  0.0168
13562TIP3    H140629   1.502   1.462   1.276 -0.8567  0.8232  0.0694
13562TIP3    H240630   1.388   1.432   1.180 -1.0081  1.1326  0.1525
13563TIP3   OH240631   3.050   1.948   1.369  0.7382  0.3276 -0.2500
13563TIP3    H140632   3.014   1.938   1.281 -0.4633  0.2247  0.2303
13563TIP3    H240633   3.114   2.018   1.361  0.5925  0.3616 -1.1974
13564TIP3   OH240634   8.349   7.596   2.556  0.1666 -0.2405 -0.1335
13564TIP3    H140635   8.416   7.664   2.559  0.1870 -0.2616 -0.1163
13564TIP3    H240636   8.267   7.644   2.548  0.1912 -0.2166 -0.2525
13565TIP3   OH240637   3.328   1.196   1.650 -0.4316 -0.0375 -0.0553
13565TIP3    H140638   3.272   1.144   1.709 -0.0720 -0.6818 -0.2735
13565TIP3    H240639   3.281   1.278   1.638 -0.1556  0.4022  1.7354
13566TIP3   OH240640   1.700   1.099   2.121 -0.1411  0.2254  0.2091
13566TIP3    H140641   1.709   1.023   2.179  1.7338 -0.0771 -0.4747
13566TIP3    H240642   1.743   1.073   2.040 -3.2933  0.4072 -1.6119
13567TIP3   OH240643   6.829   2.835   6.252  0.5103 -0.3859 -0.3587
13567TIP3    H140644   6.846   2.858   6.160  1.0899 -0.5439 -0.2935
13567TIP3    H240645   6.741   2.868   6.269  0.5317 -0.0570 -0.8767
13568TIP3   OH240646   0.191   4.249   3.087  0.3337  0.0975 -0.1626
13568TIP3    H140647   0.107   4.263   3.131  0.4898 -1.1727  0.5675
13568TIP3    H240648   0.177   4.282   2.998 -1.0492 -0.4026 -0.1566
13569TIP3   OH240649   0.214   7.848   0.636  0.1458 -0.4120 -0.0574
13569TIP3    H140650   0.276   7.922   0.636 -0.5965  0.2161 -0.3294
13569TIP3    H240651   0.176   7.850   0.548 -1.7181  0.4337  0.7454
13570TIP3   OH240652   5.280   3.310   5.343  0.0252  0.1336  0.1950
13570TIP3    H140653   5.358   3.345   5.299 -1.2999  0.8882 -1.6124
13570TIP3    H240654   5.306   3.222   5.371  1.6037  0.4710 -0.1558
13571TIP3   OH240655   6.911   2.579   6.921  0.1423 -0.4521  0.2786
13571TIP3    H140656   6.951   2.498   6.952 -0.0642 -1.3707 -1.7348
13571TIP3    H240657   6.984   2.630   6.886  0.0893 -0.4033  0.2394
13572TIP3   OH240658   7.990   6.019   0.191  0.1347 -0.4497  0.4219
13572TIP3    H140659   8.064   6.080   0.187 -1.2405  1.1454 -1.4075
13572TIP3    H240660   7.947   6.028   0.106 -1.3731 -2.3734  0.9537
13573TIP3   OH240661   5.893   5.952   6.008 -0.0369  0.5425 -0.1207
13573TIP3    H140662   5.889   5.862   5.974 -1.2426  0.6241 -0.2256
13573TIP3    H240663   5.925   6.004   5.934 -0.3816  0.3563 -0.4056
13574TIP3   OH240664   7.567   7.028   3.400  0.7367  0.1530 -0.2575
13574TIP3    H140665   7.585   6.947   3.448  1.6349  0.5704  0.1219
13574TIP3    H240666   7.496   7.005   3.340 -1.1962 -0.0577  2.0528
13575TIP3   OH240667   3.909   0.977   2.274  0.0850 -0.3402 -0.3085
13575TIP3    H140668   3.860   1.044   2.321  0.5279  0.4468 -0.9599
13575TIP3    H240669   3.842   0.912   2.249 -0.4114  0.0690 -0.0619
13576TIP3   OH240670   5.630   2.250   6.765  0.1409  0.4150  0.2100
13576TIP3    H140671   5.541   2.271   6.794  0.1106  1.1304 -0.3730
13576TIP3    H240672   5.652   2.321   6.704  0.6139 -0.4553 -0.6387
13577TIP3   OH240673   1.715   7.547   0.584 -0.2528 -0.4366 -0.3110
13577TIP3    H140674   1.731   7.454   0.598 -0.6028 -0.4645 -0.1110
13577TIP3    H240675   1.699   7.582   0.671 -1.7066 -0.4797 -0.5596
13578TIP3   OH240676   0.872   7.544   1.489  0.4026  0.1410  0.0418
13578TIP3    H140677   0.960   7.511   1.470  0.7126  0.9872 -0.0420
13578TIP3    H240678   0.827   7.542   1.405  0.0830 -1.0510  0.2428
13579TIP3   OH240679   2.569   6.682   1.562 -0.4760  0.1698 -0.1538
13579TIP3    H140680   2.524   6.598   1.554  0.6724 -0.3466 -1.3533
13579TIP3    H240681   2.524   6.739   1.500 -0.1107 -0.0778 -0.6532
13580TIP3   OH240682   8.345   7.064   1.680  0.4309  0.0771 -0.2171
13580TIP3    H140683   8.328   7.110   1.598 -0.8711  0.0285  0.0116
13580TIP3    H240684   8.408   6.995   1.657  0.2043  0.1745 -1.1337
13581TIP3   OH240685   1.090   4.707   0.363 -0.3613  0.3707 -0.6608
13581TIP3    H140686   1.117   4.640   0.300 -0.3270 -0.5949  0.3597
13581TIP3    H240687   1.136   4.786   0.336 -0.2356 -0.0765 -1.7566
13582TIP3   OH240688   5.158   1.502   5.551 -0.2358 -0.5229  0.4527
13582TIP3    H140689   5.139   1.587   5.512 -0.4305  0.0696  1.7869
13582TIP3    H240690   5.095   1.494   5.622  0.3306 -1.4123  0.8664
13583TIP3   OH240691   8.030   7.933   1.008 -0.5646 -0.0867 -0.0878
13583TIP3    H140692   8.045   7.875   1.083 -0.1891 -1.4097 -1.1680
13583TIP3    H240693   7.949   7.902   0.969  0.1243 -0.4958 -1.2203
13584TIP3   OH240694   2.156   0.312   1.600 -0.0238  0.4162 -0.8716
13584TIP3    H140695   2.074   0.265   1.591 -0.2996  0.4504  1.2689
13584TIP3    H240696   2.224   0.246   1.588 -0.3916 -0.0682 -0.3008
13585TIP3   OH240697   1.403   0.918   1.050 -0.2874  0.3359  0.1879
13585TIP3    H140698   1.421   1.001   1.005 -1.1438 -0.1797 -1.1628
13585TIP3    H240699   1.310   0.901   1.033 -0.3008 -0.5264  1.0782
13586TIP3   OH240700   0.691   4.574   1.385 -0.1361 -0.5024  0.4938
13586TIP3    H140701   0.758   4.635   1.354  0.6525 -2.0856 -1.0458
13586TIP3    H240702   0.728   4.538   1.466  0.0450 -0.0194  0.6282
13587TIP3   OH240703   3.563   0.317   3.048 -1.0195  1.0853 -0.2840
13587TIP3    H140704   3.601   0.405   3.043 -0.5880  0.9070 -0.1870
13587TIP3    H240705   3.628   0.260   3.006 -0.5915  0.5946  1.0059
13588TIP3   OH240706   7.521   7.847   1.922  0.2647 -0.4620 -0.2896
13588TIP3    H140707   7.476   7.780   1.973  0.8675  0.3591  1.3879
13588TIP3    H240708   7.452   7.890   1.871 -0.4561 -0.9108  0.2998
13589TIP3   OH240709   1.179   1.776   1.531 -0.0876 -0.1320  0.2077
13589TIP3    H140710   1.253   1.837   1.530 -2.2350  2.5891  0.5676
13589TIP3    H240711   1.185   1.729   1.448  2.1634 -0.1266  0.3438
13590TIP3   OH240712   5.021   3.893   6.483 -0.2136 -0.2386  0.2954
13590TIP3    H140713   4.998   3.831   6.553  1.7706  1.5594  2.6523
13590TIP3    H240714   5.044   3.974   6.530  2.0898  0.7356 -2.3932
13591TIP3   OH240715   0.645   5.835   1.043 -0.2100  0.7799  0.1266
13591TIP3    H140716   0.621   5.851   1.134  1.1187  0.0737  0.6281
13591TIP3    H240717   0.573   5.871   0.991 -0.6927  1.7090  1.4385
13592TIP3   OH240718   0.016   7.737   1.705  0.5091  0.1226  0.1652
13592TIP3    H140719   0.064   7.778   1.633  3.2618  1.0931  2.4131
13592TIP3    H240720  -0.041   7.806   1.738  1.0315  0.4489  0.4068
13593TIP3   OH240721   4.168   2.465   1.360  0.3215 -0.7770 -0.3322
13593TIP3    H140722   4.192   2.475   1.268  0.5884 -1.3812 -0.3305
13593TIP3    H240723   4.151   2.371   1.370 -1.3738 -0.4681 -0.1803
13594TIP3   OH240724   7.197   7.311   1.469 -0.4212 -0.1486 -0.8660
13594TIP3    H140725   7.245   7.374   1.415 -0.8195 -1.0558 -2.3024
13594TIP3    H240726   7.224   7.225   1.435 -1.7950 -0.6893 -0.5985
13595TIP3   OH240727   4.114   4.268   6.818  0.0434 -0.4318 -0.0064
13595TIP3    H140728   4.153   4.188   6.851  0.8413 -0.9890 -2.1745
13595TIP3    H240729   4.057   4.239   6.746  0.4036  0.9310 -0.8629
13596TIP3   OH240730   7.816   7.883   3.226 -0.4491 -0.0849  0.9607
13596TIP3    H140731   7.817   7.852   3.316  0.1832  0.8665  1.2880
13596TIP3    H240732   7.780   7.972   3.231  0.5029  0.3475  0.4102
13597TIP3   OH240733   2.376   5.579   4.631 -0.3720 -0.6180  0.2082
13597TIP3    H140734   2.374   5.673   4.614 -1.5803 -0.3820  1.5316
13597TIP3    H240735   2.466   5.561   4.657 -0.2994  0.3001  0.6176
13598TIP3   OH240736   8.106   5.144   1.883 -0.3918 -0.1189  0.7750
13598TIP3    H140737   8.131   5.144   1.791 -1.1546 -0.7174  0.5583
13598TIP3    H240738   8.151   5.068   1.920  0.6033  0.6251  1.0916
13599TIP3   OH240739   0.197   4.673   0.084 -0.3310 -0.1214 -0.3364
13599TIP3    H140740   0.216   4.620   0.006 -0.0886  0.4031 -0.6316
13599TIP3    H240741   0.238   4.757   0.067  0.3454 -0.2412  0.6766
13600TIP3   OH240742   4.296   1.442   6.799  0.6111 -0.0884  0.5362
13600TIP3    H140743   4.327   1.419   6.711 -0.0178  0.6054  0.1214
13600TIP3    H240744   4.204   1.414   6.800  0.1263  1.4236  0.3763
13601TIP3   OH240745   2.206   6.899   0.876  0.3110  0.5529  0.0323
13601TIP3    H140746   2.179   6.876   0.965  0.0655 -0.0800 -0.2007
13601TIP3    H240747   2.249   6.820   0.843 -0.4787  0.4382 -0.7540
13602TIP3   OH240748   8.196   5.944   0.808  0.0025  0.1428  0.2424
13602TIP3    H140749   8.235   5.955   0.721 -0.1131 -0.8142  0.0631
13602TIP3    H240750   8.102   5.947   0.792 -0.0197  0.7321  0.4477
13603TIP3   OH240751   6.327   4.902   0.639 -0.2064 -0.7688 -0.0354
13603TIP3    H140752   6.390   4.968   0.610 -0.3477  0.0913  1.5519
13603TIP3    H240753   6.359   4.874   0.724 -1.5659 -0.8486  0.4686
13604TIP3   OH240754   1.480   0.471   0.807 -0.0493 -0.0950 -0.4252
13604TIP3    H140755   1.393   0.501   0.831 -0.1256 -0.9007  0.3284
13604TIP3    H240756   1.536   0.500   0.879  0.1654 -0.2448 -0.5313
13605TIP3   OH240757   0.163   6.494   2.206 -0.0071 -0.0870  0.4334
13605TIP3    H140758   0.243   6.502   2.258  0.5064  0.5890 -0.4455
13605TIP3    H240759   0.142   6.584   2.181  0.5681 -0.5287 -1.7259
13606TIP3   OH240760   0.463   7.231   1.591  0.7231 -0.1610  0.5336
13606TIP3    H140761   0.510   7.310   1.564  0.4611  0.7556  2.6622
13606TIP3    H240762   0.398   7.217   1.522 -0.0636  2.2456  0.7445
13607TIP3   OH240763   4.272   5.284   5.788 -0.2232  0.0861 -0.0480
13607TIP3    H140764   4.264   5.265   5.694  0.1053 -0.7229  0.0862
13607TIP3    H240765   4.182   5.297   5.818 -0.2796  1.0374 -0.6176
13608TIP3   OH240766   4.410   0.036   2.565  0.3290 -0.8227 -0.2853
13608TIP3    H140767   4.451   0.112   2.606 -1.0304 -1.2333  1.9487
13608TIP3    H240768   4.472  -0.035   2.580  0.7158 -0.5662 -0.6568
13609TIP3   OH240769   0.329   7.670   0.818 -0.4693 -0.2718 -0.1313
13609TIP3    H140770   0.251   7.640   0.865 -1.0054 -3.6336 -2.8981
13609TIP3    H240771   0.295   7.713   0.740  0.4286 -0.9758 -0.9247
13610TIP3   OH240772   2.724   0.041   2.780 -0.5303 -0.2794 -0.0941
13610TIP3    H140773   2.693   0.016   2.867  0.6712  0.9393  0.7052
13610TIP3    H240774   2.805  -0.009   2.769  0.2543  0.8815  0.2435
13611TIP3   OH240775   6.324   3.743   6.405 -0.0781  0.2753  0.3562
13611TIP3    H140776   6.300   3.830   6.438 -1.1982  0.3975 -0.7112
13611TIP3    H240777   6.379   3.761   6.329  0.2958  0.0401  0.5712
13612TIP3   OH240778   4.147   1.368   2.860 -0.2978 -0.0252 -0.4533
13612TIP3    H140779   4.167   1.370   2.953  0.6315  2.2041 -0.6509
13612TIP3    H240780   4.096   1.288   2.847  1.7585 -1.7217  1.5026
13613TIP3   OH240781   1.071   7.334   1.464  0.0367  0.4116 -0.3987
13613TIP3    H140782   1.053   7.273   1.393  1.3637 -0.6004  0.1176
13613TIP3    H240783   1.053   7.284   1.544 -2.5204  1.8779 -0.0071
13614TIP3   OH240784   1.094   5.809   5.792 -0.7507  0.4231  0.4115
13614TIP3    H140785   1.001   5.792   5.809 -0.2592 -2.8636  0.1527
13614TIP3    H240786   1.136   5.801   5.878 -0.5572  1.0335  0.3814
13615TIP3   OH240787   0.935   5.810   0.152  0.3720 -0.2603 -0.1548
13615TIP3    H140788   1.029   5.824   0.142  0.0177  1.3899 -1.3091
13615TIP3    H240789   0.900   5.897   0.172 -1.0549 -0.6895 -0.7457
13616TIP3   OH240790   3.605   0.212   0.626 -0.2181  0.0468  0.2378
13616TIP3    H140791   3.549   0.139   0.599  2.6185 -1.0221 -3.0128
13616TIP3    H240792   3.572   0.287   0.577 -0.9471  0.2145  0.9653
13617TIP3   OH240793   3.291   6.024   1.690  0.1603 -0.0553 -0.1898
13617TIP3    H140794   3.360   6.071   1.737  1.2578  0.0612 -1.8696
13617TIP3    H240795   3.232   5.994   1.759  1.4502  0.5403  1.2218
13618TIP3   OH240796   1.505   4.051   6.459 -1.1669  0.6163 -0.0014
13618TIP3    H140797   1.583   4.073   6.408 -0.5872 -1.6081 -0.0955
13618TIP3    H240798   1.434   4.097   6.413  0.0445  2.6408  0.0746
13619TIP3   OH240799   6.496   1.248   5.841  0.0486  0.4296  0.3430
13619TIP3    H140800   6.464   1.317   5.783 -2.0333 -1.3413 -0.7072
13619TIP3    H240801   6.474   1.166   5.796  1.5657 -0.9477  2.0059
13620TIP3   OH240802   0.022   4.912   0.932 -0.1856  0.5105 -0.3571
13620TIP3    H140803   0.032   4.817   0.939  0.9996  0.5965 -0.8602
13620TIP3    H240804   0.096   4.941   0.878 -0.5243  1.7212 -0.1954
13621TIP3   OH240805   2.074   7.358   0.669 -0.2108 -0.0195  0.3245
13621TIP3    H140806   1.980   7.373   0.683 -0.0804 -0.0686  1.2604
13621TIP3    H240807   2.087   7.267   0.698 -0.2517 -0.6870 -1.6615
13622TIP3   OH240808   0.084   6.078   2.112  0.0085  0.2048  0.6620
13622TIP3    H140809   0.135   6.053   2.189  0.9716  0.2396  0.0450
13622TIP3    H240810   0.112   6.017   2.044 -1.5237 -0.4323  0.5747
13623TIP3   OH240811   1.325   6.589   1.437 -0.2000  0.2591  0.3717
13623TIP3    H140812   1.267   6.662   1.414 -1.0000 -0.3854  0.3088
13623TIP3    H240813   1.309   6.574   1.530  0.9442  1.0161  0.7047
13624TIP3   OH240814   7.590   5.639   1.481  0.0060 -0.6157  0.6086
13624TIP3    H140815   7.653   5.623   1.551 -1.5063 -0.1384  2.1180
13624TIP3    H240816   7.505   5.617   1.520 -0.7928 -1.0073 -1.2993
13625TIP3   OH240817   0.357   6.716   0.987 -0.3606 -0.6231  0.2903
13625TIP3    H140818   0.293   6.726   1.058 -0.9726 -1.6156 -0.1057
13625TIP3    H240819   0.348   6.795   0.935 -0.0128  0.0485  1.2292
13626TIP3   OH240820   3.281   0.138   1.912 -0.2139  0.0051  0.4035
13626TIP3    H140821   3.239   0.053   1.925  0.8025 -0.3558  1.4132
13626TIP3    H240822   3.373   0.116   1.894  0.5009  0.9622  2.7296
13627TIP3   OH240823   0.871   5.796   1.610  0.1614 -0.1619 -0.0961
13627TIP3    H140824   0.947   5.839   1.648 -0.4669  2.1304 -1.3545
13627TIP3    H240825   0.882   5.703   1.633  2.7055  0.3034  0.7259
13628TIP3   OH240826   1.408   7.162   1.329  0.3457 -0.2368 -0.3617
13628TIP3    H140827   1.489   7.140   1.282  0.2577 -0.0247 -0.6156
13628TIP3    H240828   1.429   7.147   1.421  0.8403  0.3148 -0.3810
13629TIP3   OH240829   4.141   0.042   1.320 -0.4225 -0.2363  0.1856
13629TIP3    H140830   4.233   0.060   1.300 -0.4837  0.8990  0.8500
13629TIP3    H240831   4.143  -0.002   1.405 -0.6765  3.1216  2.0138
13630TIP3   OH240832   2.967   7.224   3.497  0.5704 -0.1503  0.1571
13630TIP3    H140833   2.879   7.220   3.460  0.1593 -0.8904  1.1897
13630TIP3    H240834   2.987   7.134   3.523  1.3584  0.1271  0.5383
13631TIP3   OH240835   0.248   5.568   6.778  0.1792 -0.4981 -0.0531
13631TIP3    H140836   0.154   5.553   6.764  0.0089 -1.3626  1.8457
13631TIP3    H240837   0.269   5.642   6.721 -1.9189  0.4735  0.3797
13632TIP3   OH240838   2.221   7.942   0.303 -0.8177  0.2440 -0.6250
13632TIP3    H140839   2.288   7.945   0.235  1.4645 -1.6894  1.4477
13632TIP3    H240840   2.213   7.849   0.325 -1.6556  0.8102  1.6006
13633TIP3   OH240841   1.177   7.258   1.149  0.4675  0.3418  0.0765
13633TIP3    H140842   1.185   7.353   1.137 -0.9104  0.7705  2.1912
13633TIP3    H240843   1.244   7.236   1.213 -0.3757  0.1894  0.9127
13634TIP3   OH240844   8.347   2.178   4.947 -0.3289  0.6970  0.0038
13634TIP3    H140845   8.277   2.116   4.928 -1.1866  1.0991  1.7912
13634TIP3    H240846   8.427   2.125   4.942 -1.1394 -0.9498  2.8729
13635TIP3   OH240847   6.985   1.117   6.451  0.2355 -0.1177 -0.6576
13635TIP3    H140848   7.032   1.136   6.369  1.0197 -0.6772 -0.3520
13635TIP3    H240849   6.990   1.198   6.501  0.7248 -0.1086 -0.7117
13636TIP3   OH240850   6.262   0.767   0.229  0.4933 -0.0672 -0.0169
13636TIP3    H140851   6.285   0.766   0.322  0.5763 -1.4969 -0.0563
13636TIP3    H240852   6.330   0.715   0.187  1.9224  2.6568 -1.2384
13637TIP3   OH240853   6.572   0.110   0.614 -0.1318 -0.1275  0.3446
13637TIP3    H140854   6.583   0.021   0.581 -0.5277 -0.5567  1.3287
13637TIP3    H240855   6.481   0.132   0.592 -0.3650 -0.3762  1.0289
13638TIP3   OH240856   2.115   7.723   1.347  0.9058  0.2680 -0.1171
13638TIP3    H140857   2.128   7.706   1.254 -1.7702  0.8671 -0.6338
13638TIP3    H240858   2.079   7.641   1.381  1.1975  0.2927  0.2573
13639TIP3   OH240859   2.963   0.413   0.419  0.7481  0.2963  0.1753
13639TIP3    H140860   2.903   0.379   0.486 -1.7087  0.7874 -1.7109
13639TIP3    H240861   2.969   0.342   0.354  1.9910  0.3684  0.1965
13640TIP3   OH240862   8.230   4.445   5.956 -0.5406 -0.1963  0.6694
13640TIP3    H140863   8.149   4.422   5.910 -0.7355  0.7184  0.5560
13640TIP3    H240864   8.226   4.540   5.965  1.1421 -0.0020 -0.4973
13641TIP3   OH240865   5.584   0.726   3.075  0.1541  0.5689  0.1790
13641TIP3    H140866   5.500   0.731   3.029  0.0320 -0.5668  0.2571
13641TIP3    H240867   5.596   0.813   3.113 -1.1609  0.6394  0.4535
13642TIP3   OH240868   0.543   6.630   3.245  0.0302  0.3863  0.5854
13642TIP3    H140869   0.489   6.708   3.235 -0.6915 -0.0342  1.1753
13642TIP3    H240870   0.481   6.558   3.250  0.6895 -0.2131  0.1876
13643TIP3   OH240871   4.496   1.643   1.995  0.3339  0.0974  0.0470
13643TIP3    H140872   4.518   1.607   1.909 -0.0255  0.8767 -0.3774
13643TIP3    H240873   4.437   1.716   1.975 -2.0755 -1.5129  1.0976
13644TIP3   OH240874   2.975   6.784   2.794  0.2112 -0.0654 -0.4184
13644TIP3    H140875   3.063   6.820   2.803  0.6492 -1.1623 -0.2644
13644TIP3    H240876   2.918   6.849   2.837  1.0957 -0.0437  0.7309
13645TIP3   OH240877   2.449   7.464   1.144  0.3629 -0.2393  0.2595
13645TIP3    H140878   2.437   7.433   1.054 -0.1375  0.2107  0.1733
13645TIP3    H240879   2.360   7.472   1.179  0.5713 -0.8747  0.9510
13646TIP3   OH240880   2.206   7.472   0.891 -0.2664  0.0412 -0.6232
13646TIP3    H140881   2.177   7.467   0.800  0.4278 -1.5383 -0.7652
13646TIP3    H240882   2.284   7.417   0.895 -0.8138 -0.6500  1.1216
13647TIP3   OH240883   7.858   4.985   5.323 -0.0082  0.0576 -0.1025
13647TIP3    H140884   7.906   4.986   5.240 -1.6516 -0.4084 -1.0733
13647TIP3    H240885   7.767   4.968   5.298 -0.8355  1.7505  1.6371
13648TIP3   OH240886   2.377   7.942   2.464  0.5841 -0.0761  0.0407
13648TIP3    H140887   2.380   7.923   2.370 -1.0536  0.0303 -0.0542
13648TIP3    H240888   2.389   8.036   2.470 -1.3446  0.2179 -0.2399
13649TIP3   OH240889   2.963   0.626   1.162 -0.3049  0.0221  0.0513
13649TIP3    H140890   2.914   0.609   1.242 -1.5887 -0.7606 -0.8814
13649TIP3    H240891   3.008   0.544   1.143 -0.1497  0.1490 -0.1328
13650TIP3   OH240892   6.821   2.071   6.677  0.3084 -0.3533 -0.5078
13650TIP3    H140893   6.777   2.081   6.592 -1.2879  3.1678  0.6309
13650TIP3    H240894   6.810   2.156   6.719 -0.4079 -2.5461  3.9702
13651TIP3   OH240895   2.563   0.985   1.490 -0.3627  0.2053  0.2531
13651TIP3    H140896   2.499   1.003   1.559  1.3823  0.5098  1.8349
13651TIP3    H240897   2.542   0.896   1.460 -0.5357 -0.3130  1.8755
13652TIP3   OH240898   6.479   2.248   6.665  0.5188 -0.4355 -0.5463
13652TIP3    H140899   6.536   2.318   6.633 -0.9008  1.1994  0.4147
13652TIP3    H240900   6.508   2.232   6.754 -0.6371  0.6006  0.0483
13653TIP3   OH240901   6.840   5.328   6.301 -0.2850 -0.0397  0.1091
13653TIP3    H140902   6.859   5.415   6.267 -1.7738  1.5126  2.9721
13653TIP3    H240903   6.764   5.298   6.250  1.0222 -0.2256 -1.7464
13654TIP3   OH240904   3.732   2.047   0.915  0.3368  0.4468 -0.1060
13654TIP3    H140905   3.820   2.011   0.903  0.6059  0.4932  1.5749
13654TIP3    H240906   3.705   2.017   1.002 -0.8627  1.3476 -0.1440
13655TIP3   OH240907   8.022   4.782   6.831  0.2438  0.1469  0.0964
13655TIP3    H140908   8.012   4.783   6.735  1.2873 -1.6408 -0.0527
13655TIP3    H240909   8.006   4.691   6.855 -2.0937  0.9948  1.8890
13656TIP3   OH240910   0.677   3.549   0.297  0.3429  0.2592  0.1382
13656TIP3    H140911   0.722   3.541   0.381 -0.9311 -2.5105  0.5998
13656TIP3    H240912   0.644   3.462   0.279 -2.1222  1.5302 -1.7589
13657TIP3   OH240913   8.342   3.899   5.844 -0.2588  0.1667 -0.4467
13657TIP3    H140914   8.322   3.986   5.878 -1.2808  0.0246 -0.6739
13657TIP3    H240915   8.260   3.850   5.852  0.9372 -1.5319  1.9186
13658TIP3   OH240916   6.781   3.124   5.437  0.0278 -0.2417  0.7611
13658TIP3    H140917   6.803   3.142   5.345  0.2039  0.0255  0.8545
13658TIP3    H240918   6.696   3.079   5.433  0.0407 -0.2400  0.4659
13659TIP3   OH240919   5.276   0.520   4.084 -0.5282  0.5018 -0.1439
13659TIP3    H140920   5.292   0.458   4.154  0.2128 -0.4635 -1.1606
13659TIP3    H240921   5.182   0.512   4.066 -0.6548  0.5161  0.4934
13660TIP3   OH240922   2.557   5.740   1.181  0.5554  0.5642 -0.0976
13660TIP3    H140923   2.549   5.729   1.086  0.3103  1.3819 -0.1713
13660TIP3    H240924   2.524   5.657   1.217 -0.7993  0.8301 -0.6763
13661TIP3   OH240925   1.805   5.791   2.117  0.3350  0.0089  0.3638
13661TIP3    H140926   1.743   5.738   2.166  0.9534 -1.2121 -0.1496
13661TIP3    H240927   1.850   5.843   2.183  0.3016 -0.7181  0.9544
13662TIP3   OH240928   8.034   5.747   2.052  0.2890  0.1014  0.1059
13662TIP3    H140929   8.059   5.665   2.010 -1.0239 -0.8053  1.0546
13662TIP3    H240930   8.035   5.811   1.982  0.1645 -0.9646 -0.8851
13663TIP3   OH240931   1.505   5.098   1.181 -0.4246  0.3839  0.2943
13663TIP3    H140932   1.540   5.028   1.235 -1.3300  0.3466  0.8343
13663TIP3    H240933   1.567   5.170   1.192 -0.5704  0.3526  1.3235
13664TIP3   OH240934   1.088   6.185   0.694  0.1245 -0.2661  0.1428
13664TIP3    H140935   0.995   6.191   0.675  0.1778  0.9393  0.2035
13664TIP3    H240936   1.106   6.091   0.699 -1.3929 -0.4851  1.7648
13665TIP3   OH240937   7.525   1.606   5.815 -0.5197 -0.4224 -0.6363
13665TIP3    H140938   7.533   1.520   5.857 -0.7139 -0.2675 -0.2735
13665TIP3    H240939   7.587   1.661   5.863 -2.7391  0.4603  1.3274
13666TIP3   OH240940   4.857   1.637   6.660 -0.0648 -0.3079 -0.2464
13666TIP3    H140941   4.829   1.649   6.569  1.8393  0.1702 -0.7854
13666TIP3    H240942   4.786   1.586   6.700 -1.9152  1.2558 -1.4330
13667TIP3   OH240943   0.757   5.606   0.094  0.0794  0.3993 -0.5136
13667TIP3    H140944   0.818   5.675   0.121  1.4944 -0.3223 -1.7665
13667TIP3    H240945   0.792   5.526   0.134  0.8336 -0.2744 -2.4686
13668TIP3   OH240946   1.462   7.223   2.229 -0.3635 -0.4364  0.0018
13668TIP3    H140947   1.532   7.214   2.165 -0.9060  1.0471 -0.8234
13668TIP3    H240948   1.487   7.165   2.301  0.2087 -2.1850 -1.5786
13669TIP3   OH240949   6.864   2.443   5.530 -0.2818 -0.3783  0.7659
13669TIP3    H140950   6.771   2.418   5.533 -0.7049  0.4724 -2.5361
13669TIP3    H240951   6.864   2.538   5.538  0.1826 -0.2881 -0.1589
13670TIP3   OH240952   5.385   5.637   1.057  0.1116  0.3223  0.6585
13670TIP3    H140953   5.309   5.639   0.998  0.7801 -1.1639 -0.3075
13670TIP3    H240954   5.386   5.723   1.098 -0.9056  1.0852 -0.8445
13671TIP3   OH240955   4.282   0.318   2.774  0.0191 -0.1077  0.3604
13671TIP3    H140956   4.303   0.290   2.685 -0.4509 -0.0235  0.2220
13671TIP3    H240957   4.192   0.291   2.787 -0.0448  0.2454  0.6624
13672TIP3   OH240958   0.923   6.809   0.659  0.1013 -0.1940  0.2655
13672TIP3    H140959   0.932   6.901   0.684 -1.6069 -0.1386  0.7845
13672TIP3    H240960   0.830   6.799   0.640  0.0327 -2.1022  1.4422
13673TIP3   OH240961   3.040   5.393   0.450  0.6369  0.1284  0.8811
13673TIP3    H140962   3.035   5.489   0.447  0.1276  0.0794  0.2005
13673TIP3    H240963   2.984   5.364   0.379 -0.3301 -0.7183  1.9808
13674TIP3   OH240964   0.641   7.065   1.295 -0.4995 -0.0911  0.3811
13674TIP3    H140965   0.718   7.106   1.257 -1.0706  1.3334  0.7337
13674TIP3    H240966   0.660   7.059   1.389 -0.1151 -1.3246  0.2336
13675TIP3   OH240967   7.232   2.605   5.618  0.4865 -0.5500 -0.3359
13675TIP3    H140968   7.202   2.622   5.529  0.5250  0.3822 -0.1747
13675TIP3    H240969   7.163   2.641   5.675 -0.2765 -2.4934  0.0185
13676TIP3   OH240970   3.496   7.473   1.321  0.2240  0.4559  0.4311
13676TIP3    H140971   3.514   7.527   1.398 -0.0533  0.6343  0.3677
13676TIP3    H240972   3.573   7.486   1.265 -1.2851  3.3810 -1.0768
13677TIP3   OH240973   0.380   5.544   0.663 -0.4715  0.2123 -0.3215
13677TIP3    H140974   0.321   5.490   0.714 -0.9527  1.0441  0.0186
13677TIP3    H240975   0.456   5.488   0.645 -1.7701 -1.1624 -1.5780
13678TIP3   OH240976   1.617   0.770   3.506  0.6569  0.2901  0.4863
13678TIP3    H140977   1.636   0.817   3.586 -0.5031  1.0796  0.3132
13678TIP3    H240978   1.543   0.713   3.529  1.7551 -1.1468  0.5753
13679TIP3   OH240979   3.346   0.716   0.137  0.0505  0.4227  0.5946
13679TIP3    H140980   3.280   0.782   0.119  0.9281  1.0614 -0.3238
13679TIP3    H240981   3.383   0.694   0.051  1.2038  0.2617  1.1119
13680TIP3   OH240982   3.839   0.495   2.112 -0.2725  0.9254 -0.2567
13680TIP3    H140983   3.771   0.448   2.064  1.3438 -1.1474 -0.6235
13680TIP3    H240984   3.876   0.556   2.048 -0.0014  0.1514 -0.8463
13681TIP3   OH240985   2.856   7.560   1.894  1.4616  0.4925  0.6345
13681TIP3    H140986   2.905   7.483   1.864  0.8955  0.3319  0.0875
13681TIP3    H240987   2.899   7.634   1.852 -0.2670  0.1413 -1.9006
13682TIP3   OH240988   4.987   7.190   0.549 -0.0564  0.1836 -0.3562
13682TIP3    H140989   5.040   7.141   0.486  0.6626 -0.7437  0.9371
13682TIP3    H240990   4.992   7.280   0.519  1.8719  0.0468 -0.5483
13683TIP3   OH240991   3.870   6.330   0.502  0.4164  0.1142  0.1042
13683TIP3    H140992   3.913   6.264   0.557 -1.9612 -0.8311  0.9268
13683TIP3    H240993   3.801   6.365   0.558 -0.2325  1.1784 -1.3501
13684TIP3   OH240994   3.618   6.807   0.103 -0.4053 -0.2050 -0.1081
13684TIP3    H140995   3.603   6.744   0.033 -1.6038 -0.0841  0.0139
13684TIP3    H240996   3.713   6.814   0.110 -0.2400 -2.8284  0.6552
13685TIP3   OH240997   6.026   4.621   6.706  0.3229  0.3864 -0.0980
13685TIP3    H140998   6.024   4.716   6.697 -0.3409  0.2611 -1.3419
13685TIP3    H240999   5.949   4.600   6.759  0.5409  0.5452  0.2867
13686TIP3   OH241000   4.007   0.442   1.208 -0.6868 -0.6611  0.5749
13686TIP3    H141001   3.995   0.349   1.228  1.9118 -0.9551  0.9483
13686TIP3    H241002   4.067   0.474   1.275 -1.8211  1.3974  0.6571
13687TIP3   OH241003   2.341   6.680   2.402  0.2268 -0.0099  0.0339
13687TIP3    H141004   2.398   6.604   2.418 -0.1176 -0.1328  0.6807
13687TIP3    H241005   2.393   6.755   2.432 -0.2550 -0.1997  1.3880
13688TIP3   OH241006   5.646   0.306   1.616 -0.1060 -0.1118 -0.1738
13688TIP3    H141007   5.680   0.218   1.600  0.6985  0.4798 -1.7761
13688TIP3    H241008   5.696   0.338   1.692  1.8786  0.1573 -1.5544
13689TIP3   OH241009   1.516   6.339   0.471  0.9100  0.7278 -0.3018
13689TIP3    H141010   1.514   6.433   0.455  0.7262  1.2154  2.2840
13689TIP3    H241011   1.458   6.327   0.546  0.1194 -1.5955 -1.2532
13690TIP3   OH241012   5.815   3.600   6.411 -0.2702  0.0320 -0.0817
13690TIP3    H141013   5.910   3.610   6.406 -0.3872  1.3910  0.1796
13690TIP3    H241014   5.781   3.681   6.373 -1.3155 -0.4172 -0.0953
13691TIP3   OH241015   0.829   7.042   0.138  0.1637  0.0220 -0.6975
13691TIP3    H141016   0.905   6.985   0.122 -0.0608  0.5140 -3.8539
13691TIP3    H241017   0.854   7.093   0.215  2.0426 -1.4906 -0.2398
13692TIP3   OH241018   5.198   1.729   6.955 -0.2311 -0.5106 -0.2008
13692TIP3    H141019   5.223   1.641   6.926  1.9535 -0.1022  0.3644
13692TIP3    H241020   5.270   1.785   6.926 -0.6855  0.7832  1.1288
13693TIP3   OH241021   4.482   0.525   0.250 -0.1195  0.0424 -0.1135
13693TIP3    H141022   4.469   0.461   0.180  0.2466  0.9858 -1.0590
13693TIP3    H241023   4.573   0.514   0.276 -0.4233 -0.7268  0.6462
13694TIP3   OH241024   2.090   7.926   2.546 -0.4384 -0.1781 -0.3973
13694TIP3    H141025   2.144   8.003   2.529 -2.6009  1.2172 -1.2039
13694TIP3    H241026   2.131   7.856   2.495  1.1177  0.6246 -0.2680
13695TIP3   OH241027   5.041   4.171   6.924  0.1271 -0.1793  0.4739
13695TIP3    H141028   5.075   4.086   6.896  0.3998 -0.0679  0.4584
13695TIP3    H241029   5.103   4.234   6.887 -0.1012  0.0280  0.4430
13696TIP3   OH241030   5.612   1.486   5.827  0.3737 -0.2234  0.2455
13696TIP3    H141031   5.533   1.450   5.866  0.5428 -1.1193 -0.2200
13696TIP3    H241032   5.641   1.553   5.888 -0.7710  0.1417  0.3954
13697TIP3   OH241033   5.298   0.004   1.754  0.0180 -1.2413  0.3476
13697TIP3    H141034   5.365  -0.018   1.819 -0.6554 -1.9004  0.8337
13697TIP3    H241035   5.325   0.089   1.719  0.3106 -0.8194  1.5852
13698TIP3   OH241036   3.104   7.751   0.341 -0.4453  0.0224 -0.4046
13698TIP3    H141037   3.011   7.737   0.324 -0.1696 -1.2141 -0.9853
13698TIP3    H241038   3.111   7.844   0.364 -1.8005  0.1442 -0.4501
13699TIP3   OH241039   3.923   0.340   1.857 -0.7721  0.0387  0.6006
13699TIP3    H141040   3.944   0.265   1.800 -0.2412 -0.1038  0.9912
13699TIP3    H241041   3.842   0.313   1.902 -0.7167 -0.1998  0.5580
13700TIP3   OH241042   1.303   6.765   1.748 -0.4262  0.2402  0.0282
13700TIP3    H141043   1.269   6.731   1.831 -0.9208  1.5606  0.3730
13700TIP3    H241044   1.244   6.836   1.725 -0.7869 -0.6620 -1.9107
13701TIP3   OH241045   1.068   5.375   1.120  0.4145  0.3087  0.0976
13701TIP3    H141046   1.029   5.390   1.034  1.7230 -0.7395 -0.6815
13701TIP3    H241047   1.154   5.417   1.116  1.3756 -1.6270  0.1434
13702TIP3   OH241048   0.094   7.217   0.461 -0.6482 -0.4968  0.5567
13702TIP3    H141049   0.072   7.221   0.554 -0.5118 -1.1992  0.6176
13702TIP3    H241050   0.151   7.292   0.447 -0.6730 -0.3851  1.0389
13703TIP3   OH241051   4.054   0.959   0.358  0.2297 -0.2139 -0.4938
13703TIP3    H141052   4.139   1.000   0.343 -0.1147 -0.3348 -2.9358
13703TIP3    H241053   4.064   0.914   0.442  2.3708  0.2700 -0.4592
13704TIP3   OH241054   7.435   3.575   6.683  0.4900 -0.6345 -0.3410
13704TIP3    H141055   7.345   3.542   6.688  1.0878 -2.0715  1.5072
13704TIP3    H241056   7.439   3.643   6.751  1.5043 -2.3802  1.3891
13705TIP3   OH241057   7.606   6.182   1.328 -0.1632  0.2249 -0.4135
13705TIP3    H141058   7.522   6.225   1.343 -0.1532  0.6853 -1.6043
13705TIP3    H241059   7.600   6.099   1.376 -0.1694  1.5422  1.9107
13706TIP3   OH241060   1.140   3.041   6.026 -0.1606  0.0413 -0.2900
13706TIP3    H141061   1.122   2.966   6.083 -0.2158 -1.6527 -2.4890
13706TIP3    H241062   1.053   3.077   6.007 -0.1761  0.3121  0.2669
13707TIP3   OH241063   2.577   0.940   0.718  0.2310  0.2589 -0.0613
13707TIP3    H141064   2.615   0.919   0.633 -0.1804 -1.4379  0.1523
13707TIP3    H241065   2.523   1.017   0.702 -2.1518 -1.7057 -2.0238
13708TIP3   OH241066   2.432   7.321   0.897  0.1665 -0.3913  0.0883
13708TIP3    H141067   2.460   7.326   0.806 -0.1762 -1.3831 -0.0811
13708TIP3    H241068   2.460   7.235   0.926 -0.2010 -0.2894  0.7583
13709TIP3   OH241069   6.325   1.901   6.524  0.2468  0.0854  0.4050
13709TIP3    H141070   6.230   1.904   6.532  0.2354  0.3524  0.2224
13709TIP3    H241071   6.358   1.934   6.608  0.1727  0.3164  0.3440
13710TIP3   OH241072   8.129   7.822   1.273 -0.0770 -0.3171  0.6574
13710TIP3    H141073   8.191   7.892   1.296  0.5428  0.0212 -1.9501
13710TIP3    H241074   8.183   7.754   1.233 -1.2818 -0.3194 -0.9917
13711TIP3   OH241075   4.017   1.734   1.434 -0.1719  0.0785  0.0659
13711TIP3    H141076   4.098   1.766   1.473 -0.3804 -0.5467  1.0213
13711TIP3    H241077   3.950   1.796   1.461 -0.1287  0.2196 -0.1553
13712TIP3   OH241078   2.185   6.638   0.401  0.1005 -0.4863  0.5786
13712TIP3    H141079   2.253   6.693   0.438  1.0937 -2.1205  1.2634
13712TIP3    H241080   2.214   6.621   0.311  0.6385 -1.2027  0.8782
13713TIP3   OH241081   2.493   6.548   0.434  0.0989 -0.7356 -0.3548
13713TIP3    H141082   2.462   6.630   0.396 -0.0411 -1.0021 -0.8237
13713TIP3    H241083   2.554   6.514   0.369  0.4250 -0.8270  0.0006
13714TIP3   OH241084   3.829   0.406   0.339  0.2211  0.3909 -0.5080
13714TIP3    H141085   3.847   0.368   0.253 -0.2046 -0.4288 -0.2452
13714TIP3    H241086   3.912   0.443   0.368  0.4952  0.1933 -1.0411
13715TIP3   OH241087   4.354   0.303   0.121  0.3555 -0.6828 -0.0087
13715TIP3    H141088   4.327   0.215   0.148 -0.3360 -0.5454 -0.2305
13715TIP3    H241089   4.272   0.352   0.113  0.6487 -0.3499 -1.0630
13716TIP3   OH241090   2.742   6.838   1.696  0.3210 -0.0993 -0.6438
13716TIP3    H141091   2.801   6.847   1.621 -0.3103 -0.6406 -1.2078
13716TIP3    H241092   2.680   6.770   1.670  1.1722 -1.5850  1.0512
13717TIP3   OH241093   6.475   2.677   6.595 -0.4155  0.2429  0.0205
13717TIP3    H141094   6.460   2.688   6.689 -2.1556 -0.3262 -0.1672
13717TIP3    H241095   6.462   2.764   6.558  1.7855  0.7971  0.4614
13718TIP3   OH241096   1.784   7.475   0.907  0.4149  0.1690 -0.0130
13718TIP3    H141097   1.794   7.400   0.848  0.1246  1.3177 -1.5553
13718TIP3    H241098   1.699   7.511   0.885  0.5391  0.9305  0.7425
13719TIP3   OH241099   3.255   7.247   0.770  0.3265 -0.4807 -0.2476
13719TIP3    H141100   3.184   7.244   0.834 -1.2037 -3.9806 -1.9529
13719TIP3    H241101   3.303   7.165   0.783  0.5885 -0.7897 -2.8564
13720TIP3   OH241102   8.321   7.186   0.398  0.8226  0.3088  0.2403
13720TIP3    H141103   8.414   7.165   0.404  0.1971 -2.2226  1.7896
13720TIP3    H241104   8.297   7.214   0.486 -0.7263 -2.9927  0.9350
13721TIP3   OH241105   6.616   1.732   6.291  0.1420  0.4462 -0.1707
13721TIP3    H141106   6.641   1.650   6.248 -1.7095  0.4248 -1.2508
13721TIP3    H241107   6.527   1.716   6.322  0.8262  1.0457  2.2259
13722TIP3   OH241108   7.528   7.060   0.095  0.1399  0.7711  0.1868
13722TIP3    H141109   7.436   7.087   0.093  0.5966  2.2924 -1.5718
13722TIP3    H241110   7.541   7.011   0.015  1.3380  2.2707 -0.5698
13723TIP3   OH241111   1.867   6.953   1.083 -0.3920 -0.1982 -0.3146
13723TIP3    H141112   1.784   6.923   1.046 -0.2101 -0.2021 -0.7264
13723TIP3    H241113   1.863   6.929   1.176 -0.4865 -0.9903 -0.5193
13724TIP3   OH241114   3.221   6.266   0.370  0.2703  0.3385 -0.4196
13724TIP3    H141115   3.243   6.179   0.404  2.1357  0.7355 -0.5254
13724TIP3    H241116   3.161   6.302   0.435 -1.7462 -1.5850 -1.1491
13725TIP3   OH241117   0.836   6.067   0.420 -0.0159  0.2451  0.0497
13725TIP3    H141118   0.813   6.057   0.512  0.0095 -0.6305 -0.0397
13725TIP3    H241119   0.922   6.025   0.412 -0.0860  0.1817 -0.4019
13726TIP3   OH241120   4.998   0.521   1.306  0.3243 -0.1253  0.0121
13726TIP3    H141121   5.066   0.572   1.262  0.9290  0.1948  1.3016
13726TIP3    H241122   4.937   0.588   1.339 -0.3467 -0.3843 -0.6980
13727TIP3   OH241123   4.602   1.972   0.450 -0.1409 -0.3045 -0.1657
13727TIP3    H141124   4.684   2.019   0.436  1.1213 -2.2021  0.6483
13727TIP3    H241125   4.557   1.976   0.365  2.2069 -1.8267 -1.5462
13728TIP3   OH241126   3.163   6.621   0.250  0.0204 -0.0084  0.2735
13728TIP3    H141127   3.234   6.636   0.312 -0.6159  0.2836  0.9326
13728TIP3    H241128   3.157   6.702   0.200  0.8559 -0.4202 -0.5009
13729TIP3   OH241129   3.314   7.575   0.209 -0.2572  0.4073 -0.9828
13729TIP3    H141130   3.247   7.519   0.171 -0.2947 -1.4586  1.6683
13729TIP3    H241131   3.268   7.657   0.229 -2.0017 -1.1351  1.5346
13730TIP3   OH241132   2.789   6.357   1.169  0.6641 -0.6533 -0.2151
13730TIP3    H141133   2.796   6.375   1.263 -0.0030 -0.3216 -0.2242
13730TIP3    H241134   2.808   6.441   1.127  0.6086 -0.7145 -0.3624
13731TIP3   OH241135   3.172   1.044   1.810  0.0999  0.6480 -0.3441
13731TIP3    H141136   3.220   0.963   1.824 -0.2385  0.9773  2.9791
13731TIP3    H241137   3.086   1.028   1.849 -0.8688  1.7445 -1.9358
13732TIP3   OH241138   3.430   0.371   2.376 -0.0121 -0.3071 -0.1863
13732TIP3    H141139   3.384   0.392   2.294  2.1184 -1.3132 -1.6694
13732TIP3    H241140   3.439   0.456   2.420 -1.5245  0.1852 -0.7961
13733TIP3   OH241141   1.831   5.982   0.704  0.4628 -0.2011  0.5296
13733TIP3    H141142   1.809   6.075   0.711 -2.5329 -0.9570  2.1595
13733TIP3    H241143   1.776   5.949   0.633  1.0877 -0.8722  0.3426
13734TIP3   OH241144   0.028   6.338   1.596 -0.0953 -0.0692  0.5173
13734TIP3    H141145   0.017   6.298   1.682  2.3835  0.5955  1.1953
13734TIP3    H241146   0.113   6.382   1.601 -0.6435  1.3387 -1.7390
13735TIP3   OH241147   0.834   7.629   1.769  0.1189  0.0442 -0.4601
13735TIP3    H141148   0.746   7.609   1.802  0.2401 -1.2735 -0.8955
13735TIP3    H241149   0.829   7.611   1.675  0.7534  0.3573 -0.5557
13736TIP3   OH241150   4.837   5.734   0.801  0.1065 -0.2540  0.2369
13736TIP3    H141151   4.857   5.822   0.833  0.4134 -0.6642  1.2122
13736TIP3    H241152   4.823   5.744   0.707  1.4721  0.6316  0.1158
13737TIP3   OH241153   3.452   0.757   1.438  0.2537 -0.3040  0.0184
13737TIP3    H141154   3.430   0.690   1.373 -0.5234  0.3203 -0.3642
13737TIP3    H241155   3.371   0.807   1.449  1.3107  1.6518 -0.9693
13738TIP3   OH241156   5.091   0.546   0.042 -0.2285 -0.0539 -0.7023
13738TIP3    H141157   5.159   0.485   0.014  0.3743 -0.5985  1.8148
13738TIP3    H241158   5.010   0.513   0.002  0.1517 -2.3068  0.3272
13739TIP3   OH241159   0.857   6.137   1.176  0.1047 -0.1417  0.1054
13739TIP3    H141160   0.868   6.066   1.113  1.1851 -0.8313  1.0545
13739TIP3    H241161   0.894   6.103   1.257  1.6504  1.8785  0.3041
13740TIP3   OH241162   2.051   6.639   1.246  0.0006  0.0188  0.6797
13740TIP3    H141163   1.976   6.589   1.214 -0.0224  0.0196  0.7333
13740TIP3    H241164   2.024   6.670   1.332 -0.1731  0.5393  0.4406
13741TIP3   OH241165   2.676   7.801   3.248 -0.0361  0.3331 -0.7246
13741TIP3    H141166   2.645   7.865   3.313 -0.1231 -0.1837 -0.2580
13741TIP3    H241167   2.692   7.853   3.169 -0.1838  0.9211 -0.3679
13742TIP3   OH241168   2.357   1.392   1.174  0.5620 -0.5520  0.2677
13742TIP3    H141169   2.410   1.471   1.164 -0.5553  0.0983 -0.5679
13742TIP3    H241170   2.392   1.350   1.253  3.0405 -0.6956 -0.8589
13743TIP3   OH241171   0.815   7.913   1.159  0.0260 -0.0939  0.4884
13743TIP3    H141172   0.898   7.896   1.203  0.1207 -1.1382 -0.0940
13743TIP3    H241173   0.772   7.978   1.215  1.3238  0.6254  0.6810
13744TIP3   OH241174   0.984   7.089   0.669  0.1545  0.0183 -0.0243
13744TIP3    H141175   0.966   7.155   0.736 -1.1339 -0.3286 -0.0185
13744TIP3    H241176   0.959   7.131   0.587 -0.6294 -0.4372 -0.0240
13745TIP3   OH241177   4.151   1.124   1.737  0.1351  0.0583  0.4846
13745TIP3    H141178   4.083   1.166   1.790 -0.5152 -0.8973  0.4211
13745TIP3    H241179   4.159   1.181   1.660 -0.3471  0.3662  0.6590
13746TIP3   OH241180   8.214   1.717   1.693 -0.1829 -0.6562  0.9722
13746TIP3    H141181   8.158   1.680   1.625  0.3537 -2.5540  1.5565
13746TIP3    H241182   8.159   1.715   1.772 -0.7185  1.3199  0.6925
13747TIP3   OH241183   1.192   6.481   0.408 -0.2457  0.1088  0.6634
13747TIP3    H141184   1.235   6.564   0.384 -0.0607  0.0904  0.9226
13747TIP3    H241185   1.099   6.501   0.405 -0.2126  0.2217  0.3494
13748TIP3   OH241186   2.437   7.417   0.263 -0.2687 -0.1648 -0.4186
13748TIP3    H141187   2.492   7.462   0.199 -1.3095  0.9401 -0.5479
13748TIP3    H241188   2.427   7.481   0.334 -0.3603 -0.8281  0.1701
13749TIP3   OH241189   7.476   2.306   5.144  0.3880  0.2011  1.0574
13749TIP3    H141190   7.398   2.359   5.162  0.9805  0.4850  2.9703
13749TIP3    H241191   7.526   2.310   5.226  0.8228 -2.6658  0.9814
13750TIP3   OH241192   1.179   4.458   2.838 -0.4609 -0.0808  0.1706
13750TIP3    H141193   1.165   4.365   2.857  1.0244 -0.4001 -0.2209
13750TIP3    H241194   1.141   4.471   2.751 -0.2818 -0.4260  0.0408
13751TIP3   OH241195   0.296   7.097   0.959 -0.1948 -0.2784  0.0186
13751TIP3    H141196   0.293   7.017   0.907  1.3118 -0.6186  0.4421
13751TIP3    H241197   0.376   7.090   1.010  0.7954  2.2157 -1.1009
13752TIP3   OH241198   7.333   3.119   1.894  0.2947  0.0797  0.1323
13752TIP3    H141199   7.279   3.138   1.818 -0.9557  0.8824  1.2229
13752TIP3    H241200   7.376   3.036   1.872 -0.5728 -0.0355 -1.1639
13753TIP3   OH241201   7.860   0.502   6.149 -0.1089  0.7145 -0.0655
13753TIP3    H141202   7.863   0.477   6.057 -0.6944  0.5218 -0.0369
13753TIP3    H241203   7.814   0.586   6.150 -3.3091 -0.9418  0.3543
13754TIP3   OH241204   6.061   1.974   6.555 -0.2405 -0.2409  0.4028
13754TIP3    H141205   6.071   1.942   6.645 -0.3380 -1.7134 -0.0953
13754TIP3    H241206   5.968   1.996   6.548 -0.0710  0.6390  0.9077
13755TIP3   OH241207   6.289   1.648   5.805  0.2618  0.1663 -0.0758
13755TIP3    H141208   6.363   1.707   5.789 -0.2382  1.0240  0.7457
13755TIP3    H241209   6.224   1.703   5.848 -0.6372 -0.7293 -0.2833
13756TIP3   OH241210   0.982   5.539   0.857 -0.0081 -0.3076  0.0448
13756TIP3    H141211   1.014   5.623   0.891 -0.3510  0.0136 -0.4266
13756TIP3    H241212   0.909   5.562   0.800  0.0196 -0.9152 -0.2376
13757TIP3   OH241213   0.904   5.877   1.033  0.0338 -0.1625 -0.6105
13757TIP3    H141214   0.922   5.855   1.125  1.1243 -0.7959 -0.9634
13757TIP3    H241215   0.812   5.855   1.022  0.1010 -0.8795  0.1218
13758TIP3   OH241216   6.773   3.489   5.542 -0.1165  0.0694  0.2211
13758TIP3    H141217   6.746   3.445   5.623  0.8391 -1.1769 -0.1228
13758TIP3    H241218   6.863   3.461   5.528 -0.7144 -0.8437 -2.0040
13759TIP3   OH241219   5.253   4.941   5.252 -0.3224  0.1023  0.4872
13759TIP3    H141220   5.234   5.033   5.273  0.1859  0.3909 -0.2997
13759TIP3    H241221   5.179   4.913   5.198 -0.7993 -0.1483  1.2586
13760TIP3   OH241222   0.136   5.414   0.492  0.3358  0.3001  0.3965
13760TIP3    H141223   0.193   5.380   0.561  2.6639  2.0642 -0.5850
13760TIP3    H241224   0.076   5.473   0.538  1.6159  1.1692  1.0146
13761TIP3   OH241225   7.154   5.471   5.415  0.6544  0.2228 -0.1497
13761TIP3    H141226   7.169   5.553   5.367 -0.2457  0.4242 -0.0955
13761TIP3    H241227   7.189   5.403   5.358  0.4087  0.5432 -0.6802
13762TIP3   OH241228   1.477   7.285   0.887  0.1847 -0.0311 -0.1120
13762TIP3    H141229   1.412   7.215   0.895  0.4258 -0.2508 -0.0937
13762TIP3    H241230   1.470   7.315   0.797  1.3445 -1.2980 -0.6392
13763TIP3   OH241231   3.536   0.809   1.891  0.2538 -0.2035  0.0814
13763TIP3    H141232   3.529   0.864   1.969 -0.1807 -1.1128  0.6897
13763TIP3    H241233   3.449   0.771   1.880  0.0556  0.6147 -1.3853
13764TIP3   OH241234   6.280   2.276   1.486  0.3544 -0.4032  0.3125
13764TIP3    H141235   6.231   2.319   1.557 -0.2721 -1.2082  0.3716
13764TIP3    H241236   6.363   2.325   1.481  0.9254 -1.1109  2.4307
13765TIP3   OH241237   3.083   6.930   0.609 -0.1256  0.1743 -0.1771
13765TIP3    H141238   3.036   6.865   0.556 -1.2567  1.6464 -1.0118
13765TIP3    H241239   3.133   6.877   0.672 -1.6167 -1.4900 -0.3288
13766TIP3   OH241240   8.212   1.689   6.567 -0.1014 -0.4921  0.3878
13766TIP3    H141241   8.257   1.733   6.640 -0.2257 -0.3522  0.3827
13766TIP3    H241242   8.222   1.749   6.493 -0.9752 -0.0801  0.5862
13767TIP3   OH241243   6.044   5.900   0.149  0.4923 -0.2363 -0.3256
13767TIP3    H141244   6.025   5.988   0.182 -0.5316 -1.3804  2.2462
13767TIP3    H241245   6.133   5.882   0.180  0.9587  0.1212 -1.4206
13768TIP3   OH241246   3.253   7.631   1.762 -0.0621  0.7623  0.4503
13768TIP3    H141247   3.332   7.683   1.776  0.0822  0.2423  1.7246
13768TIP3    H241248   3.201   7.645   1.841  0.0881 -1.1739  0.9376
13769TIP3   OH241249   7.180   4.965   6.246 -0.3804  0.0836 -0.0826
13769TIP3    H141250   7.208   4.942   6.157 -0.4525 -1.6434  0.3063
13769TIP3    H241251   7.255   5.012   6.283  0.5352 -1.1381 -0.3324
13770TIP3   OH241252   6.588   2.504   5.515  0.1692 -1.0251 -0.5820
13770TIP3    H141253   6.562   2.550   5.595  1.6393 -0.7631 -0.2361
13770TIP3    H241254   6.535   2.543   5.446 -2.3085 -2.3704  0.4939
13771TIP3   OH241255   6.956   0.620   2.394  0.2187 -0.7042  0.4242
13771TIP3    H141256   6.885   0.681   2.375  1.5305  0.6955 -0.0150
13771TIP3    H241257   6.976   0.634   2.486  1.6793  0.7801 -0.1001
13772TIP3   OH241258   6.444   4.346   6.446  0.1223  0.0819  0.4223
13772TIP3    H141259   6.358   4.370   6.410  0.3468  0.2217 -0.0214
13772TIP3    H241260   6.453   4.402   6.523 -0.9949 -1.2449  1.5551
13773TIP3   OH241261   0.682   4.115   4.800  0.6148  0.3611 -0.0424
13773TIP3    H141262   0.678   4.036   4.854 -0.5051  0.2923 -0.2187
13773TIP3    H241263   0.672   4.083   4.710 -0.6711  0.7699 -0.0553
13774TIP3   OH241264   4.173   0.835   3.150  0.6650 -0.2536  0.3270
13774TIP3    H141265   4.079   0.850   3.147  0.3447 -1.9668  1.2972
13774TIP3    H241266   4.200   0.869   3.236  0.9617  0.2782  0.0328
13775TIP3   OH241267   5.139   1.290   0.525  0.4327  0.1354 -0.0717
13775TIP3    H141268   5.198   1.266   0.454 -1.7000  2.2062 -2.6731
13775TIP3    H241269   5.147   1.385   0.532 -1.9710  0.3716  0.0213
13776TIP3   OH241270   0.299   1.746   5.441  0.0853 -0.1598 -0.1293
13776TIP3    H141271   0.292   1.803   5.364  0.4285 -1.8456 -1.4409
13776TIP3    H241272   0.282   1.658   5.407  0.1296 -0.9156  1.7575
13777TIP3   OH241273   3.171   0.925   0.066 -0.0569 -0.7321  0.0412
13777TIP3    H141274   3.085   0.957   0.038 -0.0711 -0.2871  0.5980
13777TIP3    H241275   3.213   1.001   0.106  0.3944 -1.0898  0.2442
13778TIP3   OH241276   1.857   6.475  -0.027 -0.0905  0.0792  0.2644
13778TIP3    H141277   1.889   6.385  -0.022 -0.4188 -0.0260  0.4698
13778TIP3    H241278   1.812   6.490   0.056 -2.2942 -0.4371 -0.7835
13779TIP3   OH241279   3.867   6.693   1.696 -0.0732  0.0223 -1.1039
13779TIP3    H141280   3.783   6.712   1.654 -1.0284 -0.3548  0.6288
13779TIP3    H241281   3.870   6.598   1.702  0.4372  0.0397 -1.0504
13780TIP3   OH241282   4.765   1.068  -0.005  0.6152  0.2135 -0.1084
13780TIP3    H141283   4.759   1.102   0.084  0.8063  0.9262 -0.3658
13780TIP3    H241284   4.678   1.084  -0.042  0.2962 -0.7817  0.1953
13781TIP3   OH241285   7.535   1.452   6.241 -0.2160 -0.1929  0.5211
13781TIP3    H141286   7.614   1.456   6.295 -0.0092  1.8382  0.0927
13781TIP3    H241287   7.566   1.435   6.152 -0.0354  3.0304 -0.0796
13782TIP3   OH241288   4.808   0.708   0.727  0.2174 -0.2179  0.0513
13782TIP3    H141289   4.779   0.680   0.640  1.0247 -1.3639  0.1407
13782TIP3    H241290   4.833   0.627   0.771  2.0562  0.5839  0.5371
13783TIP3   OH241291   1.022   5.250   4.275  0.3783 -0.2596 -0.8014
13783TIP3    H141292   1.092   5.250   4.340  0.3774 -1.4123 -0.7855
13783TIP3    H241293   1.057   5.201   4.201 -0.7562 -1.7121 -0.4028
13784TIP3   OH241294   0.410   5.757   6.887 -0.5644  0.4544  0.0864
13784TIP3    H141295   0.502   5.748   6.912 -0.5361  1.6440  0.4712
13784TIP3    H241296   0.377   5.667   6.884  0.1938  0.0993  1.5569
13785TIP3   OH241297   1.301   3.394   5.316 -0.6237 -0.6330  0.9526
13785TIP3    H141298   1.239   3.356   5.378  0.4565 -1.8836  1.2857
13785TIP3    H241299   1.384   3.395   5.363 -0.6019  2.0680  0.9163
13786TIP3   OH241300   7.239   3.463   6.366 -0.0665  0.0202 -0.4322
13786TIP3    H141301   7.210   3.513   6.442  0.3098  1.8607 -1.4525
13786TIP3    H241302   7.327   3.498   6.347  0.5954 -1.7005 -0.6041
13787TIP3   OH241303   6.084   6.674   0.562 -0.4178  0.1491  0.0770
13787TIP3    H141304   5.999   6.636   0.584 -0.8916  1.0862 -0.0925
13787TIP3    H241305   6.084   6.759   0.607  0.7532 -0.1845  0.7240
13788TIP3   OH241306   2.952   7.936   0.079  0.0569 -0.2329 -0.2174
13788TIP3    H141307   3.038   7.896   0.065  1.1124  0.7022  3.1467
13788TIP3    H241308   2.898   7.865   0.113 -0.2270 -0.5717 -1.3560
13789TIP3   OH241309   1.503   7.565   0.087 -0.5033 -0.0588  0.1458
13789TIP3    H141310   1.482   7.636   0.148 -0.4178 -0.8517  1.1126
13789TIP3    H241311   1.593   7.540   0.108 -0.7382 -0.8574  0.2154
13790TIP3   OH241312   2.839   7.734   0.230  0.5147 -0.2089 -0.3551
13790TIP3    H141313   2.758   7.781   0.245  0.7950  0.4613 -0.9303
13790TIP3    H241314   2.817   7.642   0.244  0.4815  0.2548  2.9979
13791TIP3   OH241315   8.109   4.112   5.718  0.2783  0.2393 -0.0282
13791TIP3    H141316   8.061   4.035   5.748  0.9452 -0.1889 -0.0628
13791TIP3    H241317   8.087   4.120   5.625  0.4611 -0.0945 -0.0988
13792TIP3   OH241318   1.796   5.858   0.351  0.4169 -0.0627 -0.1588
13792TIP3    H141319   1.886   5.828   0.338  0.1021 -1.0111 -0.2373
13792TIP3    H241320   1.796   5.948   0.321  1.5886  0.2794  0.8161
13793TIP3   OH241321   5.499   7.005   0.379 -0.3692 -0.7464  0.1726
13793TIP3    H141322   5.516   6.962   0.295 -0.5617 -2.0119  0.7653
13793TIP3    H241323   5.578   6.987   0.431 -1.2018 -1.9508  1.0442
13794TIP3   OH241324   6.752   0.107   0.096 -0.0870 -0.3858 -0.4394
13794TIP3    H141325   6.726   0.143   0.011  0.7779 -1.6518 -1.2564
13794TIP3    H241326   6.847   0.120   0.099 -0.0128 -1.0183  0.0029
13795TIP3   OH241327   7.678   4.293   5.949  0.0607  0.1894  0.4382
13795TIP3    H141328   7.773   4.286   5.955  0.3225  1.6712 -1.5703
13795TIP3    H241329   7.653   4.220   5.893  0.3526  1.5341 -1.4831
13796TIP3   OH241330   2.224   1.420   2.481  0.1327  0.5110 -0.1011
13796TIP3    H141331   2.136   1.391   2.457  1.0649 -2.4901 -0.1042
13796TIP3    H241332   2.275   1.412   2.400  1.0489 -0.4738  0.5593
13797TIP3   OH241333   6.525   0.543   0.313  0.0970 -0.0475  0.2426
13797TIP3    H141334   6.599   0.595   0.282 -1.2667  0.3608 -2.5338
13797TIP3    H241335   6.553   0.452   0.301 -0.4087  0.0962 -2.4251
13798TIP3   OH241336   6.973   3.951   0.757  0.4248  0.1822  0.0989
13798TIP3    H141337   6.973   3.874   0.699 -1.0607  0.0253  0.2992
13798TIP3    H241338   7.024   4.016   0.709  0.3967 -0.4181 -0.7658
13799TIP3   OH241339   8.283   0.912   1.386 -0.0996 -0.2187 -0.5048
13799TIP3    H141340   8.362   0.953   1.420  0.1187  0.4239 -1.7339
13799TIP3    H241341   8.288   0.925   1.291 -2.7123  1.7489 -0.4520
13800TIP3   OH241342   8.236   1.279   2.446  0.1876 -0.4511 -0.1574
13800TIP3    H141343   8.321   1.271   2.490 -0.5213 -0.5068  1.2391
13800TIP3    H241344   8.181   1.325   2.509 -1.4352 -2.3311 -0.1499
13801TIP3   OH241345   7.001   0.730   2.695 -0.3843 -0.1093 -0.4424
13801TIP3    H141346   7.021   0.662   2.759 -0.1436 -1.9558 -2.4148
13801TIP3    H241347   7.086   0.773   2.678 -0.1912 -0.5190 -0.5182
13802TIP3   OH241348   5.179   0.387   0.657 -0.1196 -0.2934 -0.1187
13802TIP3    H141349   5.218   0.300   0.656 -1.5829 -0.9761 -0.5519
13802TIP3    H241350   5.239   0.441   0.707  0.9562 -1.4902 -0.1080
13803TIP3   OH241351   4.309   3.284   3.425  0.5563 -0.1517  0.7175
13803TIP3    H141352   4.305   3.210   3.364 -0.3469 -0.9114  1.6778
13803TIP3    H241353   4.312   3.361   3.369 -0.2084 -0.8469 -0.2976
13804TIP3   OH241354   7.175   0.489   0.675 -0.1630  0.6279  0.6362
13804TIP3    H141355   7.103   0.444   0.630 -0.3761 -0.0307  1.6096
13804TIP3    H241356   7.170   0.457   0.765  1.5601  0.3504  0.6364
13805TIP3   OH241357   2.209   5.079   6.093  0.1880  0.0453  0.1838
13805TIP3    H141358   2.290   5.044   6.131 -0.3003 -1.1286  0.1754
13805TIP3    H241359   2.233   5.099   6.002  0.7037  0.5294  0.4265
13806TIP3   OH241360   4.097   7.985   1.867 -0.4644  0.2953 -0.0062
13806TIP3    H141361   4.043   8.047   1.915 -0.6789  1.2408 -1.4411
13806TIP3    H241362   4.085   7.902   1.914 -1.8808  0.8475  0.6385
13807TIP3   OH241363   3.327   7.858   1.556  0.0809 -0.1799  0.1143
13807TIP3    H141364   3.293   7.898   1.635 -0.0596  0.6484 -0.3656
13807TIP3    H241365   3.253   7.857   1.495  0.5907  0.5627 -0.5273
13808TIP3   OH241366   2.879   4.590   6.906  0.1376 -0.0139  0.2626
13808TIP3    H141367   2.925   4.524   6.959  0.2685 -1.1111 -1.1892
13808TIP3    H241368   2.789   4.558   6.901  0.1485  0.0301 -0.2584
13809TIP3   OH241369   6.910   0.955   1.108  0.1303 -0.0950  0.7142
13809TIP3    H141370   6.873   1.034   1.148  0.3985 -0.1588  1.0830
13809TIP3    H241371   6.985   0.986   1.057 -0.7532  0.1172 -0.5089
13810TIP3   OH241372   4.005   7.368   3.436 -0.6052  0.5050 -0.0050
13810TIP3    H141373   4.051   7.395   3.516 -3.9961  3.2416  1.1423
13810TIP3    H241374   4.051   7.413   3.365  2.5829 -2.1293  0.2808
13811TIP3   OH241375   2.799   7.907   0.527  0.3564  0.4718  0.2160
13811TIP3    H141376   2.769   7.917   0.617 -0.9740 -0.7390 -0.0615
13811TIP3    H241377   2.758   7.825   0.498  0.3369  1.1258 -1.6529
13812TIP3   OH241378   6.114   0.547   1.251  0.3525 -0.0825  0.2148
13812TIP3    H141379   6.098   0.533   1.344  0.3356  0.3010  0.2716
13812TIP3    H241380   6.085   0.637   1.236  1.9670  0.4384  0.1988
13813TIP3   OH241381   4.267   0.490   2.152  0.6552 -0.2382  0.5254
13813TIP3    H141382   4.208   0.430   2.197  0.1948  0.5252  0.9560
13813TIP3    H241383   4.237   0.489   2.061 -0.9090  1.1736  0.9961
13814TIP3   OH241384   2.777   7.346   2.265  0.6136  0.0072  0.5002
13814TIP3    H141385   2.804   7.254   2.261 -0.5542 -0.2861 -1.9422
13814TIP3    H241386   2.705   7.347   2.328  0.9021 -0.6899  0.8515
13815TIP3   OH241387   6.424   1.394   1.964  0.0510  0.6145  0.1475
13815TIP3    H141388   6.488   1.456   1.999  0.0625  1.0425 -0.6176
13815TIP3    H241389   6.360   1.449   1.919 -0.5884  0.1535  0.4675
13816TIP3   OH241390   6.570   2.327   0.837 -0.1496  0.2484  0.3051
13816TIP3    H141391   6.604   2.393   0.777 -0.2896 -0.8305 -0.9914
13816TIP3    H241392   6.557   2.250   0.782 -5.8063  0.9400  0.4630
13817TIP3   OH241393   7.342   7.978   1.732  0.2934 -0.3002 -0.2990
13817TIP3    H141394   7.301   7.990   1.646  0.3024  1.1557 -0.1230
13817TIP3    H241395   7.349   8.067   1.767  3.2532 -0.5664 -0.1360
13818TIP3   OH241396   7.610   2.111   0.778  0.6985 -0.0822  0.2424
13818TIP3    H141397   7.536   2.059   0.811 -0.6619  2.5770  1.5050
13818TIP3    H241398   7.686   2.078   0.827 -0.2356 -0.5190  1.4180
13819TIP3   OH241399   5.298   0.526   1.720  0.0198 -0.0170  0.4438
13819TIP3    H141400   5.226   0.508   1.780 -1.0079 -0.5999 -0.9490
13819TIP3    H241401   5.266   0.499   1.634  0.5251  3.0918 -0.8148
13820TIP3   OH241402   6.191   0.822   1.762  0.2742 -0.4271  0.1163
13820TIP3    H141403   6.102   0.815   1.728  1.0251  0.1050 -2.0120
13820TIP3    H241404   6.194   0.908   1.804 -0.4516 -0.8075  0.9712
13821TIP3   OH241405   3.391   5.905   6.114  0.1933  0.3588  0.1127
13821TIP3    H141406   3.404   5.963   6.039 -0.2978  0.7239  0.3098
13821TIP3    H241407   3.473   5.856   6.121  0.8304  1.4493  0.3177
13822TIP3   OH241408   6.194   7.105   1.376 -0.2366 -0.4274 -0.2065
13822TIP3    H141409   6.197   7.010   1.390  2.2250 -0.1809  1.1216
13822TIP3    H241410   6.198   7.143   1.463 -0.2659  0.9353 -0.7817
13823TIP3   OH241411   2.277   6.673   0.748 -0.2371 -0.0486  0.5030
13823TIP3    H141412   2.368   6.644   0.759 -0.1854 -1.2082 -2.4480
13823TIP3    H241413   2.277   6.721   0.666 -2.5745 -1.3764 -0.3231
13824TIP3   OH241414   6.901   0.699   0.646  0.0148  0.0701  0.5155
13824TIP3    H141415   6.965   0.741   0.704 -1.3131  1.5332  0.9630
13824TIP3    H241416   6.821   0.693   0.699 -1.4401  2.1201 -1.3495
13825TIP3   OH241417   6.755   1.783   1.320  0.3367 -0.6577  0.2885
13825TIP3    H141418   6.708   1.701   1.307  0.5372 -0.7678  0.2736
13825TIP3    H241419   6.718   1.818   1.401  0.9004 -1.2074  0.7844
13826TIP3   OH241420   0.377   0.369   1.885  0.3586 -1.1405  0.1843
13826TIP3    H141421   0.384   0.275   1.867 -1.0807 -1.2981  0.3182
13826TIP3    H241422   0.282   0.384   1.892  0.3801  0.8566 -2.6995
13827TIP3   OH241423   5.122   1.291   1.206 -0.0964 -0.0394  0.1235
13827TIP3    H141424   5.095   1.291   1.114 -0.3855 -1.1992  0.2016
13827TIP3    H241425   5.098   1.204   1.238  1.4768 -0.2213  0.8599
13828TIP3   OH241426   7.426   1.201   0.905  0.1851  0.4125  1.0448
13828TIP3    H141427   7.411   1.266   0.972  0.7606  0.1827  1.3986
13828TIP3    H241428   7.468   1.128   0.950  0.1827  0.0802  0.5245
13829TIP3   OH241429   2.161   3.973   6.944  0.5055 -0.0259 -0.4885
13829TIP3    H141430   2.076   3.940   6.974  0.5710  0.7681  0.5858
13829TIP3    H241431   2.140   4.029   6.869  0.0890  0.0466 -0.3195
13830TIP3   OH241432   0.789   3.031   0.280  0.2548 -0.2061 -0.3774
13830TIP3    H141433   0.855   3.055   0.345 -0.7174  0.5817  0.3467
13830TIP3    H241434   0.836   2.980   0.215  2.1341  2.4805 -1.2000
13831TIP3   OH241435   0.352   2.314   2.006  0.0044 -0.3173  0.3546
13831TIP3    H141436   0.350   2.388   1.944 -1.9013 -0.0495  0.7159
13831TIP3    H241437   0.334   2.354   2.091 -3.1157 -1.4462  0.2760
13832TIP3   OH241438   0.911   5.245   6.817  0.6580  0.2971 -0.3936
13832TIP3    H141439   0.835   5.188   6.831  0.8531  0.3421  0.8980
13832TIP3    H241440   0.873   5.327   6.783  0.0842  0.4581  0.6147
13833TIP3   OH241441   0.288   0.447   2.489  0.5399 -0.0783 -0.1168
13833TIP3    H141442   0.354   0.514   2.507 -0.7288  1.0711  0.3613
13833TIP3    H241443   0.268   0.409   2.575  0.9278 -0.7466 -0.3245
13834TIP3   OH241444   7.814   0.626   1.939 -0.1840 -0.2386  0.6025
13834TIP3    H141445   7.829   0.635   2.033 -1.2182  0.9486  0.6663
13834TIP3    H241446   7.809   0.716   1.907 -1.8898 -0.6142 -0.2481
13835TIP3   OH241447   0.912   1.001   0.903  0.0595 -0.1799  0.4522
13835TIP3    H141448   0.925   1.075   0.963  1.7413 -0.8658  0.9471
13835TIP3    H241449   0.907   0.924   0.959 -2.1588 -0.4135 -0.0353
13836TIP3   OH241450   5.481   4.196   5.769  0.4587  0.2081  0.3237
13836TIP3    H141451   5.424   4.146   5.710  1.7312  0.0057 -0.7606
13836TIP3    H241452   5.538   4.245   5.710  1.5125  0.2849  1.3950
13837TIP3   OH241453   1.924   0.140   2.062  0.2814  0.5222  0.1530
13837TIP3    H141454   1.828   0.143   2.061  0.3082  1.7421 -1.1257
13837TIP3    H241455   1.945   0.054   2.097 -1.3152 -0.2664 -0.7538
13838TIP3   OH241456   2.660   0.897   2.647  0.3327 -0.2737  0.1879
13838TIP3    H141457   2.571   0.879   2.676  1.0424 -0.8000  2.1465
13838TIP3    H241458   2.684   0.820   2.595 -0.2958 -0.2203 -0.1763
13839TIP3   OH241459   4.743   4.417   6.367  0.0912 -0.4427  0.5387
13839TIP3    H141460   4.793   4.399   6.446  0.7462 -0.1317  0.2017
13839TIP3    H241461   4.809   4.442   6.302 -0.4884 -0.1548  0.0535
13840TIP3   OH241462   7.394   7.536   0.703  0.5304  0.2156  0.3680
13840TIP3    H141463   7.376   7.515   0.611  1.8541  0.2250  0.0974
13840TIP3    H241464   7.379   7.454   0.750  1.2626 -0.1747 -0.0625
13841TIP3   OH241465   0.917   1.217   1.277  0.0855  0.5542 -0.1673
13841TIP3    H141466   0.958   1.291   1.320  1.4517  1.2905 -2.6527
13841TIP3    H241467   0.971   1.201   1.199 -1.3996 -1.7064 -0.7874
13842TIP3   OH241468   8.166   1.543   0.353 -0.5574 -0.5350  0.1042
13842TIP3    H141469   8.074   1.549   0.328  0.2653  0.9809 -2.7661
13842TIP3    H241470   8.188   1.629   0.388  0.3294 -0.1713 -1.3130
13843TIP3   OH241471   7.453   6.650   1.355 -0.0491 -0.0683  0.3633
13843TIP3    H141472   7.475   6.725   1.299 -0.2544  0.2546  0.7205
13843TIP3    H241473   7.436   6.579   1.293  2.1369 -0.3696  0.0535
13844TIP3   OH241474   6.114   6.193   0.803 -0.0513  0.0136  0.0716
13844TIP3    H141475   6.121   6.099   0.791 -0.4508 -0.1166  0.8439
13844TIP3    H241476   6.187   6.216   0.861  2.3927  0.7706 -3.1529
13845TIP3   OH241477   4.195   4.710   6.800  0.5455 -0.2341 -0.5822
13845TIP3    H141478   4.258   4.639   6.791  1.8629  0.9081 -0.6416
13845TIP3    H241479   4.187   4.746   6.712  1.9376  1.3784 -0.0742
13846TIP3   OH241480   1.916   0.493   3.986  0.1507  0.2046  0.2673
13846TIP3    H141481   1.946   0.577   4.022  3.1930 -0.3228 -0.8462
13846TIP3    H241482   1.922   0.432   4.060  0.4228  0.4227  0.4277
13847TIP3   OH241483   8.225   3.286   0.719 -0.3126 -0.1933  0.3382
13847TIP3    H141484   8.166   3.213   0.737 -0.3598 -0.7173 -1.7545
13847TIP3    H241485   8.168   3.358   0.695 -0.1528 -0.6158 -1.3971
13848TIP3   OH241486   3.313   4.634   5.981 -0.0528 -0.6240  0.2796
13848TIP3    H141487   3.311   4.539   5.994 -0.5857 -0.4989  1.1879
13848TIP3    H241488   3.319   4.646   5.887  1.5800 -1.5878  0.2418
13849TIP3   OH241489   1.249   3.009   1.327 -0.2621  0.3285 -0.3987
13849TIP3    H141490   1.332   3.023   1.373  0.2457 -0.8128 -0.9750
13849TIP3    H241491   1.220   3.098   1.304  0.8072  0.7358 -0.2226
13850TIP3   OH241492   2.878   5.628   6.172 -0.5318 -0.1081 -0.3379
13850TIP3    H141493   2.942   5.620   6.241 -0.5514 -2.0018 -0.5335
13850TIP3    H241494   2.926   5.666   6.098 -0.1781  0.5166  0.2059
13851TIP3   OH241495   7.100   7.438   2.054 -0.5142 -0.4000 -0.3691
13851TIP3    H141496   7.106   7.400   1.966  0.2404  1.1083 -0.9827
13851TIP3    H241497   7.190   7.437   2.086 -0.2179  2.2486 -1.0035
13852TIP3   OH241498   1.412   0.202   2.870 -0.1315 -0.9470  0.1150
13852TIP3    H141499   1.424   0.296   2.887  0.1823 -0.8464 -0.6101
13852TIP3    H241500   1.323   0.196   2.834 -0.2107 -0.9497  0.3105
13853TIP3   OH241501   0.787   1.245   2.909 -0.2073  0.1607 -0.3146
13853TIP3    H141502   0.795   1.167   2.964  0.8646  1.5297  1.5535
13853TIP3    H241503   0.862   1.241   2.851 -1.1302 -1.0958 -1.4573
13854TIP3   OH241504   6.998   6.964   0.462  0.4286 -0.1378 -0.4625
13854TIP3    H141505   7.075   6.915   0.433  0.3878  1.5228 -3.5458
13854TIP3    H241506   7.013   7.053   0.431 -1.5750  0.8038  1.1468
13855TIP3   OH241507   6.426   6.535   3.468 -0.3430 -0.2947  0.0181
13855TIP3    H141508   6.499   6.584   3.431 -0.3811 -0.3955 -0.1926
13855TIP3    H241509   6.376   6.506   3.391 -0.7484 -0.0018  0.1698
13856TIP3   OH241510   1.210   0.614   0.770  1.1956 -0.0212  0.3124
13856TIP3    H141511   1.203   0.709   0.759 -0.3514 -0.2445 -0.8899
13856TIP3    H241512   1.237   0.603   0.861 -2.0915  1.5267  1.5885
13857TIP3   OH241513   1.803   0.143   1.405 -0.0742  0.2352  0.3638
13857TIP3    H141514   1.757   0.071   1.363 -0.7309  1.3920 -0.9579
13857TIP3    H241515   1.813   0.116   1.496 -1.8054 -0.7992  0.2715
13858TIP3   OH241516   8.039   1.680   1.464 -0.0427  0.1873 -0.3001
13858TIP3    H141517   7.960   1.734   1.459 -0.9764 -0.9831  1.5226
13858TIP3    H241518   8.019   1.604   1.408 -0.1400 -0.0187  0.0133
13859TIP3   OH241519   6.793   7.925   2.851  0.0578 -0.4873  0.1071
13859TIP3    H141520   6.779   8.019   2.838 -1.2160 -0.6350  0.3673
13859TIP3    H241521   6.811   7.891   2.763  1.3536  0.1287  0.1276
13860TIP3   OH241522   6.502   6.692   2.536  0.1249 -0.3789  0.1795
13860TIP3    H141523   6.474   6.600   2.542  1.1119 -0.6106  1.3194
13860TIP3    H241524   6.466   6.733   2.615 -0.6473  0.3181 -0.5234
13861TIP3   OH241525   0.523   0.025   3.116  0.7237  0.1695  0.5353
13861TIP3    H141526   0.503  -0.012   3.201  0.0777  0.9535  0.7313
13861TIP3    H241527   0.439   0.030   3.071  0.9727  0.3282  0.0840
13862TIP3   OH241528   7.895   1.400   0.202  0.2191  0.2314 -0.0982
13862TIP3    H141529   7.890   1.487   0.241  1.4273  0.3200 -0.1145
13862TIP3    H241530   7.968   1.406   0.140  0.4182 -0.8337  0.0253
13863TIP3   OH241531   4.317   3.788   0.839 -0.8831  0.7266 -0.1998
13863TIP3    H141532   4.261   3.785   0.917 -1.4115 -0.8102 -0.6179
13863TIP3    H241533   4.382   3.855   0.860 -2.4985  2.1252  0.5423
13864TIP3   OH241534   0.486   3.933   1.933  0.7583  0.4465  0.2733
13864TIP3    H141535   0.465   3.876   1.859 -0.3150  1.9988 -0.6540
13864TIP3    H241536   0.424   3.907   2.001  1.0018 -0.2246  0.2477
13865TIP3   OH241537   0.688   1.356   2.409 -0.1138  0.0874  0.3478
13865TIP3    H141538   0.780   1.353   2.383  0.0325  0.1763  0.8392
13865TIP3    H241539   0.653   1.271   2.383  0.3976 -0.3918  1.2053
13866TIP3   OH241540   0.515   0.957   0.698  0.7408 -0.4737  0.1960
13866TIP3    H141541   0.485   0.998   0.617 -0.9145 -1.4268  0.3018
13866TIP3    H241542   0.457   0.882   0.710  0.5900 -0.0175  2.5490
13867TIP3   OH241543   2.439   4.087   6.930  0.0467  0.1592 -0.0445
13867TIP3    H141544   2.532   4.082   6.907 -0.2186  0.2349 -1.1766
13867TIP3    H241545   2.413   3.996   6.945 -0.3785 -0.2083 -2.6273
13868TIP3   OH241546   0.955   0.850   1.126  0.1652 -0.0595  0.2366
13868TIP3    H141547   0.979   0.896   1.206 -1.2214 -0.7945  1.0989
13868TIP3    H241548   0.965   0.757   1.148  0.4384 -0.2459 -0.6544
13869TIP3   OH241549   8.203   6.521   0.972 -0.4644  0.5773  0.1466
13869TIP3    H141550   8.164   6.498   1.056  1.2330 -0.5111  0.6589
13869TIP3    H241551   8.297   6.529   0.990  0.4210 -3.0667 -2.3098
13870TIP3   OH241552   0.714   0.078   2.244  0.3849  0.2631  0.2928
13870TIP3    H141553   0.632   0.127   2.244  0.1642 -0.1076  1.4633
13870TIP3    H241554   0.766   0.120   2.176 -1.0994 -0.0600 -1.0854
13871TIP3   OH241555   7.361   7.779   2.712  0.4288 -0.5625 -0.1512
13871TIP3    H141556   7.424   7.752   2.778 -0.0477 -1.8546 -0.2132
13871TIP3    H241557   7.291   7.822   2.762  1.0786  0.3551 -0.0293
13872TIP3   OH241558   1.476   0.054   1.574 -0.1130 -0.1639 -0.1715
13872TIP3    H141559   1.478   0.147   1.555  2.2811 -0.0412  0.5712
13872TIP3    H241560   1.413   0.018   1.512 -2.7114  2.2385  0.9732
13873TIP3   OH241561   5.440   7.388   2.005  0.5577 -0.1002  0.3399
13873TIP3    H141562   5.373   7.325   2.031  1.2921 -0.7463  0.7354
13873TIP3    H241563   5.448   7.378   1.910 -0.4504  0.5413  0.1851
13874TIP3   OH241564   6.394   6.880   3.198  0.8858  0.0588  0.1887
13874TIP3    H141565   6.329   6.816   3.228  0.2688  0.9764  0.8671
13874TIP3    H241566   6.466   6.872   3.260  0.9033 -0.1455  0.1398
13875TIP3   OH241567   7.604   1.039   0.249  0.3950  0.0128  0.3756
13875TIP3    H141568   7.667   1.085   0.304  0.7685 -0.7672  0.6187
13875TIP3    H241569   7.585   0.958   0.297 -1.8221  0.8451  0.9578
13876TIP3   OH241570   1.439   2.599   0.189  0.4782  0.2603 -0.1657
13876TIP3    H141571   1.474   2.672   0.138  0.8074  0.1403 -0.1152
13876TIP3    H241572   1.358   2.632   0.227  1.4026  1.1037  1.1052
13877TIP3   OH241573   8.189   7.766   0.416  0.6292  0.1389  0.3330
13877TIP3    H141574   8.179   7.672   0.427  2.9518 -0.1808 -0.1429
13877TIP3    H241575   8.278   7.778   0.383  1.0537  2.6344  2.2134
13878TIP3   OH241576   6.229   5.653   3.351 -0.3809  0.5051 -0.1437
13878TIP3    H141577   6.163   5.638   3.419  0.1937 -0.1355  0.2829
13878TIP3    H241578   6.255   5.566   3.323  0.0799  0.7575 -0.5079
13879TIP3   OH241579   0.748   1.748   1.992  0.1638 -0.0405  0.2751
13879TIP3    H141580   0.807   1.819   1.967  0.4571 -0.1362  0.6727
13879TIP3    H241581   0.805   1.686   2.038 -0.1240 -0.4495  0.0760
13880TIP3   OH241582   5.786   6.129   1.670  0.5657 -0.2127  0.2038
13880TIP3    H141583   5.827   6.043   1.670  1.1679  0.0737  0.7169
13880TIP3    H241584   5.772   6.150   1.762  0.6894  0.3620  0.0964
13881TIP3   OH241585   7.241   7.188   0.169  0.5511 -0.1722  0.2883
13881TIP3    H141586   7.269   7.172   0.260  2.1547 -0.7726 -0.2875
13881TIP3    H241587   7.161   7.238   0.177  1.1835  0.5924  2.0470
13882TIP3   OH241588   8.374   7.941   0.250  0.2531  0.1780 -0.1659
13882TIP3    H141589   8.353   8.002   0.180  1.2406 -0.2968 -0.8723
13882TIP3    H241590   8.399   7.860   0.206  0.5892 -0.2210  0.7361
13883TIP3   OH241591   1.547   1.279   2.240 -0.0282  0.0219  0.6906
13883TIP3    H141592   1.554   1.323   2.155 -0.6463  0.8192  1.0497
13883TIP3    H241593   1.609   1.206   2.234 -0.3126 -0.1309 -0.5720
13884TIP3   OH241594   4.226   7.797   1.136 -0.0661  0.1044  0.3221
13884TIP3    H141595   4.229   7.890   1.112 -0.0024  0.3444  1.2566
13884TIP3    H241596   4.155   7.762   1.083  1.1509  0.2693 -1.4652
13885TIP3   OH241597  -0.004   0.167   2.552 -0.3757 -0.0355  0.4916
13885TIP3    H141598   0.080   0.161   2.506  0.3430  0.0867  1.7712
13885TIP3    H241599  -0.033   0.257   2.539 -0.7022 -0.2887 -0.6090
13886TIP3   OH241600   8.466   1.768   1.026 -0.2091 -0.5448  0.1692
13886TIP3    H141601   8.424   1.723   1.100 -0.0340  0.0413  0.6285
13886TIP3    H241602   8.404   1.758   0.954 -0.9449 -0.0717  0.7267
13887TIP3   OH241603   7.010   7.020   1.841 -0.4355  0.7445 -0.4428
13887TIP3    H141604   6.983   7.061   1.923  0.8758  1.3869 -0.3109
13887TIP3    H241605   7.106   7.018   1.846 -0.4512 -3.6991  0.1861
13888TIP3   OH241606   3.102   5.640   6.362 -0.3975  0.1522 -0.0492
13888TIP3    H141607   3.106   5.734   6.342 -0.7729 -0.1281 -1.4877
13888TIP3    H241608   3.150   5.631   6.444  0.8052  1.4184 -0.5975
13889TIP3   OH241609   3.185   6.754   6.749 -0.4748  0.3027 -0.1688
13889TIP3    H141610   3.240   6.684   6.783 -0.4468  0.1489 -0.5230
13889TIP3    H241611   3.096   6.726   6.768 -0.6077 -1.1444 -2.7174
13890TIP3   OH241612   1.287   1.474   0.218 -0.1961 -0.1748 -0.2296
13890TIP3    H141613   1.291   1.443   0.127 -0.2255 -1.8652  0.3401
13890TIP3    H241614   1.212   1.533   0.219 -0.7810 -0.8853 -1.0868
13891TIP3   OH241615   4.439   2.174   0.910  0.5733  0.7310 -0.0073
13891TIP3    H141616   4.509   2.174   0.846  0.9209  1.8094  0.3606
13891TIP3    H241617   4.385   2.099   0.887  0.6099  1.2032 -1.6461
13892TIP3   OH241618   1.537   1.159   0.526 -0.0733 -0.1085 -0.1491
13892TIP3    H141619   1.552   1.254   0.519  0.4752 -0.0778  1.1812
13892TIP3    H241620   1.479   1.139   0.453 -0.7051  1.3735 -0.0848
13893TIP3   OH241621   2.926   1.477   3.102  0.1965 -0.0703 -0.0893
13893TIP3    H141622   2.833   1.472   3.125 -0.1087  1.3741 -0.9706
13893TIP3    H241623   2.929   1.458   3.008  0.8933 -0.8993  0.0891
13894TIP3   OH241624   3.439   4.838   6.740 -0.0474  0.9391  0.1259
13894TIP3    H141625   3.382   4.838   6.663  1.2158  1.2098 -0.8399
13894TIP3    H241626   3.381   4.861   6.813 -1.1998  1.0221 -0.7928
13895TIP3   OH241627   2.451   4.596   6.554 -0.5111 -0.3518  0.0734
13895TIP3    H141628   2.425   4.504   6.549  1.0997 -0.7888 -0.5206
13895TIP3    H241629   2.426   4.633   6.469 -1.4162 -0.1640  0.4174
13896TIP3   OH241630   8.318   1.761   0.390  0.2170 -0.2566  0.4736
13896TIP3    H141631   8.305   1.834   0.451  0.2024  0.9707 -0.9699
13896TIP3    H241632   8.407   1.774   0.356  0.2436 -0.9575  0.2759
13897TIP3   OH241633   8.113   1.559   0.677 -0.3989  0.2511 -0.0428
13897TIP3    H141634   8.163   1.639   0.696 -0.4265  0.3171 -0.2431
13897TIP3    H241635   8.180   1.490   0.672 -0.4341  0.1559  0.7201
13898TIP3   OH241636   2.103   6.183   6.184  0.2507 -0.5291  0.0324
13898TIP3    H141637   2.108   6.135   6.101 -1.5549 -2.1413  0.8096
13898TIP3    H241638   2.043   6.132   6.238  1.1541  0.6642  2.2505
13899TIP3   OH241639   4.579   4.245   5.899  0.0293  0.4274  0.1471
13899TIP3    H141640   4.484   4.242   5.896 -0.0362  1.4124  1.1658
13899TIP3    H241641   4.607   4.227   5.809 -1.0590 -1.6076  0.1846
13900TIP3   OH241642   0.178   1.252   0.256 -0.0250 -0.3635  0.5624
13900TIP3    H141643   0.246   1.307   0.293 -0.6914  0.9637 -0.1254
13900TIP3    H241644   0.223   1.172   0.229  1.4047  0.8052 -0.5733
13901TIP3   OH241645   1.625   2.619   0.694  0.3687  0.3618  0.7394
13901TIP3    H141646   1.627   2.667   0.776  0.1013 -0.8987  1.5016
13901TIP3    H241647   1.556   2.661   0.642 -1.1510 -0.3587  2.1328
13902TIP3   OH241648   3.709   5.318   6.225 -0.2321  0.5303  0.0927
13902TIP3    H141649   3.666   5.400   6.199 -1.0200  0.0219 -0.2483
13902TIP3    H241650   3.638   5.264   6.261  0.6595  0.7970  2.2914
13903TIP3   OH241651   0.618   1.611   0.044 -0.1574 -0.1179 -0.8026
13903TIP3    H141652   0.539   1.566   0.072 -0.3202 -1.7785 -3.7738
13903TIP3    H241653   0.688   1.568   0.093 -0.8410 -0.1994  0.1155
13904TIP3   OH241654   0.654   1.147   0.094  0.5456  0.0103  0.0000
13904TIP3    H141655   0.745   1.171   0.106  0.1742 -0.0284  3.3848
13904TIP3    H241656   0.657   1.054   0.070  1.3401 -0.4976  1.9818
13905TIP3   OH241657   6.014   1.604   0.820  0.4349  0.1317  0.4598
13905TIP3    H141658   6.087   1.593   0.758 -0.2638  2.2360 -0.7841
13905TIP3    H241659   5.941   1.558   0.778  0.8385 -1.4097  1.3958
13906TIP3   OH241660   1.880   0.504   0.706  0.1140  0.7480 -0.4813
13906TIP3    H141661   1.918   0.560   0.773 -2.0955  0.1469  1.3607
13906TIP3    H241662   1.818   0.560   0.659 -0.2423  0.5074 -0.3031
13907TIP3   OH241663   6.664   7.833   0.169 -0.1644 -0.1550 -0.4391
13907TIP3    H141664   6.632   7.904   0.112 -1.0559  0.0393  0.2931
13907TIP3    H241665   6.708   7.773   0.109 -1.7031 -0.3061 -1.4454
13908TIP3   OH241666   7.936   2.488   0.156  0.3069 -0.1941  0.3495
13908TIP3    H141667   7.937   2.561   0.095  0.9176 -0.9658 -0.5765
13908TIP3    H241668   8.006   2.430   0.125 -0.8341 -1.6554  0.4803
13909TIP3   OH241669   7.307   5.889   1.005 -0.0330 -0.6337  0.3343
13909TIP3    H141670   7.234   5.912   0.948  1.7114  0.8876 -1.3309
13909TIP3    H241671   7.288   5.932   1.088 -0.4934  0.6246 -0.4242
13910TIP3   OH241672   6.367   7.806   0.573  0.5755 -0.6137 -0.4195
13910TIP3    H141673   6.323   7.778   0.493 -0.9766 -0.5749  0.3979
13910TIP3    H241674   6.456   7.771   0.565  0.6687  0.0120 -2.4794
13911TIP3   OH241675   1.542   2.056   1.670 -0.5538  0.0630 -0.2559
13911TIP3    H141676   1.527   2.114   1.745  0.2669  0.4702 -0.3910
13911TIP3    H241677   1.627   2.085   1.635  0.1402 -1.5891  0.0119
13912TIP3   OH241678   2.103   0.593   2.396  0.0641  0.0504  0.9395
13912TIP3    H141679   2.067   0.680   2.411  0.2987  0.2994  0.0677
13912TIP3    H241680   2.159   0.603   2.319  0.5812 -0.7313  1.2136
13913TIP3   OH241681   3.771   4.301   6.274  0.2830  0.3296  0.6811
13913TIP3    H141682   3.722   4.324   6.195 -2.1438 -2.8343  1.1824
13913TIP3    H241683   3.712   4.321   6.346  1.8334  1.5794  1.6424
13914TIP3   OH241684   8.200   1.231   0.888  0.2899 -0.1854  0.5845
13914TIP3    H141685   8.203   1.289   0.964  0.6386  0.1391  0.3224
13914TIP3    H241686   8.240   1.149   0.918 -0.4214 -0.3706  1.0253
13915TIP3   OH241687   6.409   2.647   1.263 -0.3095 -0.3449 -0.2770
13915TIP3    H141688   6.493   2.666   1.222 -0.7944 -0.7642 -1.4708
13915TIP3    H241689   6.427   2.570   1.318  0.1157 -0.3753 -0.4528
13916TIP3   OH241690   2.932   4.143   5.378 -0.4693 -0.5189 -0.8952
13916TIP3    H141691   2.882   4.190   5.312  1.4243  2.0145 -0.6239
13916TIP3    H241692   3.018   4.129   5.338  0.5195  0.5684  0.7737
13917TIP3   OH241693   7.003   0.278   3.890  0.7160  0.1834  0.8251
13917TIP3    H141694   6.966   0.355   3.933  0.5011 -0.4229  1.7298
13917TIP3    H241695   6.978   0.205   3.945  0.0530 -0.6600 -0.5623
13918TIP3   OH241696   2.938   3.101   6.942  0.0177 -0.0607  0.3967
13918TIP3    H141697   2.936   3.184   6.894 -0.8963 -0.3373 -0.0651
13918TIP3    H241698   3.023   3.062   6.921 -1.0195 -0.9405 -2.3443
13919TIP3   OH241699   2.382   0.441   0.107  0.8038 -0.1074  0.5275
13919TIP3    H141700   2.389   0.399   0.021  0.1062  0.5723  0.1342
13919TIP3    H241701   2.338   0.524   0.089 -1.7460 -1.1004  1.8887
13920TIP3   OH241702   7.123   7.004   1.347 -0.6472  0.0029  0.1002
13920TIP3    H141703   7.094   6.914   1.367 -0.7990 -0.1228 -0.6827
13920TIP3    H241704   7.096   7.018   1.257  1.8627 -0.1694 -0.7230
13921TIP3   OH241705   0.106   0.535   0.517  0.4312 -0.0696  0.2090
13921TIP3    H141706   0.032   0.499   0.469  0.1698 -1.5639  1.7058
13921TIP3    H241707   0.179   0.475   0.499  0.1485 -1.0705  2.2120
13922TIP3   OH241708   1.155   1.056   1.393  0.1896  0.0618 -0.3522
13922TIP3    H141709   1.069   1.089   1.419 -0.0305  1.4073 -2.6738
13922TIP3    H241710   1.216   1.103   1.449 -0.5353 -0.4070  0.8518
13923TIP3   OH241711   3.989   5.282   5.865 -0.1599 -0.1038 -0.4404
13923TIP3    H141712   3.909   5.253   5.909  0.2874 -1.7739 -0.6939
13923TIP3    H241713   3.967   5.367   5.827 -1.4556 -0.0260  0.4659
13924TIP3   OH241714   4.831   6.862   2.246  0.5055 -0.4461 -0.1542
13924TIP3    H141715   4.920   6.869   2.282  0.5195  0.1804 -0.3087
13924TIP3    H241716   4.822   6.938   2.190  0.6662 -1.6705 -1.8880
13925TIP3   OH241717   2.878   5.074   6.805  0.2333  0.0227  0.0808
13925TIP3    H141718   2.969   5.106   6.807  0.1795  0.2707 -1.0323
13925TIP3    H241719   2.825   5.153   6.796  0.1366 -0.3473 -3.4391
13926TIP3   OH241720  -0.002   0.320   1.283  0.6990  0.4294 -0.2204
13926TIP3    H141721  -0.030   0.239   1.241  1.1518  0.9944 -1.6381
13926TIP3    H241722   0.086   0.336   1.248  0.3493  1.8686 -0.4626
13927TIP3   OH241723   6.401   0.413   0.845 -0.0262  0.3889  0.0580
13927TIP3    H141724   6.388   0.398   0.938 -1.4158  0.4794 -0.1041
13927TIP3    H241725   6.489   0.381   0.827 -1.0734 -3.0342  0.6749
13928TIP3   OH241726   6.797   0.168   2.700 -0.1732 -0.2850 -0.1238
13928TIP3    H141727   6.728   0.117   2.658 -1.1154  0.3147  0.6832
13928TIP3    H241728   6.860   0.185   2.629 -0.7292 -1.0275 -0.8102
13929TIP3   OH241729   0.807   0.320   0.241  0.6778  0.3400  0.1059
13929TIP3    H141730   0.717   0.289   0.249  0.9419 -0.7675 -1.1271
13929TIP3    H241731   0.860   0.251   0.281  1.1474 -0.0747 -1.2138
13930TIP3   OH241732   2.701   3.045   1.465  0.5781 -0.0463  0.0047
13930TIP3    H141733   2.702   2.958   1.503  1.5095 -0.7925 -1.6371
13930TIP3    H241734   2.617   3.051   1.421  0.0731  0.2940  1.0098
13931TIP3   OH241735   7.499   0.989   1.771 -0.0735  0.2319 -0.4150
13931TIP3    H141736   7.417   0.958   1.732 -0.1036 -1.6722  1.0899
13931TIP3    H241737   7.478   1.076   1.805 -0.8303  0.7115 -2.0594
13932TIP3   OH241738   5.776   4.653   6.186  0.1977  0.4514  0.1113
13932TIP3    H141739   5.791   4.560   6.168  1.7165  0.7890 -0.4644
13932TIP3    H241740   5.693   4.673   6.144  1.4762  0.1411 -2.6830
13933TIP3   OH241741   8.170   7.210   2.030  0.2219 -0.0838 -0.2530
13933TIP3    H141742   8.125   7.208   1.945 -1.8526  1.6334  0.7514
13933TIP3    H241743   8.235   7.279   2.021  0.4846 -0.3890 -0.6858
13934TIP3   OH241744   2.029   1.812   2.016 -0.2941 -0.7989  0.0858
13934TIP3    H141745   1.961   1.745   2.008 -0.3871 -0.6735 -0.1645
13934TIP3    H241746   2.105   1.765   2.050 -0.7788 -0.7760  1.2596
13935TIP3   OH241747   0.684   0.056   0.554 -0.0526 -0.9236 -0.2253
13935TIP3    H141748   0.665  -0.038   0.551  0.1176 -0.9941  0.7189
13935TIP3    H241749   0.727   0.069   0.638  0.2231 -0.0475 -0.4933
13936TIP3   OH241750   3.484   4.339   5.265 -0.1099  0.3322  0.1836
13936TIP3    H141751   3.518   4.337   5.355 -1.5958  1.4670  0.7807
13936TIP3    H241752   3.441   4.424   5.257 -0.0140  0.2242 -1.6012
13937TIP3   OH241753   3.297   4.793   5.726 -0.0687 -0.4828  0.0939
13937TIP3    H141754   3.373   4.736   5.710 -0.1438 -0.1460 -1.5892
13937TIP3    H241755   3.263   4.813   5.639 -0.8860  1.0067  0.7252
13938TIP3   OH241756   1.966   2.162   0.632  0.2632 -0.2686  0.5174
13938TIP3    H141757   1.929   2.246   0.608 -1.2924 -1.4172 -1.2146
13938TIP3    H241758   1.909   2.129   0.701 -0.8165 -1.1315 -0.7543
13939TIP3   OH241759   1.547   1.924   1.268  0.2097  0.0384  0.4971
13939TIP3    H141760   1.452   1.925   1.257  0.2987 -2.0835 -0.5278
13939TIP3    H241761   1.578   1.998   1.217 -0.6938 -0.6948 -1.1346
13940TIP3   OH241762   0.561   2.917   2.093 -0.2975 -0.2482  0.2521
13940TIP3    H141763   0.497   2.986   2.072  0.0804  0.5596  1.6571
13940TIP3    H241764   0.538   2.844   2.036 -2.4991  0.0298  0.7569
13941TIP3   OH241765   0.064   1.529   0.534  0.1354  0.4929 -0.3303
13941TIP3    H141766   0.018   1.610   0.513  0.3719  0.5462 -0.6496
13941TIP3    H241767   0.031   1.503   0.620  0.9770  1.5930  0.3354
13942TIP3   OH241768   1.064   0.110   1.709 -0.8053 -0.0476  0.3085
13942TIP3    H141769   0.997   0.156   1.658 -0.0744  0.5359 -0.1246
13942TIP3    H241770   1.036   0.120   1.800 -1.6649 -0.3832  0.0914
13943TIP3   OH241771   1.228   2.026   0.029 -0.3815 -0.4484 -0.8839
13943TIP3    H141772   1.153   1.967   0.032  0.1399 -1.2143 -2.2682
13943TIP3    H241773   1.202   2.101   0.082 -1.4491 -1.4593  0.0468
13944TIP3   OH241774   7.270   7.248   1.164 -0.1961  0.2495  0.0013
13944TIP3    H141775   7.202   7.191   1.201  1.6787 -2.4560 -0.5833
13944TIP3    H241776   7.243   7.262   1.073  0.4434 -1.5954 -0.5058
13945TIP3   OH241777   0.474   0.840   1.100 -0.4189  0.2317 -0.0245
13945TIP3    H141778   0.394   0.845   1.151 -1.1606  0.6251 -1.1955
13945TIP3    H241779   0.488   0.929   1.068 -0.1890 -0.0853 -0.8315
13946TIP3   OH241780   2.725   0.710   0.077  0.7281  0.3622 -0.1625
13946TIP3    H141781   2.652   0.723   0.137  0.2245 -0.6302 -0.5506
13946TIP3    H241782   2.758   0.622   0.099  0.4630 -0.0524 -1.4105
13947TIP3   OH241783   0.909   1.538   4.301 -0.3084  0.1766 -0.0033
13947TIP3    H141784   0.818   1.563   4.285 -1.3347 -2.8443  0.8200
13947TIP3    H241785   0.925   1.465   4.242  0.8658 -0.7239  1.3910
13948TIP3   OH241786   4.907   4.787   6.325  0.1142  0.0570 -0.5866
13948TIP3    H141787   4.851   4.781   6.402 -1.7790  1.7423 -1.8055
13948TIP3    H241788   4.907   4.698   6.289  0.7579 -0.6661  1.1600
13949TIP3   OH241789   6.759   7.202   0.800  0.1351  0.1725 -0.2138
13949TIP3    H141790   6.711   7.153   0.733 -0.9914  0.9249  0.0351
13949TIP3    H241791   6.692   7.238   0.857  1.0037  1.0271  0.2968
13950TIP3   OH241792   2.383   3.962   1.463  0.0312 -0.4711  0.0523
13950TIP3    H141793   2.311   3.930   1.518  0.0367 -2.8257 -1.2827
13950TIP3    H241794   2.462   3.934   1.510  0.0363 -2.3187 -1.0275
13951TIP3   OH241795   7.903   2.714   1.652  0.3488 -0.1882  0.4412
13951TIP3    H141796   7.820   2.714   1.605  0.9992 -2.4144 -0.7875
13951TIP3    H241797   7.963   2.762   1.595  0.6215 -1.1299 -0.0846
13952TIP3   OH241798   1.345   2.808   0.769  0.1355 -0.0725  0.0715
13952TIP3    H141799   1.394   2.844   0.842 -0.8683 -0.3973  0.9236
13952TIP3    H241800   1.301   2.884   0.730  0.3068  0.0388  0.0963
13953TIP3   OH241801   8.208   1.297   1.149 -0.2395  0.2779  0.2483
13953TIP3    H141802   8.220   1.228   1.213 -0.3291  0.2929  0.2811
13953TIP3    H241803   8.119   1.328   1.163 -0.1261  0.5486  0.3818
13954TIP3   OH241804   1.174   1.978   0.913 -0.1562  0.1245  0.3327
13954TIP3    H141805   1.119   1.972   0.834  0.0823 -1.2889  0.2611
13954TIP3    H241806   1.257   2.013   0.882 -1.0754  2.5574  0.4851
13955TIP3   OH241807   1.219   0.143   3.386  0.1087 -0.2308  0.6384
13955TIP3    H141808   1.244   0.141   3.478 -0.2406 -0.9387  0.7188
13955TIP3    H241809   1.303   0.139   3.339  0.2523 -0.5492  0.9202
13956TIP3   OH241810   3.709   5.189   5.653 -0.4144  0.3431 -0.0867
13956TIP3    H141811   3.728   5.280   5.629 -0.5640  0.7609  1.2912
13956TIP3    H241812   3.614   5.184   5.656 -0.4496 -0.3226 -1.7986
13957TIP3   OH241813   1.800   0.295   0.875  0.3327  0.1583  0.2098
13957TIP3    H141814   1.840   0.303   0.962  0.1325  0.4481  0.2768
13957TIP3    H241815   1.825   0.376   0.830  0.3337  0.0637  0.0425
13958TIP3   OH241816   8.126   2.032   0.015  0.4727 -0.2182 -0.2047
13958TIP3    H141817   8.197   2.004   0.073  0.2091  1.0249  0.7471
13958TIP3    H241818   8.064   1.959   0.017  2.3224 -1.8885 -2.1067
13959TIP3   OH241819   6.946   7.381   0.742  0.5132  0.4409  0.2402
13959TIP3    H141820   6.900   7.459   0.711  1.2680  0.7776 -0.0639
13959TIP3    H241821   6.879   7.313   0.747 -0.2824  1.2734  1.1278
13960TIP3   OH241822   1.072   0.889   2.699 -0.0132 -0.0961 -0.1969
13960TIP3    H141823   1.146   0.846   2.742 -0.9957 -1.7959 -0.1442
13960TIP3    H241824   1.069   0.849   2.612 -1.0133 -0.2324 -0.1110
13961TIP3   OH241825   1.701   2.130   2.476  0.0434  0.2098  0.3738
13961TIP3    H141826   1.776   2.180   2.442  1.1053 -0.8099  1.1504
13961TIP3    H241827   1.688   2.060   2.412 -0.8969  0.9693 -0.2745
13962TIP3   OH241828   0.566   0.483   1.395 -0.0525  0.0866  0.5001
13962TIP3    H141829   0.510   0.507   1.469 -0.7822 -2.3318  0.7557
13962TIP3    H241830   0.567   0.562   1.340 -2.9937  0.5018  0.9359
13963TIP3   OH241831   6.181   4.281   6.684 -0.2165 -1.1918 -0.4783
13963TIP3    H141832   6.265   4.296   6.728 -0.8871  1.2610  0.0254
13963TIP3    H241833   6.117   4.276   6.755 -0.8580 -0.5196 -1.0065
13964TIP3   OH241834   6.968   0.208   1.212  0.4266  0.2001  0.1360
13964TIP3    H141835   6.959   0.299   1.182  0.7449 -0.3727 -1.7757
13964TIP3    H241836   7.051   0.179   1.174  1.7763 -0.0110  3.1362
13965TIP3   OH241837   5.704   7.403   2.059  0.6237  0.0413 -0.4099
13965TIP3    H141838   5.759   7.328   2.036 -2.1403 -2.8346  1.7847
13965TIP3    H241839   5.617   7.379   2.026 -0.3871  2.0950  0.6968
13966TIP3   OH241840   0.850   2.582   0.880  0.1067  0.1440 -0.3494
13966TIP3    H141841   0.937   2.590   0.919 -0.2775 -0.6954  0.7208
13966TIP3    H241842   0.846   2.491   0.849  0.2791  0.7075 -2.0484
13967TIP3   OH241843   0.792   0.986   0.656  0.4046  0.0832 -0.5245
13967TIP3    H141844   0.840   0.991   0.739  1.1245 -1.5596 -0.8211
13967TIP3    H241845   0.700   0.985   0.682  0.6491 -2.2797  0.3975
13968TIP3   OH241846   0.080   4.060   0.590 -0.0497 -0.5640 -0.0102
13968TIP3    H141847   0.156   4.001   0.586 -0.4137 -1.0139 -0.3945
13968TIP3    H241848   0.107   4.129   0.650  2.5185  1.9789 -3.8228
13969TIP3   OH241849   1.333   2.002   1.477 -0.3103 -0.1184 -0.3447
13969TIP3    H141850   1.354   2.045   1.395 -0.1678 -1.0782 -0.8197
13969TIP3    H241851   1.399   2.034   1.539 -0.6786  0.9356 -0.4864
13970TIP3   OH241852   0.830   2.204   0.486  0.5765 -0.2798  0.2391
13970TIP3    H141853   0.898   2.139   0.501  1.9300  1.3652  1.4580
13970TIP3    H241854   0.871   2.288   0.510 -1.7655  0.7693  0.7402
13971TIP3   OH241855   2.486   2.855   1.777 -0.4167 -0.0388  0.0037
13971TIP3    H141856   2.478   2.846   1.872  0.3275  0.3494  0.1101
13971TIP3    H241857   2.413   2.912   1.751 -0.5784 -0.0899  0.3489
13972TIP3   OH241858   5.771   5.393   6.353  0.0637  0.3718  0.1498
13972TIP3    H141859   5.716   5.359   6.424 -0.0168 -1.3605 -0.7251
13972TIP3    H241860   5.825   5.460   6.396 -2.7158  2.1700  1.0081
13973TIP3   OH241861   0.955   5.351   0.410  0.3444  0.4078  0.5805
13973TIP3    H141862   1.018   5.390   0.350  0.2263  1.1228  0.9131
13973TIP3    H241863   1.009   5.313   0.480  0.5093 -0.9012 -0.2404
13974TIP3   OH241864   3.453   4.080   1.883 -0.2633  0.4925  0.4356
13974TIP3    H141865   3.396   4.042   1.951  1.1284 -0.5988  1.0087
13974TIP3    H241866   3.475   4.167   1.916 -0.4932  0.3921  0.8593
13975TIP3   OH241867   2.154   1.711   0.212 -0.4934  0.0545  0.2428
13975TIP3    H141868   2.099   1.632   0.209  0.5242 -0.7236  1.4957
13975TIP3    H241869   2.094   1.783   0.195 -1.4498 -0.9830 -0.9135
13976TIP3   OH241870   3.016   5.495   4.894 -0.8085  0.5202  0.1451
13976TIP3    H141871   2.981   5.583   4.891  0.5735  1.1151  1.0858
13976TIP3    H241872   2.941   5.440   4.918 -1.4161  1.5789  0.6995
13977TIP3   OH241873   4.231   6.842   6.291 -0.6131 -0.1974  0.0016
13977TIP3    H141874   4.314   6.798   6.277 -1.7326 -2.4201  0.0758
13977TIP3    H241875   4.217   6.840   6.385  0.7014  2.9984  0.3159
13978TIP3   OH241876   5.471   6.394   6.229  0.0471 -0.1920 -0.4109
13978TIP3    H141877   5.443   6.435   6.147 -1.8126 -0.8447 -0.1125
13978TIP3    H241878   5.544   6.449   6.259 -0.3223  1.0162 -1.6583
13979TIP3   OH241879   2.247   0.935   2.050 -0.2717 -0.0688  0.2959
13979TIP3    H141880   2.205   0.921   1.965  0.3606 -2.5079  0.3489
13979TIP3    H241881   2.244   1.030   2.063 -2.7193  0.1118 -1.2345
13980TIP3   OH241882   4.276   6.469   6.089  0.4614 -0.3323 -0.0318
13980TIP3    H141883   4.219   6.477   6.013  0.1189 -0.8352  0.1667
13980TIP3    H241884   4.259   6.381   6.123  2.0211 -0.8448 -0.5072
13981TIP3   OH241885   7.304   7.077   0.886 -0.5043  0.2743 -0.8077
13981TIP3    H141886   7.331   7.030   0.807  1.3422 -2.4469  1.3353
13981TIP3    H241887   7.275   7.009   0.946 -0.2329  2.1109  1.5013
13982TIP3   OH241888   1.200   2.597   2.102 -0.2844 -0.2590 -0.0454
13982TIP3    H141889   1.168   2.525   2.048 -1.4165  0.5774 -0.5230
13982TIP3    H241890   1.122   2.629   2.148  0.2744  0.4187  0.4473
13983TIP3   OH241891   0.278   3.380   0.886  0.4655  0.3840 -0.6053
13983TIP3    H141892   0.221   3.326   0.831  0.4879  0.3604 -0.6048
13983TIP3    H241893   0.242   3.370   0.974  0.7330  0.0299 -0.5376
13984TIP3   OH241894   7.753   7.623   0.512 -0.3366 -0.5479 -0.3425
13984TIP3    H141895   7.785   7.544   0.557 -0.7382 -0.3391  0.3135
13984TIP3    H241896   7.826   7.684   0.516 -0.1466 -0.7581 -0.5447
13985TIP3   OH241897   2.258   1.596   1.535 -0.4143 -0.3107  0.4161
13985TIP3    H141898   2.279   1.503   1.527 -0.5940 -0.2901 -0.3134
13985TIP3    H241899   2.175   1.606   1.489 -2.4642 -0.5120  3.8490
13986TIP3   OH241900   0.878   0.541   1.479  0.7006  0.1081 -0.3482
13986TIP3    H141901   0.862   0.628   1.516  1.5964  0.4172 -0.6704
13986TIP3    H241902   0.795   0.517   1.438  1.2438  2.0129 -2.6716
13987TIP3   OH241903   1.366   2.474   1.005 -0.8961  0.2839 -0.5722
13987TIP3    H141904   1.289   2.416   1.005  0.6286 -1.7942  0.6450
13987TIP3    H241905   1.412   2.452   0.925 -0.0700 -0.5204  0.1228
13988TIP3   OH241906   3.543   1.840   0.476 -0.7545  0.0423 -0.4577
13988TIP3    H141907   3.567   1.885   0.557 -0.0971 -1.4139  0.1839
13988TIP3    H241908   3.627   1.814   0.438 -1.1787 -2.3779  0.2008
13989TIP3   OH241909   6.547   6.836   1.730 -0.2186  0.5510 -0.2546
13989TIP3    H141910   6.516   6.795   1.810  1.0465  0.7005  0.3230
13989TIP3    H241911   6.483   6.811   1.664 -0.6385 -0.5450  0.5543
13990TIP3   OH241912   0.706   1.780   1.046  0.0626 -0.0817 -0.2807
13990TIP3    H141913   0.772   1.803   0.981 -0.0320 -0.1176 -0.3897
13990TIP3    H241914   0.748   1.714   1.101 -0.2508 -0.8759 -0.9932
13991TIP3   OH241915   8.104   4.506   6.286 -0.4292 -0.1251 -0.4001
13991TIP3    H141916   8.135   4.591   6.255  0.2109 -0.8678 -1.8171
13991TIP3    H241917   8.183   4.455   6.301 -0.7921 -0.3193  0.9423
13992TIP3   OH241918   4.136   5.343   6.918  0.2649  0.0862  0.1846
13992TIP3    H141919   4.054   5.308   6.883 -0.3586  1.3567  0.3703
13992TIP3    H241920   4.199   5.330   6.847 -0.8300  1.9674 -1.1773
13993TIP3   OH241921   2.729   3.196   2.162 -0.2022  0.7747 -0.0958
13993TIP3    H141922   2.824   3.209   2.164 -0.1630  0.4104  0.3963
13993TIP3    H241923   2.706   3.202   2.069  0.2951  0.9051 -0.2118
13994TIP3   OH241924   1.722   1.421   0.422  0.1484  0.2209 -0.0696
13994TIP3    H141925   1.702   1.448   0.333 -0.6374  1.4913  0.4802
13994TIP3    H241926   1.817   1.416   0.425  0.2915  2.4901 -0.3268
13995TIP3   OH241927   2.915   0.236   1.028  0.0561  0.2634  0.2329
13995TIP3    H141928   2.936   0.147   1.000 -0.0542  0.5313 -0.7347
13995TIP3    H241929   2.860   0.225   1.105  1.4912 -0.4793  1.1827
13996TIP3   OH241930   5.211   4.739   6.644  0.0550 -0.1747 -0.5100
13996TIP3    H141931   5.141   4.690   6.687  0.1218  0.2871  0.1171
13996TIP3    H241932   5.291   4.689   6.663  0.0400 -0.1457 -0.3705
13997TIP3   OH241933   4.073   1.771   0.373  0.0405 -0.8241  0.1221
13997TIP3    H141934   4.099   1.679   0.386  1.7864 -0.2670  0.7391
13997TIP3    H241935   4.130   1.802   0.303 -0.5629 -0.1994 -0.0985
13998TIP3   OH241936   1.379   0.634   2.270 -0.4709  0.1437 -0.0172
13998TIP3    H141937   1.336   0.718   2.256 -1.5829 -0.2318  1.0364
13998TIP3    H241938   1.366   0.615   2.363 -2.2938 -2.2907 -0.7077
13999TIP3   OH241939   1.817   1.735   0.417 -0.0749 -0.1822 -0.4539
13999TIP3    H141940   1.786   1.760   0.330  0.3938  1.2379 -0.2287
13999TIP3    H241941   1.899   1.689   0.400 -0.6598 -1.0907 -0.8423
14000TIP3   OH241942   1.996   0.739   1.968  0.5863 -0.3658 -0.2823
14000TIP3    H141943   2.079   0.701   1.940  1.1147 -0.6276  1.5401
14000TIP3    H241944   1.968   0.685   2.043 -1.0739 -0.1020 -0.6783
14001TIP3   OH241945   3.635   2.338   0.591 -0.6157 -0.7134 -0.0383
14001TIP3    H141946   3.572   2.273   0.620 -0.2124 -0.0591  2.4124
14001TIP3    H241947   3.596   2.422   0.616 -0.1350 -0.1438 -1.1907
14002TIP3   OH241948   2.880   3.252   0.362  0.3076 -0.0046 -0.5086
14002TIP3    H141949   2.896   3.212   0.276 -0.1098 -0.7967 -0.2195
14002TIP3    H241950   2.905   3.344   0.350  1.4680 -0.3786 -1.1237
14003TIP3   OH241951   0.488   7.763   2.015  0.4158  0.0909 -0.6046
14003TIP3    H141952   0.506   7.685   1.962  0.0537 -1.0342  0.8770
14003TIP3    H241953   0.573   7.802   2.032  1.0429 -2.2293  1.9431
14004TIP3   OH241954   6.459   7.660   1.197  0.2425 -0.8221 -0.0155
14004TIP3    H141955   6.450   7.755   1.207 -1.9029 -1.0833  0.9499
14004TIP3    H241956   6.517   7.649   1.122  1.3706  1.2514  0.5127
14005TIP3   OH241957   1.130   7.785   0.836  0.6241 -0.4363  0.3010
14005TIP3    H141958   1.052   7.738   0.865  0.4676  0.9131  2.1413
14005TIP3    H241959   1.096   7.860   0.787  0.7974 -0.4347  0.1827
14006TIP3   OH241960   5.892   5.614   6.491 -0.3985 -0.3572 -0.2415
14006TIP3    H141961   5.979   5.618   6.531 -0.6346 -0.5167  0.3085
14006TIP3    H241962   5.873   5.704   6.465 -1.0495  0.1424  1.8151
14007TIP3   OH241963   8.246   1.579   1.185 -0.5186 -0.3763  0.2034
14007TIP3    H141964   8.277   1.488   1.190 -0.1358 -0.3063 -0.7247
14007TIP3    H241965   8.184   1.578   1.111 -0.3769  0.1574  0.0792
14008TIP3   OH241966   5.733   5.367   5.368 -0.1065 -0.1514 -0.0168
14008TIP3    H141967   5.746   5.337   5.457  0.4903 -0.6697 -0.2772
14008TIP3    H241968   5.816   5.347   5.323 -0.2788  0.4081 -0.5974
14009TIP3   OH241969   1.212   2.265   0.193 -0.0578 -0.3197 -0.0344
14009TIP3    H141970   1.223   2.292   0.102  0.0922 -1.3944 -0.3414
14009TIP3    H241971   1.236   2.342   0.244  0.3043  0.1456 -0.8991
14010TIP3   OH241972   4.523   4.780   6.859 -0.4336 -0.6167 -0.0319
14010TIP3    H141973   4.434   4.764   6.891 -0.5516 -1.2042 -0.6464
14010TIP3    H241974   4.516   4.858   6.805 -0.1171  0.7657  1.8513
14011TIP3   OH241975   1.170   4.223   0.574 -0.0841 -0.4254  0.4831
14011TIP3    H141976   1.216   4.144   0.547  0.6374 -0.1042  0.7606
14011TIP3    H241977   1.236   4.274   0.621 -0.4980  0.4144  0.1629
14012TIP3   OH241978   4.139   3.452   5.626  0.2086  0.8064  0.2173
14012TIP3    H141979   4.188   3.418   5.551 -0.1780  1.2687 -0.2455
14012TIP3    H241980   4.082   3.520   5.590 -0.8505  0.2174  0.7257
14013TIP3   OH241981   2.082   0.143   1.330 -0.2548 -0.2936 -0.6493
14013TIP3    H141982   2.157   0.148   1.389 -0.4144  0.7235 -0.5307
14013TIP3    H241983   2.006   0.159   1.386 -0.4777 -0.2248 -0.9701
14014TIP3   OH241984   2.470   1.400   0.011 -0.2135  0.1556 -0.1993
14014TIP3    H141985   2.566   1.401   0.020 -0.4073  0.0670  2.0973
14014TIP3    H241986   2.445   1.492   0.014 -0.2193  0.1821 -0.8539
14015TIP3   OH241987   5.799   6.335   6.000  0.1647 -0.2946 -0.0180
14015TIP3    H141988   5.771   6.424   5.979  0.3011 -0.3766 -0.5550
14015TIP3    H241989   5.729   6.279   5.968 -0.1106 -0.3606  0.6829
14016TIP3   OH241990   3.512   4.606   6.377 -0.0368  0.7486  0.2105
14016TIP3    H141991   3.434   4.649   6.413  1.1760  2.5974  0.7144
14016TIP3    H241992   3.514   4.633   6.286 -0.7306 -0.4421 -0.1738
14017TIP3   OH241993   8.368   1.345   6.380  0.8388 -0.2248  0.0087
14017TIP3    H141994   8.336   1.364   6.292 -0.5688 -1.2032  0.3043
14017TIP3    H241995   8.464   1.351   6.372  0.7173 -0.1556 -1.5473
14018TIP3   OH241996   1.855   4.518   1.213 -0.9604  0.3263 -0.1555
14018TIP3    H141997   1.769   4.543   1.244 -0.9969  0.4651 -0.3669
14018TIP3    H241998   1.839   4.475   1.129 -0.9741 -1.0989  0.5588
14019TIP3   OH241999   6.072   3.636   6.358 -0.1352 -0.3423 -0.1192
14019TIP3    H142000   6.081   3.553   6.311 -0.6656 -0.3273 -0.2512
14019TIP3    H242001   6.161   3.670   6.363 -0.1001 -0.2260 -1.3480
14020TIP3   OH242002   1.183   0.918   0.895 -0.6899 -0.6352 -0.3721
14020TIP3    H142003   1.094   0.946   0.875 -0.3099 -0.7028 -2.1789
14020TIP3    H242004   1.231   0.927   0.813  0.7735 -1.4017  0.3706
14021TIP3   OH242005   2.253   2.313   0.669 -0.0668 -0.0211 -0.6540
14021TIP3    H142006   2.252   2.401   0.707  2.0686 -0.6999  1.0490
14021TIP3    H242007   2.210   2.258   0.735  1.6026 -0.8056 -0.1866
14022TIP3   OH242008   0.531   1.818   3.381 -0.3976 -0.4100  0.2971
14022TIP3    H142009   0.592   1.870   3.433 -0.9487 -0.0778  0.6128
14022TIP3    H242010   0.466   1.787   3.443 -1.9713  1.3127 -0.4306
14023TIP3   OH242011   2.576   2.370   1.790  1.0838  0.4143 -0.2222
14023TIP3    H142012   2.559   2.289   1.838 -0.2012 -0.5730 -2.2749
14023TIP3    H242013   2.651   2.410   1.836  1.8432 -1.9912  0.7229
14024TIP3   OH242014   8.020   5.673   0.580 -0.2716 -0.2943  0.1576
14024TIP3    H142015   8.020   5.719   0.496  0.0092 -1.1234 -0.3002
14024TIP3    H242016   7.946   5.613   0.575  0.9430 -1.8000 -0.3260
14025TIP3   OH242017   0.070   7.480   1.638 -0.0312  0.3731 -0.1782
14025TIP3    H142018   0.024   7.559   1.664 -0.5985  0.5202 -1.5836
14025TIP3    H242019   0.033   7.411   1.694  1.2305  1.2439  1.8134
14026TIP3   OH242020   2.014   1.549   0.385  0.7962  0.9092 -0.1979
14026TIP3    H142021   2.083   1.495   0.423  0.0664  0.9372  1.1747
14026TIP3    H242022   1.991   1.504   0.304 -0.1378 -1.1296  1.1589
14027TIP3   OH242023   1.140   3.641   1.201  0.7027 -0.2860  0.3011
14027TIP3    H142024   1.159   3.560   1.154  2.1378 -0.3097  0.8973
14027TIP3    H242025   1.047   3.636   1.221  0.3166 -0.8175 -1.5043
14028TIP3   OH242026   4.542   0.117   0.035 -0.1981 -0.4273  0.0102
14028TIP3    H142027   4.502   0.201   0.057 -1.3749 -0.5003 -1.7544
14028TIP3    H242028   4.470   0.065  -0.003  0.9764 -1.4840 -0.8220
14029TIP3   OH242029   0.832   0.322   2.964  0.8469 -0.0954  0.2192
14029TIP3    H142030   0.833   0.255   3.033  0.8820  0.1113  0.4191
14029TIP3    H242031   0.812   0.404   3.010 -0.3037 -0.1474 -0.1833
14030TIP3   OH242032   1.662   0.143   2.762  0.1602  0.1178  0.1740
14030TIP3    H142033   1.642   0.053   2.736  0.6493 -0.5524  2.0325
14030TIP3    H242034   1.586   0.170   2.814 -0.2998  1.0366 -0.9610
14031TIP3   OH242035   2.595   2.383   1.161 -0.6943 -0.1287  0.7297
14031TIP3    H142036   2.626   2.293   1.150  2.0587  0.9927 -1.3070
14031TIP3    H242037   2.515   2.388   1.109 -0.3519 -1.1639  0.0892
14032TIP3   OH242038   1.844   0.628   1.671 -0.0506 -0.1513  0.1711
14032TIP3    H142039   1.795   0.700   1.630  0.6982  0.3562  0.1503
14032TIP3    H242040   1.789   0.601   1.744  0.1521  1.1837  0.8420
14033TIP3   OH242041   2.044   1.735   1.739  0.4695 -0.6723 -0.4165
14033TIP3    H142042   2.044   1.759   1.832  1.5094 -0.6394 -0.4145
14033TIP3    H242043   2.129   1.767   1.706  1.6063 -3.6705 -0.5645
14034TIP3   OH242044   6.672   7.498   2.815  0.2873 -0.2701  0.4587
14034TIP3    H142045   6.624   7.512   2.896  0.7666 -0.0045  0.6998
14034TIP3    H242046   6.632   7.421   2.776  1.1569 -1.4045  1.7750
14035TIP3   OH242047   2.498   1.604   1.059  0.4257  0.0131  0.5688
14035TIP3    H142048   2.586   1.641   1.058  0.0730  0.8603 -0.3237
14035TIP3    H242049   2.446   1.665   1.007 -0.0966 -1.9055 -1.2421
14036TIP3   OH242050   6.550   7.843   1.565 -0.2671 -0.0154 -0.2043
14036TIP3    H142051   6.570   7.767   1.619 -0.1051  0.2526  0.1123
14036TIP3    H242052   6.636   7.876   1.538 -0.3105  0.5844  0.3921
14037TIP3   OH242053   5.064   4.829   6.075  0.1796  0.0938  0.2709
14037TIP3    H142054   5.084   4.917   6.042  1.4572  0.7341  2.6829
14037TIP3    H242055   4.984   4.842   6.127  0.8419 -0.0194  1.3105
14038TIP3   OH242056   2.956   1.931   3.039 -0.5167  0.0570  0.4371
14038TIP3    H142057   2.958   1.871   2.964 -1.5419  0.6615 -0.0961
14038TIP3    H242058   2.868   1.968   3.036 -0.3800  0.4713  1.6468
14039TIP3   OH242059   1.468   0.553   1.949 -0.1088  0.0097 -0.1152
14039TIP3    H142060   1.494   0.644   1.961  0.4442  0.0310 -1.3478
14039TIP3    H242061   1.391   0.557   1.893  0.7411 -0.3331 -1.3355
14040TIP3   OH242062   1.112   0.353   0.703  0.1089 -0.0773  0.2951
14040TIP3    H142063   1.147   0.280   0.754 -0.5696 -0.2764  0.4796
14040TIP3    H242064   1.088   0.419   0.767  1.0940  0.4767  0.1020
14041TIP3   OH242065   2.825   2.005   1.592 -0.1009 -0.0695  0.2735
14041TIP3    H142066   2.918   1.989   1.574 -0.3524  1.5323 -2.5826
14041TIP3    H242067   2.815   2.100   1.585 -1.4761  0.0484  3.1204
14042TIP3   OH242068   8.147   7.617   1.589  0.2228 -0.0513 -0.1968
14042TIP3    H142069   8.109   7.529   1.582 -0.5109  0.3387 -1.3622
14042TIP3    H242070   8.229   7.611   1.539  0.6293 -0.3172  0.4997
14043TIP3   OH242071   4.149   6.840   6.629  0.3202 -0.2745  0.2158
14043TIP3    H142072   4.116   6.860   6.717 -0.0089  0.9769 -0.1771
14043TIP3    H242073   4.119   6.751   6.612  1.2001 -0.8864  1.7412
14044TIP3   OH242074   5.004   5.402   6.599 -0.2968  0.4830 -0.1790
14044TIP3    H142075   4.983   5.469   6.534  0.3430  0.7183 -0.1464
14044TIP3    H242076   5.092   5.372   6.575 -1.3605 -1.8094 -1.4650
14045TIP3   OH242077   1.265   7.553   0.935  0.3471  0.2877 -0.2639
14045TIP3    H142078   1.203   7.622   0.911  0.0104  0.1206  0.1255
14045TIP3    H242079   1.259   7.547   1.030  1.0666  0.3682 -0.2139
14046TIP3   OH242080   1.810   3.269   0.370 -1.0401  0.4074 -0.4131
14046TIP3    H142081   1.864   3.325   0.425 -2.4188  1.3959 -0.0178
14046TIP3    H242082   1.866   3.196   0.346  0.3320  1.2174  0.2928
14047TIP3   OH242083   6.318   5.409   6.818  0.4715 -0.0461 -0.0167
14047TIP3    H142084   6.354   5.421   6.731 -1.1467  0.4544 -0.6287
14047TIP3    H242085   6.346   5.487   6.866 -2.0312  1.6544 -1.2626
14048TIP3   OH242086   5.901   5.236   6.002 -0.7063 -0.1937 -0.1354
14048TIP3    H142087   5.889   5.143   6.021 -2.5749  0.2351  0.8409
14048TIP3    H242088   5.842   5.254   5.928  0.8135 -0.1216 -1.3579
14049TIP3   OH242089   2.140   2.575   0.750 -0.4793 -0.0441  0.5401
14049TIP3    H142090   2.073   2.616   0.805  0.3067  0.4430  1.1531
14049TIP3    H242091   2.210   2.641   0.744  0.7698 -1.2380  1.4681
14050TIP3   OH242092   0.358   1.014   3.199 -0.0373 -0.8209  0.5284
14050TIP3    H142093   0.438   0.962   3.204  0.3368 -0.2699  0.2793
14050TIP3    H242094   0.369   1.068   3.121 -0.4086 -0.3322  0.8130
14051TIP3   OH242095   6.615   6.068   5.889  0.1426 -0.1767 -0.0245
14051TIP3    H142096   6.533   6.019   5.889 -1.0021  1.7140  0.3719
14051TIP3    H242097   6.642   6.070   5.797  0.0487 -1.2539 -0.0865
14052TIP3   OH242098   2.264   1.866   1.643 -0.1357  0.2123 -0.0745
14052TIP3    H142099   2.296   1.781   1.614  0.1470 -0.1711  1.3337
14052TIP3    H242100   2.272   1.922   1.566  1.6935 -0.4878 -0.4085
14053TIP3   OH242101   6.492   5.812   5.634  0.4171  0.0627 -0.3607
14053TIP3    H142102   6.415   5.851   5.592  0.5151  0.3160 -0.3094
14053TIP3    H242103   6.559   5.880   5.629  0.2997  0.2591  0.5814
14054TIP3   OH242104   0.603   0.331   2.008  0.2098  0.1527 -0.0659
14054TIP3    H142105   0.525   0.359   1.959 -1.3164 -1.0147  1.6396
14054TIP3    H242106   0.645   0.267   1.951  0.5205  1.5461 -1.4476
14055TIP3   OH242107   8.424   1.802   1.995  0.3524  0.2321 -0.4572
14055TIP3    H142108   8.369   1.865   2.042  2.1387  1.3437  0.2296
14055TIP3    H242109   8.401   1.814   1.903 -0.1428  1.0782 -0.2323
14056TIP3   OH242110   1.970   2.435   1.311 -0.8416 -0.1506 -0.0005
14056TIP3    H142111   1.942   2.437   1.402  1.6639  1.3276  0.7747
14056TIP3    H242112   1.992   2.526   1.290  0.3309 -0.7552 -1.5281
14057TIP3   OH242113   7.908   6.711   0.225 -0.0765 -0.0684  0.1711
14057TIP3    H142114   7.997   6.694   0.254 -0.0710 -0.3962 -0.0329
14057TIP3    H242115   7.878   6.782   0.281 -0.4362 -1.3799  1.7052
14058TIP3   OH242116   5.937   0.430   2.902  0.2118 -0.7824 -0.1088
14058TIP3    H142117   5.897   0.361   2.848  0.2828 -0.8136 -0.1214
14058TIP3    H242118   5.880   0.436   2.979 -0.3710 -0.1525 -0.5783
14059TIP3   OH242119   5.121   1.547   0.581 -0.1706 -0.2990  0.0044
14059TIP3    H142120   5.202   1.576   0.540  0.1294 -2.7914 -1.2340
14059TIP3    H242121   5.120   1.592   0.666  2.8891 -0.8162  0.3829
14060TIP3   OH242122   1.683   1.667   1.671  0.0527 -0.5688 -0.3140
14060TIP3    H142123   1.704   1.728   1.600  0.5019 -1.8532 -1.2999
14060TIP3    H242124   1.595   1.637   1.650  0.0177 -0.6168 -0.0908
14061TIP3   OH242125   3.502   0.538   2.144  0.6376 -0.4592  0.1275
14061TIP3    H142126   3.488   0.603   2.075 -0.9772  0.6832  1.4720
14061TIP3    H242127   3.531   0.459   2.098  0.8641  0.6653 -1.7084
14062TIP3   OH242128   6.141   7.782   1.290 -0.2580 -0.0876 -0.1647
14062TIP3    H142129   6.109   7.817   1.207 -0.4433  3.2650  1.2266
14062TIP3    H242130   6.219   7.835   1.310 -0.0177 -1.0742  1.6091
14063TIP3   OH242131   3.170   3.308   0.421  0.2694 -0.3801  0.1578
14063TIP3    H142132   3.194   3.216   0.415 -0.3793 -0.5349 -0.0236
14063TIP3    H242133   3.085   3.314   0.377 -0.2710  0.0868  1.2619
14064TIP3   OH242134   5.667   5.849   5.779  0.0165 -0.2947 -0.0159
14064TIP3    H142135   5.573   5.829   5.787  0.4975 -1.4752  3.5931
14064TIP3    H242136   5.711   5.774   5.818  2.4887  0.2964 -1.5713
14065TIP3   OH242137   5.233   4.453   6.547  0.1454 -0.0218 -0.2696
14065TIP3    H142138   5.167   4.423   6.484  0.4312 -0.7087 -0.2494
14065TIP3    H242139   5.292   4.508   6.496 -0.3975  0.5421 -0.3023
14066TIP3   OH242140   3.216   2.699   2.445 -0.6430 -0.2742 -0.2622
14066TIP3    H142141   3.289   2.733   2.393 -0.3840 -0.1368  0.1853
14066TIP3    H242142   3.160   2.654   2.382  0.5823 -1.6478 -0.3872
14067TIP3   OH242143   2.650   1.022   0.973  0.2681  0.3495 -0.1207
14067TIP3    H142144   2.621   1.023   0.882  0.7649  0.2867 -0.2790
14067TIP3    H242145   2.569   1.016   1.024  0.0103 -0.0250 -0.5698
14068TIP3   OH242146   3.382   2.496   0.658 -0.5677  0.2304  0.0941
14068TIP3    H142147   3.330   2.525   0.583 -2.1338  0.5484  1.2814
14068TIP3    H242148   3.377   2.401   0.657  0.2670  0.1877 -0.7843
14069TIP3   OH242149   8.343   0.749   1.727 -0.1749 -0.0230  0.3722
14069TIP3    H142150   8.340   0.771   1.820 -1.6051  0.1979  0.3005
14069TIP3    H242151   8.277   0.680   1.716  0.5655 -0.6243 -0.3319
14070TIP3   OH242152   6.022   4.441   6.513 -0.0209  0.1732 -0.2938
14070TIP3    H142153   6.075   4.380   6.564  0.9500  0.5635 -0.8384
14070TIP3    H242154   6.006   4.514   6.573  1.4884  0.8312 -0.6932
14071TIP3   OH242155   1.474   2.258   1.868 -0.4880 -0.2510 -0.2236
14071TIP3    H142156   1.522   2.295   1.943  0.6586 -1.2317 -0.4603
14071TIP3    H242157   1.383   2.284   1.883  0.2150  2.4157 -0.2112
14072TIP3   OH242158   2.042   2.473   0.492  0.1165  0.1371  0.2404
14072TIP3    H142159   2.091   2.475   0.574  0.5200  0.6960 -0.0087
14072TIP3    H242160   1.950   2.479   0.519  0.1273 -1.6027  0.7432
14073TIP3   OH242161   3.453   0.769   0.505  0.5261 -0.3688  0.1935
14073TIP3    H142162   3.535   0.815   0.522  0.3179  0.5790 -1.2975
14073TIP3    H242163   3.391   0.839   0.483 -0.5195 -1.1330  0.6944
14074TIP3   OH242164   3.990   3.921   6.836  0.4428  0.4987  0.2779
14074TIP3    H142165   3.938   3.996   6.806 -0.8142 -0.6542 -0.5213
14074TIP3    H242166   3.977   3.855   6.768  5.2867  1.1149 -1.3819
14075TIP3   OH242167   5.609   5.385   6.940  0.2101 -0.3542  0.4074
14075TIP3    H142168   5.693   5.339   6.952  0.6812  0.0892 -1.1678
14075TIP3    H242169   5.634   5.476   6.924 -0.5156 -0.4781 -1.4566
14076TIP3   OH242170   7.112   4.814   6.911  0.0018 -0.5184 -0.0553
14076TIP3    H142171   7.067   4.827   6.828  0.8824  1.7234 -0.2158
14076TIP3    H242172   7.188   4.759   6.889 -0.0882 -0.4111 -0.6321
14077TIP3   OH242173   1.729   0.718   0.565 -0.3446  0.1146 -0.1142
14077TIP3    H142174   1.710   0.765   0.483  0.7341  1.8722  0.5961
14077TIP3    H242175   1.666   0.753   0.628  1.1636  1.4569  0.6955
14078TIP3   OH242176   1.751   1.794   1.426 -0.5591  0.0680 -0.3745
14078TIP3    H142177   1.693   1.824   1.357 -0.1525  0.4031 -0.5749
14078TIP3    H242178   1.830   1.765   1.380  0.9212  3.0703  0.1165
14079TIP3   OH242179   7.956   6.809   0.521 -0.1043  0.1345  0.4984
14079TIP3    H142180   8.010   6.855   0.457  1.5894 -0.0714  1.7389
14079TIP3    H242181   7.930   6.877   0.584 -0.5508  0.0537  0.4065
14080TIP3   OH242182   3.489   0.896   2.147 -0.1539 -0.4063 -0.6472
14080TIP3    H142183   3.397   0.923   2.137 -1.2414 -3.1169  1.4260
14080TIP3    H242184   3.514   0.929   2.233  0.6571 -0.1755 -0.9692
14081TIP3   OH242185   3.867   6.418   5.455  0.3084  0.0686  0.2655
14081TIP3    H142186   3.906   6.477   5.390 -0.4734 -0.9705 -1.1610
14081TIP3    H242187   3.839   6.477   5.526 -1.7033  1.6508 -1.7328
14082TIP3   OH242188   2.679   0.429   3.271 -0.1346  0.2486 -0.2007
14082TIP3    H142189   2.643   0.506   3.229  0.9548  1.9484  1.8908
14082TIP3    H242190   2.774   0.439   3.261  0.2393  1.4787  3.8875
14083TIP3   OH242191   8.069   7.106   0.627  0.8686  0.1098 -0.0910
14083TIP3    H142192   8.027   7.031   0.671  2.0795 -0.4196  0.1952
14083TIP3    H242193   8.021   7.115   0.545 -0.4547  0.1528  0.6666
14084TIP3   OH242194   2.136   1.446   3.025  0.0645 -0.3924 -0.1203
14084TIP3    H142195   2.184   1.414   2.949 -0.6208  1.3484 -1.3069
14084TIP3    H242196   2.110   1.366   3.072  2.7773 -1.3974 -0.2419
14085TIP3   OH242197   5.187   4.057   5.379  0.0489 -0.3176 -0.0825
14085TIP3    H142198   5.145   4.143   5.392 -0.2742 -0.4493 -0.2522
14085TIP3    H242199   5.124   4.007   5.327  0.2081 -0.6816  0.0733
14086TIP3   OH242200   5.330   5.823   6.604  0.4230 -0.1872  1.3287
14086TIP3    H142201   5.238   5.804   6.589 -0.1595  2.4144  1.3872
14086TIP3    H242202   5.370   5.824   6.517 -0.1683  1.3443  1.0617
14087TIP3   OH242203   1.784   1.069   0.663  0.1534 -0.1500  0.5546
14087TIP3    H142204   1.825   1.046   0.580  2.1002 -0.2047  1.5019
14087TIP3    H242205   1.709   1.123   0.639  2.4712  2.4266 -1.1087
14088TIP3   OH242206   2.230   1.775   2.261  0.1191 -0.0904  0.2594
14088TIP3    H142207   2.279   1.796   2.181 -1.2605 -1.4265 -0.9662
14088TIP3    H242208   2.281   1.707   2.303  0.1655 -0.3182 -0.1634
14089TIP3   OH242209   5.278   5.018   6.714 -0.3670  0.0642  0.0909
14089TIP3    H142210   5.277   4.926   6.689  0.0420  0.1237 -0.1599
14089TIP3    H242211   5.251   5.018   6.806 -0.7186 -0.2694 -0.0116
14090TIP3   OH242212   8.142   5.741   6.631 -0.0696 -0.8279  0.3502
14090TIP3    H142213   8.090   5.667   6.601 -2.1589  0.2343  1.1980
14090TIP3    H242214   8.086   5.784   6.696  1.1393  1.4295 -0.0596
14091TIP3   OH242215   2.654   1.976   0.659 -0.5142  0.1866  0.1176
14091TIP3    H142216   2.559   1.969   0.646 -0.5287  0.1201  0.2588
14091TIP3    H242217   2.684   2.031   0.586 -0.7101  0.4933  0.2656
14092TIP3   OH242218   5.584   7.763   6.277  0.0118 -0.1031 -0.0088
14092TIP3    H142219   5.666   7.720   6.254  0.0655  0.4017 -0.7820
14092TIP3    H242220   5.594   7.852   6.244 -0.7458  0.0350  0.1294
14093TIP3   OH242221   3.420   5.231   6.396  0.4129 -0.9283 -0.2013
14093TIP3    H142222   3.467   5.150   6.414  1.4567 -0.5521 -1.2278
14093TIP3    H242223   3.456   5.294   6.459  0.3285 -0.9795 -0.0995
14094TIP3   OH242224   1.091   1.044   2.093  0.1113  0.0758 -0.1662
14094TIP3    H142225   1.025   1.092   2.143  0.7371 -0.5814  1.3257
14094TIP3    H242226   1.040   0.991   2.031 -0.6243  1.7913 -1.0598
14095TIP3   OH242227   5.227   7.527   6.397  0.0214 -0.5786 -0.3497
14095TIP3    H142228   5.284   7.477   6.455 -0.2913  1.7654  2.0995
14095TIP3    H242229   5.138   7.496   6.418 -0.0332 -0.2714 -0.1242
14096TIP3   OH242230   0.712   7.924   2.606 -0.0744  0.2124 -0.4721
14096TIP3    H142231   0.786   7.970   2.646 -0.3939  0.2589  0.0611
14096TIP3    H242232   0.724   7.832   2.630  1.1557 -0.1731 -2.4307
14097TIP3   OH242233   6.285   4.634   6.809 -0.4636  0.3602  0.1732
14097TIP3    H142234   6.200   4.608   6.773  0.5569 -1.1816 -1.1438
14097TIP3    H242235   6.344   4.564   6.784  0.8159  0.4825  2.7183
14098TIP3   OH242236   7.228   6.863   1.056  0.5232 -0.1930 -0.1873
14098TIP3    H142237   7.214   6.769   1.042  0.6627 -0.1106 -0.8953
14098TIP3    H242238   7.143   6.896   1.086  0.2418 -0.3939 -0.7548
14099TIP3   OH242239   1.613   1.104   1.384  0.5180 -0.5746  0.4312
14099TIP3    H142240   1.634   1.098   1.291 -1.0962  2.7847 -0.2289
14099TIP3    H242241   1.556   1.029   1.401  1.1506 -1.4395 -1.1974
14100TIP3   OH242242   3.876   4.399   5.982  0.1467 -0.5793  0.2967
14100TIP3    H142243   3.793   4.370   5.944  1.1170 -2.1734 -0.6944
14100TIP3    H242244   3.933   4.322   5.976  1.6372  0.4263  1.1444
14101TIP3   OH242245   3.164   0.759   0.638  0.1390 -0.0456 -0.1744
14101TIP3    H142246   3.245   0.782   0.682  0.8165 -2.3974 -0.1363
14101TIP3    H242247   3.117   0.704   0.701 -0.7824  0.0405 -0.7793
14102TIP3   OH242248   2.353   1.144   2.351 -0.9695 -0.0524 -0.1107
14102TIP3    H142249   2.429   1.142   2.408 -1.9043 -1.5157  1.1102
14102TIP3    H242250   2.367   1.221   2.295  0.7510  0.4360  0.9616
14103TIP3   OH242251   2.693   4.247   5.256  0.1084 -0.0500 -0.2140
14103TIP3    H142252   2.694   4.342   5.262  1.5821 -0.0736  0.2181
14103TIP3    H242253   2.626   4.219   5.317  0.6665  0.6551  0.7363
14104TIP3   OH242254   6.222   5.841   6.300 -0.2209 -0.6797 -0.8100
14104TIP3    H142255   6.297   5.894   6.275 -1.4438  1.1372 -0.7151
14104TIP3    H242256   6.241   5.813   6.390  1.5733 -2.5391 -1.7187
14105TIP3   OH242257   2.303   2.280   1.788 -0.7530 -0.0328 -0.6776
14105TIP3    H142258   2.328   2.244   1.873 -0.4756  1.5719 -0.0592
14105TIP3    H242259   2.222   2.327   1.804 -0.5599  0.5083 -1.2550
14106TIP3   OH242260   1.584   0.396   1.715 -0.1916 -0.7988 -0.1279
14106TIP3    H142261   1.555   0.442   1.794  1.1004  1.8671 -1.1540
14106TIP3    H242262   1.527   0.430   1.645  2.5783  1.4292 -1.4099
14107TIP3   OH242263   2.738   1.340   1.316 -0.0449  0.5295 -0.5095
14107TIP3    H142264   2.801   1.403   1.282  1.7904 -0.7235  0.4644
14107TIP3    H242265   2.766   1.256   1.279 -0.7119 -0.1411  0.4811
14108TIP3   OH242266   1.735   0.829   3.794  0.1204 -0.0054  0.4478
14108TIP3    H142267   1.688   0.758   3.839 -0.5199 -0.5054 -1.0007
14108TIP3    H242268   1.820   0.792   3.773 -0.3673 -0.4782 -0.6828
14109TIP3   OH242269   3.670   1.819   2.096 -0.0155  0.3038 -0.1884
14109TIP3    H142270   3.709   1.904   2.075 -0.7852  0.1828 -2.1649
14109TIP3    H242271   3.666   1.773   2.012  0.3713 -1.6820  0.8609
14110TIP3   OH242272   5.009   0.199   2.648  0.2009  0.3988 -0.3250
14110TIP3    H142273   5.037   0.172   2.735 -0.0085  0.1926 -0.3219
14110TIP3    H242274   5.091   0.212   2.599  0.4039  2.7299  0.5566
14111TIP3   OH242275   1.218   0.258   1.524 -0.1622 -0.2913  0.2372
14111TIP3    H142276   1.199   0.186   1.584 -0.1848 -0.4860 -0.0022
14111TIP3    H242277   1.279   0.314   1.572  1.6584 -1.6709 -0.4275
14112TIP3   OH242278   3.463   2.492   1.297 -0.4261 -0.2420 -0.3946
14112TIP3    H142279   3.484   2.575   1.254 -0.5558 -0.5521 -1.0729
14112TIP3    H242280   3.510   2.495   1.380  1.4290 -0.4512 -1.4007
14113TIP3   OH242281   4.549   1.081   2.364 -0.4511  0.0337 -0.3720
14113TIP3    H142282   4.470   1.027   2.357 -1.1342  1.0870 -1.0794
14113TIP3    H242283   4.577   1.070   2.454 -0.5237 -1.5593 -0.5185
14114TIP3   OH242284   1.193   2.894   1.084 -0.3315 -0.1400 -0.6294
14114TIP3    H142285   1.254   2.820   1.087 -0.3951 -0.2163 -1.2700
14114TIP3    H242286   1.205   2.937   1.169  0.6467 -0.1279 -0.7685
14115TIP3   OH242287   2.275   4.020   0.363 -0.3163  0.7418 -0.4456
14115TIP3    H142288   2.297   3.986   0.450 -0.0404  0.7777 -0.5005
14115TIP3    H242289   2.277   4.115   0.373  2.7689  0.8269 -1.2133
14116TIP3   OH242290   5.735   3.775   6.210 -0.1014 -0.0389 -0.3897
14116TIP3    H142291   5.825   3.807   6.204  0.7659 -2.6010 -1.8111
14116TIP3    H242292   5.695   3.801   6.127  0.2090 -1.3644 -0.9752
14117TIP3   OH242293   3.104   2.547   1.050  0.0105  0.1455  0.5745
14117TIP3    H142294   3.053   2.494   0.989  0.7981 -1.1590  1.0406
14117TIP3    H242295   3.195   2.523   1.033  0.2387 -0.2560  2.2642
14118TIP3   OH242296   3.910   2.175   0.301  0.0781 -0.1797 -0.0226
14118TIP3    H142297   3.907   2.126   0.219  0.5331  0.7929 -0.6258
14118TIP3    H242298   3.818   2.197   0.319 -0.0669 -0.7608 -0.0399
14119TIP3   OH242299   3.918   2.544   1.553 -0.0434 -0.6679 -0.2115
14119TIP3    H142300   3.824   2.532   1.547 -0.5844  2.5173  0.8337
14119TIP3    H242301   3.948   2.550   1.462 -1.1733  0.5440 -0.5052
14120TIP3   OH242302   5.762   4.395   6.380 -0.8331  0.2251 -0.1781
14120TIP3    H142303   5.843   4.380   6.428 -0.9756  1.7110  0.5429
14120TIP3    H242304   5.781   4.366   6.290  0.1052 -0.5395  0.2624
14121TIP3   OH242305   3.744   3.196   2.240  0.1108 -0.0554 -0.3356
14121TIP3    H142306   3.690   3.117   2.245 -2.6272  1.6873 -0.9402
14121TIP3    H242307   3.740   3.234   2.328 -0.2467  0.4234 -0.5513
14122TIP3   OH242308   6.229   3.619   6.066 -0.0047  0.2777 -0.4843
14122TIP3    H142309   6.190   3.547   6.114  0.0686  0.1806 -0.5683
14122TIP3    H242310   6.281   3.577   5.997  0.9375  0.3811  0.1570
14123TIP3   OH242311   5.998   2.516   6.897 -0.5404  0.0882  0.6699
14123TIP3    H142312   6.076   2.565   6.869  0.7270 -0.7602  2.5571
14123TIP3    H242313   6.010   2.429   6.858 -1.1786  0.3250 -0.0595
14124TIP3   OH242314   5.146   4.489   5.585 -0.1162  0.0374  0.6281
14124TIP3    H142315   5.162   4.564   5.526 -1.3182 -1.2530 -1.4021
14124TIP3    H242316   5.233   4.465   5.617  0.5751  0.7680 -0.6346
14125TIP3   OH242317   4.589   5.338   6.889 -0.1786  0.0387  0.1806
14125TIP3    H142318   4.534   5.324   6.812 -0.8238  0.5835  0.5419
14125TIP3    H242319   4.675   5.360   6.853 -0.1749 -0.8672 -0.3868
14126TIP3   OH242320   0.926   1.631   2.163  0.1205 -0.1859  0.6214
14126TIP3    H142321   0.886   1.549   2.193  0.2743 -0.9163 -1.1098
14126TIP3    H242322   1.008   1.604   2.122  0.5940  0.9339  0.8282
14127TIP3   OH242323   2.572   7.599   1.790  0.3947 -0.2886  0.7422
14127TIP3    H142324   2.666   7.593   1.811  0.6518  0.0475 -0.3106
14127TIP3    H242325   2.551   7.515   1.751 -0.5723 -1.7379  4.1894
14128TIP3   OH242326   6.589   4.404   4.868 -0.0665 -0.4624 -0.1063
14128TIP3    H142327   6.644   4.333   4.901 -0.7299 -0.0754  1.9333
14128TIP3    H242328   6.528   4.362   4.808  2.1113 -0.9703 -2.0316
14129TIP3   OH242329   3.921   2.791   1.260 -0.4642 -0.0057  0.2166
14129TIP3    H142330   3.997   2.783   1.202 -1.0639  2.1847 -0.9337
14129TIP3    H242331   3.958   2.821   1.343 -0.1108  1.6155 -0.5085
14130TIP3   OH242332   1.417   1.841   1.825  0.5916 -0.9338 -0.8893
14130TIP3    H142333   1.409   1.909   1.892 -2.8712 -2.1491  0.0383
14130TIP3    H242334   1.428   1.889   1.743  0.0477  0.7208 -0.0162
14131TIP3   OH242335   2.547   7.760   0.884  0.2323  0.3210  0.4900
14131TIP3    H142336   2.570   7.735   0.974  0.9930 -0.4819  0.0823
14131TIP3    H242337   2.604   7.706   0.829 -0.0141  1.0316 -0.4715
14132TIP3   OH242338   1.013   7.123   1.627 -0.2786 -0.1038  0.8524
14132TIP3    H142339   1.039   7.058   1.692 -1.5720 -1.7295 -0.2257
14132TIP3    H242340   0.918   7.130   1.636 -0.4218 -0.0158 -0.5457
14133TIP3   OH242341   8.291   0.977   1.005 -0.3835  0.4309  0.3441
14133TIP3    H142342   8.325   0.890   1.026 -2.2763 -0.1523  1.0297
14133TIP3    H242343   8.328   1.034   1.073  1.8798  0.4249 -0.8288
14134TIP3   OH242344   3.438   1.904   1.381  0.1173  0.0450  0.7938
14134TIP3    H142345   3.366   1.953   1.341 -0.2454  0.3592  1.8101
14134TIP3    H242346   3.408   1.813   1.382  0.4848 -0.0942 -0.4198
14135TIP3   OH242347   3.163   0.328   1.660 -0.0146  0.1515 -0.0222
14135TIP3    H142348   3.200   0.348   1.746  0.6609  0.1782 -0.3150
14135TIP3    H242349   3.074   0.298   1.679  0.0740  0.3102  0.6721
14136TIP3   OH242350   5.037   5.863   6.490 -0.7280  0.0082  0.2546
14136TIP3    H142351   4.942   5.853   6.485 -0.8295  0.7112  0.6762
14136TIP3    H242352   5.067   5.855   6.399 -1.1975 -0.1255  0.1104
14137TIP3   OH242353   7.132   7.764   1.082 -0.3350 -0.1414 -0.1237
14137TIP3    H142354   7.197   7.707   1.124 -0.5158 -1.6187 -1.8254
14137TIP3    H242355   7.160   7.769   0.991 -1.6584  0.5992 -0.4952
14138TIP3   OH242356   5.717   6.585   5.923  0.5474 -0.0764  0.5189
14138TIP3    H142357   5.705   6.614   5.832  2.0414 -1.1710 -0.0389
14138TIP3    H242358   5.803   6.618   5.948  1.5732 -2.5759  0.4153
14139TIP3   OH242359   0.466   1.524   2.450  0.1277  0.2816 -0.0620
14139TIP3    H142360   0.547   1.485   2.418 -0.8469 -1.6108 -0.2880
14139TIP3    H242361   0.473   1.518   2.545 -0.4765 -1.4783 -0.1058
14140TIP3   OH242362   2.628   0.294   2.138 -0.0109  0.0638 -0.2912
14140TIP3    H142363   2.550   0.309   2.085 -0.1821  0.6059  0.1131
14140TIP3    H242364   2.654   0.381   2.167 -0.5352 -0.3357  1.4252
14141TIP3   OH242365   5.248   6.293   6.435  0.4545 -0.7985  0.0185
14141TIP3    H142366   5.283   6.237   6.504 -0.1010  1.9813  2.6403
14141TIP3    H242367   5.325   6.329   6.393  0.7945 -0.4994  0.8861
14142TIP3   OH242368   2.641   2.553   0.587  0.1108  0.2654  0.0122
14142TIP3    H142369   2.576   2.484   0.572  0.8969 -0.3737 -0.4904
14142TIP3    H242370   2.597   2.633   0.559  0.0522 -0.3578 -1.7927
14143TIP3   OH242371   2.086   3.321   4.341 -0.3447  0.1209 -0.7146
14143TIP3    H142372   2.148   3.343   4.272  0.5743 -0.1354  0.0199
14143TIP3    H242373   2.049   3.237   4.314 -1.0716  0.7241 -1.6221
14144TIP3   OH242374   3.909   0.183   1.220  0.3290 -0.0572  0.4471
14144TIP3    H142375   3.927   0.177   1.126 -0.7491  0.5321  0.2027
14144TIP3    H242376   3.985   0.141   1.261  0.7389 -0.4470 -0.6868
14145TIP3   OH242377   8.275   3.087   2.257  0.0706  0.2369 -0.7003
14145TIP3    H142378   8.337   3.157   2.237 -0.4479  0.7295 -0.5983
14145TIP3    H242379   8.268   3.037   2.176  1.5484 -0.5812 -0.3577
14146TIP3   OH242380   0.950   1.407   2.329 -0.3528  0.2025  0.0623
14146TIP3    H142381   0.992   1.321   2.337 -1.8064 -0.3206  2.8861
14146TIP3    H242382   1.023   1.468   2.318  0.7667 -1.2578 -0.8234
14147TIP3   OH242383   1.918   1.448   1.683 -0.0506  0.4562  0.0170
14147TIP3    H142384   1.864   1.399   1.622 -1.2790 -0.0862  1.4857
14147TIP3    H242385   1.877   1.535   1.688 -0.3823  0.2665  0.6156
14148TIP3   OH242386   2.484   2.513   4.135 -0.0923 -0.6822  0.0663
14148TIP3    H142387   2.519   2.477   4.216  1.0331  0.5682  0.1417
14148TIP3    H242388   2.419   2.448   4.106  2.1638 -2.9429 -0.0197
14149TIP3   OH242389   0.128   2.931   1.881 -0.3121  0.2205 -0.1413
14149TIP3    H142390   0.136   2.852   1.828 -0.7533  0.1451 -0.0968
14149TIP3    H242391   0.170   2.999   1.828 -0.9547  0.1957 -0.6925
14150TIP3   OH242392   2.964   2.973   1.254 -0.2006 -0.3654 -0.1748
14150TIP3    H142393   3.007   2.900   1.300  1.8655 -1.6173 -3.8774
14150TIP3    H242394   2.929   2.934   1.174 -0.1290  2.4764 -1.6495
14151TIP3   OH242395   1.506   1.105   0.874 -0.3225 -0.0985  0.0278
14151TIP3    H142396   1.440   1.173   0.862  1.4652  1.4993 -0.9773
14151TIP3    H242397   1.519   1.068   0.787 -0.4937 -1.0140  0.3807
14152TIP3   OH242398   1.707   1.401   0.872 -0.2885  0.3126  0.5117
14152TIP3    H142399   1.785   1.349   0.852 -0.1041 -0.5984  3.3045
14152TIP3    H242400   1.654   1.398   0.792  0.9901 -1.8864 -0.2938
14153TIP3   OH242401   0.043   7.586   1.204 -0.1486  0.1504  0.0850
14153TIP3    H142402   0.126   7.541   1.186  0.3670  0.9088  0.5306
14153TIP3    H242403   0.064   7.679   1.192 -1.7009  0.1947 -2.8927
14154TIP3   OH242404   3.287   0.247   0.345 -0.2383  0.3073 -0.3369
14154TIP3    H142405   3.329   0.234   0.260  0.8340  1.2933  0.0394
14154TIP3    H242406   3.229   0.321   0.332 -1.9666 -1.1041 -0.8785
14155TIP3   OH242407   0.796   7.803   0.594 -0.3771  0.9185 -0.1322
14155TIP3    H142408   0.868   7.826   0.536  0.1927  0.2701  0.3225
14155TIP3    H242409   0.763   7.888   0.626 -0.5620  1.2620 -1.2316
14156TIP3   OH242410   7.624   7.824   0.255 -0.1097 -0.1945 -0.0706
14156TIP3    H142411   7.649   7.906   0.211 -1.1534  1.0434  1.5913
14156TIP3    H242412   7.704   7.795   0.298 -0.1026  0.7565  0.5729
14157TIP3   OH242413   3.476   0.696   3.324  0.0997 -0.2677  0.7592
14157TIP3    H142414   3.521   0.612   3.326 -0.7657 -0.8954 -2.5688
14157TIP3    H242415   3.402   0.682   3.266 -1.4891  2.1505  2.1078
14158TIP3   OH242416   0.620   6.620   1.414 -0.0598  0.3082 -0.5871
14158TIP3    H142417   0.664   6.537   1.395 -0.7643 -0.5090  1.2008
14158TIP3    H242418   0.572   6.640   1.334 -2.1961 -2.5011 -0.0800
14159TIP3   OH242419   5.135   3.217   5.125 -0.0330 -0.1031 -0.3372
14159TIP3    H142420   5.191   3.176   5.059  0.3942 -2.5564  1.4609
14159TIP3    H242421   5.191   3.281   5.168  0.1853  0.2883 -1.1820
14160TIP3   OH242422   3.095   0.056   0.432  0.5379  0.6583 -0.4919
14160TIP3    H142423   3.156   0.120   0.396  0.7429  1.2293  0.8654
14160TIP3    H242424   3.149  -0.022   0.448  0.5150  0.5175 -1.0770
14161TIP3   OH242425   5.991   5.865   6.705  0.1678 -0.3751 -0.7026
14161TIP3    H142426   6.032   5.787   6.667  1.3811 -1.2797  2.2377
14161TIP3    H242427   5.897   5.850   6.697  0.3897 -2.2850  0.0601
14162TIP3   OH242428   8.372   6.688   1.640  0.6964  0.4387 -0.0914
14162TIP3    H142429   8.387   6.704   1.547 -1.1617 -1.4574 -0.7764
14162TIP3    H242430   8.334   6.600   1.643 -1.3242  1.3277  2.2351
14163TIP3   OH242431   6.003   6.264   1.365 -0.2134  0.4758  0.7850
14163TIP3    H142432   6.022   6.322   1.291  0.4576  0.9570  1.3297
14163TIP3    H242433   5.936   6.204   1.332 -0.9405  1.5835  0.2359
14164TIP3   OH242434   4.858   7.842   6.837 -0.2134  0.3035 -0.0092
14164TIP3    H142435   4.929   7.803   6.888 -0.9727  0.2745  1.0324
14164TIP3    H242436   4.807   7.767   6.805 -0.2841  0.3523 -0.0144
14165TIP3   OH242437   0.444   0.612   5.953 -0.1046  0.0491  0.3444
14165TIP3    H142438   0.523   0.605   5.899  0.6458  0.6815  1.3354
14165TIP3    H242439   0.408   0.523   5.954  0.3394 -0.1439 -0.5020
14166TIP3   OH242440   5.519   5.606   6.541  0.2248  0.7963 -0.3468
14166TIP3    H142441   5.533   5.565   6.456 -1.1287  0.2421 -0.3088
14166TIP3    H242442   5.523   5.700   6.523 -0.3333  0.6878 -1.0684
14167TIP3   OH242443   5.801   4.501   2.246  0.1050  0.2293 -0.3937
14167TIP3    H142444   5.791   4.410   2.220  2.2442 -0.4082  0.9148
14167TIP3    H242445   5.789   4.551   2.165  1.3791 -1.3635 -1.5839
14168TIP3   OH242446   3.618   1.972   1.171  0.2442  0.0016 -0.6881
14168TIP3    H142447   3.600   2.066   1.171  5.1972  1.1410  1.6703
14168TIP3    H242448   3.562   1.936   1.241  1.1728  1.9137  1.0820
14169TIP3   OH242449   2.326   1.036   1.625 -0.2476 -0.1586 -0.3241
14169TIP3    H142450   2.270   1.007   1.697 -1.8121  0.5891 -1.2074
14169TIP3    H242451   2.268   1.036   1.549  0.7052  1.5587 -1.0719
14170TIP3   OH242452   1.177   0.674   1.032  0.2214  0.4938  0.4399
14170TIP3    H142453   1.125   0.745   0.996  1.3269  2.3642  2.4425
14170TIP3    H242454   1.120   0.632   1.095 -0.2336 -0.0623 -0.3287
14171TIP3   OH242455   3.728   0.814   1.347  0.0906 -0.6265  0.2401
14171TIP3    H142456   3.721   0.908   1.331  0.8400 -0.8021 -1.1848
14171TIP3    H242457   3.645   0.790   1.389 -0.7647  0.3843 -0.8420
14172TIP3   OH242458   3.436   5.176   5.590 -0.1550  0.7690  0.2161
14172TIP3    H142459   3.436   5.267   5.560 -0.8689  0.4894 -0.6243
14172TIP3    H242460   3.390   5.127   5.522 -0.6456 -0.0711  1.1324
14173TIP3   OH242461   3.576   0.642   0.297  0.4642  0.0754  0.0453
14173TIP3    H142462   3.506   0.675   0.240 -0.1439 -0.5460  0.4161
14173TIP3    H242463   3.549   0.667   0.385  1.7457  1.6397  0.0227
14174TIP3   OH242464   6.418   5.831   6.507 -0.2644 -0.2419 -0.1969
14174TIP3    H142465   6.411   5.806   6.599 -0.7685  0.1388 -0.1331
14174TIP3    H242466   6.472   5.910   6.507  0.3879 -0.6829 -0.2999
14175TIP3   OH242467   3.271   2.099   1.298  0.3729 -0.1489 -0.0528
14175TIP3    H142468   3.264   2.186   1.338  0.5820 -0.8449  1.4955
14175TIP3    H242469   3.274   2.117   1.204 -0.3105  1.4844  0.2161
14176TIP3   OH242470   2.866   6.079   1.524 -0.6376 -0.6540 -0.5716
14176TIP3    H142471   2.855   6.167   1.489 -0.3689 -0.0334  0.8508
14176TIP3    H242472   2.809   6.078   1.601 -1.0405 -1.8979 -0.8856
14177TIP3   OH242473   7.032   1.883   6.477  0.0549 -0.3902 -0.1049
14177TIP3    H142474   7.090   1.948   6.438  0.4477 -0.0893  0.9717
14177TIP3    H242475   6.953   1.932   6.501  0.7970 -0.0722  1.7378
14178TIP3   OH242476   0.158   7.962   0.915 -0.2377  0.2060 -0.5354
14178TIP3    H142477   0.195   7.980   0.829  1.3990  0.6272  0.2295
14178TIP3    H242478   0.201   7.881   0.943 -0.1848  0.4807  0.1904
14179TIP3   OH242479   3.502   1.767   0.790 -0.0206 -0.2626  0.1426
14179TIP3    H142480   3.515   1.738   0.880 -2.4825  4.0354  2.0168
14179TIP3    H242481   3.590   1.787   0.759  0.6943  0.1012  2.3047
14180TIP3   OH242482   5.881   1.928   0.325 -0.8561  0.1987 -0.1603
14180TIP3    H142483   5.793   1.963   0.341 -0.3923  0.8027  1.1596
14180TIP3    H242484   5.935   1.971   0.390  0.5184  0.1850 -1.2764
14181TIP3   OH242485   7.064   3.890   6.825 -0.5164  0.5428  0.4442
14181TIP3    H142486   7.001   3.819   6.818 -0.2950  0.3323  0.5462
14181TIP3    H242487   7.026   3.951   6.889 -0.9395  0.7680 -0.0290
14182TIP3   OH242488   8.053   5.141   5.946  0.1637 -0.1548 -0.0496
14182TIP3    H142489   8.142   5.118   5.973  1.1489  1.0817 -2.1394
14182TIP3    H242490   8.022   5.063   5.899 -0.5258 -1.2357  2.1128
14183TIP3   OH242491   1.401   7.760   0.264 -0.5082  0.3123 -0.2797
14183TIP3    H142492   1.414   7.783   0.356  1.0931  0.5651 -0.5545
14183TIP3    H242493   1.319   7.802   0.240 -0.6808  0.6639  0.8924
14184TIP3   OH242494   6.392   5.796   6.802 -0.4258 -0.3078 -0.5523
14184TIP3    H142495   6.458   5.829   6.863  0.1393  0.4884 -1.5746
14184TIP3    H242496   6.341   5.733   6.854  0.8275 -0.5881  0.3906
14185TIP3   OH242497   8.344   5.091   5.945 -0.6369  0.6554 -0.5979
14185TIP3    H142498   8.390   5.111   5.863  0.3932 -0.9772 -0.4409
14185TIP3    H242499   8.385   5.147   6.010  2.1864 -1.7966 -0.1711
14186TIP3   OH242500   4.647   1.008   0.970 -0.1438 -0.1144  0.9281
14186TIP3    H142501   4.697   0.977   0.894  3.0136  0.1919  2.7730
14186TIP3    H242502   4.712   1.052   1.024 -3.0997  3.2312  1.9364
14187TIP3   OH242503   0.010   0.251   6.324 -0.2660 -0.4934 -0.3453
14187TIP3    H142504   0.071   0.310   6.281  1.6751 -3.4419 -1.8196
14187TIP3    H242505  -0.071   0.259   6.273 -0.1446  1.1316 -0.2927
14188TIP3   OH242506   5.017   1.347   0.943 -0.0890  0.4434 -0.2953
14188TIP3    H142507   5.086   1.321   0.881 -0.7157 -0.9928 -0.4063
14188TIP3    H242508   5.028   1.442   0.952  2.4680  0.1420  0.3699
14189TIP3   OH242509   4.835   0.317   1.724 -0.1708 -0.1376 -0.0913
14189TIP3    H142510   4.813   0.251   1.789  2.4860  1.6487  2.7858
14189TIP3    H242511   4.871   0.268   1.651 -0.2473 -2.0184  1.0966
14190TIP3   OH242512   3.009   1.678   2.073 -0.5218  0.4480 -0.1125
14190TIP3    H142513   3.091   1.722   2.053 -0.5698  0.8224  0.5043
14190TIP3    H242514   2.963   1.673   1.989  1.4920 -2.6374 -1.1528
14191TIP3   OH242515   4.690   1.670   3.401 -0.4614  0.3866 -0.4804
14191TIP3    H142516   4.712   1.587   3.444 -1.4065 -0.4364 -1.5437
14191TIP3    H242517   4.673   1.730   3.473  2.1270  0.2102  0.3341
14192TIP3   OH242518   2.163   1.162   1.084 -0.5715 -0.4054  0.1917
14192TIP3    H142519   2.141   1.255   1.091  0.6851  0.0730 -1.8100
14192TIP3    H242520   2.089   1.124   1.036 -0.3441 -0.1260 -0.3875
14193TIP3   OH242521   6.075   5.299   5.668 -0.8596  0.3239  0.6512
14193TIP3    H142522   6.112   5.248   5.740  1.2359 -1.1668 -1.4096
14193TIP3    H242523   6.011   5.240   5.627  0.6650 -0.2378 -0.9727
14194TIP3   OH242524   4.407   4.396   2.609  0.2291 -0.0113  0.1271
14194TIP3    H142525   4.325   4.347   2.619  0.5397 -0.4847  0.4052
14194TIP3    H242526   4.415   4.444   2.691 -0.0775  0.5118 -0.1480
14195TIP3   OH242527   6.429   4.340   5.674  0.1393  0.4432  0.2024
14195TIP3    H142528   6.479   4.308   5.749  0.9538 -2.1066 -1.3669
14195TIP3    H242529   6.462   4.428   5.658  2.2285 -0.1930  0.8708
14196TIP3   OH242530   7.446   3.097   6.900 -0.2597 -0.2691  0.4353
14196TIP3    H142531   7.409   3.042   6.969 -1.4979 -0.6282 -0.5030
14196TIP3    H242532   7.467   3.036   6.829 -0.1909  0.2637 -0.0029
14197TIP3   OH242533   5.830   5.528   6.786  0.6723 -0.2576  0.3529
14197TIP3    H142534   5.840   5.436   6.812 -2.2316 -1.1208 -1.3693
14197TIP3    H242535   5.853   5.529   6.693 -0.1114  0.6127  0.1667
14198TIP3   OH242536   4.897   0.398   0.553 -0.4835  0.7523 -0.5661
14198TIP3    H142537   4.891   0.425   0.644 -0.9831  0.4188 -0.4996
14198TIP3    H242538   4.944   0.315   0.555  0.2287  1.1518 -0.6861
14199TIP3   OH242539   0.674   2.142   2.628  0.0338  0.0288 -0.2036
14199TIP3    H142540   0.755   2.099   2.600  0.4987  1.1277 -0.5994
14199TIP3    H242541   0.676   2.135   2.724  1.2213  1.1062 -0.1251
14200TIP3   OH242542   6.316   6.211   6.457 -0.3820 -0.1350  0.0972
14200TIP3    H142543   6.242   6.263   6.424  0.0667  0.6339  0.2885
14200TIP3    H242544   6.304   6.211   6.552  0.5239  1.0244  0.2285
14201TIP3   OH242545   3.046   0.721   1.554 -0.0615 -0.5354 -0.3136
14201TIP3    H142546   3.101   0.677   1.489 -2.4889 -1.3827 -1.8257
14201TIP3    H242547   2.998   0.651   1.596 -1.6258  0.3844 -0.5334
14202TIP3   OH242548   3.724   0.562   0.066 -0.0166 -0.4618 -0.0648
14202TIP3    H142549   3.760   0.475   0.080 -1.1599 -0.8425  0.6055
14202TIP3    H242550   3.683   0.585   0.150  0.3306  0.7389 -0.2190
14203TIP3   OH242551   6.882   5.835   6.027  0.2854  0.3425 -0.0122
14203TIP3    H142552   6.858   5.917   6.070 -1.1722  0.9505 -1.9194
14203TIP3    H242553   6.975   5.823   6.048  0.0814  1.5948  1.6804
14204TIP3   OH242554   8.125   5.980   6.019 -0.2282  0.1881 -0.5178
14204TIP3    H142555   8.147   5.993   5.927  1.9616 -0.9678 -0.1911
14204TIP3    H242556   8.084   5.894   6.022 -1.3590  0.7112 -0.5557
14205TIP3   OH242557   3.030   1.527   0.359  0.7576 -0.3195  0.2544
14205TIP3    H142558   3.057   1.616   0.337 -0.3767 -0.1801 -0.5738
14205TIP3    H242559   3.111   1.476   0.352  1.5432  0.7316  1.3220
14206TIP3   OH242560   0.226   0.366   5.364 -0.6738 -0.2596 -0.2759
14206TIP3    H142561   0.256   0.303   5.298 -1.2608 -1.1615  0.3075
14206TIP3    H242562   0.148   0.406   5.325 -0.8628 -0.5936 -0.2375
14207TIP3   OH242563   6.616   5.522   6.406  0.1060 -0.0325  0.0264
14207TIP3    H142564   6.699   5.556   6.439  0.9702 -1.1962 -0.9040
14207TIP3    H242565   6.640   5.441   6.361 -1.5461 -0.4076 -0.1947
14208TIP3   OH242566   4.373   1.019   1.970  0.0732  0.1005  0.4393
14208TIP3    H142567   4.285   0.983   1.983 -0.3594  0.8157 -0.4685
14208TIP3    H242568   4.376   1.097   2.025 -0.3673  0.8776 -0.6165
14209TIP3   OH242569   3.076   7.118   1.410 -0.0534 -0.0218 -0.2342
14209TIP3    H142570   2.980   7.128   1.408 -0.0783  0.2312  1.2702
14209TIP3    H242571   3.108   7.174   1.340 -0.8873  1.6071  0.6694
14210TIP3   OH242572   0.649   7.166   1.785 -0.0981 -0.1988  0.0400
14210TIP3    H142573   0.587   7.188   1.715 -2.2201  1.6258  2.3967
14210TIP3    H242574   0.716   7.234   1.780 -1.1932  0.9503  0.8739
14211TIP3   OH242575   3.964   0.144   1.660  0.3324 -0.4221  0.2508
14211TIP3    H142576   4.005   0.058   1.654  0.1449 -0.4541 -0.6216
14211TIP3    H242577   3.881   0.134   1.613  0.2209  0.1728  0.3248
14212TIP3   OH242578   7.096   2.791   6.839 -0.6012  0.0281 -0.9826
14212TIP3    H142579   7.029   2.852   6.808  0.3727  1.7003  0.1184
14212TIP3    H242580   7.170   2.806   6.780 -0.1872  0.2739 -0.4038
14213TIP3   OH242581   1.937   2.681   1.185 -0.1267 -0.1789  0.1879
14213TIP3    H142582   2.024   2.716   1.205  0.1612 -1.2007  0.8019
14213TIP3    H242583   1.918   2.712   1.097  0.1667  1.3795  0.6544
14214TIP3   OH242584   4.153   3.744   6.472 -0.3600  0.3699  0.6423
14214TIP3    H142585   4.235   3.721   6.427 -1.0971  1.1968 -1.1801
14214TIP3    H242586   4.164   3.836   6.496  0.3522 -0.2905  2.9153
14215TIP3   OH242587   3.329   0.125   1.357 -0.3540 -0.0796  0.1242
14215TIP3    H142588   3.388   0.151   1.286 -2.6070  2.2700 -0.9886
14215TIP3    H242589   3.367   0.166   1.435  0.2959  0.2044 -0.3303
14216TIP3   OH242590   4.935   4.369   6.597  0.0910  0.0544 -0.1004
14216TIP3    H142591   4.883   4.355   6.675 -1.7709  0.5057 -1.2312
14216TIP3    H242592   5.005   4.429   6.625 -0.0150 -0.5261  1.4130
14217TIP3   OH242593   4.499   5.532   6.619  0.2625 -0.1728 -0.4767
14217TIP3    H142594   4.576   5.558   6.671  0.7635 -0.1097 -1.2357
14217TIP3    H242595   4.473   5.612   6.574  0.6932 -0.5379 -1.4035
14218TIP3   OH242596   6.209   3.521   5.545 -0.1626 -0.6371 -0.1796
14218TIP3    H142597   6.211   3.582   5.471 -0.8785 -0.4399 -0.0365
14218TIP3    H242598   6.250   3.441   5.512 -1.3255 -0.8688 -1.0644
14219TIP3   OH242599   2.362   0.809   1.338  0.2386  0.8730 -0.0081
14219TIP3    H142600   2.296   0.876   1.358  2.1681  2.1565  2.3808
14219TIP3    H242601   2.415   0.847   1.269  0.0929  0.9679 -0.0670
14220TIP3   OH242602   2.820   1.362   0.298  0.4113 -0.1590  0.1056
14220TIP3    H142603   2.893   1.421   0.315 -0.7408  1.0989  0.7857
14220TIP3    H242604   2.789   1.387   0.211  1.5919 -1.5691 -0.7418
14221TIP3   OH242605   4.566   0.794   0.261  0.5215  0.1557  0.8469
14221TIP3    H142606   4.605   0.791   0.173  0.2586  0.0375  0.7355
14221TIP3    H242607   4.516   0.713   0.268  1.8130 -0.5806  1.6947
14222TIP3   OH242608   4.904   2.159   1.893 -0.0807  0.0374 -0.1186
14222TIP3    H142609   4.820   2.151   1.937 -1.1517  0.2445 -2.0597
14222TIP3    H242610   4.910   2.252   1.869  1.4881  0.3867  1.4623
14223TIP3   OH242611   2.733   3.541   0.485  0.1644  0.4424 -0.4829
14223TIP3    H142612   2.800   3.608   0.473 -0.0003  0.5186 -0.9891
14223TIP3    H242613   2.671   3.580   0.547  0.2696  0.6067 -0.4809
14224TIP3   OH242614   1.155   7.404   0.707  0.2353 -0.8263 -0.4810
14224TIP3    H142615   1.189   7.452   0.782  1.5789 -2.1610 -0.2136
14224TIP3    H242616   1.232   7.378   0.657 -0.5985 -0.7255 -1.8585
14225TIP3   OH242617   8.133   4.989   6.185 -0.7782  0.0740 -0.1619
14225TIP3    H142618   8.127   5.048   6.259 -0.0313  0.9105 -0.7658
14225TIP3    H242619   8.067   5.020   6.123 -2.1344 -1.2537  0.5706
14226TIP3   OH242620   8.133   5.720   5.610 -0.4350  0.3927  0.3932
14226TIP3    H142621   8.059   5.766   5.571 -0.3171 -0.9811 -1.5131
14226TIP3    H242622   8.206   5.736   5.550  0.0340 -0.8301  0.6160
14227TIP3   OH242623   6.871   4.536   6.759  0.0047  0.0450  0.2781
14227TIP3    H142624   6.873   4.555   6.665 -0.0690 -1.4170 -0.0265
14227TIP3    H242625   6.809   4.599   6.795  0.5336  1.0512 -0.5577
14228TIP3   OH242626   1.591   1.033   2.782  0.3302 -0.7682  0.0084
14228TIP3    H142627   1.622   1.115   2.822 -0.7340 -0.7317  0.7807
14228TIP3    H242628   1.642   1.026   2.701  0.3962  0.6879 -0.1021
14229TIP3   OH242629   4.604   4.671   1.163  0.0682  0.3852  0.2558
14229TIP3    H142630   4.537   4.712   1.218 -1.7087 -2.0685  0.0386
14229TIP3    H242631   4.564   4.664   1.077  0.5646 -1.1388  0.1250
14230TIP3   OH242632   3.766   1.826   2.365 -0.3346 -0.0565  0.2457
14230TIP3    H142633   3.794   1.739   2.394 -0.7507 -0.4082 -0.4065
14230TIP3    H242634   3.737   1.814   2.275 -0.9825  0.6359  0.3510
14231TIP3   OH242635   3.837   1.355   0.568  0.0007 -0.7149 -0.3980
14231TIP3    H142636   3.929   1.345   0.592 -0.4613 -0.1937  1.6548
14231TIP3    H242637   3.832   1.440   0.523  0.7545 -1.4209 -1.8707
14232TIP3   OH242638   8.175   4.460   5.612  0.5181 -0.4258 -0.4566
14232TIP3    H142639   8.133   4.484   5.529 -0.4105  1.6736  0.5965
14232TIP3    H242640   8.107   4.414   5.661  0.3224  0.3937  0.0626
14233TIP3   OH242641   2.472   2.077   0.230 -0.0451  0.1356 -0.7401
14233TIP3    H142642   2.409   2.109   0.295  0.3651  2.6824 -1.5164
14233TIP3    H242643   2.420   2.024   0.169 -0.9994  0.3116 -0.0883
14234TIP3   OH242644   2.544   3.144   2.419 -0.2968 -0.2335 -0.1136
14234TIP3    H142645   2.501   3.229   2.410  0.5539  0.2473  0.2600
14234TIP3    H242646   2.564   3.117   2.330 -2.1336 -0.8686 -0.3523
14235TIP3   OH242647   3.222   3.893   1.431 -0.2121 -0.0755 -0.3711
14235TIP3    H142648   3.166   3.943   1.371 -0.7245  0.1662  0.3020
14235TIP3    H242649   3.282   3.845   1.374 -0.4153  0.4882 -1.0578
14236TIP3   OH242650   2.651   3.920   0.278 -0.2289  0.2648  0.2911
14236TIP3    H142651   2.635   4.008   0.312  2.8937  0.6244  0.9733
14236TIP3    H242652   2.745   3.915   0.266 -0.4364 -2.6901 -0.6393
14237TIP3   OH242653   3.122   2.761   1.341  0.0009 -0.6771 -0.5381
14237TIP3    H142654   3.203   2.798   1.306 -0.5289  0.1868 -0.8483
14237TIP3    H242655   3.143   2.741   1.432  0.6774 -0.7894 -0.7195
14238TIP3   OH242656   7.244   4.572   6.495 -0.4137  0.3234 -0.5254
14238TIP3    H142657   7.198   4.525   6.426  1.5822 -1.3502 -0.7830
14238TIP3    H242658   7.246   4.512   6.569  0.6961  0.6304 -0.2880
14239TIP3   OH242659   3.853   1.375   3.442 -0.7000  0.1822  0.3395
14239TIP3    H142660   3.770   1.327   3.450 -0.7766  0.4828  1.3867
14239TIP3    H242661   3.844   1.448   3.503  1.5830 -1.5584  2.9103
14240TIP3   OH242662   2.819   1.505   2.140 -0.0631  0.5657  0.2521
14240TIP3    H142663   2.794   1.465   2.057  0.9229  2.0519 -0.7974
14240TIP3    H242664   2.883   1.572   2.116  2.8760 -1.2541  2.5282
14241TIP3   OH242665   2.102   3.146   2.363  0.1566 -0.1871  0.3757
14241TIP3    H142666   2.009   3.161   2.345 -0.0943 -1.9225  0.1830
14241TIP3    H242667   2.141   3.135   2.276 -0.1225 -3.1669  0.5753
14242TIP3   OH242668   6.584   3.656   4.407  0.1871  0.0438 -0.3845
14242TIP3    H142669   6.613   3.565   4.410  0.8321  0.3007  1.4901
14242TIP3    H242670   6.587   3.686   4.498 -2.1443  1.2841 -0.6843
14243TIP3   OH242671   4.343   1.524   0.534 -0.5378  0.1877  0.7575
14243TIP3    H142672   4.358   1.596   0.473  0.4807 -0.9160 -0.3267
14243TIP3    H242673   4.428   1.510   0.575 -1.2961  1.1368  2.6941
14244TIP3   OH242674   2.411   3.055   1.418 -0.2335 -0.1257 -0.0366
14244TIP3    H142675   2.411   2.970   1.375  1.0269 -0.4990  0.6657
14244TIP3    H242676   2.384   3.117   1.350 -2.0877 -1.1845 -0.3096
14245TIP3   OH242677   8.405   4.360   6.174 -0.2728 -0.1457 -0.0941
14245TIP3    H142678   8.395   4.271   6.208  0.3057 -0.6694 -1.2469
14245TIP3    H242679   8.328   4.374   6.119  0.4469 -0.5536 -1.2201
14246TIP3   OH242680   1.814   7.088   3.207  0.3061  0.4401 -0.6354
14246TIP3    H142681   1.874   7.082   3.132  0.5482  1.1548 -0.5048
14246TIP3    H242682   1.823   7.004   3.252 -0.7913 -0.4988 -2.1172
14247TIP3   OH242683   4.022   0.103   0.982  0.1849  0.4039 -0.4892
14247TIP3    H142684   3.977   0.022   0.955  2.2688 -0.5069 -1.3538
14247TIP3    H242685   4.052   0.142   0.900 -1.1845  2.3109 -0.1064
14248TIP3   OH242686   5.799   0.253   0.903  0.3737  0.2368 -0.1296
14248TIP3    H142687   5.791   0.240   0.808 -0.7057  1.8871 -0.2792
14248TIP3    H242688   5.790   0.166   0.940 -2.2637 -0.0353 -1.3568
14249TIP3   OH242689   6.939   5.414   6.697  0.0006 -0.3049 -0.1762
14249TIP3    H142690   6.965   5.332   6.654 -0.7858 -0.4942 -0.3007
14249TIP3    H242691   6.857   5.392   6.741 -0.2208  0.4279 -0.2266
14250TIP3   OH242692   0.093   7.479   0.550  0.2159  0.2714  0.0653
14250TIP3    H142693   0.124   7.567   0.529  1.3571 -0.2075 -0.3196
14250TIP3    H242694   0.077   7.480   0.644  0.1501  0.9098  0.0465
14251TIP3   OH242695   8.388   5.702   6.260 -0.5894 -0.0293  0.0970
14251TIP3    H142696   8.435   5.727   6.180 -1.3256  1.7803  0.2028
14251TIP3    H242697   8.296   5.700   6.233 -0.6568 -1.4091  0.4193
14252TIP3   OH242698   4.290   1.666   1.322  0.4535  0.2957 -0.1556
14252TIP3    H142699   4.323   1.732   1.261  1.6121 -1.9949 -2.1596
14252TIP3    H242700   4.349   1.671   1.397  1.9121  0.1017 -1.2473
14253TIP3   OH242701   4.907   5.722   5.605  0.1564  0.6141  0.4700
14253TIP3    H142702   4.931   5.800   5.555  1.2721 -0.8188 -1.2856
14253TIP3    H242703   4.961   5.725   5.683  0.9215  1.0926 -0.0725
14254TIP3   OH242704   5.409   4.279   6.269 -0.5947  0.2806 -0.1241
14254TIP3    H142705   5.319   4.283   6.299 -0.6694 -1.5164 -0.0140
14254TIP3    H242706   5.403   4.256   6.176 -0.2712  0.9435 -0.3112
14255TIP3   OH242707   5.144   3.681   5.620 -0.2797 -0.5567  0.5621
14255TIP3    H142708   5.091   3.754   5.587  1.6946  0.0830 -1.3343
14255TIP3    H242709   5.139   3.615   5.551 -0.0266 -1.1929  1.1548
14256TIP3   OH242710   4.967   0.207   0.245  0.6867  0.2172  0.3081
14256TIP3    H142711   4.982   0.122   0.286 -0.4736  0.0122  0.3332
14256TIP3    H242712   5.001   0.197   0.156  1.5299  0.0773  0.6380
14257TIP3   OH242713   5.845   3.434   1.743 -0.3577 -0.0490 -0.0692
14257TIP3    H142714   5.937   3.417   1.764 -0.1596  1.7634  0.5640
14257TIP3    H242715   5.823   3.367   1.677  1.4948 -0.2797 -0.4829
14258TIP3   OH242716   2.151   1.308   0.191 -0.2974  0.3516 -0.3857
14258TIP3    H142717   2.151   1.250   0.115 -0.8750  0.8214 -0.7434
14258TIP3    H242718   2.075   1.281   0.242  0.2685 -0.1761  0.1962
14259TIP3   OH242719   4.315   1.452   1.615 -0.0710  0.0943  0.3963
14259TIP3    H142720   4.245   1.496   1.566  0.4658  0.6973  0.1617
14259TIP3    H242721   4.357   1.395   1.549  0.9284  1.2319  0.0449
14260TIP3   OH242722   7.536   7.992   0.832 -0.2432  0.4286  0.3887
14260TIP3    H142723   7.521   8.070   0.778 -1.4569 -0.1441 -0.0957
14260TIP3    H242724   7.549   7.921   0.769 -0.2653  0.0195  0.8471
14261TIP3   OH242725   3.617   1.132   0.243 -0.6917  0.3123 -0.5432
14261TIP3    H142726   3.649   1.182   0.168  0.0531  0.7722  0.0753
14261TIP3    H242727   3.671   1.052   0.243  1.3641  1.6679  1.2544
14262TIP3   OH242728   2.029   4.345   6.000  0.1186  0.2053  0.0605
14262TIP3    H142729   1.974   4.418   6.027  0.7320  1.0277 -0.8837
14262TIP3    H242730   2.099   4.385   5.949 -0.3471 -1.1820 -1.7183
14263TIP3   OH242731   4.489   2.520   2.028  0.1840  0.1786 -0.3978
14263TIP3    H142732   4.494   2.560   1.941  0.5975  0.4221 -0.2645
14263TIP3    H242733   4.549   2.572   2.081 -0.4628  0.3523  0.1643
14264TIP3   OH242734   7.675   6.712   3.784 -0.7904 -0.4762  0.0975
14264TIP3    H142735   7.619   6.761   3.844  0.7091  1.0832  0.2355
14264TIP3    H242736   7.754   6.693   3.834 -1.0331 -2.3838 -0.2029
14265TIP3   OH242737   6.565   6.067   6.490 -0.6492 -0.0318  0.4684
14265TIP3    H142738   6.608   6.055   6.405  1.6478 -1.2813  1.7695
14265TIP3    H242739   6.490   6.124   6.471 -0.4118 -0.6158 -2.4544
14266TIP3   OH242740   2.826   0.527   2.540 -0.3285  0.3789  0.3561
14266TIP3    H142741   2.783   0.443   2.554 -0.5825  0.6617  1.2749
14266TIP3    H242742   2.866   0.549   2.624  1.1925  0.3643 -0.3431
14267TIP3   OH242743   2.579   7.835   0.199  0.2088  0.0318  0.1080
14267TIP3    H142744   2.549   7.779   0.127 -0.1052 -1.0798  1.0943
14267TIP3    H242745   2.620   7.910   0.155  0.4118 -0.8382 -1.2286
14268TIP3   OH242746   6.539   3.187   6.832 -0.1968 -0.4020  0.2622
14268TIP3    H142747   6.598   3.221   6.900 -0.5491  1.6269 -0.3929
14268TIP3    H242748   6.459   3.164   6.879  0.5074 -1.5629  0.9097
14269TIP3   OH242749   3.778   1.188   2.426  0.2129  0.1951  0.2629
14269TIP3    H142750   3.686   1.207   2.445  0.3711 -0.3543  1.6287
14269TIP3    H242751   3.826   1.229   2.498  1.0715  0.9184 -0.7233
14270TIP3   OH242752   2.945   1.134   0.170  0.1990  0.1089  0.2966
14270TIP3    H142753   2.943   1.041   0.191  0.5224 -0.3758 -1.6890
14270TIP3    H242754   2.881   1.174   0.229 -1.2681 -1.6356 -0.0851
14271TIP3   OH242755   2.867   3.202   1.010  0.0033  0.0957  0.8551
14271TIP3    H142756   2.922   3.280   1.002  1.0474 -0.5897  1.2427
14271TIP3    H242757   2.843   3.199   1.102  2.5190 -1.7344  1.4840
14272TIP3   OH242758   3.637   2.636   0.613  0.3143 -0.2094  0.4122
14272TIP3    H142759   3.698   2.644   0.539  1.4799  0.2238  1.3979
14272TIP3    H242760   3.550   2.643   0.573  0.8957 -1.0445 -1.0424
14273TIP3   OH242761   5.363   5.287   6.437  0.3015  0.6285  0.1072
14273TIP3    H142762   5.455   5.303   6.457  0.3381 -1.1753  1.4121
14273TIP3    H242763   5.317   5.302   6.519 -0.4387  0.3857 -0.2556
14274TIP3   OH242764   4.983   0.825   0.179  0.2383 -0.1517 -0.4172
14274TIP3    H142765   4.934   0.771   0.240 -0.0513  1.1504  0.5224
14274TIP3    H242766   5.014   0.764   0.112 -1.8783 -1.1442 -0.5339
14275TIP3   OH242767   6.376   5.435   6.176  0.1327 -0.4857  0.0838
14275TIP3    H142768   6.285   5.442   6.146  0.7214 -0.6796 -1.7785
14275TIP3    H242769   6.395   5.521   6.212 -1.6939 -1.2872  3.1971
14276TIP3   OH242770   0.537   6.377   5.968  0.1783 -0.4072 -0.6147
14276TIP3    H142771   0.547   6.370   6.063 -1.1476  1.0121 -0.3520
14276TIP3    H242772   0.586   6.303   5.933  1.1201 -0.6407  1.1546
14277TIP3   OH242773   7.371   3.801   5.870 -0.5454 -0.1350 -0.3314
14277TIP3    H142774   7.375   3.725   5.813 -2.2207  0.0874 -0.7777
14277TIP3    H242775   7.339   3.767   5.954 -0.4720 -0.0589 -0.2713
14278TIP3   OH242776   7.291   5.429   4.923  0.0614 -0.9565  0.1266
14278TIP3    H142777   7.324   5.346   4.958 -0.5954 -0.8197  1.0991
14278TIP3    H242778   7.360   5.493   4.942 -0.8985 -0.5860  2.5293
14279TIP3   OH242779   0.543   4.684   6.370  0.3845 -0.0732  0.1109
14279TIP3    H142780   0.549   4.622   6.443  0.6856 -1.2845 -0.9275
14279TIP3    H242781   0.594   4.759   6.398 -3.0249  1.3296  2.9772
14280TIP3   OH242782   5.061   1.524   3.193  0.2723  0.3438  0.4907
14280TIP3    H142783   5.145   1.547   3.153  0.0269  0.7134  0.1859
14280TIP3    H242784   5.066   1.429   3.205  0.3677  0.2274 -0.3837
14281TIP3   OH242785   7.707   4.500   6.579  0.1645  0.2174 -0.1939
14281TIP3    H142786   7.784   4.537   6.535  0.4469  0.3787  0.4283
14281TIP3    H242787   7.742   4.463   6.661 -0.8842  3.0198  1.5626
14282TIP3   OH242788   1.124   7.771   0.473  0.0688 -0.0841 -0.0309
14282TIP3    H142789   1.085   7.846   0.430 -1.0271  0.2628  1.5111
14282TIP3    H242790   1.218   7.783   0.461 -0.0210  2.1928  1.2310
14283TIP3   OH242791   3.847   0.759   2.848 -0.7500  0.5604 -0.0719
14283TIP3    H142792   3.927   0.782   2.802 -1.5376  1.3120 -1.0921
14283TIP3    H242793   3.778   0.805   2.801 -1.7234  0.3606  1.1219
14284TIP3   OH242794   2.182   5.288   6.467  0.1619  0.3734  0.6849
14284TIP3    H142795   2.171   5.372   6.511  1.0109  0.3722  0.8961
14284TIP3    H242796   2.275   5.285   6.444 -0.1963  0.2534 -0.8468
14285TIP3   OH242797   0.241   7.868   1.980 -0.1538  0.4969 -0.3371
14285TIP3    H142798   0.223   7.900   2.068  0.5562  3.0642 -1.0866
14285TIP3    H242799   0.324   7.821   1.987 -1.0550 -0.9880  0.7151
14286TIP3   OH242800   4.478   0.243   0.477 -0.3511 -0.1458  0.4250
14286TIP3    H142801   4.544   0.221   0.543  0.3373  0.9144  0.0975
14286TIP3    H242802   4.527   0.288   0.409 -1.4920  1.0164  0.3675
14287TIP3   OH242803   2.425   1.669   0.758  0.3144 -0.6859 -0.1327
14287TIP3    H142804   2.505   1.620   0.739  0.5130 -0.6198  0.5178
14287TIP3    H242805   2.423   1.739   0.694 -0.1750 -1.7725 -1.3409
14288TIP3   OH242806   5.720   1.854   0.628 -0.6186  0.0974  0.3078
14288TIP3    H142807   5.703   1.890   0.541 -1.4669  0.8613  0.7834
14288TIP3    H242808   5.776   1.920   0.670 -1.2149  0.3061  0.7735
14289TIP3   OH242809   4.849   6.738   6.829 -0.1934  0.3286 -0.4813
14289TIP3    H142810   4.843   6.642   6.832  0.3966  0.2803 -0.8377
14289TIP3    H242811   4.769   6.768   6.873  0.9306 -0.3488  2.1256
14290TIP3   OH242812   6.921   3.827   6.525 -1.0527  0.5050 -0.5734
14290TIP3    H142813   6.836   3.838   6.484 -1.0463 -0.3874 -0.8453
14290TIP3    H242814   6.903   3.820   6.619 -1.4599 -1.4178 -0.7737
14291TIP3   OH242815   1.756   7.876   0.734 -0.1441 -0.0327 -0.0547
14291TIP3    H142816   1.743   7.971   0.734 -0.5126 -0.0797 -0.3217
14291TIP3    H242817   1.810   7.859   0.811  0.8462  0.5168 -0.6146
14292TIP3   OH242818   7.573   2.868   6.727  0.4227  0.4465  0.0479
14292TIP3    H142819   7.654   2.915   6.705  0.8959  1.2693  3.2969
14292TIP3    H242820   7.597   2.813   6.801 -1.2777 -1.6159 -0.8699
14293TIP3   OH242821   1.243   4.935   0.225  0.0878 -0.1462  0.5544
14293TIP3    H142822   1.288   5.019   0.231  0.9320 -0.6051  0.7134
14293TIP3    H242823   1.218   4.927   0.132  3.6160 -1.5470 -0.3626
14294TIP3   OH242824   2.971   7.681   1.684  0.1377 -0.1317 -0.4550
14294TIP3    H142825   3.061   7.673   1.654 -0.1889  1.3710 -1.9312
14294TIP3    H242826   2.965   7.770   1.719 -0.8099 -0.1544 -0.5361
14295TIP3   OH242827   5.281   2.156   0.301 -0.3692 -0.0981 -0.2636
14295TIP3    H142828   5.216   2.197   0.359  0.1606  1.1998 -0.5747
14295TIP3    H242829   5.356   2.138   0.358 -0.7356 -0.9907 -0.0489
14296TIP3   OH242830   7.126   4.134   6.693  0.4296  0.2342  0.3915
14296TIP3    H142831   7.101   4.048   6.725 -0.9215  0.6777  0.5639
14296TIP3    H242832   7.056   4.158   6.632  2.1905  0.0537 -1.7452
14297TIP3   OH242833   4.419   1.920   2.404 -0.0063  0.0728  0.1751
14297TIP3    H142834   4.357   1.937   2.475 -1.7262  0.1539 -1.2988
14297TIP3    H242835   4.392   1.835   2.369  0.7789  0.0641 -0.4202
14298TIP3   OH242836   2.801   0.625   0.607 -0.3132  0.0170 -0.1616
14298TIP3    H142837   2.726   0.607   0.664 -0.8281 -1.7065 -1.3051
14298TIP3    H242838   2.863   0.554   0.626  0.8553  1.1958  0.4768
14299TIP3   OH242839   3.037   0.539   0.763 -0.3833 -0.3780 -0.4580
14299TIP3    H142840   2.961   0.509   0.812 -0.2240  1.8299  1.2219
14299TIP3    H242841   3.112   0.506   0.812 -0.2294  1.6580  0.7670
14300TIP3   OH242842   4.437   0.005   0.265  0.4277  0.4447 -0.6395
14300TIP3    H142843   4.442   0.090   0.309 -0.4451  1.0181 -1.6334
14300TIP3    H242844   4.527  -0.015   0.241  1.0639 -0.2726  2.1334
14301TIP3   OH242845   6.826   5.472   5.613 -0.3855 -0.5046 -0.1794
14301TIP3    H142846   6.856   5.409   5.548 -2.8565 -0.8242 -1.0459
14301TIP3    H242847   6.735   5.489   5.590 -0.0263  2.7257  0.5690
14302TIP3   OH242848   3.687   3.702   1.531 -0.3485  0.7328  1.1032
14302TIP3    H142849   3.676   3.673   1.441 -0.8255  0.4882  1.2356
14302TIP3    H242850   3.762   3.654   1.564  0.0975  1.1501  0.7027
14303TIP3   OH242851   0.981   7.416   0.931  0.1571 -0.0209 -0.5948
14303TIP3    H142852   1.055   7.381   0.882 -0.4176 -0.9842 -0.7776
14303TIP3    H242853   0.924   7.455   0.865  1.2864  2.2228 -0.3016
14304TIP3   OH242854   8.418   7.346   2.382  0.0724  0.2484  0.6619
14304TIP3    H142855   8.405   7.426   2.433 -0.8894 -0.1606  1.0587
14304TIP3    H242856   8.337   7.336   2.332  1.3213  1.1020 -1.6107
14305TIP3   OH242857   5.502   4.415   5.269  0.2322 -0.1823 -0.1883
14305TIP3    H142858   5.539   4.500   5.245  1.7985 -0.8764 -0.2283
14305TIP3    H242859   5.550   4.351   5.217 -0.6984 -1.1364  0.0969
14306TIP3   OH242860   6.392   6.335   4.801 -0.1876  0.7139 -0.2480
14306TIP3    H142861   6.412   6.246   4.829  0.5846  0.3732 -1.8423
14306TIP3    H242862   6.303   6.330   4.766 -0.5338  0.8007  0.5985
14307TIP3   OH242863   8.046   6.224   5.042 -0.1999 -0.5821 -0.0902
14307TIP3    H142864   8.018   6.181   5.122 -0.4277 -0.0897  0.0994
14307TIP3    H242865   8.129   6.266   5.065  0.9657 -2.4369 -0.7825
14308TIP3   OH242866   4.513   0.729   0.949  0.4330  0.5510  0.2265
14308TIP3    H142867   4.566   0.655   0.979 -1.0347  0.1142  1.8636
14308TIP3    H242868   4.575   0.802   0.942  1.5935 -0.4313  0.2070
14309TIP3   OH242869   8.227   4.126   6.209  0.0813  0.5349 -0.0752
14309TIP3    H142870   8.266   4.049   6.251 -0.0835  0.7305  0.4491
14309TIP3    H242871   8.246   4.116   6.116  0.2076 -0.0527  0.0146
14310TIP3   OH242872   0.608   4.501   6.552 -0.1655  0.7029 -0.1895
14310TIP3    H142873   0.692   4.476   6.592  0.5215  1.8920 -0.8741
14310TIP3    H242874   0.588   4.429   6.491 -0.1514 -0.0623  0.6864
14311TIP3   OH242875   7.179   6.146   4.574 -0.4810  0.0331  0.9341
14311TIP3    H142876   7.177   6.239   4.596 -1.5014  0.2110  0.0980
14311TIP3    H242877   7.237   6.141   4.498 -1.8114  0.2303 -0.1138
14312TIP3   OH242878   3.276   0.774   1.870 -0.4670 -0.2999  0.3458
14312TIP3    H142879   3.236   0.808   1.950  0.8188 -1.5603  1.5469
14312TIP3    H242880   3.249   0.683   1.866  0.0521 -0.4293 -0.2827
14313TIP3   OH242881   4.793   0.713   1.092  0.1833 -0.0624 -0.5372
14313TIP3    H142882   4.810   0.748   1.179  0.6257 -0.5684 -0.4208
14313TIP3    H242883   4.744   0.632   1.108 -1.9929  1.1303 -0.8413
14314TIP3   OH242884   5.242   1.103   2.576  0.1043 -0.2435  0.0669
14314TIP3    H142885   5.169   1.153   2.541  0.6832 -0.3510 -1.3012
14314TIP3    H242886   5.267   1.043   2.506  0.5455 -1.2382  1.0557
14315TIP3   OH242887   4.107   0.789   1.890 -0.0597 -0.0146 -0.8537
14315TIP3    H142888   4.017   0.804   1.860  0.2460  2.5800 -0.5803
14315TIP3    H242889   4.161   0.840   1.830  0.8434  2.3931  1.9004
14316TIP3   OH242890   7.829   5.281   5.345 -0.0114 -0.1338 -0.5241
14316TIP3    H142891   7.862   5.193   5.331  2.5297  0.9906 -1.9567
14316TIP3    H242892   7.783   5.303   5.264 -2.3427 -0.8005  0.5581
14317TIP3   OH242893   6.199   1.506   0.657 -0.2137 -0.4111 -0.2781
14317TIP3    H142894   6.293   1.505   0.672 -0.2393 -1.9104 -0.1179
14317TIP3    H242895   6.183   1.431   0.599 -1.1514  0.5591 -1.2916
14318TIP3   OH242896   7.862   5.436   6.121  0.2472 -0.5141  0.3354
14318TIP3    H142897   7.888   5.419   6.030  2.4613  2.3809  0.3558
14318TIP3    H242898   7.944   5.441   6.169 -0.7942 -0.0096  2.1028
14319TIP3   OH242899   8.116   5.421   6.223  0.2287 -0.1096  0.4000
14319TIP3    H142900   8.120   5.507   6.265 -0.2605  0.2746 -0.3172
14319TIP3    H242901   8.146   5.360   6.289  3.7153  0.9603 -0.0939
14320TIP3   OH242902   0.073   4.810   5.946 -0.0796  0.0240 -0.0065
14320TIP3    H142903  -0.022   4.817   5.934  0.0576  1.2404 -0.4047
14320TIP3    H242904   0.085   4.725   5.989 -1.4723  0.4971  1.3725
14321TIP3   OH242905   8.361   4.945   6.600 -0.1535  0.0745 -0.3074
14321TIP3    H142906   8.376   5.028   6.554  0.7435  0.3792  0.5292
14321TIP3    H242907   8.406   4.955   6.684 -1.8543 -0.4570  0.6812
14322TIP3   OH242908   0.096   6.164   6.555  0.4646  0.3225 -0.5658
14322TIP3    H142909   0.051   6.219   6.619  3.9276  3.3304 -0.5620
14322TIP3    H242910   0.134   6.093   6.607 -1.3708 -0.3510 -0.1180
14323TIP3   OH242911   0.854   6.415   6.796  0.1703  0.4704  0.0758
14323TIP3    H142912   0.812   6.354   6.734  0.8894 -0.5648  0.5858
14323TIP3    H242913   0.811   6.398   6.879  0.5788  0.4465  0.2836
14324TIP3   OH242914   1.395   5.198   5.017 -0.0648 -0.0736  0.5007
14324TIP3    H142915   1.431   5.220   4.932  0.4039 -2.7952 -0.0608
14324TIP3    H242916   1.469   5.166   5.068 -0.6513 -0.1345  1.3415
14325TIP3   OH242917   3.539   1.995   0.102 -0.1771  0.4542 -0.1702
14325TIP3    H142918   3.626   2.036   0.096  0.3558 -0.2873  1.9315
14325TIP3    H242919   3.478   2.065   0.078  0.9318  1.3436 -0.4593
14326TIP3   OH242920   0.314   7.774   1.124  0.5251 -0.0045 -0.3680
14326TIP3    H142921   0.335   7.792   1.216  1.5779  2.5137 -1.0576
14326TIP3    H242922   0.356   7.845   1.075 -1.6621 -0.2123 -2.6478
14327TIP3   OH242923   5.526   2.117   1.797 -0.0780  0.6394  0.4402
14327TIP3    H142924   5.579   2.190   1.830  1.3921 -0.2945  0.2193
14327TIP3    H242925   5.500   2.145   1.709  1.5072  0.3940 -0.1172
14328TIP3   OH242926   6.609   4.005   6.829 -0.3727 -0.5715  0.2825
14328TIP3    H142927   6.616   4.053   6.746  1.9419 -1.0155  0.2004
14328TIP3    H242928   6.626   4.070   6.896 -0.8917 -0.5017  0.3469
14329TIP3   OH242929   4.959   0.856   0.929  0.4414  0.4980  0.5946
14329TIP3    H142930   4.939   0.836   0.838  0.1391  0.1605  0.7362
14329TIP3    H242931   4.909   0.792   0.980 -0.5641  1.6426  1.0480
14330TIP3   OH242932   4.171   0.488   1.898  0.9482  0.2886 -0.6066
14330TIP3    H142933   4.144   0.577   1.875  0.2042  0.3480  0.4261
14330TIP3    H242934   4.089   0.437   1.895  1.4034 -0.4024 -1.4042
14331TIP3   OH242935   6.967   4.150   6.322 -0.1163 -0.1761  0.7126
14331TIP3    H142936   6.899   4.128   6.385 -0.0596 -0.2218  0.7569
14331TIP3    H242937   6.997   4.237   6.349 -1.6922  0.8081 -0.6119
14332TIP3   OH242938   8.197   1.303   2.180 -0.3531  0.3772 -0.6103
14332TIP3    H142939   8.187   1.287   2.274  1.7319 -0.1341 -0.4349
14332TIP3    H242940   8.240   1.224   2.147  0.8117  1.4054 -1.6164
14333TIP3   OH242941   1.172   0.410   2.205  0.1988  0.0753 -0.3342
14333TIP3    H142942   1.206   0.339   2.151  2.5477 -0.5364  1.9000
14333TIP3    H242943   1.234   0.482   2.192 -0.4988  0.7054 -0.2061
14334TIP3   OH242944   7.406   7.436   1.322 -0.0271  0.7599 -0.1726
14334TIP3    H142945   7.476   7.481   1.274  1.2435 -0.9124  0.0672
14334TIP3    H242946   7.372   7.372   1.259  0.2574 -0.0425  0.4839
14335TIP3   OH242947   2.374   4.832   6.670  0.5155 -0.1557 -0.2258
14335TIP3    H142948   2.410   4.753   6.629 -1.4992 -1.6183  0.7491
14335TIP3    H242949   2.412   4.833   6.758  2.7232  1.5136 -1.1610
14336TIP3   OH242950   5.051   3.472   3.148 -0.2211  0.6838 -0.3057
14336TIP3    H142951   5.023   3.407   3.085  0.4831  0.8266 -0.7695
14336TIP3    H242952   4.978   3.534   3.153 -0.5001  0.3742 -0.5726
14337TIP3   OH242953   7.444   3.042   1.120 -0.1632  0.0453  0.1505
14337TIP3    H142954   7.534   3.033   1.089 -0.7380  1.1216 -1.9727
14337TIP3    H242955   7.442   3.127   1.164  0.1472 -0.5165  1.2432
14338TIP3   OH242956   6.789   1.022   0.785  0.1786 -0.7941  0.6381
14338TIP3    H142957   6.730   1.003   0.858  0.2378 -0.1377  0.8534
14338TIP3    H242958   6.864   0.964   0.799  0.8385  0.3555  1.8733
14339TIP3   OH242959   6.934   0.907   1.777  0.2250 -0.2634 -0.0059
14339TIP3    H142960   6.856   0.879   1.825  0.0458 -1.2215 -0.8593
14339TIP3    H242961   6.970   0.827   1.740  1.5092  0.1990  0.2060
14340TIP3   OH242962   6.613   0.033   1.614 -0.2252  0.1973 -0.2778
14340TIP3    H142963   6.612   0.097   1.685 -0.1109  0.3393 -0.4043
14340TIP3    H242964   6.691   0.054   1.564 -1.2332  1.1949 -1.4574
14341TIP3   OH242965   6.114   3.278   2.075  0.4038  0.5438  0.2189
14341TIP3    H142966   6.146   3.280   2.165  2.5861 -1.4425 -0.4317
14341TIP3    H242967   6.110   3.184   2.054 -1.1869  0.9465 -1.3830
14342TIP3   OH242968   7.196   3.247   0.488 -0.0343  0.5519 -0.8795
14342TIP3    H142969   7.271   3.293   0.525 -0.5403  1.3627 -0.8478
14342TIP3    H242970   7.124   3.309   0.496 -1.4316 -1.3272  1.9391
14343TIP3   OH242971   8.496   2.430   1.154  0.4166 -0.3833 -0.0207
14343TIP3    H142972   8.462   2.519   1.168 -1.0896 -0.6288 -1.8746
14343TIP3    H242973   8.485   2.415   1.060  0.0679 -2.7741  0.3765
14344TIP3   OH242974   6.764   2.899   1.386 -0.4302 -0.6196  0.3595
14344TIP3    H142975   6.705   2.835   1.347 -2.8451  2.8652 -1.9493
14344TIP3    H242976   6.733   2.908   1.476 -1.3757 -1.1364  0.0953
14345TIP3   OH242977   3.529   7.861   0.697 -0.1793 -0.7920  0.0985
14345TIP3    H142978   3.474   7.927   0.741 -0.0460 -1.2339  0.9154
14345TIP3    H242979   3.469   7.817   0.637 -0.6209 -0.9635  0.6624
14346TIP3   OH242980   7.123   1.972   1.277  0.2495  0.2078  0.6449
14346TIP3    H142981   7.184   1.971   1.204  1.0130  0.0729  1.2782
14346TIP3    H242982   7.161   1.912   1.342 -0.9635 -0.5105  0.7162
14347TIP3   OH242983   6.724   1.420   0.691 -0.2279 -0.4578 -0.8279
14347TIP3    H142984   6.732   1.347   0.629  1.5264 -0.4500 -0.6497
14347TIP3    H242985   6.751   1.496   0.640 -1.1594 -0.0778 -0.7477
14348TIP3   OH242986   7.464   3.857   0.785 -0.0804 -0.0769  0.3122
14348TIP3    H142987   7.501   3.845   0.872  1.2427 -0.2018 -0.2602
14348TIP3    H242988   7.369   3.853   0.799  0.0629  1.5354  1.9927
14349TIP3   OH242989   2.084   7.080   5.959  0.3645  0.5255 -0.5063
14349TIP3    H142990   2.162   7.041   5.919  0.3754  0.2700 -0.2364
14349TIP3    H242991   2.022   7.089   5.887 -0.4401 -1.9919 -0.1885
14350TIP3   OH242992   7.035   1.438   0.421 -0.7358 -0.0049  0.0912
14350TIP3    H142993   7.019   1.346   0.443 -0.3350 -0.2842 -0.7727
14350TIP3    H242994   7.041   1.440   0.325  1.2990  0.5712  0.2012
14351TIP3   OH242995   5.982   3.677   1.404 -0.7476 -0.6597 -0.0441
14351TIP3    H142996   5.936   3.649   1.483  1.8367 -3.2289  0.6546
14351TIP3    H242997   5.997   3.771   1.417 -1.0136 -0.8915  2.1869
14352TIP3   OH242998   7.260   1.214   1.614  0.1534  0.0300 -0.4848
14352TIP3    H142999   7.180   1.222   1.563  0.1924  2.1063 -0.2471
14352TIP3    H243000   7.261   1.122   1.642 -0.5512 -0.8003 -3.0466
14353TIP3   OH243001   6.605   2.254   1.735  0.4308 -0.4595  0.0320
14353TIP3    H143002   6.609   2.207   1.652  0.3635  0.6835 -0.6191
14353TIP3    H243003   6.676   2.318   1.730 -0.5026  0.5978  0.2453
14354TIP3   OH243004   5.537   3.536   2.510 -0.4333  0.4321  0.6437
14354TIP3    H143005   5.503   3.475   2.576  0.4175  0.4225  1.0748
14354TIP3    H243006   5.471   3.535   2.441 -0.4982 -0.8661  0.7212
14355TIP3   OH243007   5.401   2.193   4.295  0.6481 -0.5264 -0.4108
14355TIP3    H143008   5.483   2.214   4.250  1.2100 -4.0199 -1.1983
14355TIP3    H243009   5.429   2.151   4.377 -0.3222 -1.7262 -0.6727
14356TIP3   OH243010   6.952   1.164   0.231 -0.6086  0.8950  0.8488
14356TIP3    H143011   6.879   1.103   0.225  1.4046 -1.6018  0.5846
14356TIP3    H243012   6.964   1.196   0.142 -0.6650  0.3925  0.6559
14357TIP3   OH243013   8.479   1.249   0.491 -0.2285 -0.0837 -0.1250
14357TIP3    H143014   8.390   1.233   0.461 -1.2236  1.1331  2.1155
14357TIP3    H243015   8.518   1.303   0.423 -1.6569  0.5780 -0.4200
14358TIP3   OH243016   5.927   2.893   2.260 -0.4167  0.0623 -0.2929
14358TIP3    H143017   5.904   2.888   2.167 -0.6792 -0.5552 -0.2029
14358TIP3    H243018   5.883   2.971   2.292 -0.9040 -0.1112 -0.5325
14359TIP3   OH243019   2.002   5.773   6.146  0.4232  0.9656 -0.1380
14359TIP3    H143020   1.954   5.697   6.180  0.8219  0.8635  0.1938
14359TIP3    H243021   1.947   5.805   6.074  1.4332 -1.1330 -1.9366
14360TIP3   OH243022   0.500   1.953   0.969  0.0505 -0.1331 -0.4604
14360TIP3    H143023   0.413   1.916   0.979  0.2858 -0.7363 -0.6197
14360TIP3    H243024   0.559   1.884   0.998  0.5162 -0.0941 -1.2825
14361TIP3   OH243025   7.258   1.065   0.435  0.5776  0.0986  0.6733
14361TIP3    H143026   7.343   1.110   0.435 -0.0399  1.3063  0.6638
14361TIP3    H243027   7.264   1.002   0.507  1.4175  0.3189  0.8036
14362TIP3   OH243028   7.907   2.096   1.367  0.0036 -0.4947 -0.1152
14362TIP3    H143029   7.911   2.127   1.457 -1.1087 -1.6476  0.3598
14362TIP3    H243030   7.997   2.099   1.336  0.3834 -0.0062  1.0107
14363TIP3   OH243031   6.779   3.103   1.710  0.3987 -0.2296  0.5405
14363TIP3    H143032   6.849   3.107   1.645  1.3932  1.1391  1.6521
14363TIP3    H243033   6.777   3.012   1.739  1.3984 -0.3748  0.1531
14364TIP3   OH243034   4.074   1.677   0.719 -0.3011 -0.4916  0.1360
14364TIP3    H143035   4.078   1.603   0.659 -0.1064 -0.1808 -0.2354
14364TIP3    H243036   4.041   1.640   0.801  1.0973 -1.2415  0.3606
14365TIP3   OH243037   0.807   7.775   6.492 -0.1176 -0.2737  0.3536
14365TIP3    H143038   0.792   7.868   6.473  1.4631  0.1954  1.3328
14365TIP3    H243039   0.722   7.743   6.523 -1.2565  0.2831 -2.0972
14366TIP3   OH243040   8.176   2.381   1.942  0.4171 -0.0658 -0.3645
14366TIP3    H143041   8.127   2.452   1.900 -0.9873 -0.5332  0.4491
14366TIP3    H243042   8.222   2.338   1.870  1.7688  2.0123 -0.7939
14367TIP3   OH243043   0.580   1.379   0.637 -0.2536 -0.0130 -0.0260
14367TIP3    H143044   0.601   1.316   0.706  0.4449 -0.7640 -0.9037
14367TIP3    H243045   0.484   1.377   0.631 -0.5010  1.9056  2.5987
14368TIP3   OH243046   8.272   0.890   1.940  0.4251  0.0008  0.2519
14368TIP3    H143047   8.241   0.970   1.899  0.2958  0.3601  1.0524
14368TIP3    H243048   8.350   0.917   1.989  0.0459 -0.2484  0.9962
14369TIP3   OH243049   0.297   0.988   1.359 -0.6967  0.5277  0.1992
14369TIP3    H143050   0.371   0.942   1.398 -0.2013  1.5942  0.5274
14369TIP3    H243051   0.235   0.919   1.337  1.8757 -0.8439 -3.4108
14370TIP3   OH243052   6.787   0.760   2.072 -0.3622 -0.6603  0.3282
14370TIP3    H143053   6.808   0.760   2.165 -1.3367 -0.3907  0.5537
14370TIP3    H243054   6.836   0.685   2.036  3.5838  1.8289  0.2116
14371TIP3   OH243055   0.544   5.322   0.683  0.5524 -0.1661  0.1283
14371TIP3    H143056   0.539   5.226   0.686 -2.5138 -0.0298  1.2378
14371TIP3    H243057   0.618   5.344   0.738  1.7621 -1.9267 -0.7398
14372TIP3   OH243058   1.666   5.761   6.820 -0.1505  0.0277  0.1056
14372TIP3    H143059   1.760   5.765   6.801 -0.5164  1.3388 -1.5203
14372TIP3    H243060   1.661   5.731   6.911  1.8260 -0.5382  0.0498
14373TIP3   OH243061   2.528   4.694   2.703  0.0698 -0.0992  0.4780
14373TIP3    H143062   2.500   4.606   2.678 -1.6493 -0.1447  2.3591
14373TIP3    H243063   2.553   4.736   2.621 -1.5340 -1.5146 -0.7640
14374TIP3   OH243064   0.857   4.619   0.851  0.0767 -0.0317  0.2593
14374TIP3    H143065   0.871   4.713   0.865  0.6829 -0.0405 -0.2813
14374TIP3    H243066   0.923   4.594   0.787  0.0546 -0.8764  0.5572
14375TIP3   OH243067   1.614   3.388   1.097 -0.1266 -0.3624  0.3669
14375TIP3    H143068   1.559   3.413   1.171  0.3236  0.4025  0.4506
14375TIP3    H243069   1.569   3.313   1.058  0.0706 -1.2924  1.8906
14376TIP3   OH243070   3.466   7.090   6.615  0.0138 -0.1266 -0.0730
14376TIP3    H143071   3.430   7.012   6.572 -3.1321  0.9965  0.4163
14376TIP3    H243072   3.476   7.154   6.545 -0.4367  0.0731  0.0429
14377TIP3   OH243073   6.680   0.516   6.344  0.6124  0.3095 -0.0155
14377TIP3    H143074   6.587   0.516   6.363  0.8738 -1.9779  1.4048
14377TIP3    H243075   6.721   0.483   6.423  2.6338  1.0976 -0.6924
14378TIP3   OH243076   4.353   5.115   6.967  0.0032  0.0978 -0.0264
14378TIP3    H143077   4.284   5.061   6.927  0.5025  0.0781 -0.8787
14378TIP3    H243078   4.374   5.180   6.900  1.6358 -0.6322 -0.2500
14379TIP3   OH243079   0.987   0.589   0.596 -0.0737  0.3571  0.3795
14379TIP3    H143080   1.064   0.572   0.652 -1.4405 -1.1176  1.8803
14379TIP3    H243081   1.009   0.547   0.513  0.2274 -1.2047  1.2248
14380TIP3   OH243082   2.656   5.974   5.513 -0.0531  0.1190  0.1036
14380TIP3    H143083   2.643   6.028   5.435  0.5823 -1.5867 -1.1843
14380TIP3    H243084   2.747   5.945   5.508 -0.2136 -0.5816  1.1081
14381TIP3   OH243085   4.509   4.475   6.514 -0.4940  0.4775 -0.0092
14381TIP3    H143086   4.584   4.492   6.571 -0.4009  1.1133 -0.3199
14381TIP3    H243087   4.536   4.400   6.461 -1.0183 -0.8506  1.5627
14382TIP3   OH243088   7.734   3.155   0.713  0.2764  0.2323  0.5268
14382TIP3    H143089   7.671   3.122   0.649 -0.8323  1.0677  1.1650
14382TIP3    H243090   7.715   3.106   0.793  1.0680 -0.1771  0.4705
14383TIP3   OH243091   7.950   4.131   0.089  0.1272 -0.3469  0.6388
14383TIP3    H143092   7.930   4.076   0.164  0.3458 -1.6724 -0.2534
14383TIP3    H243093   7.999   4.074   0.029 -0.7216  0.4487 -0.8574
14384TIP3   OH243094   2.009   3.840   0.921 -0.1205  0.3137  0.0903
14384TIP3    H143095   2.084   3.786   0.896  0.5130  1.0340  0.4036
14384TIP3    H243096   2.041   3.892   0.995 -0.7986  0.9365 -0.0480
14385TIP3   OH243097   1.707   1.256   2.938 -0.1558 -0.6601 -0.0297
14385TIP3    H143098   1.685   1.349   2.948 -2.8472 -0.9504 -2.7089
14385TIP3    H243099   1.681   1.216   3.021 -2.0858  0.4260 -0.1013
14386TIP3   OH243100   2.251   7.495   5.337 -0.0433  0.3809  0.4072
14386TIP3    H143101   2.220   7.557   5.403 -0.8427  1.0909 -0.6176
14386TIP3    H243102   2.207   7.412   5.359 -0.8841  0.8002  0.3213
14387TIP3   OH243103   7.279   3.451   1.719 -0.1467  0.0005 -0.4198
14387TIP3    H143104   7.291   3.385   1.786  0.5586 -0.8115 -1.3343
14387TIP3    H243105   7.185   3.472   1.722 -0.3742 -1.0627 -0.1455
14388TIP3   OH243106   0.681   5.927   6.709 -0.0855 -0.4662  0.0531
14388TIP3    H143107   0.602   5.935   6.656 -0.6201 -1.3500  0.7130
14388TIP3    H243108   0.649   5.907   6.797  0.8727 -0.7300  0.3470
14389TIP3   OH243109   0.142   3.232   1.435  0.3383 -0.0390  0.0212
14389TIP3    H143110   0.072   3.250   1.372 -1.3626  0.3263  1.9547
14389TIP3    H243111   0.221   3.267   1.393 -0.6653 -0.1507 -2.0548
14390TIP3   OH243112   5.415   4.283   2.220  0.0586 -0.3497  0.2906
14390TIP3    H143113   5.324   4.304   2.241  0.1421 -1.1193  1.4875
14390TIP3    H243114   5.409   4.224   2.145 -0.3122  1.2791 -0.9903
14391TIP3   OH243115   0.700   0.710   1.736 -0.5717  0.5040 -0.0503
14391TIP3    H143116   0.625   0.651   1.738 -1.6960  1.8550 -1.1206
14391TIP3    H243117   0.682   0.774   1.806  0.1600  0.1559  0.4613
14392TIP3   OH243118   1.618   3.313   3.032  0.3970  0.2487  0.2176
14392TIP3    H143119   1.697   3.263   3.011  0.3680 -0.2302  1.1818
14392TIP3    H243120   1.649   3.403   3.044  0.7642  0.1046  0.3612
14393TIP3   OH243121   1.169   2.723   3.077 -0.4558 -0.2450  0.0827
14393TIP3    H143122   1.112   2.677   3.015 -2.3988  2.0826  0.0476
14393TIP3    H243123   1.139   2.814   3.073  1.5053  0.5246  2.1036
14394TIP3   OH243124   2.258   6.498   6.803 -0.2008  0.0744  0.1831
14394TIP3    H143125   2.305   6.424   6.841 -2.4604 -0.9249  1.1137
14394TIP3    H243126   2.218   6.463   6.724 -0.5800  0.5072  0.1812
14395TIP3   OH243127   1.157   3.175   0.701 -0.0427 -0.2793 -0.9842
14395TIP3    H143128   1.061   3.181   0.698 -0.0541 -0.4970 -1.0461
14395TIP3    H243129   1.186   3.255   0.657 -0.1796  0.6063  0.4871
14396TIP3   OH243130   0.725   2.815   0.818  0.4448 -0.0456  0.1604
14396TIP3    H143131   0.703   2.866   0.895  1.8450 -1.5149  1.5816
14396TIP3    H243132   0.787   2.749   0.850  0.6387 -1.0111 -2.1091
14397TIP3   OH243133   4.005   5.316   6.672  0.2789 -0.0656  0.1445
14397TIP3    H143134   4.073   5.339   6.609 -0.7240 -1.9065 -1.6526
14397TIP3    H243135   3.988   5.223   6.658 -0.0150 -0.5253  3.1265
14398TIP3   OH243136   2.060   1.739   0.617 -0.5430 -0.0579  0.2800
14398TIP3    H143137   2.014   1.658   0.595 -0.1814 -0.5833  1.4117
14398TIP3    H243138   2.140   1.736   0.564 -0.4074 -0.5805  0.5054
14399TIP3   OH243139   0.879   0.071   0.355  0.1099  0.0621  0.0196
14399TIP3    H143140   0.817   0.068   0.428  1.0047  0.9036  0.8350
14399TIP3    H243141   0.960   0.036   0.391 -0.3866 -2.8610 -1.5820
14400TIP3   OH243142   7.838   4.127   1.727 -0.6877  0.2407  0.8079
14400TIP3    H143143   7.874   4.042   1.705 -0.2206  0.4582  0.7310
14400TIP3    H243144   7.910   4.189   1.713 -1.1964  0.7274  0.2376
14401TIP3   OH243145   3.506   6.981   5.846  0.2861  0.1578  0.0998
14401TIP3    H143146   3.476   7.000   5.935 -1.6797 -0.5678 -0.3764
14401TIP3    H243147   3.516   7.067   5.805 -0.4652  0.4433  0.5035
14402TIP3   OH243148   3.109   6.946   6.362  0.3192 -0.0700 -0.8748
14402TIP3    H143149   3.053   6.926   6.437  0.1613  0.8536 -0.7358
14402TIP3    H243150   3.057   6.921   6.285  0.4671 -0.9804 -0.6783
14403TIP3   OH243151   0.757   2.482   1.311  0.2617 -0.2848  0.1563
14403TIP3    H143152   0.713   2.509   1.392 -0.1212  0.0927 -0.1803
14403TIP3    H243153   0.781   2.564   1.268  1.6781 -0.4854  0.5470
14404TIP3   OH243154   0.098   2.149   1.584 -0.2385 -0.4833 -0.3636
14404TIP3    H143155   0.059   2.071   1.545 -0.0259 -0.7869  0.0390
14404TIP3    H243156   0.061   2.222   1.533 -0.1195 -0.8667 -1.0022
14405TIP3   OH243157   0.959   3.437   0.064 -0.1868  0.0358  0.3770
14405TIP3    H143158   1.028   3.376   0.090  1.1516  1.5649  0.4918
14405TIP3    H243159   0.911   3.391  -0.004  1.4786 -0.7453 -0.3094
14406TIP3   OH243160   1.898   2.729   1.841 -0.3454 -0.0146  0.7214
14406TIP3    H143161   1.893   2.817   1.877  0.7274 -0.6562  2.5073
14406TIP3    H243162   1.921   2.674   1.916  0.4235 -1.6092 -0.6565
14407TIP3   OH243163   1.323   6.959   6.765  0.0669 -0.2890  0.0317
14407TIP3    H143164   1.322   6.927   6.856 -0.8276  0.9348  0.4685
14407TIP3    H243165   1.366   6.889   6.716  1.6408 -0.4581  1.5833
14408TIP3   OH243166   3.707   5.161   6.704  0.0355  0.1532 -0.2808
14408TIP3    H143167   3.737   5.142   6.615  2.6381  3.0898 -0.0927
14408TIP3    H243168   3.628   5.214   6.692  1.1137  1.6390 -0.8580
14409TIP3   OH243169   1.806   5.299   0.880 -0.2967  0.0760  0.6668
14409TIP3    H143170   1.837   5.232   0.941  1.0917  0.7628  0.7242
14409TIP3    H243171   1.864   5.373   0.893 -0.6549  0.6295 -0.7280
14410TIP3   OH243172   1.720   7.825   5.489 -0.0501 -0.6243  0.2985
14410TIP3    H143173   1.635   7.818   5.446 -0.1814  0.7843  0.3019
14410TIP3    H243174   1.782   7.835   5.418 -0.0593 -0.1457  0.3567
14411TIP3   OH243175   2.472   6.877   6.660  0.1645  0.7678 -0.3505
14411TIP3    H143176   2.423   6.865   6.742 -0.5330  0.8095 -0.7579
14411TIP3    H243177   2.469   6.972   6.645  0.8242  0.8344 -0.1071
14412TIP3   OH243178   7.687   0.369   4.965 -0.4362 -0.3962  0.0105
14412TIP3    H143179   7.727   0.282   4.960  0.0237 -0.1554 -0.4788
14412TIP3    H243180   7.745   0.418   5.022  1.1741  0.6041 -2.4290
14413TIP3   OH243181   2.886   2.827   0.062 -0.0761  0.1441  0.2061
14413TIP3    H143182   2.832   2.804   0.137 -0.3562 -0.0909 -0.0658
14413TIP3    H243183   2.838   2.792  -0.014 -0.7886  2.0814 -0.2704
14414TIP3   OH243184   1.497   0.313   1.437 -0.3504  0.0698  0.4269
14414TIP3    H143185   1.405   0.303   1.410 -0.1687 -1.0523  0.2142
14414TIP3    H243186   1.547   0.267   1.370  0.3485  0.4214  0.7064
14415TIP3   OH243187   1.525   0.821   1.334 -0.1544  0.2827 -0.6585
14415TIP3    H143188   1.527   0.728   1.310 -0.8891  0.2865 -0.7420
14415TIP3    H243189   1.582   0.864   1.270 -0.6002  0.0283 -1.2304
14416TIP3   OH243190   0.040   4.131   0.202  0.1506  0.0384  0.1064
14416TIP3    H143191   0.055   4.225   0.191 -0.7535  0.1926  0.1536
14416TIP3    H243192   0.126   4.095   0.222  0.6217  0.7513 -0.6365
14417TIP3   OH243193   3.578   6.414   6.469  0.1249 -0.0779 -0.2684
14417TIP3    H143194   3.661   6.400   6.423 -0.1525 -1.3243 -0.4137
14417TIP3    H243195   3.572   6.509   6.480  1.7414 -0.0024  0.0670
14418TIP3   OH243196   0.123   1.028   1.775  0.2872  0.1893  0.5456
14418TIP3    H143197   0.158   1.074   1.851  0.5401  0.3401  0.3406
14418TIP3    H243198   0.046   1.078   1.749  2.0200  2.0169 -1.2417
14419TIP3   OH243199   0.104   2.029   0.507 -0.2662  0.3301 -0.0163
14419TIP3    H143200   0.118   2.124   0.513  3.7548 -0.1401 -0.8966
14419TIP3    H243201   0.112   1.998   0.597 -1.7358  0.8010  0.2953
14420TIP3   OH243202   0.812   2.305   0.836  0.5448 -0.5145 -0.2719
14420TIP3    H143203   0.843   2.284   0.924  0.2625  0.2832  0.0177
14420TIP3    H243204   0.719   2.282   0.837 -0.4175  3.1316  0.8593
14421TIP3   OH243205   6.322   2.149   2.558 -0.0601  0.3736  0.2804
14421TIP3    H143206   6.299   2.168   2.467 -0.6154 -0.5948  0.2074
14421TIP3    H243207   6.264   2.205   2.609  1.2306  1.9695  0.0324
14422TIP3   OH243208   5.284   6.847   0.231 -0.0774 -0.1665 -0.5384
14422TIP3    H143209   5.235   6.916   0.276  0.6937 -0.0608  0.1502
14422TIP3    H243210   5.268   6.863   0.138 -1.4980 -0.2441 -0.3220
14423TIP3   OH243211   1.564   6.095   6.493 -0.3290 -0.0209 -0.4450
14423TIP3    H143212   1.523   6.079   6.578  0.4641  0.5093  0.0425
14423TIP3    H243213   1.644   6.144   6.514 -1.2995  2.1744 -1.6512
14424TIP3   OH243214   4.892   3.975   2.036 -0.3141  0.1064  0.0728
14424TIP3    H143215   4.945   4.054   2.046 -0.3426  0.2428 -0.8475
14424TIP3    H243216   4.864   3.954   2.125 -1.3208  1.8490  0.1947
14425TIP3   OH243217   8.258   1.798   0.845 -0.2416 -0.0031 -0.0231
14425TIP3    H143218   8.300   1.818   0.761 -1.3922 -1.0302 -0.8757
14425TIP3    H243219   8.199   1.872   0.861  0.6318  0.6240  0.3355
14426TIP3   OH243220   7.008   1.473   0.823  0.1811 -0.4411  0.5039
14426TIP3    H143221   6.920   1.439   0.811  0.5386 -1.2935  0.2635
14426TIP3    H243222   7.021   1.533   0.750  0.4315 -1.6242 -0.4246
14427TIP3   OH243223   1.392   2.106   0.812  0.6628 -0.3851  0.6279
14427TIP3    H143224   1.468   2.119   0.755  0.3223  0.0268  0.2629
14427TIP3    H243225   1.369   2.194   0.842 -1.1905 -0.2044 -1.2435
14428TIP3   OH243226   7.870   1.880   0.724  0.0402 -0.1637  0.4665
14428TIP3    H143227   7.846   1.787   0.724 -3.3930  0.6019 -1.8649
14428TIP3    H243228   7.933   1.888   0.652  2.2192 -1.0374  2.2221
14429TIP3   OH243229   0.731   2.866   1.091  0.3649 -0.4059 -0.2640
14429TIP3    H143230   0.785   2.919   1.149 -0.8109  1.6015 -0.9560
14429TIP3    H243231   0.655   2.841   1.144 -0.6973  1.4075 -0.8816
14430TIP3   OH243232   1.887   1.797   1.000 -0.0576  0.0883  0.3140
14430TIP3    H143233   1.859   1.884   0.972  1.4172  0.7703  0.9264
14430TIP3    H243234   1.970   1.782   0.955 -0.9225 -1.5464 -0.7899
14431TIP3   OH243235   6.503   4.361   0.972  0.1019 -0.0094 -0.1753
14431TIP3    H143236   6.570   4.345   1.039 -1.0120  0.2270  1.0031
14431TIP3    H243237   6.546   4.335   0.890  1.3788 -0.5862  0.6442
14432TIP3   OH243238   1.112   4.098   0.864  0.1874 -0.1521 -0.1338
14432TIP3    H143239   1.177   4.048   0.914 -1.0436 -1.7521 -0.1014
14432TIP3    H243240   1.098   4.047   0.785 -0.8441  0.3106 -0.2550
14433TIP3   OH243241   1.648   0.576   2.193 -0.1928 -0.3777  0.2326
14433TIP3    H143242   1.560   0.569   2.230  0.3771 -1.2870  1.4542
14433TIP3    H243243   1.639   0.543   2.103 -1.1460 -0.2322  0.2702
14434TIP3   OH243244   0.182   3.673   2.210  0.2944 -0.2860 -0.6415
14434TIP3    H143245   0.265   3.690   2.256  0.2665 -0.4473 -0.5327
14434TIP3    H243246   0.205   3.677   2.118  0.1846  0.9110 -0.6278
14435TIP3   OH243247   7.680   2.974   0.920  0.2947 -0.2594  0.3469
14435TIP3    H143248   7.773   2.953   0.933  1.0423  0.9703 -2.5840
14435TIP3    H243249   7.641   2.894   0.886  0.6579 -0.2342 -0.1200
14436TIP3   OH243250   1.911   2.750   0.616  0.7675  0.1677 -0.3780
14436TIP3    H143251   1.828   2.797   0.606  0.9138  0.1115 -2.1172
14436TIP3    H243252   1.942   2.739   0.526  1.8708 -1.2313  0.1678
14437TIP3   OH243253   0.231   2.082  -0.001 -0.1265  0.2222  0.0696
14437TIP3    H143254   0.244   2.168  -0.039 -1.0834  0.5823  0.5407
14437TIP3    H243255   0.314   2.061   0.041  0.4669  0.4311 -0.9860
14438TIP3   OH243256   3.881   7.104   6.357 -0.4282 -0.0873  0.2071
14438TIP3    H143257   3.810   7.120   6.294 -0.5046 -1.0550  0.0479
14438TIP3    H243258   3.960   7.127   6.308 -0.5881  0.5417  0.2307
14439TIP3   OH243259   6.367   1.287   0.813  0.0695 -0.0789  0.0869
14439TIP3    H143260   6.299   1.284   0.881 -0.0987  2.5542  0.0678
14439TIP3    H243261   6.334   1.230   0.744 -1.1282 -0.4791  0.9688
14440TIP3   OH243262   4.917   7.966   0.855 -0.0490  0.0561  0.2602
14440TIP3    H143263   4.947   8.051   0.886  0.1238  0.2960 -0.5431
14440TIP3    H243264   4.924   7.908   0.931 -1.5070  1.0829  1.2059
14441TIP3   OH243265   5.200   7.823   6.350 -0.0453 -0.5172 -0.1067
14441TIP3    H143266   5.180   7.859   6.264 -2.0772 -0.4896  0.3446
14441TIP3    H243267   5.193   7.728   6.339  1.6027 -0.6195 -0.4089
14442TIP3   OH243268   4.374   7.200   4.573  0.0915  0.0289  1.0942
14442TIP3    H143269   4.421   7.164   4.498 -1.4148  0.8848 -0.3157
14442TIP3    H243270   4.434   7.191   4.646  1.2670 -1.6455 -0.0388
14443TIP3   OH243271   2.727   3.888   1.358 -0.5616  0.2783 -0.6965
14443TIP3    H143272   2.647   3.908   1.310  0.4920  1.2520 -2.0961
14443TIP3    H243273   2.758   3.806   1.320 -1.3802 -0.6022  0.5005
14444TIP3   OH243274   1.393   3.408   1.352  0.3918 -0.1111  0.0430
14444TIP3    H143275   1.391   3.313   1.354  1.0138 -0.1013  1.5364
14444TIP3    H243276   1.301   3.434   1.349  0.1683 -0.7279  1.4555
14445TIP3   OH243277   2.315   6.841   4.822 -0.3590 -0.2166  0.4758
14445TIP3    H143278   2.236   6.798   4.789 -0.5329 -0.6835  1.4724
14445TIP3    H243279   2.287   6.930   4.845 -0.2283  0.1208 -0.6533
14446TIP3   OH243280   1.988   7.770   6.568  0.1902  0.3517  0.5284
14446TIP3    H143281   1.921   7.838   6.551  1.1604  1.2095  0.0694
14446TIP3    H243282   1.966   7.737   6.655  1.0320  2.8435  1.7456
14447TIP3   OH243283   2.525   3.966   1.195  0.4973 -0.7285  0.1784
14447TIP3    H143284   2.478   4.004   1.120  1.4264  0.1828  0.0425
14447TIP3    H243285   2.456   3.939   1.255 -0.2143  0.6869  0.0247
14448TIP3   OH243286   8.374   2.241   0.131  0.0187 -0.4030 -0.8231
14448TIP3    H143287   8.452   2.283   0.165 -0.5445 -0.8223  1.0357
14448TIP3    H243288   8.406   2.175   0.069  1.1050 -0.3525 -0.3130
14449TIP3   OH243289   0.992   7.311   6.232 -0.0123 -0.2723  0.4030
14449TIP3    H143290   0.985   7.403   6.205 -0.0765 -0.2649  0.4467
14449TIP3    H243291   1.023   7.266   6.154 -2.2618 -0.6057 -0.3105
14450TIP3   OH243292   0.611   3.681   1.835  0.4232 -0.6653 -0.4232
14450TIP3    H143293   0.622   3.762   1.785  1.6833 -0.2668  0.4779
14450TIP3    H243294   0.700   3.658   1.862  0.0991 -2.4470 -0.8254
14451TIP3   OH243295   0.619   1.824   0.663  0.2238  0.0133  0.5197
14451TIP3    H143296   0.688   1.880   0.627 -0.4369  0.6078  0.1606
14451TIP3    H243297   0.665   1.749   0.699  0.7707 -1.4088 -3.0255
14452TIP3   OH243298   0.757   2.147   1.552  0.5988 -0.4601  0.5158
14452TIP3    H143299   0.803   2.104   1.479  0.2376  0.2987 -0.1740
14452TIP3    H243300   0.816   2.218   1.578  0.7561 -0.7711  1.0123
14453TIP3   OH243301   3.820   7.830   6.002 -0.4297  0.1069  0.4710
14453TIP3    H143302   3.838   7.909   6.051  2.0729 -0.9387  1.2843
14453TIP3    H243303   3.771   7.774   6.063 -0.2383  0.1266  0.6411
14454TIP3   OH243304   1.716   1.933   0.572 -0.0071 -0.4144  0.1284
14454TIP3    H143305   1.770   1.871   0.524 -1.6909 -1.8478  0.0325
14454TIP3    H243306   1.627   1.918   0.539 -0.7747  0.4818  1.7252
14455TIP3   OH243307   5.087   3.561   6.478 -0.1164 -0.2623 -0.2569
14455TIP3    H143308   5.029   3.589   6.549 -2.9848  0.0245 -2.6422
14455TIP3    H243309   5.092   3.466   6.487 -1.6023 -0.3726 -0.4781
14456TIP3   OH243310   0.880   7.245   5.938 -0.2687 -0.2560 -0.0748
14456TIP3    H143311   0.794   7.217   5.968 -1.2801 -0.1853 -2.7657
14456TIP3    H243312   0.864   7.329   5.896  1.0701 -0.3370 -0.7627
14457TIP3   OH243313   5.300   2.315   1.914  0.4180  0.3818  0.8290
14457TIP3    H143314   5.333   2.248   1.854 -1.2930  0.8541 -0.6953
14457TIP3    H243315   5.364   2.385   1.909  0.4633  0.2733 -0.2128
14458TIP3   OH243316   1.120   2.228   0.605 -1.0940 -0.1991 -0.7009
14458TIP3    H143317   1.062   2.301   0.628 -0.3867  1.4790 -3.9382
14458TIP3    H243318   1.208   2.267   0.604 -0.5727 -1.3544 -1.3496
14459TIP3   OH243319   0.613   5.061   6.240 -0.0384 -0.6063 -0.1454
14459TIP3    H143320   0.525   5.096   6.229  0.5643  0.8735 -0.2681
14459TIP3    H243321   0.637   5.028   6.154 -1.0408 -2.3759  0.2274
14460TIP3   OH243322   8.179   3.776   0.220 -0.0705 -0.0990  0.2515
14460TIP3    H143323   8.110   3.842   0.216  0.4246  0.3984 -0.2861
14460TIP3    H243324   8.251   3.815   0.171  0.1895 -1.0812 -0.1570
14461TIP3   OH243325   7.742   1.658   0.715  0.5254 -0.2101  0.4764
14461TIP3    H143326   7.692   1.668   0.795 -2.6429 -1.1412 -1.3208
14461TIP3    H243327   7.766   1.566   0.712 -0.0714 -0.3513 -0.0444
14462TIP3   OH243328   1.225   0.216   0.910 -0.0117  0.5342  0.1826
14462TIP3    H143329   1.226   0.237   1.003 -0.0604  1.0651  0.0670
14462TIP3    H243330   1.317   0.201   0.887 -0.2616 -2.1961  0.8847
14463TIP3   OH243331   2.749   7.464   6.149  0.3247 -0.6052  0.2506
14463TIP3    H143332   2.786   7.542   6.190 -0.2145 -0.5860  0.6948
14463TIP3    H243333   2.825   7.419   6.110  0.6221  0.1987 -0.1160
14464TIP3   OH243334   0.889   2.175   1.079  0.9205 -0.1530  0.3518
14464TIP3    H143335   0.921   2.225   1.154 -0.0737  1.2155 -0.1098
14464TIP3    H243336   0.803   2.143   1.105  0.1419  1.1528 -0.5278
14465TIP3   OH243337   7.257   2.344   1.737  0.1136  0.3227 -0.5850
14465TIP3    H143338   7.326   2.279   1.721  1.2707  1.9527 -2.3394
14465TIP3    H243339   7.189   2.322   1.674 -0.0123  0.0766 -0.3633
14466TIP3   OH243340   3.138   5.350   5.873  0.3854 -0.2328  0.3907
14466TIP3    H143341   3.074   5.386   5.812  1.9048  1.5633 -0.1995
14466TIP3    H243342   3.223   5.382   5.841  1.4455 -1.3438  1.9884
14467TIP3   OH243343   6.506   2.597   1.621 -0.2748 -0.1713  0.1031
14467TIP3    H143344   6.499   2.543   1.542 -1.2529 -0.0200  0.0894
14467TIP3    H243345   6.492   2.535   1.693  0.1833 -0.2253  0.1514
14468TIP3   OH243346   4.096   4.753   6.303  0.1937  0.2256  0.1093
14468TIP3    H143347   4.020   4.747   6.245  0.0911 -0.4048  0.3070
14468TIP3    H243348   4.130   4.664   6.307  1.2262  0.5979 -0.3503
14469TIP3   OH243349   0.380   5.249   0.949  0.3806  0.2376  0.2086
14469TIP3    H143350   0.402   5.336   0.981 -0.8555  0.0636  1.6107
14469TIP3    H243351   0.423   5.189   1.010 -1.2829 -0.1009  1.0866
14470TIP3   OH243352   0.465   0.517   0.711  0.9754  0.5453  0.6808
14470TIP3    H143353   0.378   0.483   0.733  1.1417 -0.5580 -0.3119
14470TIP3    H243354   0.496   0.559   0.791 -1.4866  3.1202  0.3353
14471TIP3   OH243355   8.485   2.338   2.947 -0.9348 -0.3367 -0.2322
14471TIP3    H143356   8.444   2.422   2.967 -2.0401 -1.0906  0.7428
14471TIP3    H243357   8.445   2.312   2.864 -0.6165  0.0655 -0.5190
14472TIP3   OH243358   7.631   3.692   0.267 -0.0566  0.6172  0.2803
14472TIP3    H143359   7.691   3.703   0.340 -0.4441 -1.6235  0.9607
14472TIP3    H243360   7.683   3.649   0.199  0.0259  1.7756 -0.4037
14473TIP3   OH243361   1.601   7.002   6.820  0.4204 -0.4429  0.1823
14473TIP3    H143362   1.584   7.081   6.872  1.2869 -0.8399  1.0806
14473TIP3    H243363   1.515   6.976   6.788  0.2948  1.7134 -1.3767
14474TIP3   OH243364   3.213   5.476   6.144 -0.3463 -0.1181 -0.0318
14474TIP3    H143365   3.204   5.554   6.090 -1.4696 -0.1793  0.0730
14474TIP3    H243366   3.210   5.507   6.234  0.2947 -0.1632  0.0110
14475TIP3   OH243367   8.382   0.423   2.282 -0.1556 -0.1101  0.2776
14475TIP3    H143368   8.303   0.432   2.335  0.4760  0.0132  1.2071
14475TIP3    H243369   8.443   0.488   2.319 -0.3400  1.2478 -1.7395
14476TIP3   OH243370   0.222   1.032   2.337 -0.0161 -0.0717  0.3689
14476TIP3    H143371   0.283   1.045   2.409 -0.7956  1.3185  0.8016
14476TIP3    H243372   0.227   0.939   2.317  1.7742 -0.0805  0.7994
14477TIP3   OH243373   0.535   2.303   1.533 -0.0682 -0.1362 -0.3368
14477TIP3    H143374   0.607   2.239   1.533 -0.3986 -0.5543  1.5098
14477TIP3    H243375   0.578   2.386   1.553  0.0400 -0.2206 -0.2089
14478TIP3   OH243376   3.726   5.492   5.518  0.0304 -0.2510 -0.4547
14478TIP3    H143377   3.770   5.476   5.434 -0.4317  1.4096 -1.0153
14478TIP3    H243378   3.639   5.523   5.494 -0.0630  0.3536  0.6465
14479TIP3   OH243379   5.336   7.676   2.122  0.0773 -0.2098  0.4030
14479TIP3    H143380   5.336   7.705   2.031  0.4707 -0.9210  0.1746
14479TIP3    H243381   5.384   7.593   2.121 -0.2583 -0.4189  1.1926
14480TIP3   OH243382   4.483   5.625   6.923 -0.5020  0.5291  0.1712
14480TIP3    H143383   4.422   5.576   6.979 -1.3420  0.4443 -0.8034
14480TIP3    H243384   4.428   5.657   6.851  0.8972 -0.8185 -1.5250
14481TIP3   OH243385   0.606   4.407   0.586 -0.1779  0.4239  0.3587
14481TIP3    H143386   0.676   4.458   0.546  0.2401 -0.6041 -0.2318
14481TIP3    H243387   0.631   4.401   0.678  1.6369 -1.7275 -0.2201
14482TIP3   OH243388   0.954   5.268   5.593 -0.6797  0.1815  0.0166
14482TIP3    H143389   1.032   5.212   5.587 -0.5064  0.4898 -0.6411
14482TIP3    H243390   0.990   5.357   5.595 -1.0276  0.3290 -0.4203
14483TIP3   OH243391   0.832   4.108   0.429 -0.0042 -0.1805  0.4988
14483TIP3    H143392   0.828   4.175   0.360  1.1328 -0.3727  0.2425
14483TIP3    H243393   0.853   4.156   0.508 -1.7894  0.1078  0.8237
14484TIP3   OH243394   6.157   0.349   5.899 -0.0889 -0.2843 -0.0614
14484TIP3    H143395   6.108   0.392   5.970  1.0588 -0.4118  0.8263
14484TIP3    H243396   6.190   0.268   5.938  0.9079 -0.1501 -0.6063
14485TIP3   OH243397   8.485   2.871   0.882  0.1053 -0.5534 -0.0443
14485TIP3    H143398   8.420   2.835   0.821 -1.1400  1.3322  0.1388
14485TIP3    H243399   8.508   2.956   0.845  1.4859 -0.6277  0.6215
14486TIP3   OH243400   0.498   7.556   6.020  0.6073 -0.2513  0.0257
14486TIP3    H143401   0.482   7.467   5.988  0.9593 -0.0002 -0.8560
14486TIP3    H243402   0.521   7.606   5.942 -0.0195  0.7245  0.4548
14487TIP3   OH243403   6.287   0.038   5.297 -0.6032 -0.2840  0.2204
14487TIP3    H143404   6.372  -0.007   5.289 -0.4371 -0.1648  1.1719
14487TIP3    H243405   6.266   0.066   5.208  0.9148  0.6931  0.1474
14488TIP3   OH243406   5.191   6.344   6.788 -0.1062  0.2093  0.0888
14488TIP3    H143407   5.211   6.276   6.723  0.5200  1.4842 -1.0690
14488TIP3    H243408   5.132   6.301   6.850  0.6617 -1.5336 -0.3591
14489TIP3   OH243409   2.170   2.214   0.023 -0.5964  0.1423 -1.1236
14489TIP3    H143410   2.111   2.241   0.093 -0.6376  0.9208 -1.4528
14489TIP3    H243411   2.188   2.121   0.040  1.7265  1.0371  1.5884
14490TIP3   OH243412   8.293   2.187   2.361 -0.0607  0.0981 -0.9438
14490TIP3    H143413   8.198   2.192   2.370 -0.4031 -1.9875 -2.9583
14490TIP3    H243414   8.319   2.271   2.325 -0.9237  1.2805  1.1122
14491TIP3   OH243415   2.160   2.995   3.484 -0.5658 -0.1621 -0.0195
14491TIP3    H143416   2.191   2.918   3.438 -3.0770 -0.7572 -0.7741
14491TIP3    H243417   2.174   3.067   3.423  0.9036 -0.1230  0.3283
14492TIP3   OH243418   0.489   0.873   1.505  0.1670 -0.3372  0.3264
14492TIP3    H143419   0.515   0.939   1.569 -3.3063  0.5771  0.8647
14492TIP3    H243420   0.437   0.810   1.556  0.3436 -1.5145 -0.9181
14493TIP3   OH243421   3.009   5.681   5.344 -0.9212  0.1172  0.4509
14493TIP3    H143422   3.077   5.614   5.352 -0.7372  0.1180 -0.8611
14493TIP3    H243423   3.054   5.754   5.302 -1.5397  0.4213  0.3187
14494TIP3   OH243424   0.949   3.463   0.803 -0.0536  0.1989  0.3423
14494TIP3    H143425   0.913   3.452   0.716 -0.9916 -0.4435  0.8048
14494TIP3    H243426   0.881   3.510   0.852  0.0610 -0.3018  0.9943
14495TIP3   OH243427   4.473   4.625   4.768  0.3666  0.1691 -0.2298
14495TIP3    H143428   4.419   4.616   4.689  1.1779 -0.1848 -0.7606
14495TIP3    H243429   4.448   4.709   4.805 -2.8798 -1.4208  1.3332
14496TIP3   OH243430   0.163   0.580   1.083 -0.0691  0.3264 -0.2592
14496TIP3    H143431   0.243   0.591   1.032 -0.9410 -0.8235 -1.9316
14496TIP3    H243432   0.173   0.494   1.125 -0.4936  0.1170 -0.5894
14497TIP3   OH243433   0.477   0.751   3.612 -0.4913  0.1083 -0.1725
14497TIP3    H143434   0.548   0.804   3.647  0.7841 -1.5519 -0.1793
14497TIP3    H243435   0.462   0.683   3.679  0.5361 -1.8301 -1.8629
14498TIP3   OH243436   1.761   0.922   0.363 -0.5725  0.1304 -0.2666
14498TIP3    H143437   1.851   0.915   0.394 -0.1522 -0.9500 -1.7037
14498TIP3    H243438   1.766   0.981   0.288 -1.0686  0.1351 -0.2944
14499TIP3   OH243439   2.594   0.681   0.301 -0.3191 -0.8101  0.6441
14499TIP3    H143440   2.626   0.757   0.351 -1.0523  0.2204 -0.4328
14499TIP3    H243441   2.534   0.637   0.361 -3.1784  1.8326 -0.0994
14500TIP3   OH243442   6.390   2.006   1.046  0.3335  0.3535 -0.0719
14500TIP3    H143443   6.354   2.090   1.017  0.5946  0.7018  0.6017
14500TIP3    H243444   6.313   1.956   1.075 -0.1074 -0.5286 -2.6207
14501TIP3   OH243445   8.344   3.857   0.557  0.3520 -0.6257  0.0366
14501TIP3    H143446   8.318   3.875   0.647  1.4522 -0.1988  0.2822
14501TIP3    H243447   8.420   3.913   0.542 -1.1846  1.0081 -1.9369
14502TIP3   OH243448   3.136   1.645   1.166 -0.4652  0.0987  0.3670
14502TIP3    H143449   3.100   1.721   1.119 -2.2208 -0.1952  1.1801
14502TIP3    H243450   3.072   1.576   1.151  0.9464 -1.1213 -0.0574
14503TIP3   OH243451   1.316   3.633   3.215 -0.1407  0.5870  0.0330
14503TIP3    H143452   1.404   3.644   3.250 -0.5386  0.3910  1.1248
14503TIP3    H243453   1.269   3.585   3.283 -0.1455 -2.4400 -1.9800
14504TIP3   OH243454   5.885   7.926   1.833  0.0463 -0.3923 -0.0759
14504TIP3    H143455   5.822   7.941   1.764 -0.9714 -0.7020  0.7746
14504TIP3    H243456   5.898   7.831   1.834 -0.0885 -0.4096  0.2786
14505TIP3   OH243457   0.492   2.872   0.646 -0.0580  0.0027 -0.6693
14505TIP3    H143458   0.424   2.831   0.698 -0.2563  0.5107 -0.5251
14505TIP3    H243459   0.573   2.856   0.694 -0.2267  0.3747 -0.2650
14506TIP3   OH243460   7.475   1.877   0.859 -0.4032  0.3281 -0.7589
14506TIP3    H143461   7.515   1.790   0.856 -0.8413  0.0766  0.6650
14506TIP3    H243462   7.388   1.862   0.895 -0.9360  1.1995 -1.6563
14507TIP3   OH243463   1.728   4.702   6.374 -0.1796 -0.3617  0.4467
14507TIP3    H143464   1.789   4.684   6.302 -1.2248  2.1236 -1.1364
14507TIP3    H243465   1.776   4.761   6.432  0.2543 -1.4586  1.2243
14508TIP3   OH243466   8.471   2.363   1.504  0.0840 -0.0048 -0.3007
14508TIP3    H143467   8.433   2.320   1.427  0.4272 -0.7496 -0.0563
14508TIP3    H243468   8.396   2.380   1.562 -0.1446  0.3710 -0.7027
14509TIP3   OH243469   0.289   2.167   0.745 -0.0421  0.2749  0.2978
14509TIP3    H143470   0.344   2.244   0.761 -1.5498  1.7589 -1.4626
14509TIP3    H243471   0.342   2.111   0.688  0.8394  0.2361  1.1271
14510TIP3   OH243472   0.587   5.012   4.870  0.7084  0.8530  0.3128
14510TIP3    H143473   0.560   4.920   4.873  1.9146  0.4959  0.4379
14510TIP3    H243474   0.505   5.061   4.876 -0.0333 -0.2221 -0.7223
14511TIP3   OH243475   1.025   0.892   0.473 -0.1992 -0.1118 -0.0398
14511TIP3    H143476   1.033   0.803   0.507  0.8652 -0.1654 -0.4217
14511TIP3    H243477   0.962   0.935   0.531  1.2274 -0.3394  1.7038
14512TIP3   OH243478   2.979   6.148   5.710 -0.2240  0.3424 -0.2514
14512TIP3    H143479   2.982   6.082   5.641  2.0072  1.8123 -1.6415
14512TIP3    H243480   2.909   6.119   5.769 -1.1023 -1.7702 -2.2785
14513TIP3   OH243481   7.210   2.946   1.243 -0.3586 -0.4612  0.1028
14513TIP3    H143482   7.194   2.856   1.214 -1.5876 -0.3419  0.3747
14513TIP3    H243483   7.300   2.964   1.216 -0.2627 -1.6040 -0.3846
14514TIP3   OH243484   0.712   5.711   6.295 -0.3416 -0.2099 -0.0561
14514TIP3    H143485   0.782   5.646   6.307 -0.6070 -0.6159 -0.7001
14514TIP3    H243486   0.644   5.683   6.356 -0.4811 -0.5709 -0.3761
14515TIP3   OH243487   4.582   6.486   6.722 -0.6048  0.1218 -0.0352
14515TIP3    H143488   4.613   6.514   6.808 -1.7083 -3.4209  1.6518
14515TIP3    H243489   4.660   6.453   6.678 -0.2406  0.8289  0.0666
14516TIP3   OH243490   5.956   6.886   3.896  0.1881 -0.2446  0.3349
14516TIP3    H143491   5.964   6.958   3.833 -0.5441 -0.4504 -0.0032
14516TIP3    H243492   5.862   6.871   3.902  0.2393 -0.1102  1.6173
14517TIP3   OH243493   2.160   2.740   0.488 -0.6820 -0.5643  0.3123
14517TIP3    H143494   2.160   2.768   0.396  0.5852 -0.7790  0.2235
14517TIP3    H243495   2.147   2.645   0.484 -0.8565 -0.5427  0.3690
14518TIP3   OH243496   4.951   7.001   1.521  0.2229  0.1970  0.2329
14518TIP3    H143497   4.868   6.957   1.541  1.3287 -2.0903 -0.1297
14518TIP3    H243498   4.924   7.083   1.480 -1.8822  0.0970  1.3038
14519TIP3   OH243499   7.239   7.741   0.830 -0.1912 -0.1421  0.5043
14519TIP3    H143500   7.267   7.807   0.767 -0.7152  0.9470  1.3831
14519TIP3    H243501   7.251   7.658   0.785 -1.2596  0.6541 -1.3163
14520TIP3   OH243502   1.376   2.364   0.539  0.1510  0.3552  0.4034
14520TIP3    H143503   1.413   2.452   0.549  1.7863 -0.5200  2.1705
14520TIP3    H243504   1.421   2.327   0.464  1.7984 -0.1444  1.6214
14521TIP3   OH243505   1.296   0.589   2.781  0.0762  0.1537 -0.4677
14521TIP3    H143506   1.220   0.590   2.839 -0.7177  1.5336 -1.4839
14521TIP3    H243507   1.322   0.681   2.774  1.1272 -0.1760 -1.0392
14522TIP3   OH243508   8.283   1.389   6.912 -0.0962 -0.3148 -0.2109
14522TIP3    H143509   8.278   1.379   6.817 -2.3891 -0.9868 -0.0480
14522TIP3    H243510   8.248   1.307   6.946  0.2130  0.1422  1.2369
14523TIP3   OH243511   7.778   1.228   5.819  0.0102  0.0281 -0.1174
14523TIP3    H143512   7.774   1.312   5.774  0.1704 -0.7978 -1.7253
14523TIP3    H243513   7.872   1.209   5.827 -0.0307 -0.1539 -0.0496
14524TIP3   OH243514   1.188   2.280   1.039  0.6479 -0.1067 -0.3659
14524TIP3    H143515   1.150   2.334   1.108  1.5348  1.8851 -1.3899
14524TIP3    H243516   1.116   2.225   1.009 -0.5359  1.1705  0.0742
14525TIP3   OH243517   5.151   7.904   6.892 -0.6624  0.2457  0.1052
14525TIP3    H143518   5.114   7.992   6.888 -0.4202  0.3359 -0.1365
14525TIP3    H243519   5.246   7.917   6.893 -0.6128 -0.0353 -0.5641
14526TIP3   OH243520   0.568   3.301   0.831 -0.5916  0.1647 -0.0689
14526TIP3    H143521   0.573   3.221   0.883  2.1793  1.4199  1.7033
14526TIP3    H243522   0.479   3.334   0.847 -0.9124 -1.2480  1.1748
14527TIP3   OH243523   3.079   1.296   0.001  0.3678  0.4302  0.1476
14527TIP3    H143524   3.140   1.345   0.055 -0.0429 -0.6121  1.5794
14527TIP3    H243525   3.043   1.229   0.059 -1.1653  0.2067 -1.0201
14528TIP3   OH243526   0.393   2.435   0.556 -0.3243  0.2863 -0.4116
14528TIP3    H143527   0.359   2.425   0.645 -0.7646 -2.1361 -0.8327
14528TIP3    H243528   0.482   2.467   0.568 -0.2600 -0.3562  0.9237
14529TIP3   OH243529   1.644   3.014   2.254 -0.2159  0.0159  0.1624
14529TIP3    H143530   1.596   2.962   2.318 -0.2961 -1.3707 -1.0065
14529TIP3    H243531   1.719   2.960   2.230  0.5241  1.0750  0.0359
14530TIP3   OH243532   1.282   1.531   0.601  0.2776 -0.1960 -0.6276
14530TIP3    H143533   1.306   1.612   0.557  0.9957  0.5733  1.1380
14530TIP3    H243534   1.331   1.463   0.556  1.5646  0.6744 -0.5404
14531TIP3   OH243535   5.086   6.961   6.863 -0.2422  0.2219  0.6773
14531TIP3    H143536   5.131   6.890   6.816 -2.7877 -1.2894  0.4267
14531TIP3    H243537   5.122   7.041   6.825 -0.2501 -0.9637 -1.9541
14532TIP3   OH243538   1.887   2.972   1.958 -0.5468  0.1488  0.0912
14532TIP3    H143539   1.826   3.033   1.916 -1.7086  0.7548  2.5698
14532TIP3    H243540   1.851   2.959   2.046  2.1077 -0.6620  1.0997
14533TIP3   OH243541   4.269   1.203   0.761 -0.0554 -0.2785  0.3179
14533TIP3    H143542   4.299   1.142   0.694  1.0969 -0.2372  0.7852
14533TIP3    H243543   4.311   1.172   0.841  0.1105  0.8020  0.6546
14534TIP3   OH243544   0.909   1.777   0.338 -0.0271  0.1040  0.0059
14534TIP3    H143545   0.962   1.811   0.410  1.3295  1.7864 -1.7539
14534TIP3    H243546   0.819   1.789   0.367  0.4983  0.1965  1.6704
14535TIP3   OH243547   2.951   3.758   2.558  0.1341 -0.2656 -0.1022
14535TIP3    H143548   3.027   3.812   2.581  0.5312 -0.6085 -0.6008
14535TIP3    H243549   2.893   3.818   2.511  0.7688 -0.3575 -1.0433
14536TIP3   OH243550   3.543   6.263   6.793 -0.1853  0.0937 -0.2051
14536TIP3    H143551   3.630   6.260   6.832  0.2609 -0.0679 -1.2141
14536TIP3    H243552   3.558   6.286   6.701 -1.2421  0.6393 -0.2557
14537TIP3   OH243553   2.529   2.428   1.427  0.1043  0.3253 -0.2056
14537TIP3    H143554   2.563   2.516   1.410 -1.2923  0.4274 -2.7722
14537TIP3    H243555   2.545   2.380   1.346 -3.2956 -0.3659 -0.5683
14538TIP3   OH243556   7.943   3.342   2.123 -0.2161  0.0623 -0.5352
14538TIP3    H143557   7.859   3.357   2.078 -0.1008 -1.0690 -1.1561
14538TIP3    H243558   7.972   3.257   2.090  1.4683  0.7166 -0.7636
14539TIP3   OH243559   2.110   3.309   0.210 -0.5833 -0.0785  0.2464
14539TIP3    H143560   2.037   3.259   0.173  0.4259 -0.2512 -1.5671
14539TIP3    H243561   2.099   3.397   0.173  2.2382 -1.0402 -3.1257
14540TIP3   OH243562   2.940   4.013   0.347 -0.0774  0.1534  0.2882
14540TIP3    H143563   3.032   3.988   0.351  0.1775  0.6652 -1.7689
14540TIP3    H243564   2.941   4.106   0.325 -1.0658  0.0055 -0.4478
14541TIP3   OH243565   4.399   7.288   6.191  0.4363 -0.1593 -0.0372
14541TIP3    H143566   4.480   7.260   6.148  0.8811  1.8840 -0.5766
14541TIP3    H243567   4.366   7.359   6.136 -1.1731 -0.2876  0.7569
14542TIP3   OH243568   4.135   6.082   6.096 -0.5218  0.0966  0.0393
14542TIP3    H143569   4.100   6.004   6.054 -0.8663  1.0211 -1.4161
14542TIP3    H243570   4.058   6.136   6.116 -0.2147  0.4943  0.1657
14543TIP3   OH243571   0.184   0.381   3.783 -0.7090 -0.1001  0.0184
14543TIP3    H143572   0.257   0.320   3.782 -0.4892  0.1671 -0.2408
14543TIP3    H243573   0.157   0.387   3.691 -1.2708 -0.4561  0.1543
14544TIP3   OH243574   1.317   3.004   0.561 -0.0064 -0.3144 -0.4801
14544TIP3    H143575   1.366   3.053   0.494 -1.3705  0.0697 -1.2209
14544TIP3    H243576   1.276   3.072   0.615 -0.0055 -0.6277 -0.0900
14545TIP3   OH243577   2.780   4.171   1.570 -0.7076  0.3013 -0.1857
14545TIP3    H143578   2.770   4.190   1.477 -0.0796 -2.2551 -0.8046
14545TIP3    H243579   2.859   4.218   1.596 -1.3437  1.6976 -0.7241
14546TIP3   OH243580   1.669   5.774   0.567 -0.1260 -0.2180  0.4367
14546TIP3    H143581   1.726   5.710   0.610 -1.3209 -2.1282 -0.7413
14546TIP3    H243582   1.721   5.807   0.494  0.4925  0.1118  1.0317
14547TIP3   OH243583   6.621   5.537   6.825 -0.5260  0.1611 -0.2144
14547TIP3    H143584   6.647   5.454   6.865  0.1725 -0.7979 -2.5386
14547TIP3    H243585   6.586   5.512   6.739  1.4966  2.4190 -1.7612
14548TIP3   OH243586   1.427   3.836   1.503  0.4576  0.3997  0.0597
14548TIP3    H143587   1.466   3.868   1.584  0.5269 -0.7851  0.5095
14548TIP3    H243588   1.345   3.794   1.530  1.0347 -1.0120 -0.3232
14549TIP3   OH243589   8.505   1.825   3.061  0.2208  0.8217 -0.1149
14549TIP3    H143590   8.441   1.816   3.132 -1.3247 -3.0188 -1.8524
14549TIP3    H243591   8.491   1.913   3.027 -2.0331  1.1511  1.5538
14550TIP3   OH243592   2.995   3.616   1.272  0.0049  0.1278  0.6059
14550TIP3    H143593   2.900   3.610   1.267 -0.2671  3.0884  1.4326
14550TIP3    H243594   3.018   3.694   1.222  2.0554 -0.8451 -0.0389
14551TIP3   OH243595   3.931   5.516   5.723  0.2708  0.1598  0.0708
14551TIP3    H143596   3.995   5.571   5.678  0.2833 -0.2725 -0.4563
14551TIP3    H243597   3.883   5.473   5.652  0.0415 -0.2484  0.4704
14552TIP3   OH243598   1.862   3.821   0.202 -0.0278 -0.7492 -0.8206
14552TIP3    H143599   1.921   3.852   0.271 -1.6697  0.1645  0.1943
14552TIP3    H243600   1.809   3.897   0.180 -1.1161 -1.6678 -1.4169
14553TIP3   OH243601   1.389   0.058   0.591 -0.4093  0.0304 -0.3929
14553TIP3    H143602   1.352   0.127   0.536 -1.2564 -1.5083 -1.7612
14553TIP3    H243603   1.417   0.104   0.671 -0.0589  2.1174 -1.6763
14554TIP3   OH243604   2.238   3.161   0.952 -0.5478  0.3056 -0.0086
14554TIP3    H143605   2.328   3.128   0.953 -0.0784  1.5627  0.2028
14554TIP3    H243606   2.244   3.244   0.905 -1.5235  0.6225  0.4191
14555TIP3   OH243607   1.665   4.229   0.770 -0.2954 -0.3474 -0.7518
14555TIP3    H143608   1.630   4.295   0.711 -0.2203  1.4475  1.1567
14555TIP3    H243609   1.588   4.189   0.810 -0.2758  0.5235  0.1595
14556TIP3   OH243610   5.554   7.683   5.359  0.0126 -0.5354 -0.1616
14556TIP3    H143611   5.514   7.768   5.372  0.1837 -0.8340  2.5963
14556TIP3    H243612   5.488   7.632   5.312 -1.7939 -0.1696  1.8990
14557TIP3   OH243613   5.676   6.933   5.781 -0.2652 -0.4254  0.1033
14557TIP3    H143614   5.643   6.848   5.753  0.0784 -0.0106 -1.6602
14557TIP3    H243615   5.742   6.955   5.715 -0.8885  1.5453  0.1225
14558TIP3   OH243616   2.113   5.029   0.496 -0.1986 -0.1071 -0.0803
14558TIP3    H143617   2.111   5.014   0.590  0.3752 -1.3033 -0.2504
14558TIP3    H243618   2.020   5.032   0.470 -0.3561  0.2571  0.5162
14559TIP3   OH243619   0.597   7.740   1.617 -0.3086  0.6301  0.5044
14559TIP3    H143620   0.509   7.773   1.631 -0.8327  0.0827 -1.3511
14559TIP3    H243621   0.606   7.667   1.678 -3.0042 -2.5959 -2.7889
14560TIP3   OH243622   2.039   3.783   1.322 -0.0533  0.0602 -0.0460
14560TIP3    H143623   2.088   3.864   1.335 -0.1717  0.2034 -0.4778
14560TIP3    H243624   1.952   3.802   1.357  0.1621 -0.1590  0.6218
14561TIP3   OH243625   3.502   7.845   6.879  0.1772 -0.5624 -0.0967
14561TIP3    H143626   3.585   7.862   6.836  0.3112 -0.5676  0.1596
14561TIP3    H243627   3.516   7.869   6.971  0.1703 -1.4076  0.1334
14562TIP3   OH243628   2.956   2.347   0.361  0.1592 -0.1451  0.0020
14562TIP3    H143629   3.024   2.292   0.321  0.6220  0.1881  0.3262
14562TIP3    H243630   2.927   2.405   0.291  0.3039 -0.1997 -0.1018
14563TIP3   OH243631   5.097   7.525   4.132 -0.2798 -0.1086  0.2575
14563TIP3    H143632   5.086   7.620   4.143  1.0988  0.1207 -0.2368
14563TIP3    H243633   5.120   7.514   4.040 -0.9093 -0.9722  0.2019
14564TIP3   OH243634   6.964   0.257   6.479  0.1461 -0.4150 -0.0497
14564TIP3    H143635   7.028   0.202   6.433  0.6877 -0.0729  0.3004
14564TIP3    H243636   6.980   0.345   6.446  1.7350  0.1462  2.0774
14565TIP3   OH243637   1.244   3.884   0.073 -0.2266  0.1135  0.3244
14565TIP3    H143638   1.338   3.873   0.063 -0.2931 -0.5203  0.3105
14565TIP3    H243639   1.223   3.834   0.153 -0.3850  1.1800  0.9520
14566TIP3   OH243640   2.575   3.586   0.733 -0.2182  0.2187  0.0770
14566TIP3    H143641   2.566   3.677   0.703 -0.0699  0.1570 -0.1528
14566TIP3    H243642   2.669   3.576   0.750 -0.1431 -0.0852 -0.5041
14567TIP3   OH243643   0.158   3.118   0.748  0.0866 -0.0545  0.5282
14567TIP3    H143644   0.136   3.053   0.682  0.3647  0.2566  0.1252
14567TIP3    H243645   0.097   3.190   0.732  0.9465  0.5366 -0.1791
14568TIP3   OH243646   1.166   1.539   2.092  0.0259 -0.0258  0.1274
14568TIP3    H143647   1.241   1.488   2.064 -0.7891 -0.5894 -1.0787
14568TIP3    H243648   1.183   1.560   2.184  1.9223  0.3727 -0.3095
14569TIP3   OH243649   5.784   5.649   5.352 -0.3352  0.0567  0.4155
14569TIP3    H143650   5.827   5.633   5.435  0.1123  0.7583  0.3199
14569TIP3    H243651   5.749   5.564   5.326  1.7567 -0.7104  0.0564
14570TIP3   OH243652   6.362   3.819   4.837  0.2462  0.3519 -0.2972
14570TIP3    H143653   6.452   3.830   4.806 -0.1689  1.4518 -1.1289
14570TIP3    H243654   6.308   3.825   4.757 -0.6297  0.5730  0.3050
14571TIP3   OH243655   5.233   5.569   6.464 -0.1975 -0.4239 -0.1319
14571TIP3    H143656   5.295   5.581   6.393  1.0084  1.1526  1.1296
14571TIP3    H243657   5.287   5.569   6.543 -1.5502 -1.6835  0.8219
14572TIP3   OH243658   3.543   6.526   6.952 -0.2614  0.5371 -0.5839
14572TIP3    H143659   3.563   6.433   6.953  0.4386  0.6838 -0.1477
14572TIP3    H243660   3.613   6.565   6.900 -0.2072  0.8866 -0.2545
14573TIP3   OH243661   2.351   3.325   1.300 -0.0921  0.2094  0.2433
14573TIP3    H143662   2.293   3.400   1.287 -0.0290 -0.0930 -1.9812
14573TIP3    H243663   2.301   3.250   1.266  1.8929  0.0771 -2.5263
14574TIP3   OH243664   0.489   0.645   0.175 -0.3532  0.2347  0.4392
14574TIP3    H143665   0.412   0.702   0.177 -1.0289 -0.6344 -0.6295
14574TIP3    H243666   0.519   0.643   0.266 -1.3534  0.8898  0.7974
14575TIP3   OH243667   6.713   2.041   1.216  0.2168 -0.1730  0.0973
14575TIP3    H143668   6.717   1.946   1.215 -2.3022 -0.3550  1.7595
14575TIP3    H243669   6.777   2.067   1.282  0.3671 -0.7726  0.1879
14576TIP3   OH243670   3.227   5.433   1.379  0.2651  0.0076 -0.3688
14576TIP3    H143671   3.155   5.449   1.318  0.5958  1.0430 -0.4973
14576TIP3    H243672   3.291   5.382   1.328 -0.7666 -1.7354  0.0244
14577TIP3   OH243673   3.332   6.866   6.512 -0.2303 -0.0163  0.4208
14577TIP3    H143674   3.273   6.893   6.441  1.4783 -1.8555 -1.7373
14577TIP3    H243675   3.275   6.821   6.575 -1.2155 -1.4942 -1.4889
14578TIP3   OH243676   3.187   7.860   6.636  0.6792  0.3519 -0.2485
14578TIP3    H143677   3.207   7.767   6.647  0.3516  0.1935 -0.9800
14578TIP3    H243678   3.261   7.905   6.678  1.0781 -0.2366 -0.3073
14579TIP3   OH243679   3.388   2.217   0.638  0.2833 -0.0119  0.4825
14579TIP3    H143680   3.296   2.192   0.639 -0.0650  1.1968 -0.3477
14579TIP3    H243681   3.435   2.136   0.659 -0.9785 -0.5165  1.4558
14580TIP3   OH243682   0.845   3.303   0.529 -0.0354 -0.0422 -0.7603
14580TIP3    H143683   0.780   3.237   0.505 -1.0048  0.9134 -0.7859
14580TIP3    H243684   0.794   3.376   0.563  0.9756  1.0587 -1.5576
14581TIP3   OH243685   3.436   6.137   6.450  0.3397 -0.3798  0.5469
14581TIP3    H143686   3.452   6.230   6.433  0.3151 -0.4412  0.1878
14581TIP3    H243687   3.377   6.136   6.525 -1.2414 -0.0630 -0.6708
14582TIP3   OH243688   2.600   2.536   0.248  0.4184  0.1090 -0.0542
14582TIP3    H143689   2.602   2.463   0.185 -2.7235 -0.5057  0.4771
14582TIP3    H243690   2.566   2.497   0.328  0.0669  1.8686  0.6547
14583TIP3   OH243691   4.743   7.524   5.863  0.3005 -0.0778 -0.1202
14583TIP3    H143692   4.684   7.518   5.788  0.0392 -1.5539  0.1763
14583TIP3    H243693   4.689   7.562   5.932  0.1149 -0.0717 -0.2658
14584TIP3   OH243694   6.264   6.807   5.278 -0.1570  0.2211 -0.3901
14584TIP3    H143695   6.277   6.789   5.185 -1.8671  0.6402 -0.7258
14584TIP3    H243696   6.238   6.899   5.282 -0.3891  0.1255  0.4782
14585TIP3   OH243697   0.260   1.343   1.658 -0.5310 -0.2686 -0.2810
14585TIP3    H143698   0.283   1.276   1.722  0.9660  0.2937 -0.2096
14585TIP3    H243699   0.275   1.426   1.704  1.9540  0.1743 -1.7675
14586TIP3   OH243700   4.108   6.559   6.534 -0.0151 -0.8395  0.1853
14586TIP3    H143701   4.028   6.535   6.488  0.3032 -1.0621 -0.2579
14586TIP3    H243702   4.102   6.514   6.619 -1.4747  1.0571  1.1412
14587TIP3   OH243703   0.556   3.162   0.597  0.0640  0.6821  0.6299
14587TIP3    H143704   0.577   3.224   0.667  2.3229 -0.9650  1.4510
14587TIP3    H243705   0.513   3.089   0.642 -1.3148  0.9997 -0.1434
14588TIP3   OH243706   2.987   2.712   3.337 -0.5471 -0.1611 -0.4604
14588TIP3    H143707   3.033   2.628   3.344 -0.0723  0.2677  1.8887
14588TIP3    H243708   2.900   2.689   3.305  0.1546 -1.3440 -1.5897
14589TIP3   OH243709   7.695   1.535   4.559 -0.0795 -0.4405  0.0118
14589TIP3    H143710   7.727   1.623   4.577  0.3177 -0.9325  1.8275
14589TIP3    H243711   7.657   1.541   4.471  0.0850  1.4831  0.0436
14590TIP3   OH243712   3.537   4.185   0.882 -0.3986  0.0596 -0.1036
14590TIP3    H143713   3.624   4.224   0.874 -0.2191 -0.4722 -0.7591
14590TIP3    H243714   3.554   4.099   0.921 -0.6454  0.0041 -0.1232
14591TIP3   OH243715   1.603   3.674   0.647  0.2269 -0.0736 -0.2621
14591TIP3    H143716   1.625   3.624   0.725 -0.4625 -0.7598 -0.4916
14591TIP3    H243717   1.674   3.657   0.585  0.3501 -0.1953 -0.0852
14592TIP3   OH243718   7.671   3.521   1.398  0.5499  0.4190 -0.1125
14592TIP3    H143719   7.714   3.500   1.481 -0.4235 -0.1003  0.2721
14592TIP3    H243720   7.578   3.527   1.420  0.3810  1.1269 -1.0073
14593TIP3   OH243721   3.528   6.671   6.500 -0.2517 -0.1141  0.8985
14593TIP3    H143722   3.614   6.710   6.514 -0.7027  0.6723  1.5738
14593TIP3    H243723   3.467   6.743   6.516 -1.0573 -0.8344  1.1051
14594TIP3   OH243724   4.088   6.392   6.852 -0.0106  0.5081 -0.1193
14594TIP3    H143725   4.176   6.380   6.817 -0.0573 -1.3342  0.3513
14594TIP3    H243726   4.033   6.333   6.801 -0.5986  0.0622  1.0017
14595TIP3   OH243727   8.217   1.689   5.504 -0.0016 -0.1010  0.3020
14595TIP3    H143728   8.307   1.709   5.531 -0.2242  0.0729  0.9171
14595TIP3    H243729   8.207   1.595   5.520 -0.0780 -0.0313  0.6570
14596TIP3   OH243730   5.371   6.938   5.866 -0.0493  0.4339  0.1070
14596TIP3    H143731   5.331   6.929   5.953 -0.7781  0.7242 -0.2005
14596TIP3    H243732   5.435   6.867   5.863 -0.6955 -0.1786  0.5140
14597TIP3   OH243733   4.513   6.503   6.215 -0.2635  0.1764 -0.3080
14597TIP3    H143734   4.437   6.511   6.159  0.1171  2.2110 -0.5469
14597TIP3    H243735   4.478   6.508   6.304 -0.5554 -0.3732 -0.3871
14598TIP3   OH243736   7.318   6.023   5.204 -0.3817  0.1150  0.3017
14598TIP3    H143737   7.360   5.998   5.122  1.2599 -0.3179  1.2452
14598TIP3    H243738   7.278   5.943   5.236 -2.2965  0.6116 -0.7861
14599TIP3   OH243739   2.344   3.553   1.053 -0.1770 -0.4966  0.0185
14599TIP3    H143740   2.352   3.586   1.143  0.4750 -0.8810  0.1082
14599TIP3    H243741   2.273   3.488   1.058 -1.1923  0.5901 -0.0777
14600TIP3   OH243742   3.165   7.200   5.848 -0.3458  0.0830 -0.0136
14600TIP3    H143743   3.189   7.144   5.921  0.3443 -0.4419 -0.6299
14600TIP3    H243744   3.071   7.212   5.856 -0.5532 -1.4563 -0.0739
14601TIP3   OH243745   5.669   6.942   6.287 -0.2930 -0.3217 -0.3723
14601TIP3    H143746   5.632   7.029   6.270 -1.5115 -0.1434  2.8730
14601TIP3    H243747   5.593   6.884   6.290  0.2856 -1.0576  0.0902
14602TIP3   OH243748   8.464   1.701   5.571 -0.4540 -0.2737 -0.0637
14602TIP3    H143749   8.524   1.638   5.532 -0.5224 -0.0439 -0.5419
14602TIP3    H243750   8.476   1.690   5.666  1.1262  0.5073 -0.1423
14603TIP3   OH243751   4.107   7.218   5.477 -0.1973 -0.8108  0.5776
14603TIP3    H143752   4.105   7.283   5.548  0.3675 -2.1918  1.8764
14603TIP3    H243753   4.020   7.179   5.478 -1.6377  2.0833 -2.3004
14604TIP3   OH243754   2.048   2.418   2.698  0.4796 -0.5731  0.0240
14604TIP3    H143755   2.071   2.378   2.782  0.1263 -2.1788 -0.6185
14604TIP3    H243756   2.092   2.364   2.633 -1.1188 -0.7444 -0.9408
14605TIP3   OH243757   0.472   1.633   0.514 -0.3921 -0.0443  0.0379
14605TIP3    H143758   0.558   1.676   0.509 -0.8552  0.9253  0.1601
14605TIP3    H243759   0.492   1.544   0.541  0.4851  0.5834  1.5860
14606TIP3   OH243760   2.390   4.579   1.629 -0.0734 -0.4519  0.5376
14606TIP3    H143761   2.363   4.670   1.612 -0.8838 -0.7714  0.1227
14606TIP3    H243762   2.353   4.529   1.556 -0.4883 -1.2728  1.3090
14607TIP3   OH243763   1.815   2.147   0.863 -0.2090 -0.1731 -0.0628
14607TIP3    H143764   1.734   2.105   0.835 -0.0322 -0.0692 -0.7517
14607TIP3    H243765   1.787   2.218   0.921 -0.7906  1.5330 -2.3695
14608TIP3   OH243766   2.430   3.282   1.572  0.1426  0.0029  0.5861
14608TIP3    H143767   2.429   3.191   1.542  2.4850 -0.2419  1.2112
14608TIP3    H243768   2.432   3.334   1.491  1.0477 -0.5346  0.2656
14609TIP3   OH243769   2.938   3.475   0.211  0.0522  0.0766 -0.0081
14609TIP3    H143770   2.846   3.453   0.195  0.2816 -2.2073  1.5639
14609TIP3    H243771   2.944   3.569   0.192 -2.3873  0.0708 -1.0155
14610TIP3   OH243772   7.448   0.313   5.182 -0.2089  0.1691  0.0910
14610TIP3    H143773   7.534   0.275   5.162 -0.1589  0.7920 -0.9050
14610TIP3    H243774   7.391   0.237   5.193  0.6043 -0.2650  1.3921
14611TIP3   OH243775   2.110   1.060   0.068 -0.0922 -0.1273 -0.1589
14611TIP3    H143776   2.059   0.979   0.072 -1.0868  0.5421  1.5920
14611TIP3    H243777   2.200   1.034   0.086 -0.4146 -0.8528  0.4078
14612TIP3   OH243778   4.182   5.811   6.379 -0.2545 -0.1052  0.1668
14612TIP3    H143779   4.145   5.848   6.459 -1.4699 -2.0694  0.5660
14612TIP3    H243780   4.164   5.876   6.312  0.5018  1.4264  1.4157
14613TIP3   OH243781   4.838   6.689   4.444  0.1910 -0.2214 -0.3787
14613TIP3    H143782   4.794   6.749   4.384  0.7882  0.9951  0.3839
14613TIP3    H243783   4.770   6.660   4.504 -0.2928 -1.0241 -1.3082
14614TIP3   OH243784   1.650   1.656   0.970 -0.7215 -0.1867 -0.0570
14614TIP3    H143785   1.741   1.681   0.986 -0.6769  0.4225 -1.1909
14614TIP3    H243786   1.656   1.570   0.929 -0.6478 -0.0336 -0.3652
14615TIP3   OH243787   2.672   0.042   0.731  0.0405 -0.2072 -0.2945
14615TIP3    H143788   2.723   0.044   0.650 -0.2307  1.9000 -0.4343
14615TIP3    H243789   2.590  -0.002   0.707 -0.8188  2.0626 -1.6459
14616TIP3   OH243790   5.966   1.226   5.857 -0.2791 -0.4597 -0.4229
14616TIP3    H143791   5.891   1.226   5.916 -0.1002 -2.5204 -0.1548
14616TIP3    H243792   6.005   1.139   5.868  1.8429  0.3891 -0.9338
14617TIP3   OH243793   5.797   7.772   5.188 -0.6771 -0.1363 -0.1131
14617TIP3    H143794   5.754   7.768   5.102 -1.7464 -0.8573  0.4486
14617TIP3    H243795   5.766   7.695   5.234 -0.1680  0.2990  0.9680
14618TIP3   OH243796   8.327   1.599   6.069 -0.5176  0.4414  0.2038
14618TIP3    H143797   8.242   1.582   6.110  0.2431  0.8099  2.0078
14618TIP3    H243798   8.384   1.621   6.143  0.9640  0.8936 -1.0640
14619TIP3   OH243799   1.110   2.643   0.958 -0.1877  0.5713  1.0219
14619TIP3    H143800   1.176   2.604   0.901  0.0563 -0.9404  2.3077
14619TIP3    H243801   1.130   2.736   0.957  1.0474  0.3137  0.2279
14620TIP3   OH243802   0.737   2.634   0.578  0.2749  0.1012 -0.0928
14620TIP3    H143803   0.699   2.690   0.510  1.0007  0.8067  0.0739
14620TIP3    H243804   0.690   2.657   0.658  0.9520  0.8806  0.0873
14621TIP3   OH243805   7.860   1.006   6.247  0.4881  0.0363  0.1334
14621TIP3    H143806   7.863   0.988   6.153  1.0610 -0.0114  0.1576
14621TIP3    H243807   7.792   1.072   6.256  0.2376 -0.1622 -0.2835
14622TIP3   OH243808   3.201   7.058   6.819 -0.3554  0.1870  0.2451
14622TIP3    H143809   3.149   7.017   6.888  1.1846 -0.8487  0.8254
14622TIP3    H243810   3.240   6.984   6.772 -0.0122  0.9252 -0.6352
14623TIP3   OH243811   8.392   2.853   2.700 -1.0939 -0.3467 -0.5364
14623TIP3    H143812   8.362   2.893   2.619  0.5644  0.6603 -0.6838
14623TIP3    H243813   8.460   2.791   2.672 -0.5644 -0.0444  0.0657
14624TIP3   OH243814   1.919   4.845   0.438  0.4558  0.0939 -0.0332
14624TIP3    H143815   1.872   4.902   0.498  2.3180  0.9925  0.5974
14624TIP3    H243816   1.974   4.790   0.494  0.9672 -0.2026 -0.8142
14625TIP3   OH243817   8.109   1.417   5.089  0.7013 -0.0609  0.1119
14625TIP3    H143818   8.064   1.501   5.103  0.1151 -0.2675 -0.4548
14625TIP3    H243819   8.122   1.381   5.176 -0.2053  0.0324  0.2887
14626TIP3   OH243820   0.832   0.288   1.570 -0.1771  0.1092 -0.2410
14626TIP3    H143821   0.762   0.283   1.504 -1.0365  2.6163  0.4272
14626TIP3    H243822   0.866   0.377   1.561  0.5924  0.0273  1.8020
14627TIP3   OH243823   3.750   0.462   0.830 -0.2580  0.1513 -0.9985
14627TIP3    H143824   3.759   0.477   0.736  2.8734 -1.3907 -0.9826
14627TIP3    H243825   3.837   0.482   0.866 -0.3948 -2.7701  1.0753
14628TIP3   OH243826   6.794   5.850   5.371  0.5135 -0.7882  0.0914
14628TIP3    H143827   6.827   5.863   5.460 -1.4631  2.0694  0.4582
14628TIP3    H243828   6.699   5.853   5.380  0.3105  1.4856 -2.3779
14629TIP3   OH243829   1.125   3.836   1.512 -0.0776  0.4550  0.3898
14629TIP3    H143830   1.088   3.760   1.556 -0.3354  0.6453  0.5065
14629TIP3    H243831   1.141   3.899   1.583  1.7068 -0.1196  0.5185
14630TIP3   OH243832   0.215   3.810   1.976  0.2202 -0.3048  0.4330
14630TIP3    H143833   0.209   3.903   1.998  0.5247  0.1520 -1.3190
14630TIP3    H243834   0.215   3.808   1.880  0.7589 -2.0804  0.4502
14631TIP3   OH243835   1.501   4.325   0.513  0.5537  0.2564  0.0469
14631TIP3    H143836   1.497   4.408   0.467 -2.3241 -1.3160 -2.6914
14631TIP3    H243837   1.445   4.336   0.590 -0.3683  0.6275 -0.6822
14632TIP3   OH243838   2.277   2.604   1.350  0.4353  0.1805 -0.1891
14632TIP3    H143839   2.246   2.519   1.317  3.3213 -0.8331 -0.4724
14632TIP3    H243840   2.324   2.582   1.431 -0.8995  1.8595  1.0922
14633TIP3   OH243841   6.472   6.663   5.399 -0.0277  0.4234 -0.0922
14633TIP3    H143842   6.406   6.723   5.365 -0.3723  0.5470  0.7596
14633TIP3    H243843   6.555   6.699   5.370 -0.2508  1.1627  0.1712
14634TIP3   OH243844   5.965   6.398   6.749  0.1834 -0.0934 -0.4764
14634TIP3    H143845   5.975   6.367   6.839  0.0020 -1.4121 -0.8980
14634TIP3    H243846   5.993   6.324   6.695  1.4926  1.1133 -1.5000
14635TIP3   OH243847   5.527   6.463   4.259 -0.1044 -0.0244 -0.3477
14635TIP3    H143848   5.524   6.370   4.280 -1.4948 -0.0750 -0.6931
14635TIP3    H243849   5.435   6.490   4.257  0.3454  1.9770  2.5321
14636TIP3   OH243850   0.705   3.617   0.792 -0.3558  0.3817  0.8930
14636TIP3    H143851   0.619   3.588   0.822 -0.7978  2.3461  1.6133
14636TIP3    H243852   0.737   3.672   0.863  0.6841  1.1795 -0.1836
14637TIP3   OH243853   3.124   2.265   0.070  0.1068 -0.2222  0.3417
14637TIP3    H143854   3.149   2.247   0.161  0.0358 -0.4143  0.3239
14637TIP3    H243855   3.163   2.193   0.020  0.1647 -0.1048  0.2161
14638TIP3   OH243856   3.803   5.049   2.404  0.5744  0.5704  0.1599
14638TIP3    H143857   3.857   5.044   2.325 -0.8869 -0.2567 -0.8068
14638TIP3    H243858   3.725   5.098   2.377 -0.1343 -0.1073  0.9504
14639TIP3   OH243859   4.499   6.839   6.106  0.5798  0.0342 -0.2747
14639TIP3    H143860   4.524   6.801   6.190 -0.4233 -1.1409 -0.4988
14639TIP3    H243861   4.447   6.916   6.129  0.3217 -0.2737  0.1724
14640TIP3   OH243862   5.442   4.427   1.380  0.2797 -0.5035 -0.1916
14640TIP3    H143863   5.444   4.464   1.468 -1.1710  1.4046 -0.9308
14640TIP3    H243864   5.532   4.430   1.349  0.5805 -0.0227  0.7463
14641TIP3   OH243865   6.931   5.767   6.675  0.2741 -0.7382 -0.0276
14641TIP3    H143866   6.976   5.687   6.704  2.9470  0.9254  0.6328
14641TIP3    H243867   6.981   5.796   6.600 -1.7400 -0.5815 -1.3409
14642TIP3   OH243868   0.207   2.283   1.254  0.6186 -0.4144  0.5552
14642TIP3    H143869   0.201   2.222   1.180  0.2495 -1.8706  1.7595
14642TIP3    H243870   0.145   2.352   1.232  0.0759 -1.1316 -0.2416
14643TIP3   OH243871   5.440   6.812   6.309  0.1583  0.4034 -0.2318
14643TIP3    H143872   5.372   6.876   6.286  0.2860  1.1167  1.2985
14643TIP3    H243873   5.396   6.749   6.366  0.2648 -0.3570 -0.9821
14644TIP3   OH243874   3.865   7.874   6.385 -0.4836 -0.0187  0.1259
14644TIP3    H143875   3.876   7.815   6.460 -0.5493  0.6915  0.7063
14644TIP3    H243876   3.954   7.886   6.351 -0.2913  0.5506  0.7989
14645TIP3   OH243877   5.195   5.943   6.950 -0.0845  0.2480  0.0327
14645TIP3    H143878   5.263   5.938   6.883 -0.5320  0.6893 -0.4590
14645TIP3    H243879   5.115   5.912   6.905 -0.1608 -0.4925  0.6689
14646TIP3   OH243880   2.510   2.589   2.034 -0.1082  0.6910  0.0755
14646TIP3    H143881   2.599   2.576   2.000 -1.5741 -2.8013 -2.7347
14646TIP3    H243882   2.501   2.526   2.105  0.1738  2.2853  1.5797
14647TIP3   OH243883   1.214   0.800   1.310  0.3765  0.4238  0.2738
14647TIP3    H143884   1.309   0.807   1.299  0.1695  1.0877 -1.1130
14647TIP3    H243885   1.183   0.890   1.313 -0.2423  0.2073  0.5502
14648TIP3   OH243886   0.822   1.476   0.481  0.1387 -0.7410 -0.1705
14648TIP3    H143887   0.747   1.421   0.504  0.5965 -1.1765  0.3167
14648TIP3    H243888   0.898   1.428   0.516  0.6134 -0.1656 -0.4012
14649TIP3   OH243889   0.531   2.597   0.241  0.2843 -0.1240  0.0344
14649TIP3    H143890   0.588   2.603   0.164  0.3154  0.5664  0.1034
14649TIP3    H243891   0.564   2.666   0.299 -1.1811  0.8848 -0.2993
14650TIP3   OH243892   4.432   5.056   4.136 -0.7216  0.6358  0.2533
14650TIP3    H143893   4.356   5.111   4.117  0.4547  2.2183 -0.0169
14650TIP3    H243894   4.494   5.077   4.066 -0.1789 -0.9078  0.2608
14651TIP3   OH243895   2.955   5.911   6.066  0.5599  0.0186  0.2714
14651TIP3    H143896   2.893   5.861   6.013  1.7973 -0.8713 -0.3708
14651TIP3    H243897   3.039   5.866   6.053  1.0084  0.1141  2.5166
14652TIP3   OH243898   3.346   4.922   0.779 -0.0311 -0.2843  0.5696
14652TIP3    H143899   3.372   4.891   0.866 -2.6573  0.6494  1.7237
14652TIP3    H243900   3.313   4.844   0.735  0.8937 -0.6711  0.5331
14653TIP3   OH243901   1.118   1.902   2.667 -0.1582  0.8171 -0.2362
14653TIP3    H143902   1.175   1.826   2.672  0.8906  1.5281 -0.9688
14653TIP3    H243903   1.169   1.973   2.706 -1.2083  1.0981  0.6436
14654TIP3   OH243904   1.488   4.798   0.596  0.0687 -0.3434  0.3387
14654TIP3    H143905   1.547   4.855   0.645  1.0262 -1.0017 -0.0384
14654TIP3    H243906   1.468   4.846   0.516  1.3216 -0.7675 -0.2359
14655TIP3   OH243907   7.388   5.116   6.568  0.1297  0.0506  0.3984
14655TIP3    H143908   7.348   5.185   6.515  0.9091 -0.6808 -1.1787
14655TIP3    H243909   7.464   5.087   6.517 -0.8326 -2.7561  0.4862
14656TIP3   OH243910   2.142   4.679   1.458  0.3192 -0.2360  0.1553
14656TIP3    H143911   2.096   4.749   1.504 -0.1462 -0.9162  0.7349
14656TIP3    H243912   2.116   4.599   1.503  1.8482 -0.6619  0.3243
14657TIP3   OH243913   3.995   7.576   6.363 -0.0648  0.6482  0.1715
14657TIP3    H143914   4.030   7.566   6.274 -0.5716  2.1420 -0.2145
14657TIP3    H243915   4.020   7.496   6.408 -0.5615 -0.5134 -1.5786
14658TIP3   OH243916   1.117   2.635   0.054 -0.1319  0.8815  0.2089
14658TIP3    H143917   1.178   2.567   0.025 -1.1160 -0.2784  0.8162
14658TIP3    H243918   1.033   2.609   0.016 -0.5489  1.6963  0.5614
14659TIP3   OH243919   1.109   5.965   0.379 -0.0445 -0.0608  0.2324
14659TIP3    H143920   1.195   6.008   0.372  0.4918 -1.2317 -0.4867
14659TIP3    H243921   1.076   5.961   0.289  0.3064 -1.9058  0.1548
14660TIP3   OH243922   5.370   7.950   5.351  0.1512  0.5965  0.0502
14660TIP3    H143923   5.301   7.890   5.381 -1.3886  1.7621 -1.0286
14660TIP3    H243924   5.376   7.933   5.257  0.1720  1.6732 -0.1400
14661TIP3   OH243925   3.252   2.099   1.775  0.0651 -0.4464 -0.1899
14661TIP3    H143926   3.223   2.011   1.751 -1.6786  0.8096 -2.9158
14661TIP3    H243927   3.173   2.142   1.808  1.4070 -0.5784  3.4464
14662TIP3   OH243928   4.221   1.954   0.187 -0.1068  0.3666  0.1034
14662TIP3    H143929   4.152   1.923   0.128 -0.7627 -0.4121  1.2702
14662TIP3    H243930   4.301   1.913   0.153 -0.7137 -1.3184  0.6514
14663TIP3   OH243931   3.056   2.253   1.931  0.1041 -0.5975 -0.2788
14663TIP3    H143932   2.964   2.233   1.917  0.0383  0.6870 -1.6824
14663TIP3    H243933   3.072   2.229   2.023 -1.4396 -1.4771 -0.2368
14664TIP3   OH243934   1.737   1.827   0.178 -0.0316  0.6380  0.3293
14664TIP3    H143935   1.748   1.779   0.095  2.5339  1.0231  0.4038
14664TIP3    H243936   1.658   1.879   0.165 -0.1793 -0.0094 -1.5515
14665TIP3   OH243937   4.571   5.807   6.054  0.2868  0.4724  0.0548
14665TIP3    H143938   4.527   5.844   5.977 -0.8924  0.9353  0.9424
14665TIP3    H243939   4.628   5.877   6.084  1.1693  0.0983 -0.7119
14666TIP3   OH243940   2.093   3.498   2.112 -0.0828  0.3692  0.4447
14666TIP3    H143941   2.144   3.567   2.154  1.3976  0.2867 -1.1514
14666TIP3    H243942   2.158   3.430   2.091 -1.3061 -0.9399  0.8091
14667TIP3   OH243943   2.519   4.509   0.117 -0.3463 -0.4147 -0.3837
14667TIP3    H143944   2.570   4.435   0.087 -0.9672 -1.6620  1.5498
14667TIP3    H243945   2.432   4.496   0.079 -0.2178 -0.2095 -0.7496
14668TIP3   OH243946   2.258   3.095   0.620 -0.6799 -1.0619 -0.3856
14668TIP3    H143947   2.242   3.122   0.529 -0.2911 -1.7986 -0.6766
14668TIP3    H243948   2.335   3.038   0.615 -0.9455 -1.4953  0.3432
14669TIP3   OH243949   6.088   6.075   5.829  0.7980 -0.4167  0.4081
14669TIP3    H143950   6.174   6.118   5.835 -0.1104  1.3991  0.7990
14669TIP3    H243951   6.048   6.112   5.751  0.9277 -2.3414 -0.5877
14670TIP3   OH243952   3.248   6.998   6.112 -0.0286  0.0555 -0.0579
14670TIP3    H143953   3.215   7.012   6.201  0.5275 -0.1850  0.1879
14670TIP3    H243954   3.343   7.004   6.121  0.1942 -2.9577 -0.1244
14671TIP3   OH243955   4.101   6.723   6.098 -0.0549  0.2608  0.0808
14671TIP3    H143956   4.142   6.646   6.136 -0.5882  0.4134  0.9645
14671TIP3    H243957   4.123   6.794   6.158  0.4470  0.8071 -0.7331
14672TIP3   OH243958   7.401   2.012   1.174  0.0685  0.2095  0.0529
14672TIP3    H143959   7.360   2.068   1.109 -2.5417  1.4101  2.6219
14672TIP3    H243960   7.494   2.029   1.165 -0.3643  1.5843 -2.2090
14673TIP3   OH243961   2.366   4.724   2.308 -0.8735 -0.0621  0.2175
14673TIP3    H143962   2.276   4.710   2.278 -0.8667  0.6040 -0.1191
14673TIP3    H243963   2.416   4.655   2.265 -1.4008 -1.1290  1.2863
14674TIP3   OH243964   5.116   7.581   6.777 -0.2109  0.2479  0.9651
14674TIP3    H143965   5.209   7.603   6.772 -0.2949  1.1358  2.8756
14674TIP3    H243966   5.094   7.589   6.870 -1.6717 -2.1406  0.8917
14675TIP3   OH243967   2.923   4.293   0.332 -0.2742  0.7844 -0.1826
14675TIP3    H143968   2.891   4.351   0.401 -1.5666  1.4043 -1.2698
14675TIP3    H243969   3.008   4.330   0.307 -0.3236  1.2246  0.2962
14676TIP3   OH243970   3.108   1.841   0.743  0.0631  0.0824 -0.0991
14676TIP3    H143971   3.056   1.900   0.688 -1.5417 -2.0308 -0.9518
14676TIP3    H243972   3.128   1.767   0.685 -0.3059 -1.4434  1.6822
14677TIP3   OH243973   3.108   2.133   2.174 -0.1437 -0.3284  0.3598
14677TIP3    H143974   3.199   2.107   2.188 -0.3403 -0.4183  1.4754
14677TIP3    H243975   3.059   2.051   2.175 -0.2303 -0.2988 -0.4282
14678TIP3   OH243976   5.627   6.226   5.745  0.4465  0.3327 -0.4521
14678TIP3    H143977   5.540   6.264   5.728  0.6514  0.4023 -1.3940
14678TIP3    H243978   5.612   6.161   5.813  0.1499  2.3987  1.5278
14679TIP3   OH243979   7.413   1.570   6.729 -0.2993  0.0894 -0.1568
14679TIP3    H143980   7.339   1.621   6.763 -0.6980 -0.7119  0.2027
14679TIP3    H243981   7.404   1.484   6.771  0.8150 -0.0319 -0.1477
14680TIP3   OH243982   5.276   7.780   5.593  0.5283 -0.4505 -0.0165
14680TIP3    H143983   5.314   7.841   5.656 -4.8734  0.8148  2.3089
14680TIP3    H243984   5.319   7.697   5.612  0.9710  0.5248  3.5948
14681TIP3   OH243985   5.228   2.380   1.228  0.3592  0.0094  0.3236
14681TIP3    H143986   5.163   2.432   1.181 -0.4274 -0.6918  0.6186
14681TIP3    H243987   5.262   2.439   1.295  0.5601  0.6061 -0.2954
14682TIP3   OH243988   3.785   4.562   0.960 -0.2741  0.3778 -0.3674
14682TIP3    H143989   3.758   4.620   1.031 -1.6334 -0.0877 -0.5020
14682TIP3    H243990   3.792   4.619   0.883  1.3645  0.9159  0.1499
14683TIP3   OH243991   0.047   5.672   4.456 -0.6879  0.0012  0.0509
14683TIP3    H143992   0.037   5.583   4.420 -0.1559 -0.5072  1.1469
14683TIP3    H243993   0.090   5.721   4.386 -0.9231 -0.6138 -0.5421
14684TIP3   OH243994   3.022   2.873   0.651 -0.0771 -0.2607  0.1234
14684TIP3    H143995   3.054   2.942   0.709 -1.4411  0.2580  0.2934
14684TIP3    H243996   2.943   2.841   0.694 -0.5212 -0.5935 -0.9156
14685TIP3   OH243997   8.065   1.177   6.889 -0.1540  0.3704  0.0777
14685TIP3    H143998   8.114   1.101   6.859 -1.4488 -0.0464 -1.0890
14685TIP3    H243999   7.993   1.140   6.940 -1.5836  0.6870 -1.6467
14686TIP3   OH244000   5.393   6.491   5.631 -0.4170 -0.3978 -0.3994
14686TIP3    H144001   5.389   6.431   5.706  0.0053  0.7951  0.5869
14686TIP3    H244002   5.307   6.534   5.631 -0.9056 -1.3423 -1.4117
14687TIP3   OH244003   4.810   0.979   1.364 -0.0124 -0.0898  0.1935
14687TIP3    H144004   4.844   1.052   1.416  1.9002 -0.4793 -0.4729
14687TIP3    H244005   4.783   1.018   1.281 -0.9369  0.1749  0.6143
14688TIP3   OH244006   3.475   2.326   0.033 -0.2527  0.0077 -0.5408
14688TIP3    H144007   3.542   2.372   0.084 -0.8603 -2.0445  2.2367
14688TIP3    H244008   3.393   2.349   0.076 -0.7712 -1.8604 -0.5071
14689TIP3   OH244009   2.704   2.983   0.804 -0.2342 -0.0290  0.0401
14689TIP3    H144010   2.612   3.005   0.822 -0.4521 -0.8267 -0.1039
14689TIP3    H244011   2.753   3.047   0.855 -0.8593 -0.9159  1.8070
14690TIP3   OH244012   4.460   2.239   1.195  0.2516  0.0609 -0.6890
14690TIP3    H144013   4.434   2.231   1.103 -1.5669  0.8105 -0.2665
14690TIP3    H244014   4.544   2.194   1.200  0.4716  0.1850 -2.7608
14691TIP3   OH244015   5.052   1.466   1.421 -0.1210  0.1237 -0.5400
14691TIP3    H144016   5.062   1.423   1.336 -0.7206 -0.3155 -0.3865
14691TIP3    H244017   5.126   1.434   1.473 -0.4542 -0.5661 -0.4891
14692TIP3   OH244018   1.490   1.122   6.773 -0.7952 -0.2219  0.0176
14692TIP3    H144019   1.524   1.032   6.770 -1.3894 -0.5333  1.8773
14692TIP3    H244020   1.559   1.175   6.734  0.0355 -1.3511 -0.0888
14693TIP3   OH244021   5.202   3.754   1.869 -0.3067 -0.3053  0.0283
14693TIP3    H144022   5.266   3.823   1.884 -2.3467  1.1757  2.3679
14693TIP3    H244023   5.249   3.673   1.890  0.6210  0.8138  2.4499
14694TIP3   OH244024   3.808   3.529   1.818 -0.3167  0.0115  0.4560
14694TIP3    H144025   3.901   3.539   1.839 -0.0683 -4.2980  1.9997
14694TIP3    H244026   3.808   3.484   1.733 -0.9502 -0.1344  0.5329
14695TIP3   OH244027   2.245   3.722   0.844  0.3025 -0.3168 -0.3112
14695TIP3    H144028   2.289   3.773   0.776  0.3191  1.8511  1.2803
14695TIP3    H244029   2.314   3.698   0.905 -0.2780  0.9614  0.8830
14696TIP3   OH244030   6.062   6.072   6.859  0.2677 -0.1209  0.3999
14696TIP3    H144031   6.146   6.100   6.823  0.0247  0.8325  0.5613
14696TIP3    H244032   6.032   6.004   6.798  0.8699 -0.0508  0.0145
14697TIP3   OH244033   5.928   7.946   4.227 -0.2217  0.5216 -0.0112
14697TIP3    H144034   5.845   7.897   4.231  0.1796 -0.3482 -1.7877
14697TIP3    H244035   5.902   8.036   4.244 -1.6146  0.3121 -0.8592
14698TIP3   OH244036   8.059   1.210   5.794 -0.3917 -0.0877 -0.0334
14698TIP3    H144037   8.092   1.240   5.879 -2.1316  2.2113 -0.1380
14698TIP3    H244038   8.111   1.257   5.729  0.1123 -0.9405 -0.2636
14699TIP3   OH244039   5.385   4.063   1.472 -0.4832 -0.6913 -0.3600
14699TIP3    H144040   5.323   4.031   1.538 -1.3635  0.6500 -0.5144
14699TIP3    H244041   5.335   4.061   1.390  0.4152 -1.7712 -0.9029
14700TIP3   OH244042   2.630   3.220   0.473 -0.8330  0.3629 -0.0205
14700TIP3    H144043   2.699   3.196   0.411 -1.9915  0.4574 -1.3620
14700TIP3    H244044   2.639   3.314   0.483 -1.7066  0.6072 -1.3711
14701TIP3   OH244045   4.955   3.696   1.982  0.4841  0.3374 -0.3030
14701TIP3    H144046   4.886   3.760   1.968  0.9968  0.7303 -1.1553
14701TIP3    H244047   5.028   3.728   1.928  0.6580 -1.0948 -0.9541
14702TIP3   OH244048   5.242   0.903   0.843  0.4441 -0.4192 -0.1009
14702TIP3    H144049   5.199   0.901   0.758 -0.2703 -0.2984  0.2561
14702TIP3    H244050   5.176   0.871   0.904  0.1056  1.8711  0.7633
14703TIP3   OH244051   2.485   3.030   0.951  0.0688 -0.4575  0.6845
14703TIP3    H144052   2.551   2.967   0.980  0.8575  0.0810  0.0834
14703TIP3    H244053   2.510   3.112   0.993 -0.1463 -0.2192  0.3529
14704TIP3   OH244054   3.388   3.257   1.083 -0.1749 -1.0966  0.2177
14704TIP3    H144055   3.354   3.186   1.028 -0.5736 -0.1629 -0.7683
14704TIP3    H244056   3.357   3.337   1.041 -0.4558 -0.3506  1.7939
14705TIP3   OH244057   1.121   8.023   2.014 -0.4805 -0.1137 -0.0612
14705TIP3    H144058   1.207   8.022   2.054 -0.3639 -1.0864 -0.3337
14705TIP3    H244059   1.110   7.936   1.977 -1.1791  0.3180 -0.8865
14706TIP3   OH244060   6.130   0.689   5.498  0.1571  0.0689  0.4894
14706TIP3    H144061   6.121   0.654   5.587  0.7416  1.2170  1.0110
14706TIP3    H244062   6.131   0.612   5.442 -0.4259 -0.6603  1.4635
14707TIP3   OH244063   2.547   2.313   0.080 -0.3355 -0.2783  0.4818
14707TIP3    H144064   2.496   2.297   0.001  1.1342 -0.2358 -0.4849
14707TIP3    H244065   2.526   2.239   0.138 -0.2766 -1.0790 -0.5186
14708TIP3   OH244066   4.268   7.074   5.014 -0.4496  0.1201  0.6999
14708TIP3    H144067   4.175   7.098   5.014 -0.3164  0.7347 -1.7885
14708TIP3    H244068   4.294   7.082   5.106 -2.2571  2.3038  1.0753
14709TIP3   OH244069   3.630   4.110   2.604 -0.1959 -0.3650  0.1909
14709TIP3    H144070   3.613   4.157   2.686 -0.3440 -2.3499  1.3267
14709TIP3    H244071   3.693   4.165   2.558  0.4056  0.4596  1.9387
14710TIP3   OH244072   5.424   7.957   4.632 -0.0819  0.4328  0.1367
14710TIP3    H144073   5.407   7.961   4.537  1.2417 -4.1360 -0.3812
14710TIP3    H244074   5.353   7.903   4.667 -0.9729  2.6934  1.9321
14711TIP3   OH244075   6.444   4.946   5.135 -0.1850 -0.0704 -0.3582
14711TIP3    H144076   6.509   4.889   5.176  0.9681  0.2402 -1.7177
14711TIP3    H244077   6.361   4.922   5.176  0.5992 -1.3448  0.4934
14712TIP3   OH244078   4.935   7.810   6.190 -0.0775  0.0275 -0.2284
14712TIP3    H144079   4.874   7.783   6.122 -0.6420  0.8770 -0.0728
14712TIP3    H244080   5.020   7.778   6.161 -0.8688 -2.9054  0.5042
14713TIP3   OH244081   4.883   6.790   5.974  0.0595  0.0837  0.4058
14713TIP3    H144082   4.942   6.841   5.918  3.1300 -2.6967  0.9196
14713TIP3    H244083   4.913   6.809   6.063 -1.6621  0.7677  0.8476
14714TIP3   OH244084   5.181   1.324   0.167  0.0776  0.0378  0.2026
14714TIP3    H144085   5.090   1.352   0.181 -0.0316  0.5019 -1.4073
14714TIP3    H244086   5.173   1.236   0.131  0.2315  0.4162 -0.7699
14715TIP3   OH244087   8.168   0.841   6.352 -0.3909  0.0530 -0.6789
14715TIP3    H144088   8.116   0.791   6.415  0.8378 -0.6832 -0.2422
14715TIP3    H244089   8.207   0.911   6.404  0.6176 -0.5486 -0.6152
14716TIP3   OH244090   3.862   2.197   0.596 -0.2833 -0.0553 -0.4589
14716TIP3    H144091   3.903   2.200   0.510  2.0259  1.1711  0.6213
14716TIP3    H244092   3.794   2.264   0.593 -0.2484 -0.0534 -1.3560
14717TIP3   OH244093   6.044   6.408   6.089  0.0243 -0.5698 -0.4990
14717TIP3    H144094   5.958   6.384   6.055 -0.2701  0.2428 -0.3374
14717TIP3    H244095   6.099   6.416   6.011  0.0014 -1.2693 -0.5891
14718TIP3   OH244096   4.658   1.435   0.527  0.5702 -0.1520 -0.3125
14718TIP3    H144097   4.719   1.505   0.549  0.9211 -0.5970  0.1505
14718TIP3    H244098   4.709   1.354   0.539 -0.0743 -0.5204 -0.0223
14719TIP3   OH244099   5.273   3.245   1.920 -0.0315  0.3005 -0.1035
14719TIP3    H144100   5.215   3.277   1.851 -0.1126  0.3199 -0.0261
14719TIP3    H244101   5.257   3.151   1.923  0.1030  0.2723 -0.2334
14720TIP3   OH244102   5.001   2.696   1.469  0.2223 -0.1855  0.1450
14720TIP3    H144103   5.015   2.678   1.377  0.1131 -0.4764  0.1851
14720TIP3    H244104   4.988   2.791   1.473 -1.4379 -0.3675 -0.3633
14721TIP3   OH244105   6.272   2.707   0.688 -0.2415  0.1013 -0.1600
14721TIP3    H144106   6.185   2.720   0.725 -0.5147  0.2438 -0.8408
14721TIP3    H244107   6.289   2.613   0.700 -1.5288 -0.4438 -2.2165
14722TIP3   OH244108   6.351   4.749   6.515 -0.2868 -0.1588  0.0231
14722TIP3    H144109   6.302   4.797   6.582 -0.3637 -1.7030  1.0948
14722TIP3    H244110   6.359   4.811   6.443  0.5922  1.8830  1.7965
14723TIP3   OH244111   6.048   6.472   5.202  0.4006 -0.4974 -1.1162
14723TIP3    H144112   6.038   6.384   5.238 -0.6241  1.0221  2.5899
14723TIP3    H244113   5.968   6.486   5.152 -0.2420 -1.0547 -0.2720
14724TIP3   OH244114   4.680   3.544   1.590 -0.3357  0.5443 -0.0506
14724TIP3    H144115   4.754   3.604   1.578 -0.3945  0.6749  0.2322
14724TIP3    H244116   4.705   3.466   1.541  0.4954  0.1686  0.9430
14725TIP3   OH244117   2.413   1.073   0.045  0.0910 -0.1106  0.1956
14725TIP3    H144118   2.509   1.076   0.043  0.0979 -0.1387  0.4522
14725TIP3    H244119   2.388   1.142   0.107 -0.0517 -0.1580  0.1915
14726TIP3   OH244120   5.507   7.121   4.967  0.1680  0.3411 -0.3317
14726TIP3    H144121   5.434   7.181   4.985 -0.9383 -1.5570  1.9684
14726TIP3    H244122   5.465   7.036   4.954  2.0323 -1.2527  3.3194
14727TIP3   OH244123   6.406   3.533   1.006  0.2548 -0.0016  0.5762
14727TIP3    H144124   6.411   3.445   1.044 -1.6887 -0.5027 -0.2509
14727TIP3    H244125   6.351   3.582   1.067 -1.5793 -0.3753 -0.7231
14728TIP3   OH244126   7.390   0.369   4.608  0.1306  0.1936  0.2887
14728TIP3    H144127   7.353   0.333   4.688 -1.3114  1.1360  0.0573
14728TIP3    H244128   7.356   0.314   4.538 -1.6578  1.6487 -0.0161
14729TIP3   OH244129   1.911   7.366   6.914 -0.2520  1.0095  0.1436
14729TIP3    H144130   1.844   7.389   6.849  0.1613  2.8145  0.3118
14729TIP3    H244131   1.894   7.426   6.987  2.5555  2.6352 -0.4828
14730TIP3   OH244132   8.427   3.599   1.125 -0.0627  0.5275 -0.0885
14730TIP3    H144133   8.406   3.653   1.049  1.7733 -0.7197 -1.5302
14730TIP3    H244134   8.386   3.514   1.107  1.8880 -0.3356 -0.5550
14731TIP3   OH244135   0.206   2.269   0.445  0.0382  0.3377 -0.0754
14731TIP3    H144136   0.255   2.220   0.380 -1.2016 -0.8814 -0.0985
14731TIP3    H244137   0.269   2.333   0.479  0.8445  0.6258 -2.0524
14732TIP3   OH244138   1.057   1.988   0.461 -0.1320  0.5689 -0.0583
14732TIP3    H144139   1.076   2.016   0.372  0.5817 -0.3021 -0.1866
14732TIP3    H244140   1.084   2.062   0.516  4.4049 -0.8509 -0.1723
14733TIP3   OH244141   8.343   5.159   1.022 -0.5873  0.1719  0.1658
14733TIP3    H144142   8.431   5.163   1.059 -0.3541  0.7352 -0.4305
14733TIP3    H244143   8.302   5.084   1.065  0.0253  0.1893  0.7894
14734TIP3   OH244144   0.481   4.296   0.339 -0.0697 -0.3535  0.1536
14734TIP3    H144145   0.427   4.350   0.396 -0.3231 -1.5030  1.0261
14734TIP3    H244146   0.570   4.304   0.375  0.4877  1.9985 -1.6253
14735TIP3   OH244147   8.207   2.465   2.773  0.2872 -0.7345  0.0564
14735TIP3    H144148   8.134   2.403   2.769 -0.4748  0.1412  0.2196
14735TIP3    H244149   8.175   2.542   2.726  1.4763 -0.7157 -0.7224
14736TIP3   OH244150   6.902   0.963   6.906 -0.2946  0.3304 -0.7113
14736TIP3    H144151   6.997   0.960   6.917 -0.4605 -0.7981  0.4382
14736TIP3    H244152   6.887   1.042   6.854  1.4075 -0.4251 -2.4134
14737TIP3   OH244153  -0.022   4.142   1.406 -0.0202  0.0205 -0.3923
14737TIP3    H144154   0.044   4.099   1.460 -0.9885  0.0586  0.8723
14737TIP3    H244155   0.008   4.232   1.398  0.0494  0.0591  0.2465
14738TIP3   OH244156   0.263   5.888   1.552  0.1604 -0.0013 -0.0999
14738TIP3    H144157   0.271   5.899   1.457 -3.3527  0.9058 -0.3349
14738TIP3    H244158   0.269   5.976   1.588 -1.6404 -0.0129  0.2484
14739TIP3   OH244159   4.880   2.115   6.902  0.6286  0.0136  0.6381
14739TIP3    H144160   4.825   2.036   6.900 -0.9441  1.1130 -0.8670
14739TIP3    H244161   4.859   2.161   6.820  1.5480  1.9922  1.4840
14740TIP3   OH244162   6.215   0.405   6.325  0.3699 -0.7397 -0.1426
14740TIP3    H144163   6.217   0.309   6.330  0.4936 -0.7637 -0.6465
14740TIP3    H244164   6.126   0.426   6.299  0.6809 -0.7790 -1.2653
14741TIP3   OH244165   1.909   7.286   5.667  0.7263  0.1247  0.5400
14741TIP3    H144166   1.995   7.252   5.691  0.9462  0.3185  0.0365
14741TIP3    H244167   1.847   7.229   5.712  1.1207  0.1626  1.1398
14742TIP3   OH244168   3.994   7.155   6.876 -0.2292  0.1018  0.0171
14742TIP3    H144169   4.014   7.064   6.855  0.8901  0.2976  0.2167
14742TIP3    H244170   4.024   7.167   6.966 -0.6279  0.5866  0.0895
14743TIP3   OH244171   1.294   3.883   0.915  0.2086 -0.4011 -0.5233
14743TIP3    H144172   1.208   3.844   0.897  0.0657  0.5035 -1.8798
14743TIP3    H244173   1.350   3.808   0.935 -0.7276 -1.0613 -0.2929
14744TIP3   OH244174   4.483   7.415   6.605 -0.3235 -0.0921 -0.0909
14744TIP3    H144175   4.485   7.334   6.656 -3.1004 -0.9156 -1.2015
14744TIP3    H244176   4.561   7.411   6.549  0.1167 -1.4890  0.6210
14745TIP3   OH244177   1.446   3.174   0.107  0.2243 -0.2006  0.1779
14745TIP3    H144178   1.446   3.086   0.146 -1.7797  0.2214  1.2087
14745TIP3    H244179   1.535   3.206   0.121  1.0648 -2.1572 -0.4385
14746TIP3   OH244180   3.781   6.794   6.508  0.1172  0.0699 -0.2861
14746TIP3    H144181   3.807   6.790   6.416  0.1149  1.8318 -0.3704
14746TIP3    H244182   3.837   6.861   6.546  0.2524 -0.7848  1.0641
14747TIP3   OH244183   6.869   4.489   1.610  0.2396 -0.2943  0.0093
14747TIP3    H144184   6.937   4.458   1.671 -1.1954 -0.0019  1.7876
14747TIP3    H244185   6.889   4.444   1.528  1.2449 -1.9563  1.1235
14748TIP3   OH244186   5.101   0.639   5.511 -0.2950 -0.1394  0.0557
14748TIP3    H144187   5.040   0.684   5.569  0.2838  0.8783 -0.1202
14748TIP3    H244188   5.127   0.705   5.447 -0.4200 -1.0697 -0.9732
14749TIP3   OH244189   8.117   0.197   5.255  0.0217 -0.5475  0.0124
14749TIP3    H144190   8.125   0.133   5.326  0.1094 -1.7747 -1.0896
14749TIP3    H244191   8.194   0.181   5.200 -0.4074 -0.0529 -0.7305
14750TIP3   OH244192   8.058   2.306   6.023 -0.2505  0.5667 -0.3009
14750TIP3    H144193   7.963   2.299   6.023 -0.1656 -1.4174  2.5842
14750TIP3    H244194   8.076   2.382   6.078 -0.1382 -0.7774  1.5710
14751TIP3   OH244195   0.889   7.109   0.397  0.4659 -0.8874  0.7499
14751TIP3    H144196   0.817   7.061   0.438 -0.4223 -0.6951 -0.5460
14751TIP3    H244197   0.864   7.201   0.402  0.1257 -0.8912 -0.5949
14752TIP3   OH244198   7.488   0.403   6.754 -0.1108  0.4393  0.5237
14752TIP3    H144199   7.521   0.468   6.816  0.1170  0.4441  0.4003
14752TIP3    H244200   7.393   0.408   6.762 -0.0977  0.8433  0.4610
14753TIP3   OH244201   7.730   0.097   6.352  0.6176  0.1278 -0.2292
14753TIP3    H144202   7.702   0.170   6.406  1.9114  0.5726 -0.1332
14753TIP3    H244203   7.655   0.078   6.296 -0.2279  0.5821  0.7353
14754TIP3   OH244204   7.145   0.518   4.448 -0.4764 -0.5720  0.4693
14754TIP3    H144205   7.066   0.562   4.477  0.3287  0.5823  0.9449
14754TIP3    H244206   7.199   0.510   4.527 -0.7401 -2.7466  0.4814
14755TIP3   OH244207   3.250   6.825   2.886 -0.3692 -0.3817 -0.6256
14755TIP3    H144208   3.262   6.745   2.835  0.8294 -1.1186  0.7869
14755TIP3    H244209   3.297   6.809   2.968 -0.9139  1.4032  0.0616
14756TIP3   OH244210   6.242   3.365   0.185  0.5329 -0.6856 -0.3828
14756TIP3    H144211   6.228   3.334   0.274  0.8952  1.8722  0.6208
14756TIP3    H244212   6.161   3.414   0.164 -0.4533 -3.0395 -2.2778
14757TIP3   OH244213   0.298   0.568   4.971 -0.5604  0.3151 -0.1428
14757TIP3    H144214   0.242   0.597   4.900  0.5359  0.7464 -0.8402
14757TIP3    H244215   0.287   0.634   5.040 -0.6885  0.5490 -0.3909
14758TIP3   OH244216   1.300   4.969   0.998 -0.3727 -0.5780  0.1498
14758TIP3    H144217   1.373   4.995   1.054 -0.3418  1.2536 -0.6922
14758TIP3    H244218   1.258   4.897   1.045  0.7396 -0.2855  1.6349
14759TIP3   OH244219   6.162   1.047   4.533 -0.0048  0.4506 -1.1185
14759TIP3    H144220   6.134   1.087   4.450  0.4909  1.8073 -0.6507
14759TIP3    H244221   6.257   1.055   4.532  0.0530 -0.1838 -0.7344
14760TIP3   OH244222   3.826   7.296   5.979  0.3007 -0.1816 -0.4005
14760TIP3    H144223   3.815   7.323   5.888  0.2411  0.3448 -0.2392
14760TIP3    H244224   3.908   7.337   6.006  0.2820 -0.2784 -0.1989
14761TIP3   OH244225   7.209   0.745   4.878 -0.2574  0.3946  0.5073
14761TIP3    H144226   7.226   0.756   4.971  0.8450  0.9703  0.2490
14761TIP3    H244227   7.132   0.798   4.861 -2.0613 -1.7725  1.5847
14762TIP3   OH244228   6.039   7.062   6.681  0.4336  0.3519  0.0399
14762TIP3    H144229   6.070   7.139   6.633 -0.9536 -0.2711 -1.9245
14762TIP3    H244230   6.009   7.002   6.613 -0.0821 -1.2473  1.6310
14763TIP3   OH244231   4.729   7.600   6.743 -0.1578 -0.1597 -0.2869
14763TIP3    H144232   4.675   7.597   6.821 -1.3503  0.0437 -1.0985
14763TIP3    H244233   4.771   7.514   6.739 -2.6021 -1.3557 -1.1808
14764TIP3   OH244234   1.744   1.819   6.383 -0.7430 -0.3870  0.0337
14764TIP3    H144235   1.655   1.791   6.406 -0.8792 -0.0294 -0.0468
14764TIP3    H244236   1.757   1.899   6.434 -0.0147 -1.0982  0.9735
14765TIP3   OH244237   1.089   3.418   0.488  0.5712 -0.5769  0.2271
14765TIP3    H144238   1.004   3.374   0.490  0.0177  0.4976  0.6563
14765TIP3    H244239   1.068   3.509   0.465  1.5715 -0.2310  0.6728
14766TIP3   OH244240   0.186   3.313   1.123  0.4883  0.0562  0.0910
14766TIP3    H144241   0.095   3.292   1.144  0.7100 -0.5907  0.4118
14766TIP3    H244242   0.201   3.397   1.166 -0.1919  0.5488 -0.6275
14767TIP3   OH244243   7.926   1.641   5.969  0.3582 -0.0449 -0.4667
14767TIP3    H144244   7.926   1.621   6.063 -0.4988  0.3648 -0.3757
14767TIP3    H244245   8.019   1.642   5.945  0.6681  1.2401  0.6940
14768TIP3   OH244246   6.982   0.888   4.799  0.4394  0.1295  0.3062
14768TIP3    H144247   6.999   0.977   4.769 -0.1678  0.6608  1.5039
14768TIP3    H244248   6.908   0.897   4.859  0.1261 -1.2405  0.1290
14769TIP3   OH244249   2.373   3.399   0.387 -0.2298  0.1806  0.0748
14769TIP3    H144250   2.456   3.372   0.424 -0.8681  0.2482  1.5866
14769TIP3    H244251   2.375   3.494   0.390 -0.7816  0.1694  1.0989
14770TIP3   OH244252   1.204   4.155   0.127  0.8516  0.0569  0.5805
14770TIP3    H144253   1.293   4.176   0.154  2.3723 -0.7687 -3.3816
14770TIP3    H244254   1.201   4.059   0.125  0.3084  0.0843 -0.5366
14771TIP3   OH244255   4.436   7.652   6.728  0.3479 -0.4729  0.3981
14771TIP3    H144256   4.457   7.727   6.673  0.8002 -0.4754  0.5703
14771TIP3    H244257   4.458   7.576   6.675  1.0150 -0.4727  0.6759
14772TIP3   OH244258   2.019   4.049   1.165 -0.0536  0.2984  0.1208
14772TIP3    H144259   1.959   4.059   1.239 -0.3232  0.7603 -0.1610
14772TIP3    H244260   1.979   4.100   1.094 -0.6238 -1.4307 -0.8358
14773TIP3   OH244261   8.288   1.433   6.626  0.1683 -0.2617 -0.2665
14773TIP3    H144262   8.267   1.522   6.597 -2.7405 -1.0517 -0.7310
14773TIP3    H244263   8.301   1.385   6.545 -0.2787 -0.6976 -0.0842
14774TIP3   OH244264   4.383   7.941   5.513  0.4052  0.8209 -0.4715
14774TIP3    H144265   4.370   8.002   5.441 -0.6418 -0.0160 -1.0042
14774TIP3    H244266   4.332   7.863   5.489  1.9569 -0.3806  0.0479
14775TIP3   OH244267   7.232   7.921   4.702 -0.5991  0.3991 -0.0587
14775TIP3    H144268   7.192   7.970   4.631 -0.0861  0.7230 -0.1229
14775TIP3    H244269   7.253   7.987   4.768 -0.7507  0.1449  0.2461
14776TIP3   OH244270   7.325   2.673   6.281  0.5056 -0.1972 -0.2727
14776TIP3    H144271   7.286   2.588   6.297  0.1574  0.3428  1.8888
14776TIP3    H244272   7.410   2.670   6.325  2.1647 -0.7117 -3.3697
14777TIP3   OH244273   3.709   7.686   5.488  0.1276  0.2424 -0.8697
14777TIP3    H144274   3.641   7.691   5.555  0.3404  1.1869 -0.7201
14777TIP3    H244275   3.708   7.595   5.460 -0.3560 -0.0299  0.0088
14778TIP3   OH244276   4.879   0.070   6.435 -0.3936  0.0903  0.6880
14778TIP3    H144277   4.887  -0.021   6.466 -0.4921 -0.2151 -0.1817
14778TIP3    H244278   4.852   0.062   6.344 -0.0202  0.9958  0.4970
14779TIP3   OH244279   1.572   1.476   6.260  0.0274  0.1288  0.2399
14779TIP3    H144280   1.569   1.543   6.328 -1.1406 -0.4482  0.7581
14779TIP3    H244281   1.510   1.506   6.194  1.5715  0.9815 -0.8738
14780TIP3   OH244282   7.934   0.889   5.724 -0.7565  0.5981  0.0719
14780TIP3    H144283   7.841   0.872   5.706 -0.7661  1.0451 -0.3362
14780TIP3    H244284   7.954   0.967   5.672  0.1369 -0.1410 -0.6997
14781TIP3   OH244285   0.350   4.498   1.418 -0.2467  0.0072  0.2856
14781TIP3    H144286   0.388   4.506   1.506 -0.1994  1.0850  0.1790
14781TIP3    H244287   0.256   4.490   1.432 -0.3858  1.5965  0.3974
14782TIP3   OH244288   0.465   0.889   4.896 -0.2554  0.2243 -0.1286
14782TIP3    H144289   0.447   0.950   4.825  1.4028  0.9131  0.0238
14782TIP3    H244290   0.417   0.809   4.872 -2.4055  1.5313 -0.3480
14783TIP3   OH244291   4.377   7.223   6.789  0.0347  0.0702 -0.0096
14783TIP3    H144292   4.327   7.216   6.871 -0.1777 -2.4382 -0.2917
14783TIP3    H244293   4.316   7.263   6.727 -0.1914  0.9241  0.7518
14784TIP3   OH244294   8.461   1.591   4.505 -0.1756 -0.1432  0.4051
14784TIP3    H144295   8.402   1.652   4.549 -0.4401  0.7498 -1.1402
14784TIP3    H244296   8.528   1.572   4.570 -0.5220  1.1818  1.1800
14785TIP3   OH244297   5.696   6.470   6.814 -0.6250 -0.0024 -0.0501
14785TIP3    H144298   5.662   6.404   6.753  0.0546  0.4329 -0.9249
14785TIP3    H244299   5.790   6.453   6.817 -0.8278 -0.9337  2.0259
14786TIP3   OH244300   4.178   7.297   6.619 -0.1688  0.2070 -0.6193
14786TIP3    H144301   4.200   7.383   6.584 -2.1356  1.6197  1.5354
14786TIP3    H244302   4.083   7.292   6.612 -0.2157 -1.0917  0.8700
14787TIP3   OH244303   2.515   6.439   5.021  0.3691  0.8254 -0.2957
14787TIP3    H144304   2.433   6.466   4.979  0.6873 -1.4237 -2.4766
14787TIP3    H244305   2.584   6.472   4.963  0.8534 -1.0955 -0.8537
14788TIP3   OH244306   1.835   3.448   2.057 -0.4176  0.0843  0.0472
14788TIP3    H144307   1.926   3.471   2.072 -0.2476  0.5817 -1.5734
14788TIP3    H244308   1.810   3.395   2.133  1.4322 -0.6729  0.1610
14789TIP3   OH244309   6.414   0.020   6.224  0.2534 -0.0277  0.1553
14789TIP3    H144310   6.495   0.064   6.198  1.1735 -1.2368  0.9295
14789TIP3    H244311   6.411   0.031   6.319 -1.0462  0.9254  0.0148
14790TIP3   OH244312   7.633   1.008   4.809 -0.5495  0.1059 -0.3646
14790TIP3    H144313   7.709   0.971   4.764  0.7401  0.9530  1.0333
14790TIP3    H244314   7.627   0.958   4.891  0.0545  1.6802  0.6677
14791TIP3   OH244315   6.947   0.990   6.149  0.0431 -0.1933 -0.4444
14791TIP3    H144316   6.918   0.916   6.201  1.2849  1.4280  2.7061
14791TIP3    H244317   6.895   1.064   6.181  3.4127  1.5808  1.2671
14792TIP3   OH244318   4.636   1.498   6.731  0.4316  0.4950 -0.4150
14792TIP3    H144319   4.630   1.465   6.820 -0.2539 -0.0478 -0.6587
14792TIP3    H244320   4.573   1.445   6.681 -1.0456  2.4913 -0.7171
14793TIP3   OH244321   6.121   5.842   5.666 -0.0086  0.1462  0.2402
14793TIP3    H144322   6.180   5.885   5.603 -0.4662 -0.2254 -0.4518
14793TIP3    H244323   6.094   5.912   5.725  0.1383  0.5790 -0.1979
14794TIP3   OH244324   0.815   4.770   0.072  0.3757  0.5132 -0.6591
14794TIP3    H144325   0.753   4.729   0.132  0.6391  0.5728 -0.3466
14794TIP3    H244326   0.805   4.864   0.088  0.8011  0.5071 -0.3573
14795TIP3   OH244327   7.670   6.032   5.812  0.5444  0.5091  0.4374
14795TIP3    H144328   7.751   6.084   5.811  0.4596  0.6352 -1.7170
14795TIP3    H244329   7.684   5.967   5.880  3.0266 -0.3268 -0.8338
14796TIP3   OH244330   4.577   7.524   6.254 -0.2347  0.1809 -0.4276
14796TIP3    H144331   4.638   7.573   6.200 -0.6434  0.7414 -0.3914
14796TIP3    H244332   4.504   7.504   6.196 -0.8893  1.1931  0.0220
14797TIP3   OH244333   0.101   2.335   4.853 -0.3555 -0.1471  0.8310
14797TIP3    H144334   0.044   2.357   4.927  0.7221  1.5443  1.2012
14797TIP3    H244335   0.086   2.242   4.837 -3.2704  0.2896  0.8648
14798TIP3   OH244336   0.157   1.390   6.388 -0.1528  0.1237  0.0310
14798TIP3    H144337   0.179   1.389   6.481 -0.2456  0.8875  0.0612
14798TIP3    H244338   0.216   1.325   6.349  0.3148  0.2496  0.5212
14799TIP3   OH244339   5.216   7.179   6.674  0.4337 -0.2843 -0.6609
14799TIP3    H144340   5.285   7.239   6.645 -0.8708  1.5436 -0.0718
14799TIP3    H244341   5.156   7.174   6.599 -0.3101  0.4654 -0.1274
14800TIP3   OH244342   6.972   3.683   0.618  0.0147 -0.1099  1.1794
14800TIP3    H144343   7.025   3.733   0.556 -3.2333  0.6865 -1.1092
14800TIP3    H244344   6.957   3.599   0.574  0.2534 -0.7203  2.2594
14801TIP3   OH244345   3.516   7.031   0.231 -0.1097 -0.2139 -0.4710
14801TIP3    H144346   3.543   6.947   0.196 -0.8214 -0.7763  0.3002
14801TIP3    H244347   3.527   7.022   0.326 -1.4424  0.1087 -0.2846
14802TIP3   OH244348   1.317   3.540   0.272  0.0037 -0.1655 -0.0771
14802TIP3    H144349   1.274   3.471   0.223  2.0071 -0.2499 -1.7707
14802TIP3    H244350   1.406   3.508   0.287 -0.2777  0.2259  2.9110
14803TIP3   OH244351   2.427   4.164   0.126  0.3892  0.3857 -0.0365
14803TIP3    H144352   2.397   4.103   0.193  0.6487 -0.3320 -0.5594
14803TIP3    H244353   2.513   4.193   0.157  0.7170 -0.3074 -0.2820
14804TIP3   OH244354   2.206   3.717   0.113  0.3355 -0.1045  0.4522
14804TIP3    H144355   2.258   3.782   0.064  2.2098  0.0664  2.5874
14804TIP3    H244356   2.263   3.690   0.185 -3.0725  1.1761  3.8042
14805TIP3   OH244357   5.293   5.882   4.774  0.4305  0.2750 -0.2275
14805TIP3    H144358   5.209   5.836   4.762  0.2034  0.7214 -0.3785
14805TIP3    H244359   5.320   5.906   4.685  1.1111 -0.5506 -0.2488
14806TIP3   OH244360   7.836   1.616   6.782  0.4282  0.8974 -0.5279
14806TIP3    H144361   7.769   1.613   6.714  0.4324 -0.5586 -0.4777
14806TIP3    H244362   7.879   1.531   6.778  1.8719  1.5756 -0.1428
14807TIP3   OH244363   0.300   0.384   5.962 -0.6256 -0.1841  0.5392
14807TIP3    H144364   0.278   0.332   6.039  0.0099 -0.3217  0.6345
14807TIP3    H244365   0.217   0.398   5.917 -0.8275 -1.1464  0.6002
14808TIP3   OH244366   2.322   7.575   4.882  0.7276  0.3010  0.1085
14808TIP3    H144367   2.262   7.518   4.930  1.4538  0.1733  0.8900
14808TIP3    H244368   2.364   7.628   4.950  1.7484  0.1491 -0.3975
14809TIP3   OH244369   4.587   4.991   6.700  0.0397  0.1605  0.0877
14809TIP3    H144370   4.663   5.041   6.731  0.1006 -0.2935  0.6700
14809TIP3    H244371   4.624   4.926   6.641 -0.1123  1.2488 -1.2344
14810TIP3   OH244372   7.010   0.505   6.359 -0.0683 -0.2494 -1.1711
14810TIP3    H144373   6.965   0.550   6.287 -0.9400  1.4626  0.3775
14810TIP3    H244374   7.102   0.509   6.336 -0.2170  1.4501 -1.5924
14811TIP3   OH244375   4.613   7.507   5.396  0.3017 -0.6941 -0.0122
14811TIP3    H144376   4.597   7.499   5.302 -1.1619  1.2917  0.0388
14811TIP3    H244377   4.688   7.567   5.403  0.6501 -1.1379  0.0778
14812TIP3   OH244378   1.186   3.508   6.309 -0.2787  0.1271  0.2173
14812TIP3    H144379   1.259   3.567   6.290 -0.2636  0.3223  0.8649
14812TIP3    H244380   1.119   3.532   6.244 -0.7715  1.7560  1.2973
14813TIP3   OH244381   4.747   7.182   5.806 -0.1426  0.3728 -0.2384
14813TIP3    H144382   4.839   7.203   5.791 -0.0023 -0.1080 -0.0235
14813TIP3    H244383   4.701   7.226   5.734  0.4487 -1.0666 -1.5125
14814TIP3   OH244384   2.286   2.276   6.098  0.7094  0.1427 -0.3422
14814TIP3    H144385   2.211   2.217   6.101  0.2158  0.7657 -0.2779
14814TIP3    H244386   2.312   2.286   6.189  1.9506 -1.4241 -0.5051
14815TIP3   OH244387   1.804   6.452   0.567  0.7614 -0.2539  0.0431
14815TIP3    H144388   1.734   6.415   0.514  0.4541 -1.1742  1.0644
14815TIP3    H244389   1.817   6.540   0.532  0.1807 -0.6432 -1.1750
   8.50000   8.01388   6.94022   0.00000   0.00000  -2.83333   0.00000  -2.83333  -4.00694
