Title t=  19.00000 step= 9500
29212
    1ASP      N    1   1.680   1.131   1.675
    1ASP    HT1    2   1.777   1.169   1.678
    1ASP    HT2    3   1.615   1.211   1.665
    1ASP    HT3    4   1.675   1.065   1.594
    1ASP     CA    5   1.666   1.065   1.808
    1ASP     HA    6   1.566   1.025   1.813
    1ASP     CB    7   1.777   0.963   1.799
    1ASP    HB1    8   1.792   0.908   1.895
    1ASP    HB2    9   1.876   1.002   1.765
    1ASP     CG   10   1.751   0.845   1.712
    1ASP    OD1   11   1.676   0.862   1.614
    1ASP    OD2   12   1.823   0.740   1.723
    1ASP      C   13   1.677   1.156   1.923
    1ASP      O   14   1.714   1.273   1.912
    2GLY      N   15   1.635   1.104   2.042
    2GLY     HN   16   1.577   1.023   2.039
    2GLY     CA   17   1.647   1.169   2.170
    2GLY    HA1   18   1.740   1.223   2.176
    2GLY    HA2   19   1.638   1.093   2.246
    2GLY      C   20   1.539   1.263   2.195
    2GLY      O   21   1.450   1.277   2.112
    3ASP      N   22   1.533   1.327   2.317
    3ASP     HN   23   1.604   1.318   2.387
    3ASP     CA   24   1.425   1.422   2.356
    3ASP     HA   25   1.361   1.459   2.278
    3ASP     CB   26   1.351   1.361   2.480
    3ASP    HB1   27   1.272   1.434   2.510
    3ASP    HB2   28   1.423   1.356   2.564
    3ASP     CG   29   1.284   1.227   2.444
    3ASP    OD1   30   1.342   1.116   2.449
    3ASP    OD2   31   1.174   1.231   2.390
    3ASP      C   32   1.496   1.548   2.398
    3ASP      O   33   1.613   1.547   2.441
    4GLY      N   34   1.428   1.668   2.387
    4GLY     HN   35   1.339   1.678   2.344
    4GLY     CA   36   1.481   1.792   2.444
    4GLY    HA1   37   1.406   1.860   2.406
    4GLY    HA2   38   1.579   1.828   2.417
    4GLY      C   39   1.473   1.799   2.592
    4GLY      O   40   1.432   1.698   2.656
    5PRO      N   41   1.488   1.912   2.667
    5PRO     CD   42   1.579   2.019   2.616
    5PRO    HD1   43   1.536   2.076   2.531
    5PRO    HD2   44   1.682   1.983   2.598
    5PRO     CA   45   1.423   1.933   2.801
    5PRO     HA   46   1.474   1.865   2.867
    5PRO     CB   47   1.458   2.080   2.823
    5PRO    HB1   48   1.475   2.093   2.932
    5PRO    HB2   49   1.379   2.139   2.772
    5PRO     CG   50   1.590   2.102   2.741
    5PRO    HG1   51   1.585   2.211   2.720
    5PRO    HG2   52   1.673   2.069   2.806
    5PRO      C   53   1.281   1.895   2.823
    5PRO      O   54   1.205   1.911   2.725
    6GLY      N   55   1.259   1.836   2.939
    6GLY     HN   56   1.330   1.836   3.009
    6GLY     CA   57   1.122   1.802   2.983
    6GLY    HA1   58   1.136   1.747   3.075
    6GLY    HA2   59   1.069   1.753   2.903
    6GLY      C   60   1.026   1.923   3.008
    6GLY      O   61   1.065   2.041   3.014
    7ASP      N   62   0.898   1.887   3.037
    7ASP     HN   63   0.869   1.792   3.029
    7ASP     CA   64   0.809   1.978   3.103
    7ASP     HA   65   0.801   2.066   3.040
    7ASP     CB   66   0.666   1.921   3.126
    7ASP    HB1   67   0.602   2.003   3.163
    7ASP    HB2   68   0.665   1.833   3.193
    7ASP     CG   69   0.581   1.869   3.010
    7ASP    OD1   70   0.470   1.812   3.026
    7ASP    OD2   71   0.611   1.899   2.892
    7ASP      C   72   0.862   2.019   3.245
    7ASP      O   73   0.931   1.941   3.309
    8PRO      N   74   0.849   2.142   3.300
    8PRO     CD   75   0.804   2.260   3.215
    8PRO    HD1   76   0.694   2.243   3.209
    8PRO    HD2   77   0.861   2.259   3.120
    8PRO     CA   78   0.897   2.188   3.429
    8PRO     HA   79   1.004   2.198   3.421
    8PRO     CB   80   0.834   2.334   3.440
    8PRO    HB1   81   0.882   2.397   3.517
    8PRO    HB2   82   0.726   2.313   3.458
    8PRO     CG   83   0.844   2.390   3.296
    8PRO    HG1   84   0.768   2.468   3.273
    8PRO    HG2   85   0.943   2.420   3.255
    8PRO      C   86   0.861   2.093   3.546
    8PRO      O   87   0.746   2.049   3.551
    9GLY      N   88   0.951   2.050   3.637
    9GLY     HN   89   1.043   2.082   3.617
    9GLY     CA   90   0.925   1.970   3.760
    9GLY    HA1   91   1.019   1.942   3.804
    9GLY    HA2   92   0.864   1.883   3.738
    9GLY      C   93   0.853   2.054   3.866
    9GLY      O   94   0.811   2.167   3.837
   10ASP      N   95   0.835   1.997   3.987
   10ASP     HN   96   0.880   1.912   4.015
   10ASP     CA   97   0.730   2.041   4.085
   10ASP     HA   98   0.643   2.071   4.029
   10ASP     CB   99   0.706   1.930   4.197
   10ASP    HB1  100   0.647   1.976   4.279
   10ASP    HB2  101   0.801   1.893   4.242
   10ASP     CG  102   0.632   1.813   4.146
   10ASP    OD1  103   0.543   1.832   4.058
   10ASP    OD2  104   0.650   1.703   4.209
   10ASP      C  105   0.790   2.165   4.164
   10ASP      O  106   0.900   2.163   4.219
   11GLY      N  107   0.714   2.276   4.157
   11GLY     HN  108   0.622   2.264   4.122
   11GLY     CA  109   0.749   2.412   4.199
   11GLY    HA1  110   0.798   2.398   4.294
   11GLY    HA2  111   0.662   2.476   4.191
   11GLY      C  112   0.860   2.474   4.112
   11GLY    OT1  113   0.977   2.487   4.152
   11GLY    OT2  114   0.828   2.498   3.994
   12LIT    LIT  115   4.176   5.628   1.274
   13LIT    LIT  116   2.221   3.161   5.835
   14LIT    LIT  117   2.153   0.368   0.777
   15LIT    LIT  118   3.486   1.162   1.636
   16LIT    LIT  119   1.025   2.497   3.973
   17LIT    LIT  120   6.483   0.120   3.784
   18LIT    LIT  121   2.953   3.021   3.496
   19LIT    LIT  122   1.939   5.926   0.704
   20LIT    LIT  123   7.092   1.984   3.238
   21LIT    LIT  124   2.062   0.613   2.227
   22LIT    LIT  125   5.235   4.450   0.272
   23LIT    LIT  126   3.062   4.299   5.837
   24LIT    LIT  127   5.761   4.477   4.524
   25LIT    LIT  128   0.440   1.809   2.833
   26LIT    LIT  129   0.502   1.829   3.882
   27LIT    LIT  130   4.091   1.020   3.592
   28LIT    LIT  131   0.532   5.177   5.812
   29LIT    LIT  132   7.072   3.077   2.983
   30LIT    LIT  133   0.129   2.150   1.471
   31LIT    LIT  134   4.593   1.149   2.132
   32LIT    LIT  135   6.570   3.018   0.302
   33LIT    LIT  136   3.624   3.310   2.603
   34LIT    LIT  137   5.117   1.949   4.079
   35LIT    LIT  138   0.904   1.489   2.193
   36LIT    LIT  139   6.092   5.509   1.636
   37LIT    LIT  140   2.564   4.878   0.681
   38LIT    LIT  141   4.222   6.162   0.418
   39LIT    LIT  142   1.517   0.771   1.588
   40LIT    LIT  143   2.361   6.522   2.936
   41LIT    LIT  144   3.253   1.351   3.361
   42LIT    LIT  145   1.185   1.039   2.351
   43CLA    CLA  146   2.516   6.542   2.756
   44CLA    CLA  147   4.409   1.079   3.894
   45CLA    CLA  148   3.329   3.175   3.329
   46CLA    CLA  149   6.023   2.953   0.711
   47CLA    CLA  150   0.430   1.516   2.421
   48CLA    CLA  151   4.365   5.999   1.060
   49CLA    CLA  152   3.237   6.370   3.856
   50CLA    CLA  153   3.773   3.809   1.065
   51CLA    CLA  154   7.184   1.462   1.568
   52CLA    CLA  155   4.069   4.534   3.702
   53CLA    CLA  156   3.423   1.266   2.715
   54CLA    CLA  157   3.406   0.949   1.156
   55CLA    CLA  158   7.167   3.253   5.437
   56CLA    CLA  159   6.975   0.280   4.654
   57CLA    CLA  160   7.220   2.596   4.163
   58CLA    CLA  161   3.626   3.088   2.532
   59CLA    CLA  162   4.904   0.618   1.630
   60CLA    CLA  163   6.872   6.305   2.783
   61CLA    CLA  164   6.275   6.768   0.751
   62CLA    CLA  165   6.875   0.226   0.753
   63CLA    CLA  166   7.167   1.490   0.149
   64CLA    CLA  167   4.176   4.104   0.664
   65CLA    CLA  168   5.786   5.257   2.805
   66CLA    CLA  169   3.582   0.277   2.471
   67CLA    CLA  170   6.038   1.658   2.259
   68CLA    CLA  171   0.323   2.567   1.368
   69CLA    CLA  172   4.069   4.380   2.333
   70TIP3   OH2  173   0.420   6.689   5.645
   70TIP3    H1  174   0.434   6.760   5.708
   70TIP3    H2  175   0.508   6.659   5.622
   71TIP3   OH2  176   0.873   4.931   4.058
   71TIP3    H1  177   0.812   4.857   4.049
   71TIP3    H2  178   0.951   4.904   4.010
   72TIP3   OH2  179   6.192   4.610   4.297
   72TIP3    H1  180   6.208   4.704   4.309
   72TIP3    H2  181   6.277   4.569   4.309
   73TIP3   OH2  182   1.220  -0.056   5.895
   73TIP3    H1  183   1.312  -0.054   5.868
   73TIP3    H2  184   1.211   0.018   5.955
   74TIP3   OH2  185   3.686   5.806   4.996
   74TIP3    H1  186   3.730   5.729   4.959
   74TIP3    H2  187   3.637   5.772   5.071
   75TIP3   OH2  188   3.355   3.571   1.866
   75TIP3    H1  189   3.381   3.564   1.774
   75TIP3    H2  190   3.302   3.493   1.882
   76TIP3   OH2  191   4.114   0.436   4.218
   76TIP3    H1  192   4.120   0.531   4.224
   76TIP3    H2  193   4.082   0.419   4.129
   77TIP3   OH2  194   5.559   1.474   0.336
   77TIP3    H1  195   5.607   1.543   0.292
   77TIP3    H2  196   5.563   1.496   0.429
   78TIP3   OH2  197   0.683   3.850  -0.043
   78TIP3    H1  198   0.628   3.917  -0.002
   78TIP3    H2  199   0.769   3.890  -0.049
   79TIP3   OH2  200   1.377   4.238   3.599
   79TIP3    H1  201   1.420   4.167   3.647
   79TIP3    H2  202   1.370   4.309   3.663
   80TIP3   OH2  203   3.514   0.655   0.721
   80TIP3    H1  204   3.589   0.709   0.695
   80TIP3    H2  205   3.552   0.569   0.741
   81TIP3   OH2  206   7.192   3.156   4.502
   81TIP3    H1  207   7.205   3.207   4.422
   81TIP3    H2  208   7.164   3.221   4.567
   82TIP3   OH2  209   3.948   4.186   4.458
   82TIP3    H1  210   3.876   4.133   4.421
   82TIP3    H2  211   3.904   4.252   4.511
   83TIP3   OH2  212   0.813   4.087   0.398
   83TIP3    H1  213   0.900   4.127   0.395
   83TIP3    H2  214   0.795   4.078   0.491
   84TIP3   OH2  215   5.177   1.409   2.342
   84TIP3    H1  216   5.117   1.478   2.371
   84TIP3    H2  217   5.207   1.438   2.256
   85TIP3   OH2  218   6.740   1.768   3.412
   85TIP3    H1  219   6.747   1.774   3.507
   85TIP3    H2  220   6.673   1.701   3.397
   86TIP3   OH2  221   7.212   1.705   3.061
   86TIP3    H1  222   7.152   1.779   3.048
   86TIP3    H2  223   7.214   1.692   3.155
   87TIP3   OH2  224   1.492   0.274   2.117
   87TIP3    H1  225   1.508   0.233   2.202
   87TIP3    H2  226   1.407   0.240   2.089
   88TIP3   OH2  227   0.983   5.964   4.678
   88TIP3    H1  228   0.906   5.984   4.626
   88TIP3    H2  229   1.040   5.915   4.619
   89TIP3   OH2  230   6.975   5.695   4.059
   89TIP3    H1  231   6.929   5.700   3.975
   89TIP3    H2  232   6.948   5.774   4.106
   90TIP3   OH2  233   0.718   4.682   4.877
   90TIP3    H1  234   0.793   4.735   4.904
   90TIP3    H2  235   0.730   4.668   4.783
   91TIP3   OH2  236   4.153   5.898   0.279
   91TIP3    H1  237   4.138   5.826   0.219
   91TIP3    H2  238   4.104   5.875   0.358
   92TIP3   OH2  239   3.109   0.152   0.121
   92TIP3    H1  240   3.150   0.236   0.144
   92TIP3    H2  241   3.179   0.088   0.132
   93TIP3   OH2  242   7.027   5.433   3.978
   93TIP3    H1  243   7.007   5.379   4.054
   93TIP3    H2  244   7.009   5.523   4.006
   94TIP3   OH2  245   4.506   1.647   0.886
   94TIP3    H1  246   4.440   1.706   0.923
   94TIP3    H2  247   4.455   1.572   0.855
   95TIP3   OH2  248   3.097   4.242   4.887
   95TIP3    H1  249   3.189   4.219   4.899
   95TIP3    H2  250   3.071   4.283   4.969
   96TIP3   OH2  251   0.089   6.620   1.729
   96TIP3    H1  252   0.152   6.688   1.707
   96TIP3    H2  253   0.012   6.639   1.675
   97TIP3   OH2  254   3.105   6.818   3.282
   97TIP3    H1  255   3.177   6.847   3.226
   97TIP3    H2  256   3.101   6.724   3.269
   98TIP3   OH2  257   0.592   2.107   2.099
   98TIP3    H1  258   0.644   2.125   2.177
   98TIP3    H2  259   0.528   2.179   2.096
   99TIP3   OH2  260   2.088   4.862   2.370
   99TIP3    H1  261   2.081   4.890   2.461
   99TIP3    H2  262   2.121   4.938   2.324
  100TIP3   OH2  263   3.602   2.756   0.032
  100TIP3    H1  264   3.592   2.673   0.079
  100TIP3    H2  265   3.585   2.734  -0.060
  101TIP3   OH2  266   5.265   1.549   2.126
  101TIP3    H1  267   5.360   1.559   2.128
  101TIP3    H2  268   5.246   1.526   2.035
  102TIP3   OH2  269   2.745   0.687   1.769
  102TIP3    H1  270   2.660   0.658   1.804
  102TIP3    H2  271   2.761   0.771   1.811
  103TIP3   OH2  272   7.152   1.212   1.247
  103TIP3    H1  273   7.240   1.196   1.282
  103TIP3    H2  274   7.166   1.226   1.153
  104TIP3   OH2  275   0.284   5.645   0.506
  104TIP3    H1  276   0.213   5.651   0.441
  104TIP3    H2  277   0.340   5.720   0.486
  105TIP3   OH2  278   6.969   3.818   2.322
  105TIP3    H1  279   6.878   3.809   2.294
  105TIP3    H2  280   6.991   3.909   2.301
  106TIP3   OH2  281   3.898   2.126   3.913
  106TIP3    H1  282   3.928   2.210   3.878
  106TIP3    H2  283   3.973   2.092   3.960
  107TIP3   OH2  284   5.228   1.636   0.044
  107TIP3    H1  285   5.228   1.635   0.139
  107TIP3    H2  286   5.151   1.585   0.020
  108TIP3   OH2  287   3.512   3.541   2.957
  108TIP3    H1  288   3.583   3.580   3.007
  108TIP3    H2  289   3.449   3.512   3.023
  109TIP3   OH2  290   4.201   0.044   3.500
  109TIP3    H1  291   4.180   0.097   3.576
  109TIP3    H2  292   4.117   0.009   3.470
  110TIP3   OH2  293   1.905   0.860   2.401
  110TIP3    H1  294   1.843   0.867   2.329
  110TIP3    H2  295   1.953   0.943   2.400
  111TIP3   OH2  296   3.876   3.962   5.494
  111TIP3    H1  297   3.836   4.015   5.563
  111TIP3    H2  298   3.928   3.897   5.541
  112TIP3   OH2  299   6.274   1.252   4.788
  112TIP3    H1  300   6.283   1.346   4.802
  112TIP3    H2  301   6.241   1.244   4.699
  113TIP3   OH2  302   1.928   6.268   3.499
  113TIP3    H1  303   1.836   6.247   3.489
  113TIP3    H2  304   1.974   6.198   3.452
  114TIP3   OH2  305   2.869   0.854   4.529
  114TIP3    H1  306   2.788   0.803   4.532
  114TIP3    H2  307   2.931   0.796   4.484
  115TIP3   OH2  308   5.178   1.277   3.942
  115TIP3    H1  309   5.105   1.315   3.894
  115TIP3    H2  310   5.159   1.295   4.034
  116TIP3   OH2  311   0.892   0.162   5.874
  116TIP3    H1  312   0.920   0.104   5.803
  116TIP3    H2  313   0.801   0.137   5.891
  117TIP3   OH2  314   3.931   5.810   1.562
  117TIP3    H1  315   3.970   5.753   1.628
  117TIP3    H2  316   3.871   5.752   1.514
  118TIP3   OH2  317   0.809   5.231   5.037
  118TIP3    H1  318   0.874   5.281   5.087
  118TIP3    H2  319   0.739   5.214   5.101
  119TIP3   OH2  320   2.687   3.445   1.237
  119TIP3    H1  321   2.700   3.522   1.183
  119TIP3    H2  322   2.607   3.405   1.203
  120TIP3   OH2  323   2.609   1.240   3.027
  120TIP3    H1  324   2.691   1.207   3.064
  120TIP3    H2  325   2.545   1.173   3.049
  121TIP3   OH2  326   2.359   5.696   2.087
  121TIP3    H1  327   2.309   5.614   2.088
  121TIP3    H2  328   2.292   5.764   2.080
  122TIP3   OH2  329   6.256   3.855   2.597
  122TIP3    H1  330   6.344   3.890   2.586
  122TIP3    H2  331   6.200   3.933   2.607
  123TIP3   OH2  332   0.761   6.095   2.832
  123TIP3    H1  333   0.672   6.058   2.839
  123TIP3    H2  334   0.754   6.163   2.766
  124TIP3   OH2  335   6.412   1.313   1.459
  124TIP3    H1  336   6.463   1.315   1.540
  124TIP3    H2  337   6.411   1.221   1.434
  125TIP3   OH2  338   4.316   3.958   2.294
  125TIP3    H1  339   4.335   4.050   2.310
  125TIP3    H2  340   4.233   3.943   2.340
  126TIP3   OH2  341   0.880   5.687   3.463
  126TIP3    H1  342   0.881   5.610   3.405
  126TIP3    H2  343   0.894   5.651   3.551
  127TIP3   OH2  344   3.334   5.143   0.470
  127TIP3    H1  345   3.300   5.139   0.560
  127TIP3    H2  346   3.263   5.110   0.416
  128TIP3   OH2  347   1.560   6.677   3.577
  128TIP3    H1  348   1.644   6.636   3.597
  128TIP3    H2  349   1.533   6.718   3.660
  129TIP3   OH2  350   2.747   2.537   4.258
  129TIP3    H1  351   2.795   2.619   4.254
  129TIP3    H2  352   2.813   2.470   4.243
  130TIP3   OH2  353   1.216   4.808   4.528
  130TIP3    H1  354   1.187   4.837   4.615
  130TIP3    H2  355   1.146   4.836   4.469
  131TIP3   OH2  356   4.776   0.868   5.281
  131TIP3    H1  357   4.819   0.951   5.264
  131TIP3    H2  358   4.743   0.876   5.371
  132TIP3   OH2  359   6.058   3.320   3.255
  132TIP3    H1  360   6.132   3.259   3.259
  132TIP3    H2  361   6.083   3.392   3.312
  133TIP3   OH2  362   0.290   2.009   4.716
  133TIP3    H1  363   0.323   1.995   4.804
  133TIP3    H2  364   0.282   1.921   4.679
  134TIP3   OH2  365   1.372   3.801   1.539
  134TIP3    H1  366   1.282   3.831   1.531
  134TIP3    H2  367   1.368   3.730   1.604
  135TIP3   OH2  368   0.845   4.347   5.129
  135TIP3    H1  369   0.847   4.418   5.194
  135TIP3    H2  370   0.925   4.357   5.079
  136TIP3   OH2  371   3.897   4.435   4.192
  136TIP3    H1  372   3.907   4.403   4.103
  136TIP3    H2  373   3.914   4.529   4.186
  137TIP3   OH2  374   3.499   4.955   5.493
  137TIP3    H1  375   3.443   4.924   5.422
  137TIP3    H2  376   3.513   4.878   5.548
  138TIP3   OH2  377   4.197   1.245   0.758
  138TIP3    H1  378   4.164   1.193   0.684
  138TIP3    H2  379   4.119   1.259   0.813
  139TIP3   OH2  380   6.369   0.773   3.469
  139TIP3    H1  381   6.437   0.820   3.421
  139TIP3    H2  382   6.364   0.687   3.428
  140TIP3   OH2  383   2.170   1.068   0.076
  140TIP3    H1  384   2.138   1.063   0.166
  140TIP3    H2  385   2.246   1.009   0.074
  141TIP3   OH2  386   0.329   6.531   3.641
  141TIP3    H1  387   0.367   6.487   3.565
  141TIP3    H2  388   0.300   6.616   3.607
  142TIP3   OH2  389   0.793   4.844   3.386
  142TIP3    H1  390   0.821   4.883   3.303
  142TIP3    H2  391   0.873   4.834   3.437
  143TIP3   OH2  392   7.067   6.430   1.965
  143TIP3    H1  393   7.141   6.401   1.912
  143TIP3    H2  394   7.102   6.439   2.053
  144TIP3   OH2  395   2.442   3.725   1.422
  144TIP3    H1  396   2.386   3.787   1.470
  144TIP3    H2  397   2.380   3.670   1.373
  145TIP3   OH2  398   3.151   4.549   2.950
  145TIP3    H1  399   3.237   4.565   2.988
  145TIP3    H2  400   3.165   4.475   2.891
  146TIP3   OH2  401   1.427   3.261   0.367
  146TIP3    H1  402   1.440   3.321   0.293
  146TIP3    H2  403   1.398   3.317   0.439
  147TIP3   OH2  404   2.519   5.541   3.645
  147TIP3    H1  405   2.596   5.597   3.652
  147TIP3    H2  406   2.534   5.488   3.567
  148TIP3   OH2  407   2.816   6.657   2.680
  148TIP3    H1  408   2.794   6.638   2.589
  148TIP3    H2  409   2.742   6.624   2.730
  149TIP3   OH2  410   6.693   2.568   4.626
  149TIP3    H1  411   6.776   2.533   4.656
  149TIP3    H2  412   6.667   2.512   4.553
  150TIP3   OH2  413   0.077   4.903   3.294
  150TIP3    H1  414   0.158   4.950   3.314
  150TIP3    H2  415   0.039   4.884   3.379
  151TIP3   OH2  416   6.335   1.429   3.353
  151TIP3    H1  417   6.427   1.451   3.342
  151TIP3    H2  418   6.293   1.459   3.272
  152TIP3   OH2  419   6.631   5.562   1.360
  152TIP3    H1  420   6.710   5.539   1.409
  152TIP3    H2  421   6.647   5.650   1.327
  153TIP3   OH2  422   2.238   3.657   2.775
  153TIP3    H1  423   2.280   3.673   2.860
  153TIP3    H2  424   2.311   3.637   2.716
  154TIP3   OH2  425   0.147   6.563   3.339
  154TIP3    H1  426   0.098   6.633   3.296
  154TIP3    H2  427   0.128   6.574   3.432
  155TIP3   OH2  428   3.933   5.215   5.110
  155TIP3    H1  429   3.849   5.201   5.067
  155TIP3    H2  430   3.914   5.278   5.180
  156TIP3   OH2  431   3.483   2.143   2.223
  156TIP3    H1  432   3.440   2.130   2.139
  156TIP3    H2  433   3.563   2.190   2.202
  157TIP3   OH2  434   6.128   4.609   4.637
  157TIP3    H1  435   6.104   4.516   4.637
  157TIP3    H2  436   6.103   4.641   4.723
  158TIP3   OH2  437   4.318   0.450   4.577
  158TIP3    H1  438   4.351   0.454   4.488
  158TIP3    H2  439   4.379   0.392   4.623
  159TIP3   OH2  440   6.146   1.275   0.637
  159TIP3    H1  441   6.193   1.192   0.649
  159TIP3    H2  442   6.132   1.307   0.726
  160TIP3   OH2  443   2.033   5.076   0.142
  160TIP3    H1  444   2.006   5.006   0.083
  160TIP3    H2  445   2.127   5.061   0.154
  161TIP3   OH2  446   1.046   1.850   1.154
  161TIP3    H1  447   1.040   1.830   1.060
  161TIP3    H2  448   1.122   1.800   1.184
  162TIP3   OH2  449   5.242   1.502   3.653
  162TIP3    H1  450   5.176   1.571   3.643
  162TIP3    H2  451   5.198   1.423   3.622
  163TIP3   OH2  452   2.857   0.108   5.161
  163TIP3    H1  453   2.851   0.056   5.081
  163TIP3    H2  454   2.766   0.125   5.185
  164TIP3   OH2  455   5.135   4.820   1.256
  164TIP3    H1  456   5.129   4.748   1.193
  164TIP3    H2  457   5.225   4.851   1.249
  165TIP3   OH2  458   7.105   2.041   4.786
  165TIP3    H1  459   7.076   2.129   4.810
  165TIP3    H2  460   7.104   2.041   4.690
  166TIP3   OH2  461   4.416   6.085   4.680
  166TIP3    H1  462   4.445   6.155   4.621
  166TIP3    H2  463   4.497   6.053   4.720
  167TIP3   OH2  464   5.767   2.979   1.270
  167TIP3    H1  465   5.728   2.931   1.343
  167TIP3    H2  466   5.791   2.912   1.207
  168TIP3   OH2  467   4.000   5.292   2.142
  168TIP3    H1  468   4.035   5.353   2.207
  168TIP3    H2  469   4.069   5.227   2.129
  169TIP3   OH2  470   6.948   4.364   3.016
  169TIP3    H1  471   6.860   4.392   2.994
  169TIP3    H2  472   7.005   4.433   2.981
  170TIP3   OH2  473   6.647   2.353   0.046
  170TIP3    H1  474   6.630   2.364   0.140
  170TIP3    H2  475   6.615   2.265   0.026
  171TIP3   OH2  476   3.077   3.072   5.430
  171TIP3    H1  477   3.093   3.160   5.462
  171TIP3    H2  478   3.146   3.055   5.367
  172TIP3   OH2  479   4.193   2.131   5.090
  172TIP3    H1  480   4.229   2.210   5.129
  172TIP3    H2  481   4.164   2.078   5.164
  173TIP3   OH2  482   6.723   0.227   5.306
  173TIP3    H1  483   6.669   0.249   5.231
  173TIP3    H2  484   6.684   0.275   5.379
  174TIP3   OH2  485   2.594   0.217   2.642
  174TIP3    H1  486   2.541   0.280   2.592
  174TIP3    H2  487   2.529   0.162   2.687
  175TIP3   OH2  488   0.273   0.373   1.807
  175TIP3    H1  489   0.286   0.287   1.767
  175TIP3    H2  490   0.207   0.358   1.875
  176TIP3   OH2  491   6.415   3.909   5.238
  176TIP3    H1  492   6.487   3.866   5.192
  176TIP3    H2  493   6.436   3.900   5.331
  177TIP3   OH2  494   3.355   5.798   3.816
  177TIP3    H1  495   3.400   5.745   3.883
  177TIP3    H2  496   3.350   5.741   3.740
  178TIP3   OH2  497   3.465   3.780   2.499
  178TIP3    H1  498   3.374   3.787   2.470
  178TIP3    H2  499   3.461   3.793   2.594
  179TIP3   OH2  500   0.456   5.077   4.713
  179TIP3    H1  501   0.407   5.036   4.784
  179TIP3    H2  502   0.416   5.163   4.701
  180TIP3   OH2  503   0.704   1.656   2.420
  180TIP3    H1  504   0.625   1.601   2.416
  180TIP3    H2  505   0.676   1.736   2.465
  181TIP3   OH2  506   0.161   0.720   2.722
  181TIP3    H1  507   0.106   0.668   2.663
  181TIP3    H2  508   0.249   0.710   2.686
  182TIP3   OH2  509   0.997   1.261   2.614
  182TIP3    H1  510   0.952   1.184   2.648
  182TIP3    H2  511   1.062   1.227   2.553
  183TIP3   OH2  512   4.492   0.063   2.699
  183TIP3    H1  513   4.529  -0.002   2.639
  183TIP3    H2  514   4.507   0.147   2.656
  184TIP3   OH2  515   3.448   0.161   3.486
  184TIP3    H1  516   3.429   0.199   3.400
  184TIP3    H2  517   3.405   0.220   3.548
  185TIP3   OH2  518   4.587   3.991   5.901
  185TIP3    H1  519   4.633   4.071   5.875
  185TIP3    H2  520   4.494   4.013   5.893
  186TIP3   OH2  521   2.326   1.548   1.539
  186TIP3    H1  522   2.312   1.641   1.521
  186TIP3    H2  523   2.269   1.503   1.477
  187TIP3   OH2  524   1.140   3.782   3.508
  187TIP3    H1  525   1.230   3.751   3.519
  187TIP3    H2  526   1.140   3.869   3.547
  188TIP3   OH2  527   0.329   5.522   1.701
  188TIP3    H1  528   0.298   5.462   1.633
  188TIP3    H2  529   0.249   5.560   1.739
  189TIP3   OH2  530   6.866   2.160   4.346
  189TIP3    H1  531   6.950   2.202   4.334
  189TIP3    H2  532   6.870   2.082   4.290
  190TIP3   OH2  533   6.613   6.279   5.355
  190TIP3    H1  534   6.534   6.332   5.359
  190TIP3    H2  535   6.683   6.340   5.331
  191TIP3   OH2  536   2.125   4.131   2.186
  191TIP3    H1  537   2.120   4.213   2.235
  191TIP3    H2  538   2.034   4.108   2.169
  192TIP3   OH2  539   0.566   6.059   2.344
  192TIP3    H1  540   0.642   6.098   2.299
  192TIP3    H2  541   0.491   6.091   2.295
  193TIP3   OH2  542   4.615   1.435   4.985
  193TIP3    H1  543   4.689   1.485   4.952
  193TIP3    H2  544   4.654   1.373   5.046
  194TIP3   OH2  545   0.096   4.101   0.547
  194TIP3    H1  546   0.060   4.118   0.460
  194TIP3    H2  547   0.164   4.036   0.532
  195TIP3   OH2  548   1.355   1.384   1.410
  195TIP3    H1  549   1.407   1.305   1.424
  195TIP3    H2  550   1.407   1.454   1.450
  196TIP3   OH2  551   4.614   3.109   4.109
  196TIP3    H1  552   4.545   3.077   4.053
  196TIP3    H2  553   4.695   3.089   4.062
  197TIP3   OH2  554   4.786   2.014   0.224
  197TIP3    H1  555   4.808   2.011   0.131
  197TIP3    H2  556   4.808   2.104   0.251
  198TIP3   OH2  557   1.574   6.031   2.615
  198TIP3    H1  558   1.491   6.011   2.659
  198TIP3    H2  559   1.558   6.114   2.571
  199TIP3   OH2  560   5.227   1.012   0.726
  199TIP3    H1  561   5.239   0.921   0.699
  199TIP3    H2  562   5.136   1.018   0.754
  200TIP3   OH2  563   4.678   1.210   3.761
  200TIP3    H1  564   4.594   1.208   3.807
  200TIP3    H2  565   4.742   1.184   3.828
  201TIP3   OH2  566   3.974   5.086   3.384
  201TIP3    H1  567   4.060   5.124   3.401
  201TIP3    H2  568   3.976   5.001   3.429
  202TIP3   OH2  569   0.760   1.119   1.293
  202TIP3    H1  570   0.769   1.211   1.318
  202TIP3    H2  571   0.667   1.109   1.273
  203TIP3   OH2  572   6.971   1.958   1.610
  203TIP3    H1  573   7.006   1.869   1.618
  203TIP3    H2  574   6.960   1.971   1.516
  204TIP3   OH2  575   1.247   2.521   2.612
  204TIP3    H1  576   1.204   2.446   2.570
  204TIP3    H2  577   1.197   2.597   2.581
  205TIP3   OH2  578   4.213   3.475   3.331
  205TIP3    H1  579   4.224   3.569   3.317
  205TIP3    H2  580   4.270   3.455   3.405
  206TIP3   OH2  581   1.591   4.204   3.866
  206TIP3    H1  582   1.574   4.111   3.848
  206TIP3    H2  583   1.509   4.248   3.844
  207TIP3   OH2  584   2.354   1.001   4.422
  207TIP3    H1  585   2.342   1.088   4.384
  207TIP3    H2  586   2.285   0.995   4.489
  208TIP3   OH2  587   4.599   6.692   5.475
  208TIP3    H1  588   4.652   6.713   5.552
  208TIP3    H2  589   4.643   6.736   5.402
  209TIP3   OH2  590   5.996   4.337   0.347
  209TIP3    H1  591   6.006   4.390   0.427
  209TIP3    H2  592   6.030   4.251   0.372
  210TIP3   OH2  593   0.424   6.353   3.822
  210TIP3    H1  594   0.517   6.352   3.799
  210TIP3    H2  595   0.388   6.428   3.773
  211TIP3   OH2  596   5.372   1.853   0.707
  211TIP3    H1  597   5.344   1.792   0.774
  211TIP3    H2  598   5.344   1.814   0.625
  212TIP3   OH2  599   0.439   5.325   4.399
  212TIP3    H1  600   0.480   5.282   4.474
  212TIP3    H2  601   0.478   5.283   4.323
  213TIP3   OH2  602   2.281   2.343   4.604
  213TIP3    H1  603   2.358   2.303   4.642
  213TIP3    H2  604   2.311   2.378   4.520
  214TIP3   OH2  605   0.349   2.151   2.410
  214TIP3    H1  606   0.439   2.175   2.435
  214TIP3    H2  607   0.346   2.056   2.420
  215TIP3   OH2  608   0.132   0.482   3.700
  215TIP3    H1  609   0.187   0.450   3.629
  215TIP3    H2  610   0.186   0.549   3.743
  216TIP3   OH2  611   7.186   1.601   3.315
  216TIP3    H1  612   7.168   1.508   3.302
  216TIP3    H2  613   7.219   1.607   3.405
  217TIP3   OH2  614   0.470   0.278   0.139
  217TIP3    H1  615   0.378   0.296   0.162
  217TIP3    H2  616   0.472   0.184   0.122
  218TIP3   OH2  617   1.944   0.428   4.591
  218TIP3    H1  618   1.974   0.456   4.504
  218TIP3    H2  619   1.878   0.361   4.573
  219TIP3   OH2  620   5.263   2.645   0.804
  219TIP3    H1  621   5.301   2.610   0.885
  219TIP3    H2  622   5.272   2.573   0.741
  220TIP3   OH2  623   3.653   4.047   5.231
  220TIP3    H1  624   3.599   4.082   5.302
  220TIP3    H2  625   3.709   3.982   5.274
  221TIP3   OH2  626   6.371   4.572   5.401
  221TIP3    H1  627   6.344   4.650   5.352
  221TIP3    H2  628   6.338   4.587   5.489
  222TIP3   OH2  629   6.080   4.188   1.752
  222TIP3    H1  630   6.126   4.182   1.668
  222TIP3    H2  631   6.149   4.209   1.815
  223TIP3   OH2  632   4.064   1.322   3.285
  223TIP3    H1  633   4.069   1.387   3.354
  223TIP3    H2  634   4.063   1.372   3.203
  224TIP3   OH2  635   5.469   0.306   1.635
  224TIP3    H1  636   5.426   0.388   1.659
  224TIP3    H2  637   5.448   0.293   1.543
  225TIP3   OH2  638   1.703   6.475   5.229
  225TIP3    H1  639   1.651   6.554   5.236
  225TIP3    H2  640   1.792   6.506   5.214
  226TIP3   OH2  641   0.572   4.677   0.220
  226TIP3    H1  642   0.635   4.749   0.216
  226TIP3    H2  643   0.554   4.656   0.129
  227TIP3   OH2  644   3.660   0.086   0.773
  227TIP3    H1  645   3.626  -0.003   0.785
  227TIP3    H2  646   3.587   0.143   0.797
  228TIP3   OH2  647   4.252   4.624   2.804
  228TIP3    H1  648   4.241   4.707   2.757
  228TIP3    H2  649   4.203   4.635   2.885
  229TIP3   OH2  650   0.566   5.917   3.615
  229TIP3    H1  651   0.471   5.910   3.609
  229TIP3    H2  652   0.599   5.864   3.542
  230TIP3   OH2  653   4.652   0.854   2.483
  230TIP3    H1  654   4.655   0.852   2.578
  230TIP3    H2  655   4.638   0.762   2.457
  231TIP3   OH2  656   3.974   1.101   1.105
  231TIP3    H1  657   3.974   1.161   1.031
  231TIP3    H2  658   3.883   1.102   1.136
  232TIP3   OH2  659   5.815   1.570   3.994
  232TIP3    H1  660   5.888   1.509   3.988
  232TIP3    H2  661   5.855   1.652   4.021
  233TIP3   OH2  662   2.118   0.905   5.344
  233TIP3    H1  663   2.037   0.861   5.370
  233TIP3    H2  664   2.164   0.840   5.291
  234TIP3   OH2  665   3.662   2.825   1.751
  234TIP3    H1  666   3.692   2.807   1.840
  234TIP3    H2  667   3.581   2.775   1.743
  235TIP3   OH2  668   4.517   5.626   1.886
  235TIP3    H1  669   4.540   5.539   1.918
  235TIP3    H2  670   4.599   5.675   1.892
  236TIP3   OH2  671   0.621   6.605   3.582
  236TIP3    H1  672   0.654   6.519   3.608
  236TIP3    H2  673   0.561   6.586   3.509
  237TIP3   OH2  674   1.675   5.549   5.038
  237TIP3    H1  675   1.745   5.549   5.103
  237TIP3    H2  676   1.609   5.490   5.074
  238TIP3   OH2  677   6.047   1.325   5.219
  238TIP3    H1  678   5.954   1.340   5.236
  238TIP3    H2  679   6.050   1.238   5.179
  239TIP3   OH2  680   5.669   6.452   0.002
  239TIP3    H1  681   5.732   6.426   0.069
  239TIP3    H2  682   5.721   6.500  -0.063
  240TIP3   OH2  683   4.932   2.810   1.558
  240TIP3    H1  684   4.965   2.882   1.506
  240TIP3    H2  685   4.921   2.846   1.646
  241TIP3   OH2  686   2.695   5.072   2.860
  241TIP3    H1  687   2.738   4.997   2.819
  241TIP3    H2  688   2.611   5.079   2.813
  242TIP3   OH2  689   4.005   3.227   3.064
  242TIP3    H1  690   3.959   3.311   3.055
  242TIP3    H2  691   3.993   3.185   2.979
  243TIP3   OH2  692   1.894   4.002   2.457
  243TIP3    H1  693   1.854   4.072   2.508
  243TIP3    H2  694   1.982   3.992   2.495
  244TIP3   OH2  695   0.998   0.460   2.656
  244TIP3    H1  696   1.016   0.474   2.749
  244TIP3    H2  697   0.950   0.377   2.653
  245TIP3   OH2  698   2.000   5.802   3.758
  245TIP3    H1  699   1.971   5.842   3.840
  245TIP3    H2  700   2.096   5.802   3.764
  246TIP3   OH2  701   4.648   4.585   5.717
  246TIP3    H1  702   4.734   4.609   5.683
  246TIP3    H2  703   4.658   4.585   5.812
  247TIP3   OH2  704   5.096   1.606   3.271
  247TIP3    H1  705   5.186   1.636   3.256
  247TIP3    H2  706   5.064   1.662   3.341
  248TIP3   OH2  707   3.751   4.507   5.429
  248TIP3    H1  708   3.666   4.526   5.390
  248TIP3    H2  709   3.771   4.418   5.400
  249TIP3   OH2  710   4.375   5.843   0.654
  249TIP3    H1  711   4.418   5.825   0.738
  249TIP3    H2  712   4.301   5.783   0.652
  250TIP3   OH2  713   4.560   1.002   2.251
  250TIP3    H1  714   4.609   0.973   2.328
  250TIP3    H2  715   4.470   0.972   2.266
  251TIP3   OH2  716   6.227   5.598   1.297
  251TIP3    H1  717   6.184   5.645   1.225
  251TIP3    H2  718   6.217   5.506   1.275
  252TIP3   OH2  719   6.546   6.776   4.712
  252TIP3    H1  720   6.602   6.792   4.788
  252TIP3    H2  721   6.473   6.725   4.746
  253TIP3   OH2  722   3.101   2.271   1.221
  253TIP3    H1  723   3.048   2.347   1.200
  253TIP3    H2  724   3.190   2.295   1.196
  254TIP3   OH2  725   2.228   6.629   5.668
  254TIP3    H1  726   2.264   6.561   5.611
  254TIP3    H2  727   2.134   6.628   5.649
  255TIP3   OH2  728   3.737   4.180   0.869
  255TIP3    H1  729   3.812   4.221   0.826
  255TIP3    H2  730   3.775   4.108   0.920
  256TIP3   OH2  731   1.673   1.059   0.745
  256TIP3    H1  732   1.642   0.978   0.704
  256TIP3    H2  733   1.739   1.093   0.685
  257TIP3   OH2  734   1.786   6.133   0.032
  257TIP3    H1  735   1.745   6.052   0.002
  257TIP3    H2  736   1.813   6.177  -0.048
  258TIP3   OH2  737   5.390   4.396   5.088
  258TIP3    H1  738   5.445   4.378   5.164
  258TIP3    H2  739   5.382   4.491   5.087
  259TIP3   OH2  740   4.499   6.674   2.941
  259TIP3    H1  741   4.588   6.701   2.961
  259TIP3    H2  742   4.497   6.580   2.960
  260TIP3   OH2  743   1.322   4.419   0.367
  260TIP3    H1  744   1.406   4.465   0.365
  260TIP3    H2  745   1.343   4.331   0.398
  261TIP3   OH2  746   6.657   6.697   2.107
  261TIP3    H1  747   6.650   6.762   2.177
  261TIP3    H2  748   6.750   6.672   2.106
  262TIP3   OH2  749   5.311   5.668   0.364
  262TIP3    H1  750   5.243   5.735   0.360
  262TIP3    H2  751   5.392   5.716   0.384
  263TIP3   OH2  752   6.016   0.664   1.667
  263TIP3    H1  753   5.938   0.704   1.705
  263TIP3    H2  754   6.034   0.589   1.724
  264TIP3   OH2  755   3.094   6.501   3.610
  264TIP3    H1  756   3.144   6.456   3.678
  264TIP3    H2  757   3.007   6.512   3.649
  265TIP3   OH2  758   6.650   1.986   1.382
  265TIP3    H1  759   6.665   1.952   1.294
  265TIP3    H2  760   6.716   2.055   1.393
  266TIP3   OH2  761   0.203   1.553   2.637
  266TIP3    H1  762   0.224   1.637   2.677
  266TIP3    H2  763   0.273   1.539   2.573
  267TIP3   OH2  764   3.493   0.521   4.952
  267TIP3    H1  765   3.536   0.467   5.019
  267TIP3    H2  766   3.400   0.506   4.966
  268TIP3   OH2  767   4.993   3.797   2.014
  268TIP3    H1  768   4.938   3.775   1.939
  268TIP3    H2  769   4.939   3.856   2.067
  269TIP3   OH2  770   4.569   2.374   5.192
  269TIP3    H1  771   4.491   2.357   5.245
  269TIP3    H2  772   4.538   2.429   5.120
  270TIP3   OH2  773   3.345   3.104   2.381
  270TIP3    H1  774   3.309   3.173   2.436
  270TIP3    H2  775   3.439   3.103   2.402
  271TIP3   OH2  776   2.765   6.117   1.965
  271TIP3    H1  777   2.848   6.079   1.994
  271TIP3    H2  778   2.700   6.083   2.026
  272TIP3   OH2  779   5.240   0.213   4.624
  272TIP3    H1  780   5.214   0.254   4.706
  272TIP3    H2  781   5.187   0.133   4.619
  273TIP3   OH2  782   1.446   6.208   1.829
  273TIP3    H1  783   1.461   6.278   1.767
  273TIP3    H2  784   1.351   6.192   1.826
  274TIP3   OH2  785   2.449   0.826   4.017
  274TIP3    H1  786   2.363   0.866   4.027
  274TIP3    H2  787   2.431   0.738   3.985
  275TIP3   OH2  788   1.814   1.333   5.704
  275TIP3    H1  789   1.811   1.240   5.725
  275TIP3    H2  790   1.789   1.377   5.785
  276TIP3   OH2  791   1.613   2.347   5.173
  276TIP3    H1  792   1.532   2.298   5.182
  276TIP3    H2  793   1.636   2.373   5.263
  277TIP3   OH2  794   3.971   5.424   5.899
  277TIP3    H1  795   3.954   5.333   5.875
  277TIP3    H2  796   4.065   5.436   5.882
  278TIP3   OH2  797   3.228   5.200   3.401
  278TIP3    H1  798   3.279   5.211   3.321
  278TIP3    H2  799   3.227   5.287   3.441
  279TIP3   OH2  800   4.701   1.699   3.299
  279TIP3    H1  801   4.741   1.734   3.219
  279TIP3    H2  802   4.649   1.624   3.270
  280TIP3   OH2  803   7.054   6.669   5.791
  280TIP3    H1  804   7.056   6.574   5.782
  280TIP3    H2  805   7.041   6.702   5.703
  281TIP3   OH2  806   6.710   6.356   4.059
  281TIP3    H1  807   6.699   6.451   4.063
  281TIP3    H2  808   6.755   6.334   4.141
  282TIP3   OH2  809   4.900   4.609   2.766
  282TIP3    H1  810   4.833   4.605   2.697
  282TIP3    H2  811   4.933   4.698   2.762
  283TIP3   OH2  812   1.745   1.379   0.796
  283TIP3    H1  813   1.816   1.402   0.736
  283TIP3    H2  814   1.680   1.448   0.785
  284TIP3   OH2  815   1.759   3.849   4.352
  284TIP3    H1  816   1.771   3.793   4.429
  284TIP3    H2  817   1.821   3.921   4.365
  285TIP3   OH2  818   0.573   0.566   4.778
  285TIP3    H1  819   0.649   0.589   4.725
  285TIP3    H2  820   0.520   0.646   4.780
  286TIP3   OH2  821   5.912   0.160   3.361
  286TIP3    H1  822   5.882   0.151   3.451
  286TIP3    H2  823   6.003   0.130   3.363
  287TIP3   OH2  824   5.356   2.585   3.962
  287TIP3    H1  825   5.417   2.649   3.998
  287TIP3    H2  826   5.302   2.635   3.900
  288TIP3   OH2  827   4.328   3.310   1.715
  288TIP3    H1  828   4.315   3.387   1.660
  288TIP3    H2  829   4.380   3.342   1.789
  289TIP3   OH2  830   3.572   5.077   0.610
  289TIP3    H1  831   3.516   5.107   0.538
  289TIP3    H2  832   3.647   5.037   0.566
  290TIP3   OH2  833   1.575   6.237   1.336
  290TIP3    H1  834   1.537   6.194   1.412
  290TIP3    H2  835   1.635   6.302   1.373
  291TIP3   OH2  836   6.128   1.545   1.576
  291TIP3    H1  837   6.098   1.497   1.653
  291TIP3    H2  838   6.139   1.635   1.605
  292TIP3   OH2  839   5.507   1.718   4.474
  292TIP3    H1  840   5.427   1.761   4.506
  292TIP3    H2  841   5.524   1.759   4.389
  293TIP3   OH2  842   5.206   2.737   1.890
  293TIP3    H1  843   5.116   2.722   1.862
  293TIP3    H2  844   5.238   2.651   1.916
  294TIP3   OH2  845   0.003   2.051   3.109
  294TIP3    H1  846   0.093   2.025   3.087
  294TIP3    H2  847   0.012   2.134   3.156
  295TIP3   OH2  848   6.889   6.653   3.373
  295TIP3    H1  849   6.894   6.597   3.450
  295TIP3    H2  850   6.879   6.593   3.299
  296TIP3   OH2  851   4.281   4.015   1.568
  296TIP3    H1  852   4.368   4.033   1.534
  296TIP3    H2  853   4.222   4.033   1.495
  297TIP3   OH2  854   3.893   2.678   1.114
  297TIP3    H1  855   3.802   2.653   1.128
  297TIP3    H2  856   3.941   2.635   1.186
  298TIP3   OH2  857   5.695   3.356   2.127
  298TIP3    H1  858   5.788   3.366   2.105
  298TIP3    H2  859   5.649   3.379   2.046
  299TIP3   OH2  860   5.108   4.059   4.669
  299TIP3    H1  861   5.125   3.984   4.725
  299TIP3    H2  862   5.050   4.115   4.722
  300TIP3   OH2  863   0.859   5.622   4.459
  300TIP3    H1  864   0.882   5.539   4.418
  300TIP3    H2  865   0.794   5.599   4.525
  301TIP3   OH2  866   6.119   4.715   4.889
  301TIP3    H1  867   6.204   4.742   4.924
  301TIP3    H2  868   6.055   4.769   4.936
  302TIP3   OH2  869   3.027   3.566   3.074
  302TIP3    H1  870   3.000   3.534   2.988
  302TIP3    H2  871   3.117   3.598   3.059
  303TIP3   OH2  872   2.050   0.480   5.040
  303TIP3    H1  873   2.022   0.389   5.034
  303TIP3    H2  874   2.047   0.499   5.134
  304TIP3   OH2  875   3.925   6.005   0.110
  304TIP3    H1  876   3.894   6.057   0.185
  304TIP3    H2  877   4.012   6.041   0.091
  305TIP3   OH2  878   2.785   0.319   5.684
  305TIP3    H1  879   2.753   0.387   5.625
  305TIP3    H2  880   2.846   0.267   5.631
  306TIP3   OH2  881   3.423   1.184   4.411
  306TIP3    H1  882   3.449   1.206   4.500
  306TIP3    H2  883   3.328   1.177   4.414
  307TIP3   OH2  884   0.170   4.730   4.596
  307TIP3    H1  885   0.240   4.735   4.661
  307TIP3    H2  886   0.193   4.797   4.531
  308TIP3   OH2  887   0.928   2.668   0.748
  308TIP3    H1  888   0.894   2.630   0.667
  308TIP3    H2  889   0.974   2.596   0.791
  309TIP3   OH2  890   3.656   5.137   1.331
  309TIP3    H1  891   3.685   5.110   1.244
  309TIP3    H2  892   3.650   5.233   1.326
  310TIP3   OH2  893   0.796   1.041   2.976
  310TIP3    H1  894   0.757   1.100   3.040
  310TIP3    H2  895   0.848   0.980   3.028
  311TIP3   OH2  896   6.618   1.595   2.812
  311TIP3    H1  897   6.549   1.547   2.766
  311TIP3    H2  898   6.584   1.683   2.822
  312TIP3   OH2  899   3.300   6.039   3.007
  312TIP3    H1  900   3.273   5.958   2.964
  312TIP3    H2  901   3.354   6.084   2.941
  313TIP3   OH2  902   2.359   2.848   4.195
  313TIP3    H1  903   2.387   2.759   4.173
  313TIP3    H2  904   2.329   2.842   4.286
  314TIP3   OH2  905   3.002   0.452   4.477
  314TIP3    H1  906   3.019   0.545   4.461
  314TIP3    H2  907   2.925   0.432   4.424
  315TIP3   OH2  908   3.635   4.591   2.420
  315TIP3    H1  909   3.640   4.501   2.387
  315TIP3    H2  910   3.588   4.584   2.503
  316TIP3   OH2  911   6.133   0.593   4.102
  316TIP3    H1  912   6.111   0.685   4.118
  316TIP3    H2  913   6.063   0.544   4.144
  317TIP3   OH2  914   0.506   5.739   0.016
  317TIP3    H1  915   0.522   5.802  -0.055
  317TIP3    H2  916   0.572   5.671   0.002
  318TIP3   OH2  917   2.241  -0.049   5.350
  318TIP3    H1  918   2.194   0.033   5.337
  318TIP3    H2  919   2.331  -0.029   5.326
  319TIP3   OH2  920   2.497   1.874   1.038
  319TIP3    H1  921   2.402   1.884   1.035
  319TIP3    H2  922   2.524   1.864   0.947
  320TIP3   OH2  923   0.319   1.883   0.888
  320TIP3    H1  924   0.382   1.936   0.936
  320TIP3    H2  925   0.248   1.943   0.867
  321TIP3   OH2  926   3.986   1.666   0.825
  321TIP3    H1  927   3.919   1.726   0.792
  321TIP3    H2  928   3.951   1.636   0.909
  322TIP3   OH2  929   3.565   2.908   4.564
  322TIP3    H1  930   3.646   2.921   4.515
  322TIP3    H2  931   3.507   2.978   4.533
  323TIP3   OH2  932   2.073   5.940   0.319
  323TIP3    H1  933   2.150   5.900   0.279
  323TIP3    H2  934   1.999   5.907   0.267
  324TIP3   OH2  935   0.494   1.248   4.959
  324TIP3    H1  936   0.544   1.330   4.950
  324TIP3    H2  937   0.459   1.232   4.872
  325TIP3   OH2  938   1.811   5.636   3.149
  325TIP3    H1  939   1.871   5.616   3.077
  325TIP3    H2  940   1.749   5.563   3.150
  326TIP3   OH2  941   3.441   2.023   5.380
  326TIP3    H1  942   3.518   2.079   5.375
  326TIP3    H2  943   3.457   1.967   5.456
  327TIP3   OH2  944   1.847   0.527   1.562
  327TIP3    H1  945   1.825   0.599   1.621
  327TIP3    H2  946   1.938   0.505   1.584
  328TIP3   OH2  947   4.554   3.456   4.520
  328TIP3    H1  948   4.468   3.476   4.484
  328TIP3    H2  949   4.586   3.382   4.468
  329TIP3   OH2  950   2.503   1.323   4.194
  329TIP3    H1  951   2.494   1.318   4.098
  329TIP3    H2  952   2.593   1.294   4.211
  330TIP3   OH2  953   3.905   2.769   2.792
  330TIP3    H1  954   3.999   2.760   2.806
  330TIP3    H2  955   3.884   2.702   2.727
  331TIP3   OH2  956   1.544   1.582   3.154
  331TIP3    H1  957   1.519   1.534   3.075
  331TIP3    H2  958   1.637   1.562   3.166
  332TIP3   OH2  959   5.284   0.843   5.703
  332TIP3    H1  960   5.359   0.812   5.652
  332TIP3    H2  961   5.222   0.874   5.638
  333TIP3   OH2  962   6.413   5.800   4.521
  333TIP3    H1  963   6.377   5.760   4.442
  333TIP3    H2  964   6.339   5.804   4.581
  334TIP3   OH2  965   6.323   4.992   3.160
  334TIP3    H1  966   6.304   5.026   3.248
  334TIP3    H2  967   6.254   4.927   3.145
  335TIP3   OH2  968   0.574   0.006   4.813
  335TIP3    H1  969   0.556   0.072   4.746
  335TIP3    H2  970   0.661   0.027   4.846
  336TIP3   OH2  971   1.533   4.138   4.979
  336TIP3    H1  972   1.522   4.209   4.916
  336TIP3    H2  973   1.626   4.139   5.000
  337TIP3   OH2  974   0.284   0.435   2.724
  337TIP3    H1  975   0.197   0.438   2.766
  337TIP3    H2  976   0.339   0.489   2.781
  338TIP3   OH2  977   0.569   4.814   1.488
  338TIP3    H1  978   0.632   4.772   1.430
  338TIP3    H2  979   0.485   4.807   1.442
  339TIP3   OH2  980   3.561   0.735   0.242
  339TIP3    H1  981   3.635   0.793   0.259
  339TIP3    H2  982   3.584   0.689   0.161
  340TIP3   OH2  983   2.808   0.926   5.510
  340TIP3    H1  984   2.860   0.899   5.434
  340TIP3    H2  985   2.718   0.930   5.478
  341TIP3   OH2  986   1.333   0.356   1.693
  341TIP3    H1  987   1.421   0.375   1.659
  341TIP3    H2  988   1.321   0.262   1.675
  342TIP3   OH2  989   4.922   4.603   3.676
  342TIP3    H1  990   4.935   4.523   3.727
  342TIP3    H2  991   4.984   4.666   3.714
  343TIP3   OH2  992   1.925   4.215   5.469
  343TIP3    H1  993   1.860   4.263   5.520
  343TIP3    H2  994   1.996   4.197   5.531
  344TIP3   OH2  995   5.744   1.010   1.161
  344TIP3    H1  996   5.669   0.955   1.183
  344TIP3    H2  997   5.705   1.092   1.130
  345TIP3   OH2  998   3.289   3.890   4.942
  345TIP3    H1  999   3.287   3.971   4.994
  345TIP3    H2 1000   3.369   3.846   4.970
  346TIP3   OH2 1001   4.715   6.607   1.968
  346TIP3    H1 1002   4.731   6.523   1.925
  346TIP3    H2 1003   4.620   6.616   1.971
  347TIP3   OH2 1004   2.975   5.804   5.411
  347TIP3    H1 1005   3.037   5.747   5.365
  347TIP3    H2 1006   2.962   5.760   5.495
  348TIP3   OH2 1007   5.535   6.189   0.051
  348TIP3    H1 1008   5.596   6.129   0.009
  348TIP3    H2 1009   5.571   6.276   0.035
  349TIP3   OH2 1010   5.813   4.857   1.496
  349TIP3    H1 1011   5.756   4.782   1.513
  349TIP3    H2 1012   5.801   4.914   1.572
  350TIP3   OH2 1013   2.620   3.145   5.573
  350TIP3    H1 1014   2.684   3.104   5.516
  350TIP3    H2 1015   2.601   3.230   5.532
  351TIP3   OH2 1016   5.987   2.275   5.417
  351TIP3    H1 1017   6.005   2.225   5.337
  351TIP3    H2 1018   5.895   2.301   5.409
  352TIP3   OH2 1019   4.194   5.840   3.836
  352TIP3    H1 1020   4.167   5.899   3.765
  352TIP3    H2 1021   4.115   5.827   3.888
  353TIP3   OH2 1022   0.812   6.351   5.607
  353TIP3    H1 1023   0.822   6.299   5.688
  353TIP3    H2 1024   0.901   6.359   5.572
  354TIP3   OH2 1025   5.343   1.147  -0.004
  354TIP3    H1 1026   5.435   1.148   0.024
  354TIP3    H2 1027   5.293   1.158   0.077
  355TIP3   OH2 1028   0.168   1.399   4.425
  355TIP3    H1 1029   0.152   1.393   4.331
  355TIP3    H2 1030   0.214   1.317   4.446
  356TIP3   OH2 1031   2.942   1.136   2.023
  356TIP3    H1 1032   2.856   1.097   2.010
  356TIP3    H2 1033   2.925   1.217   2.072
  357TIP3   OH2 1034   0.019   3.086   3.948
  357TIP3    H1 1035   0.010   3.174   3.911
  357TIP3    H2 1036   0.006   3.027   3.873
  358TIP3   OH2 1037   5.649   2.554   3.968
  358TIP3    H1 1038   5.600   2.632   3.991
  358TIP3    H2 1039   5.588   2.501   3.916
  359TIP3   OH2 1040   2.437   5.729   1.574
  359TIP3    H1 1041   2.408   5.774   1.653
  359TIP3    H2 1042   2.495   5.792   1.530
  360TIP3   OH2 1043   2.365   0.865   2.671
  360TIP3    H1 1044   2.291   0.807   2.651
  360TIP3    H2 1045   2.344   0.901   2.757
  361TIP3   OH2 1046   4.037   3.493   2.570
  361TIP3    H1 1047   4.099   3.453   2.630
  361TIP3    H2 1048   4.015   3.577   2.611
  362TIP3   OH2 1049   6.769   6.648   2.445
  362TIP3    H1 1050   6.850   6.624   2.490
  362TIP3    H2 1051   6.737   6.566   2.407
  363TIP3   OH2 1052   4.081   4.128   4.691
  363TIP3    H1 1053   4.048   4.143   4.602
  363TIP3    H2 1054   4.176   4.137   4.683
  364TIP3   OH2 1055   1.581   3.423   5.506
  364TIP3    H1 1056   1.655   3.387   5.457
  364TIP3    H2 1057   1.620   3.488   5.565
  365TIP3   OH2 1058   6.614   0.607   5.657
  365TIP3    H1 1059   6.624   0.698   5.687
  365TIP3    H2 1060   6.585   0.560   5.735
  366TIP3   OH2 1061   5.262   3.698   2.486
  366TIP3    H1 1062   5.250   3.603   2.492
  366TIP3    H2 1063   5.192   3.728   2.428
  367TIP3   OH2 1064   4.486   5.757   4.273
  367TIP3    H1 1065   4.570   5.803   4.272
  367TIP3    H2 1066   4.449   5.776   4.359
  368TIP3   OH2 1067   5.394   5.543   5.177
  368TIP3    H1 1068   5.475   5.521   5.130
  368TIP3    H2 1069   5.358   5.618   5.130
  369TIP3   OH2 1070   3.942   0.933   2.001
  369TIP3    H1 1071   3.919   0.866   2.065
  369TIP3    H2 1072   3.861   0.983   1.988
  370TIP3   OH2 1073   5.897   0.940   4.422
  370TIP3    H1 1074   5.925   0.850   4.406
  370TIP3    H2 1075   5.933   0.962   4.507
  371TIP3   OH2 1076   0.944   4.020   2.419
  371TIP3    H1 1077   1.006   4.068   2.364
  371TIP3    H2 1078   0.993   3.943   2.448
  372TIP3   OH2 1079   0.765   4.676   1.357
  372TIP3    H1 1080   0.744   4.588   1.325
  372TIP3    H2 1081   0.817   4.660   1.436
  373TIP3   OH2 1082   2.993   1.258   3.720
  373TIP3    H1 1083   2.982   1.198   3.794
  373TIP3    H2 1084   3.040   1.333   3.757
  374TIP3   OH2 1085   6.040   4.995   4.726
  374TIP3    H1 1086   6.074   4.906   4.720
  374TIP3    H2 1087   5.985   4.994   4.805
  375TIP3   OH2 1088   3.788   6.605   2.331
  375TIP3    H1 1089   3.821   6.661   2.401
  375TIP3    H2 1090   3.797   6.658   2.251
  376TIP3   OH2 1091   0.090   5.984   5.798
  376TIP3    H1 1092   0.008   5.936   5.814
  376TIP3    H2 1093   0.132   5.990   5.884
  377TIP3   OH2 1094   3.052   2.798   3.142
  377TIP3    H1 1095   2.975   2.833   3.189
  377TIP3    H2 1096   3.100   2.750   3.209
  378TIP3   OH2 1097   0.791   4.090   4.410
  378TIP3    H1 1098   0.837   4.153   4.467
  378TIP3    H2 1099   0.761   4.022   4.470
  379TIP3   OH2 1100   2.380   0.890   0.062
  379TIP3    H1 1101   2.414   0.889  -0.027
  379TIP3    H2 1102   2.422   0.815   0.104
  380TIP3   OH2 1103   5.305   2.984   2.498
  380TIP3    H1 1104   5.310   2.894   2.529
  380TIP3    H2 1105   5.313   3.037   2.577
  381TIP3   OH2 1106   2.862   2.633   3.370
  381TIP3    H1 1107   2.768   2.652   3.378
  381TIP3    H2 1108   2.866   2.538   3.359
  382TIP3   OH2 1109   5.005   3.215   3.844
  382TIP3    H1 1110   4.988   3.309   3.855
  382TIP3    H2 1111   4.975   3.196   3.755
  383TIP3   OH2 1112   6.481   3.679   0.552
  383TIP3    H1 1113   6.531   3.657   0.631
  383TIP3    H2 1114   6.407   3.618   0.554
  384TIP3   OH2 1115   6.182   0.150   1.689
  384TIP3    H1 1116   6.115   0.205   1.648
  384TIP3    H2 1117   6.177   0.171   1.782
  385TIP3   OH2 1118   2.348   0.352   0.795
  385TIP3    H1 1119   2.420   0.378   0.852
  385TIP3    H2 1120   2.381   0.273   0.751
  386TIP3   OH2 1121   4.408   2.711   0.343
  386TIP3    H1 1122   4.319   2.747   0.351
  386TIP3    H2 1123   4.445   2.720   0.431
  387TIP3   OH2 1124   0.502   5.331   3.214
  387TIP3    H1 1125   0.475   5.243   3.241
  387TIP3    H2 1126   0.488   5.385   3.292
  388TIP3   OH2 1127   4.896   4.975   1.821
  388TIP3    H1 1128   4.969   4.912   1.820
  388TIP3    H2 1129   4.934   5.056   1.788
  389TIP3   OH2 1130   0.320   3.350   2.990
  389TIP3    H1 1131   0.371   3.431   2.996
  389TIP3    H2 1132   0.351   3.297   3.064
  390TIP3   OH2 1133   4.784   6.308   2.449
  390TIP3    H1 1134   4.753   6.242   2.388
  390TIP3    H2 1135   4.708   6.365   2.463
  391TIP3   OH2 1136   1.625   2.283   1.516
  391TIP3    H1 1137   1.601   2.324   1.599
  391TIP3    H2 1138   1.598   2.192   1.525
  392TIP3   OH2 1139   0.974   3.614   3.393
  392TIP3    H1 1140   0.944   3.591   3.481
  392TIP3    H2 1141   1.036   3.686   3.408
  393TIP3   OH2 1142   3.711   4.638   4.588
  393TIP3    H1 1143   3.640   4.618   4.527
  393TIP3    H2 1144   3.674   4.704   4.647
  394TIP3   OH2 1145   4.670   1.660   5.462
  394TIP3    H1 1146   4.622   1.707   5.395
  394TIP3    H2 1147   4.750   1.711   5.474
  395TIP3   OH2 1148   6.237   5.531   2.691
  395TIP3    H1 1149   6.192   5.559   2.771
  395TIP3    H2 1150   6.171   5.479   2.644
  396TIP3   OH2 1151   0.381   6.150   4.199
  396TIP3    H1 1152   0.335   6.165   4.117
  396TIP3    H2 1153   0.314   6.117   4.259
  397TIP3   OH2 1154   0.770   1.914   1.172
  397TIP3    H1 1155   0.726   1.883   1.093
  397TIP3    H2 1156   0.863   1.900   1.154
  398TIP3   OH2 1157   3.540   5.659   0.816
  398TIP3    H1 1158   3.486   5.581   0.829
  398TIP3    H2 1159   3.629   5.625   0.805
  399TIP3   OH2 1160   4.134   0.446   0.767
  399TIP3    H1 1161   4.133   0.362   0.812
  399TIP3    H2 1162   4.227   0.470   0.762
  400TIP3   OH2 1163   6.596   5.339   0.731
  400TIP3    H1 1164   6.654   5.360   0.658
  400TIP3    H2 1165   6.651   5.349   0.809
  401TIP3   OH2 1166   0.323   4.856   0.042
  401TIP3    H1 1167   0.395   4.825  -0.013
  401TIP3    H2 1168   0.353   4.941   0.075
  402TIP3   OH2 1169   3.461   2.695   1.945
  402TIP3    H1 1170   3.470   2.618   2.000
  402TIP3    H2 1171   3.402   2.668   1.875
  403TIP3   OH2 1172   1.311   3.865   1.239
  403TIP3    H1 1173   1.291   3.945   1.189
  403TIP3    H2 1174   1.258   3.872   1.318
  404TIP3   OH2 1175   1.257   2.800   3.785
  404TIP3    H1 1176   1.193   2.868   3.763
  404TIP3    H2 1177   1.327   2.811   3.721
  405TIP3   OH2 1178   2.025   1.511   3.249
  405TIP3    H1 1179   1.936   1.501   3.280
  405TIP3    H2 1180   2.023   1.592   3.197
  406TIP3   OH2 1181   6.778   3.126   4.729
  406TIP3    H1 1182   6.782   3.079   4.813
  406TIP3    H2 1183   6.724   3.203   4.748
  407TIP3   OH2 1184   5.912   0.820   1.980
  407TIP3    H1 1185   6.004   0.847   1.986
  407TIP3    H2 1186   5.863   0.902   1.992
  408TIP3   OH2 1187   0.352   3.394   2.469
  408TIP3    H1 1188   0.420   3.429   2.413
  408TIP3    H2 1189   0.301   3.336   2.412
  409TIP3   OH2 1190   4.663   3.089   5.782
  409TIP3    H1 1191   4.709   3.032   5.720
  409TIP3    H2 1192   4.584   3.041   5.805
  410TIP3   OH2 1193   5.641   3.378   0.222
  410TIP3    H1 1194   5.618   3.364   0.314
  410TIP3    H2 1195   5.736   3.372   0.220
  411TIP3   OH2 1196   3.481   5.349   0.706
  411TIP3    H1 1197   3.513   5.322   0.620
  411TIP3    H2 1198   3.505   5.277   0.764
  412TIP3   OH2 1199   3.967   0.646   2.575
  412TIP3    H1 1200   3.981   0.662   2.481
  412TIP3    H2 1201   3.893   0.703   2.597
  413TIP3   OH2 1202   3.728   3.676   1.795
  413TIP3    H1 1203   3.722   3.763   1.835
  413TIP3    H2 1204   3.820   3.668   1.768
  414TIP3   OH2 1205   0.705   6.650   1.806
  414TIP3    H1 1206   0.719   6.729   1.753
  414TIP3    H2 1207   0.785   6.641   1.858
  415TIP3   OH2 1208   3.959   2.341   5.457
  415TIP3    H1 1209   3.867   2.319   5.444
  415TIP3    H2 1210   4.007   2.282   5.399
  416TIP3   OH2 1211   4.730   3.264   0.319
  416TIP3    H1 1212   4.729   3.260   0.415
  416TIP3    H2 1213   4.756   3.176   0.291
  417TIP3   OH2 1214   1.916   5.738   1.874
  417TIP3    H1 1215   1.939   5.797   1.946
  417TIP3    H2 1216   1.980   5.758   1.806
  418TIP3   OH2 1217   6.997   2.823   4.150
  418TIP3    H1 1218   7.079   2.773   4.150
  418TIP3    H2 1219   6.938   2.773   4.206
  419TIP3   OH2 1220   5.917   5.661   0.893
  419TIP3    H1 1221   5.913   5.570   0.921
  419TIP3    H2 1222   5.892   5.659   0.801
  420TIP3   OH2 1223   5.023   2.631   3.594
  420TIP3    H1 1224   5.055   2.556   3.545
  420TIP3    H2 1225   5.023   2.703   3.531
  421TIP3   OH2 1226   1.869   2.345   2.645
  421TIP3    H1 1227   1.873   2.434   2.610
  421TIP3    H2 1228   1.833   2.355   2.733
  422TIP3   OH2 1229   5.573   2.790   5.760
  422TIP3    H1 1230   5.669   2.790   5.759
  422TIP3    H2 1231   5.550   2.869   5.810
  423TIP3   OH2 1232   6.863   1.295   1.963
  423TIP3    H1 1233   6.769   1.291   1.984
  423TIP3    H2 1234   6.871   1.370   1.905
  424TIP3   OH2 1235   5.835   4.299   1.787
  424TIP3    H1 1236   5.927   4.274   1.798
  424TIP3    H2 1237   5.805   4.246   1.713
  425TIP3   OH2 1238   0.493   3.827   3.239
  425TIP3    H1 1239   0.444   3.852   3.161
  425TIP3    H2 1240   0.447   3.750   3.273
  426TIP3   OH2 1241   4.004   0.167   4.014
  426TIP3    H1 1242   4.022   0.208   3.930
  426TIP3    H2 1243   4.090   0.153   4.053
  427TIP3   OH2 1244   0.207   0.551   0.363
  427TIP3    H1 1245   0.201   0.460   0.334
  427TIP3    H2 1246   0.125   0.590   0.335
  428TIP3   OH2 1247   1.827   5.119   2.218
  428TIP3    H1 1248   1.768   5.060   2.171
  428TIP3    H2 1249   1.769   5.185   2.256
  429TIP3   OH2 1250   6.779   1.894   2.209
  429TIP3    H1 1251   6.792   1.934   2.295
  429TIP3    H2 1252   6.812   1.804   2.219
  430TIP3   OH2 1253   4.512   0.314   4.692
  430TIP3    H1 1254   4.576   0.316   4.620
  430TIP3    H2 1255   4.561   0.279   4.767
  431TIP3   OH2 1256   0.796   4.828   1.675
  431TIP3    H1 1257   0.828   4.771   1.605
  431TIP3    H2 1258   0.734   4.774   1.724
  432TIP3   OH2 1259   0.938   2.435   1.655
  432TIP3    H1 1260   0.881   2.365   1.688
  432TIP3    H2 1261   1.018   2.390   1.628
  433TIP3   OH2 1262   3.017   0.074   0.704
  433TIP3    H1 1263   3.088   0.085   0.641
  433TIP3    H2 1264   2.969  -0.003   0.673
  434TIP3   OH2 1265   4.797   6.615   4.501
  434TIP3    H1 1266   4.890   6.610   4.524
  434TIP3    H2 1267   4.776   6.709   4.506
  435TIP3   OH2 1268   3.168   4.200   5.196
  435TIP3    H1 1269   3.095   4.143   5.173
  435TIP3    H2 1270   3.242   4.139   5.209
  436TIP3   OH2 1271   4.455   3.842   0.907
  436TIP3    H1 1272   4.493   3.901   0.842
  436TIP3    H2 1273   4.419   3.770   0.856
  437TIP3   OH2 1274   2.809   2.149   2.051
  437TIP3    H1 1275   2.718   2.144   2.019
  437TIP3    H2 1276   2.800   2.166   2.145
  438TIP3   OH2 1277   0.463   6.267   0.614
  438TIP3    H1 1278   0.441   6.360   0.618
  438TIP3    H2 1279   0.417   6.234   0.537
  439TIP3   OH2 1280   7.175   5.426   5.173
  439TIP3    H1 1281   7.088   5.412   5.136
  439TIP3    H2 1282   7.203   5.511   5.138
  440TIP3   OH2 1283   6.888   5.194   3.580
  440TIP3    H1 1284   6.950   5.230   3.643
  440TIP3    H2 1285   6.814   5.254   3.583
  441TIP3   OH2 1286   4.899   3.711   3.983
  441TIP3    H1 1287   4.857   3.745   3.904
  441TIP3    H2 1288   4.829   3.710   4.049
  442TIP3   OH2 1289   1.584   6.693   4.893
  442TIP3    H1 1290   1.655   6.708   4.956
  442TIP3    H2 1291   1.575   6.776   4.847
  443TIP3   OH2 1292   5.112   3.905   3.720
  443TIP3    H1 1293   5.094   3.919   3.813
  443TIP3    H2 1294   5.193   3.855   3.718
  444TIP3   OH2 1295   0.100   0.918   3.390
  444TIP3    H1 1296   0.038   0.954   3.326
  444TIP3    H2 1297   0.185   0.951   3.360
  445TIP3   OH2 1298   4.909   4.284   3.625
  445TIP3    H1 1299   4.952   4.308   3.708
  445TIP3    H2 1300   4.966   4.216   3.588
  446TIP3   OH2 1301   6.727   2.029   4.084
  446TIP3    H1 1302   6.632   2.020   4.075
  446TIP3    H2 1303   6.749   1.973   4.158
  447TIP3   OH2 1304   5.574   3.553   4.791
  447TIP3    H1 1305   5.610   3.518   4.709
  447TIP3    H2 1306   5.485   3.518   4.794
  448TIP3   OH2 1307   4.636   5.366   1.931
  448TIP3    H1 1308   4.577   5.333   1.998
  448TIP3    H2 1309   4.711   5.307   1.933
  449TIP3   OH2 1310   1.896   0.596   5.577
  449TIP3    H1 1311   1.819   0.550   5.609
  449TIP3    H2 1312   1.967   0.532   5.583
  450TIP3   OH2 1313   6.662   4.211   2.141
  450TIP3    H1 1314   6.727   4.225   2.209
  450TIP3    H2 1315   6.578   4.209   2.187
  451TIP3   OH2 1316   3.671   0.237   1.734
  451TIP3    H1 1317   3.590   0.280   1.709
  451TIP3    H2 1318   3.667   0.229   1.829
  452TIP3   OH2 1319   2.718   0.984   3.988
  452TIP3    H1 1320   2.727   1.004   4.081
  452TIP3    H2 1321   2.643   0.924   3.983
  453TIP3   OH2 1322   1.642   6.471   2.739
  453TIP3    H1 1323   1.733   6.461   2.766
  453TIP3    H2 1324   1.607   6.382   2.741
  454TIP3   OH2 1325   3.496   4.666   2.857
  454TIP3    H1 1326   3.439   4.735   2.892
  454TIP3    H2 1327   3.579   4.710   2.839
  455TIP3   OH2 1328   2.477   4.731   4.850
  455TIP3    H1 1329   2.383   4.728   4.862
  455TIP3    H2 1330   2.513   4.705   4.934
  456TIP3   OH2 1331   5.876   0.661   3.709
  456TIP3    H1 1332   5.904   0.694   3.623
  456TIP3    H2 1333   5.941   0.594   3.731
  457TIP3   OH2 1334   0.693   4.938   0.550
  457TIP3    H1 1335   0.740   5.000   0.495
  457TIP3    H2 1336   0.734   4.854   0.532
  458TIP3   OH2 1337   2.798   3.429   0.654
  458TIP3    H1 1338   2.715   3.381   0.659
  458TIP3    H2 1339   2.861   3.365   0.621
  459TIP3   OH2 1340   0.576   0.403   1.047
  459TIP3    H1 1341   0.484   0.380   1.036
  459TIP3    H2 1342   0.575   0.497   1.064
  460TIP3   OH2 1343   1.696   4.600   4.118
  460TIP3    H1 1344   1.711   4.522   4.171
  460TIP3    H2 1345   1.781   4.620   4.079
  461TIP3   OH2 1346   5.752   5.321   5.602
  461TIP3    H1 1347   5.682   5.380   5.631
  461TIP3    H2 1348   5.724   5.234   5.630
  462TIP3   OH2 1349   5.559   1.168   5.778
  462TIP3    H1 1350   5.636   1.114   5.796
  462TIP3    H2 1351   5.591   1.258   5.785
  463TIP3   OH2 1352   5.333   3.055   3.303
  463TIP3    H1 1353   5.417   3.100   3.292
  463TIP3    H2 1354   5.268   3.117   3.270
  464TIP3   OH2 1355   2.792   5.027   2.331
  464TIP3    H1 1356   2.705   4.991   2.313
  464TIP3    H2 1357   2.796   5.032   2.427
  465TIP3   OH2 1358   5.126   5.503   4.542
  465TIP3    H1 1359   5.199   5.520   4.483
  465TIP3    H2 1360   5.167   5.481   4.626
  466TIP3   OH2 1361   5.520   0.450   4.432
  466TIP3    H1 1362   5.491   0.537   4.456
  466TIP3    H2 1363   5.502   0.443   4.338
  467TIP3   OH2 1364   0.449   1.532   0.008
  467TIP3    H1 1365   0.492   1.572   0.083
  467TIP3    H2 1366   0.358   1.563   0.013
  468TIP3   OH2 1367   2.441   0.373   3.539
  468TIP3    H1 1368   2.388   0.372   3.460
  468TIP3    H2 1369   2.378   0.376   3.611
  469TIP3   OH2 1370   3.033   3.426   0.305
  469TIP3    H1 1371   3.002   3.336   0.293
  469TIP3    H2 1372   3.124   3.424   0.275
  470TIP3   OH2 1373   1.753   6.304   2.437
  470TIP3    H1 1374   1.698   6.377   2.411
  470TIP3    H2 1375   1.805   6.337   2.511
  471TIP3   OH2 1376   6.213   1.605   2.819
  471TIP3    H1 1377   6.149   1.542   2.851
  471TIP3    H2 1378   6.172   1.645   2.743
  472TIP3   OH2 1379   0.110   1.232   5.317
  472TIP3    H1 1380   0.072   1.166   5.374
  472TIP3    H2 1381   0.205   1.220   5.325
  473TIP3   OH2 1382   1.278   3.716   5.618
  473TIP3    H1 1383   1.326   3.778   5.673
  473TIP3    H2 1384   1.294   3.631   5.658
  474TIP3   OH2 1385   5.811   4.310   4.436
  474TIP3    H1 1386   5.731   4.257   4.431
  474TIP3    H2 1387   5.864   4.280   4.362
  475TIP3   OH2 1388   1.909   0.272   5.602
  475TIP3    H1 1389   1.886   0.248   5.692
  475TIP3    H2 1390   2.004   0.263   5.598
  476TIP3   OH2 1391   0.831   0.660   4.093
  476TIP3    H1 1392   0.736   0.670   4.105
  476TIP3    H2 1393   0.841   0.575   4.050
  477TIP3   OH2 1394   5.718   3.612   2.826
  477TIP3    H1 1395   5.746   3.697   2.859
  477TIP3    H2 1396   5.702   3.626   2.733
  478TIP3   OH2 1397   0.434   6.357   2.259
  478TIP3    H1 1398   0.488   6.311   2.323
  478TIP3    H2 1399   0.462   6.449   2.266
  479TIP3   OH2 1400   1.296   5.842   3.556
  479TIP3    H1 1401   1.299   5.810   3.646
  479TIP3    H2 1402   1.216   5.805   3.519
  480TIP3   OH2 1403   2.076   0.796   2.120
  480TIP3    H1 1404   2.006   0.807   2.055
  480TIP3    H2 1405   2.105   0.885   2.140
  481TIP3   OH2 1406   3.457   0.951   1.953
  481TIP3    H1 1407   3.383   0.920   1.900
  481TIP3    H2 1408   3.532   0.903   1.919
  482TIP3   OH2 1409   0.048   2.709   2.886
  482TIP3    H1 1410   0.141   2.687   2.879
  482TIP3    H2 1411   0.004   2.644   2.830
  483TIP3   OH2 1412   0.973   0.364   3.708
  483TIP3    H1 1413   1.015   0.433   3.657
  483TIP3    H2 1414   1.004   0.283   3.668
  484TIP3   OH2 1415   0.710   4.134   1.398
  484TIP3    H1 1416   0.662   4.051   1.393
  484TIP3    H2 1417   0.719   4.161   1.307
  485TIP3   OH2 1418   0.878   1.062   0.658
  485TIP3    H1 1419   0.859   1.030   0.746
  485TIP3    H2 1420   0.912   1.150   0.671
  486TIP3   OH2 1421   5.241   3.711   1.537
  486TIP3    H1 1422   5.236   3.618   1.514
  486TIP3    H2 1423   5.237   3.712   1.633
  487TIP3   OH2 1424   0.301   6.006   1.210
  487TIP3    H1 1425   0.312   5.928   1.156
  487TIP3    H2 1426   0.342   6.076   1.159
  488TIP3   OH2 1427   4.265   2.627   3.208
  488TIP3    H1 1428   4.301   2.572   3.277
  488TIP3    H2 1429   4.199   2.681   3.252
  489TIP3   OH2 1430   6.323   2.315   5.332
  489TIP3    H1 1431   6.391   2.349   5.274
  489TIP3    H2 1432   6.278   2.393   5.365
  490TIP3   OH2 1433   6.362   0.722   0.308
  490TIP3    H1 1434   6.319   0.673   0.237
  490TIP3    H2 1435   6.446   0.678   0.319
  491TIP3   OH2 1436   5.356   6.431   3.226
  491TIP3    H1 1437   5.441   6.466   3.199
  491TIP3    H2 1438   5.323   6.386   3.148
  492TIP3   OH2 1439   2.869   4.872   1.648
  492TIP3    H1 1440   2.948   4.918   1.620
  492TIP3    H2 1441   2.800   4.904   1.590
  493TIP3   OH2 1442   4.669   6.257   0.244
  493TIP3    H1 1443   4.599   6.197   0.218
  493TIP3    H2 1444   4.650   6.278   0.335
  494TIP3   OH2 1445   3.346   1.607   1.896
  494TIP3    H1 1446   3.436   1.606   1.864
  494TIP3    H2 1447   3.330   1.699   1.919
  495TIP3   OH2 1448   1.734   1.578   2.752
  495TIP3    H1 1449   1.668   1.610   2.690
  495TIP3    H2 1450   1.720   1.483   2.753
  496TIP3   OH2 1451   6.195   4.366   3.642
  496TIP3    H1 1452   6.284   4.395   3.662
  496TIP3    H2 1453   6.182   4.290   3.698
  497TIP3   OH2 1454   6.115   4.638   3.595
  497TIP3    H1 1455   6.137   4.547   3.615
  497TIP3    H2 1456   6.019   4.639   3.591
  498TIP3   OH2 1457   5.524   6.819   3.001
  498TIP3    H1 1458   5.525   6.903   3.048
  498TIP3    H2 1459   5.507   6.844   2.910
  499TIP3   OH2 1460   6.509   3.630   0.265
  499TIP3    H1 1461   6.463   3.587   0.337
  499TIP3    H2 1462   6.442   3.680   0.219
  500TIP3   OH2 1463   2.183   2.085   5.511
  500TIP3    H1 1464   2.273   2.052   5.503
  500TIP3    H2 1465   2.135   2.043   5.440
  501TIP3   OH2 1466   2.824   1.251   5.714
  501TIP3    H1 1467   2.915   1.220   5.718
  501TIP3    H2 1468   2.773   1.181   5.753
  502TIP3   OH2 1469   1.392   6.047   4.653
  502TIP3    H1 1470   1.371   6.009   4.568
  502TIP3    H2 1471   1.316   6.100   4.675
  503TIP3   OH2 1472   2.336   2.892   3.217
  503TIP3    H1 1473   2.276   2.838   3.268
  503TIP3    H2 1474   2.282   2.963   3.182
  504TIP3   OH2 1475   1.710   4.133   0.245
  504TIP3    H1 1476   1.618   4.120   0.268
  504TIP3    H2 1477   1.756   4.060   0.286
  505TIP3   OH2 1478   1.055   1.270   0.726
  505TIP3    H1 1479   1.061   1.302   0.816
  505TIP3    H2 1480   1.144   1.277   0.692
  506TIP3   OH2 1481   0.602   3.090   3.054
  506TIP3    H1 1482   0.673   3.047   3.102
  506TIP3    H2 1483   0.590   3.174   3.099
  507TIP3   OH2 1484   2.595   0.407   3.996
  507TIP3    H1 1485   2.676   0.424   4.044
  507TIP3    H2 1486   2.534   0.474   4.027
  508TIP3   OH2 1487   0.105   0.158   2.295
  508TIP3    H1 1488   0.128   0.113   2.214
  508TIP3    H2 1489   0.172   0.226   2.305
  509TIP3   OH2 1490   2.844   6.588   1.452
  509TIP3    H1 1491   2.875   6.514   1.504
  509TIP3    H2 1492   2.748   6.584   1.459
  510TIP3   OH2 1493   3.286   4.412   4.434
  510TIP3    H1 1494   3.327   4.366   4.360
  510TIP3    H2 1495   3.266   4.499   4.399
  511TIP3   OH2 1496   4.323   2.718   1.855
  511TIP3    H1 1497   4.331   2.811   1.837
  511TIP3    H2 1498   4.410   2.691   1.883
  512TIP3   OH2 1499   2.861   2.445   0.765
  512TIP3    H1 1500   2.822   2.369   0.806
  512TIP3    H2 1501   2.906   2.410   0.687
  513TIP3   OH2 1502   6.604   0.726   4.285
  513TIP3    H1 1503   6.539   0.685   4.342
  513TIP3    H2 1504   6.598   0.679   4.202
  514TIP3   OH2 1505  -0.004   3.303   5.051
  514TIP3    H1 1506   0.010   3.353   4.971
  514TIP3    H2 1507  -0.047   3.365   5.110
  515TIP3   OH2 1508   1.580   2.000   1.972
  515TIP3    H1 1509   1.668   2.027   1.998
  515TIP3    H2 1510   1.562   1.922   2.025
  516TIP3   OH2 1511   0.857   6.396   2.052
  516TIP3    H1 1512   0.892   6.485   2.048
  516TIP3    H2 1513   0.872   6.360   1.964
  517TIP3   OH2 1514   5.615   0.813   5.423
  517TIP3    H1 1515   5.643   0.900   5.448
  517TIP3    H2 1516   5.690   0.757   5.442
  518TIP3   OH2 1517   7.108   5.028   2.453
  518TIP3    H1 1518   7.159   5.095   2.498
  518TIP3    H2 1519   7.168   4.955   2.443
  519TIP3   OH2 1520   3.653   1.735   4.047
  519TIP3    H1 1521   3.578   1.715   3.991
  519TIP3    H2 1522   3.702   1.802   3.999
  520TIP3   OH2 1523   6.191   6.320   5.018
  520TIP3    H1 1524   6.251   6.392   5.039
  520TIP3    H2 1525   6.248   6.247   4.998
  521TIP3   OH2 1526   0.176   2.285   2.584
  521TIP3    H1 1527   0.107   2.341   2.547
  521TIP3    H2 1528   0.210   2.236   2.509
  522TIP3   OH2 1529   6.169   0.696   2.304
  522TIP3    H1 1530   6.236   0.747   2.258
  522TIP3    H2 1531   6.165   0.735   2.391
  523TIP3   OH2 1532   0.279   6.227   0.389
  523TIP3    H1 1533   0.330   6.280   0.329
  523TIP3    H2 1534   0.190   6.263   0.384
  524TIP3   OH2 1535   4.893   5.714   0.725
  524TIP3    H1 1536   4.970   5.769   0.711
  524TIP3    H2 1537   4.819   5.776   0.726
  525TIP3   OH2 1538   2.699   5.806   0.051
  525TIP3    H1 1539   2.688   5.757   0.133
  525TIP3    H2 1540   2.793   5.821   0.044
  526TIP3   OH2 1541   3.684   1.295   4.362
  526TIP3    H1 1542   3.697   1.312   4.269
  526TIP3    H2 1543   3.591   1.275   4.371
  527TIP3   OH2 1544   1.493   3.171   2.295
  527TIP3    H1 1545   1.475   3.240   2.359
  527TIP3    H2 1546   1.574   3.129   2.326
  528TIP3   OH2 1547   3.844   3.674   2.284
  528TIP3    H1 1548   3.873   3.762   2.258
  528TIP3    H2 1549   3.796   3.689   2.366
  529TIP3   OH2 1550   4.996   4.039   5.047
  529TIP3    H1 1551   4.958   4.037   5.134
  529TIP3    H2 1552   5.090   4.026   5.061
  530TIP3   OH2 1553   4.013   5.525   4.723
  530TIP3    H1 1554   4.058   5.540   4.806
  530TIP3    H2 1555   3.986   5.434   4.727
  531TIP3   OH2 1556   1.852   2.596   0.666
  531TIP3    H1 1557   1.896   2.517   0.635
  531TIP3    H2 1558   1.767   2.595   0.623
  532TIP3   OH2 1559   3.868   4.487   5.076
  532TIP3    H1 1560   3.949   4.512   5.031
  532TIP3    H2 1561   3.893   4.411   5.130
  533TIP3   OH2 1562   2.955   1.539   1.190
  533TIP3    H1 1563   2.993   1.452   1.186
  533TIP3    H2 1564   2.981   1.580   1.107
  534TIP3   OH2 1565   2.125   6.485   5.408
  534TIP3    H1 1566   2.074   6.409   5.379
  534TIP3    H2 1567   2.212   6.470   5.371
  535TIP3   OH2 1568   5.111   5.589   1.918
  535TIP3    H1 1569   5.047   5.642   1.964
  535TIP3    H2 1570   5.135   5.641   1.841
  536TIP3   OH2 1571   5.113   5.177   1.488
  536TIP3    H1 1572   5.116   5.160   1.394
  536TIP3    H2 1573   5.137   5.094   1.529
  537TIP3   OH2 1574   5.670   3.954   5.666
  537TIP3    H1 1575   5.624   3.936   5.584
  537TIP3    H2 1576   5.605   3.998   5.721
  538TIP3   OH2 1577   3.070   6.680   1.963
  538TIP3    H1 1578   3.070   6.600   1.911
  538TIP3    H2 1579   3.070   6.751   1.899
  539TIP3   OH2 1580   5.351   0.668   1.437
  539TIP3    H1 1581   5.319   0.582   1.407
  539TIP3    H2 1582   5.356   0.659   1.532
  540TIP3   OH2 1583   3.441   0.557   3.145
  540TIP3    H1 1584   3.354   0.528   3.119
  540TIP3    H2 1585   3.447   0.647   3.112
  541TIP3   OH2 1586   3.660   5.247   4.970
  541TIP3    H1 1587   3.710   5.329   4.966
  541TIP3    H2 1588   3.635   5.239   5.062
  542TIP3   OH2 1589   4.888   5.222   2.597
  542TIP3    H1 1590   4.852   5.304   2.632
  542TIP3    H2 1591   4.818   5.158   2.609
  543TIP3   OH2 1592   0.615   2.128  -0.005
  543TIP3    H1 1593   0.599   2.033  -0.011
  543TIP3    H2 1594   0.539   2.161   0.042
  544TIP3   OH2 1595   3.489   6.260   0.073
  544TIP3    H1 1596   3.490   6.197   0.145
  544TIP3    H2 1597   3.411   6.237   0.021
  545TIP3   OH2 1598   0.144   4.880   5.391
  545TIP3    H1 1599   0.209   4.869   5.460
  545TIP3    H2 1600   0.088   4.803   5.399
  546TIP3   OH2 1601   5.478   4.233   3.623
  546TIP3    H1 1602   5.449   4.159   3.676
  546TIP3    H2 1603   5.410   4.243   3.557
  547TIP3   OH2 1604   5.689   0.614   5.127
  547TIP3    H1 1605   5.670   0.565   5.207
  547TIP3    H2 1606   5.604   0.652   5.102
  548TIP3   OH2 1607   2.349   2.043   0.439
  548TIP3    H1 1608   2.293   2.120   0.425
  548TIP3    H2 1609   2.316   2.005   0.521
  549TIP3   OH2 1610   6.963   4.155   4.077
  549TIP3    H1 1611   6.989   4.084   4.018
  549TIP3    H2 1612   6.883   4.190   4.036
  550TIP3   OH2 1613   7.183   6.727   3.042
  550TIP3    H1 1614   7.111   6.665   3.028
  550TIP3    H2 1615   7.176   6.751   3.134
  551TIP3   OH2 1616   0.654   2.901   1.391
  551TIP3    H1 1617   0.674   2.922   1.300
  551TIP3    H2 1618   0.667   2.806   1.397
  552TIP3   OH2 1619   6.090   5.996   2.304
  552TIP3    H1 1620   6.112   6.085   2.332
  552TIP3    H2 1621   6.116   5.940   2.378
  553TIP3   OH2 1622   5.662   0.347   0.219
  553TIP3    H1 1623   5.607   0.282   0.176
  553TIP3    H2 1624   5.619   0.363   0.303
  554TIP3   OH2 1625   4.644   1.833   5.252
  554TIP3    H1 1626   4.560   1.877   5.237
  554TIP3    H2 1627   4.698   1.899   5.296
  555TIP3   OH2 1628   4.102   4.438   4.705
  555TIP3    H1 1629   4.026   4.381   4.719
  555TIP3    H2 1630   4.093   4.467   4.614
  556TIP3   OH2 1631   2.167   4.540   2.053
  556TIP3    H1 1632   2.250   4.579   2.078
  556TIP3    H2 1633   2.103   4.611   2.062
  557TIP3   OH2 1634   1.731   5.671   4.633
  557TIP3    H1 1635   1.807   5.614   4.625
  557TIP3    H2 1636   1.686   5.640   4.712
  558TIP3   OH2 1637   6.721   0.007   4.379
  558TIP3    H1 1638   6.642   0.008   4.433
  558TIP3    H2 1639   6.788   0.050   4.434
  559TIP3   OH2 1640   5.664   0.337   1.066
  559TIP3    H1 1641   5.707   0.361   1.148
  559TIP3    H2 1642   5.720   0.373   0.998
  560TIP3   OH2 1643   3.793   3.924   1.888
  560TIP3    H1 1644   3.713   3.936   1.940
  560TIP3    H2 1645   3.842   4.006   1.902
  561TIP3   OH2 1646   2.870   5.075   3.786
  561TIP3    H1 1647   2.847   5.029   3.867
  561TIP3    H2 1648   2.960   5.048   3.767
  562TIP3   OH2 1649   3.888   3.119   1.962
  562TIP3    H1 1650   3.912   3.211   1.955
  562TIP3    H2 1651   3.793   3.120   1.979
  563TIP3   OH2 1652   0.977   4.694   2.445
  563TIP3    H1 1653   0.995   4.783   2.414
  563TIP3    H2 1654   0.897   4.669   2.398
  564TIP3   OH2 1655   1.450   6.077   0.514
  564TIP3    H1 1656   1.457   5.982   0.508
  564TIP3    H2 1657   1.416   6.105   0.429
  565TIP3   OH2 1658   3.905   4.983   1.450
  565TIP3    H1 1659   3.820   5.026   1.441
  565TIP3    H2 1660   3.955   5.041   1.509
  566TIP3   OH2 1661   4.971   0.403   0.939
  566TIP3    H1 1662   4.935   0.358   1.015
  566TIP3    H2 1663   5.046   0.452   0.973
  567TIP3   OH2 1664   4.840   3.385   5.475
  567TIP3    H1 1665   4.821   3.474   5.505
  567TIP3    H2 1666   4.755   3.341   5.475
  568TIP3   OH2 1667   3.819   2.116   1.626
  568TIP3    H1 1668   3.730   2.110   1.661
  568TIP3    H2 1669   3.808   2.109   1.531
  569TIP3   OH2 1670   6.978   6.113   3.302
  569TIP3    H1 1671   6.884   6.131   3.298
  569TIP3    H2 1672   7.016   6.189   3.346
  570TIP3   OH2 1673   4.874   6.648   3.365
  570TIP3    H1 1674   4.945   6.585   3.359
  570TIP3    H2 1675   4.897   6.716   3.301
  571TIP3   OH2 1676   2.002   0.784   0.334
  571TIP3    H1 1677   2.057   0.763   0.410
  571TIP3    H2 1678   2.028   0.874   0.311
  572TIP3   OH2 1679   3.611   6.137   3.046
  572TIP3    H1 1680   3.517   6.152   3.031
  572TIP3    H2 1681   3.639   6.209   3.102
  573TIP3   OH2 1682   7.115   1.724   5.454
  573TIP3    H1 1683   7.133   1.650   5.396
  573TIP3    H2 1684   7.122   1.801   5.397
  574TIP3   OH2 1685   6.753   5.772   0.350
  574TIP3    H1 1686   6.726   5.835   0.283
  574TIP3    H2 1687   6.821   5.818   0.400
  575TIP3   OH2 1688   4.485   4.283   0.440
  575TIP3    H1 1689   4.511   4.315   0.526
  575TIP3    H2 1690   4.478   4.188   0.450
  576TIP3   OH2 1691   1.249   0.414   0.758
  576TIP3    H1 1692   1.338   0.439   0.737
  576TIP3    H2 1693   1.199   0.495   0.756
  577TIP3   OH2 1694   6.205   4.517   3.241
  577TIP3    H1 1695   6.133   4.554   3.190
  577TIP3    H2 1696   6.196   4.422   3.231
  578TIP3   OH2 1697   6.558   5.346   5.002
  578TIP3    H1 1698   6.553   5.416   4.937
  578TIP3    H2 1699   6.620   5.380   5.068
  579TIP3   OH2 1700   3.431   2.614   0.537
  579TIP3    H1 1701   3.494   2.665   0.588
  579TIP3    H2 1702   3.466   2.525   0.538
  580TIP3   OH2 1703   2.736   4.755   2.101
  580TIP3    H1 1704   2.695   4.797   2.176
  580TIP3    H2 1705   2.769   4.828   2.048
  581TIP3   OH2 1706   4.279   4.733   1.263
  581TIP3    H1 1707   4.289   4.802   1.328
  581TIP3    H2 1708   4.184   4.724   1.251
  582TIP3   OH2 1709   1.724   2.837   0.822
  582TIP3    H1 1710   1.777   2.917   0.813
  582TIP3    H2 1711   1.786   2.771   0.853
  583TIP3   OH2 1712   5.023   3.478   0.257
  583TIP3    H1 1713   5.024   3.390   0.221
  583TIP3    H2 1714   4.930   3.495   0.276
  584TIP3   OH2 1715   2.554   0.500   1.567
  584TIP3    H1 1716   2.626   0.558   1.593
  584TIP3    H2 1717   2.479   0.558   1.556
  585TIP3   OH2 1718   0.258   1.769   4.957
  585TIP3    H1 1719   0.264   1.708   5.031
  585TIP3    H2 1720   0.321   1.838   4.978
  586TIP3   OH2 1721   0.561   6.498   1.089
  586TIP3    H1 1722   0.591   6.561   1.154
  586TIP3    H2 1723   0.538   6.551   1.012
  587TIP3   OH2 1724   1.697   5.792   2.538
  587TIP3    H1 1725   1.652   5.867   2.577
  587TIP3    H2 1726   1.639   5.717   2.555
  588TIP3   OH2 1727   6.065   4.512   0.555
  588TIP3    H1 1728   6.132   4.578   0.539
  588TIP3    H2 1729   6.056   4.509   0.651
  589TIP3   OH2 1730   4.122   2.795   1.321
  589TIP3    H1 1731   4.072   2.870   1.290
  589TIP3    H2 1732   4.126   2.806   1.416
  590TIP3   OH2 1733   5.530   6.369   0.545
  590TIP3    H1 1734   5.547   6.453   0.588
  590TIP3    H2 1735   5.582   6.306   0.595
  591TIP3   OH2 1736   4.755   2.846   1.334
  591TIP3    H1 1737   4.795   2.858   1.420
  591TIP3    H2 1738   4.700   2.769   1.344
  592TIP3   OH2 1739   6.794   5.569   4.216
  592TIP3    H1 1740   6.875   5.612   4.187
  592TIP3    H2 1741   6.823   5.484   4.251
  593TIP3   OH2 1742   3.694   1.997   3.372
  593TIP3    H1 1743   3.692   2.047   3.291
  593TIP3    H2 1744   3.601   1.983   3.394
  594TIP3   OH2 1745   6.597   2.796   2.619
  594TIP3    H1 1746   6.551   2.794   2.535
  594TIP3    H2 1747   6.585   2.707   2.654
  595TIP3   OH2 1748   2.124   1.392   0.176
  595TIP3    H1 1749   2.209   1.382   0.135
  595TIP3    H2 1750   2.067   1.329   0.131
  596TIP3   OH2 1751   2.475   0.166   3.984
  596TIP3    H1 1752   2.528   0.246   3.992
  596TIP3    H2 1753   2.536   0.095   4.002
  597TIP3   OH2 1754   3.450   0.653   1.337
  597TIP3    H1 1755   3.380   0.648   1.272
  597TIP3    H2 1756   3.487   0.741   1.326
  598TIP3   OH2 1757   6.764   3.999   2.731
  598TIP3    H1 1758   6.807   3.971   2.650
  598TIP3    H2 1759   6.735   4.088   2.713
  599TIP3   OH2 1760   6.198   3.331   4.182
  599TIP3    H1 1761   6.196   3.289   4.096
  599TIP3    H2 1762   6.110   3.364   4.195
  600TIP3   OH2 1763   2.595   5.434   3.351
  600TIP3    H1 1764   2.677   5.461   3.310
  600TIP3    H2 1765   2.538   5.511   3.343
  601TIP3   OH2 1766   0.486   1.447   0.714
  601TIP3    H1 1767   0.427   1.396   0.769
  601TIP3    H2 1768   0.460   1.426   0.625
  602TIP3   OH2 1769   1.133   6.443   3.219
  602TIP3    H1 1770   1.054   6.421   3.268
  602TIP3    H2 1771   1.116   6.531   3.186
  603TIP3   OH2 1772   5.657   3.060   3.521
  603TIP3    H1 1773   5.717   3.135   3.515
  603TIP3    H2 1774   5.687   3.000   3.453
  604TIP3   OH2 1775   6.426   2.565   3.444
  604TIP3    H1 1776   6.356   2.615   3.401
  604TIP3    H2 1777   6.417   2.477   3.409
  605TIP3   OH2 1778   3.258   0.669   0.134
  605TIP3    H1 1779   3.298   0.590   0.171
  605TIP3    H2 1780   3.279   0.738   0.197
  606TIP3   OH2 1781   6.513   2.510   5.616
  606TIP3    H1 1782   6.476   2.510   5.705
  606TIP3    H2 1783   6.444   2.545   5.561
  607TIP3   OH2 1784   6.612   5.504   4.542
  607TIP3    H1 1785   6.660   5.426   4.513
  607TIP3    H2 1786   6.523   5.490   4.509
  608TIP3   OH2 1787   2.310   4.174   3.517
  608TIP3    H1 1788   2.246   4.241   3.495
  608TIP3    H2 1789   2.325   4.186   3.611
  609TIP3   OH2 1790   4.128   4.844   4.685
  609TIP3    H1 1791   4.076   4.831   4.605
  609TIP3    H2 1792   4.199   4.901   4.657
  610TIP3   OH2 1793   3.932   2.590   1.784
  610TIP3    H1 1794   3.996   2.534   1.829
  610TIP3    H2 1795   3.936   2.673   1.830
  611TIP3   OH2 1796   6.437   4.446   2.786
  611TIP3    H1 1797   6.403   4.400   2.862
  611TIP3    H2 1798   6.383   4.525   2.779
  612TIP3   OH2 1799   3.172   4.965   0.245
  612TIP3    H1 1800   3.114   4.994   0.315
  612TIP3    H2 1801   3.156   4.871   0.239
  613TIP3   OH2 1802   3.432   2.331   3.504
  613TIP3    H1 1803   3.392   2.418   3.499
  613TIP3    H2 1804   3.406   2.298   3.589
  614TIP3   OH2 1805   1.760   4.806   1.473
  614TIP3    H1 1806   1.669   4.783   1.454
  614TIP3    H2 1807   1.765   4.900   1.458
  615TIP3   OH2 1808   5.596   4.112   0.923
  615TIP3    H1 1809   5.552   4.079   0.845
  615TIP3    H2 1810   5.640   4.192   0.894
  616TIP3   OH2 1811   6.776   1.176   0.164
  616TIP3    H1 1812   6.786   1.236   0.237
  616TIP3    H2 1813   6.683   1.152   0.165
  617TIP3   OH2 1814   5.551   0.165   0.004
  617TIP3    H1 1815   5.490   0.104  -0.037
  617TIP3    H2 1816   5.589   0.213  -0.070
  618TIP3   OH2 1817   5.756   6.528   4.289
  618TIP3    H1 1818   5.838   6.537   4.338
  618TIP3    H2 1819   5.711   6.455   4.331
  619TIP3   OH2 1820   2.437   2.383   2.891
  619TIP3    H1 1821   2.425   2.477   2.875
  619TIP3    H2 1822   2.373   2.341   2.833
  620TIP3   OH2 1823   2.312   2.964   3.608
  620TIP3    H1 1824   2.384   2.907   3.582
  620TIP3    H2 1825   2.342   3.005   3.689
  621TIP3   OH2 1826   0.332   0.365   5.608
  621TIP3    H1 1827   0.293   0.425   5.544
  621TIP3    H2 1828   0.399   0.318   5.559
  622TIP3   OH2 1829   4.619   4.144   2.227
  622TIP3    H1 1830   4.631   4.198   2.150
  622TIP3    H2 1831   4.525   4.141   2.240
  623TIP3   OH2 1832   5.177   1.911   2.776
  623TIP3    H1 1833   5.190   2.006   2.771
  623TIP3    H2 1834   5.264   1.874   2.762
  624TIP3   OH2 1835   4.678   4.109   1.677
  624TIP3    H1 1836   4.636   4.085   1.760
  624TIP3    H2 1837   4.608   4.100   1.612
  625TIP3   OH2 1838   4.511   4.194   1.143
  625TIP3    H1 1839   4.483   4.286   1.146
  625TIP3    H2 1840   4.433   4.147   1.114
  626TIP3   OH2 1841   4.165   6.791   5.426
  626TIP3    H1 1842   4.239   6.828   5.474
  626TIP3    H2 1843   4.145   6.710   5.472
  627TIP3   OH2 1844   3.281   3.495   4.564
  627TIP3    H1 1845   3.218   3.536   4.624
  627TIP3    H2 1846   3.229   3.433   4.513
  628TIP3   OH2 1847   5.998   3.852   0.097
  628TIP3    H1 1848   6.057   3.920   0.064
  628TIP3    H2 1849   5.958   3.890   0.176
  629TIP3   OH2 1850   2.860   0.498   4.109
  629TIP3    H1 1851   2.858   0.486   4.014
  629TIP3    H2 1852   2.949   0.526   4.129
  630TIP3   OH2 1853   0.928   3.668   3.125
  630TIP3    H1 1854   0.929   3.659   3.220
  630TIP3    H2 1855   0.839   3.696   3.104
  631TIP3   OH2 1856   4.613   5.822   3.345
  631TIP3    H1 1857   4.595   5.754   3.410
  631TIP3    H2 1858   4.589   5.903   3.389
  632TIP3   OH2 1859   2.848   4.342   0.690
  632TIP3    H1 1860   2.919   4.306   0.636
  632TIP3    H2 1861   2.857   4.297   0.774
  633TIP3   OH2 1862   3.701   2.469  -0.024
  633TIP3    H1 1863   3.695   2.426   0.061
  633TIP3    H2 1864   3.793   2.494  -0.033
  634TIP3   OH2 1865   3.449   3.078   4.005
  634TIP3    H1 1866   3.394   3.067   3.927
  634TIP3    H2 1867   3.526   3.125   3.973
  635TIP3   OH2 1868   3.968   3.983   3.699
  635TIP3    H1 1869   3.892   4.039   3.717
  635TIP3    H2 1870   4.035   4.014   3.760
  636TIP3   OH2 1871   4.384   2.366   4.418
  636TIP3    H1 1872   4.471   2.403   4.433
  636TIP3    H2 1873   4.399   2.289   4.364
  637TIP3   OH2 1874   1.304   0.983   4.991
  637TIP3    H1 1875   1.262   1.057   5.036
  637TIP3    H2 1876   1.278   0.906   5.042
  638TIP3   OH2 1877   1.468   2.558   3.632
  638TIP3    H1 1878   1.525   2.495   3.588
  638TIP3    H2 1879   1.382   2.515   3.635
  639TIP3   OH2 1880   5.158   2.646   5.735
  639TIP3    H1 1881   5.220   2.649   5.808
  639TIP3    H2 1882   5.091   2.583   5.763
  640TIP3   OH2 1883   6.904   0.566   4.050
  640TIP3    H1 1884   6.954   0.603   3.977
  640TIP3    H2 1885   6.963   0.572   4.125
  641TIP3   OH2 1886   0.496   3.417   1.909
  641TIP3    H1 1887   0.568   3.403   1.970
  641TIP3    H2 1888   0.526   3.378   1.827
  642TIP3   OH2 1889   6.186   2.932   1.746
  642TIP3    H1 1890   6.101   2.888   1.750
  642TIP3    H2 1891   6.191   2.982   1.827
  643TIP3   OH2 1892   0.217   1.800   0.562
  643TIP3    H1 1893   0.266   1.719   0.545
  643TIP3    H2 1894   0.216   1.845   0.477
  644TIP3   OH2 1895   0.738   5.203   3.606
  644TIP3    H1 1896   0.679   5.129   3.616
  644TIP3    H2 1897   0.737   5.246   3.691
  645TIP3   OH2 1898   1.957   0.415   2.723
  645TIP3    H1 1899   1.886   0.406   2.786
  645TIP3    H2 1900   1.997   0.328   2.719
  646TIP3   OH2 1901   6.820   4.180   1.499
  646TIP3    H1 1902   6.838   4.140   1.583
  646TIP3    H2 1903   6.896   4.236   1.482
  647TIP3   OH2 1904   3.972   5.415   0.257
  647TIP3    H1 1905   3.957   5.490   0.314
  647TIP3    H2 1906   4.001   5.345   0.316
  648TIP3   OH2 1907   4.642   0.541   0.394
  648TIP3    H1 1908   4.573   0.530   0.459
  648TIP3    H2 1909   4.723   0.520   0.441
  649TIP3   OH2 1910   1.541   4.735   5.484
  649TIP3    H1 1911   1.556   4.829   5.491
  649TIP3    H2 1912   1.585   4.709   5.403
  650TIP3   OH2 1913   2.982   3.549   0.035
  650TIP3    H1 1914   2.938   3.535  -0.049
  650TIP3    H2 1915   2.951   3.477   0.090
  651TIP3   OH2 1916   3.205   1.263   3.534
  651TIP3    H1 1917   3.256   1.185   3.554
  651TIP3    H2 1918   3.135   1.264   3.600
  652TIP3   OH2 1919   4.180   2.483   1.172
  652TIP3    H1 1920   4.239   2.408   1.182
  652TIP3    H2 1921   4.092   2.446   1.177
  653TIP3   OH2 1922   7.018   6.084   5.151
  653TIP3    H1 1923   6.932   6.044   5.146
  653TIP3    H2 1924   7.069   6.026   5.208
  654TIP3   OH2 1925   0.056   3.921   2.900
  654TIP3    H1 1926  -0.019   3.925   2.841
  654TIP3    H2 1927   0.029   3.970   2.977
  655TIP3   OH2 1928   2.366   2.559   0.971
  655TIP3    H1 1929   2.395   2.505   0.898
  655TIP3    H2 1930   2.431   2.543   1.040
  656TIP3   OH2 1931   4.647   6.759   1.648
  656TIP3    H1 1932   4.612   6.672   1.627
  656TIP3    H2 1933   4.572   6.817   1.642
  657TIP3   OH2 1934   5.919   5.776   5.501
  657TIP3    H1 1935   5.900   5.802   5.592
  657TIP3    H2 1936   5.942   5.683   5.507
  658TIP3   OH2 1937   1.149   2.992   0.103
  658TIP3    H1 1938   1.212   3.004   0.174
  658TIP3    H2 1939   1.190   2.928   0.045
  659TIP3   OH2 1940   5.044   6.224   2.163
  659TIP3    H1 1941   5.078   6.294   2.219
  659TIP3    H2 1942   5.110   6.155   2.169
  660TIP3   OH2 1943   2.450   3.106   4.274
  660TIP3    H1 1944   2.414   3.022   4.245
  660TIP3    H2 1945   2.399   3.171   4.226
  661TIP3   OH2 1946   4.431   1.021   5.450
  661TIP3    H1 1947   4.371   1.093   5.474
  661TIP3    H2 1948   4.457   1.042   5.361
  662TIP3   OH2 1949   5.399   2.968   1.494
  662TIP3    H1 1950   5.362   2.909   1.429
  662TIP3    H2 1951   5.471   2.919   1.533
  663TIP3   OH2 1952   3.948   0.229   1.766
  663TIP3    H1 1953   3.956   0.316   1.729
  663TIP3    H2 1954   3.855   0.207   1.756
  664TIP3   OH2 1955   1.918   4.455   0.120
  664TIP3    H1 1956   1.885   4.536   0.158
  664TIP3    H2 1957   2.013   4.468   0.115
  665TIP3   OH2 1958   3.932   0.919   3.558
  665TIP3    H1 1959   3.928   0.853   3.488
  665TIP3    H2 1960   3.861   0.894   3.618
  666TIP3   OH2 1961   5.927   4.102   1.326
  666TIP3    H1 1962   5.913   4.139   1.239
  666TIP3    H2 1963   6.020   4.119   1.345
  667TIP3   OH2 1964   6.450   0.077   3.601
  667TIP3    H1 1965   6.500   0.004   3.565
  667TIP3    H2 1966   6.362   0.066   3.564
  668TIP3   OH2 1967   3.238   6.352   1.971
  668TIP3    H1 1968   3.156   6.368   1.925
  668TIP3    H2 1969   3.275   6.274   1.929
  669TIP3   OH2 1970   3.863   4.238   1.350
  669TIP3    H1 1971   3.894   4.175   1.285
  669TIP3    H2 1972   3.902   4.208   1.432
  670TIP3   OH2 1973   4.454   4.446   1.207
  670TIP3    H1 1974   4.419   4.453   1.296
  670TIP3    H2 1975   4.396   4.501   1.154
  671TIP3   OH2 1976   5.109   2.656   2.659
  671TIP3    H1 1977   5.033   2.643   2.716
  671TIP3    H2 1978   5.103   2.587   2.594
  672TIP3   OH2 1979   4.159   2.485   2.977
  672TIP3    H1 1980   4.199   2.511   3.060
  672TIP3    H2 1981   4.142   2.567   2.931
  673TIP3   OH2 1982   0.476   3.711   2.339
  673TIP3    H1 1983   0.526   3.790   2.320
  673TIP3    H2 1984   0.538   3.639   2.322
  674TIP3   OH2 1985   5.494   4.154   4.015
  674TIP3    H1 1986   5.586   4.140   3.992
  674TIP3    H2 1987   5.497   4.203   4.097
  675TIP3   OH2 1988   6.319   5.291   0.780
  675TIP3    H1 1989   6.408   5.295   0.746
  675TIP3    H2 1990   6.310   5.370   0.834
  676TIP3   OH2 1991   2.718   6.323   2.703
  676TIP3    H1 1992   2.659   6.396   2.722
  676TIP3    H2 1993   2.672   6.246   2.735
  677TIP3   OH2 1994   0.131   6.225   2.924
  677TIP3    H1 1995   0.177   6.141   2.926
  677TIP3    H2 1996   0.177   6.279   2.989
  678TIP3   OH2 1997   2.717   3.310   5.357
  678TIP3    H1 1998   2.780   3.293   5.287
  678TIP3    H2 1999   2.645   3.355   5.314
  679TIP3   OH2 2000   1.416   4.366   4.830
  679TIP3    H1 2001   1.450   4.453   4.850
  679TIP3    H2 2002   1.336   4.383   4.779
  680TIP3   OH2 2003   5.889   4.419   2.884
  680TIP3    H1 2004   5.852   4.461   2.961
  680TIP3    H2 2005   5.828   4.441   2.813
  681TIP3   OH2 2006   4.932   3.001   0.656
  681TIP3    H1 2007   4.937   2.931   0.591
  681TIP3    H2 2008   5.022   3.013   0.684
  682TIP3   OH2 2009   4.017   2.805   2.444
  682TIP3    H1 2010   4.015   2.780   2.352
  682TIP3    H2 2011   4.107   2.789   2.472
  683TIP3   OH2 2012   0.184   4.592   2.863
  683TIP3    H1 2013   0.138   4.645   2.798
  683TIP3    H2 2014   0.126   4.589   2.939
  684TIP3   OH2 2015   0.194   3.475   0.305
  684TIP3    H1 2016   0.102   3.500   0.289
  684TIP3    H2 2017   0.196   3.381   0.288
  685TIP3   OH2 2018   6.364   5.614   4.302
  685TIP3    H1 2019   6.456   5.598   4.280
  685TIP3    H2 2020   6.326   5.526   4.309
  686TIP3   OH2 2021   6.908   0.628   0.389
  686TIP3    H1 2022   6.835   0.651   0.447
  686TIP3    H2 2023   6.917   0.704   0.331
  687TIP3   OH2 2024   4.694   2.780   4.092
  687TIP3    H1 2025   4.745   2.846   4.045
  687TIP3    H2 2026   4.745   2.699   4.081
  688TIP3   OH2 2027   3.951   6.215   2.608
  688TIP3    H1 2028   3.863   6.205   2.572
  688TIP3    H2 2029   3.947   6.298   2.655
  689TIP3   OH2 2030   1.651   5.541   0.434
  689TIP3    H1 2031   1.702   5.541   0.353
  689TIP3    H2 2032   1.623   5.631   0.446
  690TIP3   OH2 2033   4.489   1.103   2.639
  690TIP3    H1 2034   4.425   1.044   2.598
  690TIP3    H2 2035   4.539   1.047   2.699
  691TIP3   OH2 2036   3.526   3.571   1.618
  691TIP3    H1 2037   3.596   3.513   1.649
  691TIP3    H2 2038   3.548   3.657   1.655
  692TIP3   OH2 2039   6.646   5.379   3.598
  692TIP3    H1 2040   6.578   5.336   3.545
  692TIP3    H2 2041   6.599   5.414   3.673
  693TIP3   OH2 2042   0.158   5.314   3.629
  693TIP3    H1 2043   0.155   5.255   3.554
  693TIP3    H2 2044   0.067   5.336   3.645
  694TIP3   OH2 2045   0.771   1.085   4.198
  694TIP3    H1 2046   0.851   1.112   4.153
  694TIP3    H2 2047   0.795   1.081   4.291
  695TIP3   OH2 2048   0.206   0.665   4.970
  695TIP3    H1 2049   0.175   0.692   4.883
  695TIP3    H2 2050   0.142   0.702   5.030
  696TIP3   OH2 2051   4.300   3.755   0.660
  696TIP3    H1 2052   4.283   3.686   0.724
  696TIP3    H2 2053   4.214   3.794   0.643
  697TIP3   OH2 2054   2.375   1.003   0.592
  697TIP3    H1 2055   2.390   0.946   0.667
  697TIP3    H2 2056   2.463   1.031   0.565
  698TIP3   OH2 2057   1.558   4.202   5.902
  698TIP3    H1 2058   1.510   4.283   5.886
  698TIP3    H2 2059   1.533   4.176   5.991
  699TIP3   OH2 2060   7.078   6.321   3.451
  699TIP3    H1 2061   7.149   6.287   3.505
  699TIP3    H2 2062   7.039   6.391   3.503
  700TIP3   OH2 2063   6.682   2.591   2.803
  700TIP3    H1 2064   6.690   2.505   2.761
  700TIP3    H2 2065   6.770   2.610   2.835
  701TIP3   OH2 2066   3.211   4.312   2.826
  701TIP3    H1 2067   3.219   4.305   2.731
  701TIP3    H2 2068   3.254   4.234   2.860
  702TIP3   OH2 2069   1.482   3.089   4.616
  702TIP3    H1 2070   1.415   3.076   4.683
  702TIP3    H2 2071   1.538   3.011   4.623
  703TIP3   OH2 2072   3.228   1.498   2.255
  703TIP3    H1 2073   3.176   1.557   2.200
  703TIP3    H2 2074   3.204   1.521   2.345
  704TIP3   OH2 2075   2.304   5.089   0.084
  704TIP3    H1 2076   2.285   5.183   0.085
  704TIP3    H2 2077   2.384   5.081   0.033
  705TIP3   OH2 2078   4.599   1.271   3.514
  705TIP3    H1 2079   4.665   1.340   3.514
  705TIP3    H2 2080   4.595   1.241   3.605
  706TIP3   OH2 2081   1.454   6.551   1.381
  706TIP3    H1 2082   1.524   6.543   1.316
  706TIP3    H2 2083   1.442   6.646   1.392
  707TIP3   OH2 2084   2.701   4.269   0.066
  707TIP3    H1 2085   2.706   4.357   0.027
  707TIP3    H2 2086   2.722   4.210  -0.006
  708TIP3   OH2 2087   6.837   4.154   0.992
  708TIP3    H1 2088   6.794   4.098   1.057
  708TIP3    H2 2089   6.926   4.164   1.025
  709TIP3   OH2 2090   6.457   2.886   4.703
  709TIP3    H1 2091   6.546   2.920   4.708
  709TIP3    H2 2092   6.403   2.957   4.738
  710TIP3   OH2 2093   1.409   4.257   1.192
  710TIP3    H1 2094   1.361   4.199   1.132
  710TIP3    H2 2095   1.497   4.219   1.198
  711TIP3   OH2 2096   4.063   6.038   1.121
  711TIP3    H1 2097   4.156   6.047   1.141
  711TIP3    H2 2098   4.021   6.034   1.207
  712TIP3   OH2 2099   1.449   1.056   0.350
  712TIP3    H1 2100   1.383   1.112   0.391
  712TIP3    H2 2101   1.476   1.105   0.272
  713TIP3   OH2 2102   1.380   5.517   5.153
  713TIP3    H1 2103   1.368   5.423   5.139
  713TIP3    H2 2104   1.449   5.522   5.220
  714TIP3   OH2 2105   4.100   0.074   0.754
  714TIP3    H1 2106   4.183   0.065   0.707
  714TIP3    H2 2107   4.033   0.065   0.687
  715TIP3   OH2 2108   3.092   1.943   4.110
  715TIP3    H1 2109   3.077   1.862   4.061
  715TIP3    H2 2110   3.012   1.994   4.098
  716TIP3   OH2 2111   2.839   2.719   2.572
  716TIP3    H1 2112   2.830   2.809   2.602
  716TIP3    H2 2113   2.811   2.720   2.481
  717TIP3   OH2 2114   2.411   5.451   1.055
  717TIP3    H1 2115   2.392   5.528   1.108
  717TIP3    H2 2116   2.457   5.392   1.114
  718TIP3   OH2 2117   5.346   0.550   1.691
  718TIP3    H1 2118   5.412   0.579   1.754
  718TIP3    H2 2119   5.264   0.587   1.724
  719TIP3   OH2 2120   1.396   0.133   3.522
  719TIP3    H1 2121   1.380   0.199   3.453
  719TIP3    H2 2122   1.350   0.055   3.490
  720TIP3   OH2 2123   4.827   6.700   0.789
  720TIP3    H1 2124   4.836   6.614   0.748
  720TIP3    H2 2125   4.818   6.761   0.716
  721TIP3   OH2 2126   3.616   0.351   5.116
  721TIP3    H1 2127   3.535   0.303   5.135
  721TIP3    H2 2128   3.653   0.372   5.201
  722TIP3   OH2 2129   4.872   3.407   1.996
  722TIP3    H1 2130   4.798   3.467   2.006
  722TIP3    H2 2131   4.949   3.459   2.017
  723TIP3   OH2 2132   3.038   1.071   1.237
  723TIP3    H1 2133   3.082   1.056   1.153
  723TIP3    H2 2134   3.030   0.984   1.276
  724TIP3   OH2 2135   4.704   4.807   1.304
  724TIP3    H1 2136   4.743   4.854   1.379
  724TIP3    H2 2137   4.709   4.715   1.329
  725TIP3   OH2 2138   1.899   5.190   0.393
  725TIP3    H1 2139   1.924   5.104   0.360
  725TIP3    H2 2140   1.836   5.223   0.329
  726TIP3   OH2 2141   0.214   3.354   4.533
  726TIP3    H1 2142   0.253   3.403   4.606
  726TIP3    H2 2143   0.262   3.271   4.532
  727TIP3   OH2 2144   4.932   0.722   4.463
  727TIP3    H1 2145   5.019   0.730   4.502
  727TIP3    H2 2146   4.890   0.651   4.512
  728TIP3   OH2 2147   1.784   2.146   4.705
  728TIP3    H1 2148   1.714   2.159   4.768
  728TIP3    H2 2149   1.819   2.233   4.689
  729TIP3   OH2 2150   3.055   5.643   5.202
  729TIP3    H1 2151   3.106   5.585   5.145
  729TIP3    H2 2152   3.014   5.705   5.141
  730TIP3   OH2 2153   0.583   4.924   2.543
  730TIP3    H1 2154   0.631   4.978   2.606
  730TIP3    H2 2155   0.647   4.907   2.474
  731TIP3   OH2 2156   2.646   0.813   4.993
  731TIP3    H1 2157   2.646   0.907   4.978
  731TIP3    H2 2158   2.735   0.784   4.971
  732TIP3   OH2 2159   2.228   1.392   1.346
  732TIP3    H1 2160   2.150   1.418   1.298
  732TIP3    H2 2161   2.207   1.306   1.382
  733TIP3   OH2 2162   5.368   5.983   3.447
  733TIP3    H1 2163   5.320   6.067   3.449
  733TIP3    H2 2164   5.306   5.920   3.483
  734TIP3   OH2 2165   4.562   6.108   2.013
  734TIP3    H1 2166   4.535   6.199   2.000
  734TIP3    H2 2167   4.516   6.080   2.092
  735TIP3   OH2 2168   4.561   4.163   4.769
  735TIP3    H1 2169   4.487   4.158   4.708
  735TIP3    H2 2170   4.626   4.103   4.732
  736TIP3   OH2 2171   6.041   2.861   2.835
  736TIP3    H1 2172   6.061   2.852   2.741
  736TIP3    H2 2173   6.098   2.933   2.863
  737TIP3   OH2 2174   4.413   5.737   5.747
  737TIP3    H1 2175   4.391   5.807   5.808
  737TIP3    H2 2176   4.383   5.657   5.790
  738TIP3   OH2 2177   1.681   1.629   1.570
  738TIP3    H1 2178   1.768   1.666   1.559
  738TIP3    H2 2179   1.660   1.643   1.663
  739TIP3   OH2 2180   2.040   2.661   2.790
  739TIP3    H1 2181   2.100   2.710   2.847
  739TIP3    H2 2182   2.095   2.595   2.749
  740TIP3   OH2 2183   2.007   4.340   1.516
  740TIP3    H1 2184   2.008   4.346   1.420
  740TIP3    H2 2185   2.070   4.407   1.544
  741TIP3   OH2 2186   6.760   1.640   2.270
  741TIP3    H1 2187   6.750   1.632   2.364
  741TIP3    H2 2188   6.704   1.571   2.233
  742TIP3   OH2 2189   6.151   3.830   3.746
  742TIP3    H1 2190   6.145   3.848   3.652
  742TIP3    H2 2191   6.119   3.741   3.756
  743TIP3   OH2 2192   1.881   4.797   4.874
  743TIP3    H1 2193   1.836   4.751   4.803
  743TIP3    H2 2194   1.883   4.734   4.946
  744TIP3   OH2 2195   5.420   6.536   0.085
  744TIP3    H1 2196   5.432   6.582   0.168
  744TIP3    H2 2197   5.506   6.501   0.065
  745TIP3   OH2 2198   6.922   2.564   1.136
  745TIP3    H1 2199   6.868   2.496   1.095
  745TIP3    H2 2200   6.884   2.646   1.104
  746TIP3   OH2 2201   5.575   6.021   4.960
  746TIP3    H1 2202   5.611   6.109   4.966
  746TIP3    H2 2203   5.512   6.016   5.031
  747TIP3   OH2 2204   5.667   0.047   3.880
  747TIP3    H1 2205   5.602   0.116   3.886
  747TIP3    H2 2206   5.617  -0.032   3.864
  748TIP3   OH2 2207   3.794   5.638   1.823
  748TIP3    H1 2208   3.797   5.563   1.764
  748TIP3    H2 2209   3.843   5.610   1.901
  749TIP3   OH2 2210   6.024   6.186   3.573
  749TIP3    H1 2211   6.073   6.167   3.653
  749TIP3    H2 2212   6.087   6.168   3.502
  750TIP3   OH2 2213   4.828   6.059   2.043
  750TIP3    H1 2214   4.879   6.120   2.097
  750TIP3    H2 2215   4.746   6.105   2.027
  751TIP3   OH2 2216   6.335   0.655   0.607
  751TIP3    H1 2217   6.372   0.603   0.535
  751TIP3    H2 2218   6.271   0.712   0.565
  752TIP3   OH2 2219   4.848   1.818   4.536
  752TIP3    H1 2220   4.844   1.853   4.447
  752TIP3    H2 2221   4.934   1.846   4.569
  753TIP3   OH2 2222   1.870   0.710   4.029
  753TIP3    H1 2223   1.866   0.716   4.124
  753TIP3    H2 2224   1.792   0.756   3.999
  754TIP3   OH2 2225   2.515   3.763   5.093
  754TIP3    H1 2226   2.496   3.776   5.000
  754TIP3    H2 2227   2.530   3.851   5.127
  755TIP3   OH2 2228   0.536   3.721   4.291
  755TIP3    H1 2229   0.565   3.655   4.229
  755TIP3    H2 2230   0.465   3.679   4.340
  756TIP3   OH2 2231   4.589   5.107   4.163
  756TIP3    H1 2232   4.574   5.063   4.247
  756TIP3    H2 2233   4.684   5.115   4.158
  757TIP3   OH2 2234   4.950   1.527   0.294
  757TIP3    H1 2235   4.913   1.610   0.323
  757TIP3    H2 2236   4.917   1.462   0.356
  758TIP3   OH2 2237   6.371   1.607   5.318
  758TIP3    H1 2238   6.407   1.584   5.403
  758TIP3    H2 2239   6.277   1.589   5.326
  759TIP3   OH2 2240   2.984   4.707   1.040
  759TIP3    H1 2241   2.898   4.669   1.021
  759TIP3    H2 2242   2.989   4.706   1.136
  760TIP3   OH2 2243   6.328   0.767   5.160
  760TIP3    H1 2244   6.281   0.772   5.077
  760TIP3    H2 2245   6.367   0.854   5.171
  761TIP3   OH2 2246   1.370   2.454   2.957
  761TIP3    H1 2247   1.307   2.381   2.957
  761TIP3    H2 2248   1.427   2.436   2.882
  762TIP3   OH2 2249   3.951   2.476   0.695
  762TIP3    H1 2250   3.953   2.565   0.661
  762TIP3    H2 2251   4.038   2.461   0.732
  763TIP3   OH2 2252   2.992   4.695   3.820
  763TIP3    H1 2253   3.013   4.638   3.894
  763TIP3    H2 2254   2.984   4.782   3.857
  764TIP3   OH2 2255   6.253   2.876   2.425
  764TIP3    H1 2256   6.289   2.803   2.376
  764TIP3    H2 2257   6.189   2.916   2.365
  765TIP3   OH2 2258   6.601   1.628   0.617
  765TIP3    H1 2259   6.658   1.621   0.540
  765TIP3    H2 2260   6.661   1.650   0.689
  766TIP3   OH2 2261   3.429   3.567   3.567
  766TIP3    H1 2262   3.398   3.655   3.586
  766TIP3    H2 2263   3.387   3.512   3.633
  767TIP3   OH2 2264   3.548   1.696   3.423
  767TIP3    H1 2265   3.517   1.695   3.332
  767TIP3    H2 2266   3.473   1.725   3.474
  768TIP3   OH2 2267   3.681   0.430   0.790
  768TIP3    H1 2268   3.756   0.465   0.741
  768TIP3    H2 2269   3.712   0.423   0.880
  769TIP3   OH2 2270   2.083   4.780   0.105
  769TIP3    H1 2271   2.167   4.826   0.105
  769TIP3    H2 2272   2.086   4.724   0.183
  770TIP3   OH2 2273   6.385   3.312   1.494
  770TIP3    H1 2274   6.467   3.303   1.444
  770TIP3    H2 2275   6.377   3.230   1.543
  771TIP3   OH2 2276   6.472   0.300   4.632
  771TIP3    H1 2277   6.490   0.210   4.661
  771TIP3    H2 2278   6.556   0.333   4.601
  772TIP3   OH2 2279   5.236   5.328   3.856
  772TIP3    H1 2280   5.205   5.239   3.871
  772TIP3    H2 2281   5.325   5.329   3.891
  773TIP3   OH2 2282   2.727   2.043   4.662
  773TIP3    H1 2283   2.822   2.027   4.656
  773TIP3    H2 2284   2.702   2.004   4.746
  774TIP3   OH2 2285   7.190   1.761   1.632
  774TIP3    H1 2286   7.132   1.745   1.706
  774TIP3    H2 2287   7.198   1.675   1.589
  775TIP3   OH2 2288   3.217   6.423   4.269
  775TIP3    H1 2289   3.221   6.401   4.362
  775TIP3    H2 2290   3.171   6.349   4.229
  776TIP3   OH2 2291   3.261   6.290   1.322
  776TIP3    H1 2292   3.312   6.369   1.302
  776TIP3    H2 2293   3.327   6.223   1.339
  777TIP3   OH2 2294   1.491   3.244   5.228
  777TIP3    H1 2295   1.585   3.246   5.209
  777TIP3    H2 2296   1.486   3.207   5.316
  778TIP3   OH2 2297   6.062   5.573   5.639
  778TIP3    H1 2298   6.157   5.585   5.641
  778TIP3    H2 2299   6.038   5.559   5.730
  779TIP3   OH2 2300   0.582   3.364   3.138
  779TIP3    H1 2301   0.571   3.435   3.202
  779TIP3    H2 2302   0.669   3.379   3.101
  780TIP3   OH2 2303   6.357   3.833   0.810
  780TIP3    H1 2304   6.275   3.882   0.805
  780TIP3    H2 2305   6.336   3.754   0.859
  781TIP3   OH2 2306   6.004   6.115   1.599
  781TIP3    H1 2307   5.948   6.148   1.670
  781TIP3    H2 2308   6.062   6.052   1.643
  782TIP3   OH2 2309   3.638   0.629   2.373
  782TIP3    H1 2310   3.691   0.581   2.436
  782TIP3    H2 2311   3.602   0.562   2.315
  783TIP3   OH2 2312   1.174   0.617   1.728
  783TIP3    H1 2313   1.235   0.544   1.712
  783TIP3    H2 2314   1.091   0.587   1.690
  784TIP3   OH2 2315   2.577   3.842   3.020
  784TIP3    H1 2316   2.583   3.915   2.959
  784TIP3    H2 2317   2.486   3.812   3.011
  785TIP3   OH2 2318   7.002   3.034   2.321
  785TIP3    H1 2319   7.063   2.962   2.341
  785TIP3    H2 2320   6.936   3.029   2.390
  786TIP3   OH2 2321   2.782   3.666   0.788
  786TIP3    H1 2322   2.823   3.719   0.720
  786TIP3    H2 2323   2.762   3.582   0.746
  787TIP3   OH2 2324   4.031   6.166   4.383
  787TIP3    H1 2325   4.032   6.210   4.469
  787TIP3    H2 2326   4.081   6.086   4.398
  788TIP3   OH2 2327   6.103   2.203   0.633
  788TIP3    H1 2328   6.102   2.288   0.676
  788TIP3    H2 2329   6.011   2.181   0.620
  789TIP3   OH2 2330   0.381   1.190   5.396
  789TIP3    H1 2331   0.399   1.232   5.481
  789TIP3    H2 2332   0.465   1.153   5.370
  790TIP3   OH2 2333   1.406   5.350   0.204
  790TIP3    H1 2334   1.379   5.370   0.294
  790TIP3    H2 2335   1.366   5.419   0.151
  791TIP3   OH2 2336   0.883   4.593   4.519
  791TIP3    H1 2337   0.895   4.574   4.612
  791TIP3    H2 2338   0.956   4.651   4.498
  792TIP3   OH2 2339   3.795   2.559   2.161
  792TIP3    H1 2340   3.859   2.494   2.133
  792TIP3    H2 2341   3.842   2.642   2.154
  793TIP3   OH2 2342   0.603   4.828   5.550
  793TIP3    H1 2343   0.554   4.823   5.468
  793TIP3    H2 2344   0.573   4.753   5.600
  794TIP3   OH2 2345   2.399   3.925   5.596
  794TIP3    H1 2346   2.351   4.007   5.585
  794TIP3    H2 2347   2.446   3.935   5.678
  795TIP3   OH2 2348   5.815   5.495   5.380
  795TIP3    H1 2349   5.795   5.435   5.451
  795TIP3    H2 2350   5.909   5.486   5.366
  796TIP3   OH2 2351   6.432   5.331   1.504
  796TIP3    H1 2352   6.439   5.350   1.410
  796TIP3    H2 2353   6.483   5.251   1.516
  797TIP3   OH2 2354   5.515   1.413   2.723
  797TIP3    H1 2355   5.607   1.424   2.745
  797TIP3    H2 2356   5.510   1.434   2.630
  798TIP3   OH2 2357   6.800   2.317   5.132
  798TIP3    H1 2358   6.785   2.225   5.152
  798TIP3    H2 2359   6.887   2.319   5.092
  799TIP3   OH2 2360   2.152   5.110   5.699
  799TIP3    H1 2361   2.097   5.187   5.687
  799TIP3    H2 2362   2.110   5.060   5.768
  800TIP3   OH2 2363   0.604   4.932   5.292
  800TIP3    H1 2364   0.597   4.872   5.217
  800TIP3    H2 2365   0.698   4.937   5.310
  801TIP3   OH2 2366   0.527   5.885   5.228
  801TIP3    H1 2367   0.570   5.969   5.247
  801TIP3    H2 2368   0.435   5.901   5.248
  802TIP3   OH2 2369   4.514   2.548   4.202
  802TIP3    H1 2370   4.544   2.478   4.144
  802TIP3    H2 2371   4.549   2.628   4.164
  803TIP3   OH2 2372   2.721   5.734   5.286
  803TIP3    H1 2373   2.803   5.742   5.333
  803TIP3    H2 2374   2.723   5.646   5.248
  804TIP3   OH2 2375   6.196   1.891   2.137
  804TIP3    H1 2376   6.125   1.841   2.178
  804TIP3    H2 2377   6.269   1.830   2.133
  805TIP3   OH2 2378   4.714   1.899   1.047
  805TIP3    H1 2379   4.701   1.988   1.080
  805TIP3    H2 2380   4.797   1.871   1.085
  806TIP3   OH2 2381   3.384   5.017   1.611
  806TIP3    H1 2382   3.430   4.944   1.570
  806TIP3    H2 2383   3.418   5.019   1.700
  807TIP3   OH2 2384   5.196   3.444   2.468
  807TIP3    H1 2385   5.163   3.369   2.420
  807TIP3    H2 2386   5.118   3.484   2.507
  808TIP3   OH2 2387   4.520   5.392   1.346
  808TIP3    H1 2388   4.505   5.317   1.404
  808TIP3    H2 2389   4.506   5.357   1.258
  809TIP3   OH2 2390   6.797   1.280   2.468
  809TIP3    H1 2391   6.768   1.370   2.481
  809TIP3    H2 2392   6.862   1.265   2.536
  810TIP3   OH2 2393   0.917   4.468   1.159
  810TIP3    H1 2394   0.994   4.459   1.216
  810TIP3    H2 2395   0.953   4.497   1.075
  811TIP3   OH2 2396   1.567   6.375   5.460
  811TIP3    H1 2397   1.618   6.385   5.380
  811TIP3    H2 2398   1.488   6.428   5.444
  812TIP3   OH2 2399   0.781   3.368   4.823
  812TIP3    H1 2400   0.750   3.362   4.914
  812TIP3    H2 2401   0.814   3.457   4.815
  813TIP3   OH2 2402   1.113   0.922   0.591
  813TIP3    H1 2403   1.029   0.957   0.619
  813TIP3    H2 2404   1.102   0.827   0.596
  814TIP3   OH2 2405   1.734   3.562   0.761
  814TIP3    H1 2406   1.762   3.591   0.848
  814TIP3    H2 2407   1.670   3.628   0.733
  815TIP3   OH2 2408   1.458   6.421   0.341
  815TIP3    H1 2409   1.542   6.462   0.359
  815TIP3    H2 2410   1.415   6.479   0.278
  816TIP3   OH2 2411   5.859   2.669   2.867
  816TIP3    H1 2412   5.884   2.617   2.791
  816TIP3    H2 2413   5.911   2.749   2.861
  817TIP3   OH2 2414   5.026   1.837   3.944
  817TIP3    H1 2415   4.964   1.846   3.871
  817TIP3    H2 2416   5.065   1.750   3.932
  818TIP3   OH2 2417   0.826   0.613   0.271
  818TIP3    H1 2418   0.904   0.667   0.254
  818TIP3    H2 2419   0.757   0.677   0.292
  819TIP3   OH2 2420   0.081   5.358   4.556
  819TIP3    H1 2421   0.059   5.276   4.512
  819TIP3    H2 2422   0.011   5.419   4.532
  820TIP3   OH2 2423   4.708   4.696   0.567
  820TIP3    H1 2424   4.717   4.789   0.586
  820TIP3    H2 2425   4.718   4.653   0.652
  821TIP3   OH2 2426   6.217   2.054   4.771
  821TIP3    H1 2427   6.186   1.964   4.760
  821TIP3    H2 2428   6.278   2.050   4.844
  822TIP3   OH2 2429   3.938   2.307   2.078
  822TIP3    H1 2430   4.004   2.268   2.021
  822TIP3    H2 2431   3.988   2.351   2.147
  823TIP3   OH2 2432   3.516   4.697   4.825
  823TIP3    H1 2433   3.539   4.732   4.911
  823TIP3    H2 2434   3.424   4.671   4.833
  824TIP3   OH2 2435   4.701   3.599   1.553
  824TIP3    H1 2436   4.763   3.651   1.606
  824TIP3    H2 2437   4.726   3.508   1.570
  825TIP3   OH2 2438   0.078   6.005   1.358
  825TIP3    H1 2439   0.016   6.045   1.297
  825TIP3    H2 2440   0.156   5.987   1.305
  826TIP3   OH2 2441   4.797   4.473   3.477
  826TIP3    H1 2442   4.829   4.530   3.547
  826TIP3    H2 2443   4.838   4.388   3.494
  827TIP3   OH2 2444   2.586   0.625   2.332
  827TIP3    H1 2445   2.663   0.643   2.385
  827TIP3    H2 2446   2.620   0.588   2.251
  828TIP3   OH2 2447   2.967   6.442   1.173
  828TIP3    H1 2448   3.008   6.529   1.175
  828TIP3    H2 2449   3.034   6.384   1.209
  829TIP3   OH2 2450   5.237   1.330   1.898
  829TIP3    H1 2451   5.312   1.288   1.940
  829TIP3    H2 2452   5.273   1.371   1.819
  830TIP3   OH2 2453   0.302   4.108   5.051
  830TIP3    H1 2454   0.211   4.126   5.027
  830TIP3    H2 2455   0.338   4.193   5.075
  831TIP3   OH2 2456   3.663   2.937   5.460
  831TIP3    H1 2457   3.739   2.922   5.403
  831TIP3    H2 2458   3.687   3.012   5.514
  832TIP3   OH2 2459   4.424   4.711   0.668
  832TIP3    H1 2460   4.517   4.689   0.675
  832TIP3    H2 2461   4.378   4.633   0.697
  833TIP3   OH2 2462   6.040   6.298   0.937
  833TIP3    H1 2463   5.955   6.271   0.970
  833TIP3    H2 2464   6.064   6.374   0.989
  834TIP3   OH2 2465   5.033   4.332   2.052
  834TIP3    H1 2466   4.989   4.415   2.070
  834TIP3    H2 2467   4.984   4.294   1.980
  835TIP3   OH2 2468   6.858   4.149   1.808
  835TIP3    H1 2469   6.775   4.176   1.847
  835TIP3    H2 2470   6.906   4.231   1.793
  836TIP3   OH2 2471   0.733   6.400   1.531
  836TIP3    H1 2472   0.702   6.350   1.456
  836TIP3    H2 2473   0.658   6.406   1.590
  837TIP3   OH2 2474   2.034   3.815   1.066
  837TIP3    H1 2475   2.055   3.897   1.022
  837TIP3    H2 2476   2.106   3.801   1.128
  838TIP3   OH2 2477   3.823   0.231   0.606
  838TIP3    H1 2478   3.870   0.286   0.669
  838TIP3    H2 2479   3.759   0.183   0.659
  839TIP3   OH2 2480   3.513   3.193   1.738
  839TIP3    H1 2481   3.574   3.213   1.809
  839TIP3    H2 2482   3.442   3.144   1.780
  840TIP3   OH2 2483   5.358   5.466   2.306
  840TIP3    H1 2484   5.319   5.427   2.227
  840TIP3    H2 2485   5.283   5.480   2.364
  841TIP3   OH2 2486   2.726   4.773   0.634
  841TIP3    H1 2487   2.813   4.814   0.632
  841TIP3    H2 2488   2.733   4.705   0.700
  842TIP3   OH2 2489   7.171   5.600   1.320
  842TIP3    H1 2490   7.244   5.642   1.273
  842TIP3    H2 2491   7.192   5.613   1.413
  843TIP3   OH2 2492   5.958   0.464   3.389
  843TIP3    H1 2493   5.890   0.414   3.434
  843TIP3    H2 2494   5.931   0.556   3.399
  844TIP3   OH2 2495   3.619   2.610   5.265
  844TIP3    H1 2496   3.686   2.543   5.250
  844TIP3    H2 2497   3.625   2.667   5.188
  845TIP3   OH2 2498   6.122   0.035   3.489
  845TIP3    H1 2499   6.099  -0.043   3.438
  845TIP3    H2 2500   6.158   0.000   3.571
  846TIP3   OH2 2501   2.731   0.607   1.295
  846TIP3    H1 2502   2.807   0.603   1.237
  846TIP3    H2 2503   2.767   0.620   1.382
  847TIP3   OH2 2504   5.780   5.051   5.155
  847TIP3    H1 2505   5.722   5.083   5.224
  847TIP3    H2 2506   5.801   5.129   5.103
  848TIP3   OH2 2507   0.320   5.740   2.047
  848TIP3    H1 2508   0.380   5.776   2.112
  848TIP3    H2 2509   0.274   5.817   2.012
  849TIP3   OH2 2510   1.802   3.151   4.475
  849TIP3    H1 2511   1.720   3.182   4.435
  849TIP3    H2 2512   1.780   3.067   4.514
  850TIP3   OH2 2513   6.123   0.364   1.897
  850TIP3    H1 2514   6.089   0.414   1.971
  850TIP3    H2 2515   6.216   0.353   1.916
  851TIP3   OH2 2516   1.267   3.895   0.346
  851TIP3    H1 2517   1.313   3.814   0.367
  851TIP3    H2 2518   1.175   3.869   0.340
  852TIP3   OH2 2519   0.140   2.189   1.652
  852TIP3    H1 2520   0.193   2.240   1.713
  852TIP3    H2 2521   0.089   2.130   1.707
  853TIP3   OH2 2522   4.732   4.691   0.162
  853TIP3    H1 2523   4.815   4.676   0.208
  853TIP3    H2 2524   4.672   4.627   0.199
  854TIP3   OH2 2525   5.874   6.114   3.023
  854TIP3    H1 2526   5.916   6.068   3.096
  854TIP3    H2 2527   5.860   6.203   3.056
  855TIP3   OH2 2528   1.130   6.242   1.567
  855TIP3    H1 2529   1.176   6.323   1.547
  855TIP3    H2 2530   1.160   6.180   1.501
  856TIP3   OH2 2531   4.293   6.393   0.968
  856TIP3    H1 2532   4.200   6.376   0.980
  856TIP3    H2 2533   4.327   6.315   0.925
  857TIP3   OH2 2534   5.151   6.021   0.956
  857TIP3    H1 2535   5.135   5.990   0.867
  857TIP3    H2 2536   5.245   6.039   0.959
  858TIP3   OH2 2537   2.440   4.388   0.176
  858TIP3    H1 2538   2.525   4.383   0.132
  858TIP3    H2 2539   2.408   4.297   0.176
  859TIP3   OH2 2540   0.260   1.589   5.147
  859TIP3    H1 2541   0.292   1.499   5.138
  859TIP3    H2 2542   0.334   1.637   5.183
  860TIP3   OH2 2543   2.094   3.433   4.397
  860TIP3    H1 2544   2.178   3.475   4.380
  860TIP3    H2 2545   2.086   3.432   4.492
  861TIP3   OH2 2546   2.346   4.766   3.445
  861TIP3    H1 2547   2.382   4.820   3.375
  861TIP3    H2 2548   2.355   4.676   3.414
  862TIP3   OH2 2549   2.831   1.009   1.560
  862TIP3    H1 2550   2.921   0.988   1.582
  862TIP3    H2 2551   2.826   1.104   1.570
  863TIP3   OH2 2552   4.471   5.309   2.540
  863TIP3    H1 2553   4.377   5.306   2.558
  863TIP3    H2 2554   4.507   5.234   2.587
  864TIP3   OH2 2555   1.253   1.147   0.531
  864TIP3    H1 2556   1.298   1.148   0.616
  864TIP3    H2 2557   1.216   1.059   0.526
  865TIP3   OH2 2558   6.803   6.328   4.318
  865TIP3    H1 2559   6.753   6.246   4.318
  865TIP3    H2 2560   6.778   6.370   4.400
  866TIP3   OH2 2561   7.111   1.744   4.512
  866TIP3    H1 2562   7.126   1.717   4.602
  866TIP3    H2 2563   7.146   1.833   4.506
  867TIP3   OH2 2564   0.478   2.127   1.005
  867TIP3    H1 2565   0.558   2.122   1.057
  867TIP3    H2 2566   0.482   2.213   0.963
  868TIP3   OH2 2567   4.658   6.540   3.485
  868TIP3    H1 2568   4.653   6.449   3.517
  868TIP3    H2 2569   4.743   6.545   3.441
  869TIP3   OH2 2570   0.736   1.443   0.783
  869TIP3    H1 2571   0.648   1.463   0.750
  869TIP3    H2 2572   0.724   1.369   0.842
  870TIP3   OH2 2573   0.204   3.380   1.895
  870TIP3    H1 2574   0.159   3.420   1.970
  870TIP3    H2 2575   0.297   3.395   1.912
  871TIP3   OH2 2576   4.767   1.474   2.957
  871TIP3    H1 2577   4.856   1.454   2.986
  871TIP3    H2 2578   4.750   1.411   2.887
  872TIP3   OH2 2579   6.754   6.275   0.927
  872TIP3    H1 2580   6.774   6.226   1.007
  872TIP3    H2 2581   6.751   6.208   0.859
  873TIP3   OH2 2582   6.861   6.474   0.757
  873TIP3    H1 2583   6.807   6.420   0.814
  873TIP3    H2 2584   6.801   6.505   0.689
  874TIP3   OH2 2585   4.731   1.749   2.337
  874TIP3    H1 2586   4.673   1.761   2.412
  874TIP3    H2 2587   4.818   1.737   2.376
  875TIP3   OH2 2588   3.107   0.766   5.538
  875TIP3    H1 2589   3.075   0.680   5.510
  875TIP3    H2 2590   3.053   0.828   5.489
  876TIP3   OH2 2591   0.566   0.207   3.499
  876TIP3    H1 2592   0.474   0.193   3.478
  876TIP3    H2 2593   0.613   0.191   3.417
  877TIP3   OH2 2594   3.247   2.433   1.436
  877TIP3    H1 2595   3.163   2.387   1.448
  877TIP3    H2 2596   3.301   2.402   1.509
  878TIP3   OH2 2597   6.762   0.818   3.228
  878TIP3    H1 2598   6.758   0.905   3.189
  878TIP3    H2 2599   6.722   0.761   3.162
  879TIP3   OH2 2600   6.284   6.107   0.482
  879TIP3    H1 2601   6.258   6.096   0.574
  879TIP3    H2 2602   6.234   6.041   0.435
  880TIP3   OH2 2603   4.175   1.989   4.324
  880TIP3    H1 2604   4.139   1.900   4.327
  880TIP3    H2 2605   4.150   2.028   4.408
  881TIP3   OH2 2606   3.609   2.358   2.537
  881TIP3    H1 2607   3.656   2.427   2.491
  881TIP3    H2 2608   3.545   2.326   2.474
  882TIP3   OH2 2609   4.977   3.281   3.327
  882TIP3    H1 2610   5.005   3.279   3.419
  882TIP3    H2 2611   4.937   3.367   3.316
  883TIP3   OH2 2612   4.552   0.694   4.559
  883TIP3    H1 2613   4.504   0.628   4.509
  883TIP3    H2 2614   4.626   0.646   4.596
  884TIP3   OH2 2615   2.575   5.388   5.809
  884TIP3    H1 2616   2.556   5.341   5.728
  884TIP3    H2 2617   2.501   5.368   5.866
  885TIP3   OH2 2618   2.524   4.428   1.834
  885TIP3    H1 2619   2.562   4.448   1.919
  885TIP3    H2 2620   2.438   4.470   1.835
  886TIP3   OH2 2621   3.273   1.666   2.803
  886TIP3    H1 2622   3.307   1.606   2.869
  886TIP3    H2 2623   3.351   1.701   2.761
  887TIP3   OH2 2624   3.336   1.567   1.223
  887TIP3    H1 2625   3.293   1.546   1.307
  887TIP3    H2 2626   3.268   1.554   1.157
  888TIP3   OH2 2627   1.083   4.814   0.939
  888TIP3    H1 2628   1.025   4.882   0.973
  888TIP3    H2 2629   1.044   4.789   0.855
  889TIP3   OH2 2630   0.027   0.952   5.349
  889TIP3    H1 2631  -0.055   0.992   5.377
  889TIP3    H2 2632   0.084   0.957   5.426
  890TIP3   OH2 2633   5.878   1.036   5.817
  890TIP3    H1 2634   5.899   0.977   5.745
  890TIP3    H2 2635   5.831   0.980   5.880
  891TIP3   OH2 2636   5.481   5.894   2.393
  891TIP3    H1 2637   5.434   5.830   2.447
  891TIP3    H2 2638   5.528   5.841   2.329
  892TIP3   OH2 2639   4.327   0.455   5.541
  892TIP3    H1 2640   4.407   0.404   5.536
  892TIP3    H2 2641   4.267   0.401   5.593
  893TIP3   OH2 2642   0.420   4.943   4.978
  893TIP3    H1 2643   0.396   5.029   5.012
  893TIP3    H2 2644   0.389   4.882   5.045
  894TIP3   OH2 2645   0.969   2.694   4.935
  894TIP3    H1 2646   0.927   2.624   4.985
  894TIP3    H2 2647   1.022   2.741   5.000
  895TIP3   OH2 2648   1.113   2.351   3.045
  895TIP3    H1 2649   1.039   2.330   2.987
  895TIP3    H2 2650   1.103   2.444   3.064
  896TIP3   OH2 2651   6.101   3.668   2.867
  896TIP3    H1 2652   6.019   3.630   2.837
  896TIP3    H2 2653   6.124   3.732   2.800
  897TIP3   OH2 2654   6.855   1.452   4.294
  897TIP3    H1 2655   6.936   1.492   4.262
  897TIP3    H2 2656   6.851   1.475   4.387
  898TIP3   OH2 2657   5.635   5.150   1.047
  898TIP3    H1 2658   5.698   5.092   1.090
  898TIP3    H2 2659   5.567   5.164   1.113
  899TIP3   OH2 2660   3.721   2.316   1.430
  899TIP3    H1 2661   3.741   2.387   1.490
  899TIP3    H2 2662   3.636   2.283   1.461
  900TIP3   OH2 2663   5.592   6.666   0.609
  900TIP3    H1 2664   5.680   6.660   0.572
  900TIP3    H2 2665   5.607   6.698   0.698
  901TIP3   OH2 2666   5.034   1.824   2.983
  901TIP3    H1 2667   5.079   1.846   2.901
  901TIP3    H2 2668   5.104   1.794   3.041
  902TIP3   OH2 2669   1.507   0.297   3.054
  902TIP3    H1 2670   1.550   0.236   3.115
  902TIP3    H2 2671   1.529   0.384   3.089
  903TIP3   OH2 2672   0.847   2.179   0.864
  903TIP3    H1 2673   0.774   2.194   0.803
  903TIP3    H2 2674   0.806   2.170   0.950
  904TIP3   OH2 2675   4.065   5.019   5.273
  904TIP3    H1 2676   4.040   5.088   5.211
  904TIP3    H2 2677   3.982   4.986   5.307
  905TIP3   OH2 2678   2.390   3.514   3.836
  905TIP3    H1 2679   2.470   3.467   3.813
  905TIP3    H2 2680   2.319   3.460   3.799
  906TIP3   OH2 2681   1.554   6.055   1.519
  906TIP3    H1 2682   1.629   6.023   1.568
  906TIP3    H2 2683   1.478   6.014   1.562
  907TIP3   OH2 2684   3.756   1.432   0.747
  907TIP3    H1 2685   3.736   1.518   0.709
  907TIP3    H2 2686   3.700   1.426   0.824
  908TIP3   OH2 2687   4.486   4.977   4.395
  908TIP3    H1 2688   4.536   5.023   4.463
  908TIP3    H2 2689   4.396   4.975   4.429
  909TIP3   OH2 2690   7.012   5.731   2.720
  909TIP3    H1 2691   6.938   5.671   2.710
  909TIP3    H2 2692   6.994   5.778   2.801
  910TIP3   OH2 2693   6.121   0.345   5.177
  910TIP3    H1 2694   6.211   0.357   5.146
  910TIP3    H2 2695   6.101   0.427   5.222
  911TIP3   OH2 2696   6.807   3.721   3.599
  911TIP3    H1 2697   6.725   3.696   3.640
  911TIP3    H2 2698   6.875   3.690   3.659
  912TIP3   OH2 2699   4.420   6.646   3.369
  912TIP3    H1 2700   4.471   6.721   3.340
  912TIP3    H2 2701   4.472   6.607   3.438
  913TIP3   OH2 2702   0.110   1.946   2.101
  913TIP3    H1 2703   0.140   1.870   2.151
  913TIP3    H2 2704   0.022   1.922   2.073
  914TIP3   OH2 2705   5.988   1.353   1.435
  914TIP3    H1 2706   6.040   1.410   1.491
  914TIP3    H2 2707   6.051   1.290   1.401
  915TIP3   OH2 2708   5.902   1.472   3.470
  915TIP3    H1 2709   5.886   1.381   3.493
  915TIP3    H2 2710   5.841   1.522   3.524
  916TIP3   OH2 2711   2.225   0.389   1.336
  916TIP3    H1 2712   2.271   0.306   1.346
  916TIP3    H2 2713   2.277   0.438   1.272
  917TIP3   OH2 2714   4.899   0.175   4.638
  917TIP3    H1 2715   4.887   0.187   4.732
  917TIP3    H2 2716   4.949   0.094   4.630
  918TIP3   OH2 2717   4.200   5.553   5.386
  918TIP3    H1 2718   4.259   5.621   5.418
  918TIP3    H2 2719   4.149   5.527   5.463
  919TIP3   OH2 2720   0.661   0.053   3.850
  919TIP3    H1 2721   0.677  -0.023   3.906
  919TIP3    H2 2722   0.678   0.129   3.906
  920TIP3   OH2 2723   6.582   2.496   4.223
  920TIP3    H1 2724   6.579   2.509   4.128
  920TIP3    H2 2725   6.580   2.400   4.234
  921TIP3   OH2 2726   6.392   5.623   3.673
  921TIP3    H1 2727   6.365   5.575   3.595
  921TIP3    H2 2728   6.312   5.634   3.723
  922TIP3   OH2 2729   2.177   5.263   0.422
  922TIP3    H1 2730   2.223   5.179   0.426
  922TIP3    H2 2731   2.085   5.241   0.437
  923TIP3   OH2 2732   1.685   2.029   3.719
  923TIP3    H1 2733   1.724   2.001   3.637
  923TIP3    H2 2734   1.696   1.955   3.778
  924TIP3   OH2 2735   6.116   3.275   0.668
  924TIP3    H1 2736   6.102   3.192   0.714
  924TIP3    H2 2737   6.056   3.336   0.712
  925TIP3   OH2 2738   7.089   0.240   0.306
  925TIP3    H1 2739   7.184   0.237   0.313
  925TIP3    H2 2740   7.064   0.152   0.279
  926TIP3   OH2 2741   5.706   4.368   0.342
  926TIP3    H1 2742   5.689   4.419   0.263
  926TIP3    H2 2743   5.801   4.356   0.343
  927TIP3   OH2 2744   6.788   1.263   1.185
  927TIP3    H1 2745   6.834   1.245   1.103
  927TIP3    H2 2746   6.858   1.262   1.251
  928TIP3   OH2 2747   0.948   1.587   2.345
  928TIP3    H1 2748   1.012   1.610   2.412
  928TIP3    H2 2749   0.863   1.604   2.387
  929TIP3   OH2 2750   2.334   5.366   0.078
  929TIP3    H1 2751   2.300   5.420   0.149
  929TIP3    H2 2752   2.285   5.394   0.000
  930TIP3   OH2 2753   5.411   4.085   0.152
  930TIP3    H1 2754   5.393   4.129   0.069
  930TIP3    H2 2755   5.354   4.009   0.152
  931TIP3   OH2 2756   5.868   3.053   4.029
  931TIP3    H1 2757   5.825   3.102   3.958
  931TIP3    H2 2758   5.820   3.080   4.108
  932TIP3   OH2 2759   4.427   2.909   3.406
  932TIP3    H1 2760   4.377   2.829   3.394
  932TIP3    H2 2761   4.503   2.899   3.348
  933TIP3   OH2 2762   2.592   3.085   3.873
  933TIP3    H1 2763   2.656   3.016   3.890
  933TIP3    H2 2764   2.528   3.076   3.943
  934TIP3   OH2 2765   0.710   0.597   2.984
  934TIP3    H1 2766   0.711   0.657   2.909
  934TIP3    H2 2767   0.778   0.533   2.965
  935TIP3   OH2 2768   5.374   4.199   5.358
  935TIP3    H1 2769   5.463   4.220   5.332
  935TIP3    H2 2770   5.373   4.212   5.453
  936TIP3   OH2 2771   4.310   4.666   4.560
  936TIP3    H1 2772   4.240   4.721   4.596
  936TIP3    H2 2773   4.291   4.662   4.466
  937TIP3   OH2 2774   6.619   5.126   2.329
  937TIP3    H1 2775   6.676   5.189   2.373
  937TIP3    H2 2776   6.669   5.045   2.329
  938TIP3   OH2 2777   1.265   2.205   3.262
  938TIP3    H1 2778   1.340   2.265   3.254
  938TIP3    H2 2779   1.203   2.235   3.196
  939TIP3   OH2 2780   2.121   2.870   2.525
  939TIP3    H1 2781   2.157   2.856   2.612
  939TIP3    H2 2782   2.026   2.878   2.539
  940TIP3   OH2 2783   6.310   6.359   1.471
  940TIP3    H1 2784   6.390   6.348   1.420
  940TIP3    H2 2785   6.247   6.300   1.430
  941TIP3   OH2 2786   3.190   0.683   3.477
  941TIP3    H1 2787   3.132   0.754   3.450
  941TIP3    H2 2788   3.151   0.651   3.559
  942TIP3   OH2 2789   2.392   0.599   3.859
  942TIP3    H1 2790   2.336   0.675   3.843
  942TIP3    H2 2791   2.347   0.526   3.816
  943TIP3   OH2 2792   2.463   4.598   0.330
  943TIP3    H1 2793   2.555   4.584   0.353
  943TIP3    H2 2794   2.446   4.537   0.258
  944TIP3   OH2 2795   6.775   0.001   2.751
  944TIP3    H1 2796   6.798  -0.068   2.814
  944TIP3    H2 2797   6.681   0.011   2.760
  945TIP3   OH2 2798   0.924   5.176   1.066
  945TIP3    H1 2799   0.980   5.249   1.092
  945TIP3    H2 2800   0.845   5.187   1.119
  946TIP3   OH2 2801   0.360   0.621   3.190
  946TIP3    H1 2802   0.274   0.578   3.187
  946TIP3    H2 2803   0.352   0.694   3.128
  947TIP3   OH2 2804   0.894   4.974   0.762
  947TIP3    H1 2805   0.856   4.964   0.849
  947TIP3    H2 2806   0.823   4.954   0.702
  948TIP3   OH2 2807   3.247   0.805   4.595
  948TIP3    H1 2808   3.309   0.735   4.576
  948TIP3    H2 2809   3.283   0.849   4.672
  949TIP3   OH2 2810   5.030   6.399   2.420
  949TIP3    H1 2811   5.067   6.373   2.505
  949TIP3    H2 2812   4.941   6.365   2.422
  950TIP3   OH2 2813   6.880   5.184   5.655
  950TIP3    H1 2814   6.900   5.191   5.748
  950TIP3    H2 2815   6.819   5.255   5.638
  951TIP3   OH2 2816   5.162   2.235   3.500
  951TIP3    H1 2817   5.212   2.206   3.423
  951TIP3    H2 2818   5.088   2.283   3.464
  952TIP3   OH2 2819   1.433   2.891   1.064
  952TIP3    H1 2820   1.478   2.812   1.035
  952TIP3    H2 2821   1.364   2.859   1.123
  953TIP3   OH2 2822   6.521   4.290   4.525
  953TIP3    H1 2823   6.519   4.262   4.616
  953TIP3    H2 2824   6.514   4.385   4.529
  954TIP3   OH2 2825   1.717   1.906   4.602
  954TIP3    H1 2826   1.681   1.937   4.519
  954TIP3    H2 2827   1.738   1.986   4.650
  955TIP3   OH2 2828   3.079   0.306   2.064
  955TIP3    H1 2829   3.140   0.340   2.129
  955TIP3    H2 2830   3.132   0.246   2.011
  956TIP3   OH2 2831   5.044   3.463   1.124
  956TIP3    H1 2832   4.949   3.458   1.124
  956TIP3    H2 2833   5.064   3.536   1.065
  957TIP3   OH2 2834   0.325   3.113   4.541
  957TIP3    H1 2835   0.414   3.077   4.547
  957TIP3    H2 2836   0.285   3.067   4.467
  958TIP3   OH2 2837   4.966   5.281   4.671
  958TIP3    H1 2838   5.013   5.357   4.638
  958TIP3    H2 2839   4.906   5.316   4.737
  959TIP3   OH2 2840   7.164   0.624   0.267
  959TIP3    H1 2841   7.136   0.608   0.177
  959TIP3    H2 2842   7.082   0.635   0.315
  960TIP3   OH2 2843   1.287   0.035   1.005
  960TIP3    H1 2844   1.231   0.108   0.977
  960TIP3    H2 2845   1.324   0.001   0.924
  961TIP3   OH2 2846   3.488   6.320   4.503
  961TIP3    H1 2847   3.568   6.319   4.451
  961TIP3    H2 2848   3.501   6.253   4.570
  962TIP3   OH2 2849   6.430   0.772   1.571
  962TIP3    H1 2850   6.363   0.840   1.571
  962TIP3    H2 2851   6.441   0.749   1.479
  963TIP3   OH2 2852   0.284   1.169   1.051
  963TIP3    H1 2853   0.213   1.228   1.028
  963TIP3    H2 2854   0.259   1.133   1.136
  964TIP3   OH2 2855   5.801   2.153   4.270
  964TIP3    H1 2856   5.803   2.101   4.190
  964TIP3    H2 2857   5.806   2.089   4.341
  965TIP3   OH2 2858   4.981   3.247   5.297
  965TIP3    H1 2859   4.958   3.154   5.299
  965TIP3    H2 2860   4.932   3.286   5.369
  966TIP3   OH2 2861   1.919   0.042   1.812
  966TIP3    H1 2862   1.980   0.071   1.879
  966TIP3    H2 2863   1.973  -0.007   1.750
  967TIP3   OH2 2864   3.554   4.379   2.256
  967TIP3    H1 2865   3.522   4.320   2.324
  967TIP3    H2 2866   3.558   4.326   2.177
  968TIP3   OH2 2867   3.569   4.066   4.389
  968TIP3    H1 2868   3.636   4.026   4.444
  968TIP3    H2 2869   3.578   4.160   4.405
  969TIP3   OH2 2870   5.864   2.022   4.028
  969TIP3    H1 2871   5.841   2.091   3.965
  969TIP3    H2 2872   5.832   1.941   3.987
  970TIP3   OH2 2873   1.092   5.869   4.144
  970TIP3    H1 2874   1.164   5.909   4.093
  970TIP3    H2 2875   1.083   5.781   4.107
  971TIP3   OH2 2876   3.736   6.397   4.375
  971TIP3    H1 2877   3.729   6.436   4.462
  971TIP3    H2 2878   3.814   6.437   4.337
  972TIP3   OH2 2879   6.788   5.846   4.840
  972TIP3    H1 2880   6.807   5.790   4.765
  972TIP3    H2 2881   6.867   5.900   4.850
  973TIP3   OH2 2882   4.647   1.810   1.458
  973TIP3    H1 2883   4.658   1.811   1.553
  973TIP3    H2 2884   4.734   1.791   1.423
  974TIP3   OH2 2885   5.181   3.285   2.128
  974TIP3    H1 2886   5.168   3.375   2.158
  974TIP3    H2 2887   5.149   3.230   2.200
  975TIP3   OH2 2888   0.542   2.819   3.038
  975TIP3    H1 2889   0.537   2.915   3.041
  975TIP3    H2 2890   0.624   2.801   2.993
  976TIP3   OH2 2891   4.626   3.023   2.321
  976TIP3    H1 2892   4.626   3.080   2.244
  976TIP3    H2 2893   4.583   3.075   2.389
  977TIP3   OH2 2894   1.246   3.939   5.056
  977TIP3    H1 2895   1.271   3.863   5.004
  977TIP3    H2 2896   1.248   4.013   4.995
  978TIP3   OH2 2897   0.339   0.650   3.778
  978TIP3    H1 2898   0.330   0.720   3.843
  978TIP3    H2 2899   0.331   0.694   3.694
  979TIP3   OH2 2900   1.898   3.050   1.149
  979TIP3    H1 2901   1.923   2.959   1.158
  979TIP3    H2 2902   1.804   3.048   1.134
  980TIP3   OH2 2903   5.144   0.924   5.086
  980TIP3    H1 2904   5.085   0.902   5.013
  980TIP3    H2 2905   5.149   1.019   5.084
  981TIP3   OH2 2906   2.611   3.305   4.930
  981TIP3    H1 2907   2.634   3.272   5.017
  981TIP3    H2 2908   2.520   3.330   4.938
  982TIP3   OH2 2909   0.481   0.035   5.698
  982TIP3    H1 2910   0.487  -0.057   5.722
  982TIP3    H2 2911   0.454   0.034   5.606
  983TIP3   OH2 2912   0.897   5.747   0.897
  983TIP3    H1 2913   0.986   5.748   0.934
  983TIP3    H2 2914   0.866   5.658   0.913
  984TIP3   OH2 2915   5.204   1.258   3.509
  984TIP3    H1 2916   5.153   1.205   3.569
  984TIP3    H2 2917   5.168   1.238   3.423
  985TIP3   OH2 2918   2.756   3.203   0.209
  985TIP3    H1 2919   2.843   3.207   0.168
  985TIP3    H2 2920   2.696   3.230   0.141
  986TIP3   OH2 2921   0.178   3.961   0.116
  986TIP3    H1 2922   0.251   4.006   0.072
  986TIP3    H2 2923   0.120   3.936   0.044
  987TIP3   OH2 2924   6.920   5.258   5.336
  987TIP3    H1 2925   6.959   5.257   5.248
  987TIP3    H2 2926   6.963   5.186   5.382
  988TIP3   OH2 2927   6.040   2.226   4.903
  988TIP3    H1 2928   6.123   2.232   4.856
  988TIP3    H2 2929   6.018   2.317   4.924
  989TIP3   OH2 2930   5.670   2.762   2.071
  989TIP3    H1 2931   5.629   2.810   2.144
  989TIP3    H2 2932   5.705   2.831   2.014
  990TIP3   OH2 2933   1.984   5.088   2.677
  990TIP3    H1 2934   1.921   5.061   2.609
  990TIP3    H2 2935   1.940   5.160   2.723
  991TIP3   OH2 2936   2.763   4.804  -0.006
  991TIP3    H1 2937   2.761   4.884  -0.058
  991TIP3    H2 2938   2.820   4.825   0.068
  992TIP3   OH2 2939   2.663   0.241   3.001
  992TIP3    H1 2940   2.668   0.336   2.986
  992TIP3    H2 2941   2.631   0.205   2.919
  993TIP3   OH2 2942   2.409   1.129   1.776
  993TIP3    H1 2943   2.483   1.121   1.837
  993TIP3    H2 2944   2.380   1.220   1.786
  994TIP3   OH2 2945   6.740   1.165   5.377
  994TIP3    H1 2946   6.719   1.256   5.353
  994TIP3    H2 2947   6.673   1.141   5.440
  995TIP3   OH2 2948   3.672   1.091   3.648
  995TIP3    H1 2949   3.611   1.065   3.579
  995TIP3    H2 2950   3.652   1.032   3.721
  996TIP3   OH2 2951   5.499   3.682   0.280
  996TIP3    H1 2952   5.458   3.729   0.207
  996TIP3    H2 2953   5.429   3.628   0.316
  997TIP3   OH2 2954   1.457   2.461   5.649
  997TIP3    H1 2955   1.365   2.474   5.625
  997TIP3    H2 2956   1.492   2.404   5.581
  998TIP3   OH2 2957   4.744   6.456   4.730
  998TIP3    H1 2958   4.792   6.500   4.661
  998TIP3    H2 2959   4.751   6.516   4.805
  999TIP3   OH2 2960   6.205   6.541   1.026
  999TIP3    H1 2961   6.264   6.587   1.086
  999TIP3    H2 2962   6.125   6.595   1.025
 1000TIP3   OH2 2963   2.623   1.713   2.688
 1000TIP3    H1 2964   2.643   1.806   2.687
 1000TIP3    H2 2965   2.532   1.708   2.658
 1001TIP3   OH2 2966   6.357   4.983   2.252
 1001TIP3    H1 2967   6.444   5.018   2.270
 1001TIP3    H2 2968   6.327   4.949   2.336
 1002TIP3   OH2 2969   7.088   0.934   4.924
 1002TIP3    H1 2970   7.040   0.906   4.846
 1002TIP3    H2 2971   7.064   1.026   4.936
 1003TIP3   OH2 2972   1.151   6.736   4.966
 1003TIP3    H1 2973   1.085   6.698   4.908
 1003TIP3    H2 2974   1.130   6.830   4.968
 1004TIP3   OH2 2975   5.884   4.172   0.014
 1004TIP3    H1 2976   5.938   4.248   0.033
 1004TIP3    H2 2977   5.820   4.203  -0.051
 1005TIP3   OH2 2978   1.300   3.515   5.829
 1005TIP3    H1 2979   1.302   3.428   5.790
 1005TIP3    H2 2980   1.392   3.534   5.849
 1006TIP3   OH2 2981   2.510   2.921   5.701
 1006TIP3    H1 2982   2.596   2.880   5.707
 1006TIP3    H2 2983   2.527   3.010   5.670
 1007TIP3   OH2 2984   5.050   4.927   0.342
 1007TIP3    H1 2985   5.056   4.952   0.434
 1007TIP3    H2 2986   4.959   4.897   0.332
 1008TIP3   OH2 2987   2.713   1.561   0.975
 1008TIP3    H1 2988   2.631   1.604   0.950
 1008TIP3    H2 2989   2.726   1.587   1.066
 1009TIP3   OH2 2990   3.933   6.073   3.195
 1009TIP3    H1 2991   3.898   6.145   3.142
 1009TIP3    H2 2992   3.873   6.000   3.181
 1010TIP3   OH2 2993   5.757   6.309   3.613
 1010TIP3    H1 2994   5.700   6.244   3.654
 1010TIP3    H2 2995   5.840   6.263   3.601
 1011TIP3   OH2 2996   6.860   6.522   4.874
 1011TIP3    H1 2997   6.865   6.618   4.876
 1011TIP3    H2 2998   6.766   6.503   4.880
 1012TIP3   OH2 2999   0.138   6.084   2.632
 1012TIP3    H1 3000   0.199   6.015   2.657
 1012TIP3    H2 3001   0.075   6.087   2.704
 1013TIP3   OH2 3002   1.081   0.623   4.213
 1013TIP3    H1 3003   1.113   0.587   4.130
 1013TIP3    H2 3004   0.994   0.656   4.192
 1014TIP3   OH2 3005   6.456   4.736   1.077
 1014TIP3    H1 3006   6.502   4.653   1.079
 1014TIP3    H2 3007   6.509   4.793   1.022
 1015TIP3   OH2 3008   0.111   0.750   1.045
 1015TIP3    H1 3009   0.043   0.683   1.047
 1015TIP3    H2 3010   0.132   0.759   0.952
 1016TIP3   OH2 3011   4.202   2.018   2.543
 1016TIP3    H1 3012   4.183   1.936   2.589
 1016TIP3    H2 3013   4.179   2.087   2.606
 1017TIP3   OH2 3014   7.063   3.963   3.623
 1017TIP3    H1 3015   7.143   4.008   3.597
 1017TIP3    H2 3016   7.018   3.945   3.540
 1018TIP3   OH2 3017   2.712   6.237   2.227
 1018TIP3    H1 3018   2.640   6.226   2.166
 1018TIP3    H2 3019   2.672   6.276   2.305
 1019TIP3   OH2 3020   5.878   1.821   0.508
 1019TIP3    H1 3021   5.854   1.732   0.485
 1019TIP3    H2 3022   5.876   1.869   0.425
 1020TIP3   OH2 3023   6.976   2.552   0.696
 1020TIP3    H1 3024   7.034   2.534   0.621
 1020TIP3    H2 3025   7.024   2.519   0.772
 1021TIP3   OH2 3026   4.545   3.106   2.071
 1021TIP3    H1 3027   4.487   3.049   2.020
 1021TIP3    H2 3028   4.487   3.167   2.115
 1022TIP3   OH2 3029   3.947   1.372   1.951
 1022TIP3    H1 3030   3.873   1.427   1.974
 1022TIP3    H2 3031   4.019   1.433   1.937
 1023TIP3   OH2 3032   3.835   4.977   2.533
 1023TIP3    H1 3033   3.886   4.914   2.584
 1023TIP3    H2 3034   3.769   4.924   2.489
 1024TIP3   OH2 3035   1.721   1.480   5.923
 1024TIP3    H1 3036   1.646   1.498   5.867
 1024TIP3    H2 3037   1.768   1.563   5.927
 1025TIP3   OH2 3038   2.519   4.260   1.592
 1025TIP3    H1 3039   2.504   4.303   1.676
 1025TIP3    H2 3040   2.522   4.167   1.613
 1026TIP3   OH2 3041   1.936   0.593   3.789
 1026TIP3    H1 3042   2.007   0.541   3.826
 1026TIP3    H2 3043   1.916   0.658   3.857
 1027TIP3   OH2 3044   1.411   2.780   1.516
 1027TIP3    H1 3045   1.399   2.874   1.524
 1027TIP3    H2 3046   1.503   2.766   1.540
 1028TIP3   OH2 3047   2.902   1.768   4.411
 1028TIP3    H1 3048   2.849   1.690   4.391
 1028TIP3    H2 3049   2.989   1.746   4.376
 1029TIP3   OH2 3050   1.496   6.003   3.581
 1029TIP3    H1 3051   1.435   5.929   3.584
 1029TIP3    H2 3052   1.451   6.072   3.629
 1030TIP3   OH2 3053   6.881   3.472   2.796
 1030TIP3    H1 3054   6.923   3.558   2.788
 1030TIP3    H2 3055   6.819   3.469   2.723
 1031TIP3   OH2 3056   0.888   5.568   2.499
 1031TIP3    H1 3057   0.939   5.620   2.437
 1031TIP3    H2 3058   0.811   5.622   2.518
 1032TIP3   OH2 3059   4.291   4.536   0.997
 1032TIP3    H1 3060   4.270   4.530   0.904
 1032TIP3    H2 3061   4.307   4.629   1.012
 1033TIP3   OH2 3062   1.270   5.498   3.140
 1033TIP3    H1 3063   1.224   5.421   3.173
 1033TIP3    H2 3064   1.334   5.520   3.207
 1034TIP3   OH2 3065   1.733   3.872   0.006
 1034TIP3    H1 3066   1.672   3.910   0.070
 1034TIP3    H2 3067   1.818   3.908   0.030
 1035TIP3   OH2 3068   4.971   2.601   1.381
 1035TIP3    H1 3069   4.975   2.651   1.299
 1035TIP3    H2 3070   4.962   2.668   1.449
 1036TIP3   OH2 3071   2.507   3.784   4.296
 1036TIP3    H1 3072   2.469   3.847   4.235
 1036TIP3    H2 3073   2.599   3.778   4.270
 1037TIP3   OH2 3074   0.830   1.582   1.216
 1037TIP3    H1 3075   0.880   1.656   1.251
 1037TIP3    H2 3076   0.885   1.547   1.147
 1038TIP3   OH2 3077   0.871   2.765   3.678
 1038TIP3    H1 3078   0.804   2.767   3.610
 1038TIP3    H2 3079   0.856   2.845   3.729
 1039TIP3   OH2 3080   5.654   3.082   3.062
 1039TIP3    H1 3081   5.630   3.011   3.001
 1039TIP3    H2 3082   5.663   3.038   3.147
 1040TIP3   OH2 3083   3.325   6.640   5.004
 1040TIP3    H1 3084   3.336   6.643   5.099
 1040TIP3    H2 3085   3.350   6.728   4.974
 1041TIP3   OH2 3086   3.847   4.189   2.189
 1041TIP3    H1 3087   3.896   4.269   2.206
 1041TIP3    H2 3088   3.832   4.190   2.094
 1042TIP3   OH2 3089   1.737   4.917   1.024
 1042TIP3    H1 3090   1.696   4.949   1.105
 1042TIP3    H2 3091   1.733   4.822   1.031
 1043TIP3   OH2 3092   0.879   0.404   2.973
 1043TIP3    H1 3093   0.839   0.372   3.053
 1043TIP3    H2 3094   0.941   0.336   2.948
 1044TIP3   OH2 3095   4.647   6.352   5.378
 1044TIP3    H1 3096   4.716   6.288   5.363
 1044TIP3    H2 3097   4.585   6.337   5.306
 1045TIP3   OH2 3098   5.954   3.128   1.425
 1045TIP3    H1 3099   5.888   3.061   1.407
 1045TIP3    H2 3100   5.977   3.163   1.339
 1046TIP3   OH2 3101   0.640   1.792   0.953
 1046TIP3    H1 3102   0.581   1.812   0.880
 1046TIP3    H2 3103   0.615   1.705   0.981
 1047TIP3   OH2 3104   0.118   4.303   2.335
 1047TIP3    H1 3105   0.203   4.346   2.322
 1047TIP3    H2 3106   0.119   4.277   2.427
 1048TIP3   OH2 3107   5.340   1.003   4.777
 1048TIP3    H1 3108   5.260   1.055   4.790
 1048TIP3    H2 3109   5.406   1.047   4.830
 1049TIP3   OH2 3110   3.444   5.977   2.330
 1049TIP3    H1 3111   3.412   5.890   2.355
 1049TIP3    H2 3112   3.464   6.019   2.414
 1050TIP3   OH2 3113   1.043   2.737   2.653
 1050TIP3    H1 3114   1.078   2.763   2.738
 1050TIP3    H2 3115   0.948   2.736   2.666
 1051TIP3   OH2 3116   2.006   3.884   0.519
 1051TIP3    H1 3117   2.029   3.794   0.541
 1051TIP3    H2 3118   2.038   3.936   0.593
 1052TIP3   OH2 3119   5.915   5.119   3.523
 1052TIP3    H1 3120   5.970   5.175   3.468
 1052TIP3    H2 3121   5.975   5.053   3.558
 1053TIP3   OH2 3122   6.749   0.618   2.729
 1053TIP3    H1 3123   6.806   0.645   2.657
 1053TIP3    H2 3124   6.741   0.523   2.719
 1054TIP3   OH2 3125   4.795   2.855   2.064
 1054TIP3    H1 3126   4.837   2.873   1.979
 1054TIP3    H2 3127   4.795   2.940   2.108
 1055TIP3   OH2 3128   3.101   1.162   4.361
 1055TIP3    H1 3129   3.085   1.086   4.306
 1055TIP3    H2 3130   3.097   1.236   4.300
 1056TIP3   OH2 3131   1.291   1.456   3.201
 1056TIP3    H1 3132   1.250   1.487   3.282
 1056TIP3    H2 3133   1.383   1.443   3.224
 1057TIP3   OH2 3134   6.050   5.616   3.161
 1057TIP3    H1 3135   6.126   5.671   3.180
 1057TIP3    H2 3136   6.025   5.579   3.246
 1058TIP3   OH2 3137   5.471  -0.019   1.490
 1058TIP3    H1 3138   5.457   0.052   1.428
 1058TIP3    H2 3139   5.408  -0.086   1.463
 1059TIP3   OH2 3140   0.174   0.517   0.870
 1059TIP3    H1 3141   0.096   0.464   0.855
 1059TIP3    H2 3142   0.185   0.566   0.789
 1060TIP3   OH2 3143   2.708   5.611   2.350
 1060TIP3    H1 3144   2.690   5.704   2.365
 1060TIP3    H2 3145   2.627   5.577   2.311
 1061TIP3   OH2 3146   4.499   0.403   1.636
 1061TIP3    H1 3147   4.532   0.423   1.548
 1061TIP3    H2 3148   4.560   0.447   1.695
 1062TIP3   OH2 3149   0.775   0.925   0.104
 1062TIP3    H1 3150   0.768   0.966   0.190
 1062TIP3    H2 3151   0.856   0.873   0.109
 1063TIP3   OH2 3152   2.201   4.565   1.058
 1063TIP3    H1 3153   2.129   4.628   1.058
 1063TIP3    H2 3154   2.277   4.616   1.085
 1064TIP3   OH2 3155   1.873   1.666   0.963
 1064TIP3    H1 3156   1.778   1.676   0.959
 1064TIP3    H2 3157   1.895   1.685   1.054
 1065TIP3   OH2 3158  -0.064   5.588   4.477
 1065TIP3    H1 3159  -0.013   5.609   4.398
 1065TIP3    H2 3160  -0.106   5.670   4.502
 1066TIP3   OH2 3161   7.167   3.347   3.567
 1066TIP3    H1 3162   7.167   3.284   3.639
 1066TIP3    H2 3163   7.182   3.294   3.489
 1067TIP3   OH2 3164   5.689   2.315   4.940
 1067TIP3    H1 3165   5.753   2.383   4.919
 1067TIP3    H2 3166   5.742   2.242   4.971
 1068TIP3   OH2 3167   0.792   5.957   2.020
 1068TIP3    H1 3168   0.854   5.944   1.949
 1068TIP3    H2 3169   0.827   6.031   2.069
 1069TIP3   OH2 3170   5.356   4.817   4.200
 1069TIP3    H1 3171   5.428   4.840   4.142
 1069TIP3    H2 3172   5.314   4.901   4.222
 1070TIP3   OH2 3173   2.693   0.300   3.452
 1070TIP3    H1 3174   2.701   0.217   3.406
 1070TIP3    H2 3175   2.600   0.322   3.445
 1071TIP3   OH2 3176   3.441   4.149   2.361
 1071TIP3    H1 3177   3.393   4.107   2.434
 1071TIP3    H2 3178   3.532   4.122   2.374
 1072TIP3   OH2 3179   3.658   6.364   3.203
 1072TIP3    H1 3180   3.677   6.457   3.190
 1072TIP3    H2 3181   3.584   6.362   3.263
 1073TIP3   OH2 3182   1.876   0.478   4.309
 1073TIP3    H1 3183   1.886   0.569   4.282
 1073TIP3    H2 3184   1.783   0.459   4.296
 1074TIP3   OH2 3185   4.006   2.715   5.886
 1074TIP3    H1 3186   3.958   2.714   5.803
 1074TIP3    H2 3187   4.080   2.656   5.871
 1075TIP3   OH2 3188   0.993   4.873   4.375
 1075TIP3    H1 3189   0.980   4.797   4.318
 1075TIP3    H2 3190   1.038   4.937   4.321
 1076TIP3   OH2 3191   3.504   2.448   4.305
 1076TIP3    H1 3192   3.523   2.445   4.211
 1076TIP3    H2 3193   3.469   2.536   4.319
 1077TIP3   OH2 3194   7.200   2.000   3.420
 1077TIP3    H1 3195   7.219   1.937   3.490
 1077TIP3    H2 3196   7.250   2.078   3.445
 1078TIP3   OH2 3197   4.127   3.069   4.862
 1078TIP3    H1 3198   4.182   3.136   4.823
 1078TIP3    H2 3199   4.181   2.990   4.861
 1079TIP3   OH2 3200   1.960   3.331   5.575
 1079TIP3    H1 3201   1.885   3.287   5.536
 1079TIP3    H2 3202   1.995   3.387   5.506
 1080TIP3   OH2 3203   1.684   1.317   2.800
 1080TIP3    H1 3204   1.619   1.344   2.865
 1080TIP3    H2 3205   1.658   1.228   2.775
 1081TIP3   OH2 3206   2.616   0.256   1.398
 1081TIP3    H1 3207   2.685   0.278   1.336
 1081TIP3    H2 3208   2.601   0.337   1.447
 1082TIP3   OH2 3209   1.209   6.302   0.106
 1082TIP3    H1 3210   1.226   6.395   0.092
 1082TIP3    H2 3211   1.191   6.295   0.200
 1083TIP3   OH2 3212   2.891   1.326   2.216
 1083TIP3    H1 3213   2.820   1.275   2.255
 1083TIP3    H2 3214   2.952   1.342   2.288
 1084TIP3   OH2 3215   3.997   4.652   2.118
 1084TIP3    H1 3216   3.984   4.669   2.211
 1084TIP3    H2 3217   3.969   4.561   2.106
 1085TIP3   OH2 3218   1.375   6.163   5.126
 1085TIP3    H1 3219   1.464   6.199   5.124
 1085TIP3    H2 3220   1.380   6.083   5.074
 1086TIP3   OH2 3221   5.748   6.001   2.293
 1086TIP3    H1 3222   5.674   5.966   2.342
 1086TIP3    H2 3223   5.814   6.021   2.360
 1087TIP3   OH2 3224   2.984   1.050   3.915
 1087TIP3    H1 3225   3.044   1.020   3.983
 1087TIP3    H2 3226   2.898   1.018   3.943
 1088TIP3   OH2 3227   3.414   5.355   1.760
 1088TIP3    H1 3228   3.401   5.262   1.743
 1088TIP3    H2 3229   3.333   5.396   1.729
 1089TIP3   OH2 3230   0.136   3.555   3.547
 1089TIP3    H1 3231   0.082   3.479   3.569
 1089TIP3    H2 3232   0.073   3.617   3.510
 1090TIP3   OH2 3233   3.647   2.650   0.328
 1090TIP3    H1 3234   3.648   2.704   0.407
 1090TIP3    H2 3235   3.565   2.600   0.335
 1091TIP3   OH2 3236   5.060   1.683   2.281
 1091TIP3    H1 3237   5.150   1.674   2.251
 1091TIP3    H2 3238   5.062   1.758   2.341
 1092TIP3   OH2 3239   1.333   2.580   3.205
 1092TIP3    H1 3240   1.265   2.640   3.174
 1092TIP3    H2 3241   1.343   2.516   3.135
 1093TIP3   OH2 3242   5.771   3.068   4.307
 1093TIP3    H1 3243   5.704   3.001   4.324
 1093TIP3    H2 3244   5.824   3.069   4.387
 1094TIP3   OH2 3245   2.040   6.767   3.421
 1094TIP3    H1 3246   1.958   6.813   3.437
 1094TIP3    H2 3247   2.018   6.698   3.359
 1095TIP3   OH2 3248   7.022   3.711   5.448
 1095TIP3    H1 3249   7.074   3.756   5.515
 1095TIP3    H2 3250   6.963   3.778   5.415
 1096TIP3   OH2 3251   1.674   6.488   4.416
 1096TIP3    H1 3252   1.627   6.571   4.427
 1096TIP3    H2 3253   1.604   6.422   4.410
 1097TIP3   OH2 3254   4.600   2.380   0.859
 1097TIP3    H1 3255   4.512   2.355   0.888
 1097TIP3    H2 3256   4.599   2.367   0.765
 1098TIP3   OH2 3257   5.487   5.424   1.926
 1098TIP3    H1 3258   5.579   5.407   1.943
 1098TIP3    H2 3259   5.480   5.426   1.831
 1099TIP3   OH2 3260   6.691   0.944   1.629
 1099TIP3    H1 3261   6.714   0.869   1.684
 1099TIP3    H2 3262   6.622   0.989   1.677
 1100TIP3   OH2 3263   0.792   5.647   1.756
 1100TIP3    H1 3264   0.738   5.719   1.789
 1100TIP3    H2 3265   0.732   5.574   1.745
 1101TIP3   OH2 3266   4.487   2.878   4.399
 1101TIP3    H1 3267   4.452   2.965   4.377
 1101TIP3    H2 3268   4.427   2.817   4.356
 1102TIP3   OH2 3269   6.837   0.764   4.466
 1102TIP3    H1 3270   6.826   0.718   4.550
 1102TIP3    H2 3271   6.748   0.773   4.432
 1103TIP3   OH2 3272   4.831   2.146   2.215
 1103TIP3    H1 3273   4.912   2.103   2.246
 1103TIP3    H2 3274   4.810   2.209   2.284
 1104TIP3   OH2 3275   4.540   6.556   0.661
 1104TIP3    H1 3276   4.446   6.543   0.673
 1104TIP3    H2 3277   4.574   6.562   0.751
 1105TIP3   OH2 3278   2.447   4.876   5.543
 1105TIP3    H1 3279   2.448   4.871   5.639
 1105TIP3    H2 3280   2.533   4.843   5.517
 1106TIP3   OH2 3281   1.812   1.618   2.303
 1106TIP3    H1 3282   1.754   1.598   2.377
 1106TIP3    H2 3283   1.887   1.661   2.342
 1107TIP3   OH2 3284   6.980   4.396   1.780
 1107TIP3    H1 3285   6.961   4.440   1.698
 1107TIP3    H2 3286   7.074   4.378   1.778
 1108TIP3   OH2 3287   6.259   5.460   5.005
 1108TIP3    H1 3288   6.196   5.529   5.024
 1108TIP3    H2 3289   6.335   5.506   4.970
 1109TIP3   OH2 3290   0.780   2.587   0.353
 1109TIP3    H1 3291   0.818   2.522   0.412
 1109TIP3    H2 3292   0.848   2.652   0.340
 1110TIP3   OH2 3293   2.544   1.871   4.856
 1110TIP3    H1 3294   2.617   1.821   4.893
 1110TIP3    H2 3295   2.516   1.928   4.928
 1111TIP3   OH2 3296   3.736   0.660   1.560
 1111TIP3    H1 3297   3.825   0.669   1.594
 1111TIP3    H2 3298   3.748   0.628   1.470
 1112TIP3   OH2 3299   0.336   4.986   2.451
 1112TIP3    H1 3300   0.402   4.928   2.490
 1112TIP3    H2 3301   0.355   5.072   2.488
 1113TIP3   OH2 3302   6.414   6.269   5.896
 1113TIP3    H1 3303   6.332   6.259   5.847
 1113TIP3    H2 3304   6.483   6.250   5.833
 1114TIP3   OH2 3305   2.986   6.177   3.321
 1114TIP3    H1 3306   3.050   6.176   3.392
 1114TIP3    H2 3307   3.038   6.196   3.243
 1115TIP3   OH2 3308   3.066   2.910   0.249
 1115TIP3    H1 3309   3.011   2.931   0.325
 1115TIP3    H2 3310   3.135   2.853   0.285
 1116TIP3   OH2 3311   0.816   6.303   1.020
 1116TIP3    H1 3312   0.776   6.384   1.051
 1116TIP3    H2 3313   0.892   6.291   1.077
 1117TIP3   OH2 3314   3.735   0.149   0.356
 1117TIP3    H1 3315   3.738   0.234   0.311
 1117TIP3    H2 3316   3.778   0.165   0.440
 1118TIP3   OH2 3317   2.470   6.560   4.501
 1118TIP3    H1 3318   2.504   6.590   4.416
 1118TIP3    H2 3319   2.375   6.572   4.494
 1119TIP3   OH2 3320   3.678   2.775   1.464
 1119TIP3    H1 3321   3.678   2.837   1.537
 1119TIP3    H2 3322   3.742   2.708   1.489
 1120TIP3   OH2 3323   6.162   1.218   4.540
 1120TIP3    H1 3324   6.119   1.259   4.465
 1120TIP3    H2 3325   6.235   1.169   4.501
 1121TIP3   OH2 3326   6.675   3.952   5.774
 1121TIP3    H1 3327   6.598   3.993   5.735
 1121TIP3    H2 3328   6.746   3.970   5.712
 1122TIP3   OH2 3329   0.274   3.154   4.056
 1122TIP3    H1 3330   0.257   3.146   4.150
 1122TIP3    H2 3331   0.190   3.136   4.014
 1123TIP3   OH2 3332   4.401   5.638   4.056
 1123TIP3    H1 3333   4.457   5.576   4.010
 1123TIP3    H2 3334   4.458   5.675   4.124
 1124TIP3   OH2 3335   5.773   1.900   5.720
 1124TIP3    H1 3336   5.766   1.919   5.626
 1124TIP3    H2 3337   5.787   1.985   5.761
 1125TIP3   OH2 3338   0.269   6.183   0.805
 1125TIP3    H1 3339   0.250   6.129   0.728
 1125TIP3    H2 3340   0.335   6.245   0.775
 1126TIP3   OH2 3341   4.326   0.520   4.834
 1126TIP3    H1 3342   4.327   0.482   4.746
 1126TIP3    H2 3343   4.298   0.448   4.891
 1127TIP3   OH2 3344   0.287   0.746   0.117
 1127TIP3    H1 3345   0.291   0.691   0.195
 1127TIP3    H2 3346   0.237   0.823   0.144
 1128TIP3   OH2 3347   6.449   1.349   0.811
 1128TIP3    H1 3348   6.441   1.259   0.781
 1128TIP3    H2 3349   6.541   1.372   0.797
 1129TIP3   OH2 3350   3.802   1.298   5.747
 1129TIP3    H1 3351   3.807   1.305   5.843
 1129TIP3    H2 3352   3.883   1.338   5.716
 1130TIP3   OH2 3353   6.392   4.218   5.130
 1130TIP3    H1 3354   6.486   4.220   5.111
 1130TIP3    H2 3355   6.387   4.194   5.223
 1131TIP3   OH2 3356   3.933   1.175   3.712
 1131TIP3    H1 3357   3.918   1.268   3.729
 1131TIP3    H2 3358   3.853   1.145   3.669
 1132TIP3   OH2 3359   6.507   4.349   3.289
 1132TIP3    H1 3360   6.486   4.419   3.350
 1132TIP3    H2 3361   6.478   4.269   3.332
 1133TIP3   OH2 3362   0.988   1.014   5.667
 1133TIP3    H1 3363   0.976   1.096   5.714
 1133TIP3    H2 3364   0.999   1.041   5.575
 1134TIP3   OH2 3365   4.997   2.318   1.968
 1134TIP3    H1 3366   4.922   2.328   2.027
 1134TIP3    H2 3367   4.998   2.224   1.946
 1135TIP3   OH2 3368   0.882   0.107   1.521
 1135TIP3    H1 3369   0.811   0.131   1.462
 1135TIP3    H2 3370   0.839   0.097   1.606
 1136TIP3   OH2 3371   6.636   3.664   1.779
 1136TIP3    H1 3372   6.543   3.685   1.790
 1136TIP3    H2 3373   6.637   3.593   1.714
 1137TIP3   OH2 3374   3.961   3.681   5.563
 1137TIP3    H1 3375   3.969   3.640   5.476
 1137TIP3    H2 3376   3.998   3.616   5.623
 1138TIP3   OH2 3377   1.337   4.136   0.704
 1138TIP3    H1 3378   1.387   4.070   0.752
 1138TIP3    H2 3379   1.353   4.217   0.753
 1139TIP3   OH2 3380   0.768   3.940   2.207
 1139TIP3    H1 3381   0.696   4.001   2.188
 1139TIP3    H2 3382   0.813   3.981   2.281
 1140TIP3   OH2 3383   7.150   0.618   4.764
 1140TIP3    H1 3384   7.067   0.597   4.721
 1140TIP3    H2 3385   7.125   0.651   4.850
 1141TIP3   OH2 3386   6.468   6.280   3.639
 1141TIP3    H1 3387   6.542   6.221   3.623
 1141TIP3    H2 3388   6.501   6.366   3.616
 1142TIP3   OH2 3389   2.698   6.695   5.760
 1142TIP3    H1 3390   2.645   6.633   5.810
 1142TIP3    H2 3391   2.634   6.755   5.721
 1143TIP3   OH2 3392   0.726   3.002   4.965
 1143TIP3    H1 3393   0.748   2.939   5.033
 1143TIP3    H2 3394   0.723   2.950   4.884
 1144TIP3   OH2 3395   5.046   2.696   3.019
 1144TIP3    H1 3396   5.037   2.764   3.085
 1144TIP3    H2 3397   5.129   2.653   3.040
 1145TIP3   OH2 3398   5.780   0.464   5.374
 1145TIP3    H1 3399   5.812   0.500   5.456
 1145TIP3    H2 3400   5.687   0.488   5.372
 1146TIP3   OH2 3401   1.998   6.605   5.159
 1146TIP3    H1 3402   2.051   6.577   5.085
 1146TIP3    H2 3403   2.038   6.562   5.235
 1147TIP3   OH2 3404   6.383   1.616   1.656
 1147TIP3    H1 3405   6.331   1.538   1.639
 1147TIP3    H2 3406   6.355   1.678   1.589
 1148TIP3   OH2 3407   3.295   6.182   5.476
 1148TIP3    H1 3408   3.256   6.164   5.390
 1148TIP3    H2 3409   3.241   6.132   5.537
 1149TIP3   OH2 3410   0.295   4.412   5.740
 1149TIP3    H1 3411   0.328   4.348   5.678
 1149TIP3    H2 3412   0.373   4.440   5.789
 1150TIP3   OH2 3413   5.129   0.729   3.658
 1150TIP3    H1 3414   5.212   0.697   3.622
 1150TIP3    H2 3415   5.145   0.820   3.680
 1151TIP3   OH2 3416   5.415   5.665   5.460
 1151TIP3    H1 3417   5.440   5.600   5.526
 1151TIP3    H2 3418   5.422   5.618   5.377
 1152TIP3   OH2 3419   3.224   5.212   5.271
 1152TIP3    H1 3420   3.159   5.172   5.213
 1152TIP3    H2 3421   3.305   5.214   5.219
 1153TIP3   OH2 3422   5.921   5.090   5.472
 1153TIP3    H1 3423   5.881   5.137   5.400
 1153TIP3    H2 3424   5.960   5.158   5.527
 1154TIP3   OH2 3425   1.578   3.828   3.879
 1154TIP3    H1 3426   1.580   3.733   3.883
 1154TIP3    H2 3427   1.511   3.853   3.942
 1155TIP3   OH2 3428   3.378   3.606   5.169
 1155TIP3    H1 3429   3.333   3.523   5.185
 1155TIP3    H2 3430   3.313   3.673   5.188
 1156TIP3   OH2 3431   0.478   6.008   2.794
 1156TIP3    H1 3432   0.421   6.084   2.781
 1156TIP3    H2 3433   0.425   5.933   2.767
 1157TIP3   OH2 3434   6.517   6.589   1.649
 1157TIP3    H1 3435   6.606   6.617   1.629
 1157TIP3    H2 3436   6.498   6.522   1.583
 1158TIP3   OH2 3437   2.242   1.615   1.097
 1158TIP3    H1 3438   2.225   1.709   1.099
 1158TIP3    H2 3439   2.155   1.575   1.107
 1159TIP3   OH2 3440   1.243   4.576   4.757
 1159TIP3    H1 3441   1.249   4.631   4.678
 1159TIP3    H2 3442   1.307   4.614   4.817
 1160TIP3   OH2 3443   5.983   0.299   4.491
 1160TIP3    H1 3444   5.986   0.359   4.565
 1160TIP3    H2 3445   5.895   0.311   4.454
 1161TIP3   OH2 3446   0.988   6.305   2.812
 1161TIP3    H1 3447   0.983   6.352   2.895
 1161TIP3    H2 3448   0.901   6.314   2.773
 1162TIP3   OH2 3449   6.662   2.409   0.660
 1162TIP3    H1 3450   6.682   2.475   0.727
 1162TIP3    H2 3451   6.746   2.367   0.642
 1163TIP3   OH2 3452   2.182   4.903   1.708
 1163TIP3    H1 3453   2.119   4.926   1.776
 1163TIP3    H2 3454   2.158   4.813   1.683
 1164TIP3   OH2 3455   4.289   6.514   0.688
 1164TIP3    H1 3456   4.289   6.546   0.778
 1164TIP3    H2 3457   4.196   6.505   0.666
 1165TIP3   OH2 3458   0.635   1.282   0.009
 1165TIP3    H1 3459   0.634   1.376   0.025
 1165TIP3    H2 3460   0.589   1.244   0.084
 1166TIP3   OH2 3461   5.936   6.138   0.574
 1166TIP3    H1 3462   6.016   6.100   0.610
 1166TIP3    H2 3463   5.951   6.233   0.577
 1167TIP3   OH2 3464   4.742   3.723   3.502
 1167TIP3    H1 3465   4.706   3.683   3.580
 1167TIP3    H2 3466   4.736   3.817   3.518
 1168TIP3   OH2 3467   7.221   3.041   5.658
 1168TIP3    H1 3468   7.207   3.125   5.615
 1168TIP3    H2 3469   7.160   3.042   5.732
 1169TIP3   OH2 3470   6.487   2.614   4.788
 1169TIP3    H1 3471   6.466   2.705   4.772
 1169TIP3    H2 3472   6.568   2.599   4.739
 1170TIP3   OH2 3473   2.683   5.575   2.903
 1170TIP3    H1 3474   2.731   5.492   2.910
 1170TIP3    H2 3475   2.677   5.592   2.809
 1171TIP3   OH2 3476   1.311   3.148   2.747
 1171TIP3    H1 3477   1.402   3.120   2.761
 1171TIP3    H2 3478   1.288   3.113   2.661
 1172TIP3   OH2 3479   5.018   0.161   4.182
 1172TIP3    H1 3480   5.015   0.080   4.234
 1172TIP3    H2 3481   5.026   0.231   4.247
 1173TIP3   OH2 3482   5.227   4.884   5.440
 1173TIP3    H1 3483   5.258   4.958   5.388
 1173TIP3    H2 3484   5.215   4.919   5.528
 1174TIP3   OH2 3485   1.396   6.390   2.239
 1174TIP3    H1 3486   1.484   6.426   2.249
 1174TIP3    H2 3487   1.382   6.340   2.319
 1175TIP3   OH2 3488   1.195   0.534   3.971
 1175TIP3    H1 3489   1.144   0.563   3.895
 1175TIP3    H2 3490   1.169   0.442   3.983
 1176TIP3   OH2 3491   0.550   5.348   5.423
 1176TIP3    H1 3492   0.550   5.297   5.342
 1176TIP3    H2 3493   0.556   5.439   5.393
 1177TIP3   OH2 3494   0.236   4.247   1.927
 1177TIP3    H1 3495   0.247   4.195   2.007
 1177TIP3    H2 3496   0.313   4.225   1.875
 1178TIP3   OH2 3497   7.165   0.181   5.435
 1178TIP3    H1 3498   7.092   0.141   5.388
 1178TIP3    H2 3499   7.127   0.256   5.480
 1179TIP3   OH2 3500   2.510   2.527   3.496
 1179TIP3    H1 3501   2.494   2.439   3.461
 1179TIP3    H2 3502   2.464   2.528   3.579
 1180TIP3   OH2 3503   0.780   5.993   1.502
 1180TIP3    H1 3504   0.717   6.017   1.569
 1180TIP3    H2 3505   0.751   6.039   1.424
 1181TIP3   OH2 3506   5.224   4.449   3.630
 1181TIP3    H1 3507   5.167   4.373   3.627
 1181TIP3    H2 3508   5.240   4.463   3.724
 1182TIP3   OH2 3509   7.163   0.005   1.039
 1182TIP3    H1 3510   7.180  -0.033   0.953
 1182TIP3    H2 3511   7.067   0.016   1.041
 1183TIP3   OH2 3512   0.698   3.983   3.352
 1183TIP3    H1 3513   0.646   3.915   3.310
 1183TIP3    H2 3514   0.737   3.941   3.429
 1184TIP3   OH2 3515   0.584   3.029   4.599
 1184TIP3    H1 3516   0.566   2.959   4.662
 1184TIP3    H2 3517   0.680   3.035   4.597
 1185TIP3   OH2 3518   0.166   6.779   0.392
 1185TIP3    H1 3519   0.133   6.690   0.391
 1185TIP3    H2 3520   0.181   6.801   0.300
 1186TIP3   OH2 3521   6.855   6.089   1.107
 1186TIP3    H1 3522   6.949   6.096   1.124
 1186TIP3    H2 3523   6.846   6.015   1.047
 1187TIP3   OH2 3524   5.276   0.741   0.598
 1187TIP3    H1 3525   5.278   0.706   0.508
 1187TIP3    H2 3526   5.331   0.680   0.648
 1188TIP3   OH2 3527   3.214   0.768   1.484
 1188TIP3    H1 3528   3.213   0.685   1.531
 1188TIP3    H2 3529   3.294   0.811   1.514
 1189TIP3   OH2 3530   1.268   0.277   1.966
 1189TIP3    H1 3531   1.308   0.303   1.883
 1189TIP3    H2 3532   1.175   0.301   1.957
 1190TIP3   OH2 3533   5.055   5.541   4.913
 1190TIP3    H1 3534   5.119   5.609   4.893
 1190TIP3    H2 3535   5.106   5.461   4.921
 1191TIP3   OH2 3536   0.374   3.830   1.761
 1191TIP3    H1 3537   0.413   3.761   1.708
 1191TIP3    H2 3538   0.282   3.832   1.735
 1192TIP3   OH2 3539   0.181   4.483   1.024
 1192TIP3    H1 3540   0.115   4.552   1.013
 1192TIP3    H2 3541   0.259   4.528   1.056
 1193TIP3   OH2 3542   5.433   6.021   1.070
 1193TIP3    H1 3543   5.425   5.992   1.161
 1193TIP3    H2 3544   5.524   6.003   1.047
 1194TIP3   OH2 3545   5.183   0.058   0.921
 1194TIP3    H1 3546   5.266   0.087   0.883
 1194TIP3    H2 3547   5.117   0.115   0.880
 1195TIP3   OH2 3548   6.936   3.340   1.228
 1195TIP3    H1 3549   7.027   3.313   1.237
 1195TIP3    H2 3550   6.936   3.431   1.259
 1196TIP3   OH2 3551  -0.036   4.631   4.247
 1196TIP3    H1 3552   0.038   4.574   4.267
 1196TIP3    H2 3553   0.002   4.702   4.195
 1197TIP3   OH2 3554   3.957   1.993   1.820
 1197TIP3    H1 3555   3.906   2.044   1.758
 1197TIP3    H2 3556   4.025   2.054   1.851
 1198TIP3   OH2 3557   2.729   3.702   5.630
 1198TIP3    H1 3558   2.801   3.740   5.681
 1198TIP3    H2 3559   2.764   3.621   5.595
 1199TIP3   OH2 3560   5.413   2.838   0.493
 1199TIP3    H1 3561   5.508   2.851   0.489
 1199TIP3    H2 3562   5.397   2.760   0.441
 1200TIP3   OH2 3563   1.487   0.327   0.376
 1200TIP3    H1 3564   1.502   0.234   0.395
 1200TIP3    H2 3565   1.535   0.373   0.444
 1201TIP3   OH2 3566   3.859   5.539   2.102
 1201TIP3    H1 3567   3.808   5.537   2.184
 1201TIP3    H2 3568   3.892   5.450   2.092
 1202TIP3   OH2 3569   0.866   5.788   5.476
 1202TIP3    H1 3570   0.926   5.859   5.450
 1202TIP3    H2 3571   0.859   5.734   5.397
 1203TIP3   OH2 3572   3.805   1.261   1.389
 1203TIP3    H1 3573   3.777   1.185   1.339
 1203TIP3    H2 3574   3.790   1.336   1.331
 1204TIP3   OH2 3575   0.578   1.917   1.896
 1204TIP3    H1 3576   0.490   1.912   1.858
 1204TIP3    H2 3577   0.572   1.988   1.960
 1205TIP3   OH2 3578   2.458   0.951   1.251
 1205TIP3    H1 3579   2.550   0.957   1.277
 1205TIP3    H2 3580   2.452   1.001   1.170
 1206TIP3   OH2 3581   3.077   5.396   2.229
 1206TIP3    H1 3582   2.985   5.368   2.230
 1206TIP3    H2 3583   3.113   5.362   2.311
 1207TIP3   OH2 3584   2.335   1.950   4.668
 1207TIP3    H1 3585   2.273   1.986   4.731
 1207TIP3    H2 3586   2.399   1.902   4.721
 1208TIP3   OH2 3587   6.507   1.914   2.422
 1208TIP3    H1 3588   6.506   1.874   2.335
 1208TIP3    H2 3589   6.416   1.935   2.440
 1209TIP3   OH2 3590   2.424   6.476   5.573
 1209TIP3    H1 3591   2.416   6.425   5.654
 1209TIP3    H2 3592   2.469   6.417   5.512
 1210TIP3   OH2 3593   4.675   4.974   2.573
 1210TIP3    H1 3594   4.656   5.014   2.657
 1210TIP3    H2 3595   4.594   4.929   2.548
 1211TIP3   OH2 3596   6.662   4.987   0.873
 1211TIP3    H1 3597   6.681   4.893   0.884
 1211TIP3    H2 3598   6.748   5.029   0.875
 1212TIP3   OH2 3599   6.808   0.915   4.237
 1212TIP3    H1 3600   6.838   0.887   4.324
 1212TIP3    H2 3601   6.723   0.874   4.226
 1213TIP3   OH2 3602   4.747   6.538   2.969
 1213TIP3    H1 3603   4.822   6.537   3.029
 1213TIP3    H2 3604   4.673   6.511   3.024
 1214TIP3   OH2 3605   7.053   2.296   4.829
 1214TIP3    H1 3606   7.008   2.352   4.765
 1214TIP3    H2 3607   7.058   2.348   4.909
 1215TIP3   OH2 3608   5.091   6.416   0.829
 1215TIP3    H1 3609   5.108   6.411   0.923
 1215TIP3    H2 3610   5.003   6.455   0.823
 1216TIP3   OH2 3611   1.379   5.134   0.021
 1216TIP3    H1 3612   1.447   5.112  -0.041
 1216TIP3    H2 3613   1.424   5.186   0.089
 1217TIP3   OH2 3614   2.259   0.335   2.883
 1217TIP3    H1 3615   2.270   0.405   2.948
 1217TIP3    H2 3616   2.260   0.380   2.799
 1218TIP3   OH2 3617   2.000   2.074   2.618
 1218TIP3    H1 3618   2.082   2.090   2.571
 1218TIP3    H2 3619   1.960   2.161   2.624
 1219TIP3   OH2 3620   6.649   4.199   5.474
 1219TIP3    H1 3621   6.668   4.175   5.384
 1219TIP3    H2 3622   6.735   4.206   5.516
 1220TIP3   OH2 3623   1.421   1.812   0.757
 1220TIP3    H1 3624   1.361   1.774   0.821
 1220TIP3    H2 3625   1.368   1.823   0.678
 1221TIP3   OH2 3626   6.399   1.444   2.655
 1221TIP3    H1 3627   6.364   1.453   2.566
 1221TIP3    H2 3628   6.335   1.489   2.710
 1222TIP3   OH2 3629   1.780   2.495   2.267
 1222TIP3    H1 3630   1.814   2.520   2.353
 1222TIP3    H2 3631   1.844   2.530   2.205
 1223TIP3   OH2 3632   5.953   3.721   4.268
 1223TIP3    H1 3633   5.991   3.805   4.241
 1223TIP3    H2 3634   5.908   3.688   4.190
 1224TIP3   OH2 3635   2.700   5.130   3.129
 1224TIP3    H1 3636   2.692   5.084   3.046
 1224TIP3    H2 3637   2.786   5.172   3.124
 1225TIP3   OH2 3638   5.013   3.546   0.708
 1225TIP3    H1 3639   5.030   3.606   0.635
 1225TIP3    H2 3640   5.095   3.545   0.757
 1226TIP3   OH2 3641   5.171   2.453   1.784
 1226TIP3    H1 3642   5.167   2.508   1.705
 1226TIP3    H2 3643   5.081   2.427   1.799
 1227TIP3   OH2 3644   6.922   0.005   0.523
 1227TIP3    H1 3645   6.908   0.065   0.596
 1227TIP3    H2 3646   6.961  -0.073   0.563
 1228TIP3   OH2 3647   0.857   0.247   4.336
 1228TIP3    H1 3648   0.951   0.262   4.343
 1228TIP3    H2 3649   0.816   0.329   4.363
 1229TIP3   OH2 3650   2.855   0.069   0.026
 1229TIP3    H1 3651   2.839   0.138  -0.038
 1229TIP3    H2 3652   2.948   0.077   0.047
 1230TIP3   OH2 3653   2.718   1.037   5.200
 1230TIP3    H1 3654   2.788   1.095   5.231
 1230TIP3    H2 3655   2.692   1.073   5.116
 1231TIP3   OH2 3656   6.200   2.402   3.106
 1231TIP3    H1 3657   6.253   2.480   3.089
 1231TIP3    H2 3658   6.207   2.388   3.200
 1232TIP3   OH2 3659   1.935   6.331   2.141
 1232TIP3    H1 3660   1.896   6.249   2.169
 1232TIP3    H2 3661   1.861   6.383   2.110
 1233TIP3   OH2 3662   3.002   6.702   4.680
 1233TIP3    H1 3663   3.045   6.672   4.600
 1233TIP3    H2 3664   3.014   6.797   4.679
 1234TIP3   OH2 3665   0.049   0.097   4.018
 1234TIP3    H1 3666   0.030   0.099   3.924
 1234TIP3    H2 3667  -0.015   0.158   4.056
 1235TIP3   OH2 3668   1.995   1.106   2.427
 1235TIP3    H1 3669   1.920   1.161   2.410
 1235TIP3    H2 3670   2.052   1.159   2.483
 1236TIP3   OH2 3671   1.422   3.660   0.337
 1236TIP3    H1 3672   1.377   3.579   0.359
 1236TIP3    H2 3673   1.403   3.674   0.244
 1237TIP3   OH2 3674   6.682   6.515   3.785
 1237TIP3    H1 3675   6.643   6.572   3.851
 1237TIP3    H2 3676   6.687   6.429   3.826
 1238TIP3   OH2 3677   0.558   1.984   5.316
 1238TIP3    H1 3678   0.568   2.054   5.252
 1238TIP3    H2 3679   0.608   2.014   5.393
 1239TIP3   OH2 3680   4.137   4.055   1.353
 1239TIP3    H1 3681   4.074   4.062   1.281
 1239TIP3    H2 3682   4.214   4.014   1.313
 1240TIP3   OH2 3683   5.004   5.341   0.863
 1240TIP3    H1 3684   5.020   5.283   0.937
 1240TIP3    H2 3685   5.040   5.294   0.787
 1241TIP3   OH2 3686   0.226   3.525   1.327
 1241TIP3    H1 3687   0.197   3.568   1.247
 1241TIP3    H2 3688   0.186   3.577   1.398
 1242TIP3   OH2 3689   0.315   4.763   3.358
 1242TIP3    H1 3690   0.409   4.750   3.344
 1242TIP3    H2 3691   0.279   4.777   3.271
 1243TIP3   OH2 3692   3.160   1.538   1.697
 1243TIP3    H1 3693   3.086   1.504   1.748
 1243TIP3    H2 3694   3.232   1.542   1.761
 1244TIP3   OH2 3695   6.669   0.829   1.369
 1244TIP3    H1 3696   6.638   0.845   1.458
 1244TIP3    H2 3697   6.745   0.885   1.359
 1245TIP3   OH2 3698   5.328   5.359   5.363
 1245TIP3    H1 3699   5.351   5.428   5.301
 1245TIP3    H2 3700   5.302   5.406   5.442
 1246TIP3   OH2 3701   3.573   4.445   3.351
 1246TIP3    H1 3702   3.488   4.402   3.349
 1246TIP3    H2 3703   3.557   4.530   3.310
 1247TIP3   OH2 3704   4.103   5.020   1.195
 1247TIP3    H1 3705   4.066   4.948   1.145
 1247TIP3    H2 3706   4.055   5.020   1.278
 1248TIP3   OH2 3707   2.057   2.008   4.748
 1248TIP3    H1 3708   1.969   2.043   4.736
 1248TIP3    H2 3709   2.093   2.059   4.820
 1249TIP3   OH2 3710   6.379   1.616   0.849
 1249TIP3    H1 3711   6.446   1.630   0.782
 1249TIP3    H2 3712   6.392   1.526   0.878
 1250TIP3   OH2 3713   2.201   0.996   1.650
 1250TIP3    H1 3714   2.267   1.050   1.693
 1250TIP3    H2 3715   2.155   0.953   1.721
 1251TIP3   OH2 3716   5.729   3.215   1.072
 1251TIP3    H1 3717   5.700   3.126   1.093
 1251TIP3    H2 3718   5.805   3.229   1.128
 1252TIP3   OH2 3719   2.522   1.653   4.643
 1252TIP3    H1 3720   2.553   1.664   4.733
 1252TIP3    H2 3721   2.552   1.731   4.597
 1253TIP3   OH2 3722   6.796   5.105   0.013
 1253TIP3    H1 3723   6.872   5.088  -0.042
 1253TIP3    H2 3724   6.749   5.022   0.015
 1254TIP3   OH2 3725   2.557   4.223   2.645
 1254TIP3    H1 3726   2.630   4.249   2.589
 1254TIP3    H2 3727   2.535   4.302   2.695
 1255TIP3   OH2 3728   7.009   3.917   0.435
 1255TIP3    H1 3729   6.928   3.969   0.436
 1255TIP3    H2 3730   7.078   3.981   0.418
 1256TIP3   OH2 3731   2.370   4.000   0.836
 1256TIP3    H1 3732   2.414   4.007   0.920
 1256TIP3    H2 3733   2.431   4.041   0.774
 1257TIP3   OH2 3734   6.761   3.082   5.651
 1257TIP3    H1 3735   6.794   3.113   5.566
 1257TIP3    H2 3736   6.773   3.158   5.709
 1258TIP3   OH2 3737   4.871   5.743   4.866
 1258TIP3    H1 3738   4.917   5.663   4.890
 1258TIP3    H2 3739   4.925   5.783   4.798
 1259TIP3   OH2 3740   6.519   4.815   3.879
 1259TIP3    H1 3741   6.535   4.741   3.819
 1259TIP3    H2 3742   6.503   4.774   3.964
 1260TIP3   OH2 3743   2.495   0.091   1.604
 1260TIP3    H1 3744   2.526   0.020   1.549
 1260TIP3    H2 3745   2.405   0.106   1.576
 1261TIP3   OH2 3746   5.320   1.062   0.449
 1261TIP3    H1 3747   5.415   1.047   0.445
 1261TIP3    H2 3748   5.292   1.011   0.524
 1262TIP3   OH2 3749   3.137   1.794   2.522
 1262TIP3    H1 3750   3.131   1.854   2.596
 1262TIP3    H2 3751   3.227   1.805   2.490
 1263TIP3   OH2 3752   3.978   5.587   1.247
 1263TIP3    H1 3753   3.912   5.642   1.289
 1263TIP3    H2 3754   3.946   5.498   1.258
 1264TIP3   OH2 3755   5.826   0.979   5.474
 1264TIP3    H1 3756   5.919   0.969   5.453
 1264TIP3    H2 3757   5.819   1.067   5.510
 1265TIP3   OH2 3758   7.218   2.871   3.234
 1265TIP3    H1 3759   7.256   2.857   3.321
 1265TIP3    H2 3760   7.276   2.824   3.174
 1266TIP3   OH2 3761   0.216   5.988   0.552
 1266TIP3    H1 3762   0.303   5.954   0.529
 1266TIP3    H2 3763   0.215   6.077   0.517
 1267TIP3   OH2 3764   6.806   4.981   1.170
 1267TIP3    H1 3765   6.772   4.896   1.196
 1267TIP3    H2 3766   6.813   4.976   1.074
 1268TIP3   OH2 3767  -0.014   3.353   3.933
 1268TIP3    H1 3768  -0.078   3.424   3.935
 1268TIP3    H2 3769   0.068   3.395   3.960
 1269TIP3   OH2 3770   2.740   1.465   4.574
 1269TIP3    H1 3771   2.660   1.517   4.573
 1269TIP3    H2 3772   2.743   1.427   4.662
 1270TIP3   OH2 3773   2.031   5.304   3.987
 1270TIP3    H1 3774   2.118   5.302   4.027
 1270TIP3    H2 3775   2.036   5.373   3.921
 1271TIP3   OH2 3776   4.333   3.729   2.092
 1271TIP3    H1 3777   4.340   3.810   2.142
 1271TIP3    H2 3778   4.267   3.747   2.025
 1272TIP3   OH2 3779   0.569   0.415   4.255
 1272TIP3    H1 3780   0.551   0.373   4.171
 1272TIP3    H2 3781   0.512   0.493   4.255
 1273TIP3   OH2 3782   6.493   1.402   0.394
 1273TIP3    H1 3783   6.583   1.372   0.382
 1273TIP3    H2 3784   6.498   1.462   0.469
 1274TIP3   OH2 3785   6.514   1.067   2.208
 1274TIP3    H1 3786   6.531   0.976   2.233
 1274TIP3    H2 3787   6.430   1.087   2.249
 1275TIP3   OH2 3788   2.630   1.050   4.476
 1275TIP3    H1 3789   2.535   1.039   4.481
 1275TIP3    H2 3790   2.663   1.019   4.560
 1276TIP3   OH2 3791   4.464   0.316   2.961
 1276TIP3    H1 3792   4.523   0.363   3.020
 1276TIP3    H2 3793   4.488   0.224   2.971
 1277TIP3   OH2 3794   5.145   4.723   1.525
 1277TIP3    H1 3795   5.142   4.630   1.503
 1277TIP3    H2 3796   5.126   4.767   1.442
 1278TIP3   OH2 3797   1.518   5.684   4.450
 1278TIP3    H1 3798   1.545   5.743   4.380
 1278TIP3    H2 3799   1.584   5.697   4.519
 1279TIP3   OH2 3800   0.318   1.169   4.699
 1279TIP3    H1 3801   0.328   1.147   4.607
 1279TIP3    H2 3802   0.271   1.253   4.699
 1280TIP3   OH2 3803   6.125   6.101   3.972
 1280TIP3    H1 3804   6.218   6.088   3.991
 1280TIP3    H2 3805   6.122   6.136   3.883
 1281TIP3   OH2 3806   1.554   5.431   4.355
 1281TIP3    H1 3807   1.642   5.407   4.325
 1281TIP3    H2 3808   1.569   5.503   4.416
 1282TIP3   OH2 3809   4.419   3.545   4.988
 1282TIP3    H1 3810   4.351   3.555   4.922
 1282TIP3    H2 3811   4.489   3.497   4.943
 1283TIP3   OH2 3812   2.507   1.197   5.192
 1283TIP3    H1 3813   2.484   1.126   5.132
 1283TIP3    H2 3814   2.582   1.164   5.241
 1284TIP3   OH2 3815   0.415   3.582   2.878
 1284TIP3    H1 3816   0.428   3.610   2.787
 1284TIP3    H2 3817   0.431   3.661   2.930
 1285TIP3   OH2 3818   5.108   2.942   2.097
 1285TIP3    H1 3819   5.203   2.953   2.101
 1285TIP3    H2 3820   5.088   2.946   2.003
 1286TIP3   OH2 3821   2.708   5.856   4.450
 1286TIP3    H1 3822   2.803   5.842   4.447
 1286TIP3    H2 3823   2.698   5.951   4.448
 1287TIP3   OH2 3824   4.619   0.857   3.941
 1287TIP3    H1 3825   4.562   0.806   3.999
 1287TIP3    H2 3826   4.576   0.943   3.936
 1288TIP3   OH2 3827   5.496   2.542   2.963
 1288TIP3    H1 3828   5.412   2.553   3.006
 1288TIP3    H2 3829   5.486   2.463   2.909
 1289TIP3   OH2 3830   0.743   1.052   2.128
 1289TIP3    H1 3831   0.732   1.046   2.033
 1289TIP3    H2 3832   0.667   1.101   2.158
 1290TIP3   OH2 3833   4.108   1.560   3.409
 1290TIP3    H1 3834   4.119   1.602   3.494
 1290TIP3    H2 3835   4.188   1.582   3.361
 1291TIP3   OH2 3836   0.668   3.575   5.612
 1291TIP3    H1 3837   0.632   3.662   5.633
 1291TIP3    H2 3838   0.615   3.544   5.538
 1292TIP3   OH2 3839   2.127   1.271   2.888
 1292TIP3    H1 3840   2.059   1.220   2.931
 1292TIP3    H2 3841   2.178   1.308   2.959
 1293TIP3   OH2 3842   1.646   5.330   2.312
 1293TIP3    H1 3843   1.552   5.321   2.325
 1293TIP3    H2 3844   1.656   5.346   2.218
 1294TIP3   OH2 3845   4.048   5.128   3.693
 1294TIP3    H1 3846   4.061   5.091   3.780
 1294TIP3    H2 3847   3.956   5.157   3.693
 1295TIP3   OH2 3848   6.493   5.023   4.987
 1295TIP3    H1 3849   6.585   5.027   4.964
 1295TIP3    H2 3850   6.457   5.107   4.957
 1296TIP3   OH2 3851   6.807   5.567   2.669
 1296TIP3    H1 3852   6.828   5.475   2.654
 1296TIP3    H2 3853   6.730   5.583   2.614
 1297TIP3   OH2 3854   4.683   6.381   0.937
 1297TIP3    H1 3855   4.618   6.312   0.919
 1297TIP3    H2 3856   4.750   6.338   0.990
 1298TIP3   OH2 3857   6.275   5.203   4.913
 1298TIP3    H1 3858   6.283   5.285   4.961
 1298TIP3    H2 3859   6.207   5.154   4.961
 1299TIP3   OH2 3860   6.262   5.584   5.282
 1299TIP3    H1 3861   6.244   5.557   5.192
 1299TIP3    H2 3862   6.358   5.592   5.286
 1300TIP3   OH2 3863   1.783   6.394   1.425
 1300TIP3    H1 3864   1.810   6.439   1.505
 1300TIP3    H2 3865   1.795   6.459   1.355
 1301TIP3   OH2 3866   2.238   4.714   4.443
 1301TIP3    H1 3867   2.269   4.776   4.378
 1301TIP3    H2 3868   2.171   4.662   4.398
 1302TIP3   OH2 3869   2.003   1.566   1.758
 1302TIP3    H1 3870   2.025   1.496   1.819
 1302TIP3    H2 3871   1.979   1.640   1.814
 1303TIP3   OH2 3872   6.234   1.904   2.457
 1303TIP3    H1 3873   6.165   1.955   2.415
 1303TIP3    H2 3874   6.217   1.813   2.431
 1304TIP3   OH2 3875   4.698   1.439   4.576
 1304TIP3    H1 3876   4.610   1.470   4.595
 1304TIP3    H2 3877   4.754   1.482   4.641
 1305TIP3   OH2 3878   0.659   3.075   3.342
 1305TIP3    H1 3879   0.754   3.069   3.339
 1305TIP3    H2 3880   0.640   3.123   3.423
 1306TIP3   OH2 3881   1.994   4.579   3.815
 1306TIP3    H1 3882   2.078   4.546   3.783
 1306TIP3    H2 3883   1.929   4.515   3.785
 1307TIP3   OH2 3884   2.966   6.430   2.778
 1307TIP3    H1 3885   2.902   6.368   2.743
 1307TIP3    H2 3886   2.949   6.511   2.730
 1308TIP3   OH2 3887   4.987   2.536   0.582
 1308TIP3    H1 3888   4.949   2.450   0.562
 1308TIP3    H2 3889   5.081   2.519   0.588
 1309TIP3   OH2 3890   3.008   6.464   0.550
 1309TIP3    H1 3891   2.945   6.400   0.518
 1309TIP3    H2 3892   2.976   6.548   0.518
 1310TIP3   OH2 3893   0.723   5.248   3.034
 1310TIP3    H1 3894   0.639   5.263   3.076
 1310TIP3    H2 3895   0.737   5.327   2.981
 1311TIP3   OH2 3896   6.087   4.109   0.529
 1311TIP3    H1 3897   6.114   4.034   0.476
 1311TIP3    H2 3898   6.069   4.072   0.616
 1312TIP3   OH2 3899   0.748   6.708   5.335
 1312TIP3    H1 3900   0.679   6.713   5.269
 1312TIP3    H2 3901   0.826   6.743   5.291
 1313TIP3   OH2 3902   2.954   1.852   4.735
 1313TIP3    H1 3903   3.002   1.933   4.753
 1313TIP3    H2 3904   3.004   1.810   4.665
 1314TIP3   OH2 3905   5.387   5.407   2.900
 1314TIP3    H1 3906   5.396   5.315   2.874
 1314TIP3    H2 3907   5.460   5.422   2.960
 1315TIP3   OH2 3908   6.134   0.801   0.471
 1315TIP3    H1 3909   6.163   0.764   0.388
 1315TIP3    H2 3910   6.136   0.896   0.457
 1316TIP3   OH2 3911   1.285   2.415   0.712
 1316TIP3    H1 3912   1.238   2.463   0.643
 1316TIP3    H2 3913   1.300   2.328   0.674
 1317TIP3   OH2 3914   3.162   4.375   1.573
 1317TIP3    H1 3915   3.155   4.347   1.665
 1317TIP3    H2 3916   3.130   4.300   1.523
 1318TIP3   OH2 3917   5.363   6.501   3.793
 1318TIP3    H1 3918   5.321   6.546   3.867
 1318TIP3    H2 3919   5.295   6.445   3.757
 1319TIP3   OH2 3920   5.732   3.452   0.581
 1319TIP3    H1 3921   5.648   3.456   0.626
 1319TIP3    H2 3922   5.744   3.359   0.562
 1320TIP3   OH2 3923   4.839   4.676   5.444
 1320TIP3    H1 3924   4.915   4.686   5.386
 1320TIP3    H2 3925   4.832   4.760   5.489
 1321TIP3   OH2 3926   1.511   6.763   3.844
 1321TIP3    H1 3927   1.483   6.853   3.860
 1321TIP3    H2 3928   1.570   6.743   3.917
 1322TIP3   OH2 3929   4.637   3.800   3.875
 1322TIP3    H1 3930   4.664   3.849   3.797
 1322TIP3    H2 3931   4.594   3.864   3.931
 1323TIP3   OH2 3932   4.534   4.463   2.906
 1323TIP3    H1 3933   4.500   4.517   2.977
 1323TIP3    H2 3934   4.626   4.451   2.927
 1324TIP3   OH2 3935   2.470   6.073   2.440
 1324TIP3    H1 3936   2.383   6.035   2.431
 1324TIP3    H2 3937   2.479   6.131   2.365
 1325TIP3   OH2 3938   1.618   5.300   5.707
 1325TIP3    H1 3939   1.645   5.373   5.652
 1325TIP3    H2 3940   1.524   5.290   5.691
 1326TIP3   OH2 3941   1.946   5.850   0.914
 1326TIP3    H1 3942   1.911   5.826   1.000
 1326TIP3    H2 3943   2.017   5.787   0.899
 1327TIP3   OH2 3944   6.246   6.750   4.473
 1327TIP3    H1 3945   6.188   6.823   4.454
 1327TIP3    H2 3946   6.331   6.777   4.437
 1328TIP3   OH2 3947   5.697   1.949   3.364
 1328TIP3    H1 3948   5.724   2.018   3.304
 1328TIP3    H2 3949   5.772   1.890   3.369
 1329TIP3   OH2 3950   0.631   1.660   4.485
 1329TIP3    H1 3951   0.543   1.651   4.523
 1329TIP3    H2 3952   0.615   1.689   4.395
 1330TIP3   OH2 3953   3.100   6.647   3.862
 1330TIP3    H1 3954   3.036   6.640   3.933
 1330TIP3    H2 3955   3.155   6.569   3.872
 1331TIP3   OH2 3956   0.463   2.797   1.179
 1331TIP3    H1 3957   0.420   2.747   1.248
 1331TIP3    H2 3958   0.527   2.737   1.141
 1332TIP3   OH2 3959   3.442   4.644   1.717
 1332TIP3    H1 3960   3.513   4.696   1.754
 1332TIP3    H2 3961   3.485   4.577   1.665
 1333TIP3   OH2 3962   5.179   3.387   4.726
 1333TIP3    H1 3963   5.165   3.432   4.809
 1333TIP3    H2 3964   5.144   3.447   4.660
 1334TIP3   OH2 3965   2.175   2.420   4.313
 1334TIP3    H1 3966   2.206   2.331   4.326
 1334TIP3    H2 3967   2.082   2.410   4.291
 1335TIP3   OH2 3968   4.259   4.243   5.594
 1335TIP3    H1 3969   4.308   4.311   5.640
 1335TIP3    H2 3970   4.196   4.210   5.658
 1336TIP3   OH2 3971   2.741   6.368   3.561
 1336TIP3    H1 3972   2.762   6.330   3.475
 1336TIP3    H2 3973   2.716   6.459   3.542
 1337TIP3   OH2 3974   0.945   5.298   2.869
 1337TIP3    H1 3975   0.940   5.393   2.878
 1337TIP3    H2 3976   0.971   5.267   2.956
 1338TIP3   OH2 3977   3.588   4.850   2.463
 1338TIP3    H1 3978   3.499   4.848   2.496
 1338TIP3    H2 3979   3.599   4.766   2.417
 1339TIP3   OH2 3980   2.827   4.897   3.988
 1339TIP3    H1 3981   2.744   4.917   4.030
 1339TIP3    H2 3982   2.894   4.930   4.048
 1340TIP3   OH2 3983   1.592   0.375   2.752
 1340TIP3    H1 3984   1.503   0.368   2.786
 1340TIP3    H2 3985   1.647   0.337   2.821
 1341TIP3   OH2 3986   1.994   3.927   5.733
 1341TIP3    H1 3987   1.899   3.923   5.744
 1341TIP3    H2 3988   2.014   4.021   5.730
 1342TIP3   OH2 3989   2.985   0.691   3.055
 1342TIP3    H1 3990   3.065   0.651   3.022
 1342TIP3    H2 3991   2.940   0.725   2.978
 1343TIP3   OH2 3992   2.577   6.279   0.758
 1343TIP3    H1 3993   2.662   6.267   0.799
 1343TIP3    H2 3994   2.569   6.374   0.746
 1344TIP3   OH2 3995   4.148   3.823   1.020
 1344TIP3    H1 3996   4.091   3.776   0.960
 1344TIP3    H2 3997   4.127   3.787   1.106
 1345TIP3   OH2 3998   0.708   4.407   4.197
 1345TIP3    H1 3999   0.708   4.431   4.104
 1345TIP3    H2 4000   0.712   4.311   4.197
 1346TIP3   OH2 4001   1.053   0.887   4.717
 1346TIP3    H1 4002   1.014   0.844   4.641
 1346TIP3    H2 4003   1.000   0.966   4.729
 1347TIP3   OH2 4004   3.061   4.108   5.779
 1347TIP3    H1 4005   3.094   4.044   5.842
 1347TIP3    H2 4006   2.966   4.096   5.780
 1348TIP3   OH2 4007   0.743   3.723   3.802
 1348TIP3    H1 4008   0.692   3.755   3.876
 1348TIP3    H2 4009   0.827   3.697   3.840
 1349TIP3   OH2 4010   4.251   0.196   2.432
 1349TIP3    H1 4011   4.345   0.217   2.433
 1349TIP3    H2 4012   4.210   0.269   2.478
 1350TIP3   OH2 4013   2.096   2.671   4.083
 1350TIP3    H1 4014   2.063   2.587   4.115
 1350TIP3    H2 4015   2.134   2.713   4.160
 1351TIP3   OH2 4016   6.685   0.267   0.174
 1351TIP3    H1 4017   6.624   0.200   0.205
 1351TIP3    H2 4018   6.762   0.258   0.231
 1352TIP3   OH2 4019   4.434   4.689   5.180
 1352TIP3    H1 4020   4.394   4.775   5.191
 1352TIP3    H2 4021   4.451   4.659   5.270
 1353TIP3   OH2 4022   1.125   5.637   1.192
 1353TIP3    H1 4023   1.091   5.680   1.271
 1353TIP3    H2 4024   1.126   5.707   1.126
 1354TIP3   OH2 4025   6.451   0.140   0.265
 1354TIP3    H1 4026   6.502   0.097   0.334
 1354TIP3    H2 4027   6.370   0.090   0.261
 1355TIP3   OH2 4028   4.099   1.585   1.887
 1355TIP3    H1 4029   4.052   1.651   1.937
 1355TIP3    H2 4030   4.116   1.627   1.802
 1356TIP3   OH2 4031   3.315   0.127   2.546
 1356TIP3    H1 4032   3.382   0.195   2.557
 1356TIP3    H2 4033   3.361   0.046   2.566
 1357TIP3   OH2 4034   7.047   2.825   3.756
 1357TIP3    H1 4035   6.963   2.817   3.802
 1357TIP3    H2 4036   7.094   2.745   3.779
 1358TIP3   OH2 4037   0.270   3.655   4.439
 1358TIP3    H1 4038   0.204   3.624   4.501
 1358TIP3    H2 4039   0.319   3.721   4.488
 1359TIP3   OH2 4040   3.436   0.829   3.071
 1359TIP3    H1 4041   3.347   0.865   3.074
 1359TIP3    H2 4042   3.478   0.864   3.150
 1360TIP3   OH2 4043   3.288   0.434   2.237
 1360TIP3    H1 4044   3.374   0.442   2.196
 1360TIP3    H2 4045   3.271   0.521   2.273
 1361TIP3   OH2 4046   3.150   1.528   1.443
 1361TIP3    H1 4047   3.105   1.449   1.415
 1361TIP3    H2 4048   3.163   1.516   1.537
 1362TIP3   OH2 4049   4.181   4.195   4.279
 1362TIP3    H1 4050   4.242   4.241   4.338
 1362TIP3    H2 4051   4.105   4.176   4.334
 1363TIP3   OH2 4052   1.296   0.393   3.609
 1363TIP3    H1 4053   1.228   0.377   3.543
 1363TIP3    H2 4054   1.327   0.306   3.633
 1364TIP3   OH2 4055   1.826   6.606   1.580
 1364TIP3    H1 4056   1.920   6.600   1.593
 1364TIP3    H2 4057   1.801   6.689   1.620
 1365TIP3   OH2 4058   0.361   1.010   0.343
 1365TIP3    H1 4059   0.305   0.962   0.281
 1365TIP3    H2 4060   0.354   0.960   0.425
 1366TIP3   OH2 4061   4.079   5.723   5.815
 1366TIP3    H1 4062   4.149   5.700   5.877
 1366TIP3    H2 4063   4.038   5.800   5.853
 1367TIP3   OH2 4064   7.064   0.436   1.806
 1367TIP3    H1 4065   6.998   0.376   1.772
 1367TIP3    H2 4066   7.079   0.498   1.734
 1368TIP3   OH2 4067   3.372   1.377   0.664
 1368TIP3    H1 4068   3.415   1.352   0.583
 1368TIP3    H2 4069   3.313   1.448   0.639
 1369TIP3   OH2 4070   3.003   4.150   1.019
 1369TIP3    H1 4071   3.047   4.215   0.965
 1369TIP3    H2 4072   2.997   4.191   1.106
 1370TIP3   OH2 4073   5.648   4.324   2.005
 1370TIP3    H1 4074   5.726   4.314   1.950
 1370TIP3    H2 4075   5.575   4.319   1.944
 1371TIP3   OH2 4076   5.293   4.279   2.081
 1371TIP3    H1 4077   5.206   4.318   2.073
 1371TIP3    H2 4078   5.276   4.189   2.109
 1372TIP3   OH2 4079   2.932   1.878   2.369
 1372TIP3    H1 4080   2.884   1.951   2.410
 1372TIP3    H2 4081   2.996   1.852   2.435
 1373TIP3   OH2 4082   6.050   6.595   4.760
 1373TIP3    H1 4083   6.056   6.677   4.808
 1373TIP3    H2 4084   5.970   6.603   4.708
 1374TIP3   OH2 4085   0.403   5.777   0.270
 1374TIP3    H1 4086   0.456   5.765   0.191
 1374TIP3    H2 4087   0.330   5.833   0.241
 1375TIP3   OH2 4088   0.369   4.024   3.590
 1375TIP3    H1 4089   0.329   4.106   3.619
 1375TIP3    H2 4090   0.301   3.981   3.538
 1376TIP3   OH2 4091   3.227   2.139   5.504
 1376TIP3    H1 4092   3.297   2.089   5.462
 1376TIP3    H2 4093   3.146   2.099   5.471
 1377TIP3   OH2 4094   2.962   5.264   3.554
 1377TIP3    H1 4095   2.908   5.189   3.580
 1377TIP3    H2 4096   3.045   5.226   3.527
 1378TIP3   OH2 4097   1.172   2.102   0.956
 1378TIP3    H1 4098   1.185   2.157   1.033
 1378TIP3    H2 4099   1.081   2.073   0.963
 1379TIP3   OH2 4100   5.512   4.725   0.693
 1379TIP3    H1 4101   5.554   4.651   0.650
 1379TIP3    H2 4102   5.564   4.801   0.668
 1380TIP3   OH2 4103   0.122   6.535   3.827
 1380TIP3    H1 4104   0.091   6.445   3.811
 1380TIP3    H2 4105   0.205   6.540   3.778
 1381TIP3   OH2 4106   5.947   2.686   5.167
 1381TIP3    H1 4107   5.988   2.766   5.201
 1381TIP3    H2 4108   5.853   2.704   5.171
 1382TIP3   OH2 4109   6.204   3.234   2.606
 1382TIP3    H1 4110   6.212   3.324   2.637
 1382TIP3    H2 4111   6.219   3.240   2.512
 1383TIP3   OH2 4112   2.715   4.802   3.162
 1383TIP3    H1 4113   2.777   4.868   3.190
 1383TIP3    H2 4114   2.743   4.721   3.205
 1384TIP3   OH2 4115   0.497   0.899   0.056
 1384TIP3    H1 4116   0.424   0.837   0.053
 1384TIP3    H2 4117   0.516   0.909   0.150
 1385TIP3   OH2 4118   2.143   4.165   1.073
 1385TIP3    H1 4119   2.132   4.178   0.978
 1385TIP3    H2 4120   2.236   4.150   1.084
 1386TIP3   OH2 4121   3.391   2.564   0.975
 1386TIP3    H1 4122   3.388   2.657   0.998
 1386TIP3    H2 4123   3.475   2.553   0.930
 1387TIP3   OH2 4124   0.490   1.125   1.250
 1387TIP3    H1 4125   0.467   1.057   1.187
 1387TIP3    H2 4126   0.407   1.165   1.274
 1388TIP3   OH2 4127   0.398   6.760   2.877
 1388TIP3    H1 4128   0.391   6.840   2.824
 1388TIP3    H2 4129   0.321   6.709   2.852
 1389TIP3   OH2 4130   1.633   3.822   1.018
 1389TIP3    H1 4131   1.571   3.816   1.091
 1389TIP3    H2 4132   1.693   3.748   1.031
 1390TIP3   OH2 4133   4.919   4.362   5.675
 1390TIP3    H1 4134   4.919   4.390   5.584
 1390TIP3    H2 4135   4.869   4.280   5.675
 1391TIP3   OH2 4136   4.054   5.415   3.334
 1391TIP3    H1 4137   4.009   5.420   3.250
 1391TIP3    H2 4138   4.092   5.327   3.336
 1392TIP3   OH2 4139   7.232   5.221   1.421
 1392TIP3    H1 4140   7.137   5.223   1.428
 1392TIP3    H2 4141   7.262   5.279   1.491
 1393TIP3   OH2 4142   0.422   4.330   0.784
 1393TIP3    H1 4143   0.388   4.297   0.701
 1393TIP3    H2 4144   0.462   4.414   0.762
 1394TIP3   OH2 4145   6.261   0.654   2.738
 1394TIP3    H1 4146   6.350   0.643   2.705
 1394TIP3    H2 4147   6.267   0.728   2.798
 1395TIP3   OH2 4148   5.837   2.205   3.463
 1395TIP3    H1 4149   5.838   2.291   3.506
 1395TIP3    H2 4150   5.881   2.147   3.526
 1396TIP3   OH2 4151   2.739   3.554   2.274
 1396TIP3    H1 4152   2.662   3.509   2.308
 1396TIP3    H2 4153   2.741   3.531   2.181
 1397TIP3   OH2 4154   4.282   0.746   0.778
 1397TIP3    H1 4155   4.274   0.792   0.862
 1397TIP3    H2 4156   4.346   0.677   0.795
 1398TIP3   OH2 4157   6.336   2.717   1.498
 1398TIP3    H1 4158   6.375   2.631   1.513
 1398TIP3    H2 4159   6.250   2.697   1.462
 1399TIP3   OH2 4160   6.116   2.480   0.757
 1399TIP3    H1 4161   6.159   2.556   0.719
 1399TIP3    H2 4162   6.039   2.515   0.801
 1400TIP3   OH2 4163   5.822   6.393   3.049
 1400TIP3    H1 4164   5.876   6.435   3.116
 1400TIP3    H2 4165   5.744   6.448   3.042
 1401TIP3   OH2 4166   0.097   5.798   3.079
 1401TIP3    H1 4167   0.048   5.872   3.116
 1401TIP3    H2 4168   0.173   5.839   3.037
 1402TIP3   OH2 4169   2.108   5.701   2.920
 1402TIP3    H1 4170   2.192   5.660   2.898
 1402TIP3    H2 4171   2.132   5.782   2.966
 1403TIP3   OH2 4172   3.789   0.558   4.550
 1403TIP3    H1 4173   3.726   0.568   4.621
 1403TIP3    H2 4174   3.855   0.498   4.584
 1404TIP3   OH2 4175   5.965   0.674   4.391
 1404TIP3    H1 4176   5.972   0.630   4.306
 1404TIP3    H2 4177   5.910   0.616   4.444
 1405TIP3   OH2 4178   0.540   6.646   1.326
 1405TIP3    H1 4179   0.558   6.674   1.416
 1405TIP3    H2 4180   0.454   6.685   1.306
 1406TIP3   OH2 4181   4.981   2.162   2.546
 1406TIP3    H1 4182   4.905   2.127   2.593
 1406TIP3    H2 4183   4.945   2.229   2.488
 1407TIP3   OH2 4184   7.105   3.304   0.825
 1407TIP3    H1 4185   7.151   3.261   0.752
 1407TIP3    H2 4186   7.148   3.271   0.903
 1408TIP3   OH2 4187   0.063   5.831   0.760
 1408TIP3    H1 4188   0.105   5.869   0.683
 1408TIP3    H2 4189   0.056   5.737   0.740
 1409TIP3   OH2 4190   1.418   5.505   3.986
 1409TIP3    H1 4191   1.472   5.581   3.967
 1409TIP3    H2 4192   1.389   5.518   4.077
 1410TIP3   OH2 4193   3.562   5.315   2.458
 1410TIP3    H1 4194   3.629   5.374   2.423
 1410TIP3    H2 4195   3.526   5.272   2.381
 1411TIP3   OH2 4196   3.356   2.020   4.029
 1411TIP3    H1 4197   3.275   1.989   4.069
 1411TIP3    H2 4198   3.338   2.110   4.002
 1412TIP3   OH2 4199   7.250   5.104   1.836
 1412TIP3    H1 4200   7.264   5.150   1.919
 1412TIP3    H2 4201   7.229   5.014   1.863
 1413TIP3   OH2 4202   3.825   0.215   4.217
 1413TIP3    H1 4203   3.844   0.168   4.298
 1413TIP3    H2 4204   3.898   0.192   4.159
 1414TIP3   OH2 4205   3.030   0.268   3.498
 1414TIP3    H1 4206   2.947   0.295   3.536
 1414TIP3    H2 4207   3.046   0.181   3.535
 1415TIP3   OH2 4208   6.286   1.273   1.083
 1415TIP3    H1 4209   6.327   1.260   0.998
 1415TIP3    H2 4210   6.335   1.346   1.122
 1416TIP3   OH2 4211   4.971   4.945   2.180
 1416TIP3    H1 4212   4.920   5.004   2.236
 1416TIP3    H2 4213   4.919   4.864   2.177
 1417TIP3   OH2 4214   1.410   2.137   5.209
 1417TIP3    H1 4215   1.408   2.077   5.134
 1417TIP3    H2 4216   1.320   2.135   5.242
 1418TIP3   OH2 4217   3.427   4.782   5.284
 1418TIP3    H1 4218   3.481   4.839   5.230
 1418TIP3    H2 4219   3.461   4.694   5.268
 1419TIP3   OH2 4220   2.848   3.731   1.441
 1419TIP3    H1 4221   2.910   3.660   1.431
 1419TIP3    H2 4222   2.902   3.809   1.451
 1420TIP3   OH2 4223   5.979   0.915   3.831
 1420TIP3    H1 4224   5.989   0.833   3.784
 1420TIP3    H2 4225   6.007   0.982   3.769
 1421TIP3   OH2 4226   2.562   6.458   1.692
 1421TIP3    H1 4227   2.637   6.422   1.645
 1421TIP3    H2 4228   2.568   6.419   1.780
 1422TIP3   OH2 4229   1.523   4.622   5.210
 1422TIP3    H1 4230   1.441   4.581   5.183
 1422TIP3    H2 4231   1.589   4.554   5.195
 1423TIP3   OH2 4232   2.548   0.464   4.659
 1423TIP3    H1 4233   2.479   0.398   4.670
 1423TIP3    H2 4234   2.540   0.520   4.736
 1424TIP3   OH2 4235   6.907   0.819   3.836
 1424TIP3    H1 4236   6.879   0.906   3.864
 1424TIP3    H2 4237   6.995   0.809   3.872
 1425TIP3   OH2 4238   6.552   2.309   3.403
 1425TIP3    H1 4239   6.604   2.230   3.388
 1425TIP3    H2 4240   6.585   2.345   3.485
 1426TIP3   OH2 4241   6.922   6.280   1.625
 1426TIP3    H1 4242   6.970   6.224   1.686
 1426TIP3    H2 4243   6.899   6.223   1.552
 1427TIP3   OH2 4244   5.171   0.491   4.570
 1427TIP3    H1 4245   5.210   0.410   4.600
 1427TIP3    H2 4246   5.183   0.552   4.643
 1428TIP3   OH2 4247   4.625   4.303   3.206
 1428TIP3    H1 4248   4.712   4.272   3.231
 1428TIP3    H2 4249   4.599   4.360   3.279
 1429TIP3   OH2 4250   0.098   5.273   0.088
 1429TIP3    H1 4251   0.020   5.274   0.143
 1429TIP3    H2 4252   0.079   5.334   0.017
 1430TIP3   OH2 4253   1.115   4.331   5.036
 1430TIP3    H1 4254   1.150   4.280   4.963
 1430TIP3    H2 4255   1.098   4.266   5.104
 1431TIP3   OH2 4256   5.912   2.061   0.070
 1431TIP3    H1 4257   5.864   2.110   0.003
 1431TIP3    H2 4258   5.985   2.021   0.022
 1432TIP3   OH2 4259   6.664   1.825   2.634
 1432TIP3    H1 4260   6.619   1.864   2.559
 1432TIP3    H2 4261   6.599   1.827   2.705
 1433TIP3   OH2 4262   5.942   2.786   1.700
 1433TIP3    H1 4263   5.899   2.709   1.737
 1433TIP3    H2 4264   5.877   2.856   1.709
 1434TIP3   OH2 4265   5.034   3.787   2.305
 1434TIP3    H1 4266   5.057   3.857   2.245
 1434TIP3    H2 4267   4.988   3.830   2.377
 1435TIP3   OH2 4268   3.269   0.849   5.245
 1435TIP3    H1 4269   3.322   0.778   5.280
 1435TIP3    H2 4270   3.291   0.852   5.152
 1436TIP3   OH2 4271   1.552   1.679   0.035
 1436TIP3    H1 4272   1.523   1.674   0.126
 1436TIP3    H2 4273   1.565   1.588   0.008
 1437TIP3   OH2 4274   4.418   1.775   2.416
 1437TIP3    H1 4275   4.374   1.775   2.501
 1437TIP3    H2 4276   4.425   1.868   2.393
 1438TIP3   OH2 4277   5.470   0.134   1.059
 1438TIP3    H1 4278   5.438   0.123   0.970
 1438TIP3    H2 4279   5.554   0.179   1.049
 1439TIP3   OH2 4280   2.827   2.988   4.895
 1439TIP3    H1 4281   2.789   3.025   4.815
 1439TIP3    H2 4282   2.921   2.981   4.877
 1440TIP3   OH2 4283   4.049   6.300   4.635
 1440TIP3    H1 4284   4.020   6.384   4.669
 1440TIP3    H2 4285   4.053   6.243   4.712
 1441TIP3   OH2 4286   6.387   3.039   1.259
 1441TIP3    H1 4287   6.327   3.059   1.331
 1441TIP3    H2 4288   6.452   2.980   1.298
 1442TIP3   OH2 4289   1.770   6.464   0.589
 1442TIP3    H1 4290   1.704   6.399   0.612
 1442TIP3    H2 4291   1.843   6.413   0.555
 1443TIP3   OH2 4292   2.112   6.592   1.626
 1443TIP3    H1 4293   2.123   6.674   1.674
 1443TIP3    H2 4294   2.115   6.617   1.534
 1444TIP3   OH2 4295   1.316   0.979   3.549
 1444TIP3    H1 4296   1.252   1.033   3.503
 1444TIP3    H2 4297   1.286   0.979   3.640
 1445TIP3   OH2 4298   6.242   4.227   5.699
 1445TIP3    H1 4299   6.167   4.232   5.640
 1445TIP3    H2 4300   6.208   4.249   5.785
 1446TIP3   OH2 4301   5.990   4.455   1.979
 1446TIP3    H1 4302   6.075   4.464   1.935
 1446TIP3    H2 4303   5.930   4.506   1.925
 1447TIP3   OH2 4304   0.797   4.074   0.882
 1447TIP3    H1 4305   0.852   4.108   0.811
 1447TIP3    H2 4306   0.851   4.006   0.923
 1448TIP3   OH2 4307   2.072   4.382   4.784
 1448TIP3    H1 4308   2.089   4.356   4.694
 1448TIP3    H2 4309   1.981   4.412   4.784
 1449TIP3   OH2 4310   2.897   2.458   1.696
 1449TIP3    H1 4311   2.933   2.382   1.742
 1449TIP3    H2 4312   2.855   2.510   1.765
 1450TIP3   OH2 4313   0.702   2.568   5.352
 1450TIP3    H1 4314   0.768   2.630   5.384
 1450TIP3    H2 4315   0.660   2.613   5.279
 1451TIP3   OH2 4316   2.622   0.091   3.230
 1451TIP3    H1 4317   2.630   0.149   3.155
 1451TIP3    H2 4318   2.547   0.035   3.209
 1452TIP3   OH2 4319   0.191   6.366   1.126
 1452TIP3    H1 4320   0.159   6.279   1.151
 1452TIP3    H2 4321   0.238   6.398   1.203
 1453TIP3   OH2 4322   4.877   6.008   2.512
 1453TIP3    H1 4323   4.861   5.997   2.418
 1453TIP3    H2 4324   4.833   5.933   2.552
 1454TIP3   OH2 4325   6.077   6.805   4.935
 1454TIP3    H1 4326   6.014   6.865   4.975
 1454TIP3    H2 4327   6.104   6.747   5.006
 1455TIP3   OH2 4328   6.258   3.015   3.460
 1455TIP3    H1 4329   6.265   3.073   3.384
 1455TIP3    H2 4330   6.253   3.074   3.535
 1456TIP3   OH2 4331   0.184   0.010   3.179
 1456TIP3    H1 4332   0.244  -0.037   3.121
 1456TIP3    H2 4333   0.237   0.034   3.255
 1457TIP3   OH2 4334   6.950   4.679   2.923
 1457TIP3    H1 4335   6.873   4.734   2.908
 1457TIP3    H2 4336   7.008   4.735   2.976
 1458TIP3   OH2 4337   0.626   3.880   5.645
 1458TIP3    H1 4338   0.700   3.925   5.606
 1458TIP3    H2 4339   0.549   3.927   5.613
 1459TIP3   OH2 4340   6.985   4.793   2.568
 1459TIP3    H1 4341   6.925   4.806   2.641
 1459TIP3    H2 4342   6.990   4.878   2.525
 1460TIP3   OH2 4343   4.870   4.900   1.516
 1460TIP3    H1 4344   4.852   4.971   1.577
 1460TIP3    H2 4345   4.930   4.842   1.564
 1461TIP3   OH2 4346   5.312   5.546   3.579
 1461TIP3    H1 4347   5.374   5.600   3.627
 1461TIP3    H2 4348   5.344   5.457   3.589
 1462TIP3   OH2 4349   5.556   2.894   4.616
 1462TIP3    H1 4350   5.598   2.818   4.575
 1462TIP3    H2 4351   5.465   2.889   4.588
 1463TIP3   OH2 4352   6.035   1.397   2.896
 1463TIP3    H1 4353   6.024   1.306   2.868
 1463TIP3    H2 4354   5.983   1.404   2.976
 1464TIP3   OH2 4355   0.536   3.899   1.329
 1464TIP3    H1 4356   0.490   3.912   1.412
 1464TIP3    H2 4357   0.467   3.892   1.264
 1465TIP3   OH2 4358   7.120   0.278   4.197
 1465TIP3    H1 4359   7.052   0.261   4.132
 1465TIP3    H2 4360   7.073   0.317   4.271
 1466TIP3   OH2 4361   3.275   2.533   2.476
 1466TIP3    H1 4362   3.266   2.581   2.394
 1466TIP3    H2 4363   3.306   2.447   2.451
 1467TIP3   OH2 4364   1.448   0.704   1.758
 1467TIP3    H1 4365   1.497   0.671   1.834
 1467TIP3    H2 4366   1.359   0.673   1.773
 1468TIP3   OH2 4367   4.471   2.889   1.532
 1468TIP3    H1 4368   4.417   2.811   1.518
 1468TIP3    H2 4369   4.553   2.870   1.487
 1469TIP3   OH2 4370   4.967   4.515   4.344
 1469TIP3    H1 4371   4.900   4.510   4.276
 1469TIP3    H2 4372   4.926   4.478   4.422
 1470TIP3   OH2 4373   5.355   4.671   5.141
 1470TIP3    H1 4374   5.365   4.672   5.236
 1470TIP3    H2 4375   5.332   4.761   5.118
 1471TIP3   OH2 4376   3.586   3.306   0.619
 1471TIP3    H1 4377   3.676   3.299   0.652
 1471TIP3    H2 4378   3.539   3.353   0.688
 1472TIP3   OH2 4379   3.214   0.217   4.447
 1472TIP3    H1 4380   3.138   0.170   4.413
 1472TIP3    H2 4381   3.178   0.294   4.490
 1473TIP3   OH2 4382   4.835   4.087   1.439
 1473TIP3    H1 4383   4.768   4.109   1.503
 1473TIP3    H2 4384   4.864   3.999   1.465
 1474TIP3   OH2 4385   2.386   1.366   0.056
 1474TIP3    H1 4386   2.458   1.306   0.075
 1474TIP3    H2 4387   2.399   1.389  -0.036
 1475TIP3   OH2 4388   0.912   1.312   5.437
 1475TIP3    H1 4389   0.868   1.346   5.360
 1475TIP3    H2 4390   0.917   1.217   5.423
 1476TIP3   OH2 4391   5.423   5.992   1.357
 1476TIP3    H1 4392   5.490   6.055   1.382
 1476TIP3    H2 4393   5.346   6.046   1.336
 1477TIP3   OH2 4394   3.519   1.021   3.427
 1477TIP3    H1 4395   3.524   1.069   3.344
 1477TIP3    H2 4396   3.570   0.942   3.413
 1478TIP3   OH2 4397   6.539   0.506   2.007
 1478TIP3    H1 4398   6.609   0.441   1.999
 1478TIP3    H2 4399   6.542   0.533   2.099
 1479TIP3   OH2 4400   4.198   0.504   3.802
 1479TIP3    H1 4401   4.160   0.558   3.871
 1479TIP3    H2 4402   4.223   0.567   3.734
 1480TIP3   OH2 4403   2.627   4.394   5.480
 1480TIP3    H1 4404   2.557   4.422   5.422
 1480TIP3    H2 4405   2.699   4.454   5.461
 1481TIP3   OH2 4406   6.337   0.810   1.269
 1481TIP3    H1 4407   6.356   0.776   1.182
 1481TIP3    H2 4408   6.272   0.750   1.305
 1482TIP3   OH2 4409   2.627   5.273   3.581
 1482TIP3    H1 4410   2.662   5.191   3.545
 1482TIP3    H2 4411   2.605   5.325   3.504
 1483TIP3   OH2 4412   6.462   5.026   0.170
 1483TIP3    H1 4413   6.459   4.971   0.248
 1483TIP3    H2 4414   6.529   4.986   0.114
 1484TIP3   OH2 4415   5.654   0.077   5.332
 1484TIP3    H1 4416   5.688  -0.011   5.317
 1484TIP3    H2 4417   5.702   0.109   5.408
 1485TIP3   OH2 4418   5.459   5.261   4.624
 1485TIP3    H1 4419   5.504   5.178   4.614
 1485TIP3    H2 4420   5.515   5.325   4.579
 1486TIP3   OH2 4421   5.656   5.853   1.811
 1486TIP3    H1 4422   5.711   5.818   1.881
 1486TIP3    H2 4423   5.607   5.924   1.852
 1487TIP3   OH2 4424   5.160   5.470   5.567
 1487TIP3    H1 4425   5.171   5.409   5.640
 1487TIP3    H2 4426   5.086   5.435   5.517
 1488TIP3   OH2 4427   2.652   5.437   4.881
 1488TIP3    H1 4428   2.712   5.375   4.841
 1488TIP3    H2 4429   2.584   5.451   4.815
 1489TIP3   OH2 4430   3.794   1.683   1.365
 1489TIP3    H1 4431   3.837   1.768   1.370
 1489TIP3    H2 4432   3.866   1.620   1.362
 1490TIP3   OH2 4433   0.249   2.469   3.277
 1490TIP3    H1 4434   0.237   2.564   3.274
 1490TIP3    H2 4435   0.273   2.451   3.368
 1491TIP3   OH2 4436   4.962   2.946   1.860
 1491TIP3    H1 4437   4.932   3.017   1.916
 1491TIP3    H2 4438   5.010   2.988   1.789
 1492TIP3   OH2 4439   1.684   3.412   4.385
 1492TIP3    H1 4440   1.724   3.410   4.472
 1492TIP3    H2 4441   1.750   3.453   4.329
 1493TIP3   OH2 4442   0.233   3.925   0.426
 1493TIP3    H1 4443   0.180   3.929   0.346
 1493TIP3    H2 4444   0.256   3.832   0.434
 1494TIP3   OH2 4445   1.015   6.415   0.524
 1494TIP3    H1 4446   0.982   6.504   0.511
 1494TIP3    H2 4447   1.032   6.409   0.618
 1495TIP3   OH2 4448   5.118   6.385   1.088
 1495TIP3    H1 4449   5.210   6.392   1.116
 1495TIP3    H2 4450   5.072   6.351   1.165
 1496TIP3   OH2 4451   5.621   1.306   4.635
 1496TIP3    H1 4452   5.652   1.311   4.544
 1496TIP3    H2 4453   5.698   1.282   4.685
 1497TIP3   OH2 4454   0.660   3.308   0.568
 1497TIP3    H1 4455   0.577   3.321   0.522
 1497TIP3    H2 4456   0.722   3.286   0.499
 1498TIP3   OH2 4457   0.032   1.484   4.644
 1498TIP3    H1 4458   0.062   1.462   4.556
 1498TIP3    H2 4459   0.006   1.400   4.682
 1499TIP3   OH2 4460   2.833   2.061   2.534
 1499TIP3    H1 4461   2.872   2.148   2.544
 1499TIP3    H2 4462   2.766   2.058   2.602
 1500TIP3   OH2 4463   4.628   0.231   4.925
 1500TIP3    H1 4464   4.670   0.146   4.912
 1500TIP3    H2 4465   4.589   0.226   5.013
 1501TIP3   OH2 4466   0.627   1.270   3.955
 1501TIP3    H1 4467   0.690   1.310   4.015
 1501TIP3    H2 4468   0.656   1.179   3.947
 1502TIP3   OH2 4469   1.899   1.010   4.025
 1502TIP3    H1 4470   1.805   1.018   4.039
 1502TIP3    H2 4471   1.919   0.920   4.050
 1503TIP3   OH2 4472   2.637   4.011   1.609
 1503TIP3    H1 4473   2.692   3.994   1.685
 1503TIP3    H2 4474   2.697   4.011   1.535
 1504TIP3   OH2 4475   7.067   3.531   4.353
 1504TIP3    H1 4476   6.986   3.480   4.358
 1504TIP3    H2 4477   7.131   3.471   4.315
 1505TIP3   OH2 4478   3.589   6.313   4.160
 1505TIP3    H1 4479   3.622   6.365   4.233
 1505TIP3    H2 4480   3.625   6.355   4.082
 1506TIP3   OH2 4481   6.224   0.735   4.425
 1506TIP3    H1 4482   6.258   0.663   4.371
 1506TIP3    H2 4483   6.130   0.736   4.408
 1507TIP3   OH2 4484   5.078   3.054   3.600
 1507TIP3    H1 4485   5.123   3.135   3.575
 1507TIP3    H2 4486   5.148   2.992   3.619
 1508TIP3   OH2 4487   2.127   5.782   1.700
 1508TIP3    H1 4488   2.060   5.796   1.633
 1508TIP3    H2 4489   2.200   5.839   1.674
 1509TIP3   OH2 4490   4.285   0.855   3.301
 1509TIP3    H1 4491   4.281   0.876   3.394
 1509TIP3    H2 4492   4.205   0.804   3.284
 1510TIP3   OH2 4493   3.589   3.334   0.355
 1510TIP3    H1 4494   3.585   3.347   0.450
 1510TIP3    H2 4495   3.559   3.417   0.319
 1511TIP3   OH2 4496   5.067   3.138   2.843
 1511TIP3    H1 4497   4.975   3.162   2.837
 1511TIP3    H2 4498   5.091   3.111   2.754
 1512TIP3   OH2 4499   6.103   3.818   4.042
 1512TIP3    H1 4500   6.184   3.832   4.091
 1512TIP3    H2 4501   6.123   3.851   3.954
 1513TIP3   OH2 4502   0.125   0.951   2.862
 1513TIP3    H1 4503   0.093   1.029   2.816
 1513TIP3    H2 4504   0.099   0.878   2.806
 1514TIP3   OH2 4505   0.316   0.861   5.346
 1514TIP3    H1 4506   0.379   0.873   5.276
 1514TIP3    H2 4507   0.234   0.895   5.310
 1515TIP3   OH2 4508   0.711   1.587   4.735
 1515TIP3    H1 4509   0.630   1.585   4.785
 1515TIP3    H2 4510   0.683   1.605   4.645
 1516TIP3   OH2 4511   6.062   1.902   0.730
 1516TIP3    H1 4512   6.013   1.871   0.654
 1516TIP3    H2 4513   6.063   1.997   0.721
 1517TIP3   OH2 4514   5.633   4.761   4.681
 1517TIP3    H1 4515   5.600   4.838   4.728
 1517TIP3    H2 4516   5.607   4.775   4.590
 1518TIP3   OH2 4517   3.921   5.443   3.049
 1518TIP3    H1 4518   3.836   5.486   3.038
 1518TIP3    H2 4519   3.961   5.447   2.962
 1519TIP3   OH2 4520   0.053   2.857   0.665
 1519TIP3    H1 4521  -0.024   2.869   0.720
 1519TIP3    H2 4522   0.126   2.883   0.720
 1520TIP3   OH2 4523   1.090   6.530   2.391
 1520TIP3    H1 4524   1.119   6.605   2.339
 1520TIP3    H2 4525   1.114   6.553   2.481
 1521TIP3   OH2 4526   3.038   0.935   3.655
 1521TIP3    H1 4527   3.020   0.968   3.743
 1521TIP3    H2 4528   3.112   0.987   3.624
 1522TIP3   OH2 4529   5.270   3.958   2.620
 1522TIP3    H1 4530   5.254   3.874   2.577
 1522TIP3    H2 4531   5.270   4.022   2.548
 1523TIP3   OH2 4532   1.045   2.610   4.487
 1523TIP3    H1 4533   1.076   2.638   4.401
 1523TIP3    H2 4534   1.034   2.515   4.480
 1524TIP3   OH2 4535   1.440   2.618   4.466
 1524TIP3    H1 4536   1.492   2.691   4.434
 1524TIP3    H2 4537   1.475   2.541   4.421
 1525TIP3   OH2 4538   6.617   0.022   0.676
 1525TIP3    H1 4539   6.568   0.031   0.758
 1525TIP3    H2 4540   6.692   0.080   0.687
 1526TIP3   OH2 4541   7.018   3.293   0.520
 1526TIP3    H1 4542   6.953   3.349   0.563
 1526TIP3    H2 4543   6.980   3.205   0.526
 1527TIP3   OH2 4544   0.600   6.147   5.293
 1527TIP3    H1 4545   0.556   6.214   5.346
 1527TIP3    H2 4546   0.684   6.187   5.268
 1528TIP3   OH2 4547   6.865   1.539   4.025
 1528TIP3    H1 4548   6.835   1.624   4.059
 1528TIP3    H2 4549   6.810   1.475   4.070
 1529TIP3   OH2 4550   3.215   5.920   0.908
 1529TIP3    H1 4551   3.215   6.007   0.946
 1529TIP3    H2 4552   3.134   5.914   0.858
 1530TIP3   OH2 4553   2.954   5.033   4.623
 1530TIP3    H1 4554   2.992   5.105   4.573
 1530TIP3    H2 4555   3.027   4.974   4.641
 1531TIP3   OH2 4556   2.216   4.512   1.552
 1531TIP3    H1 4557   2.285   4.472   1.498
 1531TIP3    H2 4558   2.208   4.601   1.518
 1532TIP3   OH2 4559   4.181   1.015   2.784
 1532TIP3    H1 4560   4.170   0.997   2.877
 1532TIP3    H2 4561   4.220   0.935   2.748
 1533TIP3   OH2 4562   1.367   3.185   1.770
 1533TIP3    H1 4563   1.282   3.193   1.813
 1533TIP3    H2 4564   1.429   3.226   1.831
 1534TIP3   OH2 4565   0.662   5.835   3.380
 1534TIP3    H1 4566   0.741   5.794   3.415
 1534TIP3    H2 4567   0.643   5.785   3.301
 1535TIP3   OH2 4568   0.258   0.366   2.438
 1535TIP3    H1 4569   0.328   0.354   2.502
 1535TIP3    H2 4570   0.191   0.415   2.486
 1536TIP3   OH2 4571   1.512   1.456   0.378
 1536TIP3    H1 4572   1.596   1.430   0.416
 1536TIP3    H2 4573   1.508   1.551   0.389
 1537TIP3   OH2 4574   6.270   1.816   3.126
 1537TIP3    H1 4575   6.252   1.725   3.099
 1537TIP3    H2 4576   6.192   1.864   3.098
 1538TIP3   OH2 4577   4.464   6.732   4.634
 1538TIP3    H1 4578   4.530   6.798   4.614
 1538TIP3    H2 4579   4.490   6.655   4.584
 1539TIP3   OH2 4580   1.453   6.091   1.098
 1539TIP3    H1 4581   1.479   6.162   1.156
 1539TIP3    H2 4582   1.464   6.012   1.151
 1540TIP3   OH2 4583   6.999   1.654   2.117
 1540TIP3    H1 4584   7.030   1.719   2.180
 1540TIP3    H2 4585   6.905   1.650   2.131
 1541TIP3   OH2 4586   2.865   4.539   2.730
 1541TIP3    H1 4587   2.802   4.472   2.756
 1541TIP3    H2 4588   2.860   4.605   2.799
 1542TIP3   OH2 4589   3.780   6.105   0.645
 1542TIP3    H1 4590   3.775   6.013   0.674
 1542TIP3    H2 4591   3.777   6.155   0.726
 1543TIP3   OH2 4592   1.802   5.514   0.223
 1543TIP3    H1 4593   1.887   5.476   0.203
 1543TIP3    H2 4594   1.811   5.606   0.198
 1544TIP3   OH2 4595   1.296   2.541   1.609
 1544TIP3    H1 4596   1.324   2.627   1.577
 1544TIP3    H2 4597   1.300   2.484   1.531
 1545TIP3   OH2 4598   5.411   1.189   4.061
 1545TIP3    H1 4599   5.454   1.104   4.051
 1545TIP3    H2 4600   5.332   1.183   4.007
 1546TIP3   OH2 4601   4.107   1.313   5.242
 1546TIP3    H1 4602   4.184   1.266   5.211
 1546TIP3    H2 4603   4.036   1.281   5.186
 1547TIP3   OH2 4604   6.456   5.161   5.252
 1547TIP3    H1 4605   6.383   5.213   5.215
 1547TIP3    H2 4606   6.483   5.104   5.180
 1548TIP3   OH2 4607   2.617   5.852   1.393
 1548TIP3    H1 4608   2.692   5.907   1.415
 1548TIP3    H2 4609   2.656   5.768   1.367
 1549TIP3   OH2 4610   0.158   2.523   5.273
 1549TIP3    H1 4611   0.169   2.541   5.180
 1549TIP3    H2 4612   0.114   2.601   5.307
 1550TIP3   OH2 4613   0.315   0.027   0.864
 1550TIP3    H1 4614   0.337   0.116   0.836
 1550TIP3    H2 4615   0.228   0.010   0.826
 1551TIP3   OH2 4616   2.948   0.436   1.616
 1551TIP3    H1 4617   2.867   0.389   1.600
 1551TIP3    H2 4618   3.016   0.383   1.573
 1552TIP3   OH2 4619   3.020   5.825   3.152
 1552TIP3    H1 4620   2.937   5.863   3.182
 1552TIP3    H2 4621   3.013   5.824   3.057
 1553TIP3   OH2 4622   3.960   1.990   2.970
 1553TIP3    H1 4623   4.037   2.003   3.027
 1553TIP3    H2 4624   3.983   2.034   2.888
 1554TIP3   OH2 4625   5.833   0.937   2.970
 1554TIP3    H1 4626   5.821   1.023   3.009
 1554TIP3    H2 4627   5.747   0.895   2.975
 1555TIP3   OH2 4628   5.553   3.821   0.531
 1555TIP3    H1 4629   5.528   3.768   0.455
 1555TIP3    H2 4630   5.477   3.818   0.588
 1556TIP3   OH2 4631   4.812   4.499   0.422
 1556TIP3    H1 4632   4.897   4.486   0.465
 1556TIP3    H2 4633   4.762   4.553   0.482
 1557TIP3   OH2 4634   2.538   1.609   1.226
 1557TIP3    H1 4635   2.452   1.620   1.186
 1557TIP3    H2 4636   2.547   1.515   1.241
 1558TIP3   OH2 4637   3.331   4.905   0.917
 1558TIP3    H1 4638   3.302   4.817   0.894
 1558TIP3    H2 4639   3.349   4.901   1.011
 1559TIP3   OH2 4640   1.019   2.126   4.984
 1559TIP3    H1 4641   1.027   2.033   5.004
 1559TIP3    H2 4642   1.060   2.170   5.058
 1560TIP3   OH2 4643   5.115   4.267   1.498
 1560TIP3    H1 4644   5.176   4.259   1.425
 1560TIP3    H2 4645   5.145   4.201   1.561
 1561TIP3   OH2 4646   1.785   6.777   5.077
 1561TIP3    H1 4647   1.837   6.701   5.103
 1561TIP3    H2 4648   1.715   6.780   5.142
 1562TIP3   OH2 4649   3.692   2.842   2.056
 1562TIP3    H1 4650   3.669   2.913   2.116
 1562TIP3    H2 4651   3.611   2.791   2.047
 1563TIP3   OH2 4652   3.216   0.195   1.199
 1563TIP3    H1 4653   3.290   0.229   1.149
 1563TIP3    H2 4654   3.181   0.124   1.144
 1564TIP3   OH2 4655   0.964   5.929   5.148
 1564TIP3    H1 4656   0.933   5.838   5.150
 1564TIP3    H2 4657   0.893   5.978   5.107
 1565TIP3   OH2 4658   2.066   4.749   3.437
 1565TIP3    H1 4659   2.036   4.772   3.525
 1565TIP3    H2 4660   2.156   4.780   3.433
 1566TIP3   OH2 4661   5.935   4.554   4.435
 1566TIP3    H1 4662   6.015   4.533   4.387
 1566TIP3    H2 4663   5.960   4.623   4.495
 1567TIP3   OH2 4664   2.074   1.732   3.095
 1567TIP3    H1 4665   2.042   1.787   3.024
 1567TIP3    H2 4666   2.170   1.732   3.084
 1568TIP3   OH2 4667   4.346   5.850   4.886
 1568TIP3    H1 4668   4.428   5.899   4.884
 1568TIP3    H2 4669   4.348   5.803   4.970
 1569TIP3   OH2 4670   2.937   0.470   2.248
 1569TIP3    H1 4671   3.024   0.509   2.252
 1569TIP3    H2 4672   2.937   0.419   2.167
 1570TIP3   OH2 4673   4.983   3.052   3.186
 1570TIP3    H1 4674   5.028   3.077   3.105
 1570TIP3    H2 4675   4.970   3.134   3.233
 1571TIP3   OH2 4676   1.515   4.976   2.783
 1571TIP3    H1 4677   1.513   4.892   2.737
 1571TIP3    H2 4678   1.554   5.036   2.720
 1572TIP3   OH2 4679   1.330   1.850   4.370
 1572TIP3    H1 4680   1.349   1.775   4.314
 1572TIP3    H2 4681   1.253   1.890   4.330
 1573TIP3   OH2 4682   6.143   0.885   0.872
 1573TIP3    H1 4683   6.116   0.941   0.945
 1573TIP3    H2 4684   6.232   0.858   0.894
 1574TIP3   OH2 4685   5.369   1.498   4.886
 1574TIP3    H1 4686   5.387   1.405   4.896
 1574TIP3    H2 4687   5.454   1.536   4.863
 1575TIP3   OH2 4688   0.960   2.601   1.165
 1575TIP3    H1 4689   1.033   2.618   1.107
 1575TIP3    H2 4690   0.995   2.615   1.253
 1576TIP3   OH2 4691   6.407   5.690   4.935
 1576TIP3    H1 4692   6.478   5.657   4.880
 1576TIP3    H2 4693   6.441   5.772   4.971
 1577TIP3   OH2 4694   5.613   6.325   4.420
 1577TIP3    H1 4695   5.577   6.270   4.351
 1577TIP3    H2 4696   5.640   6.264   4.489
 1578TIP3   OH2 4697   6.286   4.286   0.955
 1578TIP3    H1 4698   6.312   4.250   0.870
 1578TIP3    H2 4699   6.328   4.229   1.019
 1579TIP3   OH2 4700   4.498   1.101   4.942
 1579TIP3    H1 4701   4.465   1.018   4.909
 1579TIP3    H2 4702   4.553   1.135   4.872
 1580TIP3   OH2 4703   4.772   4.383   1.644
 1580TIP3    H1 4704   4.684   4.373   1.608
 1580TIP3    H2 4705   4.830   4.377   1.568
 1581TIP3   OH2 4706   3.457   6.888   5.580
 1581TIP3    H1 4707   3.499   6.829   5.518
 1581TIP3    H2 4708   3.442   6.834   5.658
 1582TIP3   OH2 4709   2.134   4.014   0.716
 1582TIP3    H1 4710   2.095   4.089   0.760
 1582TIP3    H2 4711   2.228   4.026   0.728
 1583TIP3   OH2 4712   5.055   5.188   1.783
 1583TIP3    H1 4713   5.135   5.144   1.754
 1583TIP3    H2 4714   5.076   5.281   1.777
 1584TIP3   OH2 4715   5.350   6.684   2.562
 1584TIP3    H1 4716   5.272   6.728   2.527
 1584TIP3    H2 4717   5.365   6.610   2.503
 1585TIP3   OH2 4718   0.833   5.277   2.421
 1585TIP3    H1 4719   0.831   5.367   2.454
 1585TIP3    H2 4720   0.844   5.223   2.500
 1586TIP3   OH2 4721   5.878   6.377   2.786
 1586TIP3    H1 4722   5.852   6.370   2.878
 1586TIP3    H2 4723   5.867   6.288   2.752
 1587TIP3   OH2 4724   0.436   2.823   2.673
 1587TIP3    H1 4725   0.372   2.860   2.612
 1587TIP3    H2 4726   0.451   2.894   2.736
 1588TIP3   OH2 4727   5.217   6.377   2.955
 1588TIP3    H1 4728   5.275   6.444   2.919
 1588TIP3    H2 4729   5.136   6.386   2.904
 1589TIP3   OH2 4730   5.086   3.883   5.803
 1589TIP3    H1 4731   4.995   3.909   5.789
 1589TIP3    H2 4732   5.084   3.828   5.882
 1590TIP3   OH2 4733   5.362   1.024   5.346
 1590TIP3    H1 4734   5.381   1.085   5.417
 1590TIP3    H2 4735   5.437   0.964   5.345
 1591TIP3   OH2 4736   5.001   6.107   3.184
 1591TIP3    H1 4737   4.954   6.177   3.139
 1591TIP3    H2 4738   5.068   6.079   3.121
 1592TIP3   OH2 4739   5.429   0.140   0.797
 1592TIP3    H1 4740   5.492   0.082   0.754
 1592TIP3    H2 4741   5.411   0.208   0.732
 1593TIP3   OH2 4742   2.056   5.789   0.620
 1593TIP3    H1 4743   2.129   5.754   0.671
 1593TIP3    H2 4744   2.012   5.711   0.585
 1594TIP3   OH2 4745   7.114   2.590   1.338
 1594TIP3    H1 4746   7.049   2.604   1.268
 1594TIP3    H2 4747   7.069   2.619   1.418
 1595TIP3   OH2 4748   1.613   5.605   2.907
 1595TIP3    H1 4749   1.622   5.536   2.972
 1595TIP3    H2 4750   1.703   5.624   2.880
 1596TIP3   OH2 4751   1.088   3.504   4.994
 1596TIP3    H1 4752   1.120   3.485   5.082
 1596TIP3    H2 4753   1.148   3.457   4.936
 1597TIP3   OH2 4754   6.006   4.390   1.354
 1597TIP3    H1 4755   6.067   4.434   1.414
 1597TIP3    H2 4756   6.059   4.323   1.311
 1598TIP3   OH2 4757   6.199   0.298   0.224
 1598TIP3    H1 4758   6.108   0.268   0.223
 1598TIP3    H2 4759   6.239   0.255   0.149
 1599TIP3   OH2 4760   7.075   4.266   3.514
 1599TIP3    H1 4761   7.065   4.258   3.420
 1599TIP3    H2 4762   6.986   4.263   3.549
 1600TIP3   OH2 4763   4.188   5.631   0.704
 1600TIP3    H1 4764   4.218   5.540   0.694
 1600TIP3    H2 4765   4.112   5.625   0.761
 1601TIP3   OH2 4766   0.620   2.601   4.911
 1601TIP3    H1 4767   0.571   2.534   4.862
 1601TIP3    H2 4768   0.689   2.552   4.956
 1602TIP3   OH2 4769   6.452   1.536   5.619
 1602TIP3    H1 4770   6.542   1.508   5.603
 1602TIP3    H2 4771   6.460   1.616   5.672
 1603TIP3   OH2 4772   6.640   4.465   5.650
 1603TIP3    H1 4773   6.661   4.372   5.653
 1603TIP3    H2 4774   6.716   4.508   5.689
 1604TIP3   OH2 4775   4.314   2.925   4.680
 1604TIP3    H1 4776   4.384   2.991   4.684
 1604TIP3    H2 4777   4.291   2.920   4.587
 1605TIP3   OH2 4778   0.786   5.633   5.705
 1605TIP3    H1 4779   0.805   5.681   5.625
 1605TIP3    H2 4780   0.752   5.698   5.766
 1606TIP3   OH2 4781   3.816   2.010   1.345
 1606TIP3    H1 4782   3.738   1.960   1.318
 1606TIP3    H2 4783   3.811   2.091   1.294
 1607TIP3   OH2 4784   0.445   4.865   0.940
 1607TIP3    H1 4785   0.362   4.829   0.972
 1607TIP3    H2 4786   0.512   4.817   0.987
 1608TIP3   OH2 4787   6.010   3.732   2.590
 1608TIP3    H1 4788   6.100   3.763   2.577
 1608TIP3    H2 4789   5.957   3.788   2.534
 1609TIP3   OH2 4790   4.251   2.431   0.341
 1609TIP3    H1 4791   4.166   2.428   0.295
 1609TIP3    H2 4792   4.231   2.474   0.425
 1610TIP3   OH2 4793   1.801   3.856   2.261
 1610TIP3    H1 4794   1.800   3.765   2.291
 1610TIP3    H2 4795   1.838   3.905   2.335
 1611TIP3   OH2 4796   3.179   1.820   0.584
 1611TIP3    H1 4797   3.093   1.783   0.605
 1611TIP3    H2 4798   3.197   1.880   0.656
 1612TIP3   OH2 4799   5.461   2.140   5.152
 1612TIP3    H1 4800   5.422   2.062   5.113
 1612TIP3    H2 4801   5.394   2.172   5.212
 1613TIP3   OH2 4802   0.715   1.454   2.213
 1613TIP3    H1 4803   0.648   1.497   2.267
 1613TIP3    H2 4804   0.666   1.399   2.152
 1614TIP3   OH2 4805   0.120   2.879   1.068
 1614TIP3    H1 4806   0.212   2.858   1.050
 1614TIP3    H2 4807   0.113   2.878   1.164
 1615TIP3   OH2 4808   2.450   1.366   3.396
 1615TIP3    H1 4809   2.501   1.444   3.416
 1615TIP3    H2 4810   2.426   1.330   3.481
 1616TIP3   OH2 4811   0.406   0.828   0.553
 1616TIP3    H1 4812   0.489   0.783   0.535
 1616TIP3    H2 4813   0.392   0.817   0.647
 1617TIP3   OH2 4814   4.147   1.502   2.161
 1617TIP3    H1 4815   4.156   1.563   2.088
 1617TIP3    H2 4816   4.201   1.427   2.135
 1618TIP3   OH2 4817   5.474   3.290   3.446
 1618TIP3    H1 4818   5.511   3.277   3.359
 1618TIP3    H2 4819   5.492   3.208   3.492
 1619TIP3   OH2 4820   1.853   5.705   4.166
 1619TIP3    H1 4821   1.842   5.614   4.139
 1619TIP3    H2 4822   1.907   5.701   4.245
 1620TIP3   OH2 4823   3.786   5.759   0.186
 1620TIP3    H1 4824   3.850   5.690   0.166
 1620TIP3    H2 4825   3.825   5.839   0.151
 1621TIP3   OH2 4826   5.050   1.750   3.490
 1621TIP3    H1 4827   4.961   1.754   3.525
 1621TIP3    H2 4828   5.081   1.841   3.493
 1622TIP3   OH2 4829   4.193   3.415   2.076
 1622TIP3    H1 4830   4.169   3.475   2.147
 1622TIP3    H2 4831   4.111   3.396   2.032
 1623TIP3   OH2 4832   4.007   4.487   5.566
 1623TIP3    H1 4833   3.937   4.516   5.508
 1623TIP3    H2 4834   4.084   4.482   5.509
 1624TIP3   OH2 4835   5.749   1.534   3.676
 1624TIP3    H1 4836   5.695   1.613   3.688
 1624TIP3    H2 4837   5.702   1.466   3.724
 1625TIP3   OH2 4838   3.227   3.810   0.611
 1625TIP3    H1 4839   3.196   3.853   0.691
 1625TIP3    H2 4840   3.288   3.743   0.642
 1626TIP3   OH2 4841   6.719   6.171   0.656
 1626TIP3    H1 4842   6.644   6.204   0.606
 1626TIP3    H2 4843   6.792   6.172   0.595
 1627TIP3   OH2 4844   1.613   2.696   1.049
 1627TIP3    H1 4845   1.658   2.613   1.034
 1627TIP3    H2 4846   1.627   2.746   0.969
 1628TIP3   OH2 4847   4.698   5.203   3.107
 1628TIP3    H1 4848   4.782   5.191   3.063
 1628TIP3    H2 4849   4.701   5.293   3.141
 1629TIP3   OH2 4850   0.596   0.468   2.555
 1629TIP3    H1 4851   0.607   0.508   2.469
 1629TIP3    H2 4852   0.557   0.383   2.538
 1630TIP3   OH2 4853   6.472   2.965   5.135
 1630TIP3    H1 4854   6.434   2.886   5.175
 1630TIP3    H2 4855   6.481   3.026   5.208
 1631TIP3   OH2 4856   5.819   4.249   1.071
 1631TIP3    H1 4857   5.806   4.303   1.149
 1631TIP3    H2 4858   5.739   4.198   1.064
 1632TIP3   OH2 4859   6.247   1.548   2.015
 1632TIP3    H1 4860   6.295   1.614   1.965
 1632TIP3    H2 4861   6.177   1.597   2.059
 1633TIP3   OH2 4862   3.681   5.214   2.037
 1633TIP3    H1 4863   3.698   5.178   2.124
 1633TIP3    H2 4864   3.644   5.300   2.053
 1634TIP3   OH2 4865   2.342   3.362   4.957
 1634TIP3    H1 4866   2.319   3.444   4.913
 1634TIP3    H2 4867   2.340   3.384   5.050
 1635TIP3   OH2 4868   6.718   5.649   3.542
 1635TIP3    H1 4869   6.771   5.659   3.463
 1635TIP3    H2 4870   6.724   5.556   3.564
 1636TIP3   OH2 4871   7.137   0.952   2.436
 1636TIP3    H1 4872   7.230   0.972   2.433
 1636TIP3    H2 4873   7.105   0.969   2.347
 1637TIP3   OH2 4874   3.054   4.065   2.414
 1637TIP3    H1 4875   3.006   4.136   2.458
 1637TIP3    H2 4876   3.022   3.985   2.456
 1638TIP3   OH2 4877   4.347   4.033   5.430
 1638TIP3    H1 4878   4.327   3.954   5.480
 1638TIP3    H2 4879   4.342   4.104   5.495
 1639TIP3   OH2 4880   3.454   1.127   3.195
 1639TIP3    H1 4881   3.375   1.115   3.141
 1639TIP3    H2 4882   3.523   1.149   3.132
 1640TIP3   OH2 4883   3.705   0.460   3.275
 1640TIP3    H1 4884   3.613   0.481   3.262
 1640TIP3    H2 4885   3.704   0.373   3.315
 1641TIP3   OH2 4886   6.024   1.011   4.661
 1641TIP3    H1 4887   5.981   1.039   4.742
 1641TIP3    H2 4888   6.063   1.090   4.626
 1642TIP3   OH2 4889   0.220   0.166   4.238
 1642TIP3    H1 4890   0.163   0.243   4.246
 1642TIP3    H2 4891   0.181   0.116   4.166
 1643TIP3   OH2 4892   6.982   1.751   1.836
 1643TIP3    H1 4893   6.901   1.801   1.829
 1643TIP3    H2 4894   6.992   1.735   1.930
 1644TIP3   OH2 4895   6.914   0.163   1.852
 1644TIP3    H1 4896   6.913   0.069   1.871
 1644TIP3    H2 4897   6.880   0.170   1.764
 1645TIP3   OH2 4898   1.469   4.524   3.138
 1645TIP3    H1 4899   1.489   4.582   3.064
 1645TIP3    H2 4900   1.375   4.505   3.128
 1646TIP3   OH2 4901   3.891   1.647   4.708
 1646TIP3    H1 4902   3.832   1.699   4.762
 1646TIP3    H2 4903   3.971   1.700   4.701
 1647TIP3   OH2 4904   2.884   0.747   2.785
 1647TIP3    H1 4905   2.792   0.736   2.759
 1647TIP3    H2 4906   2.931   0.685   2.729
 1648TIP3   OH2 4907   5.433   1.111   4.450
 1648TIP3    H1 4908   5.427   1.156   4.534
 1648TIP3    H2 4909   5.456   1.179   4.387
 1649TIP3   OH2 4910   6.276   1.839   0.514
 1649TIP3    H1 4911   6.199   1.847   0.456
 1649TIP3    H2 4912   6.255   1.765   0.571
 1650TIP3   OH2 4913   1.323   3.057   0.884
 1650TIP3    H1 4914   1.269   3.025   0.811
 1650TIP3    H2 4915   1.360   2.978   0.924
 1651TIP3   OH2 4916   6.401   3.614   4.655
 1651TIP3    H1 4917   6.437   3.661   4.580
 1651TIP3    H2 4918   6.393   3.524   4.626
 1652TIP3   OH2 4919   0.341   4.762   5.196
 1652TIP3    H1 4920   0.386   4.716   5.266
 1652TIP3    H2 4921   0.286   4.827   5.241
 1653TIP3   OH2 4922   3.178   1.372   5.535
 1653TIP3    H1 4923   3.198   1.334   5.450
 1653TIP3    H2 4924   3.257   1.357   5.587
 1654TIP3   OH2 4925   5.569   5.984   5.419
 1654TIP3    H1 4926   5.551   5.891   5.428
 1654TIP3    H2 4927   5.575   5.999   5.325
 1655TIP3   OH2 4928   4.552   4.600   3.411
 1655TIP3    H1 4929   4.501   4.564   3.484
 1655TIP3    H2 4930   4.640   4.563   3.423
 1656TIP3   OH2 4931   0.932   6.803   3.765
 1656TIP3    H1 4932   0.932   6.806   3.861
 1656TIP3    H2 4933   1.024   6.799   3.741
 1657TIP3   OH2 4934   3.614   0.596   3.810
 1657TIP3    H1 4935   3.636   0.520   3.864
 1657TIP3    H2 4936   3.692   0.610   3.756
 1658TIP3   OH2 4937   4.170   2.896   5.343
 1658TIP3    H1 4938   4.249   2.928   5.301
 1658TIP3    H2 4939   4.189   2.898   5.437
 1659TIP3   OH2 4940   5.712   2.851   0.999
 1659TIP3    H1 4941   5.803   2.870   0.978
 1659TIP3    H2 4942   5.676   2.812   0.919
 1660TIP3   OH2 4943   7.162   2.914   2.566
 1660TIP3    H1 4944   7.149   2.821   2.547
 1660TIP3    H2 4945   7.118   2.928   2.649
 1661TIP3   OH2 4946   1.483   2.061   2.269
 1661TIP3    H1 4947   1.529   2.135   2.230
 1661TIP3    H2 4948   1.538   1.985   2.249
 1662TIP3   OH2 4949   6.940   4.569   1.560
 1662TIP3    H1 4950   6.969   4.610   1.479
 1662TIP3    H2 4951   6.875   4.631   1.596
 1663TIP3   OH2 4952   6.098   6.328   2.044
 1663TIP3    H1 4953   6.036   6.275   1.994
 1663TIP3    H2 4954   6.176   6.273   2.051
 1664TIP3   OH2 4955   3.490   3.449   2.563
 1664TIP3    H1 4956   3.395   3.438   2.559
 1664TIP3    H2 4957   3.506   3.531   2.516
 1665TIP3   OH2 4958   6.233   3.083   3.166
 1665TIP3    H1 4959   6.171   3.093   3.094
 1665TIP3    H2 4960   6.319   3.098   3.126
 1666TIP3   OH2 4961   0.684   3.199   2.496
 1666TIP3    H1 4962   0.737   3.124   2.471
 1666TIP3    H2 4963   0.597   3.179   2.461
 1667TIP3   OH2 4964   3.850   1.095   5.488
 1667TIP3    H1 4965   3.816   1.009   5.509
 1667TIP3    H2 4966   3.784   1.156   5.521
 1668TIP3   OH2 4967   6.228   5.112   3.406
 1668TIP3    H1 4968   6.200   5.063   3.483
 1668TIP3    H2 4969   6.298   5.169   3.437
 1669TIP3   OH2 4970   2.093   2.758   1.615
 1669TIP3    H1 4971   2.116   2.839   1.570
 1669TIP3    H2 4972   1.998   2.755   1.614
 1670TIP3   OH2 4973   5.556   2.869   4.285
 1670TIP3    H1 4974   5.507   2.849   4.365
 1670TIP3    H2 4975   5.599   2.787   4.262
 1671TIP3   OH2 4976   6.190   4.907   4.189
 1671TIP3    H1 4977   6.259   4.902   4.255
 1671TIP3    H2 4978   6.115   4.944   4.236
 1672TIP3   OH2 4979   1.269   4.261   2.055
 1672TIP3    H1 4980   1.274   4.333   1.992
 1672TIP3    H2 4981   1.359   4.231   2.065
 1673TIP3   OH2 4982   2.136   5.446   2.412
 1673TIP3    H1 4983   2.137   5.418   2.504
 1673TIP3    H2 4984   2.173   5.535   2.414
 1674TIP3   OH2 4985   1.799   3.056   3.645
 1674TIP3    H1 4986   1.886   3.030   3.675
 1674TIP3    H2 4987   1.771   2.986   3.586
 1675TIP3   OH2 4988   3.818   6.371   3.961
 1675TIP3    H1 4989   3.799   6.461   3.988
 1675TIP3    H2 4990   3.742   6.345   3.909
 1676TIP3   OH2 4991   2.555   4.526   2.406
 1676TIP3    H1 4992   2.467   4.565   2.409
 1676TIP3    H2 4993   2.540   4.435   2.384
 1677TIP3   OH2 4994   5.489   1.214   4.879
 1677TIP3    H1 4995   5.534   1.260   4.808
 1677TIP3    H2 4996   5.556   1.208   4.948
 1678TIP3   OH2 4997   4.333   1.295   3.541
 1678TIP3    H1 4998   4.419   1.279   3.502
 1678TIP3    H2 4999   4.335   1.388   3.566
 1679TIP3   OH2 5000   3.853   2.600   3.043
 1679TIP3    H1 5001   3.762   2.603   3.014
 1679TIP3    H2 5002   3.903   2.634   2.969
 1680TIP3   OH2 5003   0.779   3.212   5.146
 1680TIP3    H1 5004   0.690   3.201   5.178
 1680TIP3    H2 5005   0.788   3.147   5.077
 1681TIP3   OH2 5006   5.724   0.304   1.387
 1681TIP3    H1 5007   5.733   0.209   1.379
 1681TIP3    H2 5008   5.813   0.338   1.372
 1682TIP3   OH2 5009   6.746   0.723   0.159
 1682TIP3    H1 5010   6.692   0.659   0.204
 1682TIP3    H2 5011   6.733   0.704   0.066
 1683TIP3   OH2 5012   7.081   5.277   0.215
 1683TIP3    H1 5013   7.049   5.218   0.282
 1683TIP3    H2 5014   7.009   5.284   0.152
 1684TIP3   OH2 5015   7.193   1.475   4.960
 1684TIP3    H1 5016   7.154   1.442   4.879
 1684TIP3    H2 5017   7.206   1.397   5.014
 1685TIP3   OH2 5018   0.681   2.369   2.435
 1685TIP3    H1 5019   0.686   2.275   2.449
 1685TIP3    H2 5020   0.631   2.379   2.355
 1686TIP3   OH2 5021   6.150   3.371   2.888
 1686TIP3    H1 5022   6.194   3.430   2.827
 1686TIP3    H2 5023   6.170   3.407   2.975
 1687TIP3   OH2 5024   6.728   6.070   3.929
 1687TIP3    H1 5025   6.734   6.159   3.964
 1687TIP3    H2 5026   6.814   6.032   3.942
 1688TIP3   OH2 5027   6.430   2.764   1.763
 1688TIP3    H1 5028   6.443   2.699   1.694
 1688TIP3    H2 5029   6.345   2.804   1.743
 1689TIP3   OH2 5030   3.232   1.495   2.587
 1689TIP3    H1 5031   3.231   1.561   2.656
 1689TIP3    H2 5032   3.298   1.432   2.615
 1690TIP3   OH2 5033   6.057   1.657   2.603
 1690TIP3    H1 5034   5.977   1.705   2.584
 1690TIP3    H2 5035   6.069   1.598   2.529
 1691TIP3   OH2 5036   6.500   3.035   2.421
 1691TIP3    H1 5037   6.416   2.989   2.421
 1691TIP3    H2 5038   6.524   3.042   2.514
 1692TIP3   OH2 5039   3.447   6.597   4.612
 1692TIP3    H1 5040   3.447   6.646   4.530
 1692TIP3    H2 5041   3.440   6.505   4.586
 1693TIP3   OH2 5042   6.823   0.941   0.375
 1693TIP3    H1 5043   6.808   1.001   0.303
 1693TIP3    H2 5044   6.736   0.908   0.397
 1694TIP3   OH2 5045   1.167   5.843   1.012
 1694TIP3    H1 5046   1.169   5.837   0.916
 1694TIP3    H2 5047   1.199   5.932   1.030
 1695TIP3   OH2 5048   3.057   6.460   3.019
 1695TIP3    H1 5049   3.077   6.371   3.047
 1695TIP3    H2 5050   3.024   6.451   2.930
 1696TIP3   OH2 5051   0.410   4.373   5.064
 1696TIP3    H1 5052   0.504   4.389   5.052
 1696TIP3    H2 5053   0.367   4.427   4.998
 1697TIP3   OH2 5054   3.874   5.227   5.703
 1697TIP3    H1 5055   3.780   5.245   5.700
 1697TIP3    H2 5056   3.885   5.165   5.776
 1698TIP3   OH2 5057   0.129   5.768   3.928
 1698TIP3    H1 5058   0.205   5.818   3.896
 1698TIP3    H2 5059   0.159   5.677   3.929
 1699TIP3   OH2 5060   0.951   0.306   2.359
 1699TIP3    H1 5061   0.866   0.321   2.318
 1699TIP3    H2 5062   0.999   0.253   2.295
 1700TIP3   OH2 5063   2.438   3.774   1.075
 1700TIP3    H1 5064   2.388   3.739   1.148
 1700TIP3    H2 5065   2.418   3.715   1.002
 1701TIP3   OH2 5066   0.062   0.646   5.865
 1701TIP3    H1 5067   0.020   0.687   5.941
 1701TIP3    H2 5068  -0.009   0.599   5.821
 1702TIP3   OH2 5069   4.417   4.839   0.396
 1702TIP3    H1 5070   4.465   4.802   0.469
 1702TIP3    H2 5071   4.436   4.780   0.322
 1703TIP3   OH2 5072   3.903   1.918   5.268
 1703TIP3    H1 5073   3.817   1.956   5.286
 1703TIP3    H2 5074   3.886   1.825   5.252
 1704TIP3   OH2 5075   7.010   1.811   3.306
 1704TIP3    H1 5076   6.933   1.783   3.356
 1704TIP3    H2 5077   7.065   1.733   3.301
 1705TIP3   OH2 5078   1.248  -0.009   5.415
 1705TIP3    H1 5079   1.334  -0.051   5.411
 1705TIP3    H2 5080   1.263   0.074   5.460
 1706TIP3   OH2 5081   3.551   1.277   5.393
 1706TIP3    H1 5082   3.598   1.320   5.464
 1706TIP3    H2 5083   3.617   1.264   5.325
 1707TIP3   OH2 5084   0.580   4.149   0.240
 1707TIP3    H1 5085   0.674   4.152   0.256
 1707TIP3    H2 5086   0.540   4.175   0.323
 1708TIP3   OH2 5087   0.957   3.828   5.119
 1708TIP3    H1 5088   1.047   3.843   5.090
 1708TIP3    H2 5089   0.912   3.911   5.104
 1709TIP3   OH2 5090   4.802   4.162   2.889
 1709TIP3    H1 5091   4.797   4.256   2.908
 1709TIP3    H2 5092   4.809   4.121   2.975
 1710TIP3   OH2 5093   1.950   2.049   0.186
 1710TIP3    H1 5094   1.917   1.964   0.214
 1710TIP3    H2 5095   1.874   2.108   0.192
 1711TIP3   OH2 5096   0.256   1.952   0.337
 1711TIP3    H1 5097   0.162   1.941   0.319
 1711TIP3    H2 5098   0.295   1.967   0.250
 1712TIP3   OH2 5099   3.213   3.793   3.060
 1712TIP3    H1 5100   3.270   3.787   3.137
 1712TIP3    H2 5101   3.221   3.884   3.031
 1713TIP3   OH2 5102   2.689   6.630   1.047
 1713TIP3    H1 5103   2.757   6.596   1.106
 1713TIP3    H2 5104   2.734   6.696   0.995
 1714TIP3   OH2 5105   3.191   3.774   2.464
 1714TIP3    H1 5106   3.133   3.800   2.393
 1714TIP3    H2 5107   3.167   3.684   2.484
 1715TIP3   OH2 5108   4.986   1.341   3.754
 1715TIP3    H1 5109   4.893   1.360   3.757
 1715TIP3    H2 5110   4.993   1.258   3.706
 1716TIP3   OH2 5111   1.750   2.494   3.700
 1716TIP3    H1 5112   1.763   2.577   3.745
 1716TIP3    H2 5113   1.826   2.486   3.642
 1717TIP3   OH2 5114   6.829   1.589   2.983
 1717TIP3    H1 5115   6.797   1.662   3.036
 1717TIP3    H2 5116   6.755   1.566   2.927
 1718TIP3   OH2 5117   4.706   4.517   1.363
 1718TIP3    H1 5118   4.800   4.533   1.364
 1718TIP3    H2 5119   4.698   4.428   1.329
 1719TIP3   OH2 5120   3.955   6.003   1.380
 1719TIP3    H1 5121   3.916   6.062   1.445
 1719TIP3    H2 5122   3.971   5.922   1.428
 1720TIP3   OH2 5123   5.117   6.459   5.246
 1720TIP3    H1 5124   5.166   6.537   5.223
 1720TIP3    H2 5125   5.043   6.492   5.299
 1721TIP3   OH2 5126   2.071   6.068   3.355
 1721TIP3    H1 5127   2.055   5.976   3.333
 1721TIP3    H2 5128   2.116   6.066   3.439
 1722TIP3   OH2 5129   6.664   2.419   3.616
 1722TIP3    H1 5130   6.723   2.456   3.681
 1722TIP3    H2 5131   6.576   2.436   3.651
 1723TIP3   OH2 5132   3.364   4.802   2.601
 1723TIP3    H1 5133   3.281   4.848   2.589
 1723TIP3    H2 5134   3.340   4.719   2.642
 1724TIP3   OH2 5135   5.349   1.774   5.013
 1724TIP3    H1 5136   5.385   1.707   5.071
 1724TIP3    H2 5137   5.260   1.788   5.045
 1725TIP3   OH2 5138   5.617   1.096   1.557
 1725TIP3    H1 5139   5.682   1.145   1.608
 1725TIP3    H2 5140   5.572   1.164   1.506
 1726TIP3   OH2 5141   3.215   0.566   2.972
 1726TIP3    H1 5142   3.202   0.481   2.929
 1726TIP3    H2 5143   3.277   0.612   2.915
 1727TIP3   OH2 5144   6.409   0.931   0.929
 1727TIP3    H1 5145   6.477   0.966   0.987
 1727TIP3    H2 5146   6.445   0.848   0.898
 1728TIP3   OH2 5147   4.394   2.788   3.997
 1728TIP3    H1 5148   4.349   2.811   4.078
 1728TIP3    H2 5149   4.484   2.815   4.011
 1729TIP3   OH2 5150   5.477   6.555   2.147
 1729TIP3    H1 5151   5.477   6.520   2.236
 1729TIP3    H2 5152   5.568   6.578   2.130
 1730TIP3   OH2 5153   0.774   2.787   2.753
 1730TIP3    H1 5154   0.832   2.851   2.794
 1730TIP3    H2 5155   0.697   2.837   2.727
 1731TIP3   OH2 5156   5.378   2.232   0.818
 1731TIP3    H1 5157   5.400   2.249   0.909
 1731TIP3    H2 5158   5.310   2.165   0.822
 1732TIP3   OH2 5159   4.023   0.848   0.428
 1732TIP3    H1 5160   4.032   0.753   0.428
 1732TIP3    H2 5161   4.061   0.876   0.511
 1733TIP3   OH2 5162   1.028   4.647   5.619
 1733TIP3    H1 5163   1.114   4.607   5.606
 1733TIP3    H2 5164   0.991   4.600   5.694
 1734TIP3   OH2 5165   6.824   2.564   5.335
 1734TIP3    H1 5166   6.845   2.471   5.325
 1734TIP3    H2 5167   6.809   2.595   5.246
 1735TIP3   OH2 5168   5.632   3.448   5.701
 1735TIP3    H1 5169   5.569   3.510   5.664
 1735TIP3    H2 5170   5.708   3.501   5.722
 1736TIP3   OH2 5171   1.205   0.226   5.547
 1736TIP3    H1 5172   1.294   0.251   5.574
 1736TIP3    H2 5173   1.155   0.307   5.553
 1737TIP3   OH2 5174   1.775   0.030   2.924
 1737TIP3    H1 5175   1.850   0.000   2.974
 1737TIP3    H2 5176   1.794   0.006   2.834
 1738TIP3   OH2 5177   3.329   5.042   4.811
 1738TIP3    H1 5178   3.302   5.133   4.801
 1738TIP3    H2 5179   3.424   5.043   4.804
 1739TIP3   OH2 5180   5.780   4.965   5.857
 1739TIP3    H1 5181   5.772   4.922   5.772
 1739TIP3    H2 5182   5.866   5.006   5.856
 1740TIP3   OH2 5183   6.593   6.121   4.280
 1740TIP3    H1 5184   6.545   6.175   4.217
 1740TIP3    H2 5185   6.583   6.166   4.364
 1741TIP3   OH2 5186   5.776   0.389   3.582
 1741TIP3    H1 5187   5.795   0.301   3.615
 1741TIP3    H2 5188   5.712   0.424   3.643
 1742TIP3   OH2 5189   1.658   0.819   3.882
 1742TIP3    H1 5190   1.631   0.901   3.841
 1742TIP3    H2 5191   1.604   0.752   3.839
 1743TIP3   OH2 5192   0.966   2.528   1.905
 1743TIP3    H1 5193   0.956   2.491   1.817
 1743TIP3    H2 5194   0.902   2.480   1.958
 1744TIP3   OH2 5195   1.656   5.307   0.146
 1744TIP3    H1 5196   1.567   5.326   0.174
 1744TIP3    H2 5197   1.709   5.378   0.183
 1745TIP3   OH2 5198   3.474   3.546   0.214
 1745TIP3    H1 5199   3.402   3.585   0.164
 1745TIP3    H2 5200   3.536   3.618   0.225
 1746TIP3   OH2 5201   2.163   4.687   0.628
 1746TIP3    H1 5202   2.071   4.676   0.604
 1746TIP3    H2 5203   2.184   4.612   0.682
 1747TIP3   OH2 5204   0.902   2.728   1.527
 1747TIP3    H1 5205   0.928   2.759   1.614
 1747TIP3    H2 5206   0.816   2.688   1.541
 1748TIP3   OH2 5207   6.006   0.225   2.546
 1748TIP3    H1 5208   5.920   0.245   2.584
 1748TIP3    H2 5209   6.017   0.291   2.477
 1749TIP3   OH2 5210   2.284   4.074   1.795
 1749TIP3    H1 5211   2.265   4.166   1.810
 1749TIP3    H2 5212   2.218   4.026   1.845
 1750TIP3   OH2 5213   5.026   0.918   2.217
 1750TIP3    H1 5214   5.121   0.904   2.218
 1750TIP3    H2 5215   4.991   0.840   2.173
 1751TIP3   OH2 5216   2.561   2.900   0.031
 1751TIP3    H1 5217   2.656   2.891   0.021
 1751TIP3    H2 5218   2.545   2.879   0.123
 1752TIP3   OH2 5219   6.390   6.103   0.971
 1752TIP3    H1 5220   6.464   6.067   0.922
 1752TIP3    H2 5221   6.430   6.139   1.051
 1753TIP3   OH2 5222   2.045   1.747   4.752
 1753TIP3    H1 5223   2.128   1.705   4.730
 1753TIP3    H2 5224   2.065   1.841   4.750
 1754TIP3   OH2 5225   4.526   4.123   5.053
 1754TIP3    H1 5226   4.432   4.142   5.055
 1754TIP3    H2 5227   4.555   4.153   4.967
 1755TIP3   OH2 5228   0.407   0.663   0.802
 1755TIP3    H1 5229   0.464   0.598   0.762
 1755TIP3    H2 5230   0.362   0.616   0.872
 1756TIP3   OH2 5231   5.684   5.012  -0.023
 1756TIP3    H1 5232   5.774   5.023   0.008
 1756TIP3    H2 5233   5.636   5.087   0.013
 1757TIP3   OH2 5234   2.554   5.158   1.454
 1757TIP3    H1 5235   2.498   5.087   1.487
 1757TIP3    H2 5236   2.497   5.208   1.396
 1758TIP3   OH2 5237   5.265   1.924   0.283
 1758TIP3    H1 5238   5.182   1.961   0.254
 1758TIP3    H2 5239   5.317   1.917   0.203
 1759TIP3   OH2 5240   1.980   0.095   2.288
 1759TIP3    H1 5241   2.012   0.014   2.328
 1759TIP3    H2 5242   2.038   0.163   2.321
 1760TIP3   OH2 5243   0.442   5.461   2.140
 1760TIP3    H1 5244   0.381   5.415   2.198
 1760TIP3    H2 5245   0.425   5.423   2.053
 1761TIP3   OH2 5246   6.432   5.103   4.122
 1761TIP3    H1 5247   6.387   5.019   4.117
 1761TIP3    H2 5248   6.408   5.148   4.041
 1762TIP3   OH2 5249   1.807   6.726   1.027
 1762TIP3    H1 5250   1.771   6.753   0.943
 1762TIP3    H2 5251   1.853   6.803   1.060
 1763TIP3   OH2 5252   0.723   4.457   0.260
 1763TIP3    H1 5253   0.778   4.402   0.205
 1763TIP3    H2 5254   0.666   4.504   0.199
 1764TIP3   OH2 5255   1.749   4.097   4.132
 1764TIP3    H1 5256   1.663   4.060   4.148
 1764TIP3    H2 5257   1.794   4.033   4.077
 1765TIP3   OH2 5258   5.106   0.328   4.853
 1765TIP3    H1 5259   5.012   0.334   4.871
 1765TIP3    H2 5260   5.146   0.303   4.936
 1766TIP3   OH2 5261   0.739   3.318   4.351
 1766TIP3    H1 5262   0.715   3.371   4.427
 1766TIP3    H2 5263   0.761   3.232   4.388
 1767TIP3   OH2 5264   3.934   3.638   3.213
 1767TIP3    H1 5265   4.026   3.666   3.218
 1767TIP3    H2 5266   3.912   3.611   3.302
 1768TIP3   OH2 5267   6.088   2.878   5.313
 1768TIP3    H1 5268   6.095   2.973   5.308
 1768TIP3    H2 5269   6.174   2.849   5.342
 1769TIP3   OH2 5270   5.238   4.304   4.743
 1769TIP3    H1 5271   5.292   4.247   4.799
 1769TIP3    H2 5272   5.301   4.357   4.695
 1770TIP3   OH2 5273   4.520   3.094   0.164
 1770TIP3    H1 5274   4.511   3.043   0.084
 1770TIP3    H2 5275   4.605   3.068   0.200
 1771TIP3   OH2 5276   0.363   0.885   0.995
 1771TIP3    H1 5277   0.382   0.863   0.904
 1771TIP3    H2 5278   0.302   0.959   0.990
 1772TIP3   OH2 5279   6.858   1.538   0.012
 1772TIP3    H1 5280   6.771   1.536   0.052
 1772TIP3    H2 5281   6.918   1.551   0.086
 1773TIP3   OH2 5282   6.129   2.117   4.517
 1773TIP3    H1 5283   6.136   2.210   4.500
 1773TIP3    H2 5284   6.162   2.106   4.606
 1774TIP3   OH2 5285   4.324   1.385   0.108
 1774TIP3    H1 5286   4.322   1.318   0.175
 1774TIP3    H2 5287   4.262   1.452   0.139
 1775TIP3   OH2 5288   0.779   0.643   0.782
 1775TIP3    H1 5289   0.740   0.574   0.836
 1775TIP3    H2 5290   0.839   0.598   0.723
 1776TIP3   OH2 5291   6.996   2.930   0.778
 1776TIP3    H1 5292   7.020   2.878   0.854
 1776TIP3    H2 5293   6.956   3.009   0.813
 1777TIP3   OH2 5294   3.823   0.796   4.087
 1777TIP3    H1 5295   3.738   0.834   4.065
 1777TIP3    H2 5296   3.802   0.712   4.129
 1778TIP3   OH2 5297   3.101   1.051   4.614
 1778TIP3    H1 5298   3.095   1.078   4.522
 1778TIP3    H2 5299   3.102   0.955   4.610
 1779TIP3   OH2 5300   5.133   4.420   2.395
 1779TIP3    H1 5301   5.038   4.411   2.403
 1779TIP3    H2 5302   5.146   4.508   2.359
 1780TIP3   OH2 5303   1.130   5.586   5.039
 1780TIP3    H1 5304   1.212   5.538   5.040
 1780TIP3    H2 5305   1.148   5.663   4.984
 1781TIP3   OH2 5306   6.063   2.413   3.998
 1781TIP3    H1 5307   6.107   2.488   4.038
 1781TIP3    H2 5308   6.103   2.337   4.041
 1782TIP3   OH2 5309   2.872   4.317   0.281
 1782TIP3    H1 5310   2.816   4.298   0.206
 1782TIP3    H2 5311   2.935   4.245   0.283
 1783TIP3   OH2 5312   4.450   0.126   3.791
 1783TIP3    H1 5313   4.544   0.143   3.785
 1783TIP3    H2 5314   4.427   0.090   3.705
 1784TIP3   OH2 5315   5.198   3.582   1.792
 1784TIP3    H1 5316   5.208   3.545   1.880
 1784TIP3    H2 5317   5.105   3.571   1.772
 1785TIP3   OH2 5318   3.046   6.575   5.166
 1785TIP3    H1 5319   3.020   6.491   5.205
 1785TIP3    H2 5320   3.138   6.563   5.142
 1786TIP3   OH2 5321   3.800   2.716   4.109
 1786TIP3    H1 5322   3.818   2.731   4.202
 1786TIP3    H2 5323   3.886   2.704   4.070
 1787TIP3   OH2 5324   5.974   3.407   4.327
 1787TIP3    H1 5325   5.881   3.423   4.307
 1787TIP3    H2 5326   5.977   3.402   4.422
 1788TIP3   OH2 5327   2.207   0.835   3.364
 1788TIP3    H1 5328   2.125   0.876   3.391
 1788TIP3    H2 5329   2.274   0.878   3.419
 1789TIP3   OH2 5330   4.136   1.288   4.434
 1789TIP3    H1 5331   4.123   1.281   4.339
 1789TIP3    H2 5332   4.063   1.342   4.464
 1790TIP3   OH2 5333   6.214   6.066   3.000
 1790TIP3    H1 5334   6.132   6.091   2.958
 1790TIP3    H2 5335   6.188   6.014   3.075
 1791TIP3   OH2 5336   6.995   6.541   3.001
 1791TIP3    H1 5337   6.949   6.487   3.065
 1791TIP3    H2 5338   7.014   6.481   2.929
 1792TIP3   OH2 5339   5.815   6.800   4.047
 1792TIP3    H1 5340   5.721   6.806   4.068
 1792TIP3    H2 5341   5.853   6.753   4.121
 1793TIP3   OH2 5342   2.491   0.747   0.476
 1793TIP3    H1 5343   2.445   0.769   0.556
 1793TIP3    H2 5344   2.530   0.661   0.493
 1794TIP3   OH2 5345   4.117   2.444   4.583
 1794TIP3    H1 5346   4.089   2.353   4.581
 1794TIP3    H2 5347   4.188   2.449   4.519
 1795TIP3   OH2 5348   6.913   0.952   2.869
 1795TIP3    H1 5349   6.851   1.024   2.859
 1795TIP3    H2 5350   6.942   0.933   2.779
 1796TIP3   OH2 5351   5.348   0.199   3.134
 1796TIP3    H1 5352   5.393   0.150   3.203
 1796TIP3    H2 5353   5.400   0.183   3.055
 1797TIP3   OH2 5354   5.350   6.185   2.046
 1797TIP3    H1 5355   5.410   6.246   2.090
 1797TIP3    H2 5356   5.324   6.124   2.115
 1798TIP3   OH2 5357   5.032   1.304   1.382
 1798TIP3    H1 5358   5.124   1.328   1.374
 1798TIP3    H2 5359   5.003   1.347   1.462
 1799TIP3   OH2 5360   4.656   0.881   3.208
 1799TIP3    H1 5361   4.707   0.839   3.278
 1799TIP3    H2 5362   4.613   0.954   3.251
 1800TIP3   OH2 5363   4.745   1.757   1.732
 1800TIP3    H1 5364   4.663   1.737   1.779
 1800TIP3    H2 5365   4.776   1.838   1.771
 1801TIP3   OH2 5366   5.400   2.534   3.400
 1801TIP3    H1 5367   5.411   2.629   3.400
 1801TIP3    H2 5368   5.363   2.515   3.487
 1802TIP3   OH2 5369   1.068   1.506   5.564
 1802TIP3    H1 5370   1.083   1.447   5.638
 1802TIP3    H2 5371   1.019   1.454   5.501
 1803TIP3   OH2 5372   0.845   3.506   1.479
 1803TIP3    H1 5373   0.837   3.601   1.465
 1803TIP3    H2 5374   0.937   3.494   1.503
 1804TIP3   OH2 5375   0.721   6.471   3.244
 1804TIP3    H1 5376   0.713   6.528   3.168
 1804TIP3    H2 5377   0.777   6.399   3.214
 1805TIP3   OH2 5378   4.488   3.707   1.786
 1805TIP3    H1 5379   4.409   3.738   1.741
 1805TIP3    H2 5380   4.476   3.612   1.792
 1806TIP3   OH2 5381   5.574   6.585   4.083
 1806TIP3    H1 5382   5.492   6.539   4.100
 1806TIP3    H2 5383   5.626   6.572   4.162
 1807TIP3   OH2 5384   3.115   1.065   5.080
 1807TIP3    H1 5385   3.209   1.071   5.064
 1807TIP3    H2 5386   3.107   1.066   5.175
 1808TIP3   OH2 5387   4.509   4.375   1.571
 1808TIP3    H1 5388   4.464   4.384   1.654
 1808TIP3    H2 5389   4.514   4.464   1.536
 1809TIP3   OH2 5390   0.377   4.389   2.694
 1809TIP3    H1 5391   0.363   4.426   2.607
 1809TIP3    H2 5392   0.350   4.459   2.754
 1810TIP3   OH2 5393   7.089   1.549   3.833
 1810TIP3    H1 5394   7.041   1.466   3.835
 1810TIP3    H2 5395   7.049   1.601   3.903
 1811TIP3   OH2 5396   6.252   2.154   0.010
 1811TIP3    H1 5397   6.175   2.205   0.037
 1811TIP3    H2 5398   6.231   2.064   0.034
 1812TIP3   OH2 5399   4.029   4.885   0.318
 1812TIP3    H1 5400   4.033   4.844   0.231
 1812TIP3    H2 5401   4.118   4.917   0.333
 1813TIP3   OH2 5402   3.034   4.570   4.065
 1813TIP3    H1 5403   2.993   4.595   4.148
 1813TIP3    H2 5404   3.126   4.558   4.087
 1814TIP3   OH2 5405   0.404   3.650   2.046
 1814TIP3    H1 5406   0.432   3.584   1.982
 1814TIP3    H2 5407   0.432   3.616   2.130
 1815TIP3   OH2 5408   6.370   3.364   4.489
 1815TIP3    H1 5409   6.329   3.278   4.479
 1815TIP3    H2 5410   6.302   3.425   4.462
 1816TIP3   OH2 5411   2.110   4.593   3.221
 1816TIP3    H1 5412   2.160   4.659   3.174
 1816TIP3    H2 5413   2.074   4.639   3.297
 1817TIP3   OH2 5414   1.844   3.331   1.069
 1817TIP3    H1 5415   1.896   3.261   1.029
 1817TIP3    H2 5416   1.753   3.303   1.056
 1818TIP3   OH2 5417   6.514   6.205   1.223
 1818TIP3    H1 5418   6.592   6.260   1.222
 1818TIP3    H2 5419   6.536   6.133   1.282
 1819TIP3   OH2 5420   6.327   2.575   4.367
 1819TIP3    H1 5421   6.418   2.549   4.352
 1819TIP3    H2 5422   6.334   2.657   4.416
 1820TIP3   OH2 5423   6.263   3.752   3.070
 1820TIP3    H1 5424   6.206   3.733   2.995
 1820TIP3    H2 5425   6.291   3.842   3.058
 1821TIP3   OH2 5426   7.088   5.362   2.831
 1821TIP3    H1 5427   7.134   5.297   2.884
 1821TIP3    H2 5428   7.082   5.439   2.887
 1822TIP3   OH2 5429   5.784   1.667   1.637
 1822TIP3    H1 5430   5.813   1.693   1.549
 1822TIP3    H2 5431   5.739   1.744   1.671
 1823TIP3   OH2 5432   2.514   6.063   3.255
 1823TIP3    H1 5433   2.444   6.078   3.192
 1823TIP3    H2 5434   2.522   6.146   3.303
 1824TIP3   OH2 5435   4.383   3.756   2.694
 1824TIP3    H1 5436   4.346   3.839   2.723
 1824TIP3    H2 5437   4.444   3.779   2.625
 1825TIP3   OH2 5438   4.935   5.458   3.731
 1825TIP3    H1 5439   4.951   5.366   3.750
 1825TIP3    H2 5440   5.004   5.505   3.777
 1826TIP3   OH2 5441   5.382   5.407   5.860
 1826TIP3    H1 5442   5.297   5.363   5.852
 1826TIP3    H2 5443   5.418   5.375   5.942
 1827TIP3   OH2 5444   0.310   6.362   4.933
 1827TIP3    H1 5445   0.318   6.383   4.840
 1827TIP3    H2 5446   0.397   6.378   4.969
 1828TIP3   OH2 5447   4.743   2.621   1.685
 1828TIP3    H1 5448   4.704   2.543   1.645
 1828TIP3    H2 5449   4.821   2.637   1.633
 1829TIP3   OH2 5450   6.243   4.101   3.742
 1829TIP3    H1 5451   6.338   4.088   3.741
 1829TIP3    H2 5452   6.207   4.019   3.774
 1830TIP3   OH2 5453   4.940   5.972   0.067
 1830TIP3    H1 5454   5.027   5.933   0.063
 1830TIP3    H2 5455   4.940   6.022   0.149
 1831TIP3   OH2 5456   4.454   5.524   3.227
 1831TIP3    H1 5457   4.414   5.604   3.194
 1831TIP3    H2 5458   4.445   5.531   3.323
 1832TIP3   OH2 5459   1.844   3.573   2.415
 1832TIP3    H1 5460   1.912   3.620   2.464
 1832TIP3    H2 5461   1.771   3.567   2.476
 1833TIP3   OH2 5462   1.861   1.499   0.160
 1833TIP3    H1 5463   1.825   1.479   0.246
 1833TIP3    H2 5464   1.944   1.452   0.157
 1834TIP3   OH2 5465   5.819   3.928   0.538
 1834TIP3    H1 5466   5.861   3.945   0.454
 1834TIP3    H2 5467   5.737   3.884   0.516
 1835TIP3   OH2 5468   3.387   3.364   5.720
 1835TIP3    H1 5469   3.436   3.283   5.730
 1835TIP3    H2 5470   3.423   3.423   5.786
 1836TIP3   OH2 5471   3.945   6.060   4.141
 1836TIP3    H1 5472   3.952   6.113   4.220
 1836TIP3    H2 5473   3.852   6.038   4.134
 1837TIP3   OH2 5474   4.649   6.754   0.266
 1837TIP3    H1 5475   4.599   6.766   0.347
 1837TIP3    H2 5476   4.698   6.673   0.280
 1838TIP3   OH2 5477   1.249   4.742   0.504
 1838TIP3    H1 5478   1.267   4.738   0.598
 1838TIP3    H2 5479   1.333   4.768   0.466
 1839TIP3   OH2 5480   4.648   2.801   5.103
 1839TIP3    H1 5481   4.646   2.802   5.199
 1839TIP3    H2 5482   4.659   2.709   5.081
 1840TIP3   OH2 5483   4.316   0.060   4.511
 1840TIP3    H1 5484   4.314   0.055   4.607
 1840TIP3    H2 5485   4.233   0.103   4.488
 1841TIP3   OH2 5486   0.812   4.851   5.860
 1841TIP3    H1 5487   0.749   4.798   5.909
 1841TIP3    H2 5488   0.760   4.893   5.791
 1842TIP3   OH2 5489   6.196   5.875   4.736
 1842TIP3    H1 5490   6.183   5.803   4.798
 1842TIP3    H2 5491   6.151   5.949   4.776
 1843TIP3   OH2 5492   3.712   6.318   2.803
 1843TIP3    H1 5493   3.687   6.372   2.728
 1843TIP3    H2 5494   3.641   6.255   2.813
 1844TIP3   OH2 5495   3.138   0.902   0.621
 1844TIP3    H1 5496   3.191   0.979   0.641
 1844TIP3    H2 5497   3.199   0.840   0.583
 1845TIP3   OH2 5498   6.185   3.674   1.022
 1845TIP3    H1 5499   6.130   3.745   1.055
 1845TIP3    H2 5500   6.237   3.647   1.098
 1846TIP3   OH2 5501   4.190   1.572   0.252
 1846TIP3    H1 5502   4.190   1.629   0.175
 1846TIP3    H2 5503   4.098   1.561   0.275
 1847TIP3   OH2 5504   4.217   1.225   5.507
 1847TIP3    H1 5505   4.272   1.303   5.501
 1847TIP3    H2 5506   4.165   1.226   5.427
 1848TIP3   OH2 5507   2.402   0.810   2.992
 1848TIP3    H1 5508   2.453   0.846   3.064
 1848TIP3    H2 5509   2.378   0.722   3.020
 1849TIP3   OH2 5510   2.646   2.606   2.751
 1849TIP3    H1 5511   2.727   2.655   2.736
 1849TIP3    H2 5512   2.611   2.590   2.664
 1850TIP3   OH2 5513   1.931   5.384   2.062
 1850TIP3    H1 5514   1.932   5.394   1.966
 1850TIP3    H2 5515   1.852   5.332   2.080
 1851TIP3   OH2 5516   0.475   3.611   1.625
 1851TIP3    H1 5517   0.537   3.673   1.664
 1851TIP3    H2 5518   0.519   3.526   1.632
 1852TIP3   OH2 5519   3.878   1.422   4.867
 1852TIP3    H1 5520   3.968   1.392   4.880
 1852TIP3    H2 5521   3.882   1.474   4.787
 1853TIP3   OH2 5522   2.704   6.375   4.814
 1853TIP3    H1 5523   2.782   6.423   4.841
 1853TIP3    H2 5524   2.643   6.443   4.785
 1854TIP3   OH2 5525   4.015   0.664   0.109
 1854TIP3    H1 5526   4.067   0.687   0.032
 1854TIP3    H2 5527   4.009   0.746   0.159
 1855TIP3   OH2 5528   0.147   0.953   0.194
 1855TIP3    H1 5529   0.064   0.919   0.227
 1855TIP3    H2 5530   0.123   1.032   0.146
 1856TIP3   OH2 5531   0.761   0.826   2.347
 1856TIP3    H1 5532   0.771   0.735   2.318
 1856TIP3    H2 5533   0.714   0.869   2.275
 1857TIP3   OH2 5534   6.098   6.580   5.106
 1857TIP3    H1 5535   6.190   6.558   5.123
 1857TIP3    H2 5536   6.060   6.592   5.193
 1858TIP3   OH2 5537   2.274   6.040   2.804
 1858TIP3    H1 5538   2.182   6.019   2.792
 1858TIP3    H2 5539   2.300   6.083   2.722
 1859TIP3   OH2 5540   2.250   1.675   5.316
 1859TIP3    H1 5541   2.309   1.606   5.286
 1859TIP3    H2 5542   2.278   1.692   5.406
 1860TIP3   OH2 5543   3.655   1.753   4.791
 1860TIP3    H1 5544   3.648   1.747   4.696
 1860TIP3    H2 5545   3.605   1.831   4.814
 1861TIP3   OH2 5546   0.633   4.712   1.897
 1861TIP3    H1 5547   0.628   4.792   1.950
 1861TIP3    H2 5548   0.614   4.641   1.958
 1862TIP3   OH2 5549   1.122   2.858   0.867
 1862TIP3    H1 5550   1.179   2.782   0.869
 1862TIP3    H2 5551   1.045   2.829   0.817
 1863TIP3   OH2 5552   1.481   4.869   4.531
 1863TIP3    H1 5553   1.387   4.853   4.541
 1863TIP3    H2 5554   1.494   4.959   4.559
 1864TIP3   OH2 5555   0.934   5.254   3.419
 1864TIP3    H1 5556   1.011   5.228   3.469
 1864TIP3    H2 5557   0.862   5.253   3.482
 1865TIP3   OH2 5558   5.338   6.039   0.640
 1865TIP3    H1 5559   5.351   6.128   0.672
 1865TIP3    H2 5560   5.404   5.987   0.686
 1866TIP3   OH2 5561   5.200   2.539   5.488
 1866TIP3    H1 5562   5.175   2.602   5.555
 1866TIP3    H2 5563   5.147   2.461   5.508
 1867TIP3   OH2 5564   3.756   1.170   0.231
 1867TIP3    H1 5565   3.836   1.190   0.278
 1867TIP3    H2 5566   3.695   1.139   0.298
 1868TIP3   OH2 5567   5.592   5.614   0.884
 1868TIP3    H1 5568   5.653   5.633   0.812
 1868TIP3    H2 5569   5.571   5.521   0.874
 1869TIP3   OH2 5570   5.353   0.890   3.361
 1869TIP3    H1 5571   5.359   0.976   3.321
 1869TIP3    H2 5572   5.434   0.846   3.336
 1870TIP3   OH2 5573   6.789   6.131   5.588
 1870TIP3    H1 5574   6.745   6.193   5.646
 1870TIP3    H2 5575   6.719   6.097   5.532
 1871TIP3   OH2 5576   0.818   3.146   4.610
 1871TIP3    H1 5577   0.907   3.110   4.604
 1871TIP3    H2 5578   0.831   3.232   4.651
 1872TIP3   OH2 5579   2.914   4.104   1.769
 1872TIP3    H1 5580   2.911   4.183   1.823
 1872TIP3    H2 5581   2.871   4.037   1.823
 1873TIP3   OH2 5582   6.230   6.246   2.327
 1873TIP3    H1 5583   6.246   6.339   2.341
 1873TIP3    H2 5584   6.252   6.205   2.410
 1874TIP3   OH2 5585   2.339   1.324   0.997
 1874TIP3    H1 5586   2.335   1.419   1.011
 1874TIP3    H2 5587   2.342   1.314   0.902
 1875TIP3   OH2 5588   4.560   5.228   5.329
 1875TIP3    H1 5589   4.468   5.249   5.347
 1875TIP3    H2 5590   4.607   5.309   5.347
 1876TIP3   OH2 5591   1.131   4.854   2.933
 1876TIP3    H1 5592   1.163   4.816   2.850
 1876TIP3    H2 5593   1.178   4.937   2.941
 1877TIP3   OH2 5594   1.722   6.794   5.523
 1877TIP3    H1 5595   1.656   6.830   5.583
 1877TIP3    H2 5596   1.765   6.725   5.573
 1878TIP3   OH2 5597   5.708   3.069   0.081
 1878TIP3    H1 5598   5.708   3.038   0.172
 1878TIP3    H2 5599   5.684   3.161   0.087
 1879TIP3   OH2 5600   3.115   3.885   3.646
 1879TIP3    H1 5601   3.177   3.893   3.574
 1879TIP3    H2 5602   3.139   3.957   3.705
 1880TIP3   OH2 5603   2.636   3.486   4.546
 1880TIP3    H1 5604   2.543   3.485   4.571
 1880TIP3    H2 5605   2.681   3.518   4.624
 1881TIP3   OH2 5606   5.979   4.993   0.027
 1881TIP3    H1 5607   6.017   4.927  -0.031
 1881TIP3    H2 5608   6.055   5.029   0.074
 1882TIP3   OH2 5609   4.153   6.523   4.896
 1882TIP3    H1 5610   4.202   6.605   4.890
 1882TIP3    H2 5611   4.099   6.532   4.974
 1883TIP3   OH2 5612   4.795   1.468   1.489
 1883TIP3    H1 5613   4.785   1.374   1.502
 1883TIP3    H2 5614   4.732   1.508   1.549
 1884TIP3   OH2 5615   3.278   2.984   3.071
 1884TIP3    H1 5616   3.228   2.911   3.107
 1884TIP3    H2 5617   3.323   3.023   3.146
 1885TIP3   OH2 5618   4.830   2.550   4.067
 1885TIP3    H1 5619   4.865   2.512   4.148
 1885TIP3    H2 5620   4.898   2.535   4.001
 1886TIP3   OH2 5621   0.248   6.358   3.140
 1886TIP3    H1 5622   0.153   6.351   3.149
 1886TIP3    H2 5623   0.266   6.451   3.145
 1887TIP3   OH2 5624   6.293   3.218   1.047
 1887TIP3    H1 5625   6.315   3.168   1.126
 1887TIP3    H2 5626   6.301   3.154   0.976
 1888TIP3   OH2 5627   4.353   1.949   3.840
 1888TIP3    H1 5628   4.441   1.911   3.844
 1888TIP3    H2 5629   4.350   1.994   3.755
 1889TIP3   OH2 5630   6.616   2.653   2.342
 1889TIP3    H1 5631   6.696   2.692   2.307
 1889TIP3    H2 5632   6.646   2.573   2.385
 1890TIP3   OH2 5633   0.427   4.809   1.743
 1890TIP3    H1 5634   0.497   4.794   1.806
 1890TIP3    H2 5635   0.472   4.830   1.661
 1891TIP3   OH2 5636   0.324   4.785   5.589
 1891TIP3    H1 5637   0.304   4.817   5.678
 1891TIP3    H2 5638   0.385   4.713   5.603
 1892TIP3   OH2 5639   4.226   4.905   2.619
 1892TIP3    H1 5640   4.241   4.926   2.527
 1892TIP3    H2 5641   4.302   4.943   2.665
 1893TIP3   OH2 5642   1.958   6.596   0.373
 1893TIP3    H1 5643   2.014   6.521   0.394
 1893TIP3    H2 5644   1.959   6.650   0.452
 1894TIP3   OH2 5645   1.749   1.947   2.208
 1894TIP3    H1 5646   1.808   2.022   2.194
 1894TIP3    H2 5647   1.776   1.913   2.293
 1895TIP3   OH2 5648   5.947   4.088   4.930
 1895TIP3    H1 5649   5.971   3.996   4.915
 1895TIP3    H2 5650   6.027   4.137   4.912
 1896TIP3   OH2 5651   2.276   2.909   1.221
 1896TIP3    H1 5652   2.311   2.978   1.165
 1896TIP3    H2 5653   2.213   2.863   1.165
 1897TIP3   OH2 5654   6.793   3.347   5.748
 1897TIP3    H1 5655   6.868   3.386   5.702
 1897TIP3    H2 5656   6.801   3.379   5.837
 1898TIP3   OH2 5657   5.589   4.546   0.063
 1898TIP3    H1 5658   5.551   4.620   0.016
 1898TIP3    H2 5659   5.684   4.558   0.054
 1899TIP3   OH2 5660   2.385   5.222   4.626
 1899TIP3    H1 5661   2.292   5.235   4.607
 1899TIP3    H2 5662   2.392   5.128   4.645
 1900TIP3   OH2 5663   0.030   1.502   5.337
 1900TIP3    H1 5664   0.047   1.408   5.335
 1900TIP3    H2 5665   0.091   1.539   5.273
 1901TIP3   OH2 5666   4.496   3.280   5.036
 1901TIP3    H1 5667   4.491   3.317   4.948
 1901TIP3    H2 5668   4.464   3.190   5.026
 1902TIP3   OH2 5669   3.762   1.150   1.926
 1902TIP3    H1 5670   3.844   1.197   1.941
 1902TIP3    H2 5671   3.695   1.218   1.930
 1903TIP3   OH2 5672   0.318   0.087   1.820
 1903TIP3    H1 5673   0.362   0.054   1.741
 1903TIP3    H2 5674   0.236   0.038   1.824
 1904TIP3   OH2 5675   6.291   4.457   2.170
 1904TIP3    H1 5676   6.208   4.433   2.212
 1904TIP3    H2 5677   6.295   4.552   2.177
 1905TIP3   OH2 5678   0.990   0.877   3.947
 1905TIP3    H1 5679   0.901   0.895   3.917
 1905TIP3    H2 5680   0.979   0.826   4.027
 1906TIP3   OH2 5681   5.133   0.873   5.447
 1906TIP3    H1 5682   5.058   0.927   5.424
 1906TIP3    H2 5683   5.200   0.895   5.382
 1907TIP3   OH2 5684   0.436   0.245   3.804
 1907TIP3    H1 5685   0.381   0.212   3.733
 1907TIP3    H2 5686   0.504   0.178   3.815
 1908TIP3   OH2 5687   1.220   3.464   3.306
 1908TIP3    H1 5688   1.140   3.492   3.351
 1908TIP3    H2 5689   1.267   3.413   3.371
 1909TIP3   OH2 5690   0.058   6.277   3.703
 1909TIP3    H1 5691   0.125   6.211   3.684
 1909TIP3    H2 5692  -0.025   6.230   3.693
 1910TIP3   OH2 5693   1.267   6.044   3.319
 1910TIP3    H1 5694   1.268   5.979   3.389
 1910TIP3    H2 5695   1.175   6.061   3.302
 1911TIP3   OH2 5696   1.490   0.079   3.790
 1911TIP3    H1 5697   1.429   0.005   3.788
 1911TIP3    H2 5698   1.472   0.128   3.711
 1912TIP3   OH2 5699   1.271   5.040   5.228
 1912TIP3    H1 5700   1.364   5.021   5.241
 1912TIP3    H2 5701   1.230   4.954   5.219
 1913TIP3   OH2 5702   0.819   6.306   0.372
 1913TIP3    H1 5703   0.751   6.374   0.367
 1913TIP3    H2 5704   0.892   6.349   0.416
 1914TIP3   OH2 5705   0.105   5.265   4.859
 1914TIP3    H1 5706   0.135   5.300   4.775
 1914TIP3    H2 5707   0.019   5.306   4.872
 1915TIP3   OH2 5708   5.951   3.006   3.690
 1915TIP3    H1 5709   5.902   2.958   3.623
 1915TIP3    H2 5710   6.023   2.948   3.713
 1916TIP3   OH2 5711   6.070   5.414   4.432
 1916TIP3    H1 5712   6.156   5.394   4.468
 1916TIP3    H2 5713   6.010   5.360   4.483
 1917TIP3   OH2 5714   0.961   5.702   2.755
 1917TIP3    H1 5715   1.024   5.647   2.709
 1917TIP3    H2 5716   0.970   5.788   2.714
 1918TIP3   OH2 5717   6.405   3.457   3.935
 1918TIP3    H1 5718   6.447   3.385   3.981
 1918TIP3    H2 5719   6.320   3.422   3.908
 1919TIP3   OH2 5720   3.214   4.326   2.542
 1919TIP3    H1 5721   3.121   4.331   2.519
 1919TIP3    H2 5722   3.245   4.248   2.497
 1920TIP3   OH2 5723   1.109   6.745   0.357
 1920TIP3    H1 5724   1.173   6.808   0.324
 1920TIP3    H2 5725   1.161   6.678   0.402
 1921TIP3   OH2 5726   4.408   4.659   0.153
 1921TIP3    H1 5727   4.461   4.589   0.191
 1921TIP3    H2 5728   4.465   4.701   0.089
 1922TIP3   OH2 5729   4.013   5.581   0.963
 1922TIP3    H1 5730   4.087   5.523   0.981
 1922TIP3    H2 5731   3.980   5.607   1.049
 1923TIP3   OH2 5732   0.434   6.011   4.883
 1923TIP3    H1 5733   0.489   6.088   4.895
 1923TIP3    H2 5734   0.348   6.037   4.917
 1924TIP3   OH2 5735   4.383   0.135   1.066
 1924TIP3    H1 5736   4.444   0.157   0.996
 1924TIP3    H2 5737   4.428   0.161   1.146
 1925TIP3   OH2 5738   1.621   1.034   4.108
 1925TIP3    H1 5739   1.583   0.970   4.048
 1925TIP3    H2 5740   1.576   1.116   4.087
 1926TIP3   OH2 5741   4.258   1.758   0.455
 1926TIP3    H1 5742   4.250   1.681   0.399
 1926TIP3    H2 5743   4.231   1.727   0.542
 1927TIP3   OH2 5744   3.889   1.124   4.742
 1927TIP3    H1 5745   3.958   1.095   4.682
 1927TIP3    H2 5746   3.858   1.206   4.704
 1928TIP3   OH2 5747   4.977   1.698   5.280
 1928TIP3    H1 5748   4.929   1.615   5.288
 1928TIP3    H2 5749   4.939   1.753   5.349
 1929TIP3   OH2 5750   0.737   5.767   2.228
 1929TIP3    H1 5751   0.708   5.724   2.148
 1929TIP3    H2 5752   0.819   5.810   2.204
 1930TIP3   OH2 5753   3.125   2.080   2.200
 1930TIP3    H1 5754   3.048   2.022   2.201
 1930TIP3    H2 5755   3.088   2.168   2.195
 1931TIP3   OH2 5756   5.134   0.653   1.839
 1931TIP3    H1 5757   5.057   0.651   1.782
 1931TIP3    H2 5758   5.099   0.641   1.927
 1932TIP3   OH2 5759   3.346   5.272   0.075
 1932TIP3    H1 5760   3.329   5.186   0.113
 1932TIP3    H2 5761   3.431   5.263   0.032
 1933TIP3   OH2 5762   1.009   6.377   0.815
 1933TIP3    H1 5763   0.940   6.350   0.875
 1933TIP3    H2 5764   1.047   6.294   0.784
 1934TIP3   OH2 5765   1.693   3.592   0.266
 1934TIP3    H1 5766   1.599   3.576   0.263
 1934TIP3    H2 5767   1.724   3.538   0.339
 1935TIP3   OH2 5768   1.167   5.413   1.535
 1935TIP3    H1 5769   1.105   5.480   1.506
 1935TIP3    H2 5770   1.127   5.374   1.612
 1936TIP3   OH2 5771   6.877   5.679   2.194
 1936TIP3    H1 5772   6.906   5.764   2.228
 1936TIP3    H2 5773   6.854   5.695   2.103
 1937TIP3   OH2 5774   6.257   6.427   3.306
 1937TIP3    H1 5775   6.328   6.448   3.245
 1937TIP3    H2 5776   6.188   6.489   3.284
 1938TIP3   OH2 5777   6.386   0.614   3.717
 1938TIP3    H1 5778   6.428   0.535   3.681
 1938TIP3    H2 5779   6.383   0.675   3.643
 1939TIP3   OH2 5780   6.537   6.674   0.460
 1939TIP3    H1 5781   6.461   6.729   0.439
 1939TIP3    H2 5782   6.504   6.584   0.449
 1940TIP3   OH2 5783   7.047   6.540   4.553
 1940TIP3    H1 5784   7.013   6.626   4.527
 1940TIP3    H2 5785   7.137   6.539   4.520
 1941TIP3   OH2 5786   0.561   3.878   0.400
 1941TIP3    H1 5787   0.547   3.950   0.338
 1941TIP3    H2 5788   0.476   3.833   0.404
 1942TIP3   OH2 5789   0.529   1.178   0.229
 1942TIP3    H1 5790   0.461   1.132   0.278
 1942TIP3    H2 5791   0.610   1.162   0.278
 1943TIP3   OH2 5792   2.607   4.362   1.128
 1943TIP3    H1 5793   2.628   4.291   1.189
 1943TIP3    H2 5794   2.643   4.333   1.044
 1944TIP3   OH2 5795   7.211   2.183   5.696
 1944TIP3    H1 5796   7.293   2.145   5.663
 1944TIP3    H2 5797   7.147   2.112   5.687
 1945TIP3   OH2 5798   7.185   6.381   2.794
 1945TIP3    H1 5799   7.230   6.311   2.842
 1945TIP3    H2 5800   7.096   6.347   2.781
 1946TIP3   OH2 5801   4.336   6.319   0.478
 1946TIP3    H1 5802   4.334   6.391   0.540
 1946TIP3    H2 5803   4.403   6.260   0.512
 1947TIP3   OH2 5804   0.615   1.824   3.714
 1947TIP3    H1 5805   0.595   1.788   3.627
 1947TIP3    H2 5806   0.676   1.896   3.696
 1948TIP3   OH2 5807   6.646   0.753   3.803
 1948TIP3    H1 5808   6.741   0.742   3.806
 1948TIP3    H2 5809   6.618   0.702   3.727
 1949TIP3   OH2 5810   1.809   0.192   4.553
 1949TIP3    H1 5811   1.786   0.133   4.625
 1949TIP3    H2 5812   1.756   0.160   4.479
 1950TIP3   OH2 5813   3.184   5.132   3.852
 1950TIP3    H1 5814   3.147   5.207   3.804
 1950TIP3    H2 5815   3.254   5.169   3.905
 1951TIP3   OH2 5816   3.314   2.049   5.139
 1951TIP3    H1 5817   3.347   2.055   5.228
 1951TIP3    H2 5818   3.283   1.958   5.132
 1952TIP3   OH2 5819   6.686   2.056   3.337
 1952TIP3    H1 5820   6.681   1.977   3.391
 1952TIP3    H2 5821   6.636   2.035   3.259
 1953TIP3   OH2 5822   6.533   2.181   5.791
 1953TIP3    H1 5823   6.593   2.108   5.800
 1953TIP3    H2 5824   6.513   2.206   5.882
 1954TIP3   OH2 5825   5.339   3.851   4.511
 1954TIP3    H1 5826   5.309   3.808   4.591
 1954TIP3    H2 5827   5.403   3.915   4.541
 1955TIP3   OH2 5828   6.966   2.713   2.239
 1955TIP3    H1 5829   7.038   2.714   2.175
 1955TIP3    H2 5830   6.914   2.790   2.218
 1956TIP3   OH2 5831   5.673   5.086   2.025
 1956TIP3    H1 5832   5.622   5.023   1.975
 1956TIP3    H2 5833   5.677   5.049   2.113
 1957TIP3   OH2 5834   3.844   3.730   1.343
 1957TIP3    H1 5835   3.818   3.763   1.257
 1957TIP3    H2 5836   3.794   3.783   1.405
 1958TIP3   OH2 5837   2.997   5.356   4.111
 1958TIP3    H1 5838   3.065   5.329   4.050
 1958TIP3    H2 5839   2.927   5.390   4.056
 1959TIP3   OH2 5840   5.976   5.955   1.234
 1959TIP3    H1 5841   5.926   5.887   1.189
 1959TIP3    H2 5842   6.048   5.975   1.174
 1960TIP3   OH2 5843   2.789   4.414   3.621
 1960TIP3    H1 5844   2.792   4.381   3.711
 1960TIP3    H2 5845   2.769   4.507   3.631
 1961TIP3   OH2 5846   4.024   6.630   1.948
 1961TIP3    H1 5847   4.022   6.714   1.902
 1961TIP3    H2 5848   3.944   6.585   1.919
 1962TIP3   OH2 5849   3.697   2.000   5.790
 1962TIP3    H1 5850   3.620   2.031   5.839
 1962TIP3    H2 5851   3.660   1.963   5.710
 1963TIP3   OH2 5852   0.466   6.179   1.076
 1963TIP3    H1 5853   0.477   6.271   1.052
 1963TIP3    H2 5854   0.521   6.132   1.013
 1964TIP3   OH2 5855   1.067   6.343   1.162
 1964TIP3    H1 5856   1.019   6.359   1.244
 1964TIP3    H2 5857   1.159   6.341   1.189
 1965TIP3   OH2 5858   0.793   4.241   3.551
 1965TIP3    H1 5859   0.797   4.150   3.521
 1965TIP3    H2 5860   0.869   4.250   3.609
 1966TIP3   OH2 5861   2.191   3.950   3.890
 1966TIP3    H1 5862   2.215   3.865   3.927
 1966TIP3    H2 5863   2.274   3.995   3.877
 1967TIP3   OH2 5864   1.208   4.068   2.627
 1967TIP3    H1 5865   1.267   4.117   2.685
 1967TIP3    H2 5866   1.122   4.107   2.643
 1968TIP3   OH2 5867   3.591   6.000   1.507
 1968TIP3    H1 5868   3.586   5.908   1.534
 1968TIP3    H2 5869   3.605   5.997   1.413
 1969TIP3   OH2 5870   1.549   4.378   1.001
 1969TIP3    H1 5871   1.522   4.352   1.089
 1969TIP3    H2 5872   1.467   4.383   0.951
 1970TIP3   OH2 5873   5.017   2.791   0.485
 1970TIP3    H1 5874   5.089   2.838   0.526
 1970TIP3    H2 5875   5.024   2.702   0.520
 1971TIP3   OH2 5876   5.341   5.150   0.858
 1971TIP3    H1 5877   5.285   5.157   0.935
 1971TIP3    H2 5878   5.379   5.062   0.863
 1972TIP3   OH2 5879   2.268   2.479   5.835
 1972TIP3    H1 5880   2.352   2.489   5.789
 1972TIP3    H2 5881   2.210   2.438   5.771
 1973TIP3   OH2 5882   4.361   0.684   3.655
 1973TIP3    H1 5883   4.383   0.762   3.604
 1973TIP3    H2 5884   4.439   0.629   3.650
 1974TIP3   OH2 5885   3.148   1.232   3.239
 1974TIP3    H1 5886   3.061   1.192   3.246
 1974TIP3    H2 5887   3.171   1.225   3.146
 1975TIP3   OH2 5888   3.444   5.506   4.921
 1975TIP3    H1 5889   3.531   5.545   4.912
 1975TIP3    H2 5890   3.438   5.443   4.850
 1976TIP3   OH2 5891   0.186   1.048   4.925
 1976TIP3    H1 5892   0.127   0.998   4.870
 1976TIP3    H2 5893   0.228   1.110   4.865
 1977TIP3   OH2 5894   3.545   6.655   3.742
 1977TIP3    H1 5895   3.635   6.626   3.736
 1977TIP3    H2 5896   3.535   6.684   3.833
 1978TIP3   OH2 5897   7.153   2.934   5.389
 1978TIP3    H1 5898   7.155   2.872   5.462
 1978TIP3    H2 5899   7.142   3.020   5.430
 1979TIP3   OH2 5900   1.667   2.222   4.434
 1979TIP3    H1 5901   1.680   2.160   4.362
 1979TIP3    H2 5902   1.605   2.179   4.492
 1980TIP3   OH2 5903   3.353   1.917   2.340
 1980TIP3    H1 5904   3.408   1.987   2.304
 1980TIP3    H2 5905   3.265   1.936   2.307
 1981TIP3   OH2 5906   6.489   5.773   5.278
 1981TIP3    H1 5907   6.521   5.748   5.191
 1981TIP3    H2 5908   6.489   5.869   5.277
 1982TIP3   OH2 5909   2.809  -0.020   2.459
 1982TIP3    H1 5910   2.869   0.016   2.524
 1982TIP3    H2 5911   2.809   0.045   2.388
 1983TIP3   OH2 5912   1.015   2.373   2.260
 1983TIP3    H1 5913   1.096   2.396   2.215
 1983TIP3    H2 5914   0.995   2.450   2.314
 1984TIP3   OH2 5915   4.473   3.481   2.659
 1984TIP3    H1 5916   4.430   3.559   2.693
 1984TIP3    H2 5917   4.492   3.428   2.737
 1985TIP3   OH2 5918   5.626   3.638   5.228
 1985TIP3    H1 5919   5.538   3.621   5.195
 1985TIP3    H2 5920   5.612   3.674   5.316
 1986TIP3   OH2 5921   0.886   6.318   4.457
 1986TIP3    H1 5922   0.915   6.227   4.446
 1986TIP3    H2 5923   0.837   6.338   4.378
 1987TIP3   OH2 5924   1.357   4.215   5.191
 1987TIP3    H1 5925   1.381   4.177   5.107
 1987TIP3    H2 5926   1.271   4.178   5.211
 1988TIP3   OH2 5927   7.027   1.763   4.814
 1988TIP3    H1 5928   7.054   1.855   4.805
 1988TIP3    H2 5929   7.067   1.734   4.896
 1989TIP3   OH2 5930   3.821   2.232   5.846
 1989TIP3    H1 5931   3.829   2.236   5.941
 1989TIP3    H2 5932   3.782   2.146   5.829
 1990TIP3   OH2 5933   5.916   4.044   5.535
 1990TIP3    H1 5934   5.844   3.998   5.578
 1990TIP3    H2 5935   5.913   4.014   5.444
 1991TIP3   OH2 5936   4.295   2.650   2.209
 1991TIP3    H1 5937   4.280   2.578   2.147
 1991TIP3    H2 5938   4.388   2.669   2.202
 1992TIP3   OH2 5939   7.160   0.132   0.661
 1992TIP3    H1 5940   7.065   0.134   0.671
 1992TIP3    H2 5941   7.192   0.196   0.725
 1993TIP3   OH2 5942   5.355   3.073   2.046
 1993TIP3    H1 5943   5.311   3.158   2.050
 1993TIP3    H2 5944   5.412   3.073   2.123
 1994TIP3   OH2 5945   5.068   3.873   4.463
 1994TIP3    H1 5946   5.041   3.891   4.553
 1994TIP3    H2 5947   5.163   3.883   4.463
 1995TIP3   OH2 5948   4.261   5.693   2.115
 1995TIP3    H1 5949   4.312   5.754   2.062
 1995TIP3    H2 5950   4.226   5.746   2.187
 1996TIP3   OH2 5951   1.970   2.960   2.265
 1996TIP3    H1 5952   1.982   3.023   2.336
 1996TIP3    H2 5953   2.019   2.998   2.191
 1997TIP3   OH2 5954   5.670   4.491   5.667
 1997TIP3    H1 5955   5.762   4.497   5.694
 1997TIP3    H2 5956   5.672   4.499   5.571
 1998TIP3   OH2 5957   4.832   5.723   3.491
 1998TIP3    H1 5958   4.793   5.778   3.423
 1998TIP3    H2 5959   4.850   5.640   3.446
 1999TIP3   OH2 5960   5.367   5.574   4.370
 1999TIP3    H1 5961   5.388   5.626   4.447
 1999TIP3    H2 5962   5.442   5.516   4.359
 2000TIP3   OH2 5963   1.863   4.936   3.334
 2000TIP3    H1 5964   1.895   5.003   3.274
 2000TIP3    H2 5965   1.931   4.927   3.400
 2001TIP3   OH2 5966   6.845   6.346   2.392
 2001TIP3    H1 5967   6.821   6.378   2.305
 2001TIP3    H2 5968   6.796   6.264   2.401
 2002TIP3   OH2 5969   3.515   2.688   1.256
 2002TIP3    H1 5970   3.430   2.669   1.296
 2002TIP3    H2 5971   3.573   2.702   1.330
 2003TIP3   OH2 5972   1.438   0.652   5.300
 2003TIP3    H1 5973   1.508   0.715   5.319
 2003TIP3    H2 5974   1.478   0.567   5.316
 2004TIP3   OH2 5975   2.804   1.391   4.827
 2004TIP3    H1 5976   2.890   1.364   4.857
 2004TIP3    H2 5977   2.746   1.375   4.903
 2005TIP3   OH2 5978   5.364   6.733   1.930
 2005TIP3    H1 5979   5.279   6.774   1.938
 2005TIP3    H2 5980   5.352   6.645   1.967
 2006TIP3   OH2 5981   0.309   0.826   3.007
 2006TIP3    H1 5982   0.369   0.898   3.024
 2006TIP3    H2 5983   0.229   0.867   2.976
 2007TIP3   OH2 5984   6.676   0.165   3.783
 2007TIP3    H1 5985   6.740   0.131   3.846
 2007TIP3    H2 5986   6.728   0.203   3.713
 2008TIP3   OH2 5987   1.572   1.038   5.604
 2008TIP3    H1 5988   1.523   1.020   5.684
 2008TIP3    H2 5989   1.627   0.961   5.591
 2009TIP3   OH2 5990   2.929   0.341   5.929
 2009TIP3    H1 5991   2.936   0.246   5.938
 2009TIP3    H2 5992   2.856   0.354   5.868
 2010TIP3   OH2 5993   6.535   1.107   0.734
 2010TIP3    H1 5994   6.619   1.124   0.692
 2010TIP3    H2 5995   6.555   1.102   0.827
 2011TIP3   OH2 5996   0.965   5.937   1.760
 2011TIP3    H1 5997   0.926   5.949   1.674
 2011TIP3    H2 5998   1.027   5.866   1.748
 2012TIP3   OH2 5999   0.299   6.465   0.162
 2012TIP3    H1 6000   0.226   6.472   0.100
 2012TIP3    H2 6001   0.370   6.425   0.112
 2013TIP3   OH2 6002   6.886   2.696   0.071
 2013TIP3    H1 6003   6.902   2.790   0.073
 2013TIP3    H2 6004   6.809   2.683   0.126
 2014TIP3   OH2 6005   6.557   6.582   1.325
 2014TIP3    H1 6006   6.581   6.663   1.280
 2014TIP3    H2 6007   6.465   6.569   1.303
 2015TIP3   OH2 6008   0.695   1.453   0.246
 2015TIP3    H1 6009   0.630   1.413   0.304
 2015TIP3    H2 6010   0.755   1.381   0.223
 2016TIP3   OH2 6011   1.652   4.391   5.503
 2016TIP3    H1 6012   1.584   4.324   5.501
 2016TIP3    H2 6013   1.632   4.449   5.430
 2017TIP3   OH2 6014   1.009   5.999   5.757
 2017TIP3    H1 6015   0.965   6.083   5.769
 2017TIP3    H2 6016   1.012   5.987   5.662
 2018TIP3   OH2 6017   3.779   5.776   4.361
 2018TIP3    H1 6018   3.855   5.772   4.304
 2018TIP3    H2 6019   3.809   5.827   4.437
 2019TIP3   OH2 6020   3.913   1.151   5.041
 2019TIP3    H1 6021   3.988   1.093   5.050
 2019TIP3    H2 6022   3.876   1.130   4.955
 2020TIP3   OH2 6023   4.704   0.050   1.529
 2020TIP3    H1 6024   4.723  -0.020   1.591
 2020TIP3    H2 6025   4.746   0.128   1.566
 2021TIP3   OH2 6026   6.987   1.149   5.043
 2021TIP3    H1 6027   6.939   1.227   5.071
 2021TIP3    H2 6028   7.079   1.175   5.048
 2022TIP3   OH2 6029   6.928   2.169   1.812
 2022TIP3    H1 6030   6.961   2.250   1.774
 2022TIP3    H2 6031   6.948   2.102   1.747
 2023TIP3   OH2 6032   5.583   6.054   5.769
 2023TIP3    H1 6033   5.523   6.089   5.702
 2023TIP3    H2 6034   5.624   6.132   5.807
 2024TIP3   OH2 6035   1.171   2.149   3.896
 2024TIP3    H1 6036   1.230   2.197   3.954
 2024TIP3    H2 6037   1.181   2.057   3.921
 2025TIP3   OH2 6038   5.901   5.546   0.030
 2025TIP3    H1 6039   5.837   5.524  -0.037
 2025TIP3    H2 6040   5.887   5.481   0.099
 2026TIP3   OH2 6041   4.154   0.972   5.001
 2026TIP3    H1 6042   4.155   0.945   4.909
 2026TIP3    H2 6043   4.173   0.892   5.049
 2027TIP3   OH2 6044   4.399   5.589   0.144
 2027TIP3    H1 6045   4.427   5.666   0.193
 2027TIP3    H2 6046   4.345   5.624   0.073
 2028TIP3   OH2 6047   0.793   6.553   3.978
 2028TIP3    H1 6048   0.874   6.501   3.978
 2028TIP3    H2 6049   0.742   6.518   3.905
 2029TIP3   OH2 6050   4.299   0.045   0.581
 2029TIP3    H1 6051   4.351   0.114   0.539
 2029TIP3    H2 6052   4.363  -0.004   0.633
 2030TIP3   OH2 6053   4.540   0.629   0.133
 2030TIP3    H1 6054   4.585   0.600   0.213
 2030TIP3    H2 6055   4.511   0.548   0.091
 2031TIP3   OH2 6056   1.124   5.057   0.623
 2031TIP3    H1 6057   1.120   5.015   0.537
 2031TIP3    H2 6058   1.071   5.002   0.680
 2032TIP3   OH2 6059   2.787   3.821   4.354
 2032TIP3    H1 6060   2.868   3.870   4.338
 2032TIP3    H2 6061   2.816   3.737   4.388
 2033TIP3   OH2 6062   0.314   4.788   1.411
 2033TIP3    H1 6063   0.269   4.870   1.430
 2033TIP3    H2 6064   0.250   4.720   1.431
 2034TIP3   OH2 6065   1.195   4.628   5.880
 2034TIP3    H1 6066   1.256   4.670   5.820
 2034TIP3    H2 6067   1.159   4.699   5.932
 2035TIP3   OH2 6068   1.286   4.718   0.782
 2035TIP3    H1 6069   1.367   4.719   0.832
 2035TIP3    H2 6070   1.222   4.762   0.838
 2036TIP3   OH2 6071   5.017   3.203   0.175
 2036TIP3    H1 6072   4.955   3.156   0.230
 2036TIP3    H2 6073   5.059   3.135   0.122
 2037TIP3   OH2 6074   1.497   2.716   0.750
 2037TIP3    H1 6075   1.571   2.776   0.753
 2037TIP3    H2 6076   1.521   2.652   0.683
 2038TIP3   OH2 6077   0.301   1.149   4.417
 2038TIP3    H1 6078   0.246   1.073   4.399
 2038TIP3    H2 6079   0.354   1.159   4.338
 2039TIP3   OH2 6080   0.791   6.688   4.465
 2039TIP3    H1 6081   0.742   6.686   4.383
 2039TIP3    H2 6082   0.726   6.709   4.532
 2040TIP3   OH2 6083   5.194   2.145   4.736
 2040TIP3    H1 6084   5.151   2.183   4.813
 2040TIP3    H2 6085   5.285   2.134   4.762
 2041TIP3   OH2 6086   6.450   6.362   0.138
 2041TIP3    H1 6087   6.418   6.294   0.078
 2041TIP3    H2 6088   6.390   6.356   0.213
 2042TIP3   OH2 6089   1.731   1.125   0.456
 2042TIP3    H1 6090   1.794   1.053   0.462
 2042TIP3    H2 6091   1.664   1.095   0.395
 2043TIP3   OH2 6092   6.969   2.529   4.680
 2043TIP3    H1 6093   6.946   2.620   4.700
 2043TIP3    H2 6094   7.058   2.534   4.646
 2044TIP3   OH2 6095   2.487   0.104   1.895
 2044TIP3    H1 6096   2.498   0.090   1.801
 2044TIP3    H2 6097   2.414   0.166   1.902
 2045TIP3   OH2 6098   1.711   5.686   0.676
 2045TIP3    H1 6099   1.649   5.652   0.740
 2045TIP3    H2 6100   1.784   5.623   0.676
 2046TIP3   OH2 6101   2.793   3.356   4.362
 2046TIP3    H1 6102   2.756   3.390   4.281
 2046TIP3    H2 6103   2.756   3.412   4.431
 2047TIP3   OH2 6104   0.538   4.610   4.290
 2047TIP3    H1 6105   0.444   4.601   4.309
 2047TIP3    H2 6106   0.563   4.525   4.254
 2048TIP3   OH2 6107   3.672   5.081   1.599
 2048TIP3    H1 6108   3.651   5.144   1.668
 2048TIP3    H2 6109   3.640   5.122   1.519
 2049TIP3   OH2 6110   1.888   0.884   4.756
 2049TIP3    H1 6111   1.804   0.872   4.800
 2049TIP3    H2 6112   1.879   0.967   4.709
 2050TIP3   OH2 6113  -0.014   2.452   0.894
 2050TIP3    H1 6114   0.042   2.469   0.970
 2050TIP3    H2 6115   0.030   2.499   0.822
 2051TIP3   OH2 6116   5.096   3.746   4.187
 2051TIP3    H1 6117   5.067   3.824   4.235
 2051TIP3    H2 6118   5.048   3.749   4.104
 2052TIP3   OH2 6119   4.246   4.180   4.969
 2052TIP3    H1 6120   4.217   4.095   4.937
 2052TIP3    H2 6121   4.260   4.232   4.890
 2053TIP3   OH2 6122   6.228   4.801   0.121
 2053TIP3    H1 6123   6.162   4.804   0.190
 2053TIP3    H2 6124   6.259   4.892   0.114
 2054TIP3   OH2 6125   1.157   4.689   2.668
 2054TIP3    H1 6126   1.169   4.599   2.697
 2054TIP3    H2 6127   1.072   4.689   2.624
 2055TIP3   OH2 6128   0.916   1.694   4.010
 2055TIP3    H1 6129   0.979   1.627   3.983
 2055TIP3    H2 6130   0.832   1.649   4.012
 2056TIP3   OH2 6131   6.637   5.587   0.079
 2056TIP3    H1 6132   6.598   5.525   0.017
 2056TIP3    H2 6133   6.723   5.550   0.100
 2057TIP3   OH2 6134   3.505   6.809   2.085
 2057TIP3    H1 6135   3.438   6.749   2.051
 2057TIP3    H2 6136   3.504   6.883   2.024
 2058TIP3   OH2 6137   3.074   5.119   4.345
 2058TIP3    H1 6138   3.066   5.024   4.350
 2058TIP3    H2 6139   3.146   5.135   4.284
 2059TIP3   OH2 6140   6.513   0.761   1.840
 2059TIP3    H1 6141   6.500   0.669   1.862
 2059TIP3    H2 6142   6.478   0.770   1.752
 2060TIP3   OH2 6143   5.577   0.597   4.788
 2060TIP3    H1 6144   5.623   0.657   4.846
 2060TIP3    H2 6145   5.622   0.513   4.799
 2061TIP3   OH2 6146   5.828   3.259   3.518
 2061TIP3    H1 6147   5.904   3.267   3.576
 2061TIP3    H2 6148   5.802   3.350   3.499
 2062TIP3   OH2 6149   2.175   6.402   0.453
 2062TIP3    H1 6150   2.168   6.311   0.422
 2062TIP3    H2 6151   2.262   6.430   0.425
 2063TIP3   OH2 6152   2.605   5.335   5.483
 2063TIP3    H1 6153   2.612   5.326   5.388
 2063TIP3    H2 6154   2.639   5.253   5.518
 2064TIP3   OH2 6155   2.860   4.812   0.235
 2064TIP3    H1 6156   2.811   4.740   0.273
 2064TIP3    H2 6157   2.855   4.882   0.300
 2065TIP3   OH2 6158   4.901   6.175   0.987
 2065TIP3    H1 6159   4.986   6.136   0.965
 2065TIP3    H2 6160   4.914   6.212   1.075
 2066TIP3   OH2 6161   0.085   4.528   4.791
 2066TIP3    H1 6162   0.117   4.569   4.872
 2066TIP3    H2 6163   0.163   4.487   4.752
 2067TIP3   OH2 6164   2.297   6.228   0.809
 2067TIP3    H1 6165   2.332   6.233   0.898
 2067TIP3    H2 6166   2.373   6.206   0.755
 2068TIP3   OH2 6167   2.192   6.583   2.851
 2068TIP3    H1 6168   2.122   6.526   2.883
 2068TIP3    H2 6169   2.147   6.651   2.802
 2069TIP3   OH2 6170   2.525   5.075   1.923
 2069TIP3    H1 6171   2.481   5.068   1.839
 2069TIP3    H2 6172   2.464   5.035   1.985
 2070TIP3   OH2 6173   1.587   1.440   1.176
 2070TIP3    H1 6174   1.575   1.519   1.123
 2070TIP3    H2 6175   1.606   1.371   1.113
 2071TIP3   OH2 6176   0.520   2.501   3.605
 2071TIP3    H1 6177   0.562   2.450   3.674
 2071TIP3    H2 6178   0.592   2.547   3.563
 2072TIP3   OH2 6179   2.409   1.662   1.987
 2072TIP3    H1 6180   2.483   1.668   2.048
 2072TIP3    H2 6181   2.396   1.752   1.956
 2073TIP3   OH2 6182   6.602   2.916   0.450
 2073TIP3    H1 6183   6.529   2.900   0.510
 2073TIP3    H2 6184   6.668   2.851   0.475
 2074TIP3   OH2 6185   3.461   6.712   2.640
 2074TIP3    H1 6186   3.452   6.788   2.698
 2074TIP3    H2 6187   3.440   6.745   2.553
 2075TIP3   OH2 6188   0.650   4.728   1.120
 2075TIP3    H1 6189   0.655   4.660   1.052
 2075TIP3    H2 6190   0.704   4.694   1.191
 2076TIP3   OH2 6191   7.152   1.751   2.738
 2076TIP3    H1 6192   7.142   1.660   2.766
 2076TIP3    H2 6193   7.077   1.766   2.680
 2077TIP3   OH2 6194   1.577   5.263   5.023
 2077TIP3    H1 6195   1.594   5.203   4.951
 2077TIP3    H2 6196   1.484   5.251   5.043
 2078TIP3   OH2 6197   0.674   3.081   2.110
 2078TIP3    H1 6198   0.725   3.042   2.181
 2078TIP3    H2 6199   0.739   3.129   2.058
 2079TIP3   OH2 6200   6.508   3.607   2.586
 2079TIP3    H1 6201   6.527   3.600   2.492
 2079TIP3    H2 6202   6.580   3.658   2.622
 2080TIP3   OH2 6203   5.645   5.580   1.679
 2080TIP3    H1 6204   5.686   5.644   1.739
 2080TIP3    H2 6205   5.581   5.631   1.629
 2081TIP3   OH2 6206   1.917   3.310   2.079
 2081TIP3    H1 6207   1.898   3.329   1.987
 2081TIP3    H2 6208   1.872   3.379   2.128
 2082TIP3   OH2 6209   2.604   4.001   5.176
 2082TIP3    H1 6210   2.682   4.032   5.130
 2082TIP3    H2 6211   2.612   4.039   5.264
 2083TIP3   OH2 6212   2.925   6.586   2.424
 2083TIP3    H1 6213   2.918   6.492   2.443
 2083TIP3    H2 6214   3.017   6.606   2.436
 2084TIP3   OH2 6215   0.218   4.663   2.231
 2084TIP3    H1 6216   0.257   4.621   2.155
 2084TIP3    H2 6217   0.130   4.627   2.236
 2085TIP3   OH2 6218   7.141   6.690   3.715
 2085TIP3    H1 6219   7.200   6.651   3.779
 2085TIP3    H2 6220   7.199   6.736   3.654
 2086TIP3   OH2 6221   4.584   5.245   0.925
 2086TIP3    H1 6222   4.655   5.225   0.985
 2086TIP3    H2 6223   4.544   5.325   0.961
 2087TIP3   OH2 6224   0.254   3.261   2.233
 2087TIP3    H1 6225   0.218   3.349   2.219
 2087TIP3    H2 6226   0.188   3.202   2.196
 2088TIP3   OH2 6227   1.556   0.794   4.577
 2088TIP3    H1 6228   1.474   0.823   4.617
 2088TIP3    H2 6229   1.624   0.816   4.641
 2089TIP3   OH2 6230   5.692   6.341   1.743
 2089TIP3    H1 6231   5.637   6.273   1.703
 2089TIP3    H2 6232   5.647   6.423   1.722
 2090TIP3   OH2 6233   1.933   3.608   0.120
 2090TIP3    H1 6234   1.945   3.702   0.131
 2090TIP3    H2 6235   1.851   3.589   0.166
 2091TIP3   OH2 6236   2.919   4.549   1.673
 2091TIP3    H1 6237   3.008   4.515   1.669
 2091TIP3    H2 6238   2.929   4.644   1.673
 2092TIP3   OH2 6239   2.041   6.257   4.807
 2092TIP3    H1 6240   2.036   6.273   4.902
 2092TIP3    H2 6241   1.953   6.278   4.775
 2093TIP3   OH2 6242   5.392   2.297   4.224
 2093TIP3    H1 6243   5.369   2.286   4.317
 2093TIP3    H2 6244   5.316   2.342   4.186
 2094TIP3   OH2 6245   2.830   3.394   0.942
 2094TIP3    H1 6246   2.810   3.420   0.853
 2094TIP3    H2 6247   2.809   3.471   0.995
 2095TIP3   OH2 6248   1.899   0.671   5.237
 2095TIP3    H1 6249   1.930   0.728   5.167
 2095TIP3    H2 6250   1.852   0.601   5.192
 2096TIP3   OH2 6251   2.548   0.451   5.814
 2096TIP3    H1 6252   2.497   0.392   5.758
 2096TIP3    H2 6253   2.634   0.456   5.772
 2097TIP3   OH2 6254   4.765   2.726   0.368
 2097TIP3    H1 6255   4.855   2.740   0.398
 2097TIP3    H2 6256   4.712   2.739   0.447
 2098TIP3   OH2 6257   1.429   6.519   0.817
 2098TIP3    H1 6258   1.400   6.583   0.881
 2098TIP3    H2 6259   1.426   6.435   0.862
 2099TIP3   OH2 6260   3.439   2.210   0.788
 2099TIP3    H1 6261   3.456   2.134   0.732
 2099TIP3    H2 6262   3.355   2.191   0.829
 2100TIP3   OH2 6263   3.545   0.894   2.402
 2100TIP3    H1 6264   3.532   0.942   2.484
 2100TIP3    H2 6265   3.584   0.811   2.429
 2101TIP3   OH2 6266   2.151   4.871   2.627
 2101TIP3    H1 6267   2.196   4.819   2.693
 2101TIP3    H2 6268   2.095   4.930   2.677
 2102TIP3   OH2 6269   3.045   2.943   1.022
 2102TIP3    H1 6270   3.010   2.855   1.033
 2102TIP3    H2 6271   3.131   2.941   1.064
 2103TIP3   OH2 6272   0.657   2.514   2.136
 2103TIP3    H1 6273   0.618   2.556   2.059
 2103TIP3    H2 6274   0.585   2.467   2.178
 2104TIP3   OH2 6275   2.806   3.026   1.296
 2104TIP3    H1 6276   2.831   2.933   1.293
 2104TIP3    H2 6277   2.826   3.058   1.208
 2105TIP3   OH2 6278   1.629   1.018   2.845
 2105TIP3    H1 6279   1.709   0.981   2.808
 2105TIP3    H2 6280   1.559   0.985   2.788
 2106TIP3   OH2 6281   0.778   0.266   5.267
 2106TIP3    H1 6282   0.721   0.218   5.207
 2106TIP3    H2 6283   0.827   0.199   5.314
 2107TIP3   OH2 6284   6.255   3.062   5.543
 2107TIP3    H1 6285   6.213   3.110   5.471
 2107TIP3    H2 6286   6.280   3.131   5.605
 2108TIP3   OH2 6287   4.511   4.452   3.651
 2108TIP3    H1 6288   4.418   4.458   3.629
 2108TIP3    H2 6289   4.534   4.540   3.681
 2109TIP3   OH2 6290   5.134   4.319   5.020
 2109TIP3    H1 6291   5.228   4.324   5.039
 2109TIP3    H2 6292   5.103   4.243   5.070
 2110TIP3   OH2 6293   4.123   3.495   5.665
 2110TIP3    H1 6294   4.140   3.478   5.572
 2110TIP3    H2 6295   4.098   3.410   5.701
 2111TIP3   OH2 6296   4.922   3.375   1.452
 2111TIP3    H1 6297   4.898   3.337   1.536
 2111TIP3    H2 6298   4.872   3.325   1.387
 2112TIP3   OH2 6299   3.219   2.874   1.911
 2112TIP3    H1 6300   3.219   2.781   1.890
 2112TIP3    H2 6301   3.235   2.877   2.006
 2113TIP3   OH2 6302   2.867   5.971   1.435
 2113TIP3    H1 6303   2.907   6.023   1.366
 2113TIP3    H2 6304   2.843   6.034   1.502
 2114TIP3   OH2 6305   4.963   3.853   2.578
 2114TIP3    H1 6306   5.016   3.822   2.652
 2114TIP3    H2 6307   4.979   3.948   2.575
 2115TIP3   OH2 6308   1.174   3.614   1.369
 2115TIP3    H1 6309   1.236   3.567   1.314
 2115TIP3    H2 6310   1.173   3.564   1.452
 2116TIP3   OH2 6311   0.899   2.431   0.558
 2116TIP3    H1 6312   0.992   2.432   0.537
 2116TIP3    H2 6313   0.891   2.365   0.628
 2117TIP3   OH2 6314   2.708   3.867   0.186
 2117TIP3    H1 6315   2.798   3.845   0.212
 2117TIP3    H2 6316   2.715   3.889   0.093
 2118TIP3   OH2 6317   5.689   3.615   1.660
 2118TIP3    H1 6318   5.629   3.564   1.605
 2118TIP3    H2 6319   5.632   3.658   1.723
 2119TIP3   OH2 6320   4.610   2.740   3.176
 2119TIP3    H1 6321   4.568   2.796   3.111
 2119TIP3    H2 6322   4.553   2.663   3.182
 2120TIP3   OH2 6323   3.293   2.928   4.202
 2120TIP3    H1 6324   3.232   2.995   4.232
 2120TIP3    H2 6325   3.345   2.972   4.135
 2121TIP3   OH2 6326   5.844   1.169   2.761
 2121TIP3    H1 6327   5.827   1.076   2.774
 2121TIP3    H2 6328   5.882   1.175   2.673
 2122TIP3   OH2 6329   3.531   1.859   5.599
 2122TIP3    H1 6330   3.493   1.772   5.588
 2122TIP3    H2 6331   3.625   1.845   5.598
 2123TIP3   OH2 6332   1.538   2.722   5.652
 2123TIP3    H1 6333   1.538   2.631   5.681
 2123TIP3    H2 6334   1.446   2.744   5.641
 2124TIP3   OH2 6335   5.272   0.294   5.075
 2124TIP3    H1 6336   5.295   0.276   5.166
 2124TIP3    H2 6337   5.350   0.336   5.039
 2125TIP3   OH2 6338   5.685   0.230   4.259
 2125TIP3    H1 6339   5.619   0.209   4.193
 2125TIP3    H2 6340   5.651   0.308   4.302
 2126TIP3   OH2 6341   1.434   5.903   0.777
 2126TIP3    H1 6342   1.407   5.880   0.866
 2126TIP3    H2 6343   1.395   5.836   0.721
 2127TIP3   OH2 6344   2.004   3.711   1.523
 2127TIP3    H1 6345   1.965   3.757   1.448
 2127TIP3    H2 6346   2.015   3.621   1.491
 2128TIP3   OH2 6347   7.160   2.049   2.824
 2128TIP3    H1 6348   7.199   1.976   2.873
 2128TIP3    H2 6349   7.224   2.119   2.832
 2129TIP3   OH2 6350   2.377   4.271   4.660
 2129TIP3    H1 6351   2.348   4.362   4.652
 2129TIP3    H2 6352   2.473   4.277   4.665
 2130TIP3   OH2 6353   6.897   6.493   1.078
 2130TIP3    H1 6354   6.849   6.465   1.156
 2130TIP3    H2 6355   6.844   6.461   1.005
 2131TIP3   OH2 6356   4.635   0.900   2.760
 2131TIP3    H1 6357   4.727   0.922   2.774
 2131TIP3    H2 6358   4.615   0.836   2.828
 2132TIP3   OH2 6359   5.249   3.977   5.577
 2132TIP3    H1 6360   5.199   3.973   5.658
 2132TIP3    H2 6361   5.259   4.071   5.560
 2133TIP3   OH2 6362   3.412   5.357   1.192
 2133TIP3    H1 6363   3.371   5.344   1.106
 2133TIP3    H2 6364   3.390   5.278   1.241
 2134TIP3   OH2 6365   4.380   1.219   2.885
 2134TIP3    H1 6366   4.421   1.199   2.801
 2134TIP3    H2 6367   4.332   1.139   2.908
 2135TIP3   OH2 6368   5.118   6.687   1.626
 2135TIP3    H1 6369   5.076   6.659   1.707
 2135TIP3    H2 6370   5.055   6.666   1.557
 2136TIP3   OH2 6371   0.914   1.453   4.521
 2136TIP3    H1 6372   0.837   1.412   4.562
 2136TIP3    H2 6373   0.877   1.507   4.450
 2137TIP3   OH2 6374   2.111   5.955   4.754
 2137TIP3    H1 6375   2.029   5.938   4.708
 2137TIP3    H2 6376   2.104   6.047   4.782
 2138TIP3   OH2 6377   5.042   4.215   3.097
 2138TIP3    H1 6378   5.044   4.244   3.006
 2138TIP3    H2 6379   5.072   4.290   3.147
 2139TIP3   OH2 6380   3.516   2.039   0.595
 2139TIP3    H1 6381   3.462   1.975   0.547
 2139TIP3    H2 6382   3.592   2.052   0.539
 2140TIP3   OH2 6383   2.424   1.427   5.357
 2140TIP3    H1 6384   2.435   1.342   5.314
 2140TIP3    H2 6385   2.490   1.428   5.426
 2141TIP3   OH2 6386   4.241   6.801   0.408
 2141TIP3    H1 6387   4.218   6.800   0.501
 2141TIP3    H2 6388   4.333   6.830   0.407
 2142TIP3   OH2 6389   5.352   6.730   1.504
 2142TIP3    H1 6390   5.267   6.710   1.542
 2142TIP3    H2 6391   5.415   6.694   1.567
 2143TIP3   OH2 6392   6.454   0.071   4.283
 2143TIP3    H1 6393   6.479   0.098   4.195
 2143TIP3    H2 6394   6.431   0.153   4.327
 2144TIP3   OH2 6395   0.383   4.750   4.753
 2144TIP3    H1 6396   0.410   4.799   4.830
 2144TIP3    H2 6397   0.458   4.756   4.693
 2145TIP3   OH2 6398   0.659   6.098   0.901
 2145TIP3    H1 6399   0.721   6.166   0.926
 2145TIP3    H2 6400   0.687   6.070   0.814
 2146TIP3   OH2 6401   6.536   2.743   2.011
 2146TIP3    H1 6402   6.563   2.655   2.037
 2146TIP3    H2 6403   6.493   2.731   1.926
 2147TIP3   OH2 6404   4.507   0.789   5.236
 2147TIP3    H1 6405   4.580   0.844   5.263
 2147TIP3    H2 6406   4.485   0.737   5.313
 2148TIP3   OH2 6407   5.730   5.345   3.473
 2148TIP3    H1 6408   5.654   5.364   3.419
 2148TIP3    H2 6409   5.761   5.260   3.442
 2149TIP3   OH2 6410   0.589   5.178   5.185
 2149TIP3    H1 6411   0.576   5.088   5.215
 2149TIP3    H2 6412   0.526   5.189   5.113
 2150TIP3   OH2 6413   4.096   5.808   4.777
 2150TIP3    H1 6414   4.188   5.826   4.799
 2150TIP3    H2 6415   4.101   5.757   4.696
 2151TIP3   OH2 6416   0.889   6.770   0.185
 2151TIP3    H1 6417   0.970   6.760   0.234
 2151TIP3    H2 6418   0.907   6.728   0.100
 2152TIP3   OH2 6419   5.836   1.245   1.651
 2152TIP3    H1 6420   5.863   1.262   1.560
 2152TIP3    H2 6421   5.901   1.292   1.704
 2153TIP3   OH2 6422   3.611   4.164   3.396
 2153TIP3    H1 6423   3.588   4.254   3.417
 2153TIP3    H2 6424   3.699   4.152   3.433
 2154TIP3   OH2 6425   3.128   4.453   3.622
 2154TIP3    H1 6426   3.179   4.505   3.685
 2154TIP3    H2 6427   3.039   4.454   3.656
 2155TIP3   OH2 6428   4.734   1.239   1.631
 2155TIP3    H1 6429   4.657   1.229   1.688
 2155TIP3    H2 6430   4.806   1.203   1.683
 2156TIP3   OH2 6431   3.682   5.560   4.630
 2156TIP3    H1 6432   3.598   5.604   4.613
 2156TIP3    H2 6433   3.747   5.630   4.624
 2157TIP3   OH2 6434   1.880   0.177   3.931
 2157TIP3    H1 6435   1.910   0.102   3.983
 2157TIP3    H2 6436   1.928   0.252   3.966
 2158TIP3   OH2 6437   0.028   6.193   1.996
 2158TIP3    H1 6438   0.063   6.238   1.919
 2158TIP3    H2 6439   0.047   6.101   1.980
 2159TIP3   OH2 6440   0.218   4.589   5.019
 2159TIP3    H1 6441   0.271   4.639   5.081
 2159TIP3    H2 6442   0.180   4.519   5.072
 2160TIP3   OH2 6443   3.062   5.174   3.120
 2160TIP3    H1 6444   3.064   5.270   3.125
 2160TIP3    H2 6445   3.145   5.151   3.079
 2161TIP3   OH2 6446   2.763   0.941   1.840
 2161TIP3    H1 6447   2.795   0.989   1.763
 2161TIP3    H2 6448   2.698   0.999   1.879
 2162TIP3   OH2 6449   4.570   3.766   4.593
 2162TIP3    H1 6450   4.582   3.831   4.523
 2162TIP3    H2 6451   4.642   3.704   4.580
 2163TIP3   OH2 6452   1.122   2.412   4.848
 2163TIP3    H1 6453   1.041   2.414   4.798
 2163TIP3    H2 6454   1.165   2.495   4.828
 2164TIP3   OH2 6455   0.619   0.195   1.497
 2164TIP3    H1 6456   0.544   0.253   1.513
 2164TIP3    H2 6457   0.583   0.106   1.508
 2165TIP3   OH2 6458   4.009   0.401   0.153
 2165TIP3    H1 6459   3.924   0.382   0.113
 2165TIP3    H2 6460   4.032   0.488   0.121
 2166TIP3   OH2 6461   1.616   1.807   0.523
 2166TIP3    H1 6462   1.593   1.856   0.444
 2166TIP3    H2 6463   1.602   1.870   0.594
 2167TIP3   OH2 6464   6.429   5.192   2.029
 2167TIP3    H1 6465   6.380   5.131   2.084
 2167TIP3    H2 6466   6.456   5.140   1.954
 2168TIP3   OH2 6467   3.021   0.636   0.648
 2168TIP3    H1 6468   3.075   0.567   0.686
 2168TIP3    H2 6469   2.971   0.671   0.722
 2169TIP3   OH2 6470   0.390   1.436   1.237
 2169TIP3    H1 6471   0.363   1.401   1.152
 2169TIP3    H2 6472   0.433   1.519   1.216
 2170TIP3   OH2 6473   1.161   3.319   2.450
 2170TIP3    H1 6474   1.199   3.393   2.497
 2170TIP3    H2 6475   1.078   3.302   2.495
 2171TIP3   OH2 6476   4.835   2.381   2.949
 2171TIP3    H1 6477   4.810   2.414   3.035
 2171TIP3    H2 6478   4.886   2.303   2.967
 2172TIP3   OH2 6479   7.083   0.626   0.000
 2172TIP3    H1 6480   7.061   0.719   0.003
 2172TIP3    H2 6481   7.003   0.583  -0.031
 2173TIP3   OH2 6482   5.538   6.722   1.297
 2173TIP3    H1 6483   5.631   6.720   1.319
 2173TIP3    H2 6484   5.493   6.725   1.381
 2174TIP3   OH2 6485   6.808   3.085   2.502
 2174TIP3    H1 6486   6.884   3.117   2.551
 2174TIP3    H2 6487   6.733   3.104   2.559
 2175TIP3   OH2 6488   3.826   2.749   5.668
 2175TIP3    H1 6489   3.857   2.756   5.578
 2175TIP3    H2 6490   3.746   2.697   5.662
 2176TIP3   OH2 6491   2.103   1.520   5.133
 2176TIP3    H1 6492   2.155   1.597   5.158
 2176TIP3    H2 6493   2.164   1.465   5.082
 2177TIP3   OH2 6494   0.324   1.165   0.011
 2177TIP3    H1 6495   0.418   1.151   0.019
 2177TIP3    H2 6496   0.292   1.088  -0.035
 2178TIP3   OH2 6497   4.566   3.417   4.794
 2178TIP3    H1 6498   4.571   3.465   4.712
 2178TIP3    H2 6499   4.654   3.384   4.809
 2179TIP3   OH2 6500   3.941   0.635   1.357
 2179TIP3    H1 6501   4.014   0.692   1.379
 2179TIP3    H2 6502   3.968   0.591   1.277
 2180TIP3   OH2 6503   0.176   3.484   2.685
 2180TIP3    H1 6504   0.221   3.452   2.607
 2180TIP3    H2 6505   0.242   3.480   2.754
 2181TIP3   OH2 6506   1.024   4.182   1.133
 2181TIP3    H1 6507   0.941   4.229   1.126
 2181TIP3    H2 6508   1.059   4.182   1.044
 2182TIP3   OH2 6509   3.384   0.235   5.190
 2182TIP3    H1 6510   3.319   0.274   5.249
 2182TIP3    H2 6511   3.381   0.141   5.208
 2183TIP3   OH2 6512   5.951   4.281   0.837
 2183TIP3    H1 6513   5.911   4.259   0.921
 2183TIP3    H2 6514   5.876   4.304   0.781
 2184TIP3   OH2 6515   5.336   0.215   0.247
 2184TIP3    H1 6516   5.347   0.250   0.158
 2184TIP3    H2 6517   5.391   0.136   0.248
 2185TIP3   OH2 6518   2.221   6.459   3.745
 2185TIP3    H1 6519   2.240   6.472   3.652
 2185TIP3    H2 6520   2.283   6.392   3.773
 2186TIP3   OH2 6521   0.247   6.037   2.314
 2186TIP3    H1 6522   0.231   5.953   2.357
 2186TIP3    H2 6523   0.191   6.099   2.361
 2187TIP3   OH2 6524   6.606   6.614   5.150
 2187TIP3    H1 6525   6.676   6.552   5.174
 2187TIP3    H2 6526   6.592   6.665   5.230
 2188TIP3   OH2 6527   3.983   1.316   0.897
 2188TIP3    H1 6528   3.910   1.325   0.836
 2188TIP3    H2 6529   3.987   1.401   0.941
 2189TIP3   OH2 6530   3.720   2.529   4.486
 2189TIP3    H1 6531   3.667   2.543   4.564
 2189TIP3    H2 6532   3.659   2.499   4.419
 2190TIP3   OH2 6533   0.239   3.159   2.804
 2190TIP3    H1 6534   0.264   3.233   2.860
 2190TIP3    H2 6535   0.319   3.105   2.798
 2191TIP3   OH2 6536   3.625   4.609   0.914
 2191TIP3    H1 6537   3.620   4.532   0.971
 2191TIP3    H2 6538   3.535   4.623   0.885
 2192TIP3   OH2 6539   6.009   6.279   1.377
 2192TIP3    H1 6540   5.996   6.226   1.456
 2192TIP3    H2 6541   6.084   6.239   1.333
 2193TIP3   OH2 6542   3.884   2.486   5.188
 2193TIP3    H1 6543   3.858   2.394   5.174
 2193TIP3    H2 6544   3.932   2.509   5.108
 2194TIP3   OH2 6545   6.031   5.365   2.069
 2194TIP3    H1 6546   5.973   5.386   2.142
 2194TIP3    H2 6547   6.110   5.416   2.085
 2195TIP3   OH2 6548   0.572   5.650   4.552
 2195TIP3    H1 6549   0.552   5.741   4.574
 2195TIP3    H2 6550   0.540   5.640   4.463
 2196TIP3   OH2 6551   6.102   1.095   0.393
 2196TIP3    H1 6552   6.195   1.106   0.371
 2196TIP3    H2 6553   6.092   1.139   0.478
 2197TIP3   OH2 6554   0.487   2.862   2.045
 2197TIP3    H1 6555   0.423   2.927   2.018
 2197TIP3    H2 6556   0.564   2.913   2.070
 2198TIP3   OH2 6557   1.421   3.835   2.968
 2198TIP3    H1 6558   1.436   3.912   2.914
 2198TIP3    H2 6559   1.398   3.869   3.054
 2199TIP3   OH2 6560   2.852   5.920   1.141
 2199TIP3    H1 6561   2.894   5.860   1.203
 2199TIP3    H2 6562   2.922   5.978   1.112
 2200TIP3   OH2 6563   6.873   3.070   3.702
 2200TIP3    H1 6564   6.907   3.058   3.613
 2200TIP3    H2 6565   6.946   3.046   3.759
 2201TIP3   OH2 6566   7.246   0.511   2.567
 2201TIP3    H1 6567   7.238   0.527   2.473
 2201TIP3    H2 6568   7.161   0.534   2.603
 2202TIP3   OH2 6569   2.505   5.903   0.363
 2202TIP3    H1 6570   2.581   5.852   0.392
 2202TIP3    H2 6571   2.535   5.994   0.363
 2203TIP3   OH2 6572   4.054   1.922   5.579
 2203TIP3    H1 6573   4.097   1.932   5.663
 2203TIP3    H2 6574   4.065   2.006   5.536
 2204TIP3   OH2 6575   3.418   1.749   0.813
 2204TIP3    H1 6576   3.354   1.701   0.865
 2204TIP3    H2 6577   3.378   1.834   0.797
 2205TIP3   OH2 6578   0.432   4.371   3.381
 2205TIP3    H1 6579   0.363   4.432   3.407
 2205TIP3    H2 6580   0.386   4.296   3.344
 2206TIP3   OH2 6581   4.460   5.111   1.708
 2206TIP3    H1 6582   4.377   5.103   1.753
 2206TIP3    H2 6583   4.511   5.035   1.738
 2207TIP3   OH2 6584   4.058   2.174   0.954
 2207TIP3    H1 6585   4.058   2.103   0.890
 2207TIP3    H2 6586   4.071   2.131   1.038
 2208TIP3   OH2 6587   0.651   3.705   3.035
 2208TIP3    H1 6588   0.656   3.754   2.954
 2208TIP3    H2 6589   0.591   3.754   3.090
 2209TIP3   OH2 6590   6.293   1.964   3.763
 2209TIP3    H1 6591   6.199   1.953   3.749
 2209TIP3    H2 6592   6.304   2.059   3.773
 2210TIP3   OH2 6593   4.021   3.025   3.912
 2210TIP3    H1 6594   4.049   3.056   3.826
 2210TIP3    H2 6595   3.945   3.079   3.934
 2211TIP3   OH2 6596   0.126   1.806   3.998
 2211TIP3    H1 6597   0.138   1.893   4.035
 2211TIP3    H2 6598   0.148   1.817   3.905
 2212TIP3   OH2 6599   2.615   3.356   3.841
 2212TIP3    H1 6600   2.584   3.265   3.838
 2212TIP3    H2 6601   2.651   3.365   3.929
 2213TIP3   OH2 6602   0.565   2.775   0.307
 2213TIP3    H1 6603   0.600   2.703   0.359
 2213TIP3    H2 6604   0.618   2.851   0.333
 2214TIP3   OH2 6605   2.918   4.352   1.906
 2214TIP3    H1 6606   3.014   4.357   1.908
 2214TIP3    H2 6607   2.892   4.417   1.841
 2215TIP3   OH2 6608   3.870   2.051   2.569
 2215TIP3    H1 6609   3.908   2.101   2.642
 2215TIP3    H2 6610   3.908   1.964   2.577
 2216TIP3   OH2 6611   1.133   0.882   1.110
 2216TIP3    H1 6612   1.038   0.875   1.113
 2216TIP3    H2 6613   1.149   0.955   1.050
 2217TIP3   OH2 6614   2.811   3.451   5.575
 2217TIP3    H1 6615   2.771   3.404   5.503
 2217TIP3    H2 6616   2.849   3.383   5.631
 2218TIP3   OH2 6617   5.761   3.617   4.996
 2218TIP3    H1 6618   5.712   3.663   5.063
 2218TIP3    H2 6619   5.695   3.588   4.933
 2219TIP3   OH2 6620   1.978   1.734   1.242
 2219TIP3    H1 6621   1.939   1.750   1.328
 2219TIP3    H2 6622   1.971   1.818   1.197
 2220TIP3   OH2 6623   2.470   3.204   3.546
 2220TIP3    H1 6624   2.491   3.138   3.612
 2220TIP3    H2 6625   2.511   3.171   3.466
 2221TIP3   OH2 6626   5.793   6.049   4.312
 2221TIP3    H1 6627   5.887   6.033   4.319
 2221TIP3    H2 6628   5.785   6.117   4.246
 2222TIP3   OH2 6629   5.537   1.605   5.209
 2222TIP3    H1 6630   5.500   1.518   5.220
 2222TIP3    H2 6631   5.570   1.606   5.118
 2223TIP3   OH2 6632   2.221   3.787   0.055
 2223TIP3    H1 6633   2.206   3.694   0.037
 2223TIP3    H2 6634   2.298   3.788   0.113
 2224TIP3   OH2 6635   7.077   4.421   3.799
 2224TIP3    H1 6636   6.987   4.450   3.816
 2224TIP3    H2 6637   7.076   4.395   3.707
 2225TIP3   OH2 6638   1.593   3.036   1.381
 2225TIP3    H1 6639   1.517   3.010   1.434
 2225TIP3    H2 6640   1.630   2.954   1.349
 2226TIP3   OH2 6641   6.822   6.143   1.385
 2226TIP3    H1 6642   6.775   6.060   1.395
 2226TIP3    H2 6643   6.838   6.151   1.291
 2227TIP3   OH2 6644   1.035   5.127   4.692
 2227TIP3    H1 6645   0.944   5.105   4.672
 2227TIP3    H2 6646   1.070   5.163   4.611
 2228TIP3   OH2 6647   0.157   5.240   5.251
 2228TIP3    H1 6648   0.125   5.244   5.341
 2228TIP3    H2 6649   0.105   5.305   5.204
 2229TIP3   OH2 6650   2.429   6.237   2.220
 2229TIP3    H1 6651   2.333   6.236   2.212
 2229TIP3    H2 6652   2.453   6.327   2.199
 2230TIP3   OH2 6653   0.880   2.261   0.184
 2230TIP3    H1 6654   0.887   2.218   0.099
 2230TIP3    H2 6655   0.805   2.320   0.175
 2231TIP3   OH2 6656   4.485   2.009   0.771
 2231TIP3    H1 6657   4.451   1.981   0.686
 2231TIP3    H2 6658   4.580   2.003   0.761
 2232TIP3   OH2 6659   6.940   6.503   3.622
 2232TIP3    H1 6660   6.999   6.577   3.638
 2232TIP3    H2 6661   6.860   6.525   3.671
 2233TIP3   OH2 6662   2.868   3.375   3.246
 2233TIP3    H1 6663   2.933   3.393   3.178
 2233TIP3    H2 6664   2.787   3.413   3.212
 2234TIP3   OH2 6665   6.585   1.454   2.133
 2234TIP3    H1 6666   6.590   1.377   2.077
 2234TIP3    H2 6667   6.572   1.528   2.073
 2235TIP3   OH2 6668   5.754   4.727   2.017
 2235TIP3    H1 6669   5.741   4.747   2.110
 2235TIP3    H2 6670   5.670   4.693   1.988
 2236TIP3   OH2 6671   2.410   2.106   3.118
 2236TIP3    H1 6672   2.419   2.173   3.185
 2236TIP3    H2 6673   2.316   2.089   3.113
 2237TIP3   OH2 6674   4.429   6.704   1.905
 2237TIP3    H1 6675   4.408   6.744   1.989
 2237TIP3    H2 6676   4.351   6.653   1.883
 2238TIP3   OH2 6677   6.250   6.148   5.378
 2238TIP3    H1 6678   6.235   6.065   5.423
 2238TIP3    H2 6679   6.314   6.127   5.310
 2239TIP3   OH2 6680   6.457   0.507   1.704
 2239TIP3    H1 6681   6.370   0.491   1.669
 2239TIP3    H2 6682   6.500   0.562   1.638
 2240TIP3   OH2 6683   4.452   1.618   4.066
 2240TIP3    H1 6684   4.452   1.522   4.070
 2240TIP3    H2 6685   4.502   1.645   4.143
 2241TIP3   OH2 6686   2.647   4.434   4.355
 2241TIP3    H1 6687   2.595   4.484   4.417
 2241TIP3    H2 6688   2.667   4.352   4.400
 2242TIP3   OH2 6689   5.753   4.509   3.876
 2242TIP3    H1 6690   5.839   4.481   3.845
 2242TIP3    H2 6691   5.741   4.464   3.960
 2243TIP3   OH2 6692   6.788   4.400   3.445
 2243TIP3    H1 6693   6.813   4.336   3.379
 2243TIP3    H2 6694   6.798   4.484   3.402
 2244TIP3   OH2 6695   2.313   6.717   1.813
 2244TIP3    H1 6696   2.285   6.671   1.892
 2244TIP3    H2 6697   2.395   6.674   1.788
 2245TIP3   OH2 6698   2.152   0.676   2.393
 2245TIP3    H1 6699   2.236   0.722   2.391
 2245TIP3    H2 6700   2.109   0.709   2.472
 2246TIP3   OH2 6701   3.815   4.371   4.628
 2246TIP3    H1 6702   3.845   4.461   4.614
 2246TIP3    H2 6703   3.741   4.379   4.688
 2247TIP3   OH2 6704   6.118   0.921   3.199
 2247TIP3    H1 6705   6.064   0.966   3.265
 2247TIP3    H2 6706   6.208   0.944   3.221
 2248TIP3   OH2 6707   0.107   3.489   2.152
 2248TIP3    H1 6708   0.136   3.580   2.158
 2248TIP3    H2 6709   0.011   3.494   2.156
 2249TIP3   OH2 6710   4.553   6.309   5.654
 2249TIP3    H1 6711   4.608   6.379   5.691
 2249TIP3    H2 6712   4.560   6.321   5.559
 2250TIP3   OH2 6713   2.066   5.794   4.368
 2250TIP3    H1 6714   2.151   5.774   4.330
 2250TIP3    H2 6715   2.076   5.774   4.461
 2251TIP3   OH2 6716   3.382   6.616   2.306
 2251TIP3    H1 6717   3.445   6.684   2.331
 2251TIP3    H2 6718   3.368   6.630   2.213
 2252TIP3   OH2 6719   1.848   0.283   0.546
 2252TIP3    H1 6720   1.845   0.202   0.597
 2252TIP3    H2 6721   1.765   0.327   0.566
 2253TIP3   OH2 6722   0.877   2.791   1.819
 2253TIP3    H1 6723   0.927   2.859   1.864
 2253TIP3    H2 6724   0.907   2.709   1.858
 2254TIP3   OH2 6725   3.069   2.914   4.806
 2254TIP3    H1 6726   3.082   2.827   4.768
 2254TIP3    H2 6727   3.140   2.922   4.871
 2255TIP3   OH2 6728   6.738   2.857   4.603
 2255TIP3    H1 6729   6.721   2.764   4.620
 2255TIP3    H2 6730   6.826   2.859   4.566
 2256TIP3   OH2 6731   6.382   0.944   3.223
 2256TIP3    H1 6732   6.442   0.880   3.184
 2256TIP3    H2 6733   6.429   0.978   3.299
 2257TIP3   OH2 6734   4.018   6.537   0.773
 2257TIP3    H1 6735   3.969   6.612   0.739
 2257TIP3    H2 6736   3.964   6.503   0.845
 2258TIP3   OH2 6737   5.469   3.631   4.233
 2258TIP3    H1 6738   5.440   3.644   4.142
 2258TIP3    H2 6739   5.388   3.623   4.283
 2259TIP3   OH2 6740   7.015   2.238   2.954
 2259TIP3    H1 6741   6.953   2.208   3.020
 2259TIP3    H2 6742   7.026   2.164   2.895
 2260TIP3   OH2 6743   2.402   0.115   1.312
 2260TIP3    H1 6744   2.425   0.024   1.296
 2260TIP3    H2 6745   2.485   0.157   1.335
 2261TIP3   OH2 6746   4.225   2.056   3.610
 2261TIP3    H1 6747   4.230   1.988   3.542
 2261TIP3    H2 6748   4.131   2.070   3.622
 2262TIP3   OH2 6749   6.351   0.907   2.891
 2262TIP3    H1 6750   6.390   0.981   2.845
 2262TIP3    H2 6751   6.296   0.947   2.958
 2263TIP3   OH2 6752   2.797   2.986   1.823
 2263TIP3    H1 6753   2.839   3.007   1.740
 2263TIP3    H2 6754   2.704   3.002   1.807
 2264TIP3   OH2 6755   6.993   0.062   5.268
 2264TIP3    H1 6756   6.920   0.124   5.262
 2264TIP3    H2 6757   7.005   0.031   5.178
 2265TIP3   OH2 6758   5.625   1.083   0.423
 2265TIP3    H1 6759   5.707   1.075   0.374
 2265TIP3    H2 6760   5.651   1.071   0.515
 2266TIP3   OH2 6761   3.751   4.160   3.748
 2266TIP3    H1 6762   3.748   4.255   3.743
 2266TIP3    H2 6763   3.661   4.132   3.729
 2267TIP3   OH2 6764   6.450   4.451   3.723
 2267TIP3    H1 6765   6.508   4.377   3.705
 2267TIP3    H2 6766   6.505   4.528   3.710
 2268TIP3   OH2 6767   1.568   3.708   0.578
 2268TIP3    H1 6768   1.489   3.688   0.528
 2268TIP3    H2 6769   1.626   3.753   0.516
 2269TIP3   OH2 6770   6.954   5.245   2.087
 2269TIP3    H1 6771   6.867   5.246   2.046
 2269TIP3    H2 6772   6.937   5.223   2.179
 2270TIP3   OH2 6773   5.147   3.282   1.813
 2270TIP3    H1 6774   5.127   3.205   1.759
 2270TIP3    H2 6775   5.121   3.256   1.901
 2271TIP3   OH2 6776   6.490   3.622   2.289
 2271TIP3    H1 6777   6.404   3.665   2.292
 2271TIP3    H2 6778   6.494   3.584   2.201
 2272TIP3   OH2 6779   6.142   5.067   2.010
 2272TIP3    H1 6780   6.114   5.159   2.015
 2272TIP3    H2 6781   6.143   5.048   1.916
 2273TIP3   OH2 6782   1.361   0.199   4.281
 2273TIP3    H1 6783   1.346   0.216   4.188
 2273TIP3    H2 6784   1.446   0.238   4.299
 2274TIP3   OH2 6785   6.112   5.276   2.941
 2274TIP3    H1 6786   6.040   5.278   2.878
 2274TIP3    H2 6787   6.070   5.263   3.026
 2275TIP3   OH2 6788   3.132   3.218   4.954
 2275TIP3    H1 6789   3.116   3.162   4.879
 2275TIP3    H2 6790   3.080   3.296   4.937
 2276TIP3   OH2 6791   0.908   3.354   4.051
 2276TIP3    H1 6792   0.840   3.301   4.092
 2276TIP3    H2 6793   0.990   3.324   4.091
 2277TIP3   OH2 6794   6.661   4.878   1.631
 2277TIP3    H1 6795   6.701   4.818   1.694
 2277TIP3    H2 6796   6.575   4.841   1.614
 2278TIP3   OH2 6797   3.173   4.329   3.374
 2278TIP3    H1 6798   3.185   4.391   3.445
 2278TIP3    H2 6799   3.096   4.278   3.398
 2279TIP3   OH2 6800   6.510   2.286   4.965
 2279TIP3    H1 6801   6.601   2.263   4.982
 2279TIP3    H2 6802   6.491   2.358   5.024
 2280TIP3   OH2 6803   2.085   1.208   4.115
 2280TIP3    H1 6804   2.007   1.163   4.082
 2280TIP3    H2 6805   2.112   1.156   4.190
 2281TIP3   OH2 6806   1.022   3.606   0.097
 2281TIP3    H1 6807   1.078   3.573   0.167
 2281TIP3    H2 6808   0.955   3.539   0.086
 2282TIP3   OH2 6809   4.749   1.221   2.466
 2282TIP3    H1 6810   4.817   1.204   2.401
 2282TIP3    H2 6811   4.706   1.137   2.479
 2283TIP3   OH2 6812   0.702   2.453   0.137
 2283TIP3    H1 6813   0.730   2.497   0.217
 2283TIP3    H2 6814   0.707   2.521   0.069
 2284TIP3   OH2 6815   4.312   3.084   2.417
 2284TIP3    H1 6816   4.288   3.094   2.325
 2284TIP3    H2 6817   4.317   2.990   2.431
 2285TIP3   OH2 6818   2.250   4.509   2.636
 2285TIP3    H1 6819   2.214   4.427   2.603
 2285TIP3    H2 6820   2.238   4.504   2.731
 2286TIP3   OH2 6821   3.757  -0.031   4.382
 2286TIP3    H1 6822   3.711  -0.093   4.325
 2286TIP3    H2 6823   3.698  -0.018   4.456
 2287TIP3   OH2 6824   3.778   0.336   0.008
 2287TIP3    H1 6825   3.781   0.371  -0.081
 2287TIP3    H2 6826   3.755   0.244  -0.003
 2288TIP3   OH2 6827   5.972   6.303   5.288
 2288TIP3    H1 6828   6.036   6.299   5.217
 2288TIP3    H2 6829   5.959   6.396   5.304
 2289TIP3   OH2 6830   6.516   5.112   2.636
 2289TIP3    H1 6831   6.465   5.032   2.624
 2289TIP3    H2 6832   6.462   5.167   2.692
 2290TIP3   OH2 6833   0.828   6.219   3.099
 2290TIP3    H1 6834   0.842   6.148   3.037
 2290TIP3    H2 6835   0.808   6.175   3.182
 2291TIP3   OH2 6836   5.295   6.609   4.349
 2291TIP3    H1 6837   5.330   6.533   4.303
 2291TIP3    H2 6838   5.300   6.680   4.285
 2292TIP3   OH2 6839   3.535   1.767   5.088
 2292TIP3    H1 6840   3.491   1.757   5.172
 2292TIP3    H2 6841   3.469   1.803   5.030
 2293TIP3   OH2 6842   4.266   3.234   4.582
 2293TIP3    H1 6843   4.180   3.235   4.539
 2293TIP3    H2 6844   4.326   3.204   4.514
 2294TIP3   OH2 6845   0.972   0.394   5.696
 2294TIP3    H1 6846   0.945   0.323   5.754
 2294TIP3    H2 6847   1.038   0.442   5.746
 2295TIP3   OH2 6848   6.311   1.791   4.014
 2295TIP3    H1 6849   6.234   1.805   3.958
 2295TIP3    H2 6850   6.352   1.877   4.021
 2296TIP3   OH2 6851   6.927   5.465   3.482
 2296TIP3    H1 6852   6.861   5.399   3.460
 2296TIP3    H2 6853   6.942   5.512   3.400
 2297TIP3   OH2 6854   3.986   5.222   4.222
 2297TIP3    H1 6855   3.905   5.174   4.235
 2297TIP3    H2 6856   3.980   5.298   4.279
 2298TIP3   OH2 6857   2.108   6.485   4.161
 2298TIP3    H1 6858   2.034   6.515   4.213
 2298TIP3    H2 6859   2.145   6.412   4.212
 2299TIP3   OH2 6860   5.739   2.527   2.220
 2299TIP3    H1 6861   5.715   2.615   2.191
 2299TIP3    H2 6862   5.673   2.506   2.287
 2300TIP3   OH2 6863   5.453   6.488   5.534
 2300TIP3    H1 6864   5.530   6.541   5.555
 2300TIP3    H2 6865   5.391   6.508   5.604
 2301TIP3   OH2 6866   6.141   2.748   4.967
 2301TIP3    H1 6867   6.200   2.672   4.961
 2301TIP3    H2 6868   6.152   2.780   5.057
 2302TIP3   OH2 6869   3.653   2.853   3.898
 2302TIP3    H1 6870   3.708   2.930   3.887
 2302TIP3    H2 6871   3.696   2.802   3.966
 2303TIP3   OH2 6872   2.618   6.130   0.485
 2303TIP3    H1 6873   2.686   6.184   0.445
 2303TIP3    H2 6874   2.601   6.173   0.569
 2304TIP3   OH2 6875   5.062   0.038   0.115
 2304TIP3    H1 6876   4.990   0.004   0.061
 2304TIP3    H2 6877   5.054  -0.010   0.197
 2305TIP3   OH2 6878   1.688   1.445   4.856
 2305TIP3    H1 6879   1.714   1.521   4.909
 2305TIP3    H2 6880   1.757   1.439   4.789
 2306TIP3   OH2 6881   0.872   4.331   4.483
 2306TIP3    H1 6882   0.841   4.420   4.469
 2306TIP3    H2 6883   0.965   4.340   4.501
 2307TIP3   OH2 6884   5.007   2.120   5.078
 2307TIP3    H1 6885   4.972   2.101   4.991
 2307TIP3    H2 6886   5.035   2.035   5.111
 2308TIP3   OH2 6887   5.648   6.320   4.820
 2308TIP3    H1 6888   5.604   6.293   4.739
 2308TIP3    H2 6889   5.741   6.324   4.797
 2309TIP3   OH2 6890   6.398   4.366   3.049
 2309TIP3    H1 6891   6.448   4.391   3.127
 2309TIP3    H2 6892   6.308   4.358   3.081
 2310TIP3   OH2 6893   6.996   3.960   1.959
 2310TIP3    H1 6894   6.933   3.887   1.955
 2310TIP3    H2 6895   6.952   4.031   1.913
 2311TIP3   OH2 6896   2.562   1.162   0.105
 2311TIP3    H1 6897   2.652   1.133   0.119
 2311TIP3    H2 6898   2.513   1.082   0.089
 2312TIP3   OH2 6899   2.397   0.949   4.746
 2312TIP3    H1 6900   2.333   1.016   4.725
 2312TIP3    H2 6901   2.374   0.875   4.690
 2313TIP3   OH2 6902   6.526   4.001   4.769
 2313TIP3    H1 6903   6.583   3.966   4.700
 2313TIP3    H2 6904   6.459   3.935   4.780
 2314TIP3   OH2 6905   5.431   2.059   3.781
 2314TIP3    H1 6906   5.411   2.153   3.782
 2314TIP3    H2 6907   5.511   2.052   3.729
 2315TIP3   OH2 6908   6.792   5.112   0.298
 2315TIP3    H1 6909   6.794   5.090   0.205
 2315TIP3    H2 6910   6.786   5.028   0.343
 2316TIP3   OH2 6911   3.387   3.632   1.378
 2316TIP3    H1 6912   3.441   3.598   1.450
 2316TIP3    H2 6913   3.448   3.637   1.304
 2317TIP3   OH2 6914   2.174   0.273   5.590
 2317TIP3    H1 6915   2.236   0.338   5.556
 2317TIP3    H2 6916   2.212   0.242   5.672
 2318TIP3   OH2 6917   2.552   5.357   1.968
 2318TIP3    H1 6918   2.540   5.440   1.923
 2318TIP3    H2 6919   2.524   5.291   1.904
 2319TIP3   OH2 6920   0.348   0.933   2.111
 2319TIP3    H1 6921   0.257   0.954   2.131
 2319TIP3    H2 6922   0.398   0.976   2.180
 2320TIP3   OH2 6923   2.094   1.158   1.102
 2320TIP3    H1 6924   2.130   1.124   1.184
 2320TIP3    H2 6925   2.171   1.190   1.054
 2321TIP3   OH2 6926   3.007   0.957   3.302
 2321TIP3    H1 6927   3.049   0.995   3.379
 2321TIP3    H2 6928   2.928   0.914   3.336
 2322TIP3   OH2 6929   0.249   1.983   3.062
 2322TIP3    H1 6930   0.322   1.921   3.054
 2322TIP3    H2 6931   0.260   2.041   2.986
 2323TIP3   OH2 6932   2.336   5.334   4.889
 2323TIP3    H1 6933   2.337   5.335   4.793
 2323TIP3    H2 6934   2.344   5.241   4.912
 2324TIP3   OH2 6935   7.011   1.283   2.674
 2324TIP3    H1 6936   7.044   1.208   2.725
 2324TIP3    H2 6937   7.045   1.359   2.721
 2325TIP3   OH2 6938   5.266   1.697   0.519
 2325TIP3    H1 6939   5.275   1.727   0.428
 2325TIP3    H2 6940   5.175   1.719   0.542
 2326TIP3   OH2 6941   2.255   5.912   3.714
 2326TIP3    H1 6942   2.326   5.894   3.652
 2326TIP3    H2 6943   2.239   6.006   3.707
 2327TIP3   OH2 6944   5.918   3.662   1.522
 2327TIP3    H1 6945   5.836   3.643   1.566
 2327TIP3    H2 6946   5.932   3.756   1.536
 2328TIP3   OH2 6947   5.915   2.479   4.932
 2328TIP3    H1 6948   5.953   2.523   5.008
 2328TIP3    H2 6949   5.899   2.550   4.870
 2329TIP3   OH2 6950   4.962   4.151   5.362
 2329TIP3    H1 6951   4.913   4.069   5.354
 2329TIP3    H2 6952   5.014   4.140   5.442
 2330TIP3   OH2 6953   4.281   6.027   1.672
 2330TIP3    H1 6954   4.273   6.016   1.577
 2330TIP3    H2 6955   4.287   5.938   1.706
 2331TIP3   OH2 6956   0.367   4.659   1.144
 2331TIP3    H1 6957   0.324   4.679   1.227
 2331TIP3    H2 6958   0.460   4.663   1.163
 2332TIP3   OH2 6959   2.235   4.448   0.784
 2332TIP3    H1 6960   2.256   4.464   0.876
 2332TIP3    H2 6961   2.318   4.423   0.744
 2333TIP3   OH2 6962   3.677   0.582   2.832
 2333TIP3    H1 6963   3.769   0.567   2.811
 2333TIP3    H2 6964   3.679   0.624   2.918
 2334TIP3   OH2 6965   0.640   4.497   2.062
 2334TIP3    H1 6966   0.623   4.417   2.112
 2334TIP3    H2 6967   0.702   4.470   1.994
 2335TIP3   OH2 6968   2.106   1.635   3.695
 2335TIP3    H1 6969   2.023   1.586   3.694
 2335TIP3    H2 6970   2.143   1.620   3.608
 2336TIP3   OH2 6971   1.095   4.253   0.360
 2336TIP3    H1 6972   1.152   4.330   0.356
 2336TIP3    H2 6973   1.128   4.195   0.291
 2337TIP3   OH2 6974   6.063   4.635   3.041
 2337TIP3    H1 6975   6.048   4.713   3.095
 2337TIP3    H2 6976   5.975   4.601   3.023
 2338TIP3   OH2 6977   5.254   5.627   4.116
 2338TIP3    H1 6978   5.183   5.688   4.134
 2338TIP3    H2 6979   5.293   5.609   4.202
 2339TIP3   OH2 6980   4.607   2.402   0.566
 2339TIP3    H1 6981   4.560   2.328   0.527
 2339TIP3    H2 6982   4.539   2.466   0.585
 2340TIP3   OH2 6983   4.007   2.818   3.198
 2340TIP3    H1 6984   4.003   2.914   3.199
 2340TIP3    H2 6985   3.973   2.793   3.112
 2341TIP3   OH2 6986   1.948   4.857   5.541
 2341TIP3    H1 6987   1.953   4.949   5.565
 2341TIP3    H2 6988   2.031   4.840   5.495
 2342TIP3   OH2 6989   4.471   6.425   3.897
 2342TIP3    H1 6990   4.381   6.426   3.930
 2342TIP3    H2 6991   4.525   6.400   3.972
 2343TIP3   OH2 6992   1.604   4.633   5.901
 2343TIP3    H1 6993   1.592   4.705   5.963
 2343TIP3    H2 6994   1.664   4.667   5.835
 2344TIP3   OH2 6995   0.066   5.084   4.109
 2344TIP3    H1 6996   0.104   5.115   4.027
 2344TIP3    H2 6997   0.080   4.989   4.108
 2345TIP3   OH2 6998   4.853   1.469   5.345
 2345TIP3    H1 6999   4.806   1.420   5.277
 2345TIP3    H2 7000   4.785   1.524   5.386
 2346TIP3   OH2 7001   3.991   3.574   1.683
 2346TIP3    H1 7002   4.066   3.633   1.681
 2346TIP3    H2 7003   3.992   3.532   1.597
 2347TIP3   OH2 7004   6.352   0.463   3.992
 2347TIP3    H1 7005   6.410   0.536   3.969
 2347TIP3    H2 7006   6.271   0.504   4.021
 2348TIP3   OH2 7007   1.073   0.133   3.579
 2348TIP3    H1 7008   1.148   0.076   3.566
 2348TIP3    H2 7009   1.017   0.086   3.641
 2349TIP3   OH2 7010   0.679   5.445   3.476
 2349TIP3    H1 7011   0.685   5.360   3.520
 2349TIP3    H2 7012   0.594   5.479   3.502
 2350TIP3   OH2 7013   3.406   1.414   5.075
 2350TIP3    H1 7014   3.489   1.435   5.033
 2350TIP3    H2 7015   3.350   1.489   5.057
 2351TIP3   OH2 7016   5.283   2.800   4.478
 2351TIP3    H1 7017   5.218   2.822   4.545
 2351TIP3    H2 7018   5.261   2.711   4.451
 2352TIP3   OH2 7019   6.021   3.623   0.409
 2352TIP3    H1 7020   6.057   3.705   0.374
 2352TIP3    H2 7021   5.926   3.637   0.409
 2353TIP3   OH2 7022   0.481   6.166   4.511
 2353TIP3    H1 7023   0.561   6.216   4.499
 2353TIP3    H2 7024   0.427   6.219   4.569
 2354TIP3   OH2 7025   5.682   5.328   1.649
 2354TIP3    H1 7026   5.683   5.423   1.651
 2354TIP3    H2 7027   5.715   5.301   1.735
 2355TIP3   OH2 7028   5.495   2.487   2.658
 2355TIP3    H1 7029   5.458   2.561   2.705
 2355TIP3    H2 7030   5.470   2.411   2.711
 2356TIP3   OH2 7031   3.905   4.595   0.744
 2356TIP3    H1 7032   3.845   4.641   0.803
 2356TIP3    H2 7033   3.907   4.649   0.665
 2357TIP3   OH2 7034   1.646   2.431   5.443
 2357TIP3    H1 7035   1.727   2.422   5.494
 2357TIP3    H2 7036   1.654   2.517   5.401
 2358TIP3   OH2 7037   0.651   0.261   3.105
 2358TIP3    H1 7038   0.642   0.263   3.009
 2358TIP3    H2 7039   0.569   0.222   3.136
 2359TIP3   OH2 7040   2.078   6.364   1.768
 2359TIP3    H1 7041   2.146   6.306   1.734
 2359TIP3    H2 7042   2.082   6.442   1.712
 2360TIP3   OH2 7043   2.879   5.431   0.376
 2360TIP3    H1 7044   2.843   5.441   0.465
 2360TIP3    H2 7045   2.803   5.442   0.319
 2361TIP3   OH2 7046   6.355   4.778   2.060
 2361TIP3    H1 7047   6.285   4.817   2.113
 2361TIP3    H2 7048   6.436   4.805   2.103
 2362TIP3   OH2 7049   4.791   6.044   1.452
 2362TIP3    H1 7050   4.767   6.059   1.543
 2362TIP3    H2 7051   4.710   6.014   1.411
 2363TIP3   OH2 7052   0.040   2.572   1.818
 2363TIP3    H1 7053   0.064   2.572   1.725
 2363TIP3    H2 7054   0.124   2.570   1.864
 2364TIP3   OH2 7055   2.422   3.178   0.051
 2364TIP3    H1 7056   2.353   3.117   0.078
 2364TIP3    H2 7057   2.379   3.235  -0.013
 2365TIP3   OH2 7058   2.799   1.573   0.568
 2365TIP3    H1 7059   2.844   1.591   0.485
 2365TIP3    H2 7060   2.817   1.481   0.585
 2366TIP3   OH2 7061   7.053   0.600   1.041
 2366TIP3    H1 7062   6.999   0.550   1.101
 2366TIP3    H2 7063   7.086   0.535   0.978
 2367TIP3   OH2 7064   4.297   0.744   5.090
 2367TIP3    H1 7065   4.368   0.780   5.143
 2367TIP3    H2 7066   4.289   0.653   5.119
 2368TIP3   OH2 7067   4.744   3.693   0.648
 2368TIP3    H1 7068   4.739   3.635   0.572
 2368TIP3    H2 7069   4.832   3.678   0.683
 2369TIP3   OH2 7070   5.452   0.247   1.328
 2369TIP3    H1 7071   5.438   0.241   1.234
 2369TIP3    H2 7072   5.541   0.278   1.338
 2370TIP3   OH2 7073   0.009   1.924   0.684
 2370TIP3    H1 7074   0.097   1.911   0.650
 2370TIP3    H2 7075  -0.021   1.837   0.708
 2371TIP3   OH2 7076   1.068   3.173   4.179
 2371TIP3    H1 7077   1.124   3.221   4.119
 2371TIP3    H2 7078   1.129   3.131   4.240
 2372TIP3   OH2 7079   2.665   0.498   5.495
 2372TIP3    H1 7080   2.589   0.467   5.446
 2372TIP3    H2 7081   2.644   0.589   5.517
 2373TIP3   OH2 7082   3.006   1.797   0.948
 2373TIP3    H1 7083   2.967   1.868   1.000
 2373TIP3    H2 7084   2.964   1.804   0.863
 2374TIP3   OH2 7085   0.468   4.808   0.463
 2374TIP3    H1 7086   0.534   4.874   0.480
 2374TIP3    H2 7087   0.478   4.786   0.371
 2375TIP3   OH2 7088   4.689   3.447   5.148
 2375TIP3    H1 7089   4.614   3.388   5.149
 2375TIP3    H2 7090   4.761   3.394   5.115
 2376TIP3   OH2 7091   1.140   5.061   0.329
 2376TIP3    H1 7092   1.172   4.984   0.282
 2376TIP3    H2 7093   1.113   5.122   0.261
 2377TIP3   OH2 7094   6.067   4.797   0.348
 2377TIP3    H1 7095   6.120   4.764   0.421
 2377TIP3    H2 7096   5.997   4.848   0.390
 2378TIP3   OH2 7097   5.304   3.359   3.838
 2378TIP3    H1 7098   5.333   3.383   3.926
 2378TIP3    H2 7099   5.218   3.319   3.852
 2379TIP3   OH2 7100   2.988   0.142   5.607
 2379TIP3    H1 7101   3.067   0.168   5.655
 2379TIP3    H2 7102   3.017   0.071   5.550
 2380TIP3   OH2 7103   3.657   2.910   4.823
 2380TIP3    H1 7104   3.612   2.899   4.740
 2380TIP3    H2 7105   3.737   2.958   4.801
 2381TIP3   OH2 7106   3.798   6.694   5.263
 2381TIP3    H1 7107   3.889   6.706   5.238
 2381TIP3    H2 7108   3.750   6.759   5.212
 2382TIP3   OH2 7109   6.915   4.726   2.087
 2382TIP3    H1 7110   6.921   4.688   2.174
 2382TIP3    H2 7111   6.957   4.812   2.094
 2383TIP3   OH2 7112   6.970   6.295   0.225
 2383TIP3    H1 7113   6.877   6.311   0.243
 2383TIP3    H2 7114   6.986   6.340   0.143
 2384TIP3   OH2 7115   6.206   5.955   1.102
 2384TIP3    H1 7116   6.196   5.865   1.071
 2384TIP3    H2 7117   6.280   5.989   1.052
 2385TIP3   OH2 7118   0.125   5.747   1.212
 2385TIP3    H1 7119   0.053   5.787   1.162
 2385TIP3    H2 7120   0.202   5.760   1.156
 2386TIP3   OH2 7121   0.212   1.966   1.465
 2386TIP3    H1 7122   0.308   1.965   1.462
 2386TIP3    H2 7123   0.185   1.877   1.443
 2387TIP3   OH2 7124   1.052   5.262   1.760
 2387TIP3    H1 7125   1.013   5.182   1.725
 2387TIP3    H2 7126   1.105   5.233   1.834
 2388TIP3   OH2 7127   4.419   1.427   4.768
 2388TIP3    H1 7128   4.417   1.342   4.724
 2388TIP3    H2 7129   4.490   1.419   4.832
 2389TIP3   OH2 7130   2.235   5.407   3.343
 2389TIP3    H1 7131   2.297   5.477   3.364
 2389TIP3    H2 7132   2.172   5.448   3.283
 2390TIP3   OH2 7133   0.786   4.422   5.617
 2390TIP3    H1 7134   0.821   4.476   5.688
 2390TIP3    H2 7135   0.756   4.342   5.659
 2391TIP3   OH2 7136   4.656   4.267   4.370
 2391TIP3    H1 7137   4.662   4.354   4.329
 2391TIP3    H2 7138   4.740   4.225   4.352
 2392TIP3   OH2 7139   5.179   6.625   4.825
 2392TIP3    H1 7140   5.203   6.556   4.886
 2392TIP3    H2 7141   5.262   6.670   4.806
 2393TIP3   OH2 7142   4.058   5.860   1.929
 2393TIP3    H1 7143   4.049   5.821   1.842
 2393TIP3    H2 7144   4.145   5.833   1.959
 2394TIP3   OH2 7145   3.685   5.308   1.778
 2394TIP3    H1 7146   3.593   5.327   1.796
 2394TIP3    H2 7147   3.724   5.292   1.864
 2395TIP3   OH2 7148   4.294   4.465   5.121
 2395TIP3    H1 7149   4.340   4.547   5.141
 2395TIP3    H2 7150   4.290   4.419   5.205
 2396TIP3   OH2 7151   1.026   4.360   4.211
 2396TIP3    H1 7152   0.941   4.316   4.220
 2396TIP3    H2 7153   1.069   4.348   4.296
 2397TIP3   OH2 7154   3.783   5.211   3.981
 2397TIP3    H1 7155   3.823   5.262   3.911
 2397TIP3    H2 7156   3.746   5.277   4.040
 2398TIP3   OH2 7157   4.947   6.243   4.265
 2398TIP3    H1 7158   4.986   6.232   4.352
 2398TIP3    H2 7159   4.862   6.284   4.282
 2399TIP3   OH2 7160   5.387   4.265   1.837
 2399TIP3    H1 7161   5.379   4.170   1.833
 2399TIP3    H2 7162   5.345   4.289   1.920
 2400TIP3   OH2 7163   7.074   4.830   0.817
 2400TIP3    H1 7164   7.136   4.858   0.749
 2400TIP3    H2 7165   7.025   4.758   0.778
 2401TIP3   OH2 7166   2.137   1.915   3.675
 2401TIP3    H1 7167   2.221   1.948   3.706
 2401TIP3    H2 7168   2.140   1.820   3.691
 2402TIP3   OH2 7169   1.365   3.584   1.162
 2402TIP3    H1 7170   1.313   3.663   1.179
 2402TIP3    H2 7171   1.455   3.611   1.177
 2403TIP3   OH2 7172   0.352   6.113   2.067
 2403TIP3    H1 7173   0.332   6.046   2.002
 2403TIP3    H2 7174   0.302   6.087   2.145
 2404TIP3   OH2 7175   3.387   5.140   4.496
 2404TIP3    H1 7176   3.372   5.181   4.410
 2404TIP3    H2 7177   3.474   5.101   4.489
 2405TIP3   OH2 7178   4.406   1.611   1.379
 2405TIP3    H1 7179   4.384   1.664   1.455
 2405TIP3    H2 7180   4.409   1.521   1.413
 2406TIP3   OH2 7181   0.717   1.646   1.873
 2406TIP3    H1 7182   0.639   1.701   1.870
 2406TIP3    H2 7183   0.684   1.557   1.878
 2407TIP3   OH2 7184   0.834   2.438   4.744
 2407TIP3    H1 7185   0.763   2.441   4.679
 2407TIP3    H2 7186   0.836   2.526   4.781
 2408TIP3   OH2 7187   7.113   6.052   3.549
 2408TIP3    H1 7188   7.101   5.970   3.597
 2408TIP3    H2 7189   7.052   6.047   3.476
 2409TIP3   OH2 7190   3.148   4.871   4.957
 2409TIP3    H1 7191   3.179   4.783   4.934
 2409TIP3    H2 7192   3.204   4.929   4.907
 2410TIP3   OH2 7193   0.246   1.421   4.891
 2410TIP3    H1 7194   0.253   1.408   4.986
 2410TIP3    H2 7195   0.163   1.466   4.879
 2411TIP3   OH2 7196   7.116   1.250   0.357
 2411TIP3    H1 7197   7.085   1.293   0.436
 2411TIP3    H2 7198   7.130   1.322   0.295
 2412TIP3   OH2 7199   5.008   4.825   0.750
 2412TIP3    H1 7200   5.083   4.883   0.743
 2412TIP3    H2 7201   4.933   4.880   0.730
 2413TIP3   OH2 7202   6.746   3.714   2.690
 2413TIP3    H1 7203   6.826   3.685   2.646
 2413TIP3    H2 7204   6.756   3.809   2.697
 2414TIP3   OH2 7205   3.773   1.529   3.053
 2414TIP3    H1 7206   3.789   1.609   3.002
 2414TIP3    H2 7207   3.692   1.547   3.100
 2415TIP3   OH2 7208   0.065   3.089   3.014
 2415TIP3    H1 7209   0.126   3.088   2.941
 2415TIP3    H2 7210   0.109   3.140   3.082
 2416TIP3   OH2 7211   6.730   4.006   0.512
 2416TIP3    H1 7212   6.740   4.095   0.545
 2416TIP3    H2 7213   6.688   3.958   0.583
 2417TIP3   OH2 7214   6.074   4.924   3.664
 2417TIP3    H1 7215   6.141   4.937   3.731
 2417TIP3    H2 7216   6.092   4.836   3.629
 2418TIP3   OH2 7217   5.158   5.757   3.450
 2418TIP3    H1 7218   5.089   5.791   3.507
 2418TIP3    H2 7219   5.198   5.686   3.499
 2419TIP3   OH2 7220   3.304   1.868   1.277
 2419TIP3    H1 7221   3.214   1.848   1.252
 2419TIP3    H2 7222   3.352   1.787   1.259
 2420TIP3   OH2 7223   6.527   5.076   0.636
 2420TIP3    H1 7224   6.548   5.169   0.639
 2420TIP3    H2 7225   6.564   5.040   0.717
 2421TIP3   OH2 7226   3.701   3.383   5.643
 2421TIP3    H1 7227   3.766   3.345   5.584
 2421TIP3    H2 7228   3.622   3.390   5.590
 2422TIP3   OH2 7229   0.890   6.572   4.895
 2422TIP3    H1 7230   0.919   6.633   4.827
 2422TIP3    H2 7231   0.859   6.496   4.846
 2423TIP3   OH2 7232   2.407   3.324   5.537
 2423TIP3    H1 7233   2.355   3.396   5.502
 2423TIP3    H2 7234   2.388   3.250   5.480
 2424TIP3   OH2 7235   5.288   2.573   3.136
 2424TIP3    H1 7236   5.311   2.538   3.222
 2424TIP3    H2 7237   5.290   2.668   3.147
 2425TIP3   OH2 7238   3.140   1.248   2.976
 2425TIP3    H1 7239   3.063   1.302   2.962
 2425TIP3    H2 7240   3.156   1.206   2.891
 2426TIP3   OH2 7241   1.976   0.420   3.188
 2426TIP3    H1 7242   1.989   0.513   3.169
 2426TIP3    H2 7243   1.932   0.419   3.273
 2427TIP3   OH2 7244   3.211   5.767   1.835
 2427TIP3    H1 7245   3.290   5.804   1.874
 2427TIP3    H2 7246   3.214   5.674   1.860
 2428TIP3   OH2 7247   3.020   5.818   4.996
 2428TIP3    H1 7248   2.929   5.838   4.973
 2428TIP3    H2 7249   3.057   5.902   5.023
 2429TIP3   OH2 7250   1.514   5.582   2.653
 2429TIP3    H1 7251   1.540   5.601   2.743
 2429TIP3    H2 7252   1.582   5.524   2.620
 2430TIP3   OH2 7253   3.288   0.345   0.201
 2430TIP3    H1 7254   3.325   0.304   0.123
 2430TIP3    H2 7255   3.364   0.360   0.258
 2431TIP3   OH2 7256   4.414   5.052   1.212
 2431TIP3    H1 7257   4.418   4.963   1.246
 2431TIP3    H2 7258   4.497   5.092   1.238
 2432TIP3   OH2 7259   0.743   3.840   4.498
 2432TIP3    H1 7260   0.751   3.822   4.405
 2432TIP3    H2 7261   0.719   3.756   4.537
 2433TIP3   OH2 7262   4.710   2.891   2.775
 2433TIP3    H1 7263   4.724   2.952   2.847
 2433TIP3    H2 7264   4.786   2.833   2.778
 2434TIP3   OH2 7265   5.807   1.465   4.372
 2434TIP3    H1 7266   5.720   1.462   4.332
 2434TIP3    H2 7267   5.849   1.384   4.343
 2435TIP3   OH2 7268   2.761   1.827   3.109
 2435TIP3    H1 7269   2.694   1.788   3.053
 2435TIP3    H2 7270   2.843   1.785   3.082
 2436TIP3   OH2 7271   7.060   1.739   4.024
 2436TIP3    H1 7272   7.059   1.820   3.972
 2436TIP3    H2 7273   7.150   1.707   4.015
 2437TIP3   OH2 7274   2.585   4.279   3.339
 2437TIP3    H1 7275   2.673   4.291   3.302
 2437TIP3    H2 7276   2.578   4.185   3.356
 2438TIP3   OH2 7277   3.364   5.540   3.720
 2438TIP3    H1 7278   3.356   5.494   3.637
 2438TIP3    H2 7279   3.278   5.528   3.762
 2439TIP3   OH2 7280   4.938   5.631   1.373
 2439TIP3    H1 7281   5.010   5.599   1.318
 2439TIP3    H2 7282   4.966   5.718   1.400
 2440TIP3   OH2 7283   5.016   3.018   5.564
 2440TIP3    H1 7284   5.072   3.081   5.610
 2440TIP3    H2 7285   5.077   2.967   5.511
 2441TIP3   OH2 7286   1.609   0.630   5.661
 2441TIP3    H1 7287   1.617   0.637   5.756
 2441TIP3    H2 7288   1.536   0.687   5.638
 2442TIP3   OH2 7289   3.994   5.843   0.497
 2442TIP3    H1 7290   4.051   5.791   0.553
 2442TIP3    H2 7291   3.915   5.791   0.487
 2443TIP3   OH2 7292   6.710   2.952   4.957
 2443TIP3    H1 7293   6.643   2.909   5.010
 2443TIP3    H2 7294   6.742   3.024   5.011
 2444TIP3   OH2 7295   0.490   1.691   5.204
 2444TIP3    H1 7296   0.522   1.778   5.181
 2444TIP3    H2 7297   0.542   1.665   5.280
 2445TIP3   OH2 7298   5.280   3.248   0.446
 2445TIP3    H1 7299   5.249   3.244   0.536
 2445TIP3    H2 7300   5.207   3.215   0.394
 2446TIP3   OH2 7301   3.451   5.873   5.828
 2446TIP3    H1 7302   3.432   5.951   5.880
 2446TIP3    H2 7303   3.367   5.849   5.789
 2447TIP3   OH2 7304   5.199   4.682   2.673
 2447TIP3    H1 7305   5.224   4.592   2.691
 2447TIP3    H2 7306   5.151   4.710   2.750
 2448TIP3   OH2 7307   2.536   5.453   4.612
 2448TIP3    H1 7308   2.473   5.468   4.542
 2448TIP3    H2 7309   2.527   5.360   4.634
 2449TIP3   OH2 7310   1.622   4.174   3.223
 2449TIP3    H1 7311   1.528   4.161   3.231
 2449TIP3    H2 7312   1.642   4.244   3.285
 2450TIP3   OH2 7313   3.273   5.910   4.202
 2450TIP3    H1 7314   3.289   5.981   4.140
 2450TIP3    H2 7315   3.353   5.905   4.254
 2451TIP3   OH2 7316   2.106   4.230   4.122
 2451TIP3    H1 7317   2.132   4.142   4.149
 2451TIP3    H2 7318   2.177   4.259   4.064
 2452TIP3   OH2 7319   3.980   2.187   2.790
 2452TIP3    H1 7320   3.898   2.223   2.821
 2452TIP3    H2 7321   4.024   2.259   2.746
 2453TIP3   OH2 7322   0.539   3.740   3.985
 2453TIP3    H1 7323   0.527   3.821   4.035
 2453TIP3    H2 7324   0.507   3.761   3.897
 2454TIP3   OH2 7325   1.291   5.276   5.082
 2454TIP3    H1 7326   1.266   5.258   4.991
 2454TIP3    H2 7327   1.286   5.190   5.126
 2455TIP3   OH2 7328   2.073   1.860   4.469
 2455TIP3    H1 7329   2.056   1.883   4.561
 2455TIP3    H2 7330   2.156   1.813   4.471
 2456TIP3   OH2 7331   5.507   5.306   3.323
 2456TIP3    H1 7332   5.421   5.348   3.324
 2456TIP3    H2 7333   5.528   5.295   3.230
 2457TIP3   OH2 7334   7.016   0.259   3.937
 2457TIP3    H1 7335   7.050   0.348   3.940
 2457TIP3    H2 7336   7.016   0.236   3.844
 2458TIP3   OH2 7337   0.847   5.164   0.425
 2458TIP3    H1 7338   0.939   5.141   0.412
 2458TIP3    H2 7339   0.803   5.128   0.348
 2459TIP3   OH2 7340   2.457   3.350   1.089
 2459TIP3    H1 7341   2.436   3.420   1.027
 2459TIP3    H2 7342   2.430   3.270   1.045
 2460TIP3   OH2 7343   5.169   2.877   5.406
 2460TIP3    H1 7344   5.220   2.821   5.464
 2460TIP3    H2 7345   5.189   2.846   5.318
 2461TIP3   OH2 7346   4.757   4.140   5.676
 2461TIP3    H1 7347   4.785   4.051   5.654
 2461TIP3    H2 7348   4.698   4.164   5.605
 2462TIP3   OH2 7349   0.932   3.071   3.378
 2462TIP3    H1 7350   0.941   3.140   3.445
 2462TIP3    H2 7351   0.971   2.994   3.418
 2463TIP3   OH2 7352   2.281   1.311   5.009
 2463TIP3    H1 7353   2.356   1.264   4.974
 2463TIP3    H2 7354   2.268   1.274   5.097
 2464TIP3   OH2 7355   2.839   3.825   0.572
 2464TIP3    H1 7356   2.838   3.911   0.529
 2464TIP3    H2 7357   2.914   3.779   0.534
 2465TIP3   OH2 7358   4.906   6.603   4.962
 2465TIP3    H1 7359   4.932   6.589   5.053
 2465TIP3    H2 7360   4.989   6.612   4.914
 2466TIP3   OH2 7361   1.255   6.470   2.653
 2466TIP3    H1 7362   1.208   6.389   2.635
 2466TIP3    H2 7363   1.293   6.457   2.740
 2467TIP3   OH2 7364   2.220   2.218   4.868
 2467TIP3    H1 7365   2.232   2.265   4.785
 2467TIP3    H2 7366   2.236   2.283   4.936
 2468TIP3   OH2 7367   2.623   4.741   1.698
 2468TIP3    H1 7368   2.716   4.762   1.686
 2468TIP3    H2 7369   2.613   4.654   1.659
 2469TIP3   OH2 7370   3.628   0.723   1.082
 2469TIP3    H1 7371   3.589   0.640   1.111
 2469TIP3    H2 7372   3.560   0.788   1.097
 2470TIP3   OH2 7373   6.834   4.812   1.833
 2470TIP3    H1 7374   6.854   4.762   1.912
 2470TIP3    H2 7375   6.905   4.792   1.773
 2471TIP3   OH2 7376   4.263   5.284   3.646
 2471TIP3    H1 7377   4.229   5.369   3.616
 2471TIP3    H2 7378   4.189   5.224   3.639
 2472TIP3   OH2 7379   0.881   3.052   0.922
 2472TIP3    H1 7380   0.878   3.045   1.017
 2472TIP3    H2 7381   0.974   3.039   0.901
 2473TIP3   OH2 7382   5.001   4.417   5.427
 2473TIP3    H1 7383   4.980   4.339   5.376
 2473TIP3    H2 7384   5.005   4.487   5.362
 2474TIP3   OH2 7385   1.990   0.642   3.508
 2474TIP3    H1 7386   2.008   0.659   3.600
 2474TIP3    H2 7387   1.972   0.729   3.471
 2475TIP3   OH2 7388   5.760   1.834   4.710
 2475TIP3    H1 7389   5.804   1.888   4.776
 2475TIP3    H2 7390   5.671   1.824   4.742
 2476TIP3   OH2 7391   6.967   1.893   0.469
 2476TIP3    H1 7392   7.059   1.872   0.483
 2476TIP3    H2 7393   6.969   1.964   0.404
 2477TIP3   OH2 7394   1.498   0.349   0.092
 2477TIP3    H1 7395   1.502   0.318   0.182
 2477TIP3    H2 7396   1.428   0.297   0.052
 2478TIP3   OH2 7397   6.862   2.258   4.003
 2478TIP3    H1 7398   6.949   2.246   4.042
 2478TIP3    H2 7399   6.815   2.177   4.021
 2479TIP3   OH2 7400   6.587   3.561   0.793
 2479TIP3    H1 7401   6.508   3.554   0.847
 2479TIP3    H2 7402   6.654   3.516   0.844
 2480TIP3   OH2 7403   0.681   2.743   0.826
 2480TIP3    H1 7404   0.775   2.728   0.815
 2480TIP3    H2 7405   0.640   2.682   0.765
 2481TIP3   OH2 7406   4.168   2.810   0.363
 2481TIP3    H1 7407   4.098   2.764   0.317
 2481TIP3    H2 7408   4.165   2.900   0.330
 2482TIP3   OH2 7409   5.437   1.159   2.705
 2482TIP3    H1 7410   5.352   1.204   2.701
 2482TIP3    H2 7411   5.500   1.228   2.722
 2483TIP3   OH2 7412   7.045   4.558   0.711
 2483TIP3    H1 7413   7.028   4.521   0.625
 2483TIP3    H2 7414   7.119   4.507   0.745
 2484TIP3   OH2 7415   1.016   6.389   3.961
 2484TIP3    H1 7416   1.009   6.411   3.868
 2484TIP3    H2 7417   1.108   6.407   3.983
 2485TIP3   OH2 7418   5.018   5.839   2.041
 2485TIP3    H1 7419   5.083   5.834   2.111
 2485TIP3    H2 7420   4.986   5.929   2.045
 2486TIP3   OH2 7421   0.279   2.962   0.766
 2486TIP3    H1 7422   0.332   2.996   0.694
 2486TIP3    H2 7423   0.337   2.966   0.842
 2487TIP3   OH2 7424   0.670   4.742   4.030
 2487TIP3    H1 7425   0.633   4.694   4.105
 2487TIP3    H2 7426   0.667   4.679   3.958
 2488TIP3   OH2 7427   6.922   5.185   2.345
 2488TIP3    H1 7428   6.901   5.244   2.417
 2488TIP3    H2 7429   6.984   5.122   2.382
 2489TIP3   OH2 7430   5.186   5.965   3.857
 2489TIP3    H1 7431   5.134   6.010   3.923
 2489TIP3    H2 7432   5.131   5.892   3.828
 2490TIP3   OH2 7433   0.292   4.281   3.706
 2490TIP3    H1 7434   0.222   4.312   3.648
 2490TIP3    H2 7435   0.249   4.269   3.790
 2491TIP3   OH2 7436   2.287   1.206   4.669
 2491TIP3    H1 7437   2.202   1.246   4.651
 2491TIP3    H2 7438   2.329   1.201   4.583
 2492TIP3   OH2 7439   0.959   5.578   1.530
 2492TIP3    H1 7440   0.955   5.662   1.484
 2492TIP3    H2 7441   0.903   5.591   1.607
 2493TIP3   OH2 7442   4.464   4.383   4.901
 2493TIP3    H1 7443   4.379   4.398   4.942
 2493TIP3    H2 7444   4.445   4.330   4.824
 2494TIP3   OH2 7445   5.928   6.350   5.677
 2494TIP3    H1 7446   5.842   6.354   5.636
 2494TIP3    H2 7447   5.922   6.408   5.752
 2495TIP3   OH2 7448   1.779   2.186   1.284
 2495TIP3    H1 7449   1.723   2.226   1.351
 2495TIP3    H2 7450   1.754   2.230   1.203
 2496TIP3   OH2 7451   6.850   5.960   4.202
 2496TIP3    H1 7452   6.887   6.035   4.156
 2496TIP3    H2 7453   6.765   5.946   4.160
 2497TIP3   OH2 7454   5.598   0.196   2.517
 2497TIP3    H1 7455   5.507   0.212   2.493
 2497TIP3    H2 7456   5.642   0.279   2.501
 2498TIP3   OH2 7457   6.081   5.654   5.045
 2498TIP3    H1 7458   5.988   5.657   5.067
 2498TIP3    H2 7459   6.109   5.746   5.046
 2499TIP3   OH2 7460   1.120   1.750   2.524
 2499TIP3    H1 7461   1.141   1.823   2.583
 2499TIP3    H2 7462   1.096   1.678   2.583
 2500TIP3   OH2 7463   0.159   0.491   1.571
 2500TIP3    H1 7464   0.189   0.455   1.655
 2500TIP3    H2 7465   0.073   0.452   1.557
 2501TIP3   OH2 7466   6.258   2.056   5.281
 2501TIP3    H1 7467   6.309   1.991   5.329
 2501TIP3    H2 7468   6.275   2.139   5.326
 2502TIP3   OH2 7469   4.169   4.781   0.913
 2502TIP3    H1 7470   4.177   4.754   0.822
 2502TIP3    H2 7471   4.259   4.805   0.938
 2503TIP3   OH2 7472   3.547   2.693   3.613
 2503TIP3    H1 7473   3.589   2.691   3.526
 2503TIP3    H2 7474   3.620   2.700   3.674
 2504TIP3   OH2 7475   6.913   0.145   5.822
 2504TIP3    H1 7476   6.856   0.130   5.746
 2504TIP3    H2 7477   6.853   0.174   5.891
 2505TIP3   OH2 7478   6.810   3.391   3.195
 2505TIP3    H1 7479   6.720   3.369   3.219
 2505TIP3    H2 7480   6.822   3.481   3.226
 2506TIP3   OH2 7481   4.686   4.658   1.644
 2506TIP3    H1 7482   4.753   4.590   1.644
 2506TIP3    H2 7483   4.634   4.641   1.565
 2507TIP3   OH2 7484   3.366   4.914   2.892
 2507TIP3    H1 7485   3.317   4.988   2.928
 2507TIP3    H2 7486   3.418   4.952   2.822
 2508TIP3   OH2 7487   6.134   3.569   1.293
 2508TIP3    H1 7488   6.207   3.520   1.256
 2508TIP3    H2 7489   6.060   3.549   1.235
 2509TIP3   OH2 7490   6.665   6.668   4.488
 2509TIP3    H1 7491   6.693   6.579   4.506
 2509TIP3    H2 7492   6.646   6.706   4.574
 2510TIP3   OH2 7493   0.244   5.531   4.272
 2510TIP3    H1 7494   0.215   5.496   4.187
 2510TIP3    H2 7495   0.272   5.453   4.321
 2511TIP3   OH2 7496   2.306   6.010   1.597
 2511TIP3    H1 7497   2.332   6.077   1.660
 2511TIP3    H2 7498   2.282   6.059   1.518
 2512TIP3   OH2 7499   1.693   2.919   4.568
 2512TIP3    H1 7500   1.756   2.865   4.616
 2512TIP3    H2 7501   1.708   2.896   4.476
 2513TIP3   OH2 7502   7.013   5.546   1.802
 2513TIP3    H1 7503   6.925   5.558   1.837
 2513TIP3    H2 7504   7.070   5.553   1.879
 2514TIP3   OH2 7505   1.477   6.171   0.250
 2514TIP3    H1 7506   1.423   6.188   0.172
 2514TIP3    H2 7507   1.482   6.256   0.294
 2515TIP3   OH2 7508   5.822   4.667   1.189
 2515TIP3    H1 7509   5.810   4.592   1.248
 2515TIP3    H2 7510   5.900   4.710   1.222
 2516TIP3   OH2 7511   2.703   6.128   4.464
 2516TIP3    H1 7512   2.736   6.151   4.550
 2516TIP3    H2 7513   2.765   6.168   4.402
 2517TIP3   OH2 7514   4.277   6.771   1.396
 2517TIP3    H1 7515   4.332   6.696   1.420
 2517TIP3    H2 7516   4.194   6.732   1.369
 2518TIP3   OH2 7517   5.044   3.603   4.589
 2518TIP3    H1 7518   5.070   3.691   4.615
 2518TIP3    H2 7519   4.949   3.607   4.584
 2519TIP3   OH2 7520   0.358   4.526   3.835
 2519TIP3    H1 7521   0.356   4.447   3.782
 2519TIP3    H2 7522   0.328   4.498   3.921
 2520TIP3   OH2 7523   3.808   3.426   4.631
 2520TIP3    H1 7524   3.717   3.412   4.603
 2520TIP3    H2 7525   3.800   3.472   4.714
 2521TIP3   OH2 7526   7.060   3.259   2.184
 2521TIP3    H1 7527   7.016   3.180   2.217
 2521TIP3    H2 7528   7.038   3.261   2.091
 2522TIP3   OH2 7529   1.356   2.537  -0.037
 2522TIP3    H1 7530   1.273   2.496  -0.012
 2522TIP3    H2 7531   1.360   2.617   0.015
 2523TIP3   OH2 7532   5.233   6.316   5.688
 2523TIP3    H1 7533   5.227   6.253   5.761
 2523TIP3    H2 7534   5.293   6.275   5.626
 2524TIP3   OH2 7535   2.617   2.499   1.562
 2524TIP3    H1 7536   2.699   2.480   1.609
 2524TIP3    H2 7537   2.594   2.588   1.591
 2525TIP3   OH2 7538   6.712   0.494   0.800
 2525TIP3    H1 7539   6.696   0.511   0.893
 2525TIP3    H2 7540   6.779   0.425   0.799
 2526TIP3   OH2 7541   2.768   6.040   3.579
 2526TIP3    H1 7542   2.820   6.120   3.578
 2526TIP3    H2 7543   2.827   5.974   3.617
 2527TIP3   OH2 7544   3.831   6.728   0.223
 2527TIP3    H1 7545   3.739   6.742   0.247
 2527TIP3    H2 7546   3.828   6.672   0.146
 2528TIP3   OH2 7547   1.331   5.834   1.269
 2528TIP3    H1 7548   1.360   5.780   1.343
 2528TIP3    H2 7549   1.399   5.823   1.203
 2529TIP3   OH2 7550   5.976   0.632   2.743
 2529TIP3    H1 7551   5.964   0.697   2.812
 2529TIP3    H2 7552   6.064   0.596   2.759
 2530TIP3   OH2 7553   6.563   3.171   3.544
 2530TIP3    H1 7554   6.580   3.198   3.453
 2530TIP3    H2 7555   6.633   3.212   3.594
 2531TIP3   OH2 7556   1.149   2.569   0.516
 2531TIP3    H1 7557   1.191   2.656   0.516
 2531TIP3    H2 7558   1.125   2.554   0.425
 2532TIP3   OH2 7559   6.717   3.657   5.458
 2532TIP3    H1 7560   6.781   3.728   5.465
 2532TIP3    H2 7561   6.644   3.696   5.408
 2533TIP3   OH2 7562   3.930   3.305  -0.007
 2533TIP3    H1 7563   4.020   3.275  -0.015
 2533TIP3    H2 7564   3.895   3.256   0.067
 2534TIP3   OH2 7565   6.248   4.014   3.007
 2534TIP3    H1 7566   6.328   4.048   2.969
 2534TIP3    H2 7567   6.179   4.038   2.945
 2535TIP3   OH2 7568   5.140   6.307   4.084
 2535TIP3    H1 7569   5.066   6.308   4.146
 2535TIP3    H2 7570   5.119   6.376   4.021
 2536TIP3   OH2 7571   3.921   2.413   1.275
 2536TIP3    H1 7572   3.837   2.381   1.310
 2536TIP3    H2 7573   3.986   2.382   1.337
 2537TIP3   OH2 7574   3.199   2.958   1.452
 2537TIP3    H1 7575   3.211   2.876   1.404
 2537TIP3    H2 7576   3.241   3.024   1.397
 2538TIP3   OH2 7577   1.842   5.918   4.647
 2538TIP3    H1 7578   1.837   5.926   4.742
 2538TIP3    H2 7579   1.799   5.835   4.627
 2539TIP3   OH2 7580   3.731   5.009   3.163
 2539TIP3    H1 7581   3.822   5.030   3.140
 2539TIP3    H2 7582   3.734   4.985   3.255
 2540TIP3   OH2 7583   0.530   4.074   4.644
 2540TIP3    H1 7584   0.543   4.053   4.736
 2540TIP3    H2 7585   0.588   4.148   4.627
 2541TIP3   OH2 7586   0.938   3.615   3.937
 2541TIP3    H1 7587   0.989   3.656   4.008
 2541TIP3    H2 7588   0.907   3.533   3.975
 2542TIP3   OH2 7589   0.852   2.882   3.160
 2542TIP3    H1 7590   0.849   2.810   3.222
 2542TIP3    H2 7591   0.917   2.942   3.196
 2543TIP3   OH2 7592   2.046   4.173   3.783
 2543TIP3    H1 7593   2.073   4.084   3.802
 2543TIP3    H2 7594   2.021   4.210   3.868
 2544TIP3   OH2 7595   4.310   1.717   3.266
 2544TIP3    H1 7596   4.306   1.730   3.171
 2544TIP3    H2 7597   4.382   1.774   3.294
 2545TIP3   OH2 7598   4.174   6.646   1.096
 2545TIP3    H1 7599   4.142   6.587   1.028
 2545TIP3    H2 7600   4.127   6.619   1.175
 2546TIP3   OH2 7601   1.538   2.455   4.280
 2546TIP3    H1 7602   1.456   2.420   4.246
 2546TIP3    H2 7603   1.594   2.378   4.293
 2547TIP3   OH2 7604   2.145   6.564   1.971
 2547TIP3    H1 7605   2.095   6.642   1.945
 2547TIP3    H2 7606   2.099   6.491   1.929
 2548TIP3   OH2 7607   2.537   2.222   5.586
 2548TIP3    H1 7608   2.613   2.281   5.581
 2548TIP3    H2 7609   2.556   2.166   5.661
 2549TIP3   OH2 7610   2.758   5.621   4.649
 2549TIP3    H1 7611   2.766   5.587   4.738
 2549TIP3    H2 7612   2.684   5.573   4.611
 2550TIP3   OH2 7613   0.698   4.226   3.209
 2550TIP3    H1 7614   0.766   4.271   3.259
 2550TIP3    H2 7615   0.678   4.148   3.260
 2551TIP3   OH2 7616   4.076   4.157   2.917
 2551TIP3    H1 7617   4.015   4.120   2.853
 2551TIP3    H2 7618   4.034   4.141   3.001
 2552TIP3   OH2 7619   1.017   0.371   1.934
 2552TIP3    H1 7620   0.944   0.310   1.945
 2552TIP3    H2 7621   1.020   0.389   1.840
 2553TIP3   OH2 7622   7.183   2.756   0.429
 2553TIP3    H1 7623   7.234   2.795   0.500
 2553TIP3    H2 7624   7.145   2.831   0.383
 2554TIP3   OH2 7625   3.098   5.172   1.335
 2554TIP3    H1 7626   3.067   5.261   1.322
 2554TIP3    H2 7627   3.190   5.182   1.360
 2555TIP3   OH2 7628   1.067   0.236   1.649
 2555TIP3    H1 7629   1.153   0.195   1.647
 2555TIP3    H2 7630   1.010   0.173   1.604
 2556TIP3   OH2 7631   5.839   0.092   4.941
 2556TIP3    H1 7632   5.833   0.115   4.848
 2556TIP3    H2 7633   5.842   0.177   4.986
 2557TIP3   OH2 7634   1.269   1.012   1.316
 2557TIP3    H1 7635   1.225   0.941   1.269
 2557TIP3    H2 7636   1.338   1.041   1.256
 2558TIP3   OH2 7637   1.269   4.765   2.191
 2558TIP3    H1 7638   1.244   4.778   2.282
 2558TIP3    H2 7639   1.219   4.832   2.143
 2559TIP3   OH2 7640   5.907   6.439   3.351
 2559TIP3    H1 7641   5.815   6.420   3.370
 2559TIP3    H2 7642   5.953   6.413   3.431
 2560TIP3   OH2 7643   1.906   5.480   0.885
 2560TIP3    H1 7644   1.936   5.449   0.799
 2560TIP3    H2 7645   1.962   5.434   0.948
 2561TIP3   OH2 7646   2.308   5.820   0.206
 2561TIP3    H1 7647   2.377   5.852   0.263
 2561TIP3    H2 7648   2.341   5.834   0.117
 2562TIP3   OH2 7649   2.614   5.343   0.029
 2562TIP3    H1 7650   2.520   5.324   0.034
 2562TIP3    H2 7651   2.628   5.364  -0.064
 2563TIP3   OH2 7652   3.500   2.803   2.273
 2563TIP3    H1 7653   3.459   2.803   2.359
 2563TIP3    H2 7654   3.588   2.767   2.288
 2564TIP3   OH2 7655   0.213   3.791   5.504
 2564TIP3    H1 7656   0.240   3.714   5.453
 2564TIP3    H2 7657   0.155   3.757   5.572
 2565TIP3   OH2 7658   2.508   6.145   1.380
 2565TIP3    H1 7659   2.528   6.056   1.351
 2565TIP3    H2 7660   2.556   6.154   1.463
 2566TIP3   OH2 7661   0.810   0.900   0.885
 2566TIP3    H1 7662   0.787   0.815   0.848
 2566TIP3    H2 7663   0.822   0.884   0.978
 2567TIP3   OH2 7664   0.305   1.491   3.633
 2567TIP3    H1 7665   0.293   1.531   3.547
 2567TIP3    H2 7666   0.222   1.448   3.652
 2568TIP3   OH2 7667   6.076   0.821   0.125
 2568TIP3    H1 7668   6.142   0.875   0.083
 2568TIP3    H2 7669   6.016   0.797   0.055
 2569TIP3   OH2 7670   1.556   3.905   2.371
 2569TIP3    H1 7671   1.639   3.894   2.325
 2569TIP3    H2 7672   1.559   3.841   2.442
 2570TIP3   OH2 7673   5.721   0.157   2.773
 2570TIP3    H1 7674   5.684   0.102   2.842
 2570TIP3    H2 7675   5.659   0.148   2.700
 2571TIP3   OH2 7676   3.438   0.714   5.523
 2571TIP3    H1 7677   3.502   0.671   5.579
 2571TIP3    H2 7678   3.374   0.750   5.584
 2572TIP3   OH2 7679   4.383   5.619   3.721
 2572TIP3    H1 7680   4.307   5.589   3.670
 2572TIP3    H2 7681   4.357   5.704   3.756
 2573TIP3   OH2 7682   5.734   0.293   5.136
 2573TIP3    H1 7683   5.691   0.226   5.188
 2573TIP3    H2 7684   5.789   0.340   5.198
 2574TIP3   OH2 7685   1.675   2.653   2.880
 2574TIP3    H1 7686   1.593   2.701   2.876
 2574TIP3    H2 7687   1.655   2.567   2.844
 2575TIP3   OH2 7688   3.962   3.162   4.278
 2575TIP3    H1 7689   3.990   3.175   4.369
 2575TIP3    H2 7690   3.950   3.251   4.244
 2576TIP3   OH2 7691   0.991   0.712   5.341
 2576TIP3    H1 7692   0.945   0.648   5.287
 2576TIP3    H2 7693   1.058   0.748   5.284
 2577TIP3   OH2 7694   3.719   0.060   2.705
 2577TIP3    H1 7695   3.697   0.136   2.651
 2577TIP3    H2 7696   3.682   0.079   2.791
 2578TIP3   OH2 7697   3.184   6.413   5.353
 2578TIP3    H1 7698   3.126   6.389   5.425
 2578TIP3    H2 7699   3.256   6.351   5.359
 2579TIP3   OH2 7700   2.330   3.420   3.468
 2579TIP3    H1 7701   2.368   3.343   3.510
 2579TIP3    H2 7702   2.345   3.407   3.375
 2580TIP3   OH2 7703   7.018   5.062   2.780
 2580TIP3    H1 7704   7.094   5.108   2.743
 2580TIP3    H2 7705   6.948   5.077   2.717
 2581TIP3   OH2 7706   1.263   0.710   2.124
 2581TIP3    H1 7707   1.235   0.750   2.042
 2581TIP3    H2 7708   1.184   0.670   2.160
 2582TIP3   OH2 7709   5.742   5.260   4.367
 2582TIP3    H1 7710   5.722   5.341   4.414
 2582TIP3    H2 7711   5.776   5.201   4.434
 2583TIP3   OH2 7712   7.079   3.115   5.180
 2583TIP3    H1 7713   7.082   3.168   5.259
 2583TIP3    H2 7714   7.129   3.164   5.116
 2584TIP3   OH2 7715   3.421   3.534   4.071
 2584TIP3    H1 7716   3.453   3.572   4.154
 2584TIP3    H2 7717   3.343   3.485   4.096
 2585TIP3   OH2 7718   6.716   3.793   2.273
 2585TIP3    H1 7719   6.662   3.716   2.292
 2585TIP3    H2 7720   6.669   3.839   2.204
 2586TIP3   OH2 7721   4.764   6.381   1.814
 2586TIP3    H1 7722   4.771   6.360   1.721
 2586TIP3    H2 7723   4.849   6.357   1.850
 2587TIP3   OH2 7724   5.032   0.748   0.265
 2587TIP3    H1 7725   5.057   0.664   0.303
 2587TIP3    H2 7726   5.031   0.733   0.171
 2588TIP3   OH2 7727   0.567   6.584   2.332
 2588TIP3    H1 7728   0.645   6.544   2.370
 2588TIP3    H2 7729   0.530   6.636   2.403
 2589TIP3   OH2 7730   6.400   4.837   1.640
 2589TIP3    H1 7731   6.315   4.831   1.684
 2589TIP3    H2 7732   6.380   4.826   1.548
 2590TIP3   OH2 7733   5.021   2.030   3.621
 2590TIP3    H1 7734   4.933   2.066   3.606
 2590TIP3    H2 7735   5.080   2.103   3.599
 2591TIP3   OH2 7736   6.248   6.421   4.162
 2591TIP3    H1 7737   6.296   6.449   4.240
 2591TIP3    H2 7738   6.307   6.358   4.120
 2592TIP3   OH2 7739   0.075   2.265   3.259
 2592TIP3    H1 7740   0.124   2.347   3.261
 2592TIP3    H2 7741   0.013   2.273   3.331
 2593TIP3   OH2 7742   6.988   2.087   0.287
 2593TIP3    H1 7743   6.998   2.166   0.235
 2593TIP3    H2 7744   6.911   2.044   0.251
 2594TIP3   OH2 7745   4.994   3.855   1.518
 2594TIP3    H1 7746   5.084   3.830   1.539
 2594TIP3    H2 7747   4.967   3.792   1.451
 2595TIP3   OH2 7748   2.942   5.030   5.592
 2595TIP3    H1 7749   2.958   4.973   5.667
 2595TIP3    H2 7750   2.879   5.095   5.624
 2596TIP3   OH2 7751   3.098   1.028   1.706
 2596TIP3    H1 7752   3.046   1.058   1.780
 2596TIP3    H2 7753   3.162   0.968   1.744
 2597TIP3   OH2 7754   3.954   5.179   3.082
 2597TIP3    H1 7755   4.045   5.149   3.080
 2597TIP3    H2 7756   3.960   5.274   3.075
 2598TIP3   OH2 7757   3.928   2.063   4.743
 2598TIP3    H1 7758   4.022   2.055   4.724
 2598TIP3    H2 7759   3.885   2.045   4.660
 2599TIP3   OH2 7760   0.732   4.579   0.905
 2599TIP3    H1 7761   0.701   4.603   0.818
 2599TIP3    H2 7762   0.795   4.508   0.889
 2600TIP3   OH2 7763   5.840   1.102   0.245
 2600TIP3    H1 7764   5.932   1.075   0.244
 2600TIP3    H2 7765   5.841   1.190   0.209
 2601TIP3   OH2 7766   7.038   3.953   3.908
 2601TIP3    H1 7767   7.069   3.865   3.930
 2601TIP3    H2 7768   7.053   3.961   3.814
 2602TIP3   OH2 7769   2.532   1.380   1.990
 2602TIP3    H1 7770   2.502   1.418   1.908
 2602TIP3    H2 7771   2.459   1.394   2.051
 2603TIP3   OH2 7772   2.134   1.048   0.345
 2603TIP3    H1 7773   2.224   1.029   0.372
 2603TIP3    H2 7774   2.096   1.094   0.421
 2604TIP3   OH2 7775   5.068   4.503   0.540
 2604TIP3    H1 7776   5.153   4.544   0.557
 2604TIP3    H2 7777   5.070   4.481   0.447
 2605TIP3   OH2 7778   5.401   5.719   3.190
 2605TIP3    H1 7779   5.407   5.729   3.095
 2605TIP3    H2 7780   5.403   5.808   3.224
 2606TIP3   OH2 7781   2.839   2.971   0.417
 2606TIP3    H1 7782   2.812   2.896   0.366
 2606TIP3    H2 7783   2.808   2.953   0.506
 2607TIP3   OH2 7784   1.732   3.528   2.169
 2607TIP3    H1 7785   1.764   3.546   2.258
 2607TIP3    H2 7786   1.650   3.577   2.163
 2608TIP3   OH2 7787   6.559   0.072   5.830
 2608TIP3    H1 7788   6.472   0.112   5.829
 2608TIP3    H2 7789   6.612   0.127   5.772
 2609TIP3   OH2 7790   6.803   2.836   1.004
 2609TIP3    H1 7791   6.868   2.901   1.030
 2609TIP3    H2 7792   6.754   2.877   0.933
 2610TIP3   OH2 7793   2.749   0.834   3.057
 2610TIP3    H1 7794   2.829   0.801   3.098
 2610TIP3    H2 7795   2.679   0.783   3.097
 2611TIP3   OH2 7796   4.110   4.330   0.201
 2611TIP3    H1 7797   4.088   4.257   0.259
 2611TIP3    H2 7798   4.200   4.313   0.175
 2612TIP3   OH2 7799   0.446   4.014   1.573
 2612TIP3    H1 7800   0.463   3.955   1.646
 2612TIP3    H2 7801   0.454   4.102   1.609
 2613TIP3   OH2 7802   6.459   1.849   4.837
 2613TIP3    H1 7803   6.551   1.874   4.851
 2613TIP3    H2 7804   6.409   1.923   4.872
 2614TIP3   OH2 7805   0.490   2.046   1.533
 2614TIP3    H1 7806   0.499   2.140   1.523
 2614TIP3    H2 7807   0.580   2.013   1.538
 2615TIP3   OH2 7808  -0.044   3.213   0.234
 2615TIP3    H1 7809  -0.034   3.281   0.301
 2615TIP3    H2 7810   0.037   3.216   0.184
 2616TIP3   OH2 7811   4.610   1.456   0.131
 2616TIP3    H1 7812   4.515   1.443   0.127
 2616TIP3    H2 7813   4.642   1.384   0.185
 2617TIP3   OH2 7814   6.591   1.005   3.733
 2617TIP3    H1 7815   6.606   0.916   3.763
 2617TIP3    H2 7816   6.504   1.027   3.766
 2618TIP3   OH2 7817   4.065   2.814   0.977
 2618TIP3    H1 7818   4.049   2.889   1.035
 2618TIP3    H2 7819   4.015   2.743   1.016
 2619TIP3   OH2 7820   5.775   1.437   2.756
 2619TIP3    H1 7821   5.857   1.478   2.726
 2619TIP3    H2 7822   5.793   1.343   2.755
 2620TIP3   OH2 7823   7.036   1.454   0.847
 2620TIP3    H1 7824   7.069   1.521   0.787
 2620TIP3    H2 7825   7.027   1.499   0.931
 2621TIP3   OH2 7826   6.126   3.509   4.694
 2621TIP3    H1 7827   6.128   3.546   4.605
 2621TIP3    H2 7828   6.217   3.511   4.723
 2622TIP3   OH2 7829   0.287   1.620   0.919
 2622TIP3    H1 7830   0.365   1.583   0.878
 2622TIP3    H2 7831   0.287   1.712   0.893
 2623TIP3   OH2 7832   2.178   3.625   2.309
 2623TIP3    H1 7833   2.197   3.718   2.299
 2623TIP3    H2 7834   2.128   3.619   2.390
 2624TIP3   OH2 7835   2.807   0.425   2.593
 2624TIP3    H1 7836   2.774   0.409   2.681
 2624TIP3    H2 7837   2.872   0.494   2.603
 2625TIP3   OH2 7838   5.645   5.458   4.499
 2625TIP3    H1 7839   5.705   5.524   4.464
 2625TIP3    H2 7840   5.675   5.445   4.590
 2626TIP3   OH2 7841   2.383   0.565   1.924
 2626TIP3    H1 7842   2.443   0.522   1.985
 2626TIP3    H2 7843   2.384   0.657   1.950
 2627TIP3   OH2 7844   0.381   5.246   2.621
 2627TIP3    H1 7845   0.335   5.328   2.604
 2627TIP3    H2 7846   0.470   5.272   2.645
 2628TIP3   OH2 7847   5.091   0.680   4.018
 2628TIP3    H1 7848   5.019   0.689   3.957
 2628TIP3    H2 7849   5.055   0.628   4.091
 2629TIP3   OH2 7850   1.686   6.409   0.110
 2629TIP3    H1 7851   1.670   6.424   0.017
 2629TIP3    H2 7852   1.740   6.330   0.114
 2630TIP3   OH2 7853   1.672   2.958   4.937
 2630TIP3    H1 7854   1.739   2.911   4.986
 2630TIP3    H2 7855   1.719   3.004   4.868
 2631TIP3   OH2 7856   1.848   5.740   1.183
 2631TIP3    H1 7857   1.786   5.667   1.177
 2631TIP3    H2 7858   1.795   5.813   1.215
 2632TIP3   OH2 7859   6.020   3.119   2.957
 2632TIP3    H1 7860   6.107   3.120   2.916
 2632TIP3    H2 7861   5.976   3.196   2.923
 2633TIP3   OH2 7862   4.265   6.415   4.421
 2633TIP3    H1 7863   4.293   6.327   4.397
 2633TIP3    H2 7864   4.200   6.401   4.491
 2634TIP3   OH2 7865   1.851   1.790   0.212
 2634TIP3    H1 7866   1.758   1.781   0.234
 2634TIP3    H2 7867   1.870   1.715   0.155
 2635TIP3   OH2 7868   2.579   2.997   0.292
 2635TIP3    H1 7869   2.673   3.017   0.299
 2635TIP3    H2 7870   2.548   3.056   0.223
 2636TIP3   OH2 7871   6.497   1.049   3.433
 2636TIP3    H1 7872   6.562   0.986   3.465
 2636TIP3    H2 7873   6.544   1.132   3.431
 2637TIP3   OH2 7874   3.838   0.147   3.062
 2637TIP3    H1 7875   3.755   0.162   3.018
 2637TIP3    H2 7876   3.829   0.061   3.102
 2638TIP3   OH2 7877   3.774   5.021   0.442
 2638TIP3    H1 7878   3.793   5.103   0.397
 2638TIP3    H2 7879   3.858   4.976   0.447
 2639TIP3   OH2 7880   3.100   2.241   3.485
 2639TIP3    H1 7881   3.194   2.249   3.502
 2639TIP3    H2 7882   3.095   2.219   3.392
 2640TIP3   OH2 7883   0.840   3.317   0.355
 2640TIP3    H1 7884   0.859   3.293   0.264
 2640TIP3    H2 7885   0.837   3.412   0.355
 2641TIP3   OH2 7886   1.990   0.854   5.635
 2641TIP3    H1 7887   2.074   0.853   5.589
 2641TIP3    H2 7888   1.953   0.767   5.623
 2642TIP3   OH2 7889   1.065   2.939   2.464
 2642TIP3    H1 7890   1.082   2.877   2.534
 2642TIP3    H2 7891   1.131   3.007   2.476
 2643TIP3   OH2 7892   4.088   0.152   2.751
 2643TIP3    H1 7893   4.056   0.228   2.704
 2643TIP3    H2 7894   4.089   0.082   2.686
 2644TIP3   OH2 7895   7.021   5.432   0.721
 2644TIP3    H1 7896   7.002   5.386   0.639
 2644TIP3    H2 7897   6.947   5.492   0.732
 2645TIP3   OH2 7898   5.038   2.687   2.134
 2645TIP3    H1 7899   4.943   2.688   2.145
 2645TIP3    H2 7900   5.061   2.778   2.115
 2646TIP3   OH2 7901   3.903   1.547   1.054
 2646TIP3    H1 7902   3.819   1.568   1.093
 2646TIP3    H2 7903   3.963   1.541   1.128
 2647TIP3   OH2 7904   3.901   3.446   0.353
 2647TIP3    H1 7905   3.971   3.385   0.328
 2647TIP3    H2 7906   3.836   3.391   0.396
 2648TIP3   OH2 7907   6.067   4.995   1.461
 2648TIP3    H1 7908   6.035   5.071   1.412
 2648TIP3    H2 7909   6.003   4.927   1.444
 2649TIP3   OH2 7910   4.584   6.546   2.419
 2649TIP3    H1 7911   4.616   6.557   2.509
 2649TIP3    H2 7912   4.575   6.635   2.386
 2650TIP3   OH2 7913   1.298   0.600   5.002
 2650TIP3    H1 7914   1.392   0.597   4.987
 2650TIP3    H2 7915   1.286   0.561   5.088
 2651TIP3   OH2 7916   0.690   0.636   3.804
 2651TIP3    H1 7917   0.659   0.725   3.785
 2651TIP3    H2 7918   0.617   0.580   3.778
 2652TIP3   OH2 7919   5.682   4.728   3.250
 2652TIP3    H1 7920   5.634   4.699   3.328
 2652TIP3    H2 7921   5.740   4.797   3.282
 2653TIP3   OH2 7922   6.943   6.788   0.235
 2653TIP3    H1 7923   6.956   6.742   0.319
 2653TIP3    H2 7924   6.889   6.729   0.183
 2654TIP3   OH2 7925   2.458   6.518   0.694
 2654TIP3    H1 7926   2.368   6.522   0.663
 2654TIP3    H2 7927   2.473   6.604   0.735
 2655TIP3   OH2 7928   5.871   2.407   2.014
 2655TIP3    H1 7929   5.950   2.359   2.039
 2655TIP3    H2 7930   5.865   2.478   2.079
 2656TIP3   OH2 7931   1.836   4.659   5.346
 2656TIP3    H1 7932   1.887   4.578   5.355
 2656TIP3    H2 7933   1.867   4.715   5.416
 2657TIP3   OH2 7934   0.900   3.785   0.360
 2657TIP3    H1 7935   0.881   3.878   0.366
 2657TIP3    H2 7936   0.834   3.751   0.300
 2658TIP3   OH2 7937   2.203   0.719   5.532
 2658TIP3    H1 7938   2.220   0.733   5.439
 2658TIP3    H2 7939   2.283   0.679   5.565
 2659TIP3   OH2 7940   4.601   6.275   3.311
 2659TIP3    H1 7941   4.682   6.303   3.354
 2659TIP3    H2 7942   4.616   6.183   3.289
 2660TIP3   OH2 7943   1.665   2.083   0.505
 2660TIP3    H1 7944   1.643   2.057   0.594
 2660TIP3    H2 7945   1.760   2.087   0.503
 2661TIP3   OH2 7946   6.752  -0.067   4.876
 2661TIP3    H1 7947   6.797  -0.014   4.942
 2661TIP3    H2 7948   6.812  -0.066   4.801
 2662TIP3   OH2 7949   6.815   3.105   4.437
 2662TIP3    H1 7950   6.832   3.153   4.517
 2662TIP3    H2 7951   6.736   3.054   4.454
 2663TIP3   OH2 7952   5.222   4.011   2.985
 2663TIP3    H1 7953   5.269   4.074   2.931
 2663TIP3    H2 7954   5.156   4.064   3.031
 2664TIP3   OH2 7955   6.784   5.420   5.887
 2664TIP3    H1 7956   6.748   5.380   5.967
 2664TIP3    H2 7957   6.734   5.380   5.816
 2665TIP3   OH2 7958   6.622   2.467   1.274
 2665TIP3    H1 7959   6.587   2.500   1.192
 2665TIP3    H2 7960   6.583   2.379   1.283
 2666TIP3   OH2 7961   2.234   5.240   0.944
 2666TIP3    H1 7962   2.301   5.301   0.973
 2666TIP3    H2 7963   2.162   5.297   0.913
 2667TIP3   OH2 7964   3.056   6.262   4.113
 2667TIP3    H1 7965   3.066   6.333   4.049
 2667TIP3    H2 7966   3.131   6.204   4.095
 2668TIP3   OH2 7967   1.031   2.043   4.687
 2668TIP3    H1 7968   1.068   2.060   4.773
 2668TIP3    H2 7969   0.977   1.964   4.699
 2669TIP3   OH2 7970   2.019   4.774   0.994
 2669TIP3    H1 7971   2.019   4.810   1.083
 2669TIP3    H2 7972   1.926   4.760   0.974
 2670TIP3   OH2 7973   2.943   1.150   2.596
 2670TIP3    H1 7974   3.028   1.109   2.606
 2670TIP3    H2 7975   2.963   1.240   2.569
 2671TIP3   OH2 7976   5.261   0.569   5.256
 2671TIP3    H1 7977   5.188   0.630   5.250
 2671TIP3    H2 7978   5.242   0.502   5.190
 2672TIP3   OH2 7979   1.520   4.897   5.203
 2672TIP3    H1 7980   1.536   4.802   5.201
 2672TIP3    H2 7981   1.502   4.920   5.111
 2673TIP3   OH2 7982   3.313   2.118   1.370
 2673TIP3    H1 7983   3.225   2.140   1.340
 2673TIP3    H2 7984   3.322   2.024   1.352
 2674TIP3   OH2 7985   3.771   1.737   3.702
 2674TIP3    H1 7986   3.749   1.815   3.754
 2674TIP3    H2 7987   3.707   1.672   3.730
 2675TIP3   OH2 7988   5.886   4.214   5.784
 2675TIP3    H1 7989   5.886   4.147   5.715
 2675TIP3    H2 7990   5.825   4.179   5.850
 2676TIP3   OH2 7991   1.918   0.501   2.285
 2676TIP3    H1 7992   1.860   0.457   2.224
 2676TIP3    H2 7993   1.866   0.511   2.365
 2677TIP3   OH2 7994   5.577   4.634   1.281
 2677TIP3    H1 7995   5.586   4.553   1.231
 2677TIP3    H2 7996   5.651   4.688   1.254
 2678TIP3   OH2 7997   0.999   5.950   3.516
 2678TIP3    H1 7998   0.976   5.858   3.503
 2678TIP3    H2 7999   0.940   5.999   3.458
 2679TIP3   OH2 8000   2.882   6.540   4.890
 2679TIP3    H1 8001   2.935   6.564   4.966
 2679TIP3    H2 8002   2.921   6.587   4.817
 2680TIP3   OH2 8003   1.611   0.448   5.411
 2680TIP3    H1 8004   1.589   0.368   5.459
 2680TIP3    H2 8005   1.644   0.508   5.478
 2681TIP3   OH2 8006   3.288   6.108   1.842
 2681TIP3    H1 8007   3.379   6.082   1.854
 2681TIP3    H2 8008   3.282   6.131   1.749
 2682TIP3   OH2 8009   0.569   4.694   3.394
 2682TIP3    H1 8010   0.579   4.599   3.392
 2682TIP3    H2 8011   0.659   4.728   3.398
 2683TIP3   OH2 8012   0.700   0.378   1.955
 2683TIP3    H1 8013   0.614   0.382   1.995
 2683TIP3    H2 8014   0.736   0.293   1.981
 2684TIP3   OH2 8015   0.918   4.266   0.134
 2684TIP3    H1 8016   0.989   4.254   0.196
 2684TIP3    H2 8017   0.909   4.181   0.090
 2685TIP3   OH2 8018   4.308   5.352   3.976
 2685TIP3    H1 8019   4.277   5.321   3.891
 2685TIP3    H2 8020   4.381   5.410   3.954
 2686TIP3   OH2 8021   0.985   2.024   0.670
 2686TIP3    H1 8022   0.936   2.071   0.738
 2686TIP3    H2 8023   0.951   2.059   0.588
 2687TIP3   OH2 8024   1.685   6.239   3.405
 2687TIP3    H1 8025   1.613   6.207   3.351
 2687TIP3    H2 8026   1.651   6.319   3.445
 2688TIP3   OH2 8027   0.424   2.952   3.270
 2688TIP3    H1 8028   0.385   3.036   3.243
 2688TIP3    H2 8029   0.510   2.976   3.304
 2689TIP3   OH2 8030   4.703   1.164   4.707
 2689TIP3    H1 8031   4.682   1.254   4.680
 2689TIP3    H2 8032   4.622   1.115   4.690
 2690TIP3   OH2 8033   3.084   5.316   4.554
 2690TIP3    H1 8034   3.113   5.279   4.471
 2690TIP3    H2 8035   3.163   5.324   4.607
 2691TIP3   OH2 8036   4.582   1.752   4.571
 2691TIP3    H1 8037   4.670   1.787   4.556
 2691TIP3    H2 8038   4.524   1.828   4.563
 2692TIP3   OH2 8039   2.113   2.924   0.334
 2692TIP3    H1 8040   2.056   2.937   0.410
 2692TIP3    H2 8041   2.056   2.941   0.259
 2693TIP3   OH2 8042   3.104   2.261   5.209
 2693TIP3    H1 8043   3.111   2.351   5.177
 2693TIP3    H2 8044   3.160   2.259   5.287
 2694TIP3   OH2 8045   6.376   4.302   5.404
 2694TIP3    H1 8046   6.365   4.393   5.376
 2694TIP3    H2 8047   6.466   4.297   5.435
 2695TIP3   OH2 8048   2.011   0.019   4.147
 2695TIP3    H1 8049   2.104   0.027   4.125
 2695TIP3    H2 8050   1.986   0.105   4.178
 2696TIP3   OH2 8051   3.585   1.492   0.376
 2696TIP3    H1 8052   3.547   1.529   0.455
 2696TIP3    H2 8053   3.636   1.417   0.406
 2697TIP3   OH2 8054   2.258   5.127   2.731
 2697TIP3    H1 8055   2.260   5.055   2.668
 2697TIP3    H2 8056   2.165   5.146   2.742
 2698TIP3   OH2 8057   1.914   2.432   5.533
 2698TIP3    H1 8058   1.948   2.511   5.574
 2698TIP3    H2 8059   1.963   2.360   5.573
 2699TIP3   OH2 8060   6.256   4.521   5.652
 2699TIP3    H1 8061   6.218   4.504   5.738
 2699TIP3    H2 8062   6.256   4.436   5.608
 2700TIP3   OH2 8063   2.757   3.684   5.026
 2700TIP3    H1 8064   2.802   3.657   5.106
 2700TIP3    H2 8065   2.670   3.713   5.056
 2701TIP3   OH2 8066   2.947   3.098   3.934
 2701TIP3    H1 8067   2.890   3.125   4.006
 2701TIP3    H2 8068   3.021   3.159   3.937
 2702TIP3   OH2 8069   0.370   3.080   1.485
 2702TIP3    H1 8070   0.389   3.042   1.571
 2702TIP3    H2 8071   0.449   3.130   1.463
 2703TIP3   OH2 8072   3.605   1.338   3.521
 2703TIP3    H1 8073   3.656   1.415   3.497
 2703TIP3    H2 8074   3.659   1.264   3.494
 2704TIP3   OH2 8075   6.841   3.171   0.791
 2704TIP3    H1 8076   6.877   3.259   0.801
 2704TIP3    H2 8077   6.748   3.184   0.774
 2705TIP3   OH2 8078   6.751   3.418   4.365
 2705TIP3    H1 8079   6.695   3.439   4.291
 2705TIP3    H2 8080   6.691   3.409   4.439
 2706TIP3   OH2 8081   0.444   2.157   4.175
 2706TIP3    H1 8082   0.356   2.193   4.191
 2706TIP3    H2 8083   0.456   2.093   4.244
 2707TIP3   OH2 8084   4.953   4.252   4.803
 2707TIP3    H1 8085   4.932   4.263   4.896
 2707TIP3    H2 8086   5.039   4.292   4.793
 2708TIP3   OH2 8087   0.296   2.170   2.099
 2708TIP3    H1 8088   0.260   2.090   2.060
 2708TIP3    H2 8089   0.322   2.144   2.188
 2709TIP3   OH2 8090   3.332   5.607   4.079
 2709TIP3    H1 8091   3.414   5.570   4.049
 2709TIP3    H2 8092   3.343   5.616   4.174
 2710TIP3   OH2 8093   0.952   1.202   3.663
 2710TIP3    H1 8094   0.957   1.283   3.714
 2710TIP3    H2 8095   0.863   1.201   3.628
 2711TIP3   OH2 8096   1.906   6.751   3.056
 2711TIP3    H1 8097   1.963   6.678   3.078
 2711TIP3    H2 8098   1.951   6.828   3.090
 2712TIP3   OH2 8099   4.980   5.792   4.180
 2712TIP3    H1 8100   4.931   5.710   4.173
 2712TIP3    H2 8101   5.002   5.799   4.273
 2713TIP3   OH2 8102   0.835   5.515   2.919
 2713TIP3    H1 8103   0.888   5.584   2.956
 2713TIP3    H2 8104   0.755   5.559   2.890
 2714TIP3   OH2 8105   0.071   4.250   3.831
 2714TIP3    H1 8106   0.072   4.224   3.923
 2714TIP3    H2 8107  -0.014   4.292   3.818
 2715TIP3   OH2 8108   4.890   3.768   1.756
 2715TIP3    H1 8109   4.882   3.673   1.742
 2715TIP3    H2 8110   4.915   3.803   1.671
 2716TIP3   OH2 8111   2.561   3.042   1.451
 2716TIP3    H1 8112   2.543   3.135   1.467
 2716TIP3    H2 8113   2.644   3.042   1.404
 2717TIP3   OH2 8114   4.822   4.538   3.217
 2717TIP3    H1 8115   4.812   4.632   3.203
 2717TIP3    H2 8116   4.831   4.528   3.312
 2718TIP3   OH2 8117   4.434   6.029   3.722
 2718TIP3    H1 8118   4.345   6.063   3.726
 2718TIP3    H2 8119   4.447   5.983   3.805
 2719TIP3   OH2 8120   5.355   0.483   3.648
 2719TIP3    H1 8121   5.415   0.552   3.620
 2719TIP3    H2 8122   5.353   0.422   3.574
 2720TIP3   OH2 8123   0.221   1.688   0.066
 2720TIP3    H1 8124   0.259   1.669   0.152
 2720TIP3    H2 8125   0.127   1.672   0.078
 2721TIP3   OH2 8126   2.385   0.695   1.549
 2721TIP3    H1 8127   2.429   0.777   1.571
 2721TIP3    H2 8128   2.395   0.687   1.454
 2722TIP3   OH2 8129   2.454   3.500   2.208
 2722TIP3    H1 8130   2.372   3.462   2.238
 2722TIP3    H2 8131   2.430   3.585   2.172
 2723TIP3   OH2 8132   1.677   0.089   1.615
 2723TIP3    H1 8133   1.759   0.109   1.569
 2723TIP3    H2 8134   1.701   0.022   1.678
 2724TIP3   OH2 8135   4.780   5.133   2.023
 2724TIP3    H1 8136   4.840   5.170   2.088
 2724TIP3    H2 8137   4.838   5.089   1.960
 2725TIP3   OH2 8138   6.649   0.575   3.591
 2725TIP3    H1 8139   6.734   0.536   3.570
 2725TIP3    H2 8140   6.585   0.511   3.561
 2726TIP3   OH2 8141   3.817   2.522   2.451
 2726TIP3    H1 8142   3.852   2.488   2.368
 2726TIP3    H2 8143   3.796   2.613   2.432
 2727TIP3   OH2 8144   6.947   1.277  -0.040
 2727TIP3    H1 8145   6.927   1.368  -0.061
 2727TIP3    H2 8146   6.898   1.258   0.040
 2728TIP3   OH2 8147   3.776   3.917   3.076
 2728TIP3    H1 8148   3.840   3.867   3.024
 2728TIP3    H2 8149   3.827   3.989   3.113
 2729TIP3   OH2 8150   5.050   1.928   2.401
 2729TIP3    H1 8151   4.980   1.869   2.428
 2729TIP3    H2 8152   5.056   1.992   2.471
 2730TIP3   OH2 8153   2.295   0.258   2.028
 2730TIP3    H1 8154   2.301   0.186   2.091
 2730TIP3    H2 8155   2.204   0.254   1.997
 2731TIP3   OH2 8156   6.484   1.679   3.297
 2731TIP3    H1 8157   6.447   1.733   3.366
 2731TIP3    H2 8158   6.464   1.727   3.216
 2732TIP3   OH2 8159   1.663   5.350   2.046
 2732TIP3    H1 8160   1.568   5.338   2.049
 2732TIP3    H2 8161   1.676   5.431   1.997
 2733TIP3   OH2 8162   5.362   6.437   1.930
 2733TIP3    H1 8163   5.427   6.461   1.996
 2733TIP3    H2 8164   5.349   6.343   1.942
 2734TIP3   OH2 8165   0.808   5.075   3.232
 2734TIP3    H1 8166   0.857   5.114   3.305
 2734TIP3    H2 8167   0.821   5.136   3.160
 2735TIP3   OH2 8168   6.353   1.636   4.565
 2735TIP3    H1 8169   6.299   1.684   4.502
 2735TIP3    H2 8170   6.430   1.691   4.577
 2736TIP3   OH2 8171   3.777   3.394   2.512
 2736TIP3    H1 8172   3.871   3.393   2.532
 2736TIP3    H2 8173   3.771   3.432   2.425
 2737TIP3   OH2 8174   3.301   1.328   0.385
 2737TIP3    H1 8175   3.332   1.401   0.331
 2737TIP3    H2 8176   3.206   1.336   0.384
 2738TIP3   OH2 8177   2.130   3.123   5.652
 2738TIP3    H1 8178   2.073   3.192   5.618
 2738TIP3    H2 8179   2.136   3.059   5.581
 2739TIP3   OH2 8180   5.375   1.668   2.962
 2739TIP3    H1 8181   5.349   1.688   3.052
 2739TIP3    H2 8182   5.469   1.653   2.967
 2740TIP3   OH2 8183   1.147   3.597   3.746
 2740TIP3    H1 8184   1.117   3.649   3.672
 2740TIP3    H2 8185   1.070   3.591   3.803
 2741TIP3   OH2 8186   6.560   6.326   2.295
 2741TIP3    H1 8187   6.540   6.390   2.227
 2741TIP3    H2 8188   6.545   6.373   2.377
 2742TIP3   OH2 8189   4.545   0.043   2.265
 2742TIP3    H1 8190   4.466  -0.002   2.295
 2742TIP3    H2 8191   4.566   0.104   2.335
 2743TIP3   OH2 8192   1.945   4.909   1.934
 2743TIP3    H1 8193   1.882   4.978   1.912
 2743TIP3    H2 8194   1.915   4.833   1.886
 2744TIP3   OH2 8195   1.431   6.277   2.894
 2744TIP3    H1 8196   1.408   6.370   2.894
 2744TIP3    H2 8197   1.436   6.253   2.987
 2745TIP3   OH2 8198   2.163   5.509   5.009
 2745TIP3    H1 8199   2.232   5.464   4.960
 2745TIP3    H2 8200   2.097   5.442   5.024
 2746TIP3   OH2 8201   1.836   0.778   4.294
 2746TIP3    H1 8202   1.875   0.766   4.380
 2746TIP3    H2 8203   1.772   0.848   4.306
 2747TIP3   OH2 8204   4.125   4.531   1.786
 2747TIP3    H1 8205   4.151   4.463   1.723
 2747TIP3    H2 8206   4.115   4.484   1.869
 2748TIP3   OH2 8207   0.704   5.199   1.884
 2748TIP3    H1 8208   0.789   5.230   1.915
 2748TIP3    H2 8209   0.643   5.269   1.907
 2749TIP3   OH2 8210   0.137   2.279   0.491
 2749TIP3    H1 8211   0.136   2.305   0.399
 2749TIP3    H2 8212   0.168   2.357   0.538
 2750TIP3   OH2 8213   5.582   4.962   4.132
 2750TIP3    H1 8214   5.649   5.029   4.149
 2750TIP3    H2 8215   5.631   4.886   4.100
 2751TIP3   OH2 8216   6.317   6.507   1.890
 2751TIP3    H1 8217   6.270   6.424   1.882
 2751TIP3    H2 8218   6.370   6.512   1.811
 2752TIP3   OH2 8219   7.101   4.334   4.858
 2752TIP3    H1 8220   7.185   4.380   4.868
 2752TIP3    H2 8221   7.083   4.337   4.764
 2753TIP3   OH2 8222   0.056  -0.004   2.518
 2753TIP3    H1 8223   0.046   0.061   2.448
 2753TIP3    H2 8224  -0.034  -0.022   2.547
 2754TIP3   OH2 8225   1.327   6.375   1.189
 2754TIP3    H1 8226   1.392   6.318   1.230
 2754TIP3    H2 8227   1.326   6.454   1.242
 2755TIP3   OH2 8228   4.361   4.977   3.582
 2755TIP3    H1 8229   4.313   4.995   3.662
 2755TIP3    H2 8230   4.446   4.945   3.612
 2756TIP3   OH2 8231   5.830   4.898   4.444
 2756TIP3    H1 8232   5.862   4.947   4.520
 2756TIP3    H2 8233   5.735   4.894   4.456
 2757TIP3   OH2 8234   1.188   0.532   3.320
 2757TIP3    H1 8235   1.124   0.467   3.348
 2757TIP3    H2 8236   1.189   0.525   3.225
 2758TIP3   OH2 8237   6.020   2.039   3.662
 2758TIP3    H1 8238   6.029   2.122   3.709
 2758TIP3    H2 8239   5.991   1.976   3.729
 2759TIP3   OH2 8240   2.421   1.350   0.729
 2759TIP3    H1 8241   2.407   1.307   0.645
 2759TIP3    H2 8242   2.411   1.444   0.710
 2760TIP3   OH2 8243   3.718   4.119   5.692
 2760TIP3    H1 8244   3.705   4.212   5.708
 2760TIP3    H2 8245   3.747   4.083   5.776
 2761TIP3   OH2 8246   1.787   6.202   3.104
 2761TIP3    H1 8247   1.752   6.267   3.166
 2761TIP3    H2 8248   1.725   6.130   3.107
 2762TIP3   OH2 8249   3.216   6.473   4.812
 2762TIP3    H1 8250   3.269   6.513   4.882
 2762TIP3    H2 8251   3.153   6.541   4.788
 2763TIP3   OH2 8252   3.187   2.610   2.978
 2763TIP3    H1 8253   3.129   2.682   3.002
 2763TIP3    H2 8254   3.217   2.631   2.890
 2764TIP3   OH2 8255   5.837   4.179   2.713
 2764TIP3    H1 8256   5.826   4.176   2.618
 2764TIP3    H2 8257   5.886   4.260   2.728
 2765TIP3   OH2 8258   2.536   2.528   1.990
 2765TIP3    H1 8259   2.446   2.529   1.958
 2765TIP3    H2 8260   2.586   2.574   1.923
 2766TIP3   OH2 8261   5.032   2.819   4.004
 2766TIP3    H1 8262   5.071   2.843   4.088
 2766TIP3    H2 8263   5.105   2.785   3.952
 2767TIP3   OH2 8264   2.170   4.904   3.133
 2767TIP3    H1 8265   2.253   4.858   3.145
 2767TIP3    H2 8266   2.162   4.916   3.038
 2768TIP3   OH2 8267   2.299   1.418   1.788
 2768TIP3    H1 8268   2.216   1.434   1.832
 2768TIP3    H2 8269   2.298   1.476   1.712
 2769TIP3   OH2 8270   0.752   6.251   2.257
 2769TIP3    H1 8271   0.788   6.294   2.180
 2769TIP3    H2 8272   0.803   6.170   2.266
 2770TIP3   OH2 8273   6.297   6.341   2.912
 2770TIP3    H1 8274   6.303   6.246   2.924
 2770TIP3    H2 8275   6.363   6.377   2.973
 2771TIP3   OH2 8276   5.679   0.568   0.012
 2771TIP3    H1 8277   5.608   0.629   0.031
 2771TIP3    H2 8278   5.673   0.502   0.081
 2772TIP3   OH2 8279   6.102   6.891   1.632
 2772TIP3    H1 8280   6.152   6.876   1.712
 2772TIP3    H2 8281   6.096   6.805   1.591
 2773TIP3   OH2 8282   2.687   5.173   4.654
 2773TIP3    H1 8283   2.681   5.125   4.737
 2773TIP3    H2 8284   2.781   5.171   4.632
 2774TIP3   OH2 8285   0.468   3.951   4.179
 2774TIP3    H1 8286   0.500   3.900   4.254
 2774TIP3    H2 8287   0.434   4.032   4.218
 2775TIP3   OH2 8288   3.499   4.553   0.452
 2775TIP3    H1 8289   3.593   4.554   0.433
 2775TIP3    H2 8290   3.493   4.559   0.547
 2776TIP3   OH2 8291   4.382   1.203   5.745
 2776TIP3    H1 8292   4.339   1.207   5.660
 2776TIP3    H2 8293   4.458   1.261   5.737
 2777TIP3   OH2 8294   6.486   3.014   1.970
 2777TIP3    H1 8295   6.467   3.032   2.062
 2777TIP3    H2 8296   6.510   2.921   1.968
 2778TIP3   OH2 8297   5.863   5.302   2.267
 2778TIP3    H1 8298   5.768   5.292   2.271
 2778TIP3    H2 8299   5.897   5.213   2.278
 2779TIP3   OH2 8300   0.495   0.826   4.783
 2779TIP3    H1 8301   0.561   0.891   4.757
 2779TIP3    H2 8302   0.412   0.869   4.766
 2780TIP3   OH2 8303   0.929   0.324   1.037
 2780TIP3    H1 8304   0.961   0.295   1.122
 2780TIP3    H2 8305   0.931   0.419   1.041
 2781TIP3   OH2 8306   6.348   3.571   4.248
 2781TIP3    H1 8307   6.302   3.487   4.240
 2781TIP3    H2 8308   6.413   3.570   4.179
 2782TIP3   OH2 8309   0.328   5.574   3.142
 2782TIP3    H1 8310   0.390   5.624   3.089
 2782TIP3    H2 8311   0.360   5.484   3.137
 2783TIP3   OH2 8312   2.453   4.785   1.071
 2783TIP3    H1 8313   2.490   4.744   1.149
 2783TIP3    H2 8314   2.381   4.839   1.104
 2784TIP3   OH2 8315   3.657   3.759   0.316
 2784TIP3    H1 8316   3.651   3.850   0.287
 2784TIP3    H2 8317   3.680   3.765   0.409
 2785TIP3   OH2 8318   1.497   2.832   2.429
 2785TIP3    H1 8319   1.579   2.848   2.383
 2785TIP3    H2 8320   1.447   2.776   2.370
 2786TIP3   OH2 8321   0.500   3.770   1.051
 2786TIP3    H1 8322   0.427   3.821   1.085
 2786TIP3    H2 8323   0.469   3.736   0.968
 2787TIP3   OH2 8324   4.572   0.183   0.271
 2787TIP3    H1 8325   4.567   0.278   0.261
 2787TIP3    H2 8326   4.628   0.170   0.347
 2788TIP3   OH2 8327   0.352   3.475   0.995
 2788TIP3    H1 8328   0.436   3.503   1.032
 2788TIP3    H2 8329   0.331   3.393   1.040
 2789TIP3   OH2 8330   1.746   5.076   3.969
 2789TIP3    H1 8331   1.738   4.984   3.945
 2789TIP3    H2 8332   1.833   5.083   4.010
 2790TIP3   OH2 8333   5.345   1.721   3.206
 2790TIP3    H1 8334   5.421   1.688   3.253
 2790TIP3    H2 8335   5.354   1.817   3.211
 2791TIP3   OH2 8336   4.060   6.256   5.841
 2791TIP3    H1 8337   4.004   6.328   5.813
 2791TIP3    H2 8338   4.084   6.211   5.760
 2792TIP3   OH2 8339   6.262   4.896   5.760
 2792TIP3    H1 8340   6.198   4.856   5.819
 2792TIP3    H2 8341   6.332   4.831   5.754
 2793TIP3   OH2 8342   5.494   2.134   4.746
 2793TIP3    H1 8343   5.531   2.183   4.820
 2793TIP3    H2 8344   5.517   2.185   4.669
 2794TIP3   OH2 8345   4.973   6.469   3.101
 2794TIP3    H1 8346   5.023   6.541   3.062
 2794TIP3    H2 8347   5.019   6.450   3.183
 2795TIP3   OH2 8348   5.598   1.527   1.895
 2795TIP3    H1 8349   5.688   1.546   1.922
 2795TIP3    H2 8350   5.576   1.446   1.940
 2796TIP3   OH2 8351   2.987   5.433   2.651
 2796TIP3    H1 8352   3.075   5.422   2.613
 2796TIP3    H2 8353   2.986   5.373   2.726
 2797TIP3   OH2 8354   6.808   5.680   3.830
 2797TIP3    H1 8355   6.719   5.678   3.867
 2797TIP3    H2 8356   6.796   5.715   3.741
 2798TIP3   OH2 8357   0.734   4.083   2.948
 2798TIP3    H1 8358   0.800   4.141   2.912
 2798TIP3    H2 8359   0.685   4.137   3.010
 2799TIP3   OH2 8360   7.028   3.574   3.961
 2799TIP3    H1 8361   6.948   3.586   4.012
 2799TIP3    H2 8362   7.089   3.639   3.996
 2800TIP3   OH2 8363   3.813   1.807   5.601
 2800TIP3    H1 8364   3.890   1.861   5.583
 2800TIP3    H2 8365   3.828   1.773   5.689
 2801TIP3   OH2 8366   1.284   4.501   5.179
 2801TIP3    H1 8367   1.222   4.455   5.122
 2801TIP3    H2 8368   1.280   4.454   5.261
 2802TIP3   OH2 8369   0.646   4.377   4.921
 2802TIP3    H1 8370   0.691   4.328   4.853
 2802TIP3    H2 8371   0.701   4.366   4.999
 2803TIP3   OH2 8372   3.426   3.035   0.463
 2803TIP3    H1 8373   3.375   2.954   0.475
 2803TIP3    H2 8374   3.361   3.105   0.474
 2804TIP3   OH2 8375   3.620   2.882   3.102
 2804TIP3    H1 8376   3.572   2.960   3.130
 2804TIP3    H2 8377   3.708   2.914   3.080
 2805TIP3   OH2 8378   6.059   3.062   4.978
 2805TIP3    H1 8379   6.051   2.973   4.944
 2805TIP3    H2 8380   6.122   3.105   4.921
 2806TIP3   OH2 8381   5.660   5.724   0.236
 2806TIP3    H1 8382   5.672   5.817   0.219
 2806TIP3    H2 8383   5.644   5.719   0.330
 2807TIP3   OH2 8384   4.128   1.854   1.574
 2807TIP3    H1 8385   4.048   1.851   1.627
 2807TIP3    H2 8386   4.173   1.772   1.594
 2808TIP3   OH2 8387   4.148   6.064   0.554
 2808TIP3    H1 8388   4.172   6.054   0.646
 2808TIP3    H2 8389   4.081   5.997   0.540
 2809TIP3   OH2 8390   0.081   3.366   4.298
 2809TIP3    H1 8391   0.137   3.367   4.375
 2809TIP3    H2 8392   0.123   3.428   4.238
 2810TIP3   OH2 8393   4.158   2.376   2.674
 2810TIP3    H1 8394   4.110   2.455   2.651
 2810TIP3    H2 8395   4.193   2.394   2.761
 2811TIP3   OH2 8396   7.200   4.819   1.660
 2811TIP3    H1 8397   7.272   4.860   1.613
 2811TIP3    H2 8398   7.132   4.887   1.663
 2812TIP3   OH2 8399   3.106   1.991   4.380
 2812TIP3    H1 8400   3.036   1.941   4.422
 2812TIP3    H2 8401   3.098   1.970   4.287
 2813TIP3   OH2 8402   1.460   2.621   5.223
 2813TIP3    H1 8403   1.501   2.569   5.154
 2813TIP3    H2 8404   1.529   2.682   5.250
 2814TIP3   OH2 8405   3.245   0.297   3.970
 2814TIP3    H1 8406   3.254   0.215   4.018
 2814TIP3    H2 8407   3.181   0.278   3.902
 2815TIP3   OH2 8408   1.581   2.427   4.926
 2815TIP3    H1 8409   1.499   2.381   4.909
 2815TIP3    H2 8410   1.614   2.388   5.007
 2816TIP3   OH2 8411   1.334   2.228   2.423
 2816TIP3    H1 8412   1.391   2.293   2.464
 2816TIP3    H2 8413   1.394   2.160   2.392
 2817TIP3   OH2 8414   0.803   1.858   2.236
 2817TIP3    H1 8415   0.725   1.859   2.182
 2817TIP3    H2 8416   0.805   1.771   2.275
 2818TIP3   OH2 8417   6.650   5.365   5.666
 2818TIP3    H1 8418   6.626   5.437   5.607
 2818TIP3    H2 8419   6.571   5.311   5.670
 2819TIP3   OH2 8420   2.797   5.752   2.116
 2819TIP3    H1 8421   2.809   5.693   2.191
 2819TIP3    H2 8422   2.812   5.697   2.040
 2820TIP3   OH2 8423   1.402   0.564   2.353
 2820TIP3    H1 8424   1.348   0.589   2.278
 2820TIP3    H2 8425   1.340   0.545   2.423
 2821TIP3   OH2 8426   3.945   1.425   2.473
 2821TIP3    H1 8427   3.871   1.411   2.532
 2821TIP3    H2 8428   4.021   1.397   2.524
 2822TIP3   OH2 8429   3.729   5.787   3.328
 2822TIP3    H1 8430   3.681   5.774   3.246
 2822TIP3    H2 8431   3.759   5.700   3.353
 2823TIP3   OH2 8432   5.373   4.573   0.425
 2823TIP3    H1 8433   5.435   4.552   0.495
 2823TIP3    H2 8434   5.388   4.666   0.408
 2824TIP3   OH2 8435   3.387   1.062   5.604
 2824TIP3    H1 8436   3.421   1.151   5.615
 2824TIP3    H2 8437   3.429   1.030   5.525
 2825TIP3   OH2 8438   0.084   5.296   0.629
 2825TIP3    H1 8439   0.139   5.239   0.574
 2825TIP3    H2 8440   0.053   5.238   0.699
 2826TIP3   OH2 8441   5.809   2.512   3.532
 2826TIP3    H1 8442   5.834   2.568   3.458
 2826TIP3    H2 8443   5.837   2.560   3.609
 2827TIP3   OH2 8444   4.954   1.160   2.298
 2827TIP3    H1 8445   4.991   1.217   2.230
 2827TIP3    H2 8446   4.965   1.072   2.264
 2828TIP3   OH2 8447   6.146   3.497   5.754
 2828TIP3    H1 8448   6.067   3.446   5.771
 2828TIP3    H2 8449   6.214   3.432   5.737
 2829TIP3   OH2 8450   3.478   1.271   0.088
 2829TIP3    H1 8451   3.540   1.341   0.070
 2829TIP3    H2 8452   3.501   1.239   0.175
 2830TIP3   OH2 8453   7.207   3.910   0.724
 2830TIP3    H1 8454   7.226   3.982   0.663
 2830TIP3    H2 8455   7.282   3.851   0.715
 2831TIP3   OH2 8456   5.663   1.201   3.290
 2831TIP3    H1 8457   5.712   1.160   3.219
 2831TIP3    H2 8458   5.676   1.295   3.277
 2832TIP3   OH2 8459   2.518   2.808   1.738
 2832TIP3    H1 8460   2.595   2.794   1.683
 2832TIP3    H2 8461   2.502   2.902   1.734
 2833TIP3   OH2 8462   5.022   2.285   1.323
 2833TIP3    H1 8463   4.998   2.377   1.330
 2833TIP3    H2 8464   4.941   2.237   1.341
 2834TIP3   OH2 8465   1.590   4.362   2.914
 2834TIP3    H1 8466   1.631   4.444   2.888
 2834TIP3    H2 8467   1.528   4.387   2.983
 2835TIP3   OH2 8468   6.581   5.816   2.730
 2835TIP3    H1 8469   6.612   5.831   2.641
 2835TIP3    H2 8470   6.505   5.874   2.739
 2836TIP3   OH2 8471   3.868   3.149   0.217
 2836TIP3    H1 8472   3.829   3.070   0.178
 2836TIP3    H2 8473   3.797   3.189   0.266
 2837TIP3   OH2 8474   5.847   1.932   5.442
 2837TIP3    H1 8475   5.930   1.909   5.400
 2837TIP3    H2 8476   5.817   2.010   5.395
 2838TIP3   OH2 8477   4.140   1.925   3.383
 2838TIP3    H1 8478   4.177   1.844   3.349
 2838TIP3    H2 8479   4.054   1.901   3.417
 2839TIP3   OH2 8480   4.498   2.179   3.687
 2839TIP3    H1 8481   4.467   2.229   3.763
 2839TIP3    H2 8482   4.423   2.175   3.628
 2840TIP3   OH2 8483   3.409   4.617   2.190
 2840TIP3    H1 8484   3.455   4.538   2.219
 2840TIP3    H2 8485   3.474   4.666   2.140
 2841TIP3   OH2 8486   7.031   2.926   3.477
 2841TIP3    H1 8487   7.052   2.867   3.405
 2841TIP3    H2 8488   7.050   2.876   3.556
 2842TIP3   OH2 8489   0.719   1.876   5.051
 2842TIP3    H1 8490   0.731   1.783   5.071
 2842TIP3    H2 8491   0.805   1.915   5.066
 2843TIP3   OH2 8492   0.991   5.165   4.212
 2843TIP3    H1 8493   0.959   5.079   4.187
 2843TIP3    H2 8494   1.043   5.195   4.138
 2844TIP3   OH2 8495   6.038   5.462   4.155
 2844TIP3    H1 8496   6.028   5.556   4.168
 2844TIP3    H2 8497   6.126   5.442   4.188
 2845TIP3   OH2 8498   3.594   1.583   1.761
 2845TIP3    H1 8499   3.647   1.658   1.787
 2845TIP3    H2 8500   3.609   1.575   1.667
 2846TIP3   OH2 8501   1.458   1.338   3.484
 2846TIP3    H1 8502   1.393   1.325   3.552
 2846TIP3    H2 8503   1.488   1.250   3.461
 2847TIP3   OH2 8504   4.316   2.383   5.764
 2847TIP3    H1 8505   4.285   2.331   5.838
 2847TIP3    H2 8506   4.241   2.386   5.704
 2848TIP3   OH2 8507   6.720   3.787   0.350
 2848TIP3    H1 8508   6.707   3.851   0.420
 2848TIP3    H2 8509   6.631   3.760   0.326
 2849TIP3   OH2 8510   5.538   5.205   0.074
 2849TIP3    H1 8511   5.581   5.288   0.098
 2849TIP3    H2 8512   5.532   5.156   0.156
 2850TIP3   OH2 8513   1.780   4.637   0.812
 2850TIP3    H1 8514   1.755   4.546   0.796
 2850TIP3    H2 8515   1.840   4.659   0.741
 2851TIP3   OH2 8516   4.429   1.738   3.637
 2851TIP3    H1 8517   4.346   1.693   3.654
 2851TIP3    H2 8518   4.496   1.679   3.674
 2852TIP3   OH2 8519   1.263   5.371   2.834
 2852TIP3    H1 8520   1.305   5.455   2.851
 2852TIP3    H2 8521   1.204   5.388   2.761
 2853TIP3   OH2 8522   2.329   1.770   2.671
 2853TIP3    H1 8523   2.354   1.726   2.589
 2853TIP3    H2 8524   2.267   1.710   2.712
 2854TIP3   OH2 8525   1.125   6.506   4.473
 2854TIP3    H1 8526   1.041   6.465   4.491
 2854TIP3    H2 8527   1.167   6.516   4.558
 2855TIP3   OH2 8528   6.953   3.708   1.653
 2855TIP3    H1 8529   7.004   3.668   1.583
 2855TIP3    H2 8530   6.965   3.651   1.729
 2856TIP3   OH2 8531   3.240   0.271   0.456
 2856TIP3    H1 8532   3.323   0.294   0.496
 2856TIP3    H2 8533   3.247   0.304   0.366
 2857TIP3   OH2 8534   1.560   5.145   1.538
 2857TIP3    H1 8535   1.486   5.205   1.535
 2857TIP3    H2 8536   1.603   5.155   1.453
 2858TIP3   OH2 8537   0.377   0.825   2.443
 2858TIP3    H1 8538   0.407   0.807   2.532
 2858TIP3    H2 8539   0.409   0.750   2.392
 2859TIP3   OH2 8540   2.676   1.352   2.780
 2859TIP3    H1 8541   2.648   1.305   2.859
 2859TIP3    H2 8542   2.665   1.288   2.710
 2860TIP3   OH2 8543   2.744   1.964   3.972
 2860TIP3    H1 8544   2.694   1.946   4.051
 2860TIP3    H2 8545   2.694   1.921   3.902
 2861TIP3   OH2 8546   3.065   1.834   2.870
 2861TIP3    H1 8547   3.100   1.867   2.953
 2861TIP3    H2 8548   3.128   1.767   2.843
 2862TIP3   OH2 8549   4.361   2.334   3.875
 2862TIP3    H1 8550   4.312   2.365   3.799
 2862TIP3    H2 8551   4.362   2.409   3.935
 2863TIP3   OH2 8552   3.086   4.951   4.084
 2863TIP3    H1 8553   3.113   4.967   3.994
 2863TIP3    H2 8554   3.162   4.910   4.125
 2864TIP3   OH2 8555   7.055   1.950   5.698
 2864TIP3    H1 8556   7.029   2.006   5.624
 2864TIP3    H2 8557   7.030   1.862   5.671
 2865TIP3   OH2 8558   0.935   1.481   1.576
 2865TIP3    H1 8559   0.881   1.454   1.501
 2865TIP3    H2 8560   0.948   1.575   1.564
 2866TIP3   OH2 8561   6.085   1.479   4.023
 2866TIP3    H1 8562   6.108   1.544   4.089
 2866TIP3    H2 8563   6.140   1.500   3.948
 2867TIP3   OH2 8564   3.945   2.485   3.587
 2867TIP3    H1 8565   3.866   2.452   3.545
 2867TIP3    H2 8566   3.990   2.535   3.519
 2868TIP3   OH2 8567   4.378   1.563   4.472
 2868TIP3    H1 8568   4.353   1.533   4.559
 2868TIP3    H2 8569   4.427   1.644   4.488
 2869TIP3   OH2 8570   1.842   0.837   2.693
 2869TIP3    H1 8571   1.847   0.793   2.608
 2869TIP3    H2 8572   1.922   0.888   2.699
 2870TIP3   OH2 8573   7.008   3.264   2.978
 2870TIP3    H1 8574   7.031   3.345   2.931
 2870TIP3    H2 8575   6.947   3.293   3.046
 2871TIP3   OH2 8576   1.088   3.318   1.897
 2871TIP3    H1 8577   1.030   3.377   1.849
 2871TIP3    H2 8578   1.075   3.342   1.989
 2872TIP3   OH2 8579   0.939   1.281   3.266
 2872TIP3    H1 8580   0.958   1.334   3.188
 2872TIP3    H2 8581   0.853   1.244   3.250
 2873TIP3   OH2 8582   5.727   0.502   2.903
 2873TIP3    H1 8583   5.815   0.539   2.898
 2873TIP3    H2 8584   5.676   0.553   2.839
 2874TIP3   OH2 8585   1.526   4.213   1.819
 2874TIP3    H1 8586   1.538   4.307   1.805
 2874TIP3    H2 8587   1.574   4.195   1.900
 2875TIP3   OH2 8588   0.724   5.141   1.246
 2875TIP3    H1 8589   0.727   5.192   1.327
 2875TIP3    H2 8590   0.633   5.116   1.237
 2876TIP3   OH2 8591   0.934   3.543   1.855
 2876TIP3    H1 8592   0.871   3.542   1.783
 2876TIP3    H2 8593   0.975   3.630   1.851
 2877TIP3   OH2 8594   5.800   0.004   4.412
 2877TIP3    H1 8595   5.880  -0.011   4.361
 2877TIP3    H2 8596   5.755   0.075   4.366
 2878TIP3   OH2 8597   2.139   6.665   2.549
 2878TIP3    H1 8598   2.081   6.645   2.476
 2878TIP3    H2 8599   2.163   6.579   2.584
 2879TIP3   OH2 8600   1.007   0.748   1.458
 2879TIP3    H1 8601   0.936   0.733   1.397
 2879TIP3    H2 8602   1.012   0.844   1.466
 2880TIP3   OH2 8603   3.762   3.644   4.120
 2880TIP3    H1 8604   3.724   3.662   4.034
 2880TIP3    H2 8605   3.774   3.731   4.160
 2881TIP3   OH2 8606   6.643   2.919   3.681
 2881TIP3    H1 8607   6.727   2.956   3.709
 2881TIP3    H2 8608   6.606   2.986   3.623
 2882TIP3   OH2 8609   1.340   1.705   4.634
 2882TIP3    H1 8610   1.399   1.760   4.686
 2882TIP3    H2 8611   1.308   1.763   4.565
 2883TIP3   OH2 8612   3.803   5.537   3.389
 2883TIP3    H1 8613   3.789   5.443   3.377
 2883TIP3    H2 8614   3.896   5.550   3.369
 2884TIP3   OH2 8615   1.123   3.951   4.076
 2884TIP3    H1 8616   1.130   3.858   4.057
 2884TIP3    H2 8617   1.030   3.965   4.097
 2885TIP3   OH2 8618   5.283   4.055   5.115
 2885TIP3    H1 8619   5.289   4.111   5.192
 2885TIP3    H2 8620   5.324   4.106   5.045
 2886TIP3   OH2 8621   4.123   5.208   4.888
 2886TIP3    H1 8622   4.193   5.162   4.934
 2886TIP3    H2 8623   4.051   5.209   4.951
 2887TIP3   OH2 8624   6.853   3.646   3.344
 2887TIP3    H1 8625   6.826   3.688   3.425
 2887TIP3    H2 8626   6.828   3.707   3.275
 2888TIP3   OH2 8627   6.375   2.850   0.587
 2888TIP3    H1 8628   6.314   2.922   0.601
 2888TIP3    H2 8629   6.323   2.771   0.602
 2889TIP3   OH2 8630   4.275   5.199   2.129
 2889TIP3    H1 8631   4.252   5.291   2.114
 2889TIP3    H2 8632   4.369   5.200   2.145
 2890TIP3   OH2 8633   4.415   1.974   5.360
 2890TIP3    H1 8634   4.456   2.003   5.441
 2890TIP3    H2 8635   4.359   1.901   5.386
 2891TIP3   OH2 8636   0.803   1.356   4.159
 2891TIP3    H1 8637   0.737   1.361   4.229
 2891TIP3    H2 8638   0.870   1.419   4.185
 2892TIP3   OH2 8639   5.646   1.443   1.551
 2892TIP3    H1 8640   5.670   1.533   1.574
 2892TIP3    H2 8641   5.710   1.389   1.598
 2893TIP3   OH2 8642   1.238   5.274   4.824
 2893TIP3    H1 8643   1.241   5.352   4.769
 2893TIP3    H2 8644   1.145   5.253   4.831
 2894TIP3   OH2 8645   4.126   5.080   2.829
 2894TIP3    H1 8646   4.076   5.006   2.866
 2894TIP3    H2 8647   4.176   5.041   2.757
 2895TIP3   OH2 8648   3.550   5.297   0.444
 2895TIP3    H1 8649   3.619   5.256   0.392
 2895TIP3    H2 8650   3.469   5.258   0.412
 2896TIP3   OH2 8651   0.034   4.356   0.363
 2896TIP3    H1 8652   0.122   4.349   0.326
 2896TIP3    H2 8653  -0.012   4.280   0.328
 2897TIP3   OH2 8654   4.353   3.408   3.588
 2897TIP3    H1 8655   4.344   3.313   3.579
 2897TIP3    H2 8656   4.263   3.440   3.596
 2898TIP3   OH2 8657   1.932   4.474   2.916
 2898TIP3    H1 8658   2.027   4.472   2.906
 2898TIP3    H2 8659   1.912   4.400   2.974
 2899TIP3   OH2 8660   5.751   3.199   4.630
 2899TIP3    H1 8661   5.701   3.152   4.697
 2899TIP3    H2 8662   5.821   3.139   4.605
 2900TIP3   OH2 8663   4.511   5.530   5.096
 2900TIP3    H1 8664   4.444   5.597   5.085
 2900TIP3    H2 8665   4.560   5.558   5.173
 2901TIP3   OH2 8666   5.950   5.856   2.089
 2901TIP3    H1 8667   5.868   5.904   2.077
 2901TIP3    H2 8668   5.997   5.907   2.155
 2902TIP3   OH2 8669   5.699   4.680   5.382
 2902TIP3    H1 8670   5.716   4.763   5.427
 2902TIP3    H2 8671   5.605   4.680   5.367
 2903TIP3   OH2 8672   5.194   6.605   3.990
 2903TIP3    H1 8673   5.253   6.675   4.016
 2903TIP3    H2 8674   5.114   6.621   4.040
 2904TIP3   OH2 8675   6.814   3.088   1.537
 2904TIP3    H1 8676   6.757   3.064   1.464
 2904TIP3    H2 8677   6.787   3.030   1.608
 2905TIP3   OH2 8678   1.413   5.370   1.467
 2905TIP3    H1 8679   1.326   5.378   1.506
 2905TIP3    H2 8680   1.404   5.410   1.380
 2906TIP3   OH2 8681   3.532   3.502   2.088
 2906TIP3    H1 8682   3.460   3.528   2.031
 2906TIP3    H2 8683   3.550   3.579   2.142
 2907TIP3   OH2 8684   2.855   6.224   5.768
 2907TIP3    H1 8685   2.816   6.285   5.831
 2907TIP3    H2 8686   2.788   6.212   5.701
 2908TIP3   OH2 8687   1.915   1.303   4.388
 2908TIP3    H1 8688   1.997   1.328   4.429
 2908TIP3    H2 8689   1.906   1.363   4.313
 2909TIP3   OH2 8690   4.124   0.827   1.470
 2909TIP3    H1 8691   4.132   0.916   1.434
 2909TIP3    H2 8692   4.108   0.840   1.563
 2910TIP3   OH2 8693   2.582   4.709   5.104
 2910TIP3    H1 8694   2.540   4.768   5.166
 2910TIP3    H2 8695   2.675   4.715   5.125
 2911TIP3   OH2 8696   0.038   6.361   2.502
 2911TIP3    H1 8697   0.042   6.356   2.597
 2911TIP3    H2 8698   0.103   6.426   2.478
 2912TIP3   OH2 8699   1.295   1.930   2.064
 2912TIP3    H1 8700   1.217   1.881   2.092
 2912TIP3    H2 8701   1.367   1.889   2.111
 2913TIP3   OH2 8702   0.780   4.853   0.187
 2913TIP3    H1 8703   0.866   4.813   0.200
 2913TIP3    H2 8704   0.798   4.936   0.144
 2914TIP3   OH2 8705   2.671   3.527   0.361
 2914TIP3    H1 8706   2.700   3.591   0.425
 2914TIP3    H2 8707   2.739   3.459   0.363
 2915TIP3   OH2 8708   6.577   1.125   5.614
 2915TIP3    H1 8709   6.497   1.176   5.622
 2915TIP3    H2 8710   6.638   1.165   5.677
 2916TIP3   OH2 8711   3.170   1.529   3.359
 2916TIP3    H1 8712   3.101   1.572   3.410
 2916TIP3    H2 8713   3.219   1.600   3.320
 2917TIP3   OH2 8714   2.427   3.761   2.128
 2917TIP3    H1 8715   2.358   3.816   2.164
 2917TIP3    H2 8716   2.433   3.788   2.036
 2918TIP3   OH2 8717   2.790   6.492   5.555
 2918TIP3    H1 8718   2.721   6.513   5.491
 2918TIP3    H2 8719   2.774   6.553   5.628
 2919TIP3   OH2 8720   0.235   6.093   3.607
 2919TIP3    H1 8721   0.149   6.057   3.585
 2919TIP3    H2 8722   0.270   6.122   3.523
 2920TIP3   OH2 8723   3.107   3.235   3.067
 2920TIP3    H1 8724   3.021   3.195   3.059
 2920TIP3    H2 8725   3.167   3.161   3.076
 2921TIP3   OH2 8726   0.100   2.643   5.018
 2921TIP3    H1 8727   0.158   2.702   4.969
 2921TIP3    H2 8728   0.045   2.701   5.070
 2922TIP3   OH2 8729   2.566   5.042   0.555
 2922TIP3    H1 8730   2.527   5.121   0.592
 2922TIP3    H2 8731   2.510   5.019   0.482
 2923TIP3   OH2 8732   5.060   0.008   0.559
 2923TIP3    H1 8733   5.014   0.047   0.633
 2923TIP3    H2 8734   4.997  -0.054   0.523
 2924TIP3   OH2 8735   4.744   5.774   1.993
 2924TIP3    H1 8736   4.767   5.865   2.013
 2924TIP3    H2 8737   4.820   5.741   1.945
 2925TIP3   OH2 8738   7.077   6.318   1.000
 2925TIP3    H1 8739   7.071   6.310   0.905
 2925TIP3    H2 8740   7.024   6.395   1.021
 2926TIP3   OH2 8741   2.713   3.944   0.866
 2926TIP3    H1 8742   2.737   3.852   0.857
 2926TIP3    H2 8743   2.678   3.968   0.780
 2927TIP3   OH2 8744   2.796   5.952   3.284
 2927TIP3    H1 8745   2.708   5.985   3.269
 2927TIP3    H2 8746   2.842   6.025   3.326
 2928TIP3   OH2 8747   4.835   4.030   4.106
 2928TIP3    H1 8748   4.744   4.020   4.136
 2928TIP3    H2 8749   4.877   4.083   4.173
 2929TIP3   OH2 8750   7.091   0.630   3.627
 2929TIP3    H1 8751   7.184   0.607   3.632
 2929TIP3    H2 8752   7.057   0.611   3.714
 2930TIP3   OH2 8753   5.149   2.559   4.432
 2930TIP3    H1 8754   5.081   2.620   4.459
 2930TIP3    H2 8755   5.171   2.511   4.512
 2931TIP3   OH2 8756   3.934   0.385   3.146
 2931TIP3    H1 8757   3.867   0.411   3.210
 2931TIP3    H2 8758   3.911   0.296   3.122
 2932TIP3   OH2 8759   1.998   4.377   2.294
 2932TIP3    H1 8760   1.933   4.417   2.352
 2932TIP3    H2 8761   2.017   4.444   2.228
 2933TIP3   OH2 8762   6.682   1.195   1.465
 2933TIP3    H1 8763   6.683   1.104   1.434
 2933TIP3    H2 8764   6.669   1.247   1.386
 2934TIP3   OH2 8765   5.304   2.817   5.161
 2934TIP3    H1 8766   5.388   2.847   5.195
 2934TIP3    H2 8767   5.325   2.739   5.109
 2935TIP3   OH2 8768   7.025   2.426   1.782
 2935TIP3    H1 8769   6.967   2.465   1.716
 2935TIP3    H2 8770   7.107   2.474   1.773
 2936TIP3   OH2 8771   1.073   5.793   4.473
 2936TIP3    H1 8772   1.005   5.728   4.456
 2936TIP3    H2 8773   1.100   5.821   4.386
 2937TIP3   OH2 8774   0.098   1.658   1.989
 2937TIP3    H1 8775   0.123   1.636   2.079
 2937TIP3    H2 8776   0.007   1.630   1.983
 2938TIP3   OH2 8777   4.524   3.800   2.428
 2938TIP3    H1 8778   4.533   3.723   2.373
 2938TIP3    H2 8779   4.448   3.846   2.393
 2939TIP3   OH2 8780   2.041   5.015   4.855
 2939TIP3    H1 8781   2.011   5.019   4.946
 2939TIP3    H2 8782   2.025   4.925   4.828
 2940TIP3   OH2 8783   1.715   4.433   2.327
 2940TIP3    H1 8784   1.735   4.448   2.420
 2940TIP3    H2 8785   1.682   4.343   2.325
 2941TIP3   OH2 8786   5.342   4.470   4.543
 2941TIP3    H1 8787   5.429   4.503   4.523
 2941TIP3    H2 8788   5.296   4.471   4.459
 2942TIP3   OH2 8789   4.033   3.697   0.257
 2942TIP3    H1 8790   4.102   3.632   0.245
 2942TIP3    H2 8791   3.967   3.653   0.311
 2943TIP3   OH2 8792   1.645   6.253   2.015
 2943TIP3    H1 8793   1.715   6.257   1.951
 2943TIP3    H2 8794   1.564   6.248   1.963
 2944TIP3   OH2 8795   3.359   2.113   0.255
 2944TIP3    H1 8796   3.385   2.044   0.315
 2944TIP3    H2 8797   3.434   2.125   0.197
 2945TIP3   OH2 8798   0.468   5.068   0.692
 2945TIP3    H1 8799   0.535   5.005   0.665
 2945TIP3    H2 8800   0.439   5.036   0.777
 2946TIP3   OH2 8801   2.610   4.180   1.340
 2946TIP3    H1 8802   2.583   4.209   1.427
 2946TIP3    H2 8803   2.655   4.097   1.356
 2947TIP3   OH2 8804   1.513   3.344   4.089
 2947TIP3    H1 8805   1.553   3.260   4.064
 2947TIP3    H2 8806   1.553   3.366   4.173
 2948TIP3   OH2 8807   4.015   4.505   4.444
 2948TIP3    H1 8808   4.046   4.580   4.393
 2948TIP3    H2 8809   3.993   4.439   4.379
 2949TIP3   OH2 8810   1.693   0.208   1.129
 2949TIP3    H1 8811   1.756   0.265   1.085
 2949TIP3    H2 8812   1.684   0.132   1.071
 2950TIP3   OH2 8813   5.197   5.913   0.077
 2950TIP3    H1 8814   5.247   5.944   0.152
 2950TIP3    H2 8815   5.257   5.854   0.030
 2951TIP3   OH2 8816   1.411   5.129   2.216
 2951TIP3    H1 8817   1.453   5.060   2.165
 2951TIP3    H2 8818   1.390   5.196   2.151
 2952TIP3   OH2 8819   2.402   4.439   4.986
 2952TIP3    H1 8820   2.493   4.446   4.957
 2952TIP3    H2 8821   2.359   4.517   4.949
 2953TIP3   OH2 8822   1.371   0.641   3.704
 2953TIP3    H1 8823   1.335   0.562   3.662
 2953TIP3    H2 8824   1.426   0.607   3.775
 2954TIP3   OH2 8825   5.554   2.441   4.653
 2954TIP3    H1 8826   5.576   2.518   4.705
 2954TIP3    H2 8827   5.541   2.475   4.564
 2955TIP3   OH2 8828   2.493   3.691   5.465
 2955TIP3    H1 8829   2.570   3.690   5.521
 2955TIP3    H2 8830   2.471   3.784   5.456
 2956TIP3   OH2 8831   3.377   4.494   1.936
 2956TIP3    H1 8832   3.386   4.542   2.018
 2956TIP3    H2 8833   3.422   4.549   1.871
 2957TIP3   OH2 8834   3.006   0.764   3.902
 2957TIP3    H1 8835   2.921   0.729   3.929
 2957TIP3    H2 8836   3.035   0.705   3.832
 2958TIP3   OH2 8837   2.149   2.354   2.946
 2958TIP3    H1 8838   2.186   2.325   2.863
 2958TIP3    H2 8839   2.173   2.285   3.008
 2959TIP3   OH2 8840   3.113   5.626   3.329
 2959TIP3    H1 8841   3.129   5.685   3.256
 2959TIP3    H2 8842   3.044   5.668   3.380
 2960TIP3   OH2 8843   3.031   4.733   1.356
 2960TIP3    H1 8844   2.970   4.789   1.403
 2960TIP3    H2 8845   3.110   4.731   1.411
 2961TIP3   OH2 8846   0.699   1.153   3.223
 2961TIP3    H1 8847   0.667   1.068   3.252
 2961TIP3    H2 8848   0.657   1.216   3.281
 2962TIP3   OH2 8849   0.502   0.160   1.190
 2962TIP3    H1 8850   0.536   0.249   1.197
 2962TIP3    H2 8851   0.571   0.105   1.228
 2963TIP3   OH2 8852   1.153   2.864   3.217
 2963TIP3    H1 8853   1.126   2.894   3.304
 2963TIP3    H2 8854   1.224   2.923   3.192
 2964TIP3   OH2 8855   6.081   2.381   0.008
 2964TIP3    H1 8856   5.999   2.428   0.027
 2964TIP3    H2 8857   6.087   2.383  -0.088
 2965TIP3   OH2 8858   4.002   0.014   1.950
 2965TIP3    H1 8859   4.005   0.078   1.879
 2965TIP3    H2 8860   3.921  -0.034   1.936
 2966TIP3   OH2 8861   2.526   1.835   0.764
 2966TIP3    H1 8862   2.457   1.829   0.699
 2966TIP3    H2 8863   2.602   1.868   0.716
 2967TIP3   OH2 8864   5.093   6.077   5.214
 2967TIP3    H1 8865   5.084   5.987   5.245
 2967TIP3    H2 8866   5.104   6.068   5.119
 2968TIP3   OH2 8867   4.607   5.007   3.752
 2968TIP3    H1 8868   4.671   5.019   3.822
 2968TIP3    H2 8869   4.644   4.939   3.697
 2969TIP3   OH2 8870   5.962   2.818   4.196
 2969TIP3    H1 8871   5.907   2.876   4.144
 2969TIP3    H2 8872   5.900   2.772   4.253
 2970TIP3   OH2 8873   1.209   4.537   1.147
 2970TIP3    H1 8874   1.216   4.632   1.140
 2970TIP3    H2 8875   1.262   4.515   1.224
 2971TIP3   OH2 8876   4.015   5.237   1.481
 2971TIP3    H1 8877   4.035   5.302   1.548
 2971TIP3    H2 8878   4.100   5.205   1.452
 2972TIP3   OH2 8879   5.255   2.070   2.263
 2972TIP3    H1 8880   5.293   1.983   2.255
 2972TIP3    H2 8881   5.169   2.055   2.301
 2973TIP3   OH2 8882   3.812   3.662   0.562
 2973TIP3    H1 8883   3.893   3.693   0.601
 2973TIP3    H2 8884   3.839   3.600   0.495
 2974TIP3   OH2 8885   6.046   2.074   2.340
 2974TIP3    H1 8886   6.044   2.097   2.247
 2974TIP3    H2 8887   5.962   2.107   2.374
 2975TIP3   OH2 8888   6.490   3.283   5.882
 2975TIP3    H1 8889   6.580   3.255   5.873
 2975TIP3    H2 8890   6.495   3.365   5.933
 2976TIP3   OH2 8891   1.790   4.866   0.249
 2976TIP3    H1 8892   1.811   4.885   0.341
 2976TIP3    H2 8893   1.875   4.869   0.205
 2977TIP3   OH2 8894   2.436   4.765   3.707
 2977TIP3    H1 8895   2.512   4.825   3.707
 2977TIP3    H2 8896   2.407   4.763   3.616
 2978TIP3   OH2 8897   0.466   2.187   5.716
 2978TIP3    H1 8898   0.528   2.140   5.772
 2978TIP3    H2 8899   0.519   2.254   5.673
 2979TIP3   OH2 8900   6.075   4.243   2.898
 2979TIP3    H1 8901   5.997   4.289   2.928
 2979TIP3    H2 8902   6.087   4.273   2.808
 2980TIP3   OH2 8903   3.335   5.821   1.285
 2980TIP3    H1 8904   3.273   5.894   1.275
 2980TIP3    H2 8905   3.421   5.862   1.284
 2981TIP3   OH2 8906   6.115   2.849   5.631
 2981TIP3    H1 8907   6.023   2.875   5.642
 2981TIP3    H2 8908   6.157   2.925   5.592
 2982TIP3   OH2 8909   2.956   2.833   3.876
 2982TIP3    H1 8910   2.930   2.779   3.951
 2982TIP3    H2 8911   2.934   2.922   3.902
 2983TIP3   OH2 8912   1.119   0.211   0.898
 2983TIP3    H1 8913   1.062   0.253   0.962
 2983TIP3    H2 8914   1.159   0.284   0.851
 2984TIP3   OH2 8915   5.633   4.641   1.559
 2984TIP3    H1 8916   5.550   4.648   1.607
 2984TIP3    H2 8917   5.608   4.608   1.473
 2985TIP3   OH2 8918   2.330   0.069   2.238
 2985TIP3    H1 8919   2.425   0.075   2.229
 2985TIP3    H2 8920   2.316   0.039   2.327
 2986TIP3   OH2 8921   5.817   0.542   4.587
 2986TIP3    H1 8922   5.762   0.481   4.635
 2986TIP3    H2 8923   5.859   0.595   4.654
 2987TIP3   OH2 8924   0.212   1.735   4.698
 2987TIP3    H1 8925   0.236   1.736   4.791
 2987TIP3    H2 8926   0.148   1.665   4.691
 2988TIP3   OH2 8927   0.193   0.300   2.966
 2988TIP3    H1 8928   0.106   0.331   2.991
 2988TIP3    H2 8929   0.178   0.211   2.934
 2989TIP3   OH2 8930   4.256   1.528   0.763
 2989TIP3    H1 8931   4.293   1.440   0.754
 2989TIP3    H2 8932   4.162   1.514   0.772
 2990TIP3   OH2 8933   1.831   3.627   1.005
 2990TIP3    H1 8934   1.900   3.692   1.019
 2990TIP3    H2 8935   1.862   3.548   1.049
 2991TIP3   OH2 8936   6.140   2.705   3.520
 2991TIP3    H1 8937   6.157   2.767   3.592
 2991TIP3    H2 8938   6.052   2.726   3.490
 2992TIP3   OH2 8939   5.544   4.161   0.372
 2992TIP3    H1 8940   5.500   4.143   0.288
 2992TIP3    H2 8941   5.608   4.228   0.351
 2993TIP3   OH2 8942   2.050   5.114   4.301
 2993TIP3    H1 8943   2.049   5.040   4.362
 2993TIP3    H2 8944   2.117   5.173   4.337
 2994TIP3   OH2 8945   3.828   6.036   2.843
 2994TIP3    H1 8946   3.892   6.107   2.841
 2994TIP3    H2 8947   3.759   6.066   2.901
 2995TIP3   OH2 8948   3.391   2.954   5.444
 2995TIP3    H1 8949   3.386   3.026   5.507
 2995TIP3    H2 8950   3.483   2.930   5.442
 2996TIP3   OH2 8951   4.289   5.907   2.881
 2996TIP3    H1 8952   4.266   5.862   2.962
 2996TIP3    H2 8953   4.248   5.993   2.888
 2997TIP3   OH2 8954   5.445   3.714   1.807
 2997TIP3    H1 8955   5.416   3.806   1.808
 2997TIP3    H2 8956   5.366   3.664   1.786
 2998TIP3   OH2 8957   6.051   4.614   2.238
 2998TIP3    H1 8958   6.021   4.581   2.153
 2998TIP3    H2 8959   6.071   4.706   2.223
 2999TIP3   OH2 8960   4.302   1.887   2.864
 2999TIP3    H1 8961   4.221   1.853   2.903
 2999TIP3    H2 8962   4.366   1.883   2.935
 3000TIP3   OH2 8963   4.017   1.522   1.327
 3000TIP3    H1 8964   4.098   1.515   1.276
 3000TIP3    H2 8965   4.013   1.440   1.377
 3001TIP3   OH2 8966   5.948   2.412   2.359
 3001TIP3    H1 8967   5.885   2.468   2.313
 3001TIP3    H2 8968   5.901   2.329   2.371
 3002TIP3   OH2 8969   2.625   3.806   2.336
 3002TIP3    H1 8970   2.679   3.727   2.335
 3002TIP3    H2 8971   2.553   3.786   2.275
 3003TIP3   OH2 8972   0.480   3.719   4.828
 3003TIP3    H1 8973   0.575   3.707   4.838
 3003TIP3    H2 8974   0.451   3.755   4.912
 3004TIP3   OH2 8975   1.545   4.255   2.110
 3004TIP3    H1 8976   1.638   4.254   2.091
 3004TIP3    H2 8977   1.540   4.258   2.206
 3005TIP3   OH2 8978   3.486   0.447   0.392
 3005TIP3    H1 8979   3.496   0.401   0.475
 3005TIP3    H2 8980   3.516   0.536   0.411
 3006TIP3   OH2 8981   5.295   5.047   3.134
 3006TIP3    H1 8982   5.250   4.971   3.171
 3006TIP3    H2 8983   5.376   5.011   3.098
 3007TIP3   OH2 8984   3.275   2.219   4.953
 3007TIP3    H1 8985   3.307   2.303   4.985
 3007TIP3    H2 8986   3.290   2.158   5.025
 3008TIP3   OH2 8987   0.569   1.436   2.817
 3008TIP3    H1 8988   0.570   1.431   2.913
 3008TIP3    H2 8989   0.531   1.352   2.790
 3009TIP3   OH2 8990   0.355   5.622   0.802
 3009TIP3    H1 8991   0.367   5.527   0.805
 3009TIP3    H2 8992   0.303   5.638   0.724
 3010TIP3   OH2 8993   2.205   3.025   0.044
 3010TIP3    H1 8994   2.119   3.008   0.082
 3010TIP3    H2 8995   2.252   2.942   0.050
 3011TIP3   OH2 8996   1.901   2.026   4.150
 3011TIP3    H1 8997   1.944   2.073   4.077
 3011TIP3    H2 8998   1.953   2.050   4.227
 3012TIP3   OH2 8999   6.737   4.642   3.142
 3012TIP3    H1 9000   6.664   4.697   3.112
 3012TIP3    H2 9001   6.762   4.591   3.065
 3013TIP3   OH2 9002   3.738   5.766   4.019
 3013TIP3    H1 9003   3.732   5.849   4.066
 3013TIP3    H2 9004   3.805   5.782   3.952
 3014TIP3   OH2 9005   2.677   6.793   4.836
 3014TIP3    H1 9006   2.676   6.697   4.830
 3014TIP3    H2 9007   2.655   6.811   4.927
 3015TIP3   OH2 9008   1.709   2.312   1.875
 3015TIP3    H1 9009   1.639   2.375   1.860
 3015TIP3    H2 9010   1.779   2.340   1.816
 3016TIP3   OH2 9011   1.493   5.817   3.277
 3016TIP3    H1 9012   1.477   5.881   3.346
 3016TIP3    H2 9013   1.477   5.732   3.318
 3017TIP3   OH2 9014   5.880   2.480   3.821
 3017TIP3    H1 9015   5.938   2.470   3.897
 3017TIP3    H2 9016   5.796   2.507   3.859
 3018TIP3   OH2 9017   2.645   1.085   4.919
 3018TIP3    H1 9018   2.581   1.126   4.861
 3018TIP3    H2 9019   2.724   1.075   4.864
 3019TIP3   OH2 9020   4.002   4.768   2.629
 3019TIP3    H1 9021   3.995   4.758   2.724
 3019TIP3    H2 9022   4.087   4.811   2.615
 3020TIP3   OH2 9023   6.243   6.782   1.837
 3020TIP3    H1 9024   6.244   6.687   1.833
 3020TIP3    H2 9025   6.321   6.805   1.888
 3021TIP3   OH2 9026   0.964   4.264   0.589
 3021TIP3    H1 9027   0.998   4.281   0.501
 3021TIP3    H2 9028   1.024   4.200   0.626
 3022TIP3   OH2 9029   5.699   0.138   3.140
 3022TIP3    H1 9030   5.750   0.132   3.221
 3022TIP3    H2 9031   5.750   0.196   3.084
 3023TIP3   OH2 9032   3.435   1.390   3.318
 3023TIP3    H1 9033   3.502   1.366   3.382
 3023TIP3    H2 9034   3.482   1.437   3.250
 3024TIP3   OH2 9035   0.549   5.748   4.873
 3024TIP3    H1 9036   0.528   5.838   4.899
 3024TIP3    H2 9037   0.642   5.739   4.889
 3025TIP3   OH2 9038   7.226   1.376   4.195
 3025TIP3    H1 9039   7.166   1.446   4.218
 3025TIP3    H2 9040   7.170   1.305   4.165
 3026TIP3   OH2 9041   3.588   0.431   1.203
 3026TIP3    H1 9042   3.526   0.489   1.247
 3026TIP3    H2 9043   3.630   0.383   1.274
 3027TIP3   OH2 9044   4.961   1.599   1.787
 3027TIP3    H1 9045   4.935   1.577   1.876
 3027TIP3    H2 9046   4.880   1.627   1.744
 3028TIP3   OH2 9047   6.920   4.925   1.529
 3028TIP3    H1 9048   6.834   4.924   1.571
 3028TIP3    H2 9049   6.931   5.015   1.498
 3029TIP3   OH2 9050   4.945   3.657   1.352
 3029TIP3    H1 9051   4.925   3.569   1.383
 3029TIP3    H2 9052   4.971   3.646   1.261
 3030TIP3   OH2 9053   1.123   4.817   3.394
 3030TIP3    H1 9054   1.144   4.902   3.356
 3030TIP3    H2 9055   1.101   4.761   3.319
 3031TIP3   OH2 9056   1.644   0.553   2.229
 3031TIP3    H1 9057   1.578   0.554   2.298
 3031TIP3    H2 9058   1.653   0.461   2.206
 3032TIP3   OH2 9059   4.781   4.049   4.647
 3032TIP3    H1 9060   4.844   4.120   4.662
 3032TIP3    H2 9061   4.813   3.977   4.701
 3033TIP3   OH2 9062   3.914   0.503   1.942
 3033TIP3    H1 9063   3.850   0.432   1.936
 3033TIP3    H2 9064   3.968   0.480   2.017
 3034TIP3   OH2 9065   5.311   0.955   2.133
 3034TIP3    H1 9066   5.249   0.959   2.060
 3034TIP3    H2 9067   5.352   1.042   2.134
 3035TIP3   OH2 9068   2.885   5.310   4.819
 3035TIP3    H1 9069   2.907   5.350   4.903
 3035TIP3    H2 9070   2.951   5.344   4.758
 3036TIP3   OH2 9071   7.043   0.511   2.850
 3036TIP3    H1 9072   7.090   0.549   2.925
 3036TIP3    H2 9073   6.977   0.577   2.827
 3037TIP3   OH2 9074   2.655   6.799   4.477
 3037TIP3    H1 9075   2.614   6.751   4.406
 3037TIP3    H2 9076   2.680   6.732   4.540
 3038TIP3   OH2 9077   6.333   0.316   0.915
 3038TIP3    H1 9078   6.345   0.272   0.831
 3038TIP3    H2 9079   6.420   0.349   0.938
 3039TIP3   OH2 9080   3.850   3.229   3.980
 3039TIP3    H1 9081   3.827   3.158   4.040
 3039TIP3    H2 9082   3.787   3.298   4.000
 3040TIP3   OH2 9083   5.771   4.189   4.030
 3040TIP3    H1 9084   5.824   4.174   3.953
 3040TIP3    H2 9085   5.806   4.129   4.096
 3041TIP3   OH2 9086   1.926   1.753   5.343
 3041TIP3    H1 9087   1.848   1.793   5.305
 3041TIP3    H2 9088   1.892   1.682   5.398
 3042TIP3   OH2 9089   0.919   1.832   4.473
 3042TIP3    H1 9090   0.924   1.740   4.447
 3042TIP3    H2 9091   0.923   1.830   4.568
 3043TIP3   OH2 9092   4.544   5.209   2.175
 3043TIP3    H1 9093   4.626   5.174   2.142
 3043TIP3    H2 9094   4.569   5.274   2.241
 3044TIP3   OH2 9095   3.291   2.900   1.132
 3044TIP3    H1 9096   3.364   2.869   1.078
 3044TIP3    H2 9097   3.311   2.868   1.220
 3045TIP3   OH2 9098   6.862   2.217   0.550
 3045TIP3    H1 9099   6.951   2.215   0.586
 3045TIP3    H2 9100   6.873   2.247   0.460
 3046TIP3   OH2 9101   2.008   5.555   1.345
 3046TIP3    H1 9102   1.985   5.632   1.293
 3046TIP3    H2 9103   2.096   5.572   1.376
 3047TIP3   OH2 9104   0.583   5.715   1.474
 3047TIP3    H1 9105   0.634   5.796   1.474
 3047TIP3    H2 9106   0.495   5.742   1.502
 3048TIP3   OH2 9107   2.586   2.654   0.739
 3048TIP3    H1 9108   2.582   2.572   0.788
 3048TIP3    H2 9109   2.668   2.650   0.691
 3049TIP3   OH2 9110   1.396   1.990   3.465
 3049TIP3    H1 9111   1.481   2.033   3.456
 3049TIP3    H2 9112   1.375   1.959   3.377
 3050TIP3   OH2 9113   0.666   4.166   1.114
 3050TIP3    H1 9114   0.690   4.138   1.025
 3050TIP3    H2 9115   0.570   4.174   1.110
 3051TIP3   OH2 9116   2.789   2.019   1.634
 3051TIP3    H1 9117   2.801   1.932   1.673
 3051TIP3    H2 9118   2.746   2.070   1.703
 3052TIP3   OH2 9119   4.457   2.829   2.711
 3052TIP3    H1 9120   4.451   2.736   2.728
 3052TIP3    H2 9121   4.549   2.850   2.725
 3053TIP3   OH2 9122   6.931   2.533   2.884
 3053TIP3    H1 9123   6.988   2.539   2.960
 3053TIP3    H2 9124   6.989   2.507   2.812
 3054TIP3   OH2 9125   6.791   4.728   5.038
 3054TIP3    H1 9126   6.865   4.671   5.018
 3054TIP3    H2 9127   6.817   4.771   5.120
 3055TIP3   OH2 9128   0.513   6.084   3.150
 3055TIP3    H1 9129   0.592   6.095   3.204
 3055TIP3    H2 9130   0.516   6.156   3.087
 3056TIP3   OH2 9131   4.745   5.377   3.295
 3056TIP3    H1 9132   4.836   5.402   3.280
 3056TIP3    H2 9133   4.726   5.406   3.384
 3057TIP3   OH2 9134   0.321   1.647   4.087
 3057TIP3    H1 9135   0.231   1.679   4.080
 3057TIP3    H2 9136   0.375   1.726   4.082
 3058TIP3   OH2 9137   5.962   5.170   1.269
 3058TIP3    H1 9138   6.036   5.228   1.250
 3058TIP3    H2 9139   5.923   5.151   1.184
 3059TIP3   OH2 9140   1.939   6.528   5.677
 3059TIP3    H1 9141   1.971   6.471   5.608
 3059TIP3    H2 9142   1.869   6.479   5.719
 3060TIP3   OH2 9143   4.201   0.904   1.028
 3060TIP3    H1 9144   4.254   0.952   1.093
 3060TIP3    H2 9145   4.122   0.957   1.019
 3061TIP3   OH2 9146   6.870   2.833   2.706
 3061TIP3    H1 9147   6.891   2.812   2.615
 3061TIP3    H2 9148   6.779   2.805   2.716
 3062TIP3   OH2 9149   4.852   1.602   2.099
 3062TIP3    H1 9150   4.795   1.597   2.176
 3062TIP3    H2 9151   4.927   1.654   2.128
 3063TIP3   OH2 9152   3.636   1.494   4.935
 3063TIP3    H1 9153   3.627   1.576   4.886
 3063TIP3    H2 9154   3.714   1.452   4.897
 3064TIP3   OH2 9155   4.994   1.274   0.897
 3064TIP3    H1 9156   4.957   1.211   0.836
 3064TIP3    H2 9157   5.088   1.254   0.899
 3065TIP3   OH2 9158   0.668   4.469   3.488
 3065TIP3    H1 9159   0.608   4.418   3.433
 3065TIP3    H2 9160   0.733   4.406   3.517
 3066TIP3   OH2 9161   0.345   1.607   4.496
 3066TIP3    H1 9162   0.285   1.667   4.540
 3066TIP3    H2 9163   0.289   1.548   4.447
 3067TIP3   OH2 9164   0.893   1.614   4.292
 3067TIP3    H1 9165   0.818   1.660   4.253
 3067TIP3    H2 9166   0.965   1.631   4.232
 3068TIP3   OH2 9167   3.083   2.884   0.623
 3068TIP3    H1 9168   3.127   2.916   0.702
 3068TIP3    H2 9169   3.152   2.845   0.570
 3069TIP3   OH2 9170   0.469   0.540   0.398
 3069TIP3    H1 9171   0.466   0.463   0.342
 3069TIP3    H2 9172   0.378   0.569   0.404
 3070TIP3   OH2 9173   2.856   1.202   3.384
 3070TIP3    H1 9174   2.902   1.230   3.464
 3070TIP3    H2 9175   2.782   1.151   3.416
 3071TIP3   OH2 9176   3.376   5.297   3.187
 3071TIP3    H1 9177   3.445   5.250   3.141
 3071TIP3    H2 9178   3.416   5.380   3.211
 3072TIP3   OH2 9179   3.356   3.940   1.102
 3072TIP3    H1 9180   3.348   4.009   1.036
 3072TIP3    H2 9181   3.267   3.927   1.134
 3073TIP3   OH2 9182   4.050   1.473   5.675
 3073TIP3    H1 9183   4.067   1.505   5.586
 3073TIP3    H2 9184   4.137   1.464   5.714
 3074TIP3   OH2 9185   5.801   1.248   5.542
 3074TIP3    H1 9186   5.799   1.301   5.463
 3074TIP3    H2 9187   5.749   1.297   5.606
 3075TIP3   OH2 9188   1.609   3.305   1.485
 3075TIP3    H1 9189   1.533   3.363   1.474
 3075TIP3    H2 9190   1.588   3.228   1.432
 3076TIP3   OH2 9191   0.718   0.319   4.610
 3076TIP3    H1 9192   0.639   0.273   4.639
 3076TIP3    H2 9193   0.686   0.407   4.586
 3077TIP3   OH2 9194   4.527   0.210   5.787
 3077TIP3    H1 9195   4.480   0.130   5.813
 3077TIP3    H2 9196   4.599   0.215   5.850
 3078TIP3   OH2 9197   5.323   5.905   4.349
 3078TIP3    H1 9198   5.407   5.870   4.379
 3078TIP3    H2 9199   5.346   5.973   4.285
 3079TIP3   OH2 9200   6.809   2.199   2.676
 3079TIP3    H1 9201   6.745   2.236   2.736
 3079TIP3    H2 9202   6.831   2.114   2.714
 3080TIP3   OH2 9203   0.406   2.189   4.525
 3080TIP3    H1 9204   0.416   2.136   4.604
 3080TIP3    H2 9205   0.488   2.238   4.517
 3081TIP3   OH2 9206   3.607   4.571   3.716
 3081TIP3    H1 9207   3.680   4.541   3.663
 3081TIP3    H2 9208   3.552   4.620   3.655
 3082TIP3   OH2 9209   3.625   4.890   4.199
 3082TIP3    H1 9210   3.693   4.901   4.133
 3082TIP3    H2 9211   3.606   4.797   4.199
 3083TIP3   OH2 9212   4.705   6.026   0.462
 3083TIP3    H1 9213   4.786   6.039   0.412
 3083TIP3    H2 9214   4.651   5.971   0.406
 3084TIP3   OH2 9215   6.644   6.805   2.633
 3084TIP3    H1 9216   6.708   6.875   2.645
 3084TIP3    H2 9217   6.678   6.755   2.559
 3085TIP3   OH2 9218   3.897   0.535   0.666
 3085TIP3    H1 9219   3.907   0.512   0.573
 3085TIP3    H2 9220   3.982   0.517   0.704
 3086TIP3   OH2 9221   4.973   0.927   4.054
 3086TIP3    H1 9222   4.890   0.890   4.083
 3086TIP3    H2 9223   5.025   0.851   4.026
 3087TIP3   OH2 9224   0.935   1.593   3.075
 3087TIP3    H1 9225   0.876   1.595   3.000
 3087TIP3    H2 9226   0.992   1.519   3.059
 3088TIP3   OH2 9227   2.962   0.430   5.033
 3088TIP3    H1 9228   2.910   0.403   5.109
 3088TIP3    H2 9229   3.041   0.469   5.071
 3089TIP3   OH2 9230   1.791   5.960   4.915
 3089TIP3    H1 9231   1.763   6.051   4.906
 3089TIP3    H2 9232   1.724   5.919   4.969
 3090TIP3   OH2 9233   0.267   4.119   1.374
 3090TIP3    H1 9234   0.268   4.210   1.347
 3090TIP3    H2 9235   0.348   4.107   1.423
 3091TIP3   OH2 9236   4.420   2.935   1.043
 3091TIP3    H1 9237   4.499   2.983   1.068
 3091TIP3    H2 9238   4.350   2.977   1.093
 3092TIP3   OH2 9239   4.973   2.862   5.803
 3092TIP3    H1 9240   5.055   2.814   5.793
 3092TIP3    H2 9241   4.964   2.912   5.722
 3093TIP3   OH2 9242   2.191   6.146   0.436
 3093TIP3    H1 9243   2.151   6.070   0.394
 3093TIP3    H2 9244   2.268   6.111   0.480
 3094TIP3   OH2 9245   4.955   5.091   3.367
 3094TIP3    H1 9246   4.860   5.081   3.374
 3094TIP3    H2 9247   4.975   5.174   3.410
 3095TIP3   OH2 9248   3.589   5.373   1.485
 3095TIP3    H1 9249   3.505   5.418   1.499
 3095TIP3    H2 9250   3.629   5.369   1.572
 3096TIP3   OH2 9251   4.696   5.882   2.698
 3096TIP3    H1 9252   4.639   5.953   2.669
 3096TIP3    H2 9253   4.640   5.827   2.752
 3097TIP3   OH2 9254   2.821   4.135   4.549
 3097TIP3    H1 9255   2.807   4.223   4.583
 3097TIP3    H2 9256   2.914   4.132   4.526
 3098TIP3   OH2 9257   2.213   3.087   4.985
 3098TIP3    H1 9258   2.278   3.129   4.929
 3098TIP3    H2 9259   2.206   3.144   5.061
 3099TIP3   OH2 9260   3.284   2.995   2.807
 3099TIP3    H1 9261   3.252   2.991   2.898
 3099TIP3    H2 9262   3.369   2.952   2.810
 3100TIP3   OH2 9263   6.820   3.446   2.481
 3100TIP3    H1 9264   6.914   3.427   2.490
 3100TIP3    H2 9265   6.804   3.443   2.386
 3101TIP3   OH2 9266   3.517   0.787   4.125
 3101TIP3    H1 9267   3.441   0.796   4.069
 3101TIP3    H2 9268   3.501   0.707   4.175
 3102TIP3   OH2 9269   6.198   3.603   3.292
 3102TIP3    H1 9270   6.208   3.660   3.215
 3102TIP3    H2 9271   6.147   3.655   3.354
 3103TIP3   OH2 9272   5.484   4.354   4.217
 3103TIP3    H1 9273   5.530   4.310   4.289
 3103TIP3    H2 9274   5.440   4.427   4.259
 3104TIP3   OH2 9275   3.542   5.831   3.108
 3104TIP3    H1 9276   3.503   5.848   3.022
 3104TIP3    H2 9277   3.561   5.917   3.143
 3105TIP3   OH2 9278   0.447   0.465   2.057
 3105TIP3    H1 9279   0.424   0.510   1.976
 3105TIP3    H2 9280   0.397   0.383   2.054
 3106TIP3   OH2 9281   0.936   0.425   0.667
 3106TIP3    H1 9282   0.900   0.358   0.609
 3106TIP3    H2 9283   0.934   0.386   0.754
 3107TIP3   OH2 9284   1.944   1.719   1.519
 3107TIP3    H1 9285   1.953   1.642   1.575
 3107TIP3    H2 9286   2.034   1.743   1.496
 3108TIP3   OH2 9287   1.592   4.493   0.646
 3108TIP3    H1 9288   1.653   4.434   0.603
 3108TIP3    H2 9289   1.518   4.437   0.671
 3109TIP3   OH2 9290   0.349   5.780   1.037
 3109TIP3    H1 9291   0.349   5.742   0.949
 3109TIP3    H2 9292   0.413   5.729   1.086
 3110TIP3   OH2 9293   4.440   5.834   4.571
 3110TIP3    H1 9294   4.506   5.902   4.557
 3110TIP3    H2 9295   4.388   5.866   4.645
 3111TIP3   OH2 9296   4.414   0.774   4.846
 3111TIP3    H1 9297   4.399   0.682   4.826
 3111TIP3    H2 9298   4.384   0.785   4.936
 3112TIP3   OH2 9299   3.217   0.274   5.709
 3112TIP3    H1 9300   3.207   0.367   5.732
 3112TIP3    H2 9301   3.282   0.241   5.771
 3113TIP3   OH2 9302   0.988   2.000   2.016
 3113TIP3    H1 9303   0.894   2.001   2.032
 3113TIP3    H2 9304   1.024   1.945   2.085
 3114TIP3   OH2 9305   6.797   2.445   1.519
 3114TIP3    H1 9306   6.815   2.520   1.576
 3114TIP3    H2 9307   6.756   2.483   1.442
 3115TIP3   OH2 9308   6.871   1.739   0.706
 3115TIP3    H1 9309   6.878   1.806   0.638
 3115TIP3    H2 9310   6.883   1.787   0.788
 3116TIP3   OH2 9311   0.351   1.962   2.768
 3116TIP3    H1 9312   0.294   1.930   2.698
 3116TIP3    H2 9313   0.326   2.053   2.780
 3117TIP3   OH2 9314   5.453   0.592   0.757
 3117TIP3    H1 9315   5.408   0.558   0.834
 3117TIP3    H2 9316   5.484   0.513   0.711
 3118TIP3   OH2 9317   4.681   2.152   1.131
 3118TIP3    H1 9318   4.728   2.218   1.080
 3118TIP3    H2 9319   4.640   2.202   1.202
 3119TIP3   OH2 9320   6.499   1.831   4.310
 3119TIP3    H1 9321   6.516   1.848   4.403
 3119TIP3    H2 9322   6.429   1.892   4.287
 3120TIP3   OH2 9323   5.015   2.855   3.429
 3120TIP3    H1 9324   4.923   2.875   3.410
 3120TIP3    H2 9325   5.044   2.928   3.484
 3121TIP3   OH2 9326   6.067   2.777   4.529
 3121TIP3    H1 9327   6.112   2.832   4.465
 3121TIP3    H2 9328   6.068   2.689   4.491
 3122TIP3   OH2 9329   2.740   2.758   1.564
 3122TIP3    H1 9330   2.816   2.707   1.537
 3122TIP3    H2 9331   2.771   2.849   1.566
 3123TIP3   OH2 9332   5.847   1.947   4.451
 3123TIP3    H1 9333   5.799   1.939   4.534
 3123TIP3    H2 9334   5.816   1.873   4.398
 3124TIP3   OH2 9335   0.406   0.604   1.793
 3124TIP3    H1 9336   0.420   0.628   1.702
 3124TIP3    H2 9337   0.346   0.530   1.789
 3125TIP3   OH2 9338   4.974   0.652   2.091
 3125TIP3    H1 9339   5.049   0.629   2.146
 3125TIP3    H2 9340   4.923   0.571   2.085
 3126TIP3   OH2 9341   2.646   4.916   4.552
 3126TIP3    H1 9342   2.666   4.997   4.599
 3126TIP3    H2 9343   2.731   4.881   4.526
 3127TIP3   OH2 9344   0.778   0.629   2.724
 3127TIP3    H1 9345   0.696   0.599   2.683
 3127TIP3    H2 9346   0.846   0.602   2.663
 3128TIP3   OH2 9347   2.088   3.095   4.428
 3128TIP3    H1 9348   2.145   3.156   4.381
 3128TIP3    H2 9349   2.001   3.134   4.423
 3129TIP3   OH2 9350   5.863   0.647   0.306
 3129TIP3    H1 9351   5.929   0.716   0.299
 3129TIP3    H2 9352   5.891   0.581   0.243
 3130TIP3   OH2 9353   4.506   1.867   3.038
 3130TIP3    H1 9354   4.572   1.914   3.089
 3130TIP3    H2 9355   4.555   1.799   2.992
 3131TIP3   OH2 9356   3.336   3.497   0.566
 3131TIP3    H1 9357   3.389   3.530   0.640
 3131TIP3    H2 9358   3.395   3.504   0.490
 3132TIP3   OH2 9359   3.085   6.014   5.785
 3132TIP3    H1 9360   3.069   5.969   5.702
 3132TIP3    H2 9361   3.013   6.076   5.793
 3133TIP3   OH2 9362   1.074   5.447   0.233
 3133TIP3    H1 9363   1.123   5.387   0.177
 3133TIP3    H2 9364   1.085   5.413   0.322
 3134TIP3   OH2 9365   6.403   5.337   3.280
 3134TIP3    H1 9366   6.491   5.373   3.294
 3134TIP3    H2 9367   6.386   5.352   3.187
 3135TIP3   OH2 9368   1.003   3.035   1.850
 3135TIP3    H1 9369   1.059   2.998   1.781
 3135TIP3    H2 9370   1.038   3.123   1.864
 3136TIP3   OH2 9371   3.857   1.147   2.715
 3136TIP3    H1 9372   3.934   1.198   2.741
 3136TIP3    H2 9373   3.888   1.093   2.643
 3137TIP3   OH2 9374   0.104   4.859   2.364
 3137TIP3    H1 9375   0.126   4.776   2.321
 3137TIP3    H2 9376   0.185   4.886   2.408
 3138TIP3   OH2 9377   5.768   5.970   1.421
 3138TIP3    H1 9378   5.846   5.956   1.367
 3138TIP3    H2 9379   5.786   6.051   1.469
 3139TIP3   OH2 9380   0.095   5.130   4.414
 3139TIP3    H1 9381   0.076   5.116   4.321
 3139TIP3    H2 9382   0.181   5.089   4.426
 3140TIP3   OH2 9383   1.343   3.014   5.193
 3140TIP3    H1 9384   1.402   3.089   5.182
 3140TIP3    H2 9385   1.358   2.961   5.114
 3141TIP3   OH2 9386   2.146   3.930   2.851
 3141TIP3    H1 9387   2.187   3.843   2.851
 3141TIP3    H2 9388   2.053   3.913   2.864
 3142TIP3   OH2 9389   5.439   4.715   5.427
 3142TIP3    H1 9390   5.431   4.678   5.515
 3142TIP3    H2 9391   5.380   4.790   5.427
 3143TIP3   OH2 9392   5.655   3.236   2.815
 3143TIP3    H1 9393   5.667   3.228   2.910
 3143TIP3    H2 9394   5.727   3.293   2.787
 3144TIP3   OH2 9395   4.714   3.177   1.343
 3144TIP3    H1 9396   4.639   3.158   1.400
 3144TIP3    H2 9397   4.697   3.126   1.264
 3145TIP3   OH2 9398   0.871   1.828   1.675
 3145TIP3    H1 9399   0.837   1.917   1.673
 3145TIP3    H2 9400   0.801   1.776   1.716
 3146TIP3   OH2 9401   1.688   2.790   1.306
 3146TIP3    H1 9402   1.692   2.702   1.344
 3146TIP3    H2 9403   1.659   2.776   1.216
 3147TIP3   OH2 9404   6.935   4.112   2.272
 3147TIP3    H1 9405   7.019   4.150   2.299
 3147TIP3    H2 9406   6.933   4.125   2.177
 3148TIP3   OH2 9407   2.855   5.639   3.732
 3148TIP3    H1 9408   2.881   5.731   3.726
 3148TIP3    H2 9409   2.867   5.605   3.643
 3149TIP3   OH2 9410   0.176   4.166   4.399
 3149TIP3    H1 9411   0.175   4.154   4.494
 3149TIP3    H2 9412   0.123   4.093   4.365
 3150TIP3   OH2 9413   0.313   3.207   3.256
 3150TIP3    H1 9414   0.364   3.282   3.288
 3150TIP3    H2 9415   0.223   3.228   3.280
 3151TIP3   OH2 9416   3.212   1.432   4.032
 3151TIP3    H1 9417   3.301   1.398   4.042
 3151TIP3    H2 9418   3.187   1.462   4.120
 3152TIP3   OH2 9419   1.473   5.501   1.725
 3152TIP3    H1 9420   1.567   5.496   1.744
 3152TIP3    H2 9421   1.462   5.448   1.646
 3153TIP3   OH2 9422   0.361   6.518   0.659
 3153TIP3    H1 9423   0.278   6.565   0.648
 3153TIP3    H2 9424   0.422   6.564   0.601
 3154TIP3   OH2 9425   1.848   2.480   3.388
 3154TIP3    H1 9426   1.891   2.403   3.352
 3154TIP3    H2 9427   1.768   2.490   3.335
 3155TIP3   OH2 9428   4.894   1.774   5.547
 3155TIP3    H1 9429   4.893   1.702   5.610
 3155TIP3    H2 9430   4.958   1.836   5.582
 3156TIP3   OH2 9431   6.370   5.292   2.777
 3156TIP3    H1 9432   6.280   5.272   2.803
 3156TIP3    H2 9433   6.369   5.386   2.758
 3157TIP3   OH2 9434   1.044   3.371   1.051
 3157TIP3    H1 9435   1.054   3.466   1.055
 3157TIP3    H2 9436   0.985   3.349   1.123
 3158TIP3   OH2 9437   0.112   1.158   1.597
 3158TIP3    H1 9438   0.190   1.186   1.549
 3158TIP3    H2 9439   0.048   1.227   1.581
 3159TIP3   OH2 9440   2.548   5.951   4.168
 3159TIP3    H1 9441   2.623   6.006   4.190
 3159TIP3    H2 9442   2.571   5.910   4.085
 3160TIP3   OH2 9443   3.446   6.362   2.219
 3160TIP3    H1 9444   3.413   6.440   2.264
 3160TIP3    H2 9445   3.371   6.329   2.169
 3161TIP3   OH2 9446   4.217   4.439   3.973
 3161TIP3    H1 9447   4.220   4.445   3.877
 3161TIP3    H2 9448   4.145   4.378   3.990
 3162TIP3   OH2 9449   6.012   2.185   1.626
 3162TIP3    H1 9450   6.041   2.105   1.668
 3162TIP3    H2 9451   6.085   2.246   1.636
 3163TIP3   OH2 9452   3.214   6.575   0.401
 3163TIP3    H1 9453   3.288   6.516   0.413
 3163TIP3    H2 9454   3.144   6.537   0.454
 3164TIP3   OH2 9455   2.937   2.773   4.160
 3164TIP3    H1 9456   2.923   2.866   4.173
 3164TIP3    H2 9457   2.992   2.746   4.233
 3165TIP3   OH2 9458   1.217   1.940   5.368
 3165TIP3    H1 9459   1.281   1.916   5.435
 3165TIP3    H2 9460   1.177   2.020   5.400
 3166TIP3   OH2 9461   3.019   4.442   5.728
 3166TIP3    H1 9462   3.008   4.534   5.753
 3166TIP3    H2 9463   3.061   4.446   5.642
 3167TIP3   OH2 9464   3.772   5.044   4.591
 3167TIP3    H1 9465   3.849   5.090   4.622
 3167TIP3    H2 9466   3.803   4.957   4.568
 3168TIP3   OH2 9467   1.676   0.789   3.334
 3168TIP3    H1 9468   1.635   0.731   3.398
 3168TIP3    H2 9469   1.606   0.849   3.308
 3169TIP3   OH2 9470   2.367   3.898   1.613
 3169TIP3    H1 9471   2.340   3.968   1.672
 3169TIP3    H2 9472   2.461   3.913   1.600
 3170TIP3   OH2 9473   2.183   0.162   1.623
 3170TIP3    H1 9474   2.231   0.245   1.614
 3170TIP3    H2 9475   2.206   0.130   1.710
 3171TIP3   OH2 9476   0.136   2.814   1.366
 3171TIP3    H1 9477   0.191   2.881   1.406
 3171TIP3    H2 9478   0.193   2.737   1.359
 3172TIP3   OH2 9479   4.910   3.912   4.833
 3172TIP3    H1 9480   4.935   3.949   4.917
 3172TIP3    H2 9481   4.867   3.829   4.854
 3173TIP3   OH2 9482   3.958   3.378   0.904
 3173TIP3    H1 9483   3.973   3.285   0.888
 3173TIP3    H2 9484   3.973   3.388   0.998
 3174TIP3   OH2 9485   2.326   1.405   2.195
 3174TIP3    H1 9486   2.250   1.444   2.238
 3174TIP3    H2 9487   2.365   1.348   2.261
 3175TIP3   OH2 9488   1.590   0.349   1.614
 3175TIP3    H1 9489   1.666   0.404   1.631
 3175TIP3    H2 9490   1.624   0.259   1.619
 3176TIP3   OH2 9491   6.198   4.230   4.359
 3176TIP3    H1 9492   6.273   4.287   4.342
 3176TIP3    H2 9493   6.167   4.256   4.446
 3177TIP3   OH2 9494   0.039   6.344   1.763
 3177TIP3    H1 9495   0.036   6.304   1.676
 3177TIP3    H2 9496   0.060   6.436   1.747
 3178TIP3   OH2 9497   5.553   0.919   2.635
 3178TIP3    H1 9498   5.641   0.945   2.606
 3178TIP3    H2 9499   5.508   1.002   2.649
 3179TIP3   OH2 9500   0.226   5.179   3.921
 3179TIP3    H1 9501   0.208   5.161   3.829
 3179TIP3    H2 9502   0.317   5.154   3.934
 3180TIP3   OH2 9503   2.950   4.622   2.175
 3180TIP3    H1 9504   2.865   4.650   2.142
 3180TIP3    H2 9505   2.995   4.584   2.099
 3181TIP3   OH2 9506   4.045   0.968   5.311
 3181TIP3    H1 9507   3.986   0.926   5.248
 3181TIP3    H2 9508   3.986   1.012   5.372
 3182TIP3   OH2 9509   0.323   5.337   4.690
 3182TIP3    H1 9510   0.378   5.415   4.696
 3182TIP3    H2 9511   0.263   5.356   4.618
 3183TIP3   OH2 9512   3.353   2.784   0.155
 3183TIP3    H1 9513   3.440   2.771   0.119
 3183TIP3    H2 9514   3.307   2.838   0.091
 3184TIP3   OH2 9515   6.602   1.381   5.280
 3184TIP3    H1 9516   6.550   1.460   5.296
 3184TIP3    H2 9517   6.646   1.397   5.197
 3185TIP3   OH2 9518   2.565   2.757   1.151
 3185TIP3    H1 9519   2.585   2.665   1.167
 3185TIP3    H2 9520   2.491   2.776   1.208
 3186TIP3   OH2 9521   6.781   2.593   3.795
 3186TIP3    H1 9522   6.855   2.543   3.830
 3186TIP3    H2 9523   6.805   2.684   3.812
 3187TIP3   OH2 9524   1.264   5.522   0.814
 3187TIP3    H1 9525   1.223   5.598   0.774
 3187TIP3    H2 9526   1.196   5.454   0.810
 3188TIP3   OH2 9527   5.898   2.668   3.327
 3188TIP3    H1 9528   5.829   2.625   3.275
 3188TIP3    H2 9529   5.941   2.726   3.265
 3189TIP3   OH2 9530   5.802   5.134   4.137
 3189TIP3    H1 9531   5.772   5.156   4.225
 3189TIP3    H2 9532   5.805   5.218   4.091
 3190TIP3   OH2 9533   2.725   3.145   0.840
 3190TIP3    H1 9534   2.636   3.127   0.870
 3190TIP3    H2 9535   2.754   3.219   0.893
 3191TIP3   OH2 9536   3.610   4.016   0.282
 3191TIP3    H1 9537   3.685   4.076   0.280
 3191TIP3    H2 9538   3.575   4.024   0.371
 3192TIP3   OH2 9539   0.628   4.466   1.236
 3192TIP3    H1 9540   0.701   4.440   1.179
 3192TIP3    H2 9541   0.562   4.399   1.221
 3193TIP3   OH2 9542   6.468   3.185   4.930
 3193TIP3    H1 9543   6.403   3.153   4.868
 3193TIP3    H2 9544   6.482   3.111   4.990
 3194TIP3   OH2 9545   0.034   0.209   5.143
 3194TIP3    H1 9546  -0.028   0.199   5.070
 3194TIP3    H2 9547  -0.014   0.176   5.219
 3195TIP3   OH2 9548   5.207   2.826   3.250
 3195TIP3    H1 9549   5.127   2.820   3.302
 3195TIP3    H2 9550   5.248   2.908   3.278
 3196TIP3   OH2 9551   5.256   0.888   3.928
 3196TIP3    H1 9552   5.210   0.812   3.963
 3196TIP3    H2 9553   5.348   0.869   3.944
 3197TIP3   OH2 9554   2.969   4.845   0.761
 3197TIP3    H1 9555   2.972   4.830   0.856
 3197TIP3    H2 9556   2.966   4.757   0.723
 3198TIP3   OH2 9557   6.549   2.561   3.946
 3198TIP3    H1 9558   6.544   2.473   3.909
 3198TIP3    H2 9559   6.627   2.600   3.905
 3199TIP3   OH2 9560   4.477   3.146   4.741
 3199TIP3    H1 9561   4.559   3.153   4.694
 3199TIP3    H2 9562   4.416   3.201   4.692
 3200TIP3   OH2 9563   4.879   3.099   4.948
 3200TIP3    H1 9564   4.801   3.044   4.954
 3200TIP3    H2 9565   4.952   3.038   4.948
 3201TIP3   OH2 9566   0.374   1.268   2.681
 3201TIP3    H1 9567   0.434   1.273   2.607
 3201TIP3    H2 9568   0.293   1.233   2.645
 3202TIP3   OH2 9569   4.684   4.471   5.039
 3202TIP3    H1 9570   4.652   4.560   5.053
 3202TIP3    H2 9571   4.611   4.427   4.994
 3203TIP3   OH2 9572   0.848   2.849   5.198
 3203TIP3    H1 9573   0.924   2.906   5.185
 3203TIP3    H2 9574   0.859   2.815   5.287
 3204TIP3   OH2 9575   6.880   1.871   1.077
 3204TIP3    H1 9576   6.952   1.933   1.066
 3204TIP3    H2 9577   6.813   1.902   1.017
 3205TIP3   OH2 9578   0.411   2.199   3.161
 3205TIP3    H1 9579   0.320   2.175   3.142
 3205TIP3    H2 9580   0.416   2.200   3.257
 3206TIP3   OH2 9581   3.821   1.076   3.030
 3206TIP3    H1 9582   3.793   1.148   2.974
 3206TIP3    H2 9583   3.912   1.061   3.006
 3207TIP3   OH2 9584   2.370   6.325   4.853
 3207TIP3    H1 9585   2.410   6.259   4.910
 3207TIP3    H2 9586   2.348   6.278   4.773
 3208TIP3   OH2 9587   1.050   1.972   0.106
 3208TIP3    H1 9588   1.032   2.036   0.036
 3208TIP3    H2 9589   1.080   1.894   0.060
 3209TIP3   OH2 9590   1.391   0.902   4.077
 3209TIP3    H1 9591   1.404   0.809   4.096
 3209TIP3    H2 9592   1.316   0.927   4.130
 3210TIP3   OH2 9593   4.355   4.653   5.886
 3210TIP3    H1 9594   4.406   4.581   5.847
 3210TIP3    H2 9595   4.301   4.686   5.814
 3211TIP3   OH2 9596   5.282   5.535   0.108
 3211TIP3    H1 9597   5.294   5.440   0.103
 3211TIP3    H2 9598   5.307   5.557   0.198
 3212TIP3   OH2 9599   1.040   2.735   0.292
 3212TIP3    H1 9600   1.033   2.820   0.335
 3212TIP3    H2 9601   1.030   2.755   0.198
 3213TIP3   OH2 9602   4.434   4.879   0.960
 3213TIP3    H1 9603   4.485   4.814   1.009
 3213TIP3    H2 9604   4.423   4.952   1.021
 3214TIP3   OH2 9605   4.529   6.248   1.478
 3214TIP3    H1 9606   4.490   6.282   1.397
 3214TIP3    H2 9607   4.456   6.245   1.540
 3215TIP3   OH2 9608   2.638   0.205   2.097
 3215TIP3    H1 9609   2.593   0.175   2.018
 3215TIP3    H2 9610   2.718   0.152   2.100
 3216TIP3   OH2 9611   1.888   2.836   2.649
 3216TIP3    H1 9612   1.819   2.872   2.705
 3216TIP3    H2 9613   1.916   2.756   2.693
 3217TIP3   OH2 9614   2.160   1.357   5.502
 3217TIP3    H1 9615   2.092   1.343   5.436
 3217TIP3    H2 9616   2.228   1.407   5.456
 3218TIP3   OH2 9617   2.742   3.650   1.064
 3218TIP3    H1 9618   2.648   3.664   1.054
 3218TIP3    H2 9619   2.778   3.665   0.976
 3219TIP3   OH2 9620   4.820   0.431   4.876
 3219TIP3    H1 9621   4.752   0.366   4.895
 3219TIP3    H2 9622   4.840   0.470   4.962
 3220TIP3   OH2 9623   5.443   5.983   3.948
 3220TIP3    H1 9624   5.359   5.966   3.906
 3220TIP3    H2 9625   5.478   5.897   3.969
 3221TIP3   OH2 9626   3.594   2.190   4.371
 3221TIP3    H1 9627   3.575   2.282   4.353
 3221TIP3    H2 9628   3.670   2.169   4.316
 3222TIP3   OH2 9629   3.313   2.684   2.743
 3222TIP3    H1 9630   3.284   2.775   2.731
 3222TIP3    H2 9631   3.349   2.658   2.658
 3223TIP3   OH2 9632   2.204   6.165   3.576
 3223TIP3    H1 9633   2.237   6.245   3.537
 3223TIP3    H2 9634   2.127   6.192   3.626
 3224TIP3   OH2 9635   4.059   3.573   3.893
 3224TIP3    H1 9636   4.091   3.542   3.808
 3224TIP3    H2 9637   3.966   3.551   3.892
 3225TIP3   OH2 9638   1.610   1.838   3.235
 3225TIP3    H1 9639   1.643   1.881   3.156
 3225TIP3    H2 9640   1.568   1.758   3.202
 3226TIP3   OH2 9641   1.240   1.905   4.051
 3226TIP3    H1 9642   1.239   1.813   4.026
 3226TIP3    H2 9643   1.176   1.911   4.122
 3227TIP3   OH2 9644   3.558   3.767   2.165
 3227TIP3    H1 9645   3.520   3.813   2.239
 3227TIP3    H2 9646   3.571   3.835   2.098
 3228TIP3   OH2 9647   3.370   6.131   4.999
 3228TIP3    H1 9648   3.458   6.149   4.966
 3228TIP3    H2 9649   3.322   6.100   4.922
 3229TIP3   OH2 9650   4.061   4.116   0.368
 3229TIP3    H1 9651   4.126   4.057   0.331
 3229TIP3    H2 9652   4.071   4.107   0.463
 3230TIP3   OH2 9653   4.969   0.331   0.058
 3230TIP3    H1 9654   4.969   0.264   0.127
 3230TIP3    H2 9655   4.896   0.308   0.002
 3231TIP3   OH2 9656   4.282   1.920   0.214
 3231TIP3    H1 9657   4.208   1.981   0.227
 3231TIP3    H2 9658   4.270   1.854   0.282
 3232TIP3   OH2 9659   5.846   0.784   3.198
 3232TIP3    H1 9660   5.839   0.691   3.177
 3232TIP3    H2 9661   5.910   0.818   3.136
 3233TIP3   OH2 9662   5.609   5.177   5.325
 3233TIP3    H1 9663   5.586   5.214   5.411
 3233TIP3    H2 9664   5.586   5.246   5.263
 3234TIP3   OH2 9665   4.247   2.500   3.643
 3234TIP3    H1 9666   4.221   2.565   3.709
 3234TIP3    H2 9667   4.166   2.453   3.622
 3235TIP3   OH2 9668   1.325   5.564   4.237
 3235TIP3    H1 9669   1.245   5.553   4.288
 3235TIP3    H2 9670   1.396   5.557   4.301
 3236TIP3   OH2 9671   2.501   3.365   2.942
 3236TIP3    H1 9672   2.535   3.446   2.904
 3236TIP3    H2 9673   2.521   3.298   2.876
 3237TIP3   OH2 9674   6.025   5.989   3.229
 3237TIP3    H1 9675   6.082   6.043   3.284
 3237TIP3    H2 9676   6.064   5.902   3.232
 3238TIP3   OH2 9677   5.659   1.156   5.104
 3238TIP3    H1 9678   5.686   1.176   5.193
 3238TIP3    H2 9679   5.735   1.111   5.066
 3239TIP3   OH2 9680   5.544   5.506   5.663
 3239TIP3    H1 9681   5.565   5.596   5.690
 3239TIP3    H2 9682   5.489   5.472   5.733
 3240TIP3   OH2 9683   2.467   0.096   4.389
 3240TIP3    H1 9684   2.410   0.075   4.464
 3240TIP3    H2 9685   2.554   0.107   4.427
 3241TIP3   OH2 9686   2.811   3.839   4.656
 3241TIP3    H1 9687   2.769   3.922   4.632
 3241TIP3    H2 9688   2.893   3.865   4.697
 3242TIP3   OH2 9689   4.678   5.632   1.585
 3242TIP3    H1 9690   4.636   5.559   1.632
 3242TIP3    H2 9691   4.676   5.605   1.493
 3243TIP3   OH2 9692   3.198   6.787   0.661
 3243TIP3    H1 9693   3.241   6.872   0.648
 3243TIP3    H2 9694   3.206   6.744   0.576
 3244TIP3   OH2 9695   2.828   0.205   2.757
 3244TIP3    H1 9696   2.830   0.274   2.823
 3244TIP3    H2 9697   2.762   0.233   2.694
 3245TIP3   OH2 9698   4.231   2.177   4.528
 3245TIP3    H1 9699   4.242   2.197   4.621
 3245TIP3    H2 9700   4.276   2.248   4.483
 3246TIP3   OH2 9701   5.824   5.831   5.254
 3246TIP3    H1 9702   5.824   5.802   5.346
 3246TIP3    H2 9703   5.784   5.918   5.256
 3247TIP3   OH2 9704   1.276   6.551   0.019
 3247TIP3    H1 9705   1.249   6.610  -0.052
 3247TIP3    H2 9706   1.304   6.610   0.090
 3248TIP3   OH2 9707   5.707   5.466   4.775
 3248TIP3    H1 9708   5.725   5.378   4.808
 3248TIP3    H2 9709   5.792   5.511   4.780
 3249TIP3   OH2 9710   3.916   1.790   2.561
 3249TIP3    H1 9711   3.952   1.775   2.474
 3249TIP3    H2 9712   3.878   1.706   2.586
 3250TIP3   OH2 9713   1.105   2.699   4.242
 3250TIP3    H1 9714   1.170   2.747   4.190
 3250TIP3    H2 9715   1.072   2.632   4.182
 3251TIP3   OH2 9716   7.151   1.972   1.086
 3251TIP3    H1 9717   7.147   1.887   1.131
 3251TIP3    H2 9718   7.183   2.032   1.153
 3252TIP3   OH2 9719   2.545   4.498   3.177
 3252TIP3    H1 9720   2.602   4.541   3.241
 3252TIP3    H2 9721   2.538   4.408   3.208
 3253TIP3   OH2 9722   7.016   5.828   1.381
 3253TIP3    H1 9723   7.027   5.785   1.297
 3253TIP3    H2 9724   7.069   5.776   1.442
 3254TIP3   OH2 9725   2.679   5.312   4.392
 3254TIP3    H1 9726   2.705   5.403   4.405
 3254TIP3    H2 9727   2.658   5.281   4.479
 3255TIP3   OH2 9728   6.336   4.829   5.306
 3255TIP3    H1 9729   6.429   4.829   5.328
 3255TIP3    H2 9730   6.297   4.896   5.363
 3256TIP3   OH2 9731   3.413   3.651   5.568
 3256TIP3    H1 9732   3.494   3.699   5.586
 3256TIP3    H2 9733   3.442   3.574   5.518
 3257TIP3   OH2 9734   2.765   3.171   3.397
 3257TIP3    H1 9735   2.688   3.137   3.351
 3257TIP3    H2 9736   2.795   3.244   3.344
 3258TIP3   OH2 9737   1.688   0.058   4.341
 3258TIP3    H1 9738   1.673   0.032   4.250
 3258TIP3    H2 9739   1.744  -0.010   4.376
 3259TIP3   OH2 9740   0.635   3.598   0.361
 3259TIP3    H1 9741   0.559   3.571   0.308
 3259TIP3    H2 9742   0.633   3.694   0.358
 3260TIP3   OH2 9743   2.045   5.634   5.791
 3260TIP3    H1 9744   1.975   5.678   5.839
 3260TIP3    H2 9745   2.123   5.643   5.847
 3261TIP3   OH2 9746   4.481   3.748   5.474
 3261TIP3    H1 9747   4.415   3.796   5.523
 3261TIP3    H2 9748   4.533   3.703   5.541
 3262TIP3   OH2 9749   4.578   4.033   4.486
 3262TIP3    H1 9750   4.641   4.014   4.555
 3262TIP3    H2 9751   4.618   4.104   4.436
 3263TIP3   OH2 9752   7.166   6.695   4.219
 3263TIP3    H1 9753   7.183   6.773   4.272
 3263TIP3    H2 9754   7.239   6.690   4.158
 3264TIP3   OH2 9755   3.833   3.406   4.268
 3264TIP3    H1 9756   3.753   3.356   4.281
 3264TIP3    H2 9757   3.803   3.494   4.245
 3265TIP3   OH2 9758   4.211   3.192   0.001
 3265TIP3    H1 9759   4.254   3.131  -0.059
 3265TIP3    H2 9760   4.284   3.242   0.039
 3266TIP3   OH2 9761   3.107   3.895   0.877
 3266TIP3    H1 9762   3.091   3.872   0.969
 3266TIP3    H2 9763   3.048   3.969   0.861
 3267TIP3   OH2 9764   0.560   4.063   0.747
 3267TIP3    H1 9765   0.515   4.126   0.802
 3267TIP3    H2 9766   0.633   4.032   0.801
 3268TIP3   OH2 9767   5.764   3.735   5.823
 3268TIP3    H1 9768   5.719   3.809   5.782
 3268TIP3    H2 9769   5.836   3.714   5.763
 3269TIP3   OH2 9770   0.251   0.792   3.553
 3269TIP3    H1 9771   0.306   0.761   3.482
 3269TIP3    H2 9772   0.176   0.833   3.509
 3270TIP3   OH2 9773   3.305   4.549   4.109
 3270TIP3    H1 9774   3.323   4.641   4.125
 3270TIP3    H2 9775   3.348   4.530   4.026
 3271TIP3   OH2 9776   6.736   5.298   3.334
 3271TIP3    H1 9777   6.697   5.380   3.304
 3271TIP3    H2 9778   6.720   5.237   3.262
 3272TIP3   OH2 9779   3.212   3.028   5.162
 3272TIP3    H1 9780   3.256   2.965   5.104
 3272TIP3    H2 9781   3.196   3.104   5.107
 3273TIP3   OH2 9782   2.651   5.351   1.259
 3273TIP3    H1 9783   2.632   5.322   1.348
 3273TIP3    H2 9784   2.715   5.288   1.225
 3274TIP3   OH2 9785   0.258   6.167   3.963
 3274TIP3    H1 9786   0.295   6.245   3.923
 3274TIP3    H2 9787   0.300   6.094   3.917
 3275TIP3   OH2 9788   0.165   6.667   1.484
 3275TIP3    H1 9789   0.223   6.609   1.434
 3275TIP3    H2 9790   0.077   6.644   1.453
 3276TIP3   OH2 9791   2.071   0.174   5.222
 3276TIP3    H1 9792   2.060   0.249   5.280
 3276TIP3    H2 9793   1.982   0.148   5.198
 3277TIP3   OH2 9794   1.775   0.064   0.716
 3277TIP3    H1 9795   1.770   0.073   0.811
 3277TIP3    H2 9796   1.686   0.043   0.689
 3278TIP3   OH2 9797   3.046   4.955   5.353
 3278TIP3    H1 9798   3.044   5.043   5.317
 3278TIP3    H2 9799   3.017   4.966   5.444
 3279TIP3   OH2 9800   1.828   3.690   1.767
 3279TIP3    H1 9801   1.834   3.784   1.780
 3279TIP3    H2 9802   1.868   3.675   1.681
 3280TIP3   OH2 9803   1.253   3.151   3.034
 3280TIP3    H1 9804   1.160   3.151   3.057
 3280TIP3    H2 9805   1.255   3.134   2.940
 3281TIP3   OH2 9806   5.036   6.307   4.554
 3281TIP3    H1 9807   5.042   6.402   4.555
 3281TIP3    H2 9808   5.108   6.278   4.611
 3282TIP3   OH2 9809   0.354   1.721   3.786
 3282TIP3    H1 9810   0.354   1.641   3.734
 3282TIP3    H2 9811   0.294   1.779   3.739
 3283TIP3   OH2 9812   6.048   4.284   4.606
 3283TIP3    H1 9813   6.078   4.307   4.695
 3283TIP3    H2 9814   5.954   4.269   4.616
 3284TIP3   OH2 9815   2.147   5.055   3.844
 3284TIP3    H1 9816   2.239   5.082   3.838
 3284TIP3    H2 9817   2.098   5.137   3.844
 3285TIP3   OH2 9818   6.923   0.388   5.495
 3285TIP3    H1 9819   6.952   0.383   5.586
 3285TIP3    H2 9820   6.828   0.378   5.500
 3286TIP3   OH2 9821   3.069   3.772   1.138
 3286TIP3    H1 9822   2.985   3.817   1.145
 3286TIP3    H2 9823   3.084   3.736   1.225
 3287TIP3   OH2 9824   2.012   3.310   1.623
 3287TIP3    H1 9825   1.989   3.383   1.566
 3287TIP3    H2 9826   1.958   3.237   1.590
 3288TIP3   OH2 9827   0.936   4.306   2.965
 3288TIP3    H1 9828   0.964   4.291   3.055
 3288TIP3    H2 9829   0.862   4.367   2.973
 3289TIP3   OH2 9830   4.327   2.305   0.879
 3289TIP3    H1 9831   4.238   2.294   0.846
 3289TIP3    H2 9832   4.317   2.348   0.964
 3290TIP3   OH2 9833   0.459   2.662   4.206
 3290TIP3    H1 9834   0.511   2.729   4.249
 3290TIP3    H2 9835   0.498   2.653   4.119
 3291TIP3   OH2 9836   2.336   3.563   4.357
 3291TIP3    H1 9837   2.389   3.641   4.368
 3291TIP3    H2 9838   2.349   3.537   4.266
 3292TIP3   OH2 9839   2.121   4.623   0.347
 3292TIP3    H1 9840   2.184   4.688   0.379
 3292TIP3    H2 9841   2.145   4.542   0.394
 3293TIP3   OH2 9842   7.033   1.301   5.487
 3293TIP3    H1 9843   6.983   1.369   5.441
 3293TIP3    H2 9844   6.982   1.221   5.474
 3294TIP3   OH2 9845   2.461   4.743   3.979
 3294TIP3    H1 9846   2.454   4.758   3.885
 3294TIP3    H2 9847   2.501   4.822   4.013
 3295TIP3   OH2 9848   5.351   3.516   0.435
 3295TIP3    H1 9849   5.325   3.425   0.420
 3295TIP3    H2 9850   5.425   3.510   0.495
 3296TIP3   OH2 9851   6.190   4.115   1.495
 3296TIP3    H1 9852   6.166   4.027   1.465
 3296TIP3    H2 9853   6.267   4.138   1.444
 3297TIP3   OH2 9854   3.642   5.269   2.711
 3297TIP3    H1 9855   3.723   5.319   2.720
 3297TIP3    H2 9856   3.608   5.293   2.625
 3298TIP3   OH2 9857   6.702   6.798   1.166
 3298TIP3    H1 9858   6.625   6.781   1.111
 3298TIP3    H2 9859   6.710   6.894   1.167
 3299TIP3   OH2 9860   1.514   2.938   2.709
 3299TIP3    H1 9861   1.530   2.927   2.616
 3299TIP3    H2 9862   1.454   2.867   2.732
 3300TIP3   OH2 9863   2.244   1.622   5.949
 3300TIP3    H1 9864   2.190   1.554   5.908
 3300TIP3    H2 9865   2.333   1.603   5.919
 3301TIP3   OH2 9866   7.019   3.617   1.196
 3301TIP3    H1 9867   7.024   3.713   1.194
 3301TIP3    H2 9868   6.998   3.592   1.106
 3302TIP3   OH2 9869   3.913   0.853   5.752
 3302TIP3    H1 9870   3.924   0.936   5.799
 3302TIP3    H2 9871   3.838   0.868   5.695
 3303TIP3   OH2 9872   4.903   6.256   5.304
 3303TIP3    H1 9873   4.926   6.329   5.246
 3303TIP3    H2 9874   4.970   6.190   5.287
 3304TIP3   OH2 9875   2.039   3.709   5.100
 3304TIP3    H1 9876   2.124   3.705   5.144
 3304TIP3    H2 9877   1.977   3.730   5.170
 3305TIP3   OH2 9878   1.604   5.807   5.062
 3305TIP3    H1 9879   1.587   5.811   5.156
 3305TIP3    H2 9880   1.616   5.713   5.044
 3306TIP3   OH2 9881   5.763   2.504   0.827
 3306TIP3    H1 9882   5.721   2.493   0.912
 3306TIP3    H2 9883   5.767   2.599   0.814
 3307TIP3   OH2 9884   1.790   1.942   1.608
 3307TIP3    H1 9885   1.837   1.883   1.549
 3307TIP3    H2 9886   1.818   1.915   1.696
 3308TIP3   OH2 9887   4.769   6.244   0.715
 3308TIP3    H1 9888   4.784   6.209   0.803
 3308TIP3    H2 9889   4.841   6.207   0.662
 3309TIP3   OH2 9890   1.645   0.482   0.573
 3309TIP3    H1 9891   1.593   0.497   0.652
 3309TIP3    H2 9892   1.705   0.556   0.569
 3310TIP3   OH2 9893   5.406   4.979   4.621
 3310TIP3    H1 9894   5.385   5.026   4.541
 3310TIP3    H2 9895   5.335   5.001   4.682
 3311TIP3   OH2 9896   5.197   3.457   1.450
 3311TIP3    H1 9897   5.103   3.443   1.442
 3311TIP3    H2 9898   5.234   3.369   1.463
 3312TIP3   OH2 9899   3.043   1.778   1.382
 3312TIP3    H1 9900   2.967   1.780   1.324
 3312TIP3    H2 9901   3.069   1.686   1.385
 3313TIP3   OH2 9902   2.371   3.409   0.471
 3313TIP3    H1 9903   2.450   3.375   0.429
 3313TIP3    H2 9904   2.320   3.331   0.493
 3314TIP3   OH2 9905   5.462   1.771   1.008
 3314TIP3    H1 9906   5.372   1.740   0.998
 3314TIP3    H2 9907   5.453   1.863   1.031
 3315TIP3   OH2 9908   5.405   3.535   2.125
 3315TIP3    H1 9909   5.435   3.495   2.043
 3315TIP3    H2 9910   5.447   3.482   2.194
 3316TIP3   OH2 9911   3.963   3.873   1.693
 3316TIP3    H1 9912   3.919   3.890   1.777
 3316TIP3    H2 9913   3.900   3.900   1.627
 3317TIP3   OH2 9914   0.310   1.229   2.369
 3317TIP3    H1 9915   0.249   1.242   2.296
 3317TIP3    H2 9916   0.364   1.308   2.370
 3318TIP3   OH2 9917   5.170   0.294   2.095
 3318TIP3    H1 9918   5.110   0.359   2.131
 3318TIP3    H2 9919   5.148   0.213   2.141
 3319TIP3   OH2 9920   0.330   3.164   1.031
 3319TIP3    H1 9921   0.325   3.177   1.126
 3319TIP3    H2 9922   0.421   3.138   1.016
 3320TIP3   OH2 9923   3.184   4.324   1.855
 3320TIP3    H1 9924   3.258   4.368   1.896
 3320TIP3    H2 9925   3.215   4.234   1.840
 3321TIP3   OH2 9926   1.913   3.624   2.809
 3321TIP3    H1 9927   1.836   3.680   2.817
 3321TIP3    H2 9928   1.899   3.554   2.873
 3322TIP3   OH2 9929   0.320   0.161   2.645
 3322TIP3    H1 9930   0.235   0.130   2.614
 3322TIP3    H2 9931   0.301   0.239   2.697
 3323TIP3   OH2 9932   6.769   2.698   0.483
 3323TIP3    H1 9933   6.718   2.620   0.505
 3323TIP3    H2 9934   6.856   2.682   0.519
 3324TIP3   OH2 9935   1.340   5.466   2.221
 3324TIP3    H1 9936   1.382   5.550   2.208
 3324TIP3    H2 9937   1.347   5.449   2.315
 3325TIP3   OH2 9938   0.037   6.220   5.687
 3325TIP3    H1 9939   0.067   6.141   5.732
 3325TIP3    H2 9940   0.037   6.196   5.594
 3326TIP3   OH2 9941   0.395   0.249   0.518
 3326TIP3    H1 9942   0.306   0.214   0.513
 3326TIP3    H2 9943   0.407   0.272   0.610
 3327TIP3   OH2 9944   1.075   6.118   0.784
 3327TIP3    H1 9945   1.014   6.049   0.760
 3327TIP3    H2 9946   1.085   6.110   0.879
 3328TIP3   OH2 9947   1.589   2.938   5.486
 3328TIP3    H1 9948   1.564   2.883   5.560
 3328TIP3    H2 9949   1.560   3.026   5.511
 3329TIP3   OH2 9950   4.598   1.022   0.207
 3329TIP3    H1 9951   4.594   1.020   0.111
 3329TIP3    H2 9952   4.639   0.938   0.230
 3330TIP3   OH2 9953   6.266   4.677   0.638
 3330TIP3    H1 9954   6.273   4.704   0.729
 3330TIP3    H2 9955   6.352   4.639   0.618
 3331TIP3   OH2 9956   5.115   3.567   2.056
 3331TIP3    H1 9957   5.069   3.651   2.057
 3331TIP3    H2 9958   5.198   3.585   2.101
 3332TIP3   OH2 9959   2.419   6.752   2.250
 3332TIP3    H1 9960   2.328   6.778   2.263
 3332TIP3    H2 9961   2.454   6.738   2.338
 3333TIP3   OH2 9962   6.483   4.028   1.728
 3333TIP3    H1 9963   6.520   4.116   1.740
 3333TIP3    H2 9964   6.468   3.997   1.817
 3334TIP3   OH2 9965   4.507   2.427   0.219
 3334TIP3    H1 9966   4.503   2.354   0.281
 3334TIP3    H2 9967   4.474   2.502   0.269
 3335TIP3   OH2 9968   1.097   0.192   5.084
 3335TIP3    H1 9969   1.018   0.139   5.089
 3335TIP3    H2 9970   1.099   0.241   5.166
 3336TIP3   OH2 9971   6.913   6.664   1.328
 3336TIP3    H1 9972   6.860   6.585   1.320
 3336TIP3    H2 9973   6.888   6.718   1.254
 3337TIP3   OH2 9974   5.966   1.671   0.086
 3337TIP3    H1 9975   5.970   1.603   0.020
 3337TIP3    H2 9976   5.876   1.705   0.080
 3338TIP3   OH2 9977   6.110   1.850   3.477
 3338TIP3    H1 9978   6.098   1.913   3.548
 3338TIP3    H2 9979   6.205   1.838   3.472
 3339TIP3   OH2 9980   3.621   0.064   3.740
 3339TIP3    H1 9981   3.666   0.093   3.820
 3339TIP3    H2 9982   3.654   0.123   3.672
 3340TIP3   OH2 9983   3.747   1.412   0.103
 3340TIP3    H1 9984   3.812   1.465   0.151
 3340TIP3    H2 9985   3.764   1.322   0.131
 3341TIP3   OH2 9986   2.838   2.362   1.371
 3341TIP3    H1 9987   2.787   2.283   1.354
 3341TIP3    H2 9988   2.899   2.336   1.441
 3342TIP3   OH2 9989   6.720   5.304   1.764
 3342TIP3    H1 9990   6.719   5.292   1.669
 3342TIP3    H2 9991   6.653   5.370   1.781
 3343TIP3   OH2 9992   2.277   0.212   0.282
 3343TIP3    H1 9993   2.313   0.231   0.195
 3343TIP3    H2 9994   2.227   0.131   0.271
 3344TIP3   OH2 9995   5.534   3.480   2.985
 3344TIP3    H1 9996   5.451   3.510   2.947
 3344TIP3    H2 9997   5.601   3.526   2.934
 3345TIP3   OH2 9998   0.939   0.181   2.632
 3345TIP3    H1 9999   0.936   0.178   2.536
 3345TIP3    H210000   0.858   0.139   2.660
 3346TIP3   OH210001   6.904   4.514   1.110
 3346TIP3    H110002   6.818   4.478   1.133
 3346TIP3    H210003   6.906   4.511   1.014
 3347TIP3   OH210004   2.827   6.553   4.444
 3347TIP3    H110005   2.901   6.585   4.392
 3347TIP3    H210006   2.857   6.469   4.478
 3348TIP3   OH210007   0.221   4.099   4.670
 3348TIP3    H110008   0.245   4.089   4.762
 3348TIP3    H210009   0.274   4.035   4.623
 3349TIP3   OH210010   1.445   5.551   3.353
 3349TIP3    H110011   1.401   5.527   3.434
 3349TIP3    H210012   1.512   5.484   3.341
 3350TIP3   OH210013   1.316   5.760   3.824
 3350TIP3    H110014   1.304   5.844   3.870
 3350TIP3    H210015   1.406   5.735   3.844
 3351TIP3   OH210016   3.147   6.798   0.269
 3351TIP3    H110017   3.184   6.782   0.182
 3351TIP3    H210018   3.163   6.717   0.317
 3352TIP3   OH210019   6.945   2.092   3.243
 3352TIP3    H110020   6.884   2.061   3.311
 3352TIP3    H210021   6.905   2.172   3.210
 3353TIP3   OH210022   4.558   3.124   3.131
 3353TIP3    H110023   4.523   3.165   3.210
 3353TIP3    H210024   4.486   3.069   3.099
 3354TIP3   OH210025   0.449   1.452   4.720
 3354TIP3    H110026   0.382   1.447   4.788
 3354TIP3    H210027   0.410   1.506   4.651
 3355TIP3   OH210028   3.515   3.394   5.444
 3355TIP3    H110029   3.434   3.373   5.489
 3355TIP3    H210030   3.523   3.326   5.376
 3356TIP3   OH210031   3.402   0.679   2.819
 3356TIP3    H110032   3.457   0.632   2.757
 3356TIP3    H210033   3.463   0.730   2.872
 3357TIP3   OH210034   5.964   3.806   4.889
 3357TIP3    H110035   6.045   3.796   4.938
 3357TIP3    H210036   5.911   3.731   4.916
 3358TIP3   OH210037   5.234   5.374   0.423
 3358TIP3    H110038   5.228   5.469   0.410
 3358TIP3    H210039   5.143   5.345   0.431
 3359TIP3   OH210040   5.182   3.698   3.298
 3359TIP3    H110041   5.273   3.676   3.317
 3359TIP3    H210042   5.135   3.680   3.380
 3360TIP3   OH210043   0.062   2.103   0.896
 3360TIP3    H110044   0.012   2.066   0.970
 3360TIP3    H210045   0.032   2.054   0.820
 3361TIP3   OH210046   5.997   5.509   3.432
 3361TIP3    H110047   5.908   5.484   3.454
 3361TIP3    H210048   6.003   5.601   3.459
 3362TIP3   OH210049   1.642   5.788   5.668
 3362TIP3    H110050   1.717   5.840   5.640
 3362TIP3    H210051   1.614   5.828   5.750
 3363TIP3   OH210052   1.238   1.089   0.937
 3363TIP3    H110053   1.319   1.078   0.986
 3363TIP3    H210054   1.266   1.117   0.850
 3364TIP3   OH210055   1.096   4.077   4.315
 3364TIP3    H110056   1.156   4.057   4.243
 3364TIP3    H210057   1.012   4.042   4.287
 3365TIP3   OH210058   1.268   3.246   5.731
 3365TIP3    H110059   1.230   3.204   5.808
 3365TIP3    H210060   1.192   3.272   5.678
 3366TIP3   OH210061   1.913   1.712   5.909
 3366TIP3    H110062   1.927   1.739   5.818
 3366TIP3    H210063   1.996   1.732   5.953
 3367TIP3   OH210064   5.590   3.943   5.268
 3367TIP3    H110065   5.533   3.901   5.332
 3367TIP3    H210066   5.591   4.035   5.294
 3368TIP3   OH210067   2.688   5.955   5.122
 3368TIP3    H110068   2.691   5.871   5.166
 3368TIP3    H210069   2.730   5.940   5.037
 3369TIP3   OH210070   0.901   0.874   3.376
 3369TIP3    H110071   0.973   0.827   3.417
 3369TIP3    H210072   0.938   0.959   3.353
 3370TIP3   OH210073   4.425   1.400   5.450
 3370TIP3    H110074   4.459   1.488   5.466
 3370TIP3    H210075   4.433   1.387   5.356
 3371TIP3   OH210076   4.137   0.395   5.750
 3371TIP3    H110077   4.198   0.407   5.823
 3371TIP3    H210078   4.104   0.483   5.732
 3372TIP3   OH210079   3.402   3.120   4.518
 3372TIP3    H110080   3.379   3.175   4.593
 3372TIP3    H210081   3.401   3.179   4.443
 3373TIP3   OH210082   5.315   0.118   3.696
 3373TIP3    H110083   5.329   0.053   3.627
 3373TIP3    H210084   5.284   0.067   3.771
 3374TIP3   OH210085   0.122   4.392   5.187
 3374TIP3    H110086   0.131   4.418   5.279
 3374TIP3    H210087   0.060   4.319   5.189
 3375TIP3   OH210088   3.792   4.193   0.361
 3375TIP3    H110089   3.809   4.167   0.451
 3375TIP3    H210090   3.872   4.238   0.334
 3376TIP3   OH210091   6.725   3.417   3.519
 3376TIP3    H110092   6.788   3.486   3.498
 3376TIP3    H210093   6.678   3.401   3.437
 3377TIP3   OH210094   3.663   2.751   0.596
 3377TIP3    H110095   3.741   2.697   0.609
 3377TIP3    H210096   3.687   2.836   0.632
 3378TIP3   OH210097   3.266   1.755   5.394
 3378TIP3    H110098   3.308   1.700   5.461
 3378TIP3    H210099   3.172   1.751   5.415
 3379TIP3   OH210100   6.522   6.287   0.478
 3379TIP3    H110101   6.479   6.371   0.462
 3379TIP3    H210102   6.450   6.224   0.486
 3380TIP3   OH210103   3.198   0.927   3.088
 3380TIP3    H110104   3.137   0.935   3.161
 3380TIP3    H210105   3.147   0.950   3.010
 3381TIP3   OH210106   6.655   2.924   5.429
 3381TIP3    H110107   6.690   2.881   5.507
 3381TIP3    H210108   6.732   2.946   5.377
 3382TIP3   OH210109   2.232   2.093   1.603
 3382TIP3    H110110   2.149   2.124   1.568
 3382TIP3    H210111   2.279   2.173   1.627
 3383TIP3   OH210112   2.613   6.385   2.460
 3383TIP3    H110113   2.664   6.352   2.534
 3383TIP3    H210114   2.532   6.416   2.500
 3384TIP3   OH210115   5.392   6.698   0.860
 3384TIP3    H110116   5.311   6.724   0.903
 3384TIP3    H210117   5.435   6.780   0.836
 3385TIP3   OH210118   6.604   4.925   5.638
 3385TIP3    H110119   6.542   4.867   5.681
 3385TIP3    H210120   6.619   4.886   5.552
 3386TIP3   OH210121  -0.040   6.487   5.587
 3386TIP3    H110122  -0.018   6.395   5.594
 3386TIP3    H210123   0.030   6.532   5.634
 3387TIP3   OH210124   6.071   6.059   4.891
 3387TIP3    H110125   5.995   6.003   4.908
 3387TIP3    H210126   6.108   6.076   4.978
 3388TIP3   OH210127   3.001   0.199   3.876
 3388TIP3    H110128   2.911   0.229   3.863
 3388TIP3    H210129   3.016   0.134   3.807
 3389TIP3   OH210130   0.333   0.425   4.937
 3389TIP3    H110131   0.300   0.504   4.981
 3389TIP3    H210132   0.410   0.455   4.889
 3390TIP3   OH210133   2.630   6.417   0.202
 3390TIP3    H110134   2.602   6.471   0.128
 3390TIP3    H210135   2.718   6.449   0.224
 3391TIP3   OH210136   6.112   5.133   5.183
 3391TIP3    H110137   6.096   5.223   5.213
 3391TIP3    H210138   6.138   5.085   5.261
 3392TIP3   OH210139   3.886   4.274   5.265
 3392TIP3    H110140   3.868   4.184   5.237
 3392TIP3    H210141   3.980   4.284   5.251
 3393TIP3   OH210142   5.460   0.794   4.267
 3393TIP3    H110143   5.394   0.725   4.276
 3393TIP3    H210144   5.492   0.807   4.357
 3394TIP3   OH210145   6.637   1.433   3.183
 3394TIP3    H110146   6.727   1.433   3.217
 3394TIP3    H210147   6.607   1.523   3.197
 3395TIP3   OH210148   6.193   0.637   4.681
 3395TIP3    H110149   6.105   0.672   4.694
 3395TIP3    H210150   6.219   0.670   4.595
 3396TIP3   OH210151   7.068   4.842   3.932
 3396TIP3    H110152   7.115   4.759   3.939
 3396TIP3    H210153   7.048   4.852   3.839
 3397TIP3   OH210154   4.568   5.182   0.661
 3397TIP3    H110155   4.567   5.181   0.757
 3397TIP3    H210156   4.513   5.256   0.638
 3398TIP3   OH210157   4.129   0.204   4.371
 3398TIP3    H110158   4.144   0.144   4.298
 3398TIP3    H210159   4.118   0.290   4.330
 3399TIP3   OH210160   3.078   1.408   0.802
 3399TIP3    H110161   3.107   1.457   0.725
 3399TIP3    H210162   2.994   1.371   0.777
 3400TIP3   OH210163   3.098   2.226   2.490
 3400TIP3    H110164   3.111   2.299   2.550
 3400TIP3    H210165   3.112   2.147   2.543
 3401TIP3   OH210166   1.731   4.257   0.581
 3401TIP3    H110167   1.674   4.214   0.517
 3401TIP3    H210168   1.743   4.191   0.650
 3402TIP3   OH210169   4.544   0.264   2.456
 3402TIP3    H110170   4.522   0.357   2.460
 3402TIP3    H210171   4.635   0.260   2.485
 3403TIP3   OH210172   6.353   1.288   5.665
 3403TIP3    H110173   6.385   1.375   5.640
 3403TIP3    H210174   6.263   1.286   5.634
 3404TIP3   OH210175   4.794   5.758   1.179
 3404TIP3    H110176   4.875   5.782   1.134
 3404TIP3    H210177   4.823   5.705   1.254
 3405TIP3   OH210178   0.237   0.809   5.679
 3405TIP3    H110179   0.257   0.737   5.620
 3405TIP3    H210180   0.194   0.768   5.754
 3406TIP3   OH210181   1.128   4.588   3.600
 3406TIP3    H110182   1.216   4.602   3.637
 3406TIP3    H210183   1.118   4.658   3.537
 3407TIP3   OH210184   1.118   5.154   3.967
 3407TIP3    H110185   1.084   5.068   3.942
 3407TIP3    H210186   1.213   5.144   3.963
 3408TIP3   OH210187   7.119   2.177   0.644
 3408TIP3    H110188   7.196   2.195   0.590
 3408TIP3    H210189   7.129   2.085   0.669
 3409TIP3   OH210190   5.213   0.913   4.423
 3409TIP3    H110191   5.214   0.834   4.370
 3409TIP3    H210192   5.294   0.958   4.402
 3410TIP3   OH210193   3.743   0.591   4.272
 3410TIP3    H110194   3.731   0.538   4.351
 3410TIP3    H210195   3.694   0.545   4.205
 3411TIP3   OH210196   0.761   6.067   0.227
 3411TIP3    H110197   0.764   6.157   0.259
 3411TIP3    H210198   0.841   6.026   0.260
 3412TIP3   OH210199   6.591   2.350   1.695
 3412TIP3    H110200   6.648   2.357   1.619
 3412TIP3    H210201   6.513   2.401   1.672
 3413TIP3   OH210202   1.198   1.239   0.270
 3413TIP3    H110203   1.204   1.244   0.365
 3413TIP3    H210204   1.231   1.324   0.239
 3414TIP3   OH210205   6.909   2.841   1.890
 3414TIP3    H110206   6.882   2.861   1.979
 3414TIP3    H210207   6.835   2.867   1.836
 3415TIP3   OH210208   6.351   0.227   3.879
 3415TIP3    H110209   6.356   0.318   3.908
 3415TIP3    H210210   6.262   0.218   3.843
 3416TIP3   OH210211   1.080   2.462   5.146
 3416TIP3    H110212   1.140   2.437   5.076
 3416TIP3    H210213   1.097   2.555   5.161
 3417TIP3   OH210214   6.606   4.230   1.887
 3417TIP3    H110215   6.592   4.229   1.981
 3417TIP3    H210216   6.561   4.309   1.857
 3418TIP3   OH210217   7.074   4.229   0.610
 3418TIP3    H110218   7.159   4.272   0.597
 3418TIP3    H210219   7.094   4.155   0.667
 3419TIP3   OH210220   5.291   4.214   1.273
 3419TIP3    H110221   5.232   4.206   1.198
 3419TIP3    H210222   5.366   4.158   1.252
 3420TIP3   OH210223   3.153   0.550   5.745
 3420TIP3    H110224   3.058   0.555   5.750
 3420TIP3    H210225   3.184   0.600   5.821
 3421TIP3   OH210226   5.886   0.940   1.644
 3421TIP3    H110227   5.961   0.934   1.585
 3421TIP3    H210228   5.851   1.027   1.630
 3422TIP3   OH210229   5.055   6.047   4.940
 3422TIP3    H110230   4.969   6.084   4.918
 3422TIP3    H210231   5.114   6.084   4.874
 3423TIP3   OH210232   2.183   0.513   2.115
 3423TIP3    H110233   2.221   0.425   2.111
 3423TIP3    H210234   2.223   0.560   2.041
 3424TIP3   OH210235   1.654   4.158   1.189
 3424TIP3    H110236   1.749   4.162   1.203
 3424TIP3    H210237   1.628   4.077   1.232
 3425TIP3   OH210238   2.497   2.230   4.711
 3425TIP3    H110239   2.566   2.176   4.674
 3425TIP3    H210240   2.537   2.270   4.788
 3426TIP3   OH210241   5.717   2.133   5.316
 3426TIP3    H110242   5.710   2.227   5.332
 3426TIP3    H210243   5.643   2.112   5.259
 3427TIP3   OH210244   5.186   4.674   2.367
 3427TIP3    H110245   5.181   4.654   2.460
 3427TIP3    H210246   5.114   4.736   2.352
 3428TIP3   OH210247   4.603   4.580   4.462
 3428TIP3    H110248   4.694   4.558   4.482
 3428TIP3    H210249   4.572   4.628   4.539
 3429TIP3   OH210250   1.903   2.859   5.058
 3429TIP3    H110251   1.998   2.849   5.063
 3429TIP3    H210252   1.871   2.774   5.027
 3430TIP3   OH210253   4.610   0.272   2.112
 3430TIP3    H110254   4.562   0.201   2.154
 3430TIP3    H210255   4.597   0.258   2.018
 3431TIP3   OH210256   3.582   3.954   1.296
 3431TIP3    H110257   3.632   3.899   1.235
 3431TIP3    H210258   3.490   3.940   1.271
 3432TIP3   OH210259   3.069   2.654   3.655
 3432TIP3    H110260   3.007   2.583   3.672
 3432TIP3    H210261   3.052   2.718   3.725
 3433TIP3   OH210262   0.051   3.669   5.172
 3433TIP3    H110263  -0.034   3.629   5.192
 3433TIP3    H210264   0.083   3.619   5.096
 3434TIP3   OH210265   5.201   1.050   2.478
 3434TIP3    H110266   5.132   1.084   2.420
 3434TIP3    H210267   5.208   1.114   2.548
 3435TIP3   OH210268   4.569   0.252   1.849
 3435TIP3    H110269   4.541   0.284   1.763
 3435TIP3    H210270   4.662   0.232   1.838
 3436TIP3   OH210271   3.929   4.204   1.633
 3436TIP3    H110272   3.901   4.295   1.625
 3436TIP3    H210273   4.020   4.209   1.663
 3437TIP3   OH210274   1.738   5.252   0.660
 3437TIP3    H110275   1.792   5.261   0.581
 3437TIP3    H210276   1.699   5.164   0.652
 3438TIP3   OH210277   5.081   5.990   2.824
 3438TIP3    H110278   5.112   6.035   2.902
 3438TIP3    H210279   5.160   5.960   2.780
 3439TIP3   OH210280   0.421   5.511   3.910
 3439TIP3    H110281   0.431   5.595   3.954
 3439TIP3    H210282   0.503   5.500   3.862
 3440TIP3   OH210283   6.303   5.922   3.604
 3440TIP3    H110284   6.358   5.959   3.535
 3440TIP3    H210285   6.365   5.892   3.671
 3441TIP3   OH210286   4.384   1.226   4.579
 3441TIP3    H110287   4.367   1.136   4.607
 3441TIP3    H210288   4.308   1.249   4.525
 3442TIP3   OH210289   5.490   5.823   1.605
 3442TIP3    H110290   5.557   5.845   1.670
 3442TIP3    H210291   5.488   5.899   1.546
 3443TIP3   OH210292   5.329   2.337   3.877
 3443TIP3    H110293   5.236   2.335   3.902
 3443TIP3    H210294   5.361   2.421   3.909
 3444TIP3   OH210295   2.538   1.570   4.338
 3444TIP3    H110296   2.618   1.584   4.289
 3444TIP3    H210297   2.503   1.487   4.303
 3445TIP3   OH210298   1.105   4.979   1.986
 3445TIP3    H110299   1.046   5.011   2.054
 3445TIP3    H210300   1.057   4.906   1.945
 3446TIP3   OH210301   5.600   3.801   3.302
 3446TIP3    H110302   5.533   3.753   3.351
 3446TIP3    H210303   5.556   3.831   3.223
 3447TIP3   OH210304   4.262   2.763   4.939
 3447TIP3    H110305   4.267   2.719   4.854
 3447TIP3    H210306   4.330   2.830   4.936
 3448TIP3   OH210307   4.249   5.778   3.158
 3448TIP3    H110308   4.341   5.788   3.132
 3448TIP3    H210309   4.232   5.854   3.213
 3449TIP3   OH210310   5.584   3.467   1.903
 3449TIP3    H110311   5.638   3.412   1.846
 3449TIP3    H210312   5.535   3.523   1.844
 3450TIP3   OH210313   6.240   3.732   0.140
 3450TIP3    H110314   6.155   3.772   0.123
 3450TIP3    H210315   6.244   3.658   0.079
 3451TIP3   OH210316   5.677   3.362   5.226
 3451TIP3    H110317   5.713   3.339   5.140
 3451TIP3    H210318   5.641   3.450   5.214
 3452TIP3   OH210319   0.776   2.678   2.305
 3452TIP3    H110320   0.743   2.629   2.229
 3452TIP3    H210321   0.712   2.661   2.374
 3453TIP3   OH210322   3.359   4.202   4.910
 3453TIP3    H110323   3.368   4.270   4.977
 3453TIP3    H210324   3.438   4.148   4.921
 3454TIP3   OH210325   1.121   1.126   3.452
 3454TIP3    H110326   1.052   1.151   3.514
 3454TIP3    H210327   1.096   1.167   3.370
 3455TIP3   OH210328   4.571   3.319   2.892
 3455TIP3    H110329   4.607   3.349   2.976
 3455TIP3    H210330   4.498   3.263   2.915
 3456TIP3   OH210331   6.171   3.154   5.258
 3456TIP3    H110332   6.154   3.131   5.167
 3456TIP3    H210333   6.168   3.250   5.260
 3457TIP3   OH210334   1.836   5.426   4.151
 3457TIP3    H110335   1.908   5.391   4.098
 3457TIP3    H210336   1.850   5.388   4.238
 3458TIP3   OH210337   5.750   3.272   1.755
 3458TIP3    H110338   5.790   3.245   1.672
 3458TIP3    H210339   5.656   3.268   1.739
 3459TIP3   OH210340   3.028   5.887   4.051
 3459TIP3    H110341   2.963   5.834   4.098
 3459TIP3    H210342   3.112   5.857   4.085
 3460TIP3   OH210343   1.009   5.951   3.198
 3460TIP3    H110344   0.938   5.952   3.134
 3460TIP3    H210345   1.049   5.865   3.188
 3461TIP3   OH210346   4.550   4.882   2.177
 3461TIP3    H110347   4.540   4.970   2.215
 3461TIP3    H210348   4.550   4.897   2.083
 3462TIP3   OH210349   0.299   0.625   5.477
 3462TIP3    H110350   0.288   0.707   5.429
 3462TIP3    H210351   0.222   0.573   5.454
 3463TIP3   OH210352   4.529   4.031   0.723
 3463TIP3    H110353   4.458   4.005   0.665
 3463TIP3    H210354   4.551   4.120   0.694
 3464TIP3   OH210355   5.830   0.988   4.973
 3464TIP3    H110356   5.856   0.902   5.004
 3464TIP3    H210357   5.758   0.971   4.911
 3465TIP3   OH210358   2.100   3.359   3.027
 3465TIP3    H110359   2.015   3.399   3.047
 3465TIP3    H210360   2.098   3.344   2.932
 3466TIP3   OH210361   4.049   0.481   5.008
 3466TIP3    H110362   4.080   0.506   4.921
 3466TIP3    H210363   4.120   0.427   5.044
 3467TIP3   OH210364   5.893   2.529   4.575
 3467TIP3    H110365   5.910   2.483   4.492
 3467TIP3    H210366   5.853   2.462   4.631
 3468TIP3   OH210367   0.299   0.313   3.234
 3468TIP3    H110368   0.262   0.328   3.147
 3468TIP3    H210369   0.343   0.228   3.228
 3469TIP3   OH210370   2.306   5.963   1.030
 3469TIP3    H110371   2.313   6.057   1.014
 3469TIP3    H210372   2.229   5.954   1.086
 3470TIP3   OH210373   0.302   0.061   3.425
 3470TIP3    H110374   0.232   0.117   3.458
 3470TIP3    H210375   0.318  -0.002   3.495
 3471TIP3   OH210376   4.239   5.450   1.011
 3471TIP3    H110377   4.330   5.476   1.030
 3471TIP3    H210378   4.244   5.355   0.999
 3472TIP3   OH210379   4.108   0.063   0.401
 3472TIP3    H110380   4.067  -0.022   0.391
 3472TIP3    H210381   4.189   0.045   0.450
 3473TIP3   OH210382   2.286   0.378   3.754
 3473TIP3    H110383   2.202   0.342   3.727
 3473TIP3    H210384   2.314   0.323   3.827
 3474TIP3   OH210385   0.680   0.448   1.405
 3474TIP3    H110386   0.609   0.484   1.458
 3474TIP3    H210387   0.708   0.370   1.453
 3475TIP3   OH210388   0.074   3.148   0.969
 3475TIP3    H110389   0.085   3.056   0.993
 3475TIP3    H210390   0.162   3.185   0.974
 3476TIP3   OH210391   4.544   5.279   3.699
 3476TIP3    H110392   4.449   5.281   3.687
 3476TIP3    H210393   4.561   5.191   3.733
 3477TIP3   OH210394   4.518   3.892   5.206
 3477TIP3    H110395   4.499   3.963   5.145
 3477TIP3    H210396   4.477   3.920   5.288
 3478TIP3   OH210397   1.532   2.129   4.051
 3478TIP3    H110398   1.579   2.046   4.053
 3478TIP3    H210399   1.553   2.166   3.965
 3479TIP3   OH210400   1.715   6.659   4.017
 3479TIP3    H110401   1.805   6.671   3.988
 3479TIP3    H210402   1.722   6.633   4.109
 3480TIP3   OH210403   5.497   2.195   3.509
 3480TIP3    H110404   5.468   2.270   3.457
 3480TIP3    H210405   5.560   2.149   3.453
 3481TIP3   OH210406   1.780   0.416   0.917
 3481TIP3    H110407   1.709   0.365   0.880
 3481TIP3    H210408   1.778   0.499   0.868
 3482TIP3   OH210409   3.918   6.544   3.074
 3482TIP3    H110410   3.825   6.546   3.054
 3482TIP3    H210411   3.925   6.585   3.161
 3483TIP3   OH210412   0.177   2.873   1.730
 3483TIP3    H110413   0.082   2.878   1.731
 3483TIP3    H210414   0.206   2.964   1.739
 3484TIP3   OH210415   4.220   6.441   4.007
 3484TIP3    H110416   4.188   6.499   4.077
 3484TIP3    H210417   4.189   6.354   4.033
 3485TIP3   OH210418   0.547   2.481   5.817
 3485TIP3    H110419   0.492   2.496   5.740
 3485TIP3    H210420   0.629   2.446   5.783
 3486TIP3   OH210421   7.181   2.123   1.370
 3486TIP3    H110422   7.142   2.195   1.320
 3486TIP3    H210423   7.109   2.060   1.380
 3487TIP3   OH210424   4.258   5.630   5.107
 3487TIP3    H110425   4.286   5.716   5.140
 3487TIP3    H210426   4.239   5.579   5.186
 3488TIP3   OH210427   5.979   3.878   1.073
 3488TIP3    H110428   5.918   3.828   1.127
 3488TIP3    H210429   5.928   3.905   0.997
 3489TIP3   OH210430   5.718   2.260   1.746
 3489TIP3    H110431   5.812   2.273   1.759
 3489TIP3    H210432   5.677   2.328   1.799
 3490TIP3   OH210433   4.459   6.229   2.902
 3490TIP3    H110434   4.455   6.268   2.815
 3490TIP3    H210435   4.370   6.198   2.919
 3491TIP3   OH210436   5.001   5.510   2.382
 3491TIP3    H110437   5.077   5.458   2.408
 3491TIP3    H210438   4.995   5.499   2.287
 3492TIP3   OH210439   2.826   4.131   5.074
 3492TIP3    H110440   2.847   4.182   5.152
 3492TIP3    H210441   2.893   4.063   5.071
 3493TIP3   OH210442   0.335   0.555   5.825
 3493TIP3    H110443   0.321   0.498   5.749
 3493TIP3    H210444   0.250   0.597   5.839
 3494TIP3   OH210445   3.696   5.102   2.290
 3494TIP3    H110446   3.705   5.016   2.249
 3494TIP3    H210447   3.708   5.086   2.383
 3495TIP3   OH210448   4.511   1.792   2.148
 3495TIP3    H110449   4.583   1.800   2.210
 3495TIP3    H210450   4.439   1.757   2.200
 3496TIP3   OH210451   4.140   1.261   2.667
 3496TIP3    H110452   4.147   1.189   2.729
 3496TIP3    H210453   4.230   1.283   2.644
 3497TIP3   OH210454   0.593   0.113   0.370
 3497TIP3    H110455   0.552   0.039   0.324
 3497TIP3    H210456   0.522   0.149   0.424
 3498TIP3   OH210457   6.307   5.433   3.059
 3498TIP3    H110458   6.275   5.364   3.001
 3498TIP3    H210459   6.269   5.513   3.024
 3499TIP3   OH210460   3.054   1.088   5.668
 3499TIP3    H110461   3.087   1.139   5.594
 3499TIP3    H210462   3.095   1.002   5.657
 3500TIP3   OH210463   1.523   0.188   5.817
 3500TIP3    H110464   1.446   0.218   5.865
 3500TIP3    H210465   1.516   0.092   5.816
 3501TIP3   OH210466   4.561   3.859   2.928
 3501TIP3    H110467   4.647   3.838   2.892
 3501TIP3    H210468   4.576   3.936   2.983
 3502TIP3   OH210469   7.113   0.682   3.296
 3502TIP3    H110470   7.120   0.734   3.375
 3502TIP3    H210471   7.112   0.746   3.225
 3503TIP3   OH210472   4.649   3.435   3.129
 3503TIP3    H110473   4.738   3.468   3.141
 3503TIP3    H210474   4.630   3.388   3.210
 3504TIP3   OH210475   2.780   1.488   1.379
 3504TIP3    H110476   2.831   1.528   1.309
 3504TIP3    H210477   2.742   1.409   1.339
 3505TIP3   OH210478   2.462   5.083   4.313
 3505TIP3    H110479   2.472   5.067   4.407
 3505TIP3    H210480   2.414   5.166   4.308
 3506TIP3   OH210481   5.324   5.097   1.882
 3506TIP3    H110482   5.281   5.042   1.948
 3506TIP3    H210483   5.397   5.043   1.851
 3507TIP3   OH210484   1.346   4.393   2.334
 3507TIP3    H110485   1.253   4.409   2.348
 3507TIP3    H210486   1.362   4.419   2.244
 3508TIP3   OH210487   0.161   6.702   4.039
 3508TIP3    H110488   0.136   6.644   3.968
 3508TIP3    H210489   0.246   6.670   4.068
 3509TIP3   OH210490   0.411   1.673   3.243
 3509TIP3    H110491   0.440   1.720   3.165
 3509TIP3    H210492   0.377   1.590   3.209
 3510TIP3   OH210493   4.868   5.080   5.414
 3510TIP3    H110494   4.791   5.025   5.398
 3510TIP3    H210495   4.843   5.137   5.487
 3511TIP3   OH210496   6.760   5.254   1.167
 3511TIP3    H110497   6.824   5.291   1.228
 3511TIP3    H210498   6.782   5.161   1.163
 3512TIP3   OH210499   4.323   4.915   1.480
 3512TIP3    H110500   4.392   4.959   1.529
 3512TIP3    H210501   4.304   4.836   1.532
 3513TIP3   OH210502   1.116   6.292   5.533
 3513TIP3    H110503   1.082   6.248   5.455
 3513TIP3    H210504   1.163   6.368   5.499
 3514TIP3   OH210505   1.614   1.755   5.279
 3514TIP3    H110506   1.560   1.810   5.335
 3514TIP3    H210507   1.603   1.667   5.314
 3515TIP3   OH210508   3.635   1.263   2.930
 3515TIP3    H110509   3.574   1.254   2.857
 3515TIP3    H210510   3.646   1.358   2.939
 3516TIP3   OH210511   4.627   1.534   1.229
 3516TIP3    H110512   4.670   1.486   1.300
 3516TIP3    H210513   4.547   1.570   1.270
 3517TIP3   OH210514   5.526   6.453   0.897
 3517TIP3    H110515   5.600   6.452   0.837
 3517TIP3    H210516   5.495   6.544   0.896
 3518TIP3   OH210517   4.114   6.048   5.661
 3518TIP3    H110518   4.163   6.062   5.581
 3518TIP3    H210519   4.032   6.007   5.632
 3519TIP3   OH210520   5.811   1.975   0.305
 3519TIP3    H110521   5.858   1.982   0.223
 3519TIP3    H210522   5.754   2.053   0.307
 3520TIP3   OH210523   4.562   0.434   2.727
 3520TIP3    H110524   4.526   0.390   2.805
 3520TIP3    H210525   4.515   0.517   2.723
 3521TIP3   OH210526   0.079   0.601   0.617
 3521TIP3    H110527   0.131   0.579   0.540
 3521TIP3    H210528  -0.003   0.553   0.605
 3522TIP3   OH210529   2.813   4.499   2.407
 3522TIP3    H110530   2.719   4.515   2.400
 3522TIP3    H210531   2.852   4.560   2.344
 3523TIP3   OH210532   6.313   1.546   1.374
 3523TIP3    H110533   6.221   1.535   1.397
 3523TIP3    H210534   6.356   1.467   1.408
 3524TIP3   OH210535   6.429   1.787   2.769
 3524TIP3    H110536   6.368   1.721   2.802
 3524TIP3    H210537   6.373   1.862   2.746
 3525TIP3   OH210538   7.204   5.715   5.119
 3525TIP3    H110539   7.187   5.713   5.025
 3525TIP3    H210540   7.293   5.750   5.126
 3526TIP3   OH210541   6.711   4.608   4.442
 3526TIP3    H110542   6.752   4.587   4.526
 3526TIP3    H210543   6.783   4.606   4.379
 3527TIP3   OH210544   6.598   4.804   5.368
 3527TIP3    H110545   6.602   4.709   5.379
 3527TIP3    H210546   6.676   4.826   5.317
 3528TIP3   OH210547   1.231   2.158   3.626
 3528TIP3    H110548   1.249   2.138   3.718
 3528TIP3    H210549   1.278   2.090   3.577
 3529TIP3   OH210550   4.473   1.122   1.993
 3529TIP3    H110551   4.496   1.131   1.901
 3529TIP3    H210552   4.382   1.093   1.992
 3530TIP3   OH210553   6.714   0.342   2.701
 3530TIP3    H110554   6.694   0.337   2.795
 3530TIP3    H210555   6.788   0.283   2.689
 3531TIP3   OH210556   6.531   2.782   1.289
 3531TIP3    H110557   6.589   2.712   1.260
 3531TIP3    H210558   6.480   2.743   1.360
 3532TIP3   OH210559   0.497   2.934   0.952
 3532TIP3    H110560   0.494   2.914   1.045
 3532TIP3    H210561   0.561   2.873   0.916
 3533TIP3   OH210562   4.527   2.752   0.589
 3533TIP3    H110563   4.537   2.834   0.638
 3533TIP3    H210564   4.474   2.696   0.646
 3534TIP3   OH210565   6.518   6.219   5.598
 3534TIP3    H110566   6.574   6.236   5.523
 3534TIP3    H210567   6.438   6.182   5.560
 3535TIP3   OH210568   5.928   5.021   3.012
 3535TIP3    H110569   5.877   4.944   2.987
 3535TIP3    H210570   5.874   5.095   2.985
 3536TIP3   OH210571   6.854   0.353   0.370
 3536TIP3    H110572   6.853   0.446   0.346
 3536TIP3    H210573   6.939   0.322   0.341
 3537TIP3   OH210574   4.485   0.345   5.177
 3537TIP3    H110575   4.571   0.385   5.191
 3537TIP3    H210576   4.481   0.274   5.242
 3538TIP3   OH210577   5.198   4.247   4.170
 3538TIP3    H110578   5.192   4.251   4.265
 3538TIP3    H210579   5.271   4.305   4.148
 3539TIP3   OH210580   3.767   6.375   0.507
 3539TIP3    H110581   3.701   6.414   0.564
 3539TIP3    H210582   3.810   6.309   0.562
 3540TIP3   OH210583   4.867   4.394   0.711
 3540TIP3    H110584   4.866   4.462   0.778
 3540TIP3    H210585   4.929   4.426   0.645
 3541TIP3   OH210586   0.086   3.757   1.735
 3541TIP3    H110587   0.047   3.671   1.721
 3541TIP3    H210588   0.038   3.816   1.677
 3542TIP3   OH210589   5.885   1.817   5.035
 3542TIP3    H110590   5.967   1.773   5.059
 3542TIP3    H210591   5.819   1.747   5.041
 3543TIP3   OH210592   6.070   5.970   4.366
 3543TIP3    H110593   6.051   5.993   4.457
 3543TIP3    H210594   6.110   6.048   4.329
 3544TIP3   OH210595   1.016   2.910   4.772
 3544TIP3    H110596   1.003   2.835   4.830
 3544TIP3    H210597   0.947   2.901   4.706
 3545TIP3   OH210598   3.617   5.232   3.016
 3545TIP3    H110599   3.588   5.204   2.930
 3545TIP3    H210600   3.669   5.158   3.049
 3546TIP3   OH210601   5.481   2.225   1.612
 3546TIP3    H110602   5.430   2.236   1.692
 3546TIP3    H210603   5.572   2.230   1.640
 3547TIP3   OH210604   3.990   4.479   0.411
 3547TIP3    H110605   4.028   4.513   0.330
 3547TIP3    H210606   4.056   4.419   0.445
 3548TIP3   OH210607   2.564   2.215   1.947
 3548TIP3    H110608   2.560   2.301   1.987
 3548TIP3    H210609   2.537   2.229   1.856
 3549TIP3   OH210610   4.644   2.351   3.964
 3549TIP3    H110611   4.668   2.361   3.872
 3549TIP3    H210612   4.692   2.421   4.009
 3550TIP3   OH210613   6.679   2.016   0.591
 3550TIP3    H110614   6.758   2.070   0.581
 3550TIP3    H210615   6.638   2.018   0.504
 3551TIP3   OH210616   2.633   2.176   5.844
 3551TIP3    H110617   2.718   2.220   5.845
 3551TIP3    H210618   2.624   2.141   5.933
 3552TIP3   OH210619   4.962   2.421   3.421
 3552TIP3    H110620   4.927   2.416   3.332
 3552TIP3    H210621   4.884   2.427   3.476
 3553TIP3   OH210622   4.860   1.422   4.160
 3553TIP3    H110623   4.951   1.392   4.159
 3553TIP3    H210624   4.809   1.341   4.158
 3554TIP3   OH210625   7.135   2.711   2.040
 3554TIP3    H110626   7.071   2.763   1.992
 3554TIP3    H210627   7.180   2.660   1.973
 3555TIP3   OH210628   4.104   6.518   3.753
 3555TIP3    H110629   4.109   6.461   3.829
 3555TIP3    H210630   4.180   6.493   3.700
 3556TIP3   OH210631   3.565   3.677   3.881
 3556TIP3    H110632   3.525   3.622   3.948
 3556TIP3    H210633   3.492   3.705   3.826
 3557TIP3   OH210634   4.082   0.927   1.771
 3557TIP3    H110635   4.024   0.905   1.844
 3557TIP3    H210636   4.147   0.856   1.771
 3558TIP3   OH210637   7.094   5.065   0.568
 3558TIP3    H110638   7.158   5.065   0.639
 3558TIP3    H210639   7.129   5.004   0.504
 3559TIP3   OH210640   3.278   2.627   2.218
 3559TIP3    H110641   3.371   2.609   2.205
 3559TIP3    H210642   3.235   2.582   2.145
 3560TIP3   OH210643   7.057   6.401   1.362
 3560TIP3    H110644   7.149   6.401   1.386
 3560TIP3    H210645   7.010   6.392   1.445
 3561TIP3   OH210646   5.775   2.274   2.694
 3561TIP3    H110647   5.787   2.363   2.660
 3561TIP3    H210648   5.861   2.249   2.726
 3562TIP3   OH210649   5.287   5.807   5.147
 3562TIP3    H110650   5.291   5.902   5.160
 3562TIP3    H210651   5.206   5.781   5.192
 3563TIP3   OH210652   4.729   2.092   3.613
 3563TIP3    H110653   4.640   2.095   3.649
 3563TIP3    H210654   4.719   2.118   3.522
 3564TIP3   OH210655   3.610   6.127   5.529
 3564TIP3    H110656   3.516   6.140   5.521
 3564TIP3    H210657   3.644   6.145   5.442
 3565TIP3   OH210658   4.230   6.188   5.393
 3565TIP3    H110659   4.225   6.167   5.300
 3565TIP3    H210660   4.322   6.174   5.416
 3566TIP3   OH210661   0.777   3.769   0.959
 3566TIP3    H110662   0.807   3.779   1.050
 3566TIP3    H210663   0.682   3.783   0.963
 3567TIP3   OH210664   2.178   4.268   4.998
 3567TIP3    H110665   2.136   4.309   4.923
 3567TIP3    H210666   2.269   4.298   4.994
 3568TIP3   OH210667   4.771   5.862   5.107
 3568TIP3    H110668   4.700   5.925   5.097
 3568TIP3    H210669   4.791   5.833   5.018
 3569TIP3   OH210670   3.344   3.838   1.943
 3569TIP3    H110671   3.322   3.818   2.034
 3569TIP3    H210672   3.367   3.754   1.905
 3570TIP3   OH210673   6.244   1.082   4.188
 3570TIP3    H110674   6.316   1.113   4.244
 3570TIP3    H210675   6.257   0.987   4.184
 3571TIP3   OH210676   0.333   6.547   4.420
 3571TIP3    H110677   0.242   6.518   4.408
 3571TIP3    H210678   0.365   6.562   4.331
 3572TIP3   OH210679   6.472   0.375   3.541
 3572TIP3    H110680   6.497   0.290   3.576
 3572TIP3    H210681   6.451   0.358   3.449
 3573TIP3   OH210682   0.002   4.484   5.888
 3573TIP3    H110683   0.022   4.563   5.939
 3573TIP3    H210684   0.087   4.449   5.863
 3574TIP3   OH210685   1.590   0.035   1.346
 3574TIP3    H110686   1.608   0.128   1.333
 3574TIP3    H210687   1.622   0.017   1.435
 3575TIP3   OH210688   6.012   5.365   2.628
 3575TIP3    H110689   6.037   5.304   2.559
 3575TIP3    H210690   5.944   5.319   2.678
 3576TIP3   OH210691   3.943   6.476   2.706
 3576TIP3    H110692   3.988   6.539   2.650
 3576TIP3    H210693   3.861   6.519   2.729
 3577TIP3   OH210694   0.726   1.000   3.887
 3577TIP3    H110695   0.701   0.954   3.807
 3577TIP3    H210696   0.695   0.944   3.958
 3578TIP3   OH210697   1.859   0.653   2.936
 3578TIP3    H110698   1.850   0.560   2.916
 3578TIP3    H210699   1.848   0.697   2.851
 3579TIP3   OH210700   5.279   5.715   1.335
 3579TIP3    H110701   5.338   5.782   1.370
 3579TIP3    H210702   5.315   5.632   1.368
 3580TIP3   OH210703   1.148   1.442   1.968
 3580TIP3    H110704   1.234   1.462   2.004
 3580TIP3    H210705   1.110   1.378   2.028
 3581TIP3   OH210706   0.198   1.012   2.463
 3581TIP3    H110707   0.272   0.954   2.448
 3581TIP3    H210708   0.228   1.098   2.434
 3582TIP3   OH210709   5.623   1.827   2.014
 3582TIP3    H110710   5.702   1.862   1.973
 3582TIP3    H210711   5.553   1.848   1.952
 3583TIP3   OH210712   5.249   6.571   0.654
 3583TIP3    H110713   5.336   6.589   0.691
 3583TIP3    H210714   5.200   6.532   0.726
 3584TIP3   OH210715   5.728   0.786   0.625
 3584TIP3    H110716   5.800   0.745   0.673
 3584TIP3    H210717   5.674   0.825   0.694
 3585TIP3   OH210718   5.893   4.884   0.814
 3585TIP3    H110719   5.801   4.905   0.833
 3585TIP3    H210720   5.889   4.813   0.751
 3586TIP3   OH210721   3.360   0.316   5.459
 3586TIP3    H110722   3.314   0.301   5.542
 3586TIP3    H210723   3.443   0.269   5.470
 3587TIP3   OH210724   3.212   2.900   2.206
 3587TIP3    H110725   3.230   2.808   2.225
 3587TIP3    H210726   3.280   2.948   2.253
 3588TIP3   OH210727   5.240   1.065   3.733
 3588TIP3    H110728   5.225   1.014   3.812
 3588TIP3    H210729   5.267   1.151   3.764
 3589TIP3   OH210730   3.121   1.021   0.976
 3589TIP3    H110731   3.138   1.058   0.890
 3589TIP3    H210732   3.208   1.002   1.011
 3590TIP3   OH210733   1.633   4.380   5.167
 3590TIP3    H110734   1.544   4.344   5.171
 3590TIP3    H210735   1.684   4.314   5.120
 3591TIP3   OH210736   6.327   4.035   2.047
 3591TIP3    H110737   6.363   4.090   2.117
 3591TIP3    H210738   6.240   4.012   2.078
 3592TIP3   OH210739   6.444   2.203   4.618
 3592TIP3    H110740   6.430   2.117   4.658
 3592TIP3    H210741   6.400   2.264   4.678
 3593TIP3   OH210742   5.190   2.218   1.566
 3593TIP3    H110743   5.174   2.220   1.471
 3593TIP3    H210744   5.281   2.193   1.575
 3594TIP3   OH210745   6.965   5.942   3.890
 3594TIP3    H110746   6.991   5.876   3.826
 3594TIP3    H210747   7.048   5.976   3.924
 3595TIP3   OH210748   5.293   6.562   5.799
 3595TIP3    H110749   5.263   6.471   5.786
 3595TIP3    H210750   5.352   6.557   5.874
 3596TIP3   OH210751   4.497   6.652   0.067
 3596TIP3    H110752   4.460   6.578   0.116
 3596TIP3    H210753   4.537   6.707   0.135
 3597TIP3   OH210754   2.562   1.780   0.384
 3597TIP3    H110755   2.647   1.745   0.356
 3597TIP3    H210756   2.517   1.704   0.421
 3598TIP3   OH210757   4.605   5.960   4.822
 3598TIP3    H110758   4.687   6.005   4.843
 3598TIP3    H210759   4.628   5.867   4.819
 3599TIP3   OH210760   2.421   2.919   2.112
 3599TIP3    H110761   2.499   2.876   2.146
 3599TIP3    H210762   2.444   3.011   2.109
 3600TIP3   OH210763   3.611   1.456   3.932
 3600TIP3    H110764   3.667   1.378   3.927
 3600TIP3    H210765   3.642   1.503   4.010
 3601TIP3   OH210766   6.156   3.913   1.756
 3601TIP3    H110767   6.171   4.000   1.793
 3601TIP3    H210768   6.088   3.926   1.690
 3602TIP3   OH210769   3.146   3.303   3.950
 3602TIP3    H110770   3.101   3.342   3.875
 3602TIP3    H210771   3.183   3.221   3.917
 3603TIP3   OH210772   4.424   2.082   4.319
 3603TIP3    H110773   4.457   2.082   4.229
 3603TIP3    H210774   4.335   2.046   4.312
 3604TIP3   OH210775   7.095   4.969   1.203
 3604TIP3    H110776   7.013   4.964   1.154
 3604TIP3    H210777   7.086   4.904   1.272
 3605TIP3   OH210778   6.193   5.644   3.868
 3605TIP3    H110779   6.104   5.617   3.891
 3605TIP3    H210780   6.234   5.666   3.952
 3606TIP3   OH210781   2.429   5.694   2.917
 3606TIP3    H110782   2.511   5.649   2.939
 3606TIP3    H210783   2.444   5.729   2.830
 3607TIP3   OH210784   2.417   5.388   0.454
 3607TIP3    H110785   2.333   5.433   0.451
 3607TIP3    H210786   2.399   5.306   0.499
 3608TIP3   OH210787   0.179   4.991   1.502
 3608TIP3    H110788   0.122   5.068   1.510
 3608TIP3    H210789   0.265   5.027   1.480
 3609TIP3   OH210790   1.505   0.293   4.530
 3609TIP3    H110791   1.521   0.227   4.597
 3609TIP3    H210792   1.562   0.366   4.553
 3610TIP3   OH210793   3.097   4.981   1.553
 3610TIP3    H110794   3.193   4.973   1.552
 3610TIP3    H210795   3.076   5.024   1.470
 3611TIP3   OH210796   2.389   0.821   2.394
 3611TIP3    H110797   2.386   0.874   2.474
 3611TIP3    H210798   2.478   0.787   2.391
 3612TIP3   OH210799   6.221   6.308   0.287
 3612TIP3    H110800   6.232   6.235   0.348
 3612TIP3    H210801   6.130   6.300   0.256
 3613TIP3   OH210802   1.495   2.208   5.776
 3613TIP3    H110803   1.575   2.177   5.733
 3613TIP3    H210804   1.493   2.302   5.756
 3614TIP3   OH210805   3.242   5.452   0.272
 3614TIP3    H110806   3.182   5.397   0.322
 3614TIP3    H210807   3.282   5.392   0.209
 3615TIP3   OH210808   4.881   5.537   4.396
 3615TIP3    H110809   4.956   5.533   4.454
 3615TIP3    H210810   4.808   5.502   4.448
 3616TIP3   OH210811   5.391   6.332   4.622
 3616TIP3    H110812   5.410   6.426   4.626
 3616TIP3    H210813   5.419   6.305   4.534
 3617TIP3   OH210814   1.301   1.569   1.763
 3617TIP3    H110815   1.223   1.578   1.818
 3617TIP3    H210816   1.349   1.651   1.777
 3618TIP3   OH210817   0.644   4.129   3.964
 3618TIP3    H110818   0.615   4.174   3.885
 3618TIP3    H210819   0.566   4.084   3.996
 3619TIP3   OH210820   7.174   2.323   2.035
 3619TIP3    H110821   7.114   2.264   2.081
 3619TIP3    H210822   7.120   2.366   1.969
 3620TIP3   OH210823   1.858   1.533   5.509
 3620TIP3    H110824   1.885   1.483   5.433
 3620TIP3    H210825   1.816   1.469   5.567
 3621TIP3   OH210826   2.174   5.712   2.572
 3621TIP3    H110827   2.134   5.756   2.647
 3621TIP3    H210828   2.193   5.623   2.603
 3622TIP3   OH210829   0.675   5.384   4.579
 3622TIP3    H110830   0.626   5.465   4.594
 3622TIP3    H210831   0.737   5.379   4.651
 3623TIP3   OH210832   5.191   4.771   5.852
 3623TIP3    H110833   5.142   4.772   5.935
 3623TIP3    H210834   5.147   4.704   5.799
 3624TIP3   OH210835   6.128   0.512   3.745
 3624TIP3    H110836   6.200   0.575   3.748
 3624TIP3    H210837   6.170   0.427   3.733
 3625TIP3   OH210838   7.098   4.610   5.647
 3625TIP3    H110839   7.002   4.613   5.648
 3625TIP3    H210840   7.121   4.560   5.725
 3626TIP3   OH210841   3.513   4.717   3.944
 3626TIP3    H110842   3.587   4.755   3.898
 3626TIP3    H210843   3.552   4.652   4.003
 3627TIP3   OH210844   2.772   3.092   4.164
 3627TIP3    H110845   2.733   3.146   4.233
 3627TIP3    H210846   2.699   3.044   4.126
 3628TIP3   OH210847   5.633   1.119   3.843
 3628TIP3    H110848   5.611   1.087   3.930
 3628TIP3    H210849   5.709   1.175   3.856
 3629TIP3   OH210850   6.775   5.190   4.209
 3629TIP3    H110851   6.754   5.243   4.132
 3629TIP3    H210852   6.852   5.139   4.183
 3630TIP3   OH210853   3.182   5.898   0.227
 3630TIP3    H110854   3.267   5.857   0.243
 3630TIP3    H210855   3.123   5.826   0.207
 3631TIP3   OH210856   5.405   6.458   2.417
 3631TIP3    H110857   5.499   6.454   2.438
 3631TIP3    H210858   5.369   6.378   2.453
 3632TIP3   OH210859   4.262   3.949   2.868
 3632TIP3    H110860   4.205   4.017   2.902
 3632TIP3    H210861   4.348   3.989   2.863
 3633TIP3   OH210862   2.146   3.198   1.158
 3633TIP3    H110863   2.164   3.222   1.067
 3633TIP3    H210864   2.065   3.147   1.154
 3634TIP3   OH210865   2.991   2.283   1.873
 3634TIP3    H110866   3.043   2.206   1.852
 3634TIP3    H210867   2.926   2.251   1.936
 3635TIP3   OH210868   0.649   2.800   3.505
 3635TIP3    H110869   0.601   2.875   3.469
 3635TIP3    H210870   0.649   2.736   3.433
 3636TIP3   OH210871   5.931   2.122   0.967
 3636TIP3    H110872   5.843   2.108   1.001
 3636TIP3    H210873   5.966   2.033   0.955
 3637TIP3   OH210874   3.843   3.306   3.671
 3637TIP3    H110875   3.792   3.226   3.678
 3637TIP3    H210876   3.837   3.346   3.758
 3638TIP3   OH210877   6.917   5.996   4.456
 3638TIP3    H110878   6.913   6.090   4.441
 3638TIP3    H210879   6.883   5.957   4.375
 3639TIP3   OH210880   5.656   6.634   3.356
 3639TIP3    H110881   5.741   6.678   3.357
 3639TIP3    H210882   5.616   6.657   3.440
 3640TIP3   OH210883   5.462   3.370   2.397
 3640TIP3    H110884   5.503   3.380   2.483
 3640TIP3    H210885   5.380   3.418   2.404
 3641TIP3   OH210886   4.393   1.941   4.552
 3641TIP3    H110887   4.442   1.965   4.473
 3641TIP3    H210888   4.326   2.008   4.560
 3642TIP3   OH210889   0.479   3.040   2.826
 3642TIP3    H110890   0.490   3.119   2.773
 3642TIP3    H210891   0.520   3.062   2.910
 3643TIP3   OH210892   0.067   5.297   5.877
 3643TIP3    H110893   0.035   5.214   5.841
 3643TIP3    H210894   0.104   5.343   5.801
 3644TIP3   OH210895   2.150   2.979   1.442
 3644TIP3    H110896   2.214   3.005   1.376
 3644TIP3    H210897   2.104   3.060   1.465
 3645TIP3   OH210898   3.754   5.247   3.316
 3645TIP3    H110899   3.827   5.187   3.329
 3645TIP3    H210900   3.727   5.232   3.225
 3646TIP3   OH210901   3.700   3.034   0.611
 3646TIP3    H110902   3.610   3.046   0.579
 3646TIP3    H210903   3.738   3.122   0.607
 3647TIP3   OH210904   6.965   2.666   1.632
 3647TIP3    H110905   6.973   2.745   1.579
 3647TIP3    H210906   6.984   2.696   1.721
 3648TIP3   OH210907   5.924   0.506   0.542
 3648TIP3    H110908   5.963   0.564   0.608
 3648TIP3    H210909   5.881   0.566   0.481
 3649TIP3   OH210910   4.010   0.305   5.387
 3649TIP3    H110911   4.072   0.235   5.368
 3649TIP3    H210912   4.051   0.384   5.352
 3650TIP3   OH210913   1.637   3.105   0.209
 3650TIP3    H110914   1.658   3.034   0.270
 3650TIP3    H210915   1.570   3.157   0.254
 3651TIP3   OH210916   3.256   3.248   0.513
 3651TIP3    H110917   3.161   3.255   0.511
 3651TIP3    H210918   3.285   3.327   0.560
 3652TIP3   OH210919   4.332   4.818   5.464
 3652TIP3    H110920   4.366   4.879   5.398
 3652TIP3    H210921   4.370   4.734   5.441
 3653TIP3   OH210922   0.041   2.090   5.026
 3653TIP3    H110923   0.018   2.055   4.940
 3653TIP3    H210924   0.094   2.168   5.007
 3654TIP3   OH210925   0.651   2.705   4.001
 3654TIP3    H110926   0.732   2.655   4.003
 3654TIP3    H210927   0.647   2.741   3.912
 3655TIP3   OH210928   4.054   6.216   3.394
 3655TIP3    H110929   3.996   6.163   3.339
 3655TIP3    H210930   4.132   6.229   3.342
 3656TIP3   OH210931   3.395   2.850   3.784
 3656TIP3    H110932   3.476   2.837   3.833
 3656TIP3    H210933   3.414   2.815   3.697
 3657TIP3   OH210934   4.296   6.432   3.598
 3657TIP3    H110935   4.361   6.383   3.649
 3657TIP3    H210936   4.313   6.407   3.507
 3658TIP3   OH210937   1.796   1.307   2.456
 3658TIP3    H110938   1.747   1.259   2.523
 3658TIP3    H210939   1.855   1.363   2.505
 3659TIP3   OH210940   2.976   0.087   3.071
 3659TIP3    H110941   2.949   0.176   3.049
 3659TIP3    H210942   2.922   0.031   3.015
 3660TIP3   OH210943   0.523   1.314   2.075
 3660TIP3    H110944   0.440   1.266   2.071
 3660TIP3    H210945   0.517   1.379   2.005
 3661TIP3   OH210946   4.232   5.197   1.352
 3661TIP3    H110947   4.278   5.113   1.352
 3661TIP3    H210948   4.160   5.185   1.290
 3662TIP3   OH210949   5.474   2.646   1.522
 3662TIP3    H110950   5.553   2.698   1.508
 3662TIP3    H210951   5.480   2.576   1.458
 3663TIP3   OH210952   6.115   6.674   3.756
 3663TIP3    H110953   6.107   6.591   3.709
 3663TIP3    H210954   6.025   6.705   3.767
 3664TIP3   OH210955   1.124   0.355   5.292
 3664TIP3    H110956   1.051   0.412   5.267
 3664TIP3    H210957   1.160   0.396   5.371
 3665TIP3   OH210958   3.009   3.940   5.484
 3665TIP3    H110959   2.933   3.912   5.434
 3665TIP3    H210960   2.997   3.899   5.570
 3666TIP3   OH210961   3.322   0.768   4.972
 3666TIP3    H110962   3.317   0.844   4.915
 3666TIP3    H210963   3.402   0.723   4.945
 3667TIP3   OH210964   2.541   0.065   0.132
 3667TIP3    H110965   2.549   0.026   0.045
 3667TIP3    H210966   2.551   0.159   0.117
 3668TIP3   OH210967   3.199   1.590   0.979
 3668TIP3    H110968   3.143   1.659   0.945
 3668TIP3    H210969   3.174   1.512   0.929
 3669TIP3   OH210970   1.069   2.949   1.136
 3669TIP3    H110971   1.090   2.906   1.053
 3669TIP3    H210972   1.146   2.934   1.190
 3670TIP3   OH210973   3.325   1.794   3.873
 3670TIP3    H110974   3.232   1.774   3.890
 3670TIP3    H210975   3.344   1.868   3.931
 3671TIP3   OH210976   3.880   4.708   2.368
 3671TIP3    H110977   3.935   4.709   2.446
 3671TIP3    H210978   3.798   4.667   2.397
 3672TIP3   OH210979   1.644   0.336   4.310
 3672TIP3    H110980   1.592   0.334   4.390
 3672TIP3    H210981   1.702   0.260   4.317
 3673TIP3   OH210982   6.720   1.430   0.900
 3673TIP3    H110983   6.663   1.391   0.966
 3673TIP3    H210984   6.783   1.482   0.950
 3674TIP3   OH210985   0.528   6.440   1.727
 3674TIP3    H110986   0.595   6.498   1.764
 3674TIP3    H210987   0.493   6.394   1.804
 3675TIP3   OH210988   3.614   0.934   4.324
 3675TIP3    H110989   3.594   0.900   4.237
 3675TIP3    H210990   3.543   0.996   4.342
 3676TIP3   OH210991   2.868   1.780   1.808
 3676TIP3    H110992   2.953   1.796   1.766
 3676TIP3    H210993   2.821   1.724   1.746
 3677TIP3   OH210994   0.990   5.032   1.621
 3677TIP3    H110995   0.919   4.975   1.651
 3677TIP3    H210996   1.014   4.998   1.535
 3678TIP3   OH210997   6.179   5.339   1.191
 3678TIP3    H110998   6.274   5.336   1.180
 3678TIP3    H210999   6.146   5.367   1.106
 3679TIP3   OH211000   1.306   3.562   4.656
 3679TIP3    H111001   1.223   3.518   4.677
 3679TIP3    H211002   1.316   3.551   4.562
 3680TIP3   OH211003   5.438   0.323   2.098
 3680TIP3    H111004   5.465   0.341   2.188
 3680TIP3    H211005   5.342   0.327   2.101
 3681TIP3   OH211006   0.778   0.578   5.658
 3681TIP3    H111007   0.839   0.505   5.669
 3681TIP3    H211008   0.708   0.542   5.603
 3682TIP3   OH211009   3.003   2.401   4.048
 3682TIP3    H111010   3.075   2.368   4.101
 3682TIP3    H211011   3.033   2.485   4.016
 3683TIP3   OH211012   5.620   6.323   5.748
 3683TIP3    H111013   5.655   6.408   5.773
 3683TIP3    H211014   5.605   6.330   5.654
 3684TIP3   OH211015   5.419   2.342   4.996
 3684TIP3    H111016   5.449   2.261   5.035
 3684TIP3    H211017   5.497   2.381   4.957
 3685TIP3   OH211018   3.177   1.931   3.532
 3685TIP3    H111019   3.113   1.988   3.573
 3685TIP3    H211020   3.178   1.852   3.586
 3686TIP3   OH211021   0.724   0.163   5.634
 3686TIP3    H111022   0.677   0.243   5.614
 3686TIP3    H211023   0.656   0.099   5.654
 3687TIP3   OH211024   2.762   5.610   1.290
 3687TIP3    H111025   2.806   5.635   1.371
 3687TIP3    H211026   2.783   5.517   1.280
 3688TIP3   OH211027   7.041   0.481   0.610
 3688TIP3    H111028   6.993   0.529   0.542
 3688TIP3    H211029   6.995   0.397   0.617
 3689TIP3   OH211030   3.811   1.758   2.904
 3689TIP3    H111031   3.866   1.836   2.905
 3689TIP3    H211032   3.728   1.787   2.867
 3690TIP3   OH211033   1.380   3.993   3.457
 3690TIP3    H111034   1.385   4.069   3.514
 3690TIP3    H211035   1.363   3.920   3.517
 3691TIP3   OH211036   6.666   1.504   3.578
 3691TIP3    H111037   6.715   1.498   3.660
 3691TIP3    H211038   6.580   1.538   3.604
 3692TIP3   OH211039   6.668   2.709   3.498
 3692TIP3    H111040   6.594   2.650   3.510
 3692TIP3    H211041   6.661   2.771   3.570
 3693TIP3   OH211042   1.003   5.812   0.087
 3693TIP3    H111043   1.041   5.865   0.017
 3693TIP3    H211044   0.919   5.854   0.107
 3694TIP3   OH211045   4.180   3.038   1.492
 3694TIP3    H111046   4.150   3.072   1.576
 3694TIP3    H211047   4.271   3.010   1.508
 3695TIP3   OH211048   7.019   5.402   4.295
 3695TIP3    H111049   7.017   5.313   4.331
 3695TIP3    H211050   7.039   5.457   4.370
 3696TIP3   OH211051   3.778   1.689   5.165
 3696TIP3    H111052   3.832   1.667   5.089
 3696TIP3    H211053   3.691   1.703   5.129
 3697TIP3   OH211054   3.632   5.299   4.532
 3697TIP3    H111055   3.688   5.258   4.598
 3697TIP3    H211056   3.652   5.392   4.538
 3698TIP3   OH211057   4.948   2.430   5.724
 3698TIP3    H111058   4.991   2.376   5.657
 3698TIP3    H211059   4.889   2.370   5.770
 3699TIP3   OH211060   6.242   4.451   1.884
 3699TIP3    H111061   6.319   4.448   1.827
 3699TIP3    H211062   6.278   4.447   1.973
 3700TIP3   OH211063   1.745   4.965   3.589
 3700TIP3    H111064   1.766   4.970   3.495
 3700TIP3    H211065   1.830   4.957   3.632
 3701TIP3   OH211066   2.564   3.579   3.565
 3701TIP3    H111067   2.499   3.530   3.514
 3701TIP3    H211068   2.607   3.635   3.502
 3702TIP3   OH211069   1.145   6.194   2.611
 3702TIP3    H111070   1.099   6.233   2.686
 3702TIP3    H211071   1.100   6.111   2.596
 3703TIP3   OH211072   0.619   3.924   5.200
 3703TIP3    H111073   0.530   3.892   5.186
 3703TIP3    H211074   0.664   3.905   5.117
 3704TIP3   OH211075   3.067   1.418   4.291
 3704TIP3    H111076   2.974   1.437   4.283
 3704TIP3    H211077   3.085   1.422   4.385
 3705TIP3   OH211078   6.182   5.020   5.441
 3705TIP3    H111079   6.216   5.074   5.513
 3705TIP3    H211080   6.094   4.995   5.470
 3706TIP3   OH211081   6.422   0.336   4.231
 3706TIP3    H111082   6.331   0.319   4.258
 3706TIP3    H211083   6.413   0.378   4.145
 3707TIP3   OH211084   1.730   6.123   4.318
 3707TIP3    H111085   1.718   6.169   4.234
 3707TIP3    H211086   1.704   6.033   4.300
 3708TIP3   OH211087   4.247   3.301   5.192
 3708TIP3    H111088   4.331   3.311   5.147
 3708TIP3    H211089   4.185   3.282   5.121
 3709TIP3   OH211090   4.119   0.403   2.560
 3709TIP3    H111091   4.054   0.448   2.506
 3709TIP3    H211092   4.140   0.465   2.630
 3710TIP3   OH211093   1.915   6.712   2.373
 3710TIP3    H111094   1.886   6.793   2.416
 3710TIP3    H211095   1.841   6.687   2.317
 3711TIP3   OH211096   7.057   1.476   2.387
 3711TIP3    H111097   7.097   1.429   2.313
 3711TIP3    H211098   6.972   1.434   2.398
 3712TIP3   OH211099   2.568   0.129   5.758
 3712TIP3    H111100   2.656   0.136   5.796
 3712TIP3    H211101   2.583   0.121   5.664
 3713TIP3   OH211102   1.867   4.342   4.110
 3713TIP3    H111103   1.955   4.306   4.113
 3713TIP3    H211104   1.810   4.264   4.111
 3714TIP3   OH211105   2.269   3.337   1.373
 3714TIP3    H111106   2.250   3.281   1.297
 3714TIP3    H211107   2.185   3.377   1.394
 3715TIP3   OH211108   4.229   2.390   5.175
 3715TIP3    H111109   4.182   2.397   5.092
 3715TIP3    H211110   4.208   2.471   5.221
 3716TIP3   OH211111   3.118   3.399   3.436
 3716TIP3    H111112   3.196   3.352   3.407
 3716TIP3    H211113   3.045   3.345   3.406
 3717TIP3   OH211114   7.118   3.070   1.840
 3717TIP3    H111115   7.048   3.020   1.799
 3717TIP3    H211116   7.081   3.158   1.851
 3718TIP3   OH211117   3.289   2.315   4.475
 3718TIP3    H111118   3.210   2.365   4.458
 3718TIP3    H211119   3.335   2.313   4.391
 3719TIP3   OH211120   4.043   0.648   4.016
 3719TIP3    H111121   4.107   0.717   4.035
 3719TIP3    H211122   3.958   0.689   4.030
 3720TIP3   OH211123   5.760   6.728   0.240
 3720TIP3    H111124   5.803   6.648   0.212
 3720TIP3    H211125   5.742   6.776   0.159
 3721TIP3   OH211126   5.953   1.542   4.853
 3721TIP3    H111127   5.935   1.595   4.775
 3721TIP3    H211128   6.047   1.525   4.848
 3722TIP3   OH211129   4.806   1.152   5.637
 3722TIP3    H111130   4.747   1.082   5.612
 3722TIP3    H211131   4.885   1.107   5.667
 3723TIP3   OH211132   3.408   5.789   2.003
 3723TIP3    H111133   3.330   5.792   2.058
 3723TIP3    H211134   3.475   5.750   2.058
 3724TIP3   OH211135   1.982   1.954   1.106
 3724TIP3    H111136   1.973   2.030   1.162
 3724TIP3    H211137   1.956   1.985   1.019
 3725TIP3   OH211138   1.180   4.636   0.075
 3725TIP3    H111139   1.146   4.575   0.009
 3725TIP3    H211140   1.274   4.618   0.078
 3726TIP3   OH211141   1.786   6.588   4.747
 3726TIP3    H111142   1.700   6.607   4.786
 3726TIP3    H211143   1.843   6.657   4.781
 3727TIP3   OH211144   6.909   1.477   5.326
 3727TIP3    H111145   6.905   1.565   5.288
 3727TIP3    H211146   6.891   1.418   5.253
 3728TIP3   OH211147   5.970   5.559   2.433
 3728TIP3    H111148   5.929   5.517   2.358
 3728TIP3    H211149   6.005   5.487   2.485
 3729TIP3   OH211150   2.904   1.014   0.652
 3729TIP3    H111151   2.988   0.971   0.635
 3729TIP3    H211152   2.871   0.972   0.732
 3730TIP3   OH211153   5.799   3.070   5.154
 3730TIP3    H111154   5.888   3.067   5.118
 3730TIP3    H211155   5.757   3.143   5.107
 3731TIP3   OH211156   1.403   2.606   3.896
 3731TIP3    H111157   1.443   2.577   3.814
 3731TIP3    H211158   1.333   2.664   3.869
 3732TIP3   OH211159   4.135   2.835   3.667
 3732TIP3    H111160   4.221   2.796   3.652
 3732TIP3    H211161   4.145   2.926   3.641
 3733TIP3   OH211162   3.329   5.331   4.667
 3733TIP3    H111163   3.353   5.268   4.599
 3733TIP3    H211164   3.380   5.409   4.647
 3734TIP3   OH211165   2.496   2.386   3.988
 3734TIP3    H111166   2.449   2.320   4.039
 3734TIP3    H211167   2.574   2.342   3.956
 3735TIP3   OH211168   5.169   3.650   3.822
 3735TIP3    H111169   5.187   3.600   3.743
 3735TIP3    H211170   5.079   3.682   3.811
 3736TIP3   OH211171   6.605   2.397   2.130
 3736TIP3    H111172   6.630   2.347   2.052
 3736TIP3    H211173   6.603   2.332   2.200
 3737TIP3   OH211174   4.164   6.137   0.826
 3737TIP3    H111175   4.098   6.207   0.822
 3737TIP3    H211176   4.169   6.114   0.919
 3738TIP3   OH211177   2.550   3.743   4.833
 3738TIP3    H111178   2.536   3.793   4.752
 3738TIP3    H211179   2.641   3.761   4.857
 3739TIP3   OH211180   6.433   5.554   0.260
 3739TIP3    H111181   6.457   5.467   0.291
 3739TIP3    H211182   6.501   5.576   0.196
 3740TIP3   OH211183   5.895   0.046   2.385
 3740TIP3    H111184   5.940   0.105   2.446
 3740TIP3    H211185   5.929   0.072   2.299
 3741TIP3   OH211186   4.210   5.462   1.958
 3741TIP3    H111187   4.291   5.511   1.974
 3741TIP3    H211188   4.140   5.517   1.993
 3742TIP3   OH211189   6.203   4.619   2.784
 3742TIP3    H111190   6.145   4.626   2.859
 3742TIP3    H211191   6.173   4.688   2.724
 3743TIP3   OH211192   4.464   6.104   0.573
 3743TIP3    H111193   4.550   6.095   0.532
 3743TIP3    H211194   4.453   6.023   0.623
 3744TIP3   OH211195   5.648   2.813   2.968
 3744TIP3    H111196   5.710   2.740   2.972
 3744TIP3    H211197   5.562   2.772   2.975
 3745TIP3   OH211198   7.096   1.401   2.109
 3745TIP3    H111199   7.090   1.497   2.112
 3745TIP3    H211200   7.007   1.372   2.092
 3746TIP3   OH211201   1.336   1.168   3.052
 3746TIP3    H111202   1.325   1.098   2.988
 3746TIP3    H211203   1.253   1.169   3.100
 3747TIP3   OH211204   1.510   5.616   0.883
 3747TIP3    H111205   1.561   5.536   0.897
 3747TIP3    H211206   1.422   5.584   0.860
 3748TIP3   OH211207   1.225   4.771   5.150
 3748TIP3    H111208   1.133   4.749   5.135
 3748TIP3    H211209   1.268   4.686   5.164
 3749TIP3   OH211210   5.390   6.088   5.187
 3749TIP3    H111211   5.431   6.162   5.232
 3749TIP3    H211212   5.296   6.105   5.194
 3750TIP3   OH211213   2.252   1.612   4.610
 3750TIP3    H111214   2.342   1.635   4.633
 3750TIP3    H211215   2.233   1.534   4.662
 3751TIP3   OH211216   3.100   5.140   2.587
 3751TIP3    H111217   3.014   5.178   2.570
 3751TIP3    H211218   3.122   5.094   2.506
 3752TIP3   OH211219   6.572   3.253   0.738
 3752TIP3    H111220   6.564   3.265   0.643
 3752TIP3    H211221   6.508   3.314   0.776
 3753TIP3   OH211222   0.260   2.276   5.376
 3753TIP3    H111223   0.351   2.304   5.388
 3753TIP3    H211224   0.214   2.354   5.346
 3754TIP3   OH211225   6.866   6.549   0.369
 3754TIP3    H111226   6.802   6.487   0.334
 3754TIP3    H211227   6.819   6.595   0.438
 3755TIP3   OH211228   2.281   5.545   4.485
 3755TIP3    H111229   2.259   5.589   4.403
 3755TIP3    H211230   2.308   5.616   4.543
 3756TIP3   OH211231   4.378   4.295   0.095
 3756TIP3    H111232   4.408   4.300   0.004
 3756TIP3    H211233   4.445   4.341   0.145
 3757TIP3   OH211234   4.861   4.227   1.895
 3757TIP3    H111235   4.834   4.268   1.812
 3757TIP3    H211236   4.857   4.133   1.878
 3758TIP3   OH211237   5.103   1.075   4.240
 3758TIP3    H111238   5.071   1.033   4.161
 3758TIP3    H211239   5.137   1.004   4.294
 3759TIP3   OH211240   2.774   5.882   4.861
 3759TIP3    H111241   2.801   5.967   4.827
 3759TIP3    H211242   2.699   5.857   4.807
 3760TIP3   OH211243   1.391   3.948   4.045
 3760TIP3    H111244   1.297   3.964   4.060
 3760TIP3    H211245   1.434   3.980   4.125
 3761TIP3   OH211246   0.040   1.653   2.441
 3761TIP3    H111247   0.084   1.618   2.519
 3761TIP3    H211248  -0.043   1.607   2.437
 3762TIP3   OH211249   7.042   5.369   3.206
 3762TIP3    H111250   7.132   5.398   3.219
 3762TIP3    H211251   7.023   5.316   3.284
 3763TIP3   OH211252   4.792   5.864   1.697
 3763TIP3    H111253   4.760   5.783   1.660
 3763TIP3    H211254   4.715   5.906   1.735
 3764TIP3   OH211255   7.011   0.960   2.158
 3764TIP3    H111256   7.017   0.975   2.064
 3764TIP3    H211257   6.930   1.003   2.184
 3765TIP3   OH211258   6.666   1.547   4.784
 3765TIP3    H111259   6.659   1.452   4.786
 3765TIP3    H211260   6.660   1.571   4.692
 3766TIP3   OH211261   2.575   0.563   0.822
 3766TIP3    H111262   2.585   0.532   0.732
 3766TIP3    H211263   2.619   0.498   0.876
 3767TIP3   OH211264   6.968   5.692   1.124
 3767TIP3    H111265   6.977   5.604   1.161
 3767TIP3    H211266   7.058   5.719   1.106
 3768TIP3   OH211267   0.844   3.376   1.228
 3768TIP3    H111268   0.787   3.400   1.155
 3768TIP3    H211269   0.805   3.419   1.304
 3769TIP3   OH211270   1.556  -0.008   3.104
 3769TIP3    H111271   1.593   0.026   3.186
 3769TIP3    H211272   1.615   0.024   3.036
 3770TIP3   OH211273   2.175   0.106   1.150
 3770TIP3    H111274   2.246   0.106   1.213
 3770TIP3    H211275   2.130   0.190   1.163
 3771TIP3   OH211276   5.693   2.841  -0.042
 3771TIP3    H111277   5.690   2.784   0.035
 3771TIP3    H211278   5.694   2.930  -0.006
 3772TIP3   OH211279   4.959   3.172   4.700
 3772TIP3    H111280   4.924   3.161   4.788
 3772TIP3    H211281   5.027   3.239   4.709
 3773TIP3   OH211282   4.345   2.462  -0.012
 3773TIP3    H111283   4.255   2.494  -0.006
 3773TIP3    H211284   4.372   2.450   0.079
 3774TIP3   OH211285   1.869   2.092   1.893
 3774TIP3    H111286   1.801   2.154   1.868
 3774TIP3    H211287   1.881   2.106   1.987
 3775TIP3   OH211288   3.823   1.953   0.101
 3775TIP3    H111289   3.859   1.901   0.030
 3775TIP3    H211290   3.898   1.974   0.157
 3776TIP3   OH211291   3.208   5.712   4.403
 3776TIP3    H111292   3.129   5.745   4.445
 3776TIP3    H211293   3.221   5.769   4.328
 3777TIP3   OH211294   4.478   2.517   5.587
 3777TIP3    H111295   4.427   2.447   5.628
 3777TIP3    H211296   4.565   2.479   5.575
 3778TIP3   OH211297   2.785   5.578   3.183
 3778TIP3    H111298   2.743   5.624   3.110
 3778TIP3    H211299   2.865   5.541   3.144
 3779TIP3   OH211300   4.924   4.103   2.644
 3779TIP3    H111301   4.859   4.159   2.602
 3779TIP3    H211302   4.888   4.088   2.732
 3780TIP3   OH211303   4.666   2.334   2.696
 3780TIP3    H111304   4.674   2.419   2.651
 3780TIP3    H211305   4.727   2.341   2.770
 3781TIP3   OH211306   2.237   2.714   2.107
 3781TIP3    H111307   2.280   2.799   2.106
 3781TIP3    H211308   2.253   2.678   2.020
 3782TIP3   OH211309   0.199   3.027   4.308
 3782TIP3    H111310   0.110   3.046   4.278
 3782TIP3    H211311   0.199   2.933   4.324
 3783TIP3   OH211312   5.823   6.208   1.155
 3783TIP3    H111313   5.760   6.266   1.198
 3783TIP3    H211314   5.883   6.182   1.224
 3784TIP3   OH211315   2.831   6.408   4.109
 3784TIP3    H111316   2.882   6.336   4.145
 3784TIP3    H211317   2.742   6.373   4.103
 3785TIP3   OH211318   3.261   5.833   4.889
 3785TIP3    H111319   3.196   5.830   4.958
 3785TIP3    H211320   3.239   5.911   4.838
 3786TIP3   OH211321   0.757   0.184   4.077
 3786TIP3    H111322   0.756   0.267   4.030
 3786TIP3    H211323   0.789   0.206   4.164
 3787TIP3   OH211324   5.590   0.790   0.879
 3787TIP3    H111325   5.535   0.736   0.821
 3787TIP3    H211326   5.534   0.865   0.902
 3788TIP3   OH211327   5.517   4.024   4.633
 3788TIP3    H111328   5.474   4.081   4.696
 3788TIP3    H211329   5.572   3.966   4.686
 3789TIP3   OH211330   6.197   6.646   1.290
 3789TIP3    H111331   6.258   6.719   1.285
 3789TIP3    H211332   6.197   6.621   1.383
 3790TIP3   OH211333   0.705   2.668   1.103
 3790TIP3    H111334   0.794   2.642   1.126
 3790TIP3    H211335   0.714   2.714   1.020
 3791TIP3   OH211336   1.244   4.141   4.866
 3791TIP3    H111337   1.319   4.200   4.866
 3791TIP3    H211338   1.227   4.124   4.773
 3792TIP3   OH211339   6.118   6.694   3.173
 3792TIP3    H111340   6.082   6.649   3.097
 3792TIP3    H211341   6.204   6.724   3.145
 3793TIP3   OH211342   2.127   1.479   4.408
 3793TIP3    H111343   2.094   1.550   4.352
 3793TIP3    H211344   2.173   1.525   4.479
 3794TIP3   OH211345   5.777   0.871   4.007
 3794TIP3    H111346   5.850   0.877   4.069
 3794TIP3    H211347   5.816   0.892   3.922
 3795TIP3   OH211348   0.467   1.373   0.444
 3795TIP3    H111349   0.422   1.373   0.359
 3795TIP3    H211350   0.530   1.301   0.437
 3796TIP3   OH211351   5.739   2.008   2.916
 3796TIP3    H111352   5.754   1.926   2.963
 3796TIP3    H211353   5.761   2.076   2.979
 3797TIP3   OH211354   6.663   5.071   3.154
 3797TIP3    H111355   6.594   5.117   3.108
 3797TIP3    H211356   6.743   5.093   3.107
 3798TIP3   OH211357   3.359   6.113   5.917
 3798TIP3    H111358   3.398   6.153   5.840
 3798TIP3    H211359   3.264   6.119   5.902
 3799TIP3   OH211360   0.056   3.406   5.725
 3799TIP3    H111361   0.111   3.366   5.658
 3799TIP3    H211362  -0.031   3.408   5.686
 3800TIP3   OH211363   0.152   1.041   5.578
 3800TIP3    H111364   0.178   0.957   5.617
 3800TIP3    H211365   0.227   1.099   5.593
 3801TIP3   OH211366   5.530   4.108   1.223
 3801TIP3    H111367   5.534   4.075   1.134
 3801TIP3    H211368   5.575   4.042   1.275
 3802TIP3   OH211369   6.196   6.019   0.139
 3802TIP3    H111370   6.277   6.059   0.108
 3802TIP3    H211371   6.224   5.945   0.193
 3803TIP3   OH211372   0.147   0.811   4.760
 3803TIP3    H111373   0.165   0.778   4.672
 3803TIP3    H211374   0.055   0.790   4.776
 3804TIP3   OH211375   7.147   3.072   4.196
 3804TIP3    H111376   7.162   3.106   4.108
 3804TIP3    H211377   7.101   2.989   4.183
 3805TIP3   OH211378   4.473   0.722   5.513
 3805TIP3    H111379   4.404   0.666   5.475
 3805TIP3    H211380   4.461   0.714   5.607
 3806TIP3   OH211381   4.760   0.806   0.305
 3806TIP3    H111382   4.851   0.782   0.288
 3806TIP3    H211383   4.718   0.724   0.330
 3807TIP3   OH211384   3.009   2.391   0.530
 3807TIP3    H111385   3.023   2.426   0.442
 3807TIP3    H211386   3.096   2.393   0.570
 3808TIP3   OH211387   6.033   2.283   0.286
 3808TIP3    H111388   6.002   2.265   0.197
 3808TIP3    H211389   5.953   2.296   0.337
 3809TIP3   OH211390   4.710   5.933   4.137
 3809TIP3    H111391   4.791   5.984   4.141
 3809TIP3    H211392   4.740   5.842   4.139
 3810TIP3   OH211393   0.024   4.311   1.767
 3810TIP3    H111394   0.032   4.228   1.721
 3810TIP3    H211395   0.080   4.301   1.844
 3811TIP3   OH211396   3.617   0.802   3.330
 3811TIP3    H111397   3.713   0.794   3.330
 3811TIP3    H211398   3.586   0.714   3.352
 3812TIP3   OH211399   5.083   5.786   3.163
 3812TIP3    H111400   5.114   5.767   3.252
 3812TIP3    H211401   5.160   5.774   3.108
 3813TIP3   OH211402   2.721   2.021   1.057
 3813TIP3    H111403   2.780   2.019   1.132
 3813TIP3    H211404   2.665   1.944   1.067
 3814TIP3   OH211405   2.057   1.162   1.951
 3814TIP3    H111406   2.032   1.254   1.954
 3814TIP3    H211407   2.040   1.135   1.861
 3815TIP3   OH211408   4.438   5.543   4.494
 3815TIP3    H111409   4.377   5.601   4.539
 3815TIP3    H211410   4.409   5.544   4.402
 3816TIP3   OH211411   7.102   2.496   0.470
 3816TIP3    H111412   7.126   2.580   0.431
 3816TIP3    H211413   7.035   2.461   0.412
 3817TIP3   OH211414   1.710   6.326   4.125
 3817TIP3    H111415   1.772   6.343   4.053
 3817TIP3    H211416   1.685   6.413   4.156
 3818TIP3   OH211417   4.557   4.744   4.217
 3818TIP3    H111418   4.572   4.714   4.307
 3818TIP3    H211419   4.559   4.840   4.224
 3819TIP3   OH211420   5.183   2.769   4.742
 3819TIP3    H111421   5.226   2.703   4.797
 3819TIP3    H211422   5.090   2.760   4.764
 3820TIP3   OH211423   6.409   4.207   2.245
 3820TIP3    H111424   6.396   4.295   2.211
 3820TIP3    H211425   6.379   4.211   2.336
 3821TIP3   OH211426   1.240   6.407   2.021
 3821TIP3    H111427   1.312   6.416   2.083
 3821TIP3    H211428   1.175   6.355   2.069
 3822TIP3   OH211429   0.527   6.053   0.066
 3822TIP3    H111430   0.455   6.065   0.128
 3822TIP3    H211431   0.603   6.034   0.122
 3823TIP3   OH211432   1.081   3.303   2.783
 3823TIP3    H111433   1.100   3.384   2.832
 3823TIP3    H211434   1.162   3.252   2.789
 3824TIP3   OH211435   1.357   5.937   2.407
 3824TIP3    H111436   1.429   5.886   2.370
 3824TIP3    H211437   1.335   5.892   2.489
 3825TIP3   OH211438   4.094   1.556   2.705
 3825TIP3    H111439   4.014   1.567   2.757
 3825TIP3    H211440   4.106   1.461   2.701
 3826TIP3   OH211441   3.954   0.653   1.727
 3826TIP3    H111442   4.049   0.659   1.738
 3826TIP3    H211443   3.924   0.604   1.803
 3827TIP3   OH211444   5.709   3.651   4.003
 3827TIP3    H111445   5.614   3.640   4.000
 3827TIP3    H211446   5.743   3.576   3.953
 3828TIP3   OH211447   2.079   3.389   3.987
 3828TIP3    H111448   2.029   3.468   4.007
 3828TIP3    H211449   2.085   3.388   3.891
 3829TIP3   OH211450   2.886   0.187   2.294
 3829TIP3    H111451   2.872   0.273   2.334
 3829TIP3    H211452   2.962   0.200   2.237
 3830TIP3   OH211453   5.312   6.522   1.259
 3830TIP3    H111454   5.327   6.561   1.345
 3830TIP3    H211455   5.245   6.577   1.219
 3831TIP3   OH211456   4.253   4.446   5.387
 3831TIP3    H111457   4.328   4.503   5.408
 3831TIP3    H211458   4.254   4.379   5.455
 3832TIP3   OH211459   3.393   1.738   4.242
 3832TIP3    H111460   3.414   1.806   4.306
 3832TIP3    H211461   3.444   1.761   4.164
 3833TIP3   OH211462   3.784   1.609   4.454
 3833TIP3    H111463   3.835   1.642   4.529
 3833TIP3    H211464   3.695   1.639   4.471
 3834TIP3   OH211465   1.570   5.494   5.360
 3834TIP3    H111466   1.548   5.511   5.451
 3834TIP3    H211467   1.641   5.430   5.364
 3835TIP3   OH211468   1.118   4.027   3.628
 3835TIP3    H111469   1.122   4.118   3.598
 3835TIP3    H211470   1.072   4.031   3.711
 3836TIP3   OH211471   2.292   6.391   3.470
 3836TIP3    H111472   2.376   6.362   3.435
 3836TIP3    H211473   2.285   6.483   3.444
 3837TIP3   OH211474   6.278   2.030   2.711
 3837TIP3    H111475   6.291   2.125   2.708
 3837TIP3    H211476   6.256   2.006   2.621
 3838TIP3   OH211477   5.707   4.312   4.950
 3838TIP3    H111478   5.739   4.401   4.965
 3838TIP3    H211479   5.760   4.279   4.877
 3839TIP3   OH211480   6.391   4.145   3.424
 3839TIP3    H111481   6.337   4.102   3.490
 3839TIP3    H211482   6.465   4.085   3.412
 3840TIP3   OH211483   4.032   3.815   4.387
 3840TIP3    H111484   4.060   3.732   4.426
 3840TIP3    H211485   4.111   3.869   4.386
 3841TIP3   OH211486   3.371   1.728   3.630
 3841TIP3    H111487   3.360   1.633   3.634
 3841TIP3    H211488   3.383   1.754   3.722
 3842TIP3   OH211489   3.831   0.537   0.362
 3842TIP3    H111490   3.911   0.528   0.310
 3842TIP3    H211491   3.760   0.541   0.298
 3843TIP3   OH211492   6.386   1.851   3.501
 3843TIP3    H111493   6.402   1.813   3.587
 3843TIP3    H211494   6.359   1.941   3.519
 3844TIP3   OH211495   5.545   6.820   2.705
 3844TIP3    H111496   5.616   6.766   2.671
 3844TIP3    H211497   5.468   6.794   2.655
 3845TIP3   OH211498   1.482   1.753   3.601
 3845TIP3    H111499   1.501   1.845   3.582
 3845TIP3    H211500   1.551   1.705   3.555
 3846TIP3   OH211501   2.106   5.753   3.237
 3846TIP3    H111502   2.075   5.762   3.327
 3846TIP3    H211503   2.027   5.739   3.185
 3847TIP3   OH211504   1.794   6.478   0.867
 3847TIP3    H111505   1.788   6.494   0.773
 3847TIP3    H211506   1.847   6.551   0.901
 3848TIP3   OH211507   6.694   6.146   2.104
 3848TIP3    H111508   6.789   6.151   2.118
 3848TIP3    H211509   6.657   6.201   2.174
 3849TIP3   OH211510   5.463   1.697   3.699
 3849TIP3    H111511   5.397   1.760   3.670
 3849TIP3    H211512   5.414   1.615   3.709
 3850TIP3   OH211513   6.029   5.738   4.200
 3850TIP3    H111514   6.041   5.807   4.265
 3850TIP3    H211515   5.989   5.782   4.126
 3851TIP3   OH211516   3.243   1.237   4.733
 3851TIP3    H111517   3.339   1.237   4.723
 3851TIP3    H211518   3.217   1.148   4.710
 3852TIP3   OH211519   2.864   3.947   1.167
 3852TIP3    H111520   2.823   3.964   1.082
 3852TIP3    H211521   2.793   3.917   1.223
 3853TIP3   OH211522   0.163   3.750   2.619
 3853TIP3    H111523   0.191   3.671   2.665
 3853TIP3    H211524   0.072   3.732   2.595
 3854TIP3   OH211525   4.365   4.244   2.316
 3854TIP3    H111526   4.286   4.298   2.304
 3854TIP3    H211527   4.397   4.266   2.403
 3855TIP3   OH211528   2.141   0.974   4.585
 3855TIP3    H111529   2.080   1.026   4.636
 3855TIP3    H211530   2.121   0.884   4.609
 3856TIP3   OH211531   1.961   4.203   3.520
 3856TIP3    H111532   2.011   4.165   3.592
 3856TIP3    H211533   2.026   4.247   3.465
 3857TIP3   OH211534   4.795   2.659   0.810
 3857TIP3    H111535   4.723   2.597   0.796
 3857TIP3    H211536   4.859   2.637   0.743
 3858TIP3   OH211537   6.054   3.828   3.420
 3858TIP3    H111538   6.023   3.913   3.388
 3858TIP3    H211539   5.975   3.783   3.448
 3859TIP3   OH211540   2.149   2.994   4.075
 3859TIP3    H111541   2.234   2.953   4.091
 3859TIP3    H211542   2.088   2.920   4.071
 3860TIP3   OH211543   3.927   1.621   0.219
 3860TIP3    H111544   3.894   1.669   0.295
 3860TIP3    H211545   3.940   1.688   0.152
 3861TIP3   OH211546   1.794   5.940   2.882
 3861TIP3    H111547   1.729   5.982   2.827
 3861TIP3    H211548   1.747   5.918   2.963
 3862TIP3   OH211549   1.176   2.900   1.708
 3862TIP3    H111550   1.218   2.859   1.783
 3862TIP3    H211551   1.249   2.936   1.657
 3863TIP3   OH211552   4.531   0.150   4.352
 3863TIP3    H111553   4.477   0.120   4.425
 3863TIP3    H211554   4.543   0.073   4.297
 3864TIP3   OH211555   3.707   2.335   2.813
 3864TIP3    H111556   3.647   2.349   2.887
 3864TIP3    H211557   3.652   2.340   2.735
 3865TIP3   OH211558   0.876   1.915   5.351
 3865TIP3    H111559   0.811   1.963   5.402
 3865TIP3    H211560   0.945   1.893   5.413
 3866TIP3   OH211561   4.904   4.139   0.719
 3866TIP3    H111562   4.858   4.122   0.802
 3866TIP3    H211563   4.889   4.232   0.702
 3867TIP3   OH211564   6.548   4.570   1.400
 3867TIP3    H111565   6.491   4.646   1.406
 3867TIP3    H211566   6.489   4.495   1.397
 3868TIP3   OH211567   1.631   6.554   1.173
 3868TIP3    H111568   1.700   6.600   1.125
 3868TIP3    H211569   1.616   6.474   1.123
 3869TIP3   OH211570   4.354   4.237   3.164
 3869TIP3    H111571   4.334   4.293   3.090
 3869TIP3    H211572   4.449   4.243   3.174
 3870TIP3   OH211573   7.176   3.158   1.222
 3870TIP3    H111574   7.261   3.168   1.266
 3870TIP3    H211575   7.199   3.152   1.129
 3871TIP3   OH211576   1.809   4.185   5.013
 3871TIP3    H111577   1.871   4.136   4.959
 3871TIP3    H211578   1.818   4.148   5.101
 3872TIP3   OH211579   3.120   2.469   2.081
 3872TIP3    H111580   3.097   2.400   2.143
 3872TIP3    H211581   3.173   2.424   2.015
 3873TIP3   OH211582   4.898   2.222   4.585
 3873TIP3    H111583   4.819   2.194   4.539
 3873TIP3    H211584   4.920   2.150   4.643
 3874TIP3   OH211585   3.780   6.637   0.935
 3874TIP3    H111586   3.699   6.623   0.885
 3874TIP3    H211587   3.824   6.709   0.891
 3875TIP3   OH211588   1.362   2.995   0.284
 3875TIP3    H111589   1.340   2.954   0.367
 3875TIP3    H211590   1.389   3.084   0.307
 3876TIP3   OH211591   4.316   3.306   1.376
 3876TIP3    H111592   4.254   3.355   1.429
 3876TIP3    H211593   4.374   3.373   1.339
 3877TIP3   OH211594   0.564   4.157   1.969
 3877TIP3    H111595   0.539   4.064   1.969
 3877TIP3    H211596   0.581   4.177   2.061
 3878TIP3   OH211597   2.485   6.136   5.018
 3878TIP3    H111598   2.524   6.052   5.042
 3878TIP3    H211599   2.428   6.158   5.091
 3879TIP3   OH211600   2.974   1.729   5.423
 3879TIP3    H111601   2.928   1.649   5.450
 3879TIP3    H211602   2.944   1.796   5.483
 3880TIP3   OH211603   5.072   0.056   2.195
 3880TIP3    H111604   4.992   0.010   2.223
 3880TIP3    H211605   5.143  -0.003   2.219
 3881TIP3   OH211606   4.451   0.405   0.563
 3881TIP3    H111607   4.391   0.381   0.492
 3881TIP3    H211608   4.529   0.351   0.548
 3882TIP3   OH211609   4.174   4.991   3.899
 3882TIP3    H111610   4.212   5.028   3.979
 3882TIP3    H211611   4.213   4.904   3.892
 3883TIP3   OH211612   0.923   1.117   4.728
 3883TIP3    H111613   1.013   1.140   4.752
 3883TIP3    H211614   0.870   1.188   4.765
 3884TIP3   OH211615   2.646   5.106   5.669
 3884TIP3    H111616   2.590   5.031   5.648
 3884TIP3    H211617   2.652   5.105   5.764
 3885TIP3   OH211618   2.365   4.148   3.796
 3885TIP3    H111619   2.318   4.219   3.841
 3885TIP3    H211620   2.455   4.156   3.827
 3886TIP3   OH211621   3.002   4.098   0.200
 3886TIP3    H111622   2.974   4.067   0.114
 3886TIP3    H211623   3.043   4.022   0.241
 3887TIP3   OH211624   4.562   6.014   1.743
 3887TIP3    H111625   4.520   6.087   1.699
 3887TIP3    H211626   4.570   6.043   1.834
 3888TIP3   OH211627   0.357   1.833   2.448
 3888TIP3    H111628   0.280   1.825   2.504
 3888TIP3    H211629   0.366   1.746   2.408
 3889TIP3   OH211630   5.393   2.807   5.567
 3889TIP3    H111631   5.453   2.793   5.641
 3889TIP3    H211632   5.420   2.892   5.531
 3890TIP3   OH211633   3.230   2.382   3.753
 3890TIP3    H111634   3.157   2.343   3.705
 3890TIP3    H211635   3.250   2.463   3.705
 3891TIP3   OH211636   5.435   0.295   2.887
 3891TIP3    H111637   5.361   0.348   2.917
 3891TIP3    H211638   5.477   0.348   2.820
 3892TIP3   OH211639   4.078   0.506   3.509
 3892TIP3    H111640   4.167   0.506   3.475
 3892TIP3    H211641   4.049   0.416   3.501
 3893TIP3   OH211642   4.923   1.128   3.595
 3893TIP3    H111643   4.886   1.131   3.507
 3893TIP3    H211644   4.895   1.043   3.630
 3894TIP3   OH211645   6.520   4.333   4.862
 3894TIP3    H111646   6.487   4.403   4.805
 3894TIP3    H211647   6.585   4.288   4.808
 3895TIP3   OH211648   5.858   3.994   4.199
 3895TIP3    H111649   5.786   3.941   4.234
 3895TIP3    H211650   5.922   3.997   4.270
 3896TIP3   OH211651   6.796   4.266   0.574
 3896TIP3    H111652   6.776   4.323   0.500
 3896TIP3    H211653   6.889   4.279   0.589
 3897TIP3   OH211654   2.035   3.331   0.305
 3897TIP3    H111655   1.963   3.331   0.243
 3897TIP3    H211656   2.111   3.361   0.254
 3898TIP3   OH211657   0.336   5.200  -0.020
 3898TIP3    H111658   0.411   5.200   0.038
 3898TIP3    H211659   0.271   5.255   0.024
 3899TIP3   OH211660   4.303   5.340   0.723
 3899TIP3    H111661   4.348   5.422   0.744
 3899TIP3    H211662   4.312   5.288   0.803
 3900TIP3   OH211663   2.688   2.121   2.301
 3900TIP3    H111664   2.745   2.122   2.377
 3900TIP3    H211665   2.609   2.076   2.331
 3901TIP3   OH211666   1.350   4.667   1.676
 3901TIP3    H111667   1.304   4.690   1.595
 3901TIP3    H211668   1.417   4.735   1.686
 3902TIP3   OH211669   4.670   6.753   4.197
 3902TIP3    H111670   4.600   6.707   4.242
 3902TIP3    H211671   4.693   6.825   4.255
 3903TIP3   OH211672   5.857   4.254   2.437
 3903TIP3    H111673   5.897   4.182   2.388
 3903TIP3    H211674   5.780   4.279   2.384
 3904TIP3   OH211675   1.104   2.666   3.037
 3904TIP3    H111676   1.099   2.741   3.096
 3904TIP3    H211677   1.014   2.649   3.012
 3905TIP3   OH211678   2.175   1.093   5.618
 3905TIP3    H111679   2.158   1.168   5.561
 3905TIP3    H211680   2.096   1.040   5.612
 3906TIP3   OH211681   2.411   1.628   5.026
 3906TIP3    H111682   2.456   1.546   5.003
 3906TIP3    H211683   2.472   1.672   5.086
 3907TIP3   OH211684   3.860   4.132   3.464
 3907TIP3    H111685   3.935   4.177   3.427
 3907TIP3    H211686   3.897   4.054   3.506
 3908TIP3   OH211687   6.275   4.146   0.325
 3908TIP3    H111688   6.310   4.230   0.354
 3908TIP3    H211689   6.277   4.091   0.403
 3909TIP3   OH211690   0.772   0.343   3.338
 3909TIP3    H111691   0.741   0.309   3.254
 3909TIP3    H211692   0.702   0.400   3.369
 3910TIP3   OH211693   5.525   3.818   4.846
 3910TIP3    H111694   5.604   3.848   4.892
 3910TIP3    H211695   5.545   3.728   4.821
 3911TIP3   OH211696   1.805   0.726   0.827
 3911TIP3    H111697   1.791   0.715   0.733
 3911TIP3    H211698   1.877   0.788   0.833
 3912TIP3   OH211699   3.636   5.515   1.147
 3912TIP3    H111700   3.696   5.452   1.188
 3912TIP3    H211701   3.554   5.466   1.136
 3913TIP3   OH211702   6.369   5.266   3.900
 3913TIP3    H111703   6.279   5.273   3.931
 3913TIP3    H211704   6.370   5.185   3.849
 3914TIP3   OH211705   7.124   1.779   0.061
 3914TIP3    H111706   7.121   1.685   0.042
 3914TIP3    H211707   7.044   1.814   0.021
 3915TIP3   OH211708   0.331   4.381   0.510
 3915TIP3    H111709   0.360   4.294   0.482
 3915TIP3    H211710   0.326   4.431   0.428
 3916TIP3   OH211711   4.489   2.485   3.074
 3916TIP3    H111712   4.487   2.404   3.023
 3916TIP3    H211713   4.397   2.500   3.099
 3917TIP3   OH211714   6.462   3.204   4.027
 3917TIP3    H111715   6.461   3.215   4.122
 3917TIP3    H211716   6.393   3.140   4.010
 3918TIP3   OH211717   2.704   0.767   0.019
 3918TIP3    H111718   2.690   0.785   0.112
 3918TIP3    H211719   2.689   0.673   0.010
 3919TIP3   OH211720   2.546   1.489   3.116
 3919TIP3    H111721   2.634   1.492   3.155
 3919TIP3    H211722   2.538   1.401   3.082
 3920TIP3   OH211723   0.586   0.107   5.154
 3920TIP3    H111724   0.506   0.128   5.106
 3920TIP3    H211725   0.590   0.011   5.152
 3921TIP3   OH211726   3.030   1.685   2.161
 3921TIP3    H111727   2.958   1.633   2.125
 3921TIP3    H211728   2.991   1.734   2.233
 3922TIP3   OH211729   1.214   2.300   1.797
 3922TIP3    H111730   1.270   2.275   1.870
 3922TIP3    H211731   1.244   2.388   1.772
 3923TIP3   OH211732   2.925   1.472   5.494
 3923TIP3    H111733   2.857   1.417   5.532
 3923TIP3    H211734   3.007   1.438   5.529
 3924TIP3   OH211735   5.910   0.191   0.234
 3924TIP3    H111736   5.869   0.246   0.167
 3924TIP3    H211737   5.951   0.120   0.185
 3925TIP3   OH211738   1.849   4.908   0.511
 3925TIP3    H111739   1.796   4.929   0.587
 3925TIP3    H211740   1.936   4.943   0.532
 3926TIP3   OH211741   1.554   1.588   5.728
 3926TIP3    H111742   1.607   1.660   5.693
 3926TIP3    H211743   1.532   1.535   5.651
 3927TIP3   OH211744   3.392   3.683   3.258
 3927TIP3    H111745   3.394   3.674   3.353
 3927TIP3    H211746   3.343   3.606   3.227
 3928TIP3   OH211747   3.705   4.091   2.388
 3928TIP3    H111748   3.747   4.159   2.441
 3928TIP3    H211749   3.729   4.112   2.298
 3929TIP3   OH211750   5.052   2.095   1.787
 3929TIP3    H111751   5.113   2.093   1.861
 3929TIP3    H211752   5.091   2.157   1.726
 3930TIP3   OH211753   6.346   3.197   3.691
 3930TIP3    H111754   6.378   3.125   3.746
 3930TIP3    H211755   6.416   3.214   3.629
 3931TIP3   OH211756   6.541   1.848   1.133
 3931TIP3    H111757   6.538   1.765   1.180
 3931TIP3    H211758   6.453   1.860   1.099
 3932TIP3   OH211759   1.841   0.365   1.336
 3932TIP3    H111760   1.884   0.312   1.404
 3932TIP3    H211761   1.848   0.455   1.367
 3933TIP3   OH211762   4.961   2.382   1.596
 3933TIP3    H111763   5.025   2.314   1.573
 3933TIP3    H211764   4.988   2.458   1.545
 3934TIP3   OH211765   2.957   2.315   2.255
 3934TIP3    H111766   2.863   2.333   2.246
 3934TIP3    H211767   2.967   2.284   2.345
 3935TIP3   OH211768   0.977   1.059   5.387
 3935TIP3    H111769   1.070   1.043   5.375
 3935TIP3    H211770   0.936   1.029   5.306
 3936TIP3   OH211771   1.794   1.330   5.071
 3936TIP3    H111772   1.737   1.356   4.999
 3936TIP3    H211773   1.827   1.413   5.107
 3937TIP3   OH211774   2.978   5.399   1.243
 3937TIP3    H111775   3.050   5.461   1.232
 3937TIP3    H211776   2.973   5.353   1.160
 3938TIP3   OH211777   0.823   3.293   3.817
 3938TIP3    H111778   0.887   3.303   3.889
 3938TIP3    H211779   0.738   3.303   3.860
 3939TIP3   OH211780   5.491   3.829   1.099
 3939TIP3    H111781   5.544   3.798   1.025
 3939TIP3    H211782   5.402   3.800   1.078
 3940TIP3   OH211783   1.783   4.767   3.115
 3940TIP3    H111784   1.868   4.765   3.072
 3940TIP3    H211785   1.802   4.785   3.207
 3941TIP3   OH211786   3.309   1.254   5.306
 3941TIP3    H111787   3.320   1.322   5.240
 3941TIP3    H211788   3.398   1.237   5.339
 3942TIP3   OH211789   5.760   5.720   3.888
 3942TIP3    H111790   5.693   5.709   3.956
 3942TIP3    H211791   5.821   5.784   3.925
 3943TIP3   OH211792   5.102   0.150   1.175
 3943TIP3    H111793   5.136   0.142   1.086
 3943TIP3    H211794   5.084   0.061   1.203
 3944TIP3   OH211795   1.684   3.706   4.146
 3944TIP3    H111796   1.704   3.768   4.216
 3944TIP3    H211797   1.756   3.642   4.149
 3945TIP3   OH211798   5.795   3.846   3.605
 3945TIP3    H111799   5.845   3.845   3.687
 3945TIP3    H211800   5.795   3.938   3.579
 3946TIP3   OH211801   0.881   6.788   1.516
 3946TIP3    H111802   0.966   6.771   1.557
 3946TIP3    H211803   0.853   6.703   1.483
 3947TIP3   OH211804   6.446   6.483   3.087
 3947TIP3    H111805   6.395   6.559   3.059
 3947TIP3    H211806   6.528   6.490   3.040
 3948TIP3   OH211807   1.697   0.164   3.276
 3948TIP3    H111808   1.755   0.238   3.291
 3948TIP3    H211809   1.699   0.115   3.359
 3949TIP3   OH211810   6.687   5.427   2.396
 3949TIP3    H111811   6.643   5.413   2.480
 3949TIP3    H211812   6.665   5.517   2.373
 3950TIP3   OH211813   6.150   3.556   3.707
 3950TIP3    H111814   6.148   3.461   3.720
 3950TIP3    H211815   6.242   3.576   3.688
 3951TIP3   OH211816   0.395   5.151   1.496
 3951TIP3    H111817   0.469   5.134   1.554
 3951TIP3    H211818   0.433   5.152   1.408
 3952TIP3   OH211819   1.731   6.544   3.748
 3952TIP3    H111820   1.798   6.498   3.798
 3952TIP3    H211821   1.688   6.602   3.811
 3953TIP3   OH211822   5.843   3.973   0.865
 3953TIP3    H111823   5.754   4.002   0.883
 3953TIP3    H211824   5.846   3.964   0.769
 3954TIP3   OH211825   2.822   5.323   2.267
 3954TIP3    H111826   2.805   5.232   2.243
 3954TIP3    H211827   2.790   5.330   2.357
 3955TIP3   OH211828   3.527   6.061   3.820
 3955TIP3    H111829   3.472   5.982   3.825
 3955TIP3    H211830   3.587   6.052   3.895
 3956TIP3   OH211831   4.840   1.358   0.516
 3956TIP3    H111832   4.813   1.396   0.599
 3956TIP3    H211833   4.928   1.324   0.532
 3957TIP3   OH211834   4.814   2.652   5.579
 3957TIP3    H111835   4.869   2.584   5.618
 3957TIP3    H211836   4.859   2.734   5.599
 3958TIP3   OH211837   5.456   2.816   3.416
 3958TIP3    H111838   5.413   2.893   3.380
 3958TIP3    H211839   5.549   2.833   3.405
 3959TIP3   OH211840   4.390   2.261   5.363
 3959TIP3    H111841   4.388   2.166   5.371
 3959TIP3    H211842   4.302   2.285   5.333
 3960TIP3   OH211843   2.260   3.912   4.939
 3960TIP3    H111844   2.175   3.949   4.962
 3960TIP3    H211845   2.324   3.977   4.971
 3961TIP3   OH211846   6.844   5.525   3.062
 3961TIP3    H111847   6.893   5.573   2.995
 3961TIP3    H211848   6.905   5.459   3.094
 3962TIP3   OH211849   3.732   6.369   5.428
 3962TIP3    H111850   3.791   6.295   5.415
 3962TIP3    H211851   3.726   6.410   5.342
 3963TIP3   OH211852   6.556   3.205   0.364
 3963TIP3    H111853   6.467   3.240   0.373
 3963TIP3    H211854   6.611   3.283   0.360
 3964TIP3   OH211855   6.027   6.716   3.425
 3964TIP3    H111856   5.975   6.636   3.439
 3964TIP3    H211857   6.055   6.710   3.334
 3965TIP3   OH211858   2.148   3.914   3.292
 3965TIP3    H111859   2.082   3.927   3.360
 3965TIP3    H211860   2.174   3.823   3.301
 3966TIP3   OH211861   4.155   1.986   4.013
 3966TIP3    H111862   4.199   1.983   4.098
 3966TIP3    H211863   4.226   1.983   3.949
 3967TIP3   OH211864   3.949   3.376   1.864
 3967TIP3    H111865   3.886   3.420   1.921
 3967TIP3    H211866   3.966   3.438   1.793
 3968TIP3   OH211867   3.305   5.532   5.834
 3968TIP3    H111868   3.307   5.598   5.765
 3968TIP3    H211869   3.212   5.514   5.848
 3969TIP3   OH211870   1.094   1.253   4.398
 3969TIP3    H111871   1.054   1.333   4.433
 3969TIP3    H211872   1.021   1.191   4.391
 3970TIP3   OH211873   1.624   3.383   5.010
 3970TIP3    H111874   1.542   3.415   5.048
 3970TIP3    H211875   1.599   3.350   4.923
 3971TIP3   OH211876   5.040   5.325   3.481
 3971TIP3    H111877   5.135   5.317   3.490
 3971TIP3    H211878   5.028   5.392   3.414
 3972TIP3   OH211879   3.587   0.615   4.709
 3972TIP3    H111880   3.581   0.708   4.728
 3972TIP3    H211881   3.591   0.573   4.795
 3973TIP3   OH211882   1.140   0.128   2.231
 3973TIP3    H111883   1.138   0.127   2.135
 3973TIP3    H211884   1.222   0.085   2.254
 3974TIP3   OH211885   4.494   2.035   2.330
 3974TIP3    H111886   4.530   2.116   2.365
 3974TIP3    H211887   4.399   2.048   2.331
 3975TIP3   OH211888   0.223   1.723   2.878
 3975TIP3    H111889   0.257   1.670   2.950
 3975TIP3    H211890   0.128   1.717   2.885
 3976TIP3   OH211891   5.744   3.223   3.844
 3976TIP3    H111892   5.762   3.217   3.750
 3976TIP3    H211893   5.722   3.316   3.858
 3977TIP3   OH211894   1.837   3.811   3.740
 3977TIP3    H111895   1.747   3.799   3.772
 3977TIP3    H211896   1.825   3.839   3.649
 3978TIP3   OH211897   0.797   2.128   2.260
 3978TIP3    H111898   0.863   2.197   2.253
 3978TIP3    H211899   0.847   2.048   2.275
 3979TIP3   OH211900   3.636   1.046   1.713
 3979TIP3    H111901   3.670   1.049   1.802
 3979TIP3    H211902   3.713   1.031   1.658
 3980TIP3   OH211903   4.834   2.995   3.971
 3980TIP3    H111904   4.911   2.941   3.987
 3980TIP3    H211905   4.859   3.054   3.900
 3981TIP3   OH211906   1.903   1.299   5.348
 3981TIP3    H111907   1.870   1.289   5.258
 3981TIP3    H211908   1.880   1.217   5.391
 3982TIP3   OH211909   6.563   5.225   2.962
 3982TIP3    H111910   6.607   5.309   2.973
 3982TIP3    H211911   6.491   5.244   2.902
 3983TIP3   OH211912   0.239   2.462   3.673
 3983TIP3    H111913   0.222   2.503   3.758
 3983TIP3    H211914   0.331   2.480   3.656
 3984TIP3   OH211915   3.216   2.313   5.818
 3984TIP3    H111916   3.272   2.274   5.750
 3984TIP3    H211917   3.277   2.345   5.884
 3985TIP3   OH211918   5.119   3.434   5.157
 3985TIP3    H111919   5.154   3.349   5.132
 3985TIP3    H211920   5.060   3.415   5.230
 3986TIP3   OH211921   0.716   6.092   3.327
 3986TIP3    H111922   0.703   6.000   3.351
 3986TIP3    H211923   0.673   6.142   3.396
 3987TIP3   OH211924   7.006   2.894   4.567
 3987TIP3    H111925   6.962   2.926   4.645
 3987TIP3    H211926   7.070   2.962   4.545
 3988TIP3   OH211927   1.592   5.313   3.374
 3988TIP3    H111928   1.662   5.307   3.439
 3988TIP3    H211929   1.556   5.225   3.369
 3989TIP3   OH211930   2.482   3.188   2.118
 3989TIP3    H111931   2.521   3.258   2.170
 3989TIP3    H211932   2.454   3.232   2.037
 3990TIP3   OH211933   1.569   0.987   3.121
 3990TIP3    H111934   1.596   0.996   3.029
 3990TIP3    H211935   1.479   1.022   3.122
 3991TIP3   OH211936   5.097   4.697   0.094
 3991TIP3    H111937   5.179   4.735   0.064
 3991TIP3    H211938   5.041   4.696   0.017
 3992TIP3   OH211939   3.701   6.161   2.483
 3992TIP3    H111940   3.620   6.209   2.496
 3992TIP3    H211941   3.702   6.140   2.389
 3993TIP3   OH211942   1.989   0.748   4.546
 3993TIP3    H111943   2.075   0.709   4.561
 3993TIP3    H211944   1.954   0.763   4.634
 3994TIP3   OH211945   3.871   4.632   0.035
 3994TIP3    H111946   3.818   4.695   0.083
 3994TIP3    H211947   3.952   4.625   0.085
 3995TIP3   OH211948   0.754   2.089   1.702
 3995TIP3    H111949   0.695   2.133   1.762
 3995TIP3    H211950   0.842   2.115   1.730
 3996TIP3   OH211951   0.496   1.005   2.783
 3996TIP3    H111952   0.585   1.024   2.752
 3996TIP3    H211953   0.451   1.090   2.780
 3997TIP3   OH211954   2.092   3.315   4.698
 3997TIP3    H111955   2.187   3.303   4.694
 3997TIP3    H211956   2.073   3.325   4.791
 3998TIP3   OH211957   4.260   0.306   5.026
 3998TIP3    H111958   4.344   0.338   5.057
 3998TIP3    H211959   4.251   0.220   5.066
 3999TIP3   OH211960   6.092   2.339   3.689
 3999TIP3    H111961   6.163   2.287   3.727
 3999TIP3    H211962   6.056   2.387   3.763
 4000TIP3   OH211963   4.961   1.633   1.363
 4000TIP3    H111964   4.989   1.584   1.285
 4000TIP3    H211965   4.890   1.581   1.400
 4001TIP3   OH211966   1.515   0.529   1.989
 4001TIP3    H111967   1.495   0.592   2.058
 4001TIP3    H211968   1.482   0.446   2.022
 4002TIP3   OH211969   1.073   0.099   0.038
 4002TIP3    H111970   1.167   0.086   0.046
 4002TIP3    H211971   1.060   0.192   0.056
 4003TIP3   OH211972   4.786   2.972   4.319
 4003TIP3    H111973   4.799   2.978   4.224
 4003TIP3    H211974   4.703   2.924   4.328
 4004TIP3   OH211975   6.156   3.633   4.437
 4004TIP3    H111976   6.212   3.650   4.361
 4004TIP3    H211977   6.067   3.628   4.402
 4005TIP3   OH211978   1.510   1.255   0.183
 4005TIP3    H111979   1.545   1.294   0.103
 4005TIP3    H211980   1.519   1.323   0.250
 4006TIP3   OH211981   1.892   0.277   0.276
 4006TIP3    H111982   1.941   0.201   0.245
 4006TIP3    H211983   1.892   0.268   0.371
 4007TIP3   OH211984   6.258   6.047   5.696
 4007TIP3    H111985   6.165   6.070   5.686
 4007TIP3    H211986   6.274   5.983   5.627
 4008TIP3   OH211987   1.092   3.200   4.568
 4008TIP3    H111988   1.155   3.221   4.500
 4008TIP3    H211989   1.138   3.138   4.625
 4009TIP3   OH211990   4.803   5.181   4.480
 4009TIP3    H111991   4.748   5.257   4.499
 4009TIP3    H211992   4.884   5.197   4.528
 4010TIP3   OH211993   3.746   3.701   3.581
 4010TIP3    H111994   3.708   3.749   3.507
 4010TIP3    H211995   3.689   3.625   3.592
 4011TIP3   OH211996   2.990  -0.011   4.652
 4011TIP3    H111997   2.965   0.039   4.574
 4011TIP3    H211998   2.915  -0.001   4.711
 4012TIP3   OH211999   5.139   5.072   4.721
 4012TIP3    H112000   5.097   5.153   4.750
 4012TIP3    H212001   5.087   5.045   4.646
 4013TIP3   OH212002   3.673   5.545   4.211
 4013TIP3    H112003   3.718   5.565   4.129
 4013TIP3    H212004   3.690   5.621   4.267
 4014TIP3   OH212005   6.085   5.916   5.164
 4014TIP3    H112006   5.990   5.905   5.167
 4014TIP3    H212007   6.111   5.932   5.255
 4015TIP3   OH212008   3.582   5.785   0.391
 4015TIP3    H112009   3.659   5.770   0.337
 4015TIP3    H212010   3.508   5.781   0.330
 4016TIP3   OH212011   4.835   6.272   2.711
 4016TIP3    H112012   4.813   6.269   2.618
 4016TIP3    H212013   4.896   6.199   2.724
 4017TIP3   OH212014   2.808   3.701   2.956
 4017TIP3    H112015   2.735   3.755   2.990
 4017TIP3    H212016   2.855   3.673   3.035
 4018TIP3   OH212017   1.543   0.655   1.436
 4018TIP3    H112018   1.635   0.653   1.409
 4018TIP3    H212019   1.504   0.578   1.396
 4019TIP3   OH212020   6.784   5.316   3.904
 4019TIP3    H112021   6.728   5.373   3.851
 4019TIP3    H212022   6.867   5.363   3.911
 4020TIP3   OH212023   0.913   5.219   5.888
 4020TIP3    H112024   0.923   5.314   5.888
 4020TIP3    H212025   0.961   5.190   5.811
 4021TIP3   OH212026   1.871   1.493   3.670
 4021TIP3    H112027   1.835   1.518   3.585
 4021TIP3    H212028   1.801   1.513   3.732
 4022TIP3   OH212029   3.808   0.495   1.045
 4022TIP3    H112030   3.732   0.455   1.088
 4022TIP3    H212031   3.793   0.589   1.051
 4023TIP3   OH212032   5.297   2.440   3.633
 4023TIP3    H112033   5.260   2.364   3.588
 4023TIP3    H212034   5.337   2.404   3.712
 4024TIP3   OH212035   6.284   1.448   4.322
 4024TIP3    H112036   6.320   1.360   4.331
 4024TIP3    H212037   6.346   1.494   4.264
 4025TIP3   OH212038   3.683   5.768   1.070
 4025TIP3    H112039   3.641   5.773   0.984
 4025TIP3    H212040   3.666   5.678   1.099
 4026TIP3   OH212041   0.706   0.517   1.714
 4026TIP3    H112042   0.722   0.479   1.800
 4026TIP3    H212043   0.611   0.529   1.711
 4027TIP3   OH212044   6.441   3.877   1.221
 4027TIP3    H112045   6.415   3.796   1.178
 4027TIP3    H212046   6.426   3.860   1.314
 4028TIP3   OH212047   5.223   2.535   1.130
 4028TIP3    H112048   5.234   2.583   1.212
 4028TIP3    H212049   5.129   2.540   1.112
 4029TIP3   OH212050   4.794   0.885   3.688
 4029TIP3    H112051   4.820   0.815   3.748
 4029TIP3    H212052   4.721   0.928   3.732
 4030TIP3   OH212053   1.598   2.559   0.549
 4030TIP3    H112054   1.649   2.605   0.483
 4030TIP3    H212055   1.573   2.476   0.508
 4031TIP3   OH212056   6.230   1.182   3.413
 4031TIP3    H112057   6.301   1.122   3.436
 4031TIP3    H212058   6.273   1.266   3.400
 4032TIP3   OH212059   1.474   3.420   0.129
 4032TIP3    H112060   1.470   3.376   0.044
 4032TIP3    H212061   1.477   3.513   0.107
 4033TIP3   OH212062   5.856   1.025   0.585
 4033TIP3    H112063   5.838   0.938   0.548
 4033TIP3    H212064   5.868   1.010   0.678
 4034TIP3   OH212065   3.399   3.691   2.753
 4034TIP3    H112066   3.452   3.652   2.822
 4034TIP3    H212067   3.387   3.782   2.780
 4035TIP3   OH212068   3.053   3.333   4.413
 4035TIP3    H112069   3.054   3.283   4.495
 4035TIP3    H212070   2.962   3.357   4.400
 4036TIP3   OH212071   7.018   6.463   4.190
 4036TIP3    H112072   7.060   6.548   4.205
 4036TIP3    H212073   6.940   6.465   4.245
 4037TIP3   OH212074   6.330   6.214   2.094
 4037TIP3    H112075   6.403   6.275   2.105
 4037TIP3    H212076   6.293   6.206   2.182
 4038TIP3   OH212077   3.467   3.293   4.312
 4038TIP3    H112078   3.521   3.261   4.240
 4038TIP3    H212079   3.387   3.324   4.269
 4039TIP3   OH212080   2.268   5.563   1.816
 4039TIP3    H112081   2.234   5.481   1.782
 4039TIP3    H212082   2.220   5.631   1.768
 4040TIP3   OH212083   6.980   4.378   2.054
 4040TIP3    H112084   7.046   4.309   2.050
 4040TIP3    H212085   6.965   4.402   1.963
 4041TIP3   OH212086   4.477   2.254   1.648
 4041TIP3    H112087   4.435   2.198   1.714
 4041TIP3    H212088   4.491   2.196   1.573
 4042TIP3   OH212089   2.224   6.182   1.352
 4042TIP3    H112090   2.273   6.249   1.401
 4042TIP3    H212091   2.286   6.150   1.287
 4043TIP3   OH212092   1.793   0.986   3.656
 4043TIP3    H112093   1.825   1.018   3.741
 4043TIP3    H212094   1.872   0.958   3.610
 4044TIP3   OH212095   5.176   4.862   4.936
 4044TIP3    H112096   5.158   4.769   4.920
 4044TIP3    H212097   5.163   4.904   4.851
 4045TIP3   OH212098   0.550   2.774   5.742
 4045TIP3    H112099   0.460   2.803   5.730
 4045TIP3    H212100   0.543   2.685   5.774
 4046TIP3   OH212101   0.603   1.494   5.039
 4046TIP3    H112102   0.532   1.539   5.086
 4046TIP3    H212103   0.683   1.532   5.075
 4047TIP3   OH212104   2.578   6.630   4.248
 4047TIP3    H112105   2.657   6.604   4.294
 4047TIP3    H212106   2.565   6.563   4.181
 4048TIP3   OH212107   3.632   4.316   4.084
 4048TIP3    H112108   3.568   4.338   4.016
 4048TIP3    H212109   3.715   4.347   4.048
 4049TIP3   OH212110   6.330   3.302   5.683
 4049TIP3    H112111   6.379   3.275   5.761
 4049TIP3    H212112   6.396   3.338   5.624
 4050TIP3   OH212113   6.260   3.047   2.793
 4050TIP3    H112114   6.258   3.112   2.723
 4050TIP3    H212115   6.353   3.032   2.809
 4051TIP3   OH212116   7.152   5.882   4.530
 4051TIP3    H112117   7.057   5.887   4.542
 4051TIP3    H212118   7.166   5.900   4.437
 4052TIP3   OH212119   7.053   4.295   1.471
 4052TIP3    H112120   7.130   4.263   1.518
 4052TIP3    H212121   7.048   4.388   1.494
 4053TIP3   OH212122   6.619   1.625   5.029
 4053TIP3    H112123   6.690   1.689   5.033
 4053TIP3    H212124   6.607   1.610   4.935
 4054TIP3   OH212125   1.635   2.282   2.168
 4054TIP3    H112126   1.711   2.246   2.124
 4054TIP3    H212127   1.659   2.373   2.186
 4055TIP3   OH212128   1.040   3.349   5.602
 4055TIP3    H112129   1.015   3.344   5.509
 4055TIP3    H212130   1.019   3.439   5.627
 4056TIP3   OH212131   5.775   2.785   0.748
 4056TIP3    H112132   5.857   2.834   0.746
 4056TIP3    H212133   5.765   2.751   0.659
 4057TIP3   OH212134   2.456   5.283   1.704
 4057TIP3    H112135   2.482   5.366   1.663
 4057TIP3    H212136   2.517   5.218   1.670
 4058TIP3   OH212137   3.747   5.521   4.909
 4058TIP3    H112138   3.746   5.513   4.813
 4058TIP3    H212139   3.838   5.542   4.930
 4059TIP3   OH212140   4.425   5.218   5.041
 4059TIP3    H112141   4.410   5.165   5.119
 4059TIP3    H212142   4.382   5.301   5.060
 4060TIP3   OH212143   7.005   1.086   3.156
 4060TIP3    H112144   6.933   1.147   3.141
 4060TIP3    H212145   7.005   1.030   3.078
 4061TIP3   OH212146   0.548  -0.020   4.135
 4061TIP3    H112147   0.640  -0.043   4.120
 4061TIP3    H212148   0.551   0.069   4.169
 4062TIP3   OH212149   4.486   4.712   3.760
 4062TIP3    H112150   4.555   4.715   3.827
 4062TIP3    H212151   4.405   4.729   3.808
 4063TIP3   OH212152   0.068   3.159   0.641
 4063TIP3    H112153   0.064   3.070   0.606
 4063TIP3    H212154   0.152   3.163   0.687
 4064TIP3   OH212155   1.425   0.295   1.079
 4064TIP3    H112156   1.373   0.215   1.078
 4064TIP3    H212157   1.495   0.277   1.142
 4065TIP3   OH212158   3.782   2.344   0.484
 4065TIP3    H112159   3.702   2.371   0.528
 4065TIP3    H212160   3.846   2.335   0.555
 4066TIP3   OH212161   6.819   3.710   5.068
 4066TIP3    H112162   6.768   3.630   5.077
 4066TIP3    H212163   6.754   3.779   5.055
 4067TIP3   OH212164   7.142   1.571   0.452
 4067TIP3    H112165   7.223   1.522   0.459
 4067TIP3    H212166   7.121   1.569   0.358
 4068TIP3   OH212167   6.883   2.384   0.319
 4068TIP3    H112168   6.789   2.371   0.332
 4068TIP3    H212169   6.890   2.419   0.230
 4069TIP3   OH212170   1.892   4.611   5.077
 4069TIP3    H112171   1.872   4.642   5.166
 4069TIP3    H212172   1.975   4.564   5.086
 4070TIP3   OH212173   2.865   2.761   1.188
 4070TIP3    H112174   2.893   2.697   1.123
 4070TIP3    H212175   2.776   2.785   1.162
 4071TIP3   OH212176   1.997   2.297   0.803
 4071TIP3    H112177   2.064   2.271   0.739
 4071TIP3    H212178   2.045   2.349   0.867
 4072TIP3   OH212179   6.003   1.695   1.812
 4072TIP3    H112180   5.954   1.692   1.894
 4072TIP3    H212181   5.942   1.662   1.746
 4073TIP3   OH212182   4.973   6.792   2.102
 4073TIP3    H112183   5.025   6.735   2.046
 4073TIP3    H212184   4.889   6.746   2.110
 4074TIP3   OH212185   1.843   1.510   2.999
 4074TIP3    H112186   1.917   1.567   3.021
 4074TIP3    H212187   1.819   1.535   2.910
 4075TIP3   OH212188   6.366   4.776   5.043
 4075TIP3    H112189   6.339   4.771   5.135
 4075TIP3    H212190   6.407   4.862   5.034
 4076TIP3   OH212191   2.526   0.721   5.580
 4076TIP3    H112192   2.493   0.802   5.541
 4076TIP3    H212193   2.500   0.725   5.672
 4077TIP3   OH212194   2.609   4.113   0.277
 4077TIP3    H112195   2.618   4.020   0.260
 4077TIP3    H212196   2.634   4.155   0.195
 4078TIP3   OH212197   1.438   5.983   4.948
 4078TIP3    H112198   1.447   6.000   4.854
 4078TIP3    H212199   1.499   5.912   4.966
 4079TIP3   OH212200   3.735   1.017  -0.011
 4079TIP3    H112201   3.645   1.034  -0.040
 4079TIP3    H212202   3.731   1.023   0.085
 4080TIP3   OH212203   2.781   6.179   5.275
 4080TIP3    H112204   2.762   6.246   5.210
 4080TIP3    H212205   2.757   6.096   5.233
 4081TIP3   OH212206   5.629   6.525   3.706
 4081TIP3    H112207   5.662   6.436   3.693
 4081TIP3    H212208   5.544   6.513   3.747
 4082TIP3   OH212209   0.881   5.648   5.216
 4082TIP3    H112210   0.888   5.553   5.224
 4082TIP3    H212211   0.882   5.664   5.122
 4083TIP3   OH212212   2.098   1.402   5.833
 4083TIP3    H112213   2.146   1.378   5.754
 4083TIP3    H212214   2.012   1.429   5.801
 4084TIP3   OH212215   2.742   0.270   4.942
 4084TIP3    H112216   2.747   0.199   4.877
 4084TIP3    H212217   2.832   0.304   4.946
 4085TIP3   OH212218   3.779   1.592   5.435
 4085TIP3    H112219   3.748   1.623   5.349
 4085TIP3    H212220   3.783   1.671   5.489
 4086TIP3   OH212221   7.011   3.464   5.591
 4086TIP3    H112222   7.059   3.403   5.536
 4086TIP3    H212223   7.012   3.546   5.542
 4087TIP3   OH212224   5.356   1.864   5.369
 4087TIP3    H112225   5.319   1.862   5.457
 4087TIP3    H212226   5.415   1.789   5.366
 4088TIP3   OH212227   6.887   0.491   3.489
 4088TIP3    H112228   6.953   0.556   3.512
 4088TIP3    H212229   6.906   0.469   3.398
 4089TIP3   OH212230   0.573   2.336   1.479
 4089TIP3    H112231   0.596   2.357   1.388
 4089TIP3    H212232   0.491   2.382   1.494
 4090TIP3   OH212233   3.497   5.726   1.523
 4090TIP3    H112234   3.462   5.644   1.487
 4090TIP3    H212235   3.494   5.713   1.617
 4091TIP3   OH212236   3.695   0.422   3.996
 4091TIP3    H112237   3.788   0.436   4.014
 4091TIP3    H212238   3.684   0.327   4.000
 4092TIP3   OH212239   4.649   0.442   3.092
 4092TIP3    H112240   4.687   0.444   3.180
 4092TIP3    H212241   4.721   0.417   3.035
 4093TIP3   OH212242   1.420   5.149   3.923
 4093TIP3    H112243   1.509   5.119   3.906
 4093TIP3    H212244   1.429   5.241   3.948
 4094TIP3   OH212245   4.908   5.625   0.474
 4094TIP3    H112246   4.921   5.639   0.568
 4094TIP3    H212247   4.818   5.593   0.467
 4095TIP3   OH212248   1.302   2.732   5.409
 4095TIP3    H112249   1.325   2.821   5.383
 4095TIP3    H212250   1.384   2.683   5.406
 4096TIP3   OH212251   5.821   5.731   1.126
 4096TIP3    H112252   5.851   5.725   1.035
 4096TIP3    H212253   5.801   5.641   1.151
 4097TIP3   OH212254   1.474   2.485   1.229
 4097TIP3    H112255   1.491   2.439   1.147
 4097TIP3    H212256   1.403   2.545   1.209
 4098TIP3   OH212257   5.489   6.077   4.207
 4098TIP3    H112258   5.578   6.040   4.210
 4098TIP3    H212259   5.463   6.069   4.115
 4099TIP3   OH212260   2.556   0.684   5.222
 4099TIP3    H112261   2.569   0.745   5.150
 4099TIP3    H212262   2.597   0.602   5.192
 4100TIP3   OH212263   5.371   6.113   5.576
 4100TIP3    H112264   5.317   6.037   5.599
 4100TIP3    H212265   5.436   6.079   5.514
 4101TIP3   OH212266   0.040   4.680   2.653
 4101TIP3    H112267   0.007   4.767   2.630
 4101TIP3    H212268  -0.013   4.620   2.600
 4102TIP3   OH212269   4.929   5.506   0.198
 4102TIP3    H112270   4.944   5.553   0.280
 4102TIP3    H212271   4.856   5.552   0.157
 4103TIP3   OH212272   6.266   5.769   0.231
 4103TIP3    H112273   6.178   5.784   0.266
 4103TIP3    H212274   6.287   5.680   0.259
 4104TIP3   OH212275   0.407   1.133   4.012
 4104TIP3    H112276   0.346   1.206   4.025
 4104TIP3    H212277   0.492   1.175   3.996
 4105TIP3   OH212278   1.308   0.341   2.883
 4105TIP3    H112279   1.366   0.299   2.947
 4105TIP3    H212280   1.225   0.293   2.891
 4106TIP3   OH212281   1.521   5.177   4.483
 4106TIP3    H112282   1.517   5.269   4.455
 4106TIP3    H212283   1.536   5.128   4.402
 4107TIP3   OH212284   0.161   6.136   4.866
 4107TIP3    H112285   0.156   6.168   4.776
 4107TIP3    H212286   0.175   6.215   4.918
 4108TIP3   OH212287   6.201   3.325   2.328
 4108TIP3    H112288   6.279   3.364   2.290
 4108TIP3    H212289   6.135   3.395   2.323
 4109TIP3   OH212290   4.949   1.976   0.456
 4109TIP3    H112291   4.962   1.886   0.487
 4109TIP3    H212292   4.897   1.966   0.376
 4110TIP3   OH212293   3.421   2.521   0.181
 4110TIP3    H112294   3.361   2.451   0.208
 4110TIP3    H212295   3.364   2.598   0.172
 4111TIP3   OH212296   1.229   3.102   0.623
 4111TIP3    H112297   1.323   3.098   0.640
 4111TIP3    H212298   1.199   3.179   0.673
 4112TIP3   OH212299   1.639   0.631   1.106
 4112TIP3    H112300   1.570   0.697   1.108
 4112TIP3    H212301   1.593   0.548   1.103
 4113TIP3   OH212302   6.476   1.731   3.743
 4113TIP3    H112303   6.569   1.753   3.742
 4113TIP3    H212304   6.436   1.800   3.794
 4114TIP3   OH212305   2.058   2.462   5.129
 4114TIP3    H112306   2.137   2.480   5.078
 4114TIP3    H212307   2.012   2.394   5.078
 4115TIP3   OH212308   6.428   4.331   1.361
 4115TIP3    H112309   6.455   4.258   1.304
 4115TIP3    H212310   6.438   4.297   1.450
 4116TIP3   OH212311   2.360   5.059   0.362
 4116TIP3    H112312   2.326   4.971   0.345
 4116TIP3    H212313   2.375   5.096   0.275
 4117TIP3   OH212314   5.741   2.389   5.393
 4117TIP3    H112315   5.686   2.464   5.371
 4117TIP3    H212316   5.712   2.363   5.481
 4118TIP3   OH212317   0.556   0.842   4.427
 4118TIP3    H112318   0.593   0.911   4.483
 4118TIP3    H212319   0.475   0.817   4.471
 4119TIP3   OH212320   2.017   2.825   4.350
 4119TIP3    H112321   2.052   2.910   4.377
 4119TIP3    H212322   2.041   2.765   4.420
 4120TIP3   OH212323   0.451   0.591   2.905
 4120TIP3    H112324   0.537   0.569   2.939
 4120TIP3    H212325   0.430   0.676   2.945
 4121TIP3   OH212326   4.144   3.916   4.898
 4121TIP3    H112327   4.208   3.875   4.840
 4121TIP3    H212328   4.061   3.872   4.878
 4122TIP3   OH212329   1.086   5.661   3.951
 4122TIP3    H112330   1.158   5.703   3.905
 4122TIP3    H212331   1.124   5.580   3.986
 4123TIP3   OH212332   0.985   4.238   1.980
 4123TIP3    H112333   0.991   4.304   1.911
 4123TIP3    H212334   1.064   4.250   2.033
 4124TIP3   OH212335   2.042   2.816   1.038
 4124TIP3    H112336   1.985   2.740   1.028
 4124TIP3    H212337   2.103   2.810   0.964
 4125TIP3   OH212338   5.872   1.296   2.044
 4125TIP3    H112339   5.868   1.300   2.139
 4125TIP3    H212340   5.807   1.230   2.020
 4126TIP3   OH212341   4.480   5.766   0.357
 4126TIP3    H112342   4.536   5.691   0.377
 4126TIP3    H212343   4.439   5.788   0.441
 4127TIP3   OH212344   1.381   6.540   2.914
 4127TIP3    H112345   1.355   6.502   2.998
 4127TIP3    H212346   1.453   6.599   2.935
 4128TIP3   OH212347   3.307   2.611   5.821
 4128TIP3    H112348   3.370   2.554   5.867
 4128TIP3    H212349   3.287   2.564   5.740
 4129TIP3   OH212350   4.433   1.390   3.894
 4129TIP3    H112351   4.433   1.297   3.918
 4129TIP3    H212352   4.354   1.401   3.841
 4130TIP3   OH212353   5.107   4.629   4.580
 4130TIP3    H112354   5.046   4.562   4.550
 4130TIP3    H212355   5.194   4.594   4.561
 4131TIP3   OH212356   1.403   5.671   1.492
 4131TIP3    H112357   1.494   5.678   1.520
 4131TIP3    H212358   1.355   5.645   1.571
 4132TIP3   OH212359   6.561   4.615   3.364
 4132TIP3    H112360   6.602   4.609   3.277
 4132TIP3    H212361   6.490   4.678   3.353
 4133TIP3   OH212362   3.330   4.219   2.077
 4133TIP3    H112363   3.280   4.140   2.096
 4133TIP3    H212364   3.281   4.289   2.120
 4134TIP3   OH212365   3.585   6.090   5.243
 4134TIP3    H112366   3.510   6.148   5.235
 4134TIP3    H212367   3.553   6.004   5.215
 4135TIP3   OH212368   6.025   0.379   4.915
 4135TIP3    H112369   6.109   0.383   4.871
 4135TIP3    H212370   6.045   0.393   5.008
 4136TIP3   OH212371   0.006   1.428   5.667
 4136TIP3    H112372   0.052   1.508   5.641
 4136TIP3    H212373  -0.023   1.389   5.585
 4137TIP3   OH212374   0.522   5.295   4.084
 4137TIP3    H112375   0.580   5.245   4.027
 4137TIP3    H212376   0.468   5.347   4.023
 4138TIP3   OH212377   0.791   0.403   3.939
 4138TIP3    H112378   0.858   0.391   3.871
 4138TIP3    H212379   0.728   0.463   3.900
 4139TIP3   OH212380   3.469   4.314   5.768
 4139TIP3    H112381   3.490   4.371   5.842
 4139TIP3    H212382   3.425   4.372   5.705
 4140TIP3   OH212383   2.567   3.855   2.589
 4140TIP3    H112384   2.503   3.784   2.590
 4140TIP3    H212385   2.606   3.850   2.502
 4141TIP3   OH212386   3.570   5.841   5.565
 4141TIP3    H112387   3.574   5.935   5.581
 4141TIP3    H212388   3.491   5.812   5.612
 4142TIP3   OH212389   1.349   3.330   2.095
 4142TIP3    H112390   1.254   3.331   2.105
 4142TIP3    H212391   1.380   3.267   2.161
 4143TIP3   OH212392   6.268   0.956   4.555
 4143TIP3    H112393   6.186   0.956   4.604
 4143TIP3    H212394   6.262   0.882   4.496
 4144TIP3   OH212395   2.298   6.064   3.066
 4144TIP3    H112396   2.311   6.037   2.975
 4144TIP3    H212397   2.225   6.010   3.096
 4145TIP3   OH212398   2.125   0.491   0.941
 4145TIP3    H112399   2.196   0.494   1.005
 4145TIP3    H212400   2.061   0.555   0.973
 4146TIP3   OH212401   7.081   2.510   5.635
 4146TIP3    H112402   7.142   2.472   5.697
 4146TIP3    H212403   7.110   2.600   5.624
 4147TIP3   OH212404   5.744   0.587   2.593
 4147TIP3    H112405   5.763   0.533   2.516
 4147TIP3    H212406   5.830   0.600   2.634
 4148TIP3   OH212407   2.128   2.228   0.396
 4148TIP3    H112408   2.110   2.305   0.449
 4148TIP3    H212409   2.049   2.175   0.402
 4149TIP3   OH212410   5.372   1.030   2.951
 4149TIP3    H112411   5.428   0.954   2.967
 4149TIP3    H212412   5.376   1.043   2.857
 4150TIP3   OH212413   0.443   3.992   5.470
 4150TIP3    H112414   0.360   3.945   5.469
 4150TIP3    H212415   0.491   3.959   5.394
 4151TIP3   OH212416   1.210   0.323   0.350
 4151TIP3    H112417   1.206   0.276   0.433
 4151TIP3    H212418   1.304   0.334   0.334
 4152TIP3   OH212419   2.024   2.221   5.293
 4152TIP3    H112420   2.021   2.311   5.261
 4152TIP3    H212421   2.071   2.173   5.225
 4153TIP3   OH212422   5.615   3.870   4.310
 4153TIP3    H112423   5.564   3.809   4.256
 4153TIP3    H212424   5.643   3.818   4.385
 4154TIP3   OH212425   5.544   5.996   0.261
 4154TIP3    H112426   5.558   6.056   0.187
 4154TIP3    H212427   5.449   5.996   0.275
 4155TIP3   OH212428   5.118   2.173   0.589
 4155TIP3    H112429   5.069   2.108   0.539
 4155TIP3    H212430   5.091   2.159   0.680
 4156TIP3   OH212431   5.831   2.196   3.833
 4156TIP3    H112432   5.737   2.203   3.845
 4156TIP3    H212433   5.861   2.285   3.817
 4157TIP3   OH212434   4.758   4.171   0.274
 4157TIP3    H112435   4.708   4.152   0.195
 4157TIP3    H212436   4.727   4.108   0.339
 4158TIP3   OH212437   2.832   5.221   2.554
 4158TIP3    H112438   2.789   5.278   2.617
 4158TIP3    H212439   2.852   5.141   2.603
 4159TIP3   OH212440   0.966   2.935   2.913
 4159TIP3    H112441   0.937   2.896   2.995
 4159TIP3    H212442   0.993   3.024   2.936
 4160TIP3   OH212443   0.764   3.215   5.493
 4160TIP3    H112444   0.709   3.181   5.422
 4160TIP3    H212445   0.826   3.273   5.449
 4161TIP3   OH212446   0.753   6.388   3.710
 4161TIP3    H112447   0.824   6.414   3.650
 4161TIP3    H212448   0.729   6.300   3.682
 4162TIP3   OH212449   6.834   4.641   5.689
 4162TIP3    H112450   6.819   4.696   5.612
 4162TIP3    H212451   6.857   4.703   5.758
 4163TIP3   OH212452   5.045   2.033   5.558
 4163TIP3    H112453   5.115   1.972   5.582
 4163TIP3    H212454   5.003   2.055   5.641
 4164TIP3   OH212455   3.348   2.900   0.728
 4164TIP3    H112456   3.352   2.979   0.782
 4164TIP3    H212457   3.397   2.834   0.778
 4165TIP3   OH212458   2.342   5.063   3.589
 4165TIP3    H112459   2.372   4.972   3.580
 4165TIP3    H212460   2.413   5.106   3.636
 4166TIP3   OH212461   4.984   6.108   0.616
 4166TIP3    H112462   5.018   6.026   0.653
 4166TIP3    H212463   5.053   6.139   0.559
 4167TIP3   OH212464   2.061   4.326   4.498
 4167TIP3    H112465   2.069   4.354   4.407
 4167TIP3    H212466   1.967   4.328   4.515
 4168TIP3   OH212467   2.116   0.751   2.671
 4168TIP3    H112468   2.130   0.665   2.710
 4168TIP3    H212469   2.100   0.809   2.745
 4169TIP3   OH212470   3.262   2.420   0.642
 4169TIP3    H112471   3.275   2.508   0.607
 4169TIP3    H212472   3.346   2.396   0.680
 4170TIP3   OH212473   3.498   6.635   1.701
 4170TIP3    H112474   3.445   6.712   1.722
 4170TIP3    H212475   3.584   6.654   1.738
 4171TIP3   OH212476   3.165   3.545   2.626
 4171TIP3    H112477   3.122   3.500   2.698
 4171TIP3    H212478   3.245   3.583   2.664
 4172TIP3   OH212479   4.815   0.857   1.240
 4172TIP3    H112480   4.784   0.779   1.284
 4172TIP3    H212481   4.800   0.928   1.302
 4173TIP3   OH212482   1.096   1.450   5.198
 4173TIP3    H112483   1.069   1.388   5.265
 4173TIP3    H212484   1.143   1.397   5.134
 4174TIP3   OH212485   6.361   3.400   0.836
 4174TIP3    H112486   6.313   3.396   0.753
 4174TIP3    H212487   6.312   3.342   0.895
 4175TIP3   OH212488   4.001   1.028   2.505
 4175TIP3    H112489   3.945   1.051   2.431
 4175TIP3    H212490   4.053   1.107   2.522
 4176TIP3   OH212491   2.332   6.300   0.180
 4176TIP3    H112492   2.344   6.205   0.187
 4176TIP3    H212493   2.366   6.335   0.262
 4177TIP3   OH212494   3.650   0.237   2.011
 4177TIP3    H112495   3.731   0.204   2.050
 4177TIP3    H212496   3.583   0.174   2.038
 4178TIP3   OH212497   6.265   6.064   2.542
 4178TIP3    H112498   6.215   6.118   2.603
 4178TIP3    H212499   6.233   5.975   2.559
 4179TIP3   OH212500   0.540   4.488   1.621
 4179TIP3    H112501   0.560   4.582   1.614
 4179TIP3    H212502   0.618   4.445   1.585
 4180TIP3   OH212503   1.822   4.978   2.455
 4180TIP3    H112504   1.858   5.014   2.374
 4180TIP3    H212505   1.806   4.885   2.435
 4181TIP3   OH212506   0.629   2.617   1.459
 4181TIP3    H112507   0.640   2.575   1.374
 4181TIP3    H212508   0.537   2.644   1.461
 4182TIP3   OH212509   4.356   4.991   0.678
 4182TIP3    H112510   4.374   4.897   0.688
 4182TIP3    H212511   4.432   5.025   0.630
 4183TIP3   OH212512   3.396   6.363   0.451
 4183TIP3    H112513   3.443   6.292   0.407
 4183TIP3    H212514   3.360   6.322   0.530
 4184TIP3   OH212515   5.861   4.989   2.674
 4184TIP3    H112516   5.858   5.076   2.713
 4184TIP3    H212517   5.770   4.961   2.670
 4185TIP3   OH212518   5.119   5.094   2.660
 4185TIP3    H112519   5.037   5.135   2.631
 4185TIP3    H212520   5.140   5.139   2.742
 4186TIP3   OH212521   6.767   1.270   5.719
 4186TIP3    H112522   6.833   1.272   5.788
 4186TIP3    H212523   6.757   1.361   5.692
 4187TIP3   OH212524   2.141   3.067   3.410
 4187TIP3    H112525   2.165   2.999   3.347
 4187TIP3    H212526   2.191   3.046   3.489
 4188TIP3   OH212527   0.149   6.161   4.577
 4188TIP3    H112528   0.054   6.170   4.578
 4188TIP3    H212529   0.168   6.113   4.497
 4189TIP3   OH212530   0.741   3.847   2.530
 4189TIP3    H112531   0.724   3.753   2.528
 4189TIP3    H212532   0.826   3.857   2.486
 4190TIP3   OH212533   6.693   3.597   2.968
 4190TIP3    H112534   6.709   3.645   2.886
 4190TIP3    H212535   6.710   3.506   2.946
 4191TIP3   OH212536   0.902   0.789   5.812
 4191TIP3    H112537   0.847   0.724   5.768
 4191TIP3    H212538   0.932   0.846   5.741
 4192TIP3   OH212539   1.192   0.518   5.509
 4192TIP3    H112540   1.129   0.588   5.523
 4192TIP3    H212541   1.263   0.536   5.572
 4193TIP3   OH212542   4.642   2.233   5.742
 4193TIP3    H112543   4.654   2.262   5.652
 4193TIP3    H212544   4.613   2.311   5.789
 4194TIP3   OH212545   5.321   4.398   3.913
 4194TIP3    H112546   5.383   4.460   3.952
 4194TIP3    H212547   5.376   4.324   3.886
 4195TIP3   OH212548   0.597   5.535   4.258
 4195TIP3    H112549   0.538   5.481   4.310
 4195TIP3    H212550   0.539   5.582   4.197
 4196TIP3   OH212551   5.664   0.986   3.561
 4196TIP3    H112552   5.644   1.002   3.653
 4196TIP3    H212553   5.603   1.041   3.513
 4197TIP3   OH212554   4.075   3.133   3.656
 4197TIP3    H112555   4.011   3.198   3.627
 4197TIP3    H212556   4.149   3.144   3.597
 4198TIP3   OH212557   0.329   2.624   2.850
 4198TIP3    H112558   0.396   2.561   2.823
 4198TIP3    H212559   0.342   2.699   2.791
 4199TIP3   OH212560   2.914   6.506   0.264
 4199TIP3    H112561   2.939   6.598   0.256
 4199TIP3    H212562   2.951   6.465   0.185
 4200TIP3   OH212563   2.298   4.152   2.845
 4200TIP3    H112564   2.254   4.068   2.856
 4200TIP3    H212565   2.382   4.142   2.891
 4201TIP3   OH212566   6.101   1.598   5.184
 4201TIP3    H112567   6.168   1.612   5.117
 4201TIP3    H212568   6.088   1.503   5.185
 4202TIP3   OH212569   6.564   6.240   4.542
 4202TIP3    H112570   6.629   6.299   4.579
 4202TIP3    H212571   6.558   6.169   4.605
 4203TIP3   OH212572   4.942   1.894   1.233
 4203TIP3    H112573   5.018   1.952   1.236
 4203TIP3    H212574   4.959   1.829   1.302
 4204TIP3   OH212575   6.523   4.605   2.496
 4204TIP3    H112576   6.450   4.633   2.441
 4204TIP3    H212577   6.484   4.592   2.582
 4205TIP3   OH212578   4.895   6.693   1.458
 4205TIP3    H112579   4.873   6.660   1.371
 4205TIP3    H212580   4.820   6.668   1.513
 4206TIP3   OH212581   3.868   0.770   4.860
 4206TIP3    H112582   3.881   0.678   4.838
 4206TIP3    H212583   3.929   0.817   4.804
 4207TIP3   OH212584   1.455   3.591   5.146
 4207TIP3    H112585   1.407   3.588   5.230
 4207TIP3    H212586   1.444   3.681   5.116
 4208TIP3   OH212587   1.061   6.706   5.498
 4208TIP3    H112588   1.058   6.632   5.558
 4208TIP3    H212589   1.081   6.781   5.554
 4209TIP3   OH212590   5.124   5.159   4.079
 4209TIP3    H112591   5.176   5.235   4.105
 4209TIP3    H212592   5.187   5.098   4.041
 4210TIP3   OH212593   2.624   2.637   3.263
 4210TIP3    H112594   2.565   2.589   3.321
 4210TIP3    H212595   2.640   2.576   3.190
 4211TIP3   OH212596   6.223   4.150   4.909
 4211TIP3    H112597   6.277   4.148   4.987
 4211TIP3    H212598   6.283   4.174   4.838
 4212TIP3   OH212599   3.160   5.052   1.845
 4212TIP3    H112600   3.210   5.058   1.927
 4212TIP3    H212601   3.225   5.030   1.779
 4213TIP3   OH212602   3.720   1.199   3.926
 4213TIP3    H112603   3.715   1.152   3.843
 4213TIP3    H212604   3.810   1.188   3.955
 4214TIP3   OH212605   6.120   3.875   0.367
 4214TIP3    H112606   6.197   3.850   0.417
 4214TIP3    H212607   6.146   3.867   0.275
 4215TIP3   OH212608   4.739   1.660   0.423
 4215TIP3    H112609   4.700   1.574   0.443
 4215TIP3    H212610   4.665   1.714   0.396
 4216TIP3   OH212611   2.183   5.032   2.019
 4216TIP3    H112612   2.099   4.994   1.992
 4216TIP3    H212613   2.248   4.966   1.996
 4217TIP3   OH212614   4.771   3.595   4.522
 4217TIP3    H112615   4.698   3.535   4.512
 4217TIP3    H212616   4.786   3.629   4.434
 4218TIP3   OH212617   4.011   5.864   5.335
 4218TIP3    H112618   3.958   5.896   5.262
 4218TIP3    H212619   3.948   5.847   5.404
 4219TIP3   OH212620   5.051   5.808   5.293
 4219TIP3    H112621   5.028   5.774   5.379
 4219TIP3    H212622   4.979   5.782   5.236
 4220TIP3   OH212623   4.375   1.176   3.202
 4220TIP3    H112624   4.378   1.131   3.118
 4220TIP3    H212625   4.369   1.269   3.179
 4221TIP3   OH212626   0.473   0.080   3.168
 4221TIP3    H112627   0.454   0.029   3.089
 4221TIP3    H212628   0.507   0.015   3.230
 4222TIP3   OH212629   4.429   1.392   4.243
 4222TIP3    H112630   4.510   1.407   4.291
 4222TIP3    H212631   4.365   1.450   4.286
 4223TIP3   OH212632   2.368   1.545   0.332
 4223TIP3    H112633   2.341   1.470   0.280
 4223TIP3    H212634   2.319   1.619   0.296
 4224TIP3   OH212635   2.240   0.507   0.292
 4224TIP3    H112636   2.169   0.505   0.229
 4224TIP3    H212637   2.278   0.419   0.288
 4225TIP3   OH212638   2.388   2.453   5.262
 4225TIP3    H112639   2.400   2.412   5.348
 4225TIP3    H212640   2.472   2.440   5.218
 4226TIP3   OH212641   2.451   2.185   0.974
 4226TIP3    H112642   2.480   2.106   1.018
 4226TIP3    H212643   2.429   2.246   1.045
 4227TIP3   OH212644   2.970   5.813   1.754
 4227TIP3    H112645   3.059   5.806   1.789
 4227TIP3    H212646   2.920   5.747   1.801
 4228TIP3   OH212647   1.288   3.505   1.749
 4228TIP3    H112648   1.275   3.428   1.806
 4228TIP3    H212649   1.362   3.551   1.789
 4229TIP3   OH212650   3.533   6.635   0.814
 4229TIP3    H112651   3.442   6.627   0.844
 4229TIP3    H212652   3.533   6.714   0.759
 4230TIP3   OH212653   4.322   6.227   1.263
 4230TIP3    H112654   4.345   6.158   1.200
 4230TIP3    H212655   4.365   6.305   1.229
 4231TIP3   OH212656   5.737   1.690   2.512
 4231TIP3    H112657   5.744   1.754   2.441
 4231TIP3    H212658   5.646   1.696   2.541
 4232TIP3   OH212659   1.456   4.097   2.867
 4232TIP3    H112660   1.431   4.183   2.901
 4232TIP3    H212661   1.550   4.093   2.879
 4233TIP3   OH212662   2.710   2.494   3.053
 4233TIP3    H112663   2.640   2.444   3.010
 4233TIP3    H212664   2.733   2.563   2.991
 4234TIP3   OH212665   1.491   0.633   2.653
 4234TIP3    H112666   1.503   0.538   2.648
 4234TIP3    H212667   1.454   0.648   2.740
 4235TIP3   OH212668   4.108   4.130   4.024
 4235TIP3    H112669   4.148   4.174   4.099
 4235TIP3    H212670   4.067   4.052   4.060
 4236TIP3   OH212671   1.337   3.432   3.063
 4236TIP3    H112672   1.334   3.336   3.060
 4236TIP3    H212673   1.276   3.455   3.133
 4237TIP3   OH212674   3.473   1.791   2.677
 4237TIP3    H112675   3.517   1.742   2.607
 4237TIP3    H212676   3.487   1.883   2.654
 4238TIP3   OH212677   1.805   2.105   5.382
 4238TIP3    H112678   1.889   2.143   5.358
 4238TIP3    H212679   1.786   2.042   5.313
 4239TIP3   OH212680   0.563   3.096   3.885
 4239TIP3    H112681   0.544   3.071   3.976
 4239TIP3    H212682   0.511   3.175   3.871
 4240TIP3   OH212683   1.215   1.922   3.275
 4240TIP3    H112684   1.236   2.004   3.229
 4240TIP3    H212685   1.120   1.915   3.271
 4241TIP3   OH212686   0.782   0.014   4.495
 4241TIP3    H112687   0.798   0.034   4.588
 4241TIP3    H212688   0.791   0.098   4.450
 4242TIP3   OH212689   2.769   4.898   4.285
 4242TIP3    H112690   2.803   4.980   4.321
 4242TIP3    H212691   2.681   4.919   4.256
 4243TIP3   OH212692   4.784   3.662   4.911
 4243TIP3    H112693   4.733   3.615   4.977
 4243TIP3    H212694   4.719   3.717   4.866
 4244TIP3   OH212695   4.706   3.633   2.569
 4244TIP3    H112696   4.661   3.716   2.551
 4244TIP3    H212697   4.635   3.568   2.574
 4245TIP3   OH212698   6.149   3.175   3.947
 4245TIP3    H112699   6.062   3.134   3.945
 4245TIP3    H212700   6.154   3.224   3.865
 4246TIP3   OH212701   3.732   5.660   5.444
 4246TIP3    H112702   3.731   5.596   5.515
 4246TIP3    H212703   3.707   5.742   5.486
 4247TIP3   OH212704   3.843   1.883   4.268
 4247TIP3    H112705   3.819   1.802   4.314
 4247TIP3    H212706   3.866   1.854   4.180
 4248TIP3   OH212707   4.645   6.013   1.179
 4248TIP3    H112708   4.555   6.015   1.147
 4248TIP3    H212709   4.683   5.935   1.138
 4249TIP3   OH212710   5.623   1.256   0.736
 4249TIP3    H112711   5.708   1.213   0.743
 4249TIP3    H212712   5.640   1.347   0.762
 4250TIP3   OH212713   0.469   3.788   0.768
 4250TIP3    H112714   0.496   3.876   0.743
 4250TIP3    H212715   0.534   3.730   0.728
 4251TIP3   OH212716   5.143   1.597   3.907
 4251TIP3    H112717   5.214   1.621   3.967
 4251TIP3    H212718   5.185   1.543   3.840
 4252TIP3   OH212719   6.639   2.303   2.879
 4252TIP3    H112720   6.661   2.301   2.972
 4252TIP3    H212721   6.544   2.319   2.877
 4253TIP3   OH212722   5.249   5.400   2.071
 4253TIP3    H112723   5.205   5.447   2.000
 4253TIP3    H212724   5.327   5.362   2.030
 4254TIP3   OH212725   2.614   1.864   4.481
 4254TIP3    H112726   2.646   1.942   4.525
 4254TIP3    H212727   2.692   1.824   4.444
 4255TIP3   OH212728   3.426   5.227   5.091
 4255TIP3    H112729   3.452   5.135   5.087
 4255TIP3    H212730   3.457   5.264   5.009
 4256TIP3   OH212731   0.328   1.340   5.153
 4256TIP3    H112732   0.388   1.302   5.088
 4256TIP3    H212733   0.352   1.298   5.235
 4257TIP3   OH212734   4.785   5.005   0.631
 4257TIP3    H112735   4.725   5.079   0.642
 4257TIP3    H212736   4.785   4.988   0.537
 4258TIP3   OH212737   1.896   3.055   0.809
 4258TIP3    H112738   1.979   3.036   0.852
 4258TIP3    H212739   1.879   3.147   0.831
 4259TIP3   OH212740   5.660   0.402   0.708
 4259TIP3    H112741   5.682   0.312   0.732
 4259TIP3    H212742   5.744   0.446   0.700
 4260TIP3   OH212743   2.185   2.237   1.898
 4260TIP3    H112744   2.231   2.270   1.822
 4260TIP3    H212745   2.100   2.282   1.898
 4261TIP3   OH212746   5.244   6.371   4.998
 4261TIP3    H112747   5.338   6.382   5.011
 4261TIP3    H212748   5.208   6.359   5.086
 4262TIP3   OH212749   2.355   5.667   3.303
 4262TIP3    H112750   2.273   5.685   3.257
 4262TIP3    H212751   2.379   5.751   3.343
 4263TIP3   OH212752   1.222   1.037   2.157
 4263TIP3    H112753   1.308   1.049   2.118
 4263TIP3    H212754   1.172   0.990   2.091
 4264TIP3   OH212755   5.489   2.394   1.382
 4264TIP3    H112756   5.570   2.365   1.339
 4264TIP3    H212757   5.482   2.337   1.459
 4265TIP3   OH212758   2.048   1.026   4.339
 4265TIP3    H112759   2.066   1.002   4.429
 4265TIP3    H212760   1.954   1.042   4.336
 4266TIP3   OH212761   4.673   0.243   0.519
 4266TIP3    H112762   4.756   0.290   0.520
 4266TIP3    H212763   4.698   0.151   0.526
 4267TIP3   OH212764   2.333   5.483   5.552
 4267TIP3    H112765   2.292   5.430   5.620
 4267TIP3    H212766   2.368   5.420   5.489
 4268TIP3   OH212767   2.005   1.795   0.435
 4268TIP3    H112768   2.080   1.806   0.377
 4268TIP3    H212769   1.932   1.775   0.376
 4269TIP3   OH212770   5.374   0.988   0.978
 4269TIP3    H112771   5.321   1.021   0.905
 4269TIP3    H212772   5.322   0.916   1.015
 4270TIP3   OH212773   3.572   4.374   4.747
 4270TIP3    H112774   3.489   4.414   4.720
 4270TIP3    H212775   3.575   4.386   4.842
 4271TIP3   OH212776   4.495   6.349   5.162
 4271TIP3    H112777   4.424   6.294   5.128
 4271TIP3    H212778   4.531   6.392   5.084
 4272TIP3   OH212779   0.590   4.056   2.465
 4272TIP3    H112780   0.637   3.978   2.495
 4272TIP3    H212781   0.630   4.128   2.513
 4273TIP3   OH212782   4.307   0.749   3.939
 4273TIP3    H112783   4.328   0.748   3.845
 4273TIP3    H212784   4.287   0.840   3.958
 4274TIP3   OH212785   0.146   5.872   4.675
 4274TIP3    H112786   0.155   5.966   4.692
 4274TIP3    H212787   0.066   5.865   4.624
 4275TIP3   OH212788   2.864   5.325   1.672
 4275TIP3    H112789   2.796   5.386   1.643
 4275TIP3    H212790   2.868   5.337   1.767
 4276TIP3   OH212791   3.964   6.470   0.319
 4276TIP3    H112792   3.905   6.470   0.394
 4276TIP3    H212793   3.935   6.544   0.265
 4277TIP3   OH212794   6.793   6.719   3.080
 4277TIP3    H112795   6.827   6.806   3.100
 4277TIP3    H212796   6.871   6.664   3.073
 4278TIP3   OH212797   1.096   2.612   1.391
 4278TIP3    H112798   1.027   2.650   1.444
 4278TIP3    H212799   1.124   2.534   1.439
 4279TIP3   OH212800   4.470   2.531   4.967
 4279TIP3    H112801   4.439   2.459   4.912
 4279TIP3    H212802   4.390   2.571   5.002
 4280TIP3   OH212803   4.552   0.178   1.323
 4280TIP3    H112804   4.525   0.267   1.344
 4280TIP3    H212805   4.618   0.157   1.390
 4281TIP3   OH212806   4.137   2.060   2.283
 4281TIP3    H112807   4.165   2.051   2.374
 4281TIP3    H212808   4.147   2.154   2.264
 4282TIP3   OH212809   0.948   2.901   4.302
 4282TIP3    H112810   0.973   2.986   4.265
 4282TIP3    H212811   1.013   2.840   4.267
 4283TIP3   OH212812   7.084   3.465   5.220
 4283TIP3    H112813   6.992   3.491   5.210
 4283TIP3    H212814   7.085   3.414   5.301
 4284TIP3   OH212815   4.170   4.111   2.087
 4284TIP3    H112816   4.113   4.037   2.065
 4284TIP3    H212817   4.241   4.071   2.137
 4285TIP3   OH212818   3.151   4.160   1.398
 4285TIP3    H112819   3.189   4.072   1.393
 4285TIP3    H212820   3.212   4.215   1.349
 4286TIP3   OH212821   5.721   0.568   3.958
 4286TIP3    H112822   5.705   0.595   3.867
 4286TIP3    H212823   5.790   0.627   3.988
 4287TIP3   OH212824   3.195   2.711   1.311
 4287TIP3    H112825   3.103   2.737   1.311
 4287TIP3    H212826   3.196   2.625   1.352
 4288TIP3   OH212827   1.354   0.595   0.481
 4288TIP3    H112828   1.380   0.651   0.409
 4288TIP3    H212829   1.413   0.519   0.474
 4289TIP3   OH212830   3.685   0.377   1.442
 4289TIP3    H112831   3.778   0.357   1.453
 4289TIP3    H212832   3.654   0.394   1.531
 4290TIP3   OH212833   5.231   6.708   0.356
 4290TIP3    H112834   5.144   6.690   0.391
 4290TIP3    H212835   5.287   6.641   0.394
 4291TIP3   OH212836   2.491   1.586   5.814
 4291TIP3    H112837   2.499   1.490   5.814
 4291TIP3    H212838   2.576   1.616   5.782
 4292TIP3   OH212839   7.155   5.794   3.705
 4292TIP3    H112840   7.226   5.786   3.769
 4292TIP3    H212841   7.155   5.710   3.659
 4293TIP3   OH212842   4.678   2.176   3.098
 4293TIP3    H112843   4.594   2.197   3.057
 4293TIP3    H212844   4.730   2.137   3.028
 4294TIP3   OH212845   5.495   3.825   2.422
 4294TIP3    H112846   5.403   3.808   2.445
 4294TIP3    H212847   5.545   3.765   2.477
 4295TIP3   OH212848   1.560   6.725   4.553
 4295TIP3    H112849   1.512   6.752   4.475
 4295TIP3    H212850   1.581   6.807   4.598
 4296TIP3   OH212851   3.245   5.109   0.736
 4296TIP3    H112852   3.261   5.041   0.801
 4296TIP3    H212853   3.267   5.191   0.781
 4297TIP3   OH212854   1.130   0.647   0.596
 4297TIP3    H112855   1.095   0.562   0.623
 4297TIP3    H212856   1.212   0.626   0.550
 4298TIP3   OH212857   3.739   3.918   1.525
 4298TIP3    H112858   3.726   3.967   1.444
 4298TIP3    H212859   3.651   3.909   1.562
 4299TIP3   OH212860   1.605   2.908   1.679
 4299TIP3    H112861   1.554   2.874   1.752
 4299TIP3    H212862   1.623   2.999   1.703
 4300TIP3   OH212863   2.161   2.817   5.009
 4300TIP3    H112864   2.201   2.903   4.994
 4300TIP3    H212865   2.224   2.771   5.064
 4301TIP3   OH212866   5.618   6.698   5.625
 4301TIP3    H112867   5.711   6.698   5.646
 4301TIP3    H212868   5.603   6.782   5.581
 4302TIP3   OH212869   4.246   1.755   2.631
 4302TIP3    H112870   4.270   1.762   2.723
 4302TIP3    H212871   4.180   1.686   2.630
 4303TIP3   OH212872   2.443   5.902   3.502
 4303TIP3    H112873   2.522   5.850   3.488
 4303TIP3    H212874   2.435   5.956   3.424
 4304TIP3   OH212875   0.714   0.834   5.309
 4304TIP3    H112876   0.808   0.816   5.310
 4304TIP3    H212877   0.673   0.749   5.293
 4305TIP3   OH212878   3.525   3.708   0.637
 4305TIP3    H112879   3.605   3.662   0.612
 4305TIP3    H212880   3.534   3.723   0.731
 4306TIP3   OH212881   1.363   1.919   4.992
 4306TIP3    H112882   1.343   1.854   5.059
 4306TIP3    H212883   1.404   1.869   4.921
 4307TIP3   OH212884   2.410   2.331   3.301
 4307TIP3    H112885   2.344   2.288   3.356
 4307TIP3    H212886   2.359   2.379   3.236
 4308TIP3   OH212887   6.781   4.336   4.768
 4308TIP3    H112888   6.776   4.430   4.754
 4308TIP3    H212889   6.850   4.307   4.707
 4309TIP3   OH212890   2.409   2.754   1.436
 4309TIP3    H112891   2.355   2.830   1.415
 4309TIP3    H212892   2.485   2.790   1.481
 4310TIP3   OH212893   1.002   0.596   1.102
 4310TIP3    H112894   1.032   0.683   1.077
 4310TIP3    H212895   1.042   0.580   1.188
 4311TIP3   OH212896   4.897   2.304  -0.003
 4311TIP3    H112897   4.803   2.301   0.013
 4311TIP3    H212898   4.905   2.323  -0.097
 4312TIP3   OH212899   5.400   6.375   4.164
 4312TIP3    H112900   5.448   6.302   4.124
 4312TIP3    H212901   5.309   6.360   4.137
 4313TIP3   OH212902   3.361   0.027   2.884
 4313TIP3    H112903   3.392  -0.031   2.815
 4313TIP3    H212904   3.278  -0.011   2.912
 4314TIP3   OH212905   3.386   5.000   0.077
 4314TIP3    H112906   3.317   4.980   0.140
 4314TIP3    H212907   3.340   5.006  -0.007
 4315TIP3   OH212908   6.462   5.162   4.687
 4315TIP3    H112909   6.397   5.177   4.756
 4315TIP3    H212910   6.440   5.076   4.651
 4316TIP3   OH212911   5.469   4.450   2.527
 4316TIP3    H112912   5.467   4.421   2.436
 4316TIP3    H212913   5.393   4.408   2.568
 4317TIP3   OH212914   5.176   3.177   5.724
 4317TIP3    H112915   5.250   3.222   5.685
 4317TIP3    H212916   5.141   3.240   5.788
 4318TIP3   OH212917   4.039   0.978   0.164
 4318TIP3    H112918   4.052   0.953   0.256
 4318TIP3    H212919   4.048   1.073   0.163
 4319TIP3   OH212920   4.217   4.381   2.982
 4319TIP3    H112921   4.251   4.430   2.907
 4319TIP3    H212922   4.174   4.305   2.943
 4320TIP3   OH212923   6.549   6.501   0.896
 4320TIP3    H112924   6.464   6.474   0.861
 4320TIP3    H212925   6.597   6.419   0.910
 4321TIP3   OH212926   4.780   5.070   2.353
 4321TIP3    H112927   4.752   5.039   2.439
 4321TIP3    H212928   4.749   5.160   2.348
 4322TIP3   OH212929   1.346   3.327   1.387
 4322TIP3    H112930   1.332   3.302   1.295
 4322TIP3    H212931   1.294   3.264   1.437
 4323TIP3   OH212932   2.973   0.260   1.408
 4323TIP3    H112933   3.047   0.205   1.383
 4323TIP3    H212934   2.919   0.265   1.330
 4324TIP3   OH212935   1.070   5.359   2.269
 4324TIP3    H112936   1.161   5.364   2.243
 4324TIP3    H212937   1.069   5.299   2.344
 4325TIP3   OH212938   6.041   4.426   5.207
 4325TIP3    H112939   6.012   4.514   5.229
 4325TIP3    H212940   6.110   4.439   5.142
 4326TIP3   OH212941   3.760   5.222   0.262
 4326TIP3    H112942   3.803   5.297   0.221
 4326TIP3    H212943   3.775   5.150   0.202
 4327TIP3   OH212944   4.081   2.406   2.280
 4327TIP3    H112945   4.095   2.465   2.354
 4327TIP3    H212946   4.169   2.387   2.248
 4328TIP3   OH212947   4.280   1.889   4.958
 4328TIP3    H112948   4.293   1.815   5.017
 4328TIP3    H212949   4.267   1.964   5.017
 4329TIP3   OH212950   5.373   0.641   3.159
 4329TIP3    H112951   5.441   0.698   3.194
 4329TIP3    H212952   5.420   0.577   3.106
 4330TIP3   OH212953   0.030   3.868   4.569
 4330TIP3    H112954   0.051   3.896   4.658
 4330TIP3    H212955  -0.028   3.792   4.581
 4331TIP3   OH212956   5.770   5.023   1.726
 4331TIP3    H112957   5.708   5.093   1.704
 4331TIP3    H212958   5.811   5.052   1.808
 4332TIP3   OH212959   4.771   1.881   4.280
 4332TIP3    H112960   4.716   1.807   4.254
 4332TIP3    H212961   4.780   1.933   4.201
 4333TIP3   OH212962   6.895   0.964   1.353
 4333TIP3    H112963   6.979   0.933   1.318
 4333TIP3    H212964   6.919   1.034   1.414
 4334TIP3   OH212965   6.225   4.734   0.900
 4334TIP3    H112966   6.169   4.659   0.923
 4334TIP3    H212967   6.298   4.728   0.962
 4335TIP3   OH212968   2.562   1.787   3.527
 4335TIP3    H112969   2.546   1.851   3.457
 4335TIP3    H212970   2.599   1.711   3.481
 4336TIP3   OH212971   2.483   0.679   1.295
 4336TIP3    H112972   2.571   0.650   1.273
 4336TIP3    H212973   2.487   0.775   1.287
 4337TIP3   OH212974   4.678   1.605   4.282
 4337TIP3    H112975   4.753   1.554   4.251
 4337TIP3    H212976   4.672   1.584   4.375
 4338TIP3   OH212977   1.473   4.598   2.141
 4338TIP3    H112978   1.399   4.658   2.154
 4338TIP3    H212979   1.546   4.640   2.187
 4339TIP3   OH212980   4.707   5.610   5.300
 4339TIP3    H112981   4.704   5.706   5.296
 4339TIP3    H212982   4.800   5.589   5.296
 4340TIP3   OH212983   5.709   2.707   4.496
 4340TIP3    H112984   5.717   2.667   4.409
 4340TIP3    H212985   5.780   2.666   4.547
 4341TIP3   OH212986   6.260   1.093   5.213
 4341TIP3    H112987   6.303   1.175   5.189
 4341TIP3    H212988   6.232   1.055   5.129
 4342TIP3   OH212989   2.245   2.792   0.860
 4342TIP3    H112990   2.308   2.864   0.868
 4342TIP3    H212991   2.294   2.715   0.888
 4343TIP3   OH212992   5.526   2.506   2.389
 4343TIP3    H112993   5.484   2.434   2.342
 4343TIP3    H212994   5.521   2.481   2.481
 4344TIP3   OH212995   0.556   2.098   4.740
 4344TIP3    H112996   0.634   2.134   4.784
 4344TIP3    H212997   0.589   2.024   4.690
 4345TIP3   OH212998   4.978   1.344   5.547
 4345TIP3    H112999   4.896   1.309   5.581
 4345TIP3    H213000   4.952   1.399   5.473
 4346TIP3   OH213001   5.092   1.901   4.633
 4346TIP3    H113002   5.130   1.989   4.632
 4346TIP3    H213003   5.167   1.842   4.640
 4347TIP3   OH213004   5.338   1.813   2.296
 4347TIP3    H113005   5.321   1.775   2.382
 4347TIP3    H213006   5.395   1.750   2.252
 4348TIP3   OH213007   3.550   4.436   1.587
 4348TIP3    H113008   3.545   4.384   1.507
 4348TIP3    H213009   3.581   4.375   1.654
 4349TIP3   OH213010   0.884   2.802   5.767
 4349TIP3    H113011   0.924   2.872   5.716
 4349TIP3    H213012   0.791   2.806   5.747
 4350TIP3   OH213013   6.368   5.837   1.352
 4350TIP3    H113014   6.295   5.857   1.411
 4350TIP3    H213015   6.340   5.758   1.305
 4351TIP3   OH213016   1.086   0.652   2.469
 4351TIP3    H113017   1.084   0.589   2.541
 4351TIP3    H213018   1.057   0.602   2.392
 4352TIP3   OH213019   3.644   2.728   5.017
 4352TIP3    H113020   3.647   2.778   4.935
 4352TIP3    H213021   3.736   2.720   5.043
 4353TIP3   OH213022   0.618   1.535   1.575
 4353TIP3    H113023   0.626   1.475   1.649
 4353TIP3    H213024   0.554   1.601   1.604
 4354TIP3   OH213025   3.069   4.973   0.505
 4354TIP3    H113026   2.985   5.016   0.491
 4354TIP3    H213027   3.064   4.940   0.595
 4355TIP3   OH213028   6.501   5.151   5.529
 4355TIP3    H113029   6.515   5.154   5.434
 4355TIP3    H213030   6.548   5.073   5.558
 4356TIP3   OH213031   0.575   2.142   2.911
 4356TIP3    H113032   0.523   2.145   2.992
 4356TIP3    H213033   0.575   2.050   2.886
 4357TIP3   OH213034   0.673   1.945   4.545
 4357TIP3    H113035   0.701   1.855   4.561
 4357TIP3    H213036   0.754   1.994   4.535
 4358TIP3   OH213037   5.815   4.157   3.085
 4358TIP3    H113038   5.803   4.138   3.178
 4358TIP3    H213039   5.858   4.079   3.051
 4359TIP3   OH213040   4.747   4.967   0.336
 4359TIP3    H113041   4.700   4.900   0.287
 4359TIP3    H213042   4.728   5.048   0.290
 4360TIP3   OH213043   1.290   6.571   0.516
 4360TIP3    H113044   1.368   6.622   0.494
 4360TIP3    H213045   1.315   6.481   0.497
 4361TIP3   OH213046   1.259   3.672   1.997
 4361TIP3    H113047   1.225   3.722   1.923
 4361TIP3    H213048   1.195   3.685   2.067
 4362TIP3   OH213049   4.750   3.586   0.348
 4362TIP3    H113050   4.724   3.512   0.294
 4362TIP3    H213051   4.804   3.641   0.291
 4363TIP3   OH213052   2.574   5.655   5.574
 4363TIP3    H113053   2.557   5.659   5.480
 4363TIP3    H213054   2.504   5.602   5.610
 4364TIP3   OH213055   1.847   1.060   5.463
 4364TIP3    H113056   1.897   0.980   5.476
 4364TIP3    H213057   1.775   1.054   5.526
 4365TIP3   OH213058   2.674   5.770   3.476
 4365TIP3    H113059   2.713   5.683   3.470
 4365TIP3    H213060   2.713   5.819   3.404
 4366TIP3   OH213061   3.881   1.643   2.067
 4366TIP3    H113062   3.844   1.587   2.135
 4366TIP3    H213063   3.918   1.717   2.114
 4367TIP3   OH213064   1.565   0.345   1.352
 4367TIP3    H113065   1.572   0.354   1.447
 4367TIP3    H213066   1.655   0.349   1.321
 4368TIP3   OH213067   6.492   1.107   1.755
 4368TIP3    H113068   6.397   1.097   1.744
 4368TIP3    H213069   6.507   1.201   1.749
 4369TIP3   OH213070   2.152   6.608   4.778
 4369TIP3    H113071   2.168   6.514   4.771
 4369TIP3    H213072   2.145   6.639   4.688
 4370TIP3   OH213073   1.760   2.862   5.788
 4370TIP3    H113074   1.714   2.923   5.846
 4370TIP3    H213075   1.693   2.829   5.729
 4371TIP3   OH213076   6.669   2.102   5.286
 4371TIP3    H113077   6.673   2.191   5.321
 4371TIP3    H213078   6.596   2.061   5.332
 4372TIP3   OH213079   4.007   3.738   3.603
 4372TIP3    H113080   3.913   3.727   3.593
 4372TIP3    H213081   4.016   3.823   3.646
 4373TIP3   OH213082   5.590   5.483   0.128
 4373TIP3    H113083   5.611   5.554   0.188
 4373TIP3    H213084   5.567   5.527   0.046
 4374TIP3   OH213085   6.425   4.113   1.091
 4374TIP3    H113086   6.514   4.115   1.055
 4374TIP3    H213087   6.417   4.026   1.129
 4375TIP3   OH213088   2.780   1.321   4.322
 4375TIP3    H113089   2.787   1.244   4.378
 4375TIP3    H213090   2.775   1.395   4.383
 4376TIP3   OH213091   6.541   0.409  -0.011
 4376TIP3    H113092   6.474   0.447   0.046
 4376TIP3    H213093   6.596   0.357   0.048
 4377TIP3   OH213094   4.680   0.897   0.772
 4377TIP3    H113095   4.627   0.951   0.832
 4377TIP3    H213096   4.617   0.844   0.725
 4378TIP3   OH213097   6.718   4.201   3.180
 4378TIP3    H113098   6.630   4.237   3.179
 4378TIP3    H213099   6.775   4.277   3.167
 4379TIP3   OH213100   5.947   5.511   3.790
 4379TIP3    H113101   5.860   5.550   3.785
 4379TIP3    H213102   5.995   5.550   3.717
 4380TIP3   OH213103   4.868   0.867   1.929
 4380TIP3    H113104   4.784   0.822   1.930
 4380TIP3    H213105   4.926   0.808   1.978
 4381TIP3   OH213106   4.711   5.396   5.868
 4381TIP3    H113107   4.651   5.466   5.892
 4381TIP3    H213108   4.797   5.430   5.890
 4382TIP3   OH213109   2.373   4.126   2.469
 4382TIP3    H113110   2.439   4.145   2.536
 4382TIP3    H213111   2.418   4.141   2.386
 4383TIP3   OH213112   3.611   2.666   3.349
 4383TIP3    H113113   3.642   2.710   3.270
 4383TIP3    H213114   3.624   2.573   3.332
 4384TIP3   OH213115   0.442   4.192   4.326
 4384TIP3    H113116   0.358   4.207   4.369
 4384TIP3    H213117   0.507   4.227   4.388
 4385TIP3   OH213118   4.685   2.876   4.732
 4385TIP3    H113119   4.676   2.953   4.677
 4385TIP3    H213120   4.645   2.805   4.681
 4386TIP3   OH213121   2.379   3.258   5.785
 4386TIP3    H113122   2.457   3.285   5.833
 4386TIP3    H213123   2.403   3.267   5.693
 4387TIP3   OH213124   2.065   0.442   0.639
 4387TIP3    H113125   2.007   0.377   0.599
 4387TIP3    H213126   2.042   0.525   0.595
 4388TIP3   OH213127   5.580   4.103   2.887
 4388TIP3    H113128   5.650   4.108   2.822
 4388TIP3    H213129   5.597   4.177   2.946
 4389TIP3   OH213130   2.416   3.453   4.110
 4389TIP3    H113131   2.392   3.504   4.032
 4389TIP3    H213132   2.361   3.375   4.106
 4390TIP3   OH213133   1.011   6.772   5.239
 4390TIP3    H113134   1.018   6.695   5.182
 4390TIP3    H213135   1.044   6.742   5.324
 4391TIP3   OH213136   6.669   6.618   4.061
 4391TIP3    H113137   6.743   6.670   4.091
 4391TIP3    H213138   6.595   6.679   4.058
 4392TIP3   OH213139   5.716   4.832   3.837
 4392TIP3    H113140   5.794   4.884   3.859
 4392TIP3    H213141   5.732   4.747   3.878
 4393TIP3   OH213142   5.107   0.214   1.584
 4393TIP3    H113143   5.117   0.225   1.679
 4393TIP3    H213144   5.016   0.236   1.567
 4394TIP3   OH213145   3.134   6.640   4.478
 4394TIP3    H113146   3.156   6.547   4.482
 4394TIP3    H213147   3.218   6.685   4.478
 4395TIP3   OH213148   4.240   6.701   4.136
 4395TIP3    H113149   4.298   6.764   4.093
 4395TIP3    H213150   4.245   6.724   4.229
 4396TIP3   OH213151   4.331   6.006   1.397
 4396TIP3    H113152   4.319   6.084   1.342
 4396TIP3    H213153   4.422   5.980   1.381
 4397TIP3   OH213154   7.165   3.635   0.016
 4397TIP3    H113155   7.138   3.685   0.093
 4397TIP3    H213156   7.261   3.633   0.022
 4398TIP3   OH213157   4.783   2.039   5.408
 4398TIP3    H113158   4.763   2.133   5.415
 4398TIP3    H213159   4.861   2.027   5.462
 4399TIP3   OH213160   6.057   5.246   5.649
 4399TIP3    H113161   6.147   5.267   5.627
 4399TIP3    H213162   6.022   5.326   5.687
 4400TIP3   OH213163   2.619   3.726   3.989
 4400TIP3    H113164   2.621   3.793   3.920
 4400TIP3    H213165   2.710   3.697   3.996
 4401TIP3   OH213166   5.929   3.515   1.822
 4401TIP3    H113167   5.846   3.557   1.799
 4401TIP3    H213168   5.943   3.450   1.754
 4402TIP3   OH213169   0.148   0.908   4.469
 4402TIP3    H113170   0.225   0.859   4.497
 4402TIP3    H213171   0.128   0.875   4.382
 4403TIP3   OH213172   6.227   2.777   0.302
 4403TIP3    H113173   6.153   2.814   0.351
 4403TIP3    H213174   6.226   2.684   0.325
 4404TIP3   OH213175   2.363   0.352   1.740
 4404TIP3    H113176   2.445   0.374   1.696
 4404TIP3    H213177   2.362   0.408   1.818
 4405TIP3   OH213178   4.601   1.835   3.951
 4405TIP3    H113179   4.680   1.795   3.913
 4405TIP3    H213180   4.555   1.762   3.992
 4406TIP3   OH213181   3.276   6.435   1.669
 4406TIP3    H113182   3.359   6.471   1.700
 4406TIP3    H213183   3.300   6.352   1.627
 4407TIP3   OH213184   5.747   1.986   1.714
 4407TIP3    H113185   5.736   2.080   1.701
 4407TIP3    H213186   5.680   1.946   1.658
 4408TIP3   OH213187   6.558   3.281   3.269
 4408TIP3    H113188   6.483   3.308   3.321
 4408TIP3    H213189   6.522   3.221   3.204
 4409TIP3   OH213190   0.500   1.483   4.225
 4409TIP3    H113191   0.438   1.520   4.161
 4409TIP3    H213192   0.572   1.546   4.227
 4410TIP3   OH213193   3.357   4.009   0.160
 4410TIP3    H113194   3.359   4.048   0.073
 4410TIP3    H213195   3.441   4.033   0.199
 4411TIP3   OH213196   1.167   6.115   1.892
 4411TIP3    H113197   1.123   6.061   1.827
 4411TIP3    H213198   1.162   6.065   1.973
 4412TIP3   OH213199   1.389   0.918   1.544
 4412TIP3    H113200   1.345   0.944   1.463
 4412TIP3    H213201   1.329   0.945   1.613
 4413TIP3   OH213202   3.618   1.619   2.495
 4413TIP3    H113203   3.644   1.608   2.404
 4413TIP3    H213204   3.663   1.549   2.542
 4414TIP3   OH213205   2.367   4.859   1.967
 4414TIP3    H113206   2.386   4.798   1.895
 4414TIP3    H213207   2.391   4.810   2.046
 4415TIP3   OH213208   6.513   4.791   4.231
 4415TIP3    H113209   6.504   4.704   4.270
 4415TIP3    H213210   6.608   4.807   4.228
 4416TIP3   OH213211   6.716   0.869   5.585
 4416TIP3    H113212   6.722   0.960   5.555
 4416TIP3    H213213   6.754   0.870   5.673
 4417TIP3   OH213214   6.379   4.164   0.679
 4417TIP3    H113215   6.370   4.213   0.598
 4417TIP3    H213216   6.292   4.129   0.696
 4418TIP3   OH213217   5.905   3.349   2.764
 4418TIP3    H113218   5.851   3.394   2.829
 4418TIP3    H213219   5.993   3.349   2.802
 4419TIP3   OH213220   1.842   4.482   1.235
 4419TIP3    H113221   1.931   4.450   1.238
 4419TIP3    H213222   1.787   4.405   1.251
 4420TIP3   OH213223   6.943   5.788   0.041
 4420TIP3    H113224   7.000   5.842   0.096
 4420TIP3    H213225   6.873   5.847   0.014
 4421TIP3   OH213226   3.652   4.419   0.683
 4421TIP3    H113227   3.630   4.486   0.748
 4421TIP3    H213228   3.734   4.449   0.645
 4422TIP3   OH213229   0.091   4.921   1.015
 4422TIP3    H113230   0.142   4.945   1.092
 4422TIP3    H213231   0.000   4.942   1.038
 4423TIP3   OH213232   4.316   5.039   4.634
 4423TIP3    H113233   4.382   5.036   4.703
 4423TIP3    H213234   4.287   5.130   4.632
 4424TIP3   OH213235   0.934   5.990   0.473
 4424TIP3    H113236   0.851   6.022   0.509
 4424TIP3    H213237   0.949   5.907   0.519
 4425TIP3   OH213238   2.067   0.173   2.691
 4425TIP3    H113239   2.074   0.169   2.596
 4425TIP3    H213240   2.157   0.188   2.721
 4426TIP3   OH213241   3.109   2.101   0.568
 4426TIP3    H113242   3.129   2.027   0.511
 4426TIP3    H213243   3.043   2.151   0.520
 4427TIP3   OH213244   6.136   6.342   4.569
 4427TIP3    H113245   6.070   6.369   4.633
 4427TIP3    H213246   6.182   6.422   4.546
 4428TIP3   OH213247   7.144   4.775   3.087
 4428TIP3    H113248   7.203   4.822   3.146
 4428TIP3    H213249   7.179   4.686   3.084
 4429TIP3   OH213250   3.328   0.876   0.318
 4429TIP3    H113251   3.413   0.834   0.301
 4429TIP3    H213252   3.303   0.844   0.405
 4430TIP3   OH213253   1.252   6.360   5.860
 4430TIP3    H113254   1.205   6.373   5.778
 4430TIP3    H213255   1.287   6.271   5.853
 4431TIP3   OH213256   3.062   3.159   0.126
 4431TIP3    H113257   3.148   3.197   0.139
 4431TIP3    H213258   3.071   3.068   0.152
 4432TIP3   OH213259   1.978   6.462   4.564
 4432TIP3    H113260   1.913   6.427   4.503
 4432TIP3    H213261   1.928   6.482   4.643
 4433TIP3   OH213262   5.401   2.571   0.358
 4433TIP3    H113263   5.333   2.525   0.308
 4433TIP3    H213264   5.420   2.513   0.431
 4434TIP3   OH213265   6.174   6.100   0.763
 4434TIP3    H113266   6.116   6.170   0.792
 4434TIP3    H213267   6.240   6.094   0.832
 4435TIP3   OH213268   1.734   1.424   3.943
 4435TIP3    H113269   1.679   1.485   3.894
 4435TIP3    H213270   1.679   1.347   3.955
 4436TIP3   OH213271   2.378   0.401   5.400
 4436TIP3    H113272   2.383   0.496   5.389
 4436TIP3    H213273   2.380   0.366   5.311
 4437TIP3   OH213274   4.085   3.229   3.324
 4437TIP3    H113275   4.041   3.226   3.239
 4437TIP3    H213276   4.114   3.320   3.332
 4438TIP3   OH213277   5.902   4.239   2.150
 4438TIP3    H113278   5.954   4.297   2.095
 4438TIP3    H213279   5.815   4.280   2.153
 4439TIP3   OH213280   3.417   5.439   2.796
 4439TIP3    H113281   3.503   5.401   2.779
 4439TIP3    H213282   3.431   5.494   2.874
 4440TIP3   OH213283   2.607   6.072   2.765
 4440TIP3    H113284   2.585   5.994   2.714
 4440TIP3    H213285   2.536   6.079   2.830
 4441TIP3   OH213286   3.917   4.401   5.840
 4441TIP3    H113287   3.956   4.427   5.757
 4441TIP3    H213288   3.835   4.449   5.844
 4442TIP3   OH213289   5.998   4.761   2.671
 4442TIP3    H113290   5.938   4.738   2.600
 4442TIP3    H213291   5.972   4.850   2.696
 4443TIP3   OH213292   4.561   0.471   1.354
 4443TIP3    H113293   4.497   0.534   1.322
 4443TIP3    H213294   4.644   0.501   1.318
 4444TIP3   OH213295   1.229   1.511   0.201
 4444TIP3    H113296   1.311   1.557   0.217
 4444TIP3    H213297   1.161   1.573   0.229
 4445TIP3   OH213298   3.772   0.782   0.715
 4445TIP3    H113299   3.844   0.720   0.704
 4445TIP3    H213300   3.785   0.819   0.803
 4446TIP3   OH213301   3.577   2.394   0.654
 4446TIP3    H113302   3.525   2.323   0.690
 4446TIP3    H213303   3.586   2.456   0.727
 4447TIP3   OH213304   3.827   2.770   3.606
 4447TIP3    H113305   3.831   2.772   3.510
 4447TIP3    H213306   3.912   2.737   3.633
 4448TIP3   OH213307   2.719   5.377   0.939
 4448TIP3    H113308   2.671   5.460   0.935
 4448TIP3    H213309   2.780   5.388   1.012
 4449TIP3   OH213310   1.630   5.112   2.572
 4449TIP3    H113311   1.696   5.045   2.550
 4449TIP3    H213312   1.678   5.195   2.566
 4450TIP3   OH213313   4.477   0.975   4.652
 4450TIP3    H113314   4.509   0.940   4.569
 4450TIP3    H213315   4.424   0.904   4.688
 4451TIP3   OH213316   5.275   1.872   1.370
 4451TIP3    H113317   5.222   1.863   1.449
 4451TIP3    H213318   5.324   1.791   1.364
 4452TIP3   OH213319   4.769   5.277   5.639
 4452TIP3    H113320   4.805   5.347   5.583
 4452TIP3    H213321   4.721   5.324   5.707
 4453TIP3   OH213322   5.540   3.210   4.283
 4453TIP3    H113323   5.633   3.192   4.294
 4453TIP3    H213324   5.517   3.169   4.200
 4454TIP3   OH213325   1.163   2.617   5.589
 4454TIP3    H113326   1.212   2.639   5.509
 4454TIP3    H213327   1.214   2.656   5.660
 4455TIP3   OH213328   1.799   5.085   1.728
 4455TIP3    H113329   1.711   5.119   1.712
 4455TIP3    H213330   1.789   4.990   1.727
 4456TIP3   OH213331   1.940   6.232   5.699
 4456TIP3    H113332   1.849   6.259   5.711
 4456TIP3    H213333   1.989   6.284   5.763
 4457TIP3   OH213334   0.502   6.305   1.974
 4457TIP3    H113335   0.528   6.346   2.056
 4457TIP3    H213336   0.437   6.240   2.000
 4458TIP3   OH213337   6.322   1.339   2.185
 4458TIP3    H113338   6.404   1.383   2.208
 4458TIP3    H213339   6.277   1.402   2.129
 4459TIP3   OH213340   0.616   0.586   3.253
 4459TIP3    H113341   0.524   0.600   3.233
 4459TIP3    H213342   0.662   0.608   3.172
 4460TIP3   OH213343   3.568   1.215   2.356
 4460TIP3    H113344   3.510   1.245   2.426
 4460TIP3    H213345   3.511   1.161   2.300
 4461TIP3   OH213346   4.831   6.485   0.611
 4461TIP3    H113347   4.806   6.419   0.675
 4461TIP3    H213348   4.780   6.462   0.533
 4462TIP3   OH213349   5.304   5.681   0.802
 4462TIP3    H113350   5.283   5.588   0.812
 4462TIP3    H213351   5.399   5.685   0.812
 4463TIP3   OH213352   3.223   2.328   0.344
 4463TIP3    H113353   3.262   2.310   0.430
 4463TIP3    H213354   3.246   2.251   0.292
 4464TIP3   OH213355   4.013   6.377   2.243
 4464TIP3    H113356   4.041   6.347   2.156
 4464TIP3    H213357   3.918   6.360   2.245
 4465TIP3   OH213358   1.276   1.588   4.870
 4465TIP3    H113359   1.330   1.632   4.804
 4465TIP3    H213360   1.317   1.612   4.954
 4466TIP3   OH213361   5.767   1.402   5.328
 4466TIP3    H113362   5.684   1.394   5.280
 4466TIP3    H213363   5.788   1.495   5.325
 4467TIP3   OH213364   3.690   6.456   5.664
 4467TIP3    H113365   3.772   6.471   5.711
 4467TIP3    H213366   3.716   6.412   5.583
 4468TIP3   OH213367   1.165   6.705   3.159
 4468TIP3    H113368   1.162   6.757   3.079
 4468TIP3    H213369   1.248   6.730   3.201
 4469TIP3   OH213370   4.444   1.330   1.033
 4469TIP3    H113371   4.520   1.348   1.088
 4469TIP3    H213372   4.470   1.359   0.945
 4470TIP3   OH213373   0.975   5.523  -0.023
 4470TIP3    H113374   1.015   5.598  -0.067
 4470TIP3    H213375   1.006   5.528   0.067
 4471TIP3   OH213376   2.679   4.342   4.974
 4471TIP3    H113377   2.712   4.256   4.998
 4471TIP3    H213378   2.711   4.400   5.043
 4472TIP3   OH213379   4.175   1.441   4.948
 4472TIP3    H113380   4.232   1.477   4.880
 4472TIP3    H213381   4.205   1.351   4.960
 4473TIP3   OH213382   0.684   0.300   2.268
 4473TIP3    H113383   0.623   0.246   2.218
 4473TIP3    H213384   0.660   0.285   2.359
 4474TIP3   OH213385   6.548   4.831   3.104
 4474TIP3    H113386   6.614   4.896   3.130
 4474TIP3    H213387   6.465   4.869   3.132
 4475TIP3   OH213388   6.499   2.063   0.368
 4475TIP3    H113389   6.493   1.993   0.303
 4475TIP3    H213390   6.409   2.096   0.375
 4476TIP3   OH213391   4.783   1.099   1.394
 4476TIP3    H113392   4.765   1.123   1.485
 4476TIP3    H213393   4.871   1.132   1.378
 4477TIP3   OH213394   4.948   6.759   2.806
 4477TIP3    H113395   4.866   6.805   2.826
 4477TIP3    H213396   4.951   6.757   2.710
 4478TIP3   OH213397   2.268   4.557   3.748
 4478TIP3    H113398   2.321   4.637   3.754
 4478TIP3    H213399   2.294   4.517   3.664
 4479TIP3   OH213400   1.891   3.113   4.143
 4479TIP3    H113401   1.971   3.074   4.107
 4479TIP3    H213402   1.909   3.207   4.147
 4480TIP3   OH213403   4.070   3.885   2.409
 4480TIP3    H113404   4.045   3.811   2.463
 4480TIP3    H213405   4.056   3.961   2.464
 4481TIP3   OH213406   6.635   1.354   4.192
 4481TIP3    H113407   6.710   1.384   4.244
 4481TIP3    H213408   6.579   1.431   4.183
 4482TIP3   OH213409   5.122   5.620   5.801
 4482TIP3    H113410   5.162   5.583   5.722
 4482TIP3    H213411   5.161   5.707   5.809
 4483TIP3   OH213412   4.508   4.128   1.457
 4483TIP3    H113413   4.455   4.129   1.377
 4483TIP3    H213414   4.528   4.220   1.474
 4484TIP3   OH213415   0.524   1.692   0.517
 4484TIP3    H113416   0.527   1.612   0.569
 4484TIP3    H213417   0.572   1.757   0.569
 4485TIP3   OH213418   4.522   4.868   4.798
 4485TIP3    H113419   4.530   4.777   4.771
 4485TIP3    H213420   4.586   4.915   4.745
 4486TIP3   OH213421   3.337   4.645   5.839
 4486TIP3    H113422   3.249   4.680   5.826
 4486TIP3    H213423   3.360   4.606   5.755
 4487TIP3   OH213424   3.268   5.455   3.454
 4487TIP3    H113425   3.214   5.528   3.423
 4487TIP3    H213426   3.351   5.465   3.408
 4488TIP3   OH213427   2.803   2.754   0.079
 4488TIP3    H113428   2.810   2.741   0.173
 4488TIP3    H213429   2.862   2.689   0.041
 4489TIP3   OH213430   4.165   1.578   1.605
 4489TIP3    H113431   4.103   1.562   1.533
 4489TIP3    H213432   4.208   1.494   1.618
 4490TIP3   OH213433   4.619   1.470   3.181
 4490TIP3    H113434   4.664   1.422   3.250
 4490TIP3    H213435   4.670   1.453   3.102
 4491TIP3   OH213436   7.148   0.863   1.289
 4491TIP3    H113437   7.185   0.829   1.207
 4491TIP3    H213438   7.206   0.831   1.357
 4492TIP3   OH213439   1.119   4.405   2.767
 4492TIP3    H113440   1.057   4.351   2.816
 4492TIP3    H213441   1.094   4.394   2.675
 4493TIP3   OH213442   1.599   5.691   3.891
 4493TIP3    H113443   1.663   5.643   3.839
 4493TIP3    H213444   1.629   5.782   3.889
 4494TIP3   OH213445   3.320   2.005   5.742
 4494TIP3    H113446   3.303   2.062   5.667
 4494TIP3    H213447   3.388   1.945   5.713
 4495TIP3   OH213448   3.194   3.617   3.813
 4495TIP3    H113449   3.149   3.695   3.783
 4495TIP3    H213450   3.130   3.546   3.802
 4496TIP3   OH213451   2.470   6.319   4.317
 4496TIP3    H113452   2.499   6.350   4.403
 4496TIP3    H213453   2.383   6.283   4.333
 4497TIP3   OH213454   4.175   5.270   2.616
 4497TIP3    H113455   4.148   5.217   2.691
 4497TIP3    H213456   4.110   5.251   2.548
 4498TIP3   OH213457   4.201   2.187   3.366
 4498TIP3    H113458   4.188   2.092   3.372
 4498TIP3    H213459   4.127   2.224   3.415
 4499TIP3   OH213460   1.427   4.014   3.757
 4499TIP3    H113461   1.355   4.020   3.819
 4499TIP3    H213462   1.465   3.927   3.772
 4500TIP3   OH213463   3.271   0.308   2.902
 4500TIP3    H113464   3.306   0.219   2.914
 4500TIP3    H213465   3.322   0.342   2.828
 4501TIP3   OH213466   2.841   2.332   3.511
 4501TIP3    H113467   2.925   2.288   3.498
 4501TIP3    H213468   2.778   2.278   3.463
 4502TIP3   OH213469   2.994   5.384   5.065
 4502TIP3    H113470   3.020   5.303   5.109
 4502TIP3    H213471   3.077   5.422   5.034
 4503TIP3   OH213472   5.706   6.232   0.707
 4503TIP3    H113473   5.754   6.275   0.778
 4503TIP3    H213474   5.770   6.173   0.667
 4504TIP3   OH213475   2.657   1.066   0.540
 4504TIP3    H113476   2.719   1.037   0.607
 4504TIP3    H213477   2.712   1.099   0.469
 4505TIP3   OH213478   0.744   1.139   5.626
 4505TIP3    H113479   0.720   1.046   5.623
 4505TIP3    H213480   0.767   1.155   5.717
 4506TIP3   OH213481   4.738   5.859   2.311
 4506TIP3    H113482   4.788   5.813   2.243
 4506TIP3    H213483   4.653   5.815   2.312
 4507TIP3   OH213484   5.811   4.568   0.907
 4507TIP3    H113485   5.806   4.565   1.002
 4507TIP3    H213486   5.873   4.637   0.887
 4508TIP3   OH213487   5.888   6.218   1.874
 4508TIP3    H113488   5.841   6.147   1.917
 4508TIP3    H213489   5.819   6.275   1.840
 4509TIP3   OH213490   2.645   2.996   0.623
 4509TIP3    H113491   2.620   2.909   0.654
 4509TIP3    H213492   2.676   3.042   0.701
 4510TIP3   OH213493   0.305   3.969   2.374
 4510TIP3    H113494   0.355   4.025   2.433
 4510TIP3    H213495   0.356   3.889   2.366
 4511TIP3   OH213496   6.155   0.074   2.941
 4511TIP3    H113497   6.226   0.069   3.005
 4511TIP3    H213498   6.199   0.088   2.857
 4512TIP3   OH213499   3.372   5.143   1.371
 4512TIP3    H113500   3.357   5.128   1.464
 4512TIP3    H213501   3.466   5.126   1.358
 4513TIP3   OH213502   6.921   3.898   1.378
 4513TIP3    H113503   6.886   3.970   1.430
 4513TIP3    H213504   6.861   3.825   1.394
 4514TIP3   OH213505   2.901   2.906   4.458
 4514TIP3    H113506   2.871   2.863   4.538
 4514TIP3    H213507   2.822   2.947   4.422
 4515TIP3   OH213508   0.331   3.685   0.420
 4515TIP3    H113509   0.371   3.640   0.495
 4515TIP3    H213510   0.280   3.618   0.376
 4516TIP3   OH213511   1.234   0.194   0.603
 4516TIP3    H113512   1.284   0.130   0.654
 4516TIP3    H213513   1.244   0.276   0.650
 4517TIP3   OH213514   2.866   3.890   3.522
 4517TIP3    H113515   2.858   3.802   3.560
 4517TIP3    H213516   2.954   3.918   3.545
 4518TIP3   OH213517   5.982   0.338   1.284
 4518TIP3    H113518   5.978   0.429   1.255
 4518TIP3    H213519   6.050   0.298   1.231
 4519TIP3   OH213520   3.310   4.018   2.556
 4519TIP3    H113521   3.254   3.943   2.537
 4519TIP3    H213522   3.310   4.024   2.652
 4520TIP3   OH213523   5.855   2.887   5.779
 4520TIP3    H113524   5.873   2.920   5.867
 4520TIP3    H213525   5.820   2.962   5.732
 4521TIP3   OH213526   3.731   4.913   3.403
 4521TIP3    H113527   3.682   4.962   3.469
 4521TIP3    H213528   3.813   4.889   3.447
 4522TIP3   OH213529   2.183   3.316   2.121
 4522TIP3    H113530   2.089   3.301   2.123
 4522TIP3    H213531   2.219   3.249   2.180
 4523TIP3   OH213532   1.760   3.857   0.351
 4523TIP3    H113533   1.765   3.772   0.306
 4523TIP3    H213534   1.832   3.856   0.413
 4524TIP3   OH213535   4.827   0.678   3.904
 4524TIP3    H113536   4.804   0.605   3.961
 4524TIP3    H213537   4.778   0.752   3.940
 4525TIP3   OH213538   3.894   4.713   1.492
 4525TIP3    H113539   3.901   4.804   1.462
 4525TIP3    H213540   3.896   4.661   1.412
 4526TIP3   OH213541   3.581   0.153   2.954
 4526TIP3    H113542   3.571   0.230   2.897
 4526TIP3    H213543   3.497   0.107   2.947
 4527TIP3   OH213544   3.184   3.397   2.191
 4527TIP3    H113545   3.119   3.378   2.124
 4527TIP3    H213546   3.262   3.424   2.142
 4528TIP3   OH213547   4.943   4.807   3.977
 4528TIP3    H113548   4.936   4.902   3.984
 4528TIP3    H213549   5.013   4.794   3.912
 4529TIP3   OH213550   1.043   4.309   5.524
 4529TIP3    H113551   0.959   4.314   5.570
 4529TIP3    H213552   1.088   4.390   5.548
 4530TIP3   OH213553   3.303   5.163   4.192
 4530TIP3    H113554   3.361   5.238   4.208
 4530TIP3    H213555   3.312   5.146   4.098
 4531TIP3   OH213556   1.860   2.336   5.835
 4531TIP3    H113557   1.939   2.342   5.781
 4531TIP3    H213558   1.794   2.299   5.776
 4532TIP3   OH213559   1.910   4.291   3.110
 4532TIP3    H113560   1.895   4.200   3.137
 4532TIP3    H213561   1.848   4.342   3.162
 4533TIP3   OH213562   4.451   4.390   1.908
 4533TIP3    H113563   4.530   4.440   1.888
 4533TIP3    H213564   4.418   4.429   1.989
 4534TIP3   OH213565   1.284   3.933   2.368
 4534TIP3    H113566   1.378   3.947   2.363
 4534TIP3    H213567   1.250   4.013   2.410
 4535TIP3   OH213568   1.467   3.172   5.531
 4535TIP3    H113569   1.455   3.178   5.626
 4535TIP3    H213570   1.498   3.259   5.505
 4536TIP3   OH213571   3.541   5.435   3.367
 4536TIP3    H113572   3.596   5.357   3.362
 4536TIP3    H213573   3.602   5.507   3.386
 4537TIP3   OH213574   7.145   4.846   3.549
 4537TIP3    H113575   7.065   4.849   3.602
 4537TIP3    H213576   7.211   4.890   3.603
 4538TIP3   OH213577   3.701   4.856   2.937
 4538TIP3    H113578   3.665   4.904   2.862
 4538TIP3    H213579   3.682   4.912   3.013
 4539TIP3   OH213580   5.934   3.331   5.741
 4539TIP3    H113581   5.894   3.301   5.660
 4539TIP3    H213582   5.863   3.333   5.805
 4540TIP3   OH213583   1.472   0.939   5.323
 4540TIP3    H113584   1.481   1.028   5.289
 4540TIP3    H213585   1.550   0.925   5.376
 4541TIP3   OH213586   2.895   1.483   5.225
 4541TIP3    H113587   2.919   1.531   5.304
 4541TIP3    H213588   2.889   1.391   5.253
 4542TIP3   OH213589   6.641   5.128   1.507
 4542TIP3    H113590   6.727   5.151   1.472
 4542TIP3    H213591   6.652   5.037   1.538
 4543TIP3   OH213592   5.483   0.222   4.101
 4543TIP3    H113593   5.436   0.139   4.106
 4543TIP3    H213594   5.427   0.278   4.047
 4544TIP3   OH213595   4.306   3.819   4.702
 4544TIP3    H113596   4.283   3.878   4.630
 4544TIP3    H213597   4.400   3.804   4.692
 4545TIP3   OH213598   1.750   1.809   3.867
 4545TIP3    H113599   1.685   1.830   3.934
 4545TIP3    H213600   1.835   1.827   3.908
 4546TIP3   OH213601   0.231   2.907   4.995
 4546TIP3    H113602   0.311   2.959   4.992
 4546TIP3    H213603   0.183   2.932   4.916
 4547TIP3   OH213604   3.243   2.601   1.793
 4547TIP3    H113605   3.269   2.514   1.824
 4547TIP3    H213606   3.184   2.583   1.720
 4548TIP3   OH213607   5.527   5.802   0.483
 4548TIP3    H113608   5.539   5.886   0.440
 4548TIP3    H213609   5.537   5.821   0.576
 4549TIP3   OH213610   4.722   5.431   3.557
 4549TIP3    H113611   4.673   5.372   3.614
 4549TIP3    H213612   4.799   5.455   3.609
 4550TIP3   OH213613   2.267   5.935   5.838
 4550TIP3    H113614   2.207   5.995   5.882
 4550TIP3    H213615   2.332   5.992   5.796
 4551TIP3   OH213616   3.874   6.232   0.885
 4551TIP3    H113617   3.789   6.275   0.895
 4551TIP3    H213618   3.858   6.140   0.908
 4552TIP3   OH213619   3.518   0.079   5.728
 4552TIP3    H113620   3.529   0.015   5.799
 4552TIP3    H213621   3.482   0.156   5.770
 4553TIP3   OH213622   2.127   2.709   5.406
 4553TIP3    H113623   2.158   2.710   5.496
 4553TIP3    H213624   2.032   2.715   5.413
 4554TIP3   OH213625   4.714   4.360   2.082
 4554TIP3    H113626   4.683   4.431   2.027
 4554TIP3    H213627   4.771   4.308   2.025
 4555TIP3   OH213628   4.361   5.889   1.945
 4555TIP3    H113629   4.420   5.928   1.880
 4555TIP3    H213630   4.380   5.936   2.026
 4556TIP3   OH213631   3.750   0.806   2.573
 4556TIP3    H113632   3.772   0.898   2.586
 4556TIP3    H213633   3.689   0.785   2.644
 4557TIP3   OH213634   0.077   0.211   1.155
 4557TIP3    H113635   0.032   0.129   1.135
 4557TIP3    H213636   0.141   0.188   1.223
 4558TIP3   OH213637   3.128   6.240   0.314
 4558TIP3    H113638   3.184   6.317   0.301
 4558TIP3    H213639   3.148   6.210   0.403
 4559TIP3   OH213640   4.132   6.461   5.440
 4559TIP3    H113641   4.226   6.481   5.435
 4559TIP3    H213642   4.129   6.365   5.448
 4560TIP3   OH213643   5.756   6.709   5.067
 4560TIP3    H113644   5.806   6.634   5.035
 4560TIP3    H213645   5.727   6.684   5.155
 4561TIP3   OH213646   6.623   3.951   3.363
 4561TIP3    H113647   6.654   3.907   3.284
 4561TIP3    H213648   6.670   4.034   3.364
 4562TIP3   OH213649   6.528   2.960   5.704
 4562TIP3    H113650   6.474   2.977   5.628
 4562TIP3    H213651   6.614   2.997   5.682
 4563TIP3   OH213652   4.392   2.574   2.776
 4563TIP3    H113653   4.470   2.534   2.814
 4563TIP3    H213654   4.381   2.530   2.692
 4564TIP3   OH213655   0.844   5.092   0.065
 4564TIP3    H113656   0.803   5.177   0.048
 4564TIP3    H213657   0.938   5.108   0.050
 4565TIP3   OH213658   5.758   6.590   1.331
 4565TIP3    H113659   5.841   6.546   1.313
 4565TIP3    H213660   5.698   6.557   1.264
 4566TIP3   OH213661   2.309   5.292   1.334
 4566TIP3    H113662   2.296   5.379   1.372
 4566TIP3    H213663   2.248   5.236   1.383
 4567TIP3   OH213664   5.774   2.419   0.056
 4567TIP3    H113665   5.686   2.382   0.056
 4567TIP3    H213666   5.771   2.490  -0.008
 4568TIP3   OH213667   0.648   2.348   1.766
 4568TIP3    H113668   0.594   2.423   1.790
 4568TIP3    H213669   0.647   2.346   1.671
 4569TIP3   OH213670   6.574   5.558   5.451
 4569TIP3    H113671   6.575   5.636   5.396
 4569TIP3    H213672   6.618   5.490   5.400
 4570TIP3   OH213673   6.291   2.359   4.789
 4570TIP3    H113674   6.344   2.342   4.868
 4570TIP3    H213675   6.300   2.453   4.775
 4571TIP3   OH213676   1.737   4.172   2.624
 4571TIP3    H113677   1.675   4.162   2.696
 4571TIP3    H213678   1.795   4.242   2.653
 4572TIP3   OH213679   3.845   6.525   0.028
 4572TIP3    H113680   3.782   6.521  -0.043
 4572TIP3    H213681   3.818   6.456   0.089
 4573TIP3   OH213682   5.194   0.032   3.920
 4573TIP3    H113683   5.135   0.087   3.971
 4573TIP3    H213684   5.216  -0.041   3.977
 4574TIP3   OH213685   5.118   6.388   3.730
 4574TIP3    H113686   5.067   6.311   3.756
 4574TIP3    H213687   5.053   6.454   3.708
 4575TIP3   OH213688   0.227   3.768   4.204
 4575TIP3    H113689   0.241   3.724   4.288
 4575TIP3    H213690   0.315   3.792   4.175
 4576TIP3   OH213691   0.097   5.018   2.152
 4576TIP3    H113692   0.138   4.963   2.086
 4576TIP3    H213693   0.114   4.974   2.235
 4577TIP3   OH213694   6.172   0.221   1.129
 4577TIP3    H113695   6.094   0.197   1.079
 4577TIP3    H213696   6.237   0.244   1.063
 4578TIP3   OH213697   6.548   3.636   4.865
 4578TIP3    H113698   6.492   3.624   4.788
 4578TIP3    H213699   6.637   3.638   4.830
 4579TIP3   OH213700   6.325   2.641   2.309
 4579TIP3    H113701   6.417   2.664   2.291
 4579TIP3    H213702   6.288   2.623   2.223
 4580TIP3   OH213703   4.920   4.591   0.887
 4580TIP3    H113704   4.964   4.584   0.972
 4580TIP3    H213705   4.971   4.656   0.838
 4581TIP3   OH213706   6.692   2.239   1.935
 4581TIP3    H113707   6.641   2.277   1.864
 4581TIP3    H213708   6.765   2.196   1.891
 4582TIP3   OH213709   7.044   0.244   2.163
 4582TIP3    H113710   7.134   0.259   2.193
 4582TIP3    H213711   7.054   0.192   2.083
 4583TIP3   OH213712   1.191   2.320   1.449
 4583TIP3    H113713   1.252   2.261   1.493
 4583TIP3    H213714   1.126   2.262   1.409
 4584TIP3   OH213715   7.011   5.363   1.278
 4584TIP3    H113716   7.082   5.426   1.284
 4584TIP3    H213717   7.013   5.332   1.188
 4585TIP3   OH213718   6.767   4.327   1.276
 4585TIP3    H113719   6.840   4.284   1.231
 4585TIP3    H213720   6.786   4.317   1.369
 4586TIP3   OH213721   5.523   0.509   5.338
 4586TIP3    H113722   5.445   0.559   5.314
 4586TIP3    H213723   5.492   0.419   5.347
 4587TIP3   OH213724   2.632   5.769   1.090
 4587TIP3    H113725   2.684   5.708   1.143
 4587TIP3    H213726   2.663   5.855   1.117
 4588TIP3   OH213727   2.809   4.951   1.911
 4588TIP3    H113728   2.849   4.952   1.824
 4588TIP3    H213729   2.725   4.995   1.900
 4589TIP3   OH213730   5.975   1.598   0.998
 4589TIP3    H113731   5.905   1.657   1.023
 4589TIP3    H213732   6.041   1.655   0.959
 4590TIP3   OH213733   3.511   1.834   3.024
 4590TIP3    H113734   3.583   1.894   3.004
 4590TIP3    H213735   3.437   1.892   3.043
 4591TIP3   OH213736   1.957   1.126   1.586
 4591TIP3    H113737   2.048   1.094   1.581
 4591TIP3    H213738   1.936   1.149   1.495
 4592TIP3   OH213739   4.876   2.617   2.819
 4592TIP3    H113740   4.914   2.663   2.894
 4592TIP3    H213741   4.869   2.526   2.847
 4593TIP3   OH213742   3.948   6.425   3.508
 4593TIP3    H113743   4.014   6.464   3.565
 4593TIP3    H213744   3.990   6.346   3.472
 4594TIP3   OH213745   2.151   5.451   2.696
 4594TIP3    H113746   2.203   5.457   2.776
 4594TIP3    H213747   2.067   5.413   2.724
 4595TIP3   OH213748   0.768   0.622   4.602
 4595TIP3    H113749   0.848   0.597   4.555
 4595TIP3    H213750   0.754   0.713   4.577
 4596TIP3   OH213751   5.247   1.854   5.630
 4596TIP3    H113752   5.338   1.840   5.656
 4596TIP3    H213753   5.195   1.828   5.706
 4597TIP3   OH213754   0.118   0.459   5.376
 4597TIP3    H113755   0.091   0.406   5.301
 4597TIP3    H213756   0.036   0.496   5.410
 4598TIP3   OH213757   6.175   2.153   5.603
 4598TIP3    H113758   6.088   2.166   5.565
 4598TIP3    H213759   6.226   2.229   5.574
 4599TIP3   OH213760   3.293   5.400   0.923
 4599TIP3    H113761   3.246   5.481   0.902
 4599TIP3    H213762   3.364   5.396   0.860
 4600TIP3   OH213763   3.564   6.363   3.852
 4600TIP3    H113764   3.535   6.273   3.837
 4600TIP3    H213765   3.483   6.414   3.850
 4601TIP3   OH213766   1.720   1.153   3.269
 4601TIP3    H113767   1.665   1.131   3.345
 4601TIP3    H213768   1.686   1.097   3.199
 4602TIP3   OH213769   2.393   4.454   1.306
 4602TIP3    H113770   2.442   4.403   1.242
 4602TIP3    H213771   2.433   4.541   1.303
 4603TIP3   OH213772   3.026   6.411   0.031
 4603TIP3    H113773   3.000   6.340  -0.027
 4603TIP3    H213774   3.075   6.471  -0.025
 4604TIP3   OH213775   1.650   4.402   1.488
 4604TIP3    H113776   1.649   4.306   1.485
 4604TIP3    H213777   1.664   4.423   1.580
 4605TIP3   OH213778   2.729   1.923   5.558
 4605TIP3    H113779   2.669   1.916   5.484
 4605TIP3    H213780   2.750   1.833   5.582
 4606TIP3   OH213781   0.651   2.401   3.833
 4606TIP3    H113782   0.673   2.311   3.856
 4606TIP3    H213783   0.707   2.454   3.889
 4607TIP3   OH213784   4.076   5.823   3.512
 4607TIP3    H113785   4.001   5.871   3.546
 4607TIP3    H213786   4.136   5.892   3.481
 4608TIP3   OH213787   2.536   4.282   2.282
 4608TIP3    H113788   2.499   4.299   2.195
 4608TIP3    H213789   2.593   4.206   2.269
 4609TIP3   OH213790   6.955   4.898   3.254
 4609TIP3    H113791   7.020   4.850   3.202
 4609TIP3    H213792   6.931   4.972   3.200
 4610TIP3   OH213793   1.737   2.219   0.226
 4610TIP3    H113794   1.655   2.255   0.193
 4610TIP3    H213795   1.743   2.251   0.316
 4611TIP3   OH213796   3.052   4.874   3.593
 4611TIP3    H113797   3.079   4.843   3.507
 4611TIP3    H213798   3.058   4.797   3.649
 4612TIP3   OH213799   4.777   6.058   3.314
 4612TIP3    H113800   4.856   6.065   3.260
 4612TIP3    H213801   4.773   5.966   3.339
 4613TIP3   OH213802   1.078   1.943   4.266
 4613TIP3    H113803   1.022   1.923   4.341
 4613TIP3    H213804   1.031   2.012   4.219
 4614TIP3   OH213805   1.039   5.664   2.130
 4614TIP3    H113806   1.051   5.594   2.193
 4614TIP3    H213807   1.049   5.622   2.045
 4615TIP3   OH213808   0.905   4.638   4.229
 4615TIP3    H113809   0.940   4.550   4.217
 4615TIP3    H213810   0.829   4.627   4.286
 4616TIP3   OH213811   6.167   2.471   2.520
 4616TIP3    H113812   6.239   2.519   2.479
 4616TIP3    H213813   6.106   2.453   2.448
 4617TIP3   OH213814   6.248   4.172   2.477
 4617TIP3    H113815   6.327   4.130   2.511
 4617TIP3    H213816   6.207   4.212   2.553
 4618TIP3   OH213817   6.949   5.286   0.503
 4618TIP3    H113818   6.875   5.261   0.447
 4618TIP3    H213819   7.007   5.210   0.502
 4619TIP3   OH213820   1.919   1.187   1.319
 4619TIP3    H113821   1.988   1.174   1.253
 4619TIP3    H213822   1.840   1.152   1.277
 4620TIP3   OH213823   7.034   5.378   4.890
 4620TIP3    H113824   6.980   5.455   4.870
 4620TIP3    H213825   7.049   5.337   4.805
 4621TIP3   OH213826   2.389   3.613   2.555
 4621TIP3    H113827   2.467   3.558   2.557
 4621TIP3    H213828   2.351   3.599   2.469
 4622TIP3   OH213829   5.974   0.317   1.589
 4622TIP3    H113830   5.928   0.281   1.513
 4622TIP3    H213831   5.905   0.335   1.653
 4623TIP3   OH213832   3.471   2.033   3.662
 4623TIP3    H113833   3.409   1.972   3.703
 4623TIP3    H213834   3.461   2.017   3.568
 4624TIP3   OH213835   2.012   1.679   4.259
 4624TIP3    H113836   1.990   1.724   4.178
 4624TIP3    H213837   2.005   1.747   4.326
 4625TIP3   OH213838   2.040   5.973   3.062
 4625TIP3    H113839   2.002   6.032   3.128
 4625TIP3    H213840   1.982   5.983   2.986
 4626TIP3   OH213841   3.062   0.575   2.634
 4626TIP3    H113842   3.134   0.516   2.609
 4626TIP3    H213843   3.104   0.660   2.644
 4627TIP3   OH213844   6.085   6.466   2.493
 4627TIP3    H113845   6.140   6.500   2.423
 4627TIP3    H213846   6.049   6.544   2.535
 4628TIP3   OH213847   3.799   0.160   1.131
 4628TIP3    H113848   3.805   0.227   1.063
 4628TIP3    H213849   3.707   0.159   1.156
 4629TIP3   OH213850   6.653   4.283   3.671
 4629TIP3    H113851   6.703   4.201   3.677
 4629TIP3    H213852   6.698   4.333   3.603
 4630TIP3   OH213853   5.865   4.030   0.275
 4630TIP3    H113854   5.856   4.108   0.331
 4630TIP3    H213855   5.858   4.064   0.186
 4631TIP3   OH213856   0.172   1.359   2.870
 4631TIP3    H113857   0.232   1.308   2.815
 4631TIP3    H213858   0.172   1.446   2.831
 4632TIP3   OH213859   2.038   4.246   0.807
 4632TIP3    H113860   2.108   4.309   0.786
 4632TIP3    H213861   1.969   4.300   0.845
 4633TIP3   OH213862   0.681   6.101   3.772
 4633TIP3    H113863   0.649   6.046   3.701
 4633TIP3    H213864   0.628   6.075   3.848
 4634TIP3   OH213865   4.907   6.128   0.311
 4634TIP3    H113866   4.833   6.177   0.275
 4634TIP3    H213867   4.972   6.195   0.331
 4635TIP3   OH213868   4.841   1.538   3.902
 4635TIP3    H113869   4.842   1.488   3.984
 4635TIP3    H213870   4.925   1.517   3.861
 4636TIP3   OH213871   4.282   5.170   5.710
 4636TIP3    H113872   4.231   5.090   5.726
 4636TIP3    H213873   4.244   5.208   5.631
 4637TIP3   OH213874   2.768   6.121   4.713
 4637TIP3    H113875   2.677   6.095   4.700
 4637TIP3    H213876   2.763   6.209   4.751
 4638TIP3   OH213877   6.629   0.818   2.248
 4638TIP3    H113878   6.698   0.829   2.182
 4638TIP3    H213879   6.666   0.755   2.310
 4639TIP3   OH213880   6.278   4.448   5.071
 4639TIP3    H113881   6.317   4.365   5.099
 4639TIP3    H213882   6.352   4.507   5.061
 4640TIP3   OH213883   2.491   6.560   4.768
 4640TIP3    H113884   2.488   6.545   4.673
 4640TIP3    H213885   2.428   6.498   4.804
 4641TIP3   OH213886   3.834   3.396   3.388
 4641TIP3    H113887   3.742   3.377   3.369
 4641TIP3    H213888   3.843   3.376   3.482
 4642TIP3   OH213889   4.038   2.755   2.176
 4642TIP3    H113890   4.128   2.731   2.198
 4642TIP3    H213891   4.044   2.793   2.089
 4643TIP3   OH213892   5.467   5.959   4.716
 4643TIP3    H113893   5.377   5.991   4.724
 4643TIP3    H213894   5.506   5.975   4.802
 4644TIP3   OH213895   3.708   1.877   2.172
 4644TIP3    H113896   3.790   1.851   2.132
 4644TIP3    H213897   3.729   1.956   2.222
 4645TIP3   OH213898   2.695   5.366   0.571
 4645TIP3    H113899   2.610   5.400   0.544
 4645TIP3    H213900   2.688   5.355   0.666
 4646TIP3   OH213901   6.732   2.687   5.584
 4646TIP3    H113902   6.766   2.655   5.500
 4646TIP3    H213903   6.667   2.622   5.610
 4647TIP3   OH213904   0.864   0.103   1.983
 4647TIP3    H113905   0.859   0.032   2.047
 4647TIP3    H213906   0.946   0.087   1.937
 4648TIP3   OH213907   0.004   1.640   0.738
 4648TIP3    H113908   0.043   1.639   0.651
 4648TIP3    H213909   0.073   1.608   0.796
 4649TIP3   OH213910   3.296   0.443   2.513
 4649TIP3    H113911   3.273   0.419   2.423
 4649TIP3    H213912   3.375   0.392   2.532
 4650TIP3   OH213913   3.262   4.633   4.893
 4650TIP3    H113914   3.214   4.584   4.960
 4650TIP3    H213915   3.267   4.573   4.819
 4651TIP3   OH213916   4.888   2.084   2.926
 4651TIP3    H113917   4.941   2.006   2.944
 4651TIP3    H213918   4.821   2.053   2.865
 4652TIP3   OH213919   4.505   6.077   5.422
 4652TIP3    H113920   4.507   5.982   5.439
 4652TIP3    H213921   4.554   6.115   5.496
 4653TIP3   OH213922   0.441   4.446   2.334
 4653TIP3    H113923   0.406   4.498   2.406
 4653TIP3    H213924   0.377   4.455   2.264
 4654TIP3   OH213925   0.298   5.177   0.509
 4654TIP3    H113926   0.335   5.263   0.531
 4654TIP3    H213927   0.337   5.117   0.573
 4655TIP3   OH213928   5.086   3.424   3.018
 4655TIP3    H113929   5.012   3.397   2.964
 4655TIP3    H213930   5.051   3.493   3.074
 4656TIP3   OH213931   6.796   5.500   0.319
 4656TIP3    H113932   6.754   5.586   0.316
 4656TIP3    H213933   6.888   5.518   0.296
 4657TIP3   OH213934   3.898   2.440   3.855
 4657TIP3    H113935   3.880   2.459   3.763
 4657TIP3    H213936   3.957   2.510   3.883
 4658TIP3   OH213937   6.895   2.876   5.324
 4658TIP3    H113938   6.922   2.784   5.327
 4658TIP3    H213939   6.974   2.925   5.347
 4659TIP3   OH213940   3.804   4.426   3.606
 4659TIP3    H113941   3.892   4.462   3.618
 4659TIP3    H213942   3.807   4.383   3.520
 4660TIP3   OH213943   5.260   4.161   2.390
 4660TIP3    H113944   5.245   4.253   2.409
 4660TIP3    H213945   5.180   4.133   2.345
 4661TIP3   OH213946   5.975   1.259   2.522
 4661TIP3    H113947   6.066   1.243   2.549
 4661TIP3    H213948   5.977   1.347   2.484
 4662TIP3   OH213949   4.086   0.936   0.712
 4662TIP3    H113950   4.155   0.872   0.732
 4662TIP3    H213951   4.008   0.901   0.755
 4663TIP3   OH213952   6.346   0.614   1.059
 4663TIP3    H113953   6.396   0.629   0.979
 4663TIP3    H213954   6.259   0.589   1.028
 4664TIP3   OH213955   4.666   3.621   2.040
 4664TIP3    H113956   4.641   3.627   2.132
 4664TIP3    H213957   4.642   3.707   2.004
 4665TIP3   OH213958   7.004   4.812   4.848
 4665TIP3    H113959   7.062   4.805   4.924
 4665TIP3    H213960   7.041   4.883   4.796
 4666TIP3   OH213961   6.745   0.597   2.412
 4666TIP3    H113962   6.838   0.609   2.397
 4666TIP3    H213963   6.727   0.507   2.384
 4667TIP3   OH213964   2.870   4.332   5.275
 4667TIP3    H113965   2.907   4.359   5.191
 4667TIP3    H213966   2.868   4.412   5.328
 4668TIP3   OH213967   1.751   5.973   1.331
 4668TIP3    H113968   1.814   6.044   1.339
 4668TIP3    H213969   1.682   5.995   1.394
 4669TIP3   OH213970   5.283   1.429   1.377
 4669TIP3    H113971   5.328   1.357   1.333
 4669TIP3    H213972   5.320   1.508   1.338
 4670TIP3   OH213973   4.647   1.183   0.637
 4670TIP3    H113974   4.736   1.163   0.609
 4670TIP3    H213975   4.594   1.110   0.605
 4671TIP3   OH213976   6.544   4.579  -0.023
 4671TIP3    H113977   6.559   4.605  -0.114
 4671TIP3    H213978   6.584   4.492  -0.016
 4672TIP3   OH213979   6.882   1.842   4.243
 4672TIP3    H113980   6.842   1.805   4.322
 4672TIP3    H213981   6.935   1.770   4.208
 4673TIP3   OH213982   2.541   1.403   1.609
 4673TIP3    H113983   2.498   1.320   1.627
 4673TIP3    H213984   2.473   1.457   1.569
 4674TIP3   OH213985   6.403   2.064   0.716
 4674TIP3    H113986   6.341   2.032   0.651
 4674TIP3    H213987   6.488   2.055   0.675
 4675TIP3   OH213988   1.290   2.378   2.189
 4675TIP3    H113989   1.307   2.307   2.128
 4675TIP3    H213990   1.289   2.336   2.275
 4676TIP3   OH213991   1.353   5.948   1.680
 4676TIP3    H113992   1.375   5.858   1.700
 4676TIP3    H213993   1.369   5.996   1.761
 4677TIP3   OH213994   5.923   2.703   1.237
 4677TIP3    H113995   5.909   2.663   1.322
 4677TIP3    H213996   6.007   2.750   1.245
 4678TIP3   OH213997   7.103   4.570   4.606
 4678TIP3    H113998   7.157   4.596   4.681
 4678TIP3    H213999   7.158   4.588   4.530
 4679TIP3   OH214000   1.199   1.283   1.704
 4679TIP3    H114001   1.212   1.352   1.769
 4679TIP3    H214002   1.140   1.322   1.639
 4680TIP3   OH214003   5.090   6.569   1.967
 4680TIP3    H114004   5.127   6.530   2.046
 4680TIP3    H214005   5.048   6.496   1.922
 4681TIP3   OH214006   1.754   6.140   0.327
 4681TIP3    H114007   1.666   6.119   0.295
 4681TIP3    H214008   1.804   6.159   0.248
 4682TIP3   OH214009   0.466   2.382   2.273
 4682TIP3    H114010   0.415   2.416   2.346
 4682TIP3    H214011   0.408   2.389   2.197
 4683TIP3   OH214012   4.310   4.290   4.675
 4683TIP3    H114013   4.341   4.315   4.588
 4683TIP3    H214014   4.229   4.339   4.686
 4684TIP3   OH214015   6.346   6.245   1.721
 4684TIP3    H114016   6.430   6.252   1.767
 4684TIP3    H214017   6.365   6.273   1.632
 4685TIP3   OH214018   1.335   6.253   4.004
 4685TIP3    H114019   1.311   6.270   4.095
 4685TIP3    H214020   1.387   6.329   3.978
 4686TIP3   OH214021   0.868   5.893   2.964
 4686TIP3    H114022   0.862   5.972   2.910
 4686TIP3    H214023   0.886   5.822   2.902
 4687TIP3   OH214024   7.044   6.030   1.596
 4687TIP3    H114025   7.132   6.004   1.622
 4687TIP3    H214026   7.026   5.981   1.516
 4688TIP3   OH214027   3.233   3.357   5.188
 4688TIP3    H114028   3.294   3.289   5.217
 4688TIP3    H214029   3.202   3.325   5.103
 4689TIP3   OH214030   2.739   4.577   0.810
 4689TIP3    H114031   2.743   4.572   0.906
 4689TIP3    H214032   2.797   4.508   0.780
 4690TIP3   OH214033   3.970   2.995   1.160
 4690TIP3    H114034   3.960   3.048   1.081
 4690TIP3    H214035   3.883   2.996   1.200
 4691TIP3   OH214036   2.247   4.231   3.176
 4691TIP3    H114037   2.170   4.266   3.130
 4691TIP3    H214038   2.234   4.136   3.176
 4692TIP3   OH214039   3.745   5.157   1.066
 4692TIP3    H114040   3.659   5.166   1.025
 4692TIP3    H214041   3.798   5.110   1.001
 4693TIP3   OH214042   0.808   6.444   2.427
 4693TIP3    H114043   0.802   6.366   2.372
 4693TIP3    H214044   0.897   6.476   2.414
 4694TIP3   OH214045   6.599   4.461   5.107
 4694TIP3    H114046   6.593   4.421   5.020
 4694TIP3    H214047   6.649   4.541   5.093
 4695TIP3   OH214048   1.537   3.629   3.372
 4695TIP3    H114049   1.527   3.642   3.278
 4695TIP3    H214050   1.632   3.620   3.385
 4696TIP3   OH214051   5.694   2.814   1.504
 4696TIP3    H114052   5.761   2.745   1.509
 4696TIP3    H214053   5.681   2.840   1.595
 4697TIP3   OH214054   3.569   5.556   3.942
 4697TIP3    H114055   3.621   5.509   3.876
 4697TIP3    H214056   3.612   5.641   3.951
 4698TIP3   OH214057   2.250   6.232   5.526
 4698TIP3    H114058   2.156   6.215   5.519
 4698TIP3    H214059   2.288   6.193   5.448
 4699TIP3   OH214060   1.222   0.347   2.444
 4699TIP3    H114061   1.131   0.364   2.469
 4699TIP3    H214062   1.215   0.293   2.365
 4700TIP3   OH214063   4.854   2.322   0.953
 4700TIP3    H114064   4.898   2.397   0.992
 4700TIP3    H214065   4.770   2.356   0.922
 4701TIP3   OH214066   1.734   5.529   1.854
 4701TIP3    H114067   1.790   5.458   1.823
 4701TIP3    H214068   1.790   5.606   1.851
 4702TIP3   OH214069   3.425   0.307   1.026
 4702TIP3    H114070   3.411   0.396   0.993
 4702TIP3    H214071   3.489   0.318   1.096
 4703TIP3   OH214072   5.715   1.244   2.421
 4703TIP3    H114073   5.749   1.168   2.467
 4703TIP3    H214074   5.786   1.308   2.424
 4704TIP3   OH214075   1.482   2.402   0.924
 4704TIP3    H114076   1.435   2.327   0.959
 4704TIP3    H214077   1.436   2.424   0.843
 4705TIP3   OH214078   6.331  -0.070   2.530
 4705TIP3    H114079   6.422  -0.093   2.546
 4705TIP3    H214080   6.325   0.023   2.551
 4706TIP3   OH214081   3.777   3.866   3.885
 4706TIP3    H114082   3.841   3.871   3.814
 4706TIP3    H214083   3.693   3.855   3.841
 4707TIP3   OH214084   5.428   0.476   2.394
 4707TIP3    H114085   5.451   0.565   2.422
 4707TIP3    H214086   5.396   0.434   2.474
 4708TIP3   OH214087   4.784   2.981   0.249
 4708TIP3    H114088   4.782   2.898   0.297
 4708TIP3    H214089   4.845   2.966   0.177
 4709TIP3   OH214090   5.199   5.663   2.556
 4709TIP3    H114091   5.123   5.718   2.577
 4709TIP3    H214092   5.186   5.584   2.608
 4710TIP3   OH214093   0.752   4.328   1.561
 4710TIP3    H114094   0.737   4.271   1.486
 4710TIP3    H214095   0.761   4.268   1.635
 4711TIP3   OH214096   4.398   3.485   1.919
 4711TIP3    H114097   4.448   3.539   1.980
 4711TIP3    H214098   4.311   3.477   1.958
 4712TIP3   OH214099   2.292   5.329   4.038
 4712TIP3    H114100   2.354   5.316   4.111
 4712TIP3    H214101   2.317   5.414   4.001
 4713TIP3   OH214102   6.246   6.651   4.028
 4713TIP3    H114103   6.247   6.560   4.055
 4713TIP3    H214104   6.182   6.654   3.957
 4714TIP3   OH214105   1.484   4.189   4.502
 4714TIP3    H114106   1.530   4.132   4.564
 4714TIP3    H214107   1.530   4.273   4.508
 4715TIP3   OH214108   7.079   3.547   1.483
 4715TIP3    H114109   7.103   3.556   1.391
 4715TIP3    H214110   7.156   3.507   1.524
 4716TIP3   OH214111   4.812   5.764   3.056
 4716TIP3    H114112   4.796   5.856   3.033
 4716TIP3    H214113   4.905   5.762   3.082
 4717TIP3   OH214114   5.684   6.453   2.424
 4717TIP3    H114115   5.724   6.368   2.439
 4717TIP3    H214116   5.703   6.503   2.503
 4718TIP3   OH214117   5.122   5.309   5.814
 4718TIP3    H114118   5.121   5.218   5.845
 4718TIP3    H214119   5.085   5.359   5.886
 4719TIP3   OH214120   6.506   4.083   1.437
 4719TIP3    H114121   6.466   4.003   1.470
 4719TIP3    H214122   6.600   4.069   1.448
 4720TIP3   OH214123   6.730   4.724   1.232
 4720TIP3    H114124   6.815   4.709   1.273
 4720TIP3    H214125   6.668   4.676   1.288
 4721TIP3   OH214126   1.408   3.707   4.219
 4721TIP3    H114127   1.499   3.694   4.192
 4721TIP3    H214128   1.399   3.802   4.227
 4722TIP3   OH214129   2.704   1.963   0.578
 4722TIP3    H114130   2.745   2.038   0.536
 4722TIP3    H214131   2.644   1.928   0.511
 4723TIP3   OH214132   3.857   0.154   2.133
 4723TIP3    H114133   3.933   0.117   2.087
 4723TIP3    H214134   3.866   0.122   2.223
 4724TIP3   OH214135   3.172   1.474   3.764
 4724TIP3    H114136   3.249   1.471   3.707
 4724TIP3    H214137   3.206   1.458   3.852
 4725TIP3   OH214138   5.606   4.268   3.309
 4725TIP3    H114139   5.568   4.344   3.266
 4725TIP3    H214140   5.532   4.225   3.353
 4726TIP3   OH214141   7.160   2.044   2.482
 4726TIP3    H114142   7.124   2.103   2.547
 4726TIP3    H214143   7.208   2.102   2.421
 4727TIP3   OH214144   0.782   4.175   1.806
 4727TIP3    H114145   0.854   4.207   1.862
 4727TIP3    H214146   0.713   4.152   1.868
 4728TIP3   OH214147   2.204   6.579   0.969
 4728TIP3    H114148   2.118   6.558   1.004
 4728TIP3    H214149   2.217   6.518   0.897
 4729TIP3   OH214150   4.506   0.585   2.416
 4729TIP3    H114151   4.438   0.562   2.351
 4729TIP3    H214152   4.458   0.632   2.484
 4730TIP3   OH214153   5.604   0.617   3.672
 4730TIP3    H114154   5.695   0.642   3.662
 4730TIP3    H214155   5.555   0.699   3.667
 4731TIP3   OH214156   4.291   6.324   3.267
 4731TIP3    H114157   4.285   6.355   3.177
 4731TIP3    H214158   4.371   6.365   3.301
 4732TIP3   OH214159   5.032   0.302   3.942
 4732TIP3    H114160   5.015   0.264   4.028
 4732TIP3    H214161   5.108   0.359   3.955
 4733TIP3   OH214162   4.218   0.697   1.767
 4733TIP3    H114163   4.269   0.691   1.687
 4733TIP3    H214164   4.279   0.671   1.837
 4734TIP3   OH214165   1.844   6.525   3.493
 4734TIP3    H114166   1.892   6.444   3.508
 4734TIP3    H214167   1.812   6.551   3.580
 4735TIP3   OH214168   2.271   5.557   1.434
 4735TIP3    H114169   2.321   5.599   1.504
 4735TIP3    H214170   2.312   5.588   1.353
 4736TIP3   OH214171   6.498   1.242   3.056
 4736TIP3    H114172   6.460   1.225   3.142
 4736TIP3    H214173   6.540   1.327   3.064
 4737TIP3   OH214174   6.295   5.498   3.469
 4737TIP3    H114175   6.200   5.508   3.476
 4737TIP3    H214176   6.307   5.411   3.432
 4738TIP3   OH214177   1.701   0.030   3.519
 4738TIP3    H114178   1.735   0.087   3.588
 4738TIP3    H214179   1.606   0.034   3.530
 4739TIP3   OH214180   2.174   1.435   4.793
 4739TIP3    H114181   2.099   1.375   4.793
 4739TIP3    H214182   2.230   1.403   4.864
 4740TIP3   OH214183   2.620   1.995   2.663
 4740TIP3    H114184   2.601   2.031   2.750
 4740TIP3    H214185   2.566   2.048   2.604
 4741TIP3   OH214186   5.956   2.306   1.164
 4741TIP3    H114187   5.978   2.240   1.229
 4741TIP3    H214188   5.951   2.258   1.081
 4742TIP3   OH214189   4.528   5.601   3.493
 4742TIP3    H114190   4.600   5.540   3.511
 4742TIP3    H214191   4.485   5.613   3.577
 4743TIP3   OH214192   4.404   2.681   1.223
 4743TIP3    H114193   4.387   2.769   1.187
 4743TIP3    H214194   4.318   2.643   1.236
 4744TIP3   OH214195   3.565   0.907   3.844
 4744TIP3    H114196   3.480   0.918   3.886
 4744TIP3    H214197   3.584   0.813   3.852
 4745TIP3   OH214198   2.501   4.126   3.072
 4745TIP3    H114199   2.430   4.157   3.128
 4745TIP3    H214200   2.519   4.037   3.104
 4746TIP3   OH214201   7.064   3.195   1.580
 4746TIP3    H114202   6.978   3.168   1.546
 4746TIP3    H214203   7.127   3.155   1.521
 4747TIP3   OH214204   4.839   0.247   1.128
 4747TIP3    H114205   4.778   0.277   1.196
 4747TIP3    H214206   4.912   0.209   1.176
 4748TIP3   OH214207   4.276   5.309   5.316
 4748TIP3    H114208   4.207   5.252   5.351
 4748TIP3    H214209   4.261   5.394   5.358
 4749TIP3   OH214210   4.748   1.219   5.171
 4749TIP3    H114211   4.784   1.168   5.099
 4749TIP3    H214212   4.794   1.188   5.249
 4750TIP3   OH214213   4.082   5.046   0.654
 4750TIP3    H114214   4.176   5.032   0.643
 4750TIP3    H214215   4.069   5.137   0.630
 4751TIP3   OH214216   2.025   5.379   0.171
 4751TIP3    H114217   2.032   5.285   0.183
 4751TIP3    H214218   2.080   5.417   0.240
 4752TIP3   OH214219   2.355   3.130   2.626
 4752TIP3    H114220   2.327   3.215   2.659
 4752TIP3    H214221   2.300   3.067   2.673
 4753TIP3   OH214222   5.847   4.740   0.105
 4753TIP3    H114223   5.924   4.722   0.158
 4753TIP3    H214224   5.841   4.836   0.102
 4754TIP3   OH214225   1.119   0.306   4.326
 4754TIP3    H114226   1.188   0.241   4.339
 4754TIP3    H214227   1.157   0.389   4.356
 4755TIP3   OH214228   4.616   3.580   3.682
 4755TIP3    H114229   4.537   3.528   3.670
 4755TIP3    H214230   4.594   3.641   3.753
 4756TIP3   OH214231   0.981   2.433   0.924
 4756TIP3    H114232   0.951   2.428   1.015
 4756TIP3    H214233   0.976   2.343   0.892
 4757TIP3   OH214234   1.456   0.706   3.135
 4757TIP3    H114235   1.496   0.774   3.081
 4757TIP3    H214236   1.437   0.750   3.218
 4758TIP3   OH214237   6.798   3.637   4.737
 4758TIP3    H114238   6.880   3.621   4.690
 4758TIP3    H214239   6.754   3.704   4.685
 4759TIP3   OH214240   6.813   6.203   3.057
 4759TIP3    H114241   6.838   6.224   2.967
 4759TIP3    H214242   6.718   6.202   3.056
 4760TIP3   OH214243   3.326   2.396   5.324
 4760TIP3    H114244   3.416   2.426   5.315
 4760TIP3    H214245   3.277   2.451   5.263
 4761TIP3   OH214246   3.286   4.584   0.004
 4761TIP3    H114247   3.270   4.498   0.041
 4761TIP3    H214248   3.245   4.645   0.065
 4762TIP3   OH214249   1.372   6.687   1.063
 4762TIP3    H114250   1.377   6.782   1.056
 4762TIP3    H214251   1.449   6.662   1.114
 4763TIP3   OH214252   6.595   5.509   3.170
 4763TIP3    H114253   6.688   5.528   3.157
 4763TIP3    H214254   6.550   5.591   3.147
 4764TIP3   OH214255   1.827   4.684   4.426
 4764TIP3    H114256   1.878   4.764   4.438
 4764TIP3    H214257   1.893   4.614   4.425
 4765TIP3   OH214258   5.811   6.515   0.813
 4765TIP3    H114259   5.793   6.546   0.901
 4765TIP3    H214260   5.860   6.586   0.772
 4766TIP3   OH214261   5.863   2.565   1.473
 4766TIP3    H114262   5.854   2.553   1.567
 4766TIP3    H214263   5.842   2.480   1.435
 4767TIP3   OH214264   1.302   1.496   1.162
 4767TIP3    H114265   1.333   1.431   1.224
 4767TIP3    H214266   1.285   1.574   1.216
 4768TIP3   OH214267   5.081   6.579   4.545
 4768TIP3    H114268   5.111   6.610   4.630
 4768TIP3    H214269   5.154   6.598   4.486
 4769TIP3   OH214270   3.789   0.193   5.786
 4769TIP3    H114271   3.796   0.273   5.734
 4769TIP3    H214272   3.731   0.136   5.735
 4770TIP3   OH214273   2.177   3.996   4.250
 4770TIP3    H114274   2.184   3.912   4.295
 4770TIP3    H214275   2.267   4.029   4.245
 4771TIP3   OH214276   2.682   1.653   5.158
 4771TIP3    H114277   2.754   1.593   5.177
 4771TIP3    H214278   2.704   1.691   5.073
 4772TIP3   OH214279   2.700   5.257   3.856
 4772TIP3    H114280   2.666   5.258   3.766
 4772TIP3    H214281   2.784   5.211   3.849
 4773TIP3   OH214282   0.401   4.106   0.037
 4773TIP3    H114283   0.434   4.132  -0.049
 4773TIP3    H214284   0.474   4.120   0.097
 4774TIP3   OH214285   1.943   2.174   2.161
 4774TIP3    H114286   1.921   2.255   2.207
 4774TIP3    H214287   2.031   2.189   2.126
 4775TIP3   OH214288   0.063   6.513   4.398
 4775TIP3    H114289   0.023   6.585   4.349
 4775TIP3    H214290   0.043   6.435   4.345
 4776TIP3   OH214291   3.970   0.584   5.246
 4776TIP3    H114292   3.971   0.556   5.154
 4776TIP3    H214293   4.059   0.567   5.277
 4777TIP3   OH214294   0.803   6.017   4.957
 4777TIP3    H114295   0.792   5.996   4.864
 4777TIP3    H214296   0.756   6.099   4.969
 4778TIP3   OH214297   6.927   2.779   4.852
 4778TIP3    H114298   7.003   2.835   4.841
 4778TIP3    H214299   6.855   2.840   4.870
 4779TIP3   OH214300   1.822   0.231   3.658
 4779TIP3    H114301   1.795   0.321   3.678
 4779TIP3    H214302   1.832   0.189   3.743
 4780TIP3   OH214303   2.805   6.570   3.752
 4780TIP3    H114304   2.841   6.614   3.829
 4780TIP3    H214305   2.805   6.477   3.776
 4781TIP3   OH214306   1.291   5.097   1.210
 4781TIP3    H114307   1.228   5.144   1.265
 4781TIP3    H214308   1.335   5.165   1.159
 4782TIP3   OH214309   2.240   1.399   4.011
 4782TIP3    H114310   2.313   1.338   4.003
 4782TIP3    H214311   2.174   1.351   4.061
 4783TIP3   OH214312   0.042   4.111   1.588
 4783TIP3    H114313   0.132   4.119   1.559
 4783TIP3    H214314   0.019   4.020   1.571
 4784TIP3   OH214315   0.040   2.183   2.255
 4784TIP3    H114316   0.058   2.119   2.187
 4784TIP3    H214317   0.082   2.264   2.226
 4785TIP3   OH214318   6.181   0.272   4.302
 4785TIP3    H114319   6.129   0.268   4.383
 4785TIP3    H214320   6.120   0.244   4.233
 4786TIP3   OH214321   0.203   2.333   4.152
 4786TIP3    H114322   0.267   2.368   4.214
 4786TIP3    H214323   0.146   2.406   4.132
 4787TIP3   OH214324   0.637   2.892   1.757
 4787TIP3    H114325   0.610   2.818   1.702
 4787TIP3    H214326   0.720   2.864   1.795
 4788TIP3   OH214327   6.563   1.407   1.134
 4788TIP3    H114328   6.554   1.500   1.153
 4788TIP3    H214329   6.635   1.377   1.191
 4789TIP3   OH214330   5.647   4.560   4.374
 4789TIP3    H114331   5.681   4.516   4.295
 4789TIP3    H214332   5.640   4.652   4.348
 4790TIP3   OH214333   6.019   2.920   2.566
 4790TIP3    H114334   6.114   2.927   2.555
 4790TIP3    H214335   5.986   3.007   2.545
 4791TIP3   OH214336   2.288   1.913   4.135
 4791TIP3    H114337   2.318   1.841   4.079
 4791TIP3    H214338   2.282   1.875   4.222
 4792TIP3   OH214339   0.393   5.805   1.665
 4792TIP3    H114340   0.358   5.720   1.691
 4792TIP3    H214341   0.466   5.820   1.724
 4793TIP3   OH214342   6.720   3.423   0.380
 4793TIP3    H114343   6.751   3.499   0.331
 4793TIP3    H214344   6.764   3.430   0.465
 4794TIP3   OH214345   1.988   4.213   1.759
 4794TIP3    H114346   2.015   4.246   1.673
 4794TIP3    H214347   1.966   4.121   1.744
 4795TIP3   OH214348   6.670   5.696   5.070
 4795TIP3    H114349   6.675   5.697   4.975
 4795TIP3    H214350   6.747   5.645   5.098
 4796TIP3   OH214351   0.462   2.396   0.066
 4796TIP3    H114352   0.420   2.385   0.152
 4796TIP3    H214353   0.556   2.400   0.086
 4797TIP3   OH214354   6.602   3.289   1.324
 4797TIP3    H114355   6.656   3.338   1.261
 4797TIP3    H214356   6.622   3.197   1.307
 4798TIP3   OH214357   6.981   6.516   2.579
 4798TIP3    H114358   6.981   6.463   2.499
 4798TIP3    H214359   6.956   6.455   2.648
 4799TIP3   OH214360   2.199   1.520   2.752
 4799TIP3    H114361   2.187   1.455   2.821
 4799TIP3    H214362   2.293   1.520   2.735
 4800TIP3   OH214363   3.371   1.604   0.245
 4800TIP3    H114364   3.457   1.574   0.273
 4800TIP3    H214365   3.378   1.614   0.150
 4801TIP3   OH214366   1.653   2.566   4.053
 4801TIP3    H114367   1.615   2.550   4.139
 4801TIP3    H214368   1.580   2.556   3.992
 4802TIP3   OH214369   5.005   2.092   4.134
 4802TIP3    H114370   4.920   2.089   4.089
 4802TIP3    H214371   5.037   2.181   4.119
 4803TIP3   OH214372   6.824   1.965   5.124
 4803TIP3    H114373   6.909   2.008   5.131
 4803TIP3    H214374   6.768   2.014   5.184
 4804TIP3   OH214375   5.859   3.370   3.033
 4804TIP3    H114376   5.797   3.440   3.055
 4804TIP3    H214377   5.929   3.379   3.098
 4805TIP3   OH214378   6.624   6.661   5.557
 4805TIP3    H114379   6.560   6.611   5.607
 4805TIP3    H214380   6.708   6.622   5.581
 4806TIP3   OH214381   3.874   5.943   5.599
 4806TIP3    H114382   3.853   5.937   5.692
 4806TIP3    H214383   3.807   6.001   5.563
 4807TIP3   OH214384   3.073   4.804   2.924
 4807TIP3    H114385   3.104   4.721   2.960
 4807TIP3    H214386   3.152   4.858   2.918
 4808TIP3   OH214387   0.502   6.330   5.825
 4808TIP3    H114388   0.490   6.373   5.910
 4808TIP3    H214389   0.580   6.276   5.837
 4809TIP3   OH214390   4.721   2.039   2.689
 4809TIP3    H114391   4.709   1.945   2.679
 4809TIP3    H214392   4.632   2.074   2.698
 4810TIP3   OH214393   3.488   5.918   2.836
 4810TIP3    H114394   3.576   5.908   2.801
 4810TIP3    H214395   3.430   5.911   2.760
 4811TIP3   OH214396   1.893   2.477   4.197
 4811TIP3    H114397   1.869   2.501   4.286
 4811TIP3    H214398   1.812   2.485   4.147
 4812TIP3   OH214399   3.764   3.041   5.763
 4812TIP3    H114400   3.778   2.947   5.762
 4812TIP3    H214401   3.808   3.073   5.684
 4813TIP3   OH214402   6.886   1.962   3.863
 4813TIP3    H114403   6.853   1.981   3.951
 4813TIP3    H214404   6.893   2.048   3.821
 4814TIP3   OH214405   6.554   0.999   0.155
 4814TIP3    H114406   6.509   1.054   0.091
 4814TIP3    H214407   6.526   0.910   0.135
 4815TIP3   OH214408   7.072   2.923   2.862
 4815TIP3    H114409   7.017   2.857   2.819
 4815TIP3    H214410   7.145   2.873   2.897
 4816TIP3   OH214411   1.618   6.721   2.962
 4816TIP3    H114412   1.593   6.781   2.892
 4816TIP3    H214413   1.678   6.659   2.920
 4817TIP3   OH214414   2.870   2.680   0.639
 4817TIP3    H114415   2.890   2.609   0.700
 4817TIP3    H214416   2.940   2.744   0.651
 4818TIP3   OH214417   6.826   3.501   0.616
 4818TIP3    H114418   6.785   3.505   0.702
 4818TIP3    H214419   6.864   3.588   0.603
 4819TIP3   OH214420   1.610   6.249   0.657
 4819TIP3    H114421   1.596   6.207   0.573
 4819TIP3    H214422   1.523   6.255   0.696
 4820TIP3   OH214423   1.933   6.380   2.682
 4820TIP3    H114424   2.012   6.408   2.634
 4820TIP3    H214425   1.960   6.378   2.774
 4821TIP3   OH214426   4.518   1.050   3.380
 4821TIP3    H114427   4.575   1.122   3.409
 4821TIP3    H214428   4.455   1.092   3.321
 4822TIP3   OH214429   0.115   1.300   2.168
 4822TIP3    H114430   0.185   1.360   2.143
 4822TIP3    H214431   0.035   1.353   2.164
 4823TIP3   OH214432   2.127   3.883   1.947
 4823TIP3    H114433   2.062   3.928   2.001
 4823TIP3    H214434   2.091   3.795   1.934
 4824TIP3   OH214435   3.626   0.054   4.639
 4824TIP3    H114436   3.550   0.038   4.583
 4824TIP3    H214437   3.591   0.109   4.710
 4825TIP3   OH214438   3.169   4.097   0.639
 4825TIP3    H114439   3.247   4.044   0.657
 4825TIP3    H214440   3.101   4.033   0.619
 4826TIP3   OH214441   1.223   3.370   4.028
 4826TIP3    H114442   1.311   3.392   4.060
 4826TIP3    H214443   1.172   3.450   4.043
 4827TIP3   OH214444   4.710   4.005   0.506
 4827TIP3    H114445   4.760   3.924   0.504
 4827TIP3    H214446   4.668   4.005   0.592
 4828TIP3   OH214447   4.221   3.355   2.753
 4828TIP3    H114448   4.228   3.443   2.791
 4828TIP3    H214449   4.277   3.301   2.808
 4829TIP3   OH214450   2.606   5.473   1.581
 4829TIP3    H114451   2.584   5.550   1.634
 4829TIP3    H214452   2.575   5.494   1.493
 4830TIP3   OH214453   1.105   1.464   3.517
 4830TIP3    H114454   1.183   1.517   3.505
 4830TIP3    H214455   1.138   1.375   3.530
 4831TIP3   OH214456   2.788   2.990   2.598
 4831TIP3    H114457   2.868   3.036   2.573
 4831TIP3    H214458   2.722   3.021   2.537
 4832TIP3   OH214459   4.794   2.169   1.434
 4832TIP3    H114460   4.778   2.101   1.369
 4832TIP3    H214461   4.766   2.130   1.517
 4833TIP3   OH214462   4.650   0.732   5.793
 4833TIP3    H114463   4.699   0.657   5.760
 4833TIP3    H214464   4.560   0.700   5.803
 4834TIP3   OH214465   0.720   5.147   3.953
 4834TIP3    H114466   0.768   5.227   3.976
 4834TIP3    H214467   0.784   5.077   3.965
 4835TIP3   OH214468   2.993   5.021   2.141
 4835TIP3    H114469   2.945   4.996   2.062
 4835TIP3    H214470   2.925   5.033   2.207
 4836TIP3   OH214471   0.326   3.301   3.520
 4836TIP3    H114472   0.270   3.224   3.530
 4836TIP3    H214473   0.266   3.375   3.523
 4837TIP3   OH214474   6.063   4.863   3.181
 4837TIP3    H114475   6.031   4.924   3.114
 4837TIP3    H214476   5.992   4.858   3.245
 4838TIP3   OH214477   0.746   3.412   2.044
 4838TIP3    H114478   0.729   3.490   2.096
 4838TIP3    H214479   0.817   3.437   1.984
 4839TIP3   OH214480   5.816   6.741   3.765
 4839TIP3    H114481   5.793   6.781   3.848
 4839TIP3    H214482   5.771   6.657   3.765
 4840TIP3   OH214483   1.129   3.798   2.194
 4840TIP3    H114484   1.095   3.839   2.115
 4840TIP3    H214485   1.169   3.869   2.244
 4841TIP3   OH214486   2.442   6.717   0.934
 4841TIP3    H114487   2.500   6.669   0.993
 4841TIP3    H214488   2.354   6.689   0.960
 4842TIP3   OH214489   6.784   5.747   4.554
 4842TIP3    H114490   6.743   5.821   4.510
 4842TIP3    H214491   6.729   5.672   4.531
 4843TIP3   OH214492   1.133   5.368   3.683
 4843TIP3    H114493   1.223   5.400   3.688
 4843TIP3    H214494   1.140   5.283   3.640
 4844TIP3   OH214495   2.917   6.649   4.056
 4844TIP3    H114496   2.965   6.688   4.130
 4844TIP3    H214497   2.892   6.562   4.087
 4845TIP3   OH214498   5.064   0.267   2.759
 4845TIP3    H114499   5.029   0.179   2.776
 4845TIP3    H214500   5.032   0.319   2.833
 4846TIP3   OH214501   0.788   4.563   3.049
 4846TIP3    H114502   0.832   4.600   3.126
 4846TIP3    H214503   0.699   4.543   3.079
 4847TIP3   OH214504   2.574   1.851   1.348
 4847TIP3    H114505   2.492   1.890   1.318
 4847TIP3    H214506   2.572   1.762   1.311
 4848TIP3   OH214507   0.645   5.079   5.696
 4848TIP3    H114508   0.703   5.132   5.642
 4848TIP3    H214509   0.619   5.006   5.639
 4849TIP3   OH214510   6.196   4.979   2.881
 4849TIP3    H114511   6.238   5.019   2.958
 4849TIP3    H214512   6.103   4.976   2.903
 4850TIP3   OH214513   5.090   2.834   2.375
 4850TIP3    H114514   5.091   2.909   2.315
 4850TIP3    H214515   5.161   2.852   2.437
 4851TIP3   OH214516   6.119   2.501   5.307
 4851TIP3    H114517   6.055   2.560   5.266
 4851TIP3    H214518   6.069   2.424   5.331
 4852TIP3   OH214519   6.461   6.062   5.226
 4852TIP3    H114520   6.481   6.049   5.133
 4852TIP3    H214521   6.540   6.103   5.262
 4853TIP3   OH214522   7.042   6.047   4.872
 4853TIP3    H114523   7.028   6.115   4.806
 4853TIP3    H214524   7.081   6.094   4.946
 4854TIP3   OH214525   0.891   3.784   5.706
 4854TIP3    H114526   0.877   3.845   5.779
 4854TIP3    H214527   0.814   3.795   5.651
 4855TIP3   OH214528   2.525   3.722   5.836
 4855TIP3    H114529   2.520   3.815   5.814
 4855TIP3    H214530   2.608   3.693   5.798
 4856TIP3   OH214531   1.379   0.235   5.235
 4856TIP3    H114532   1.285   0.253   5.230
 4856TIP3    H214533   1.398   0.234   5.329
 4857TIP3   OH214534   4.736   4.277   1.263
 4857TIP3    H114535   4.750   4.198   1.315
 4857TIP3    H214536   4.666   4.253   1.202
 4858TIP3   OH214537   5.170   5.206   2.952
 4858TIP3    H114538   5.204   5.295   2.946
 4858TIP3    H214539   5.231   5.162   3.011
 4859TIP3   OH214540   0.667   3.421   1.687
 4859TIP3    H114541   0.685   3.330   1.712
 4859TIP3    H214542   0.730   3.439   1.617
 4860TIP3   OH214543   7.161   5.073   5.406
 4860TIP3    H114544   7.145   5.010   5.476
 4860TIP3    H214545   7.249   5.053   5.375
 4861TIP3   OH214546   3.747   2.800   2.433
 4861TIP3    H114547   3.842   2.797   2.442
 4861TIP3    H214548   3.720   2.874   2.488
 4862TIP3   OH214549   5.189   3.902   1.794
 4862TIP3    H114550   5.130   3.849   1.847
 4862TIP3    H214551   5.261   3.924   1.853
 4863TIP3   OH214552   3.480   6.583   5.805
 4863TIP3    H114553   3.559   6.564   5.754
 4863TIP3    H214554   3.471   6.508   5.864
 4864TIP3   OH214555   6.312   5.806   4.086
 4864TIP3    H114556   6.274   5.785   4.171
 4864TIP3    H214557   6.404   5.782   4.094
 4865TIP3   OH214558   7.044   4.969   2.058
 4865TIP3    H114559   7.124   5.011   2.090
 4865TIP3    H214560   6.984   5.041   2.043
 4866TIP3   OH214561   4.034   3.822   0.646
 4866TIP3    H114562   4.021   3.915   0.629
 4866TIP3    H214563   3.998   3.808   0.734
 4867TIP3   OH214564   3.758   5.052   0.034
 4867TIP3    H114565   3.741   4.965   0.069
 4867TIP3    H214566   3.841   5.042  -0.013
 4868TIP3   OH214567   4.063   3.411   1.175
 4868TIP3    H114568   4.004   3.454   1.237
 4868TIP3    H214569   4.100   3.337   1.224
 4869TIP3   OH214570   4.396   2.752   3.729
 4869TIP3    H114571   4.483   2.717   3.709
 4869TIP3    H214572   4.392   2.755   3.825
 4870TIP3   OH214573   2.784   1.686   4.918
 4870TIP3    H114574   2.796   1.597   4.887
 4870TIP3    H214575   2.840   1.739   4.861
 4871TIP3   OH214576   1.863   2.838   1.874
 4871TIP3    H114577   1.841   2.922   1.915
 4871TIP3    H214578   1.819   2.840   1.789
 4872TIP3   OH214579   6.095   1.364   0.888
 4872TIP3    H114580   6.044   1.436   0.926
 4872TIP3    H214581   6.159   1.342   0.955
 4873TIP3   OH214582   3.943   5.746   3.857
 4873TIP3    H114583   3.991   5.668   3.886
 4873TIP3    H214584   3.883   5.713   3.790
 4874TIP3   OH214585   1.574   4.021   5.452
 4874TIP3    H114586   1.560   3.941   5.503
 4874TIP3    H214587   1.669   4.027   5.442
 4875TIP3   OH214588   0.111   6.593   0.634
 4875TIP3    H114589   0.089   6.500   0.642
 4875TIP3    H214590   0.033   6.639   0.664
 4876TIP3   OH214591   1.495   0.049   0.444
 4876TIP3    H114592   1.403   0.034   0.424
 4876TIP3    H214593   1.507   0.014   0.532
 4877TIP3   OH214594   1.581   0.584   4.206
 4877TIP3    H114595   1.580   0.498   4.249
 4877TIP3    H214596   1.532   0.640   4.266
 4878TIP3   OH214597   5.962   5.410   0.988
 4878TIP3    H114598   5.935   5.329   0.945
 4878TIP3    H214599   5.907   5.415   1.066
 4879TIP3   OH214600   4.218   1.452   5.896
 4879TIP3    H114601   4.163   1.374   5.902
 4879TIP3    H214602   4.301   1.425   5.936
 4880TIP3   OH214603   1.248   6.290   3.440
 4880TIP3    H114604   1.268   6.245   3.357
 4880TIP3    H214605   1.235   6.382   3.414
 4881TIP3   OH214606   1.599   3.310   3.679
 4881TIP3    H114607   1.675   3.252   3.679
 4881TIP3    H214608   1.575   3.318   3.587
 4882TIP3   OH214609   2.970   5.900   3.746
 4882TIP3    H114610   3.012   5.867   3.826
 4882TIP3    H214611   2.986   5.994   3.747
 4883TIP3   OH214612   4.888   4.135   3.301
 4883TIP3    H114613   4.945   4.124   3.377
 4883TIP3    H214614   4.945   4.169   3.232
 4884TIP3   OH214615   1.592   0.798   2.421
 4884TIP3    H114616   1.665   0.781   2.480
 4884TIP3    H214617   1.543   0.716   2.419
 4885TIP3   OH214618   4.497   0.214   5.524
 4885TIP3    H114619   4.576   0.225   5.471
 4885TIP3    H214620   4.529   0.211   5.614
 4886TIP3   OH214621   1.469   2.499   2.000
 4886TIP3    H114622   1.487   2.577   2.052
 4886TIP3    H214623   1.431   2.437   2.063
 4887TIP3   OH214624   5.973   2.763   2.086
 4887TIP3    H114625   5.880   2.756   2.106
 4887TIP3    H214626   5.990   2.858   2.084
 4888TIP3   OH214627   5.490   5.685   2.579
 4888TIP3    H114628   5.564   5.743   2.566
 4888TIP3    H214629   5.527   5.597   2.576
 4889TIP3   OH214630   1.061   5.684   3.164
 4889TIP3    H114631   1.014   5.611   3.204
 4889TIP3    H214632   1.124   5.642   3.105
 4890TIP3   OH214633   5.855   1.067   0.891
 4890TIP3    H114634   5.931   1.119   0.921
 4890TIP3    H214635   5.827   1.019   0.969
 4891TIP3   OH214636   2.752   2.699   5.020
 4891TIP3    H114637   2.829   2.752   4.998
 4891TIP3    H214638   2.678   2.759   5.012
 4892TIP3   OH214639   2.759   6.294   3.277
 4892TIP3    H114640   2.842   6.248   3.279
 4892TIP3    H214641   2.780   6.382   3.245
 4893TIP3   OH214642   2.256   1.678   3.930
 4893TIP3    H114643   2.243   1.591   3.969
 4893TIP3    H214644   2.213   1.673   3.845
 4894TIP3   OH214645   3.938   5.121   1.884
 4894TIP3    H114646   3.914   5.030   1.900
 4894TIP3    H214647   3.869   5.172   1.925
 4895TIP3   OH214648   2.779   1.666   5.821
 4895TIP3    H114649   2.774   1.685   5.914
 4895TIP3    H214650   2.853   1.717   5.789
 4896TIP3   OH214651   3.350   1.442   2.936
 4896TIP3    H114652   3.401   1.387   2.875
 4896TIP3    H214653   3.286   1.382   2.974
 4897TIP3   OH214654   3.918   4.177   1.931
 4897TIP3    H114655   3.933   4.199   1.840
 4897TIP3    H214656   3.993   4.213   1.978
 4898TIP3   OH214657   6.128   0.300   0.616
 4898TIP3    H114658   6.082   0.361   0.558
 4898TIP3    H214659   6.216   0.293   0.579
 4899TIP3   OH214660   2.878   3.628   3.997
 4899TIP3    H114661   2.923   3.595   4.075
 4899TIP3    H214662   2.911   3.717   3.986
 4900TIP3   OH214663   5.051   4.947   4.478
 4900TIP3    H114664   5.006   4.955   4.394
 4900TIP3    H214665   5.038   4.855   4.502
 4901TIP3   OH214666   5.517   5.070   0.358
 4901TIP3    H114667   5.506   5.147   0.414
 4901TIP3    H214668   5.612   5.058   0.353
 4902TIP3   OH214669   6.663   5.375   2.075
 4902TIP3    H114670   6.699   5.375   2.164
 4902TIP3    H214671   6.617   5.292   2.068
 4903TIP3   OH214672   3.514   1.236   4.670
 4903TIP3    H114673   3.566   1.155   4.676
 4903TIP3    H214674   3.570   1.302   4.712
 4904TIP3   OH214675   2.203   4.636   4.911
 4904TIP3    H114676   2.139   4.601   4.849
 4904TIP3    H214677   2.154   4.702   4.961
 4905TIP3   OH214678   2.369   6.527   4.018
 4905TIP3    H114679   2.311   6.496   4.088
 4905TIP3    H214680   2.379   6.452   3.960
 4906TIP3   OH214681   3.127   5.443   5.403
 4906TIP3    H114682   3.176   5.374   5.359
 4906TIP3    H214683   3.103   5.505   5.333
 4907TIP3   OH214684   6.149   5.769   1.798
 4907TIP3    H114685   6.159   5.861   1.821
 4907TIP3    H214686   6.191   5.760   1.713
 4908TIP3   OH214687   6.128   5.777   2.516
 4908TIP3    H114688   6.057   5.723   2.479
 4908TIP3    H214689   6.179   5.716   2.569
 4909TIP3   OH214690   7.056   5.289   1.699
 4909TIP3    H114691   7.040   5.366   1.754
 4909TIP3    H214692   7.116   5.236   1.750
 4910TIP3   OH214693   1.979   6.516   1.158
 4910TIP3    H114694   1.909   6.579   1.140
 4910TIP3    H214695   1.934   6.431   1.155
 4911TIP3   OH214696   0.642   3.122   3.607
 4911TIP3    H114697   0.714   3.180   3.633
 4911TIP3    H214698   0.613   3.081   3.689
 4912TIP3   OH214699   1.055   0.212   2.891
 4912TIP3    H114700   1.022   0.190   2.804
 4912TIP3    H214701   1.100   0.133   2.920
 4913TIP3   OH214702   4.840   1.045   0.455
 4913TIP3    H114703   4.795   0.970   0.416
 4913TIP3    H214704   4.919   1.056   0.402
 4914TIP3   OH214705   2.998   1.800   5.740
 4914TIP3    H114706   3.062   1.789   5.810
 4914TIP3    H214707   2.990   1.894   5.729
 4915TIP3   OH214708   0.031   4.588   1.508
 4915TIP3    H114709  -0.004   4.664   1.553
 4915TIP3    H214710   0.105   4.560   1.562
 4916TIP3   OH214711   5.519   2.725   3.672
 4916TIP3    H114712   5.468   2.649   3.700
 4916TIP3    H214713   5.481   2.750   3.588
 4917TIP3   OH214714   2.627   1.985   4.222
 4917TIP3    H114715   2.613   2.057   4.284
 4917TIP3    H214716   2.578   1.912   4.260
 4918TIP3   OH214717   5.475   4.920   1.142
 4918TIP3    H114718   5.514   4.960   1.065
 4918TIP3    H214719   5.456   4.994   1.200
 4919TIP3   OH214720   1.691   3.166   1.763
 4919TIP3    H114721   1.659   3.229   1.828
 4919TIP3    H214722   1.697   3.217   1.682
 4920TIP3   OH214723   2.866   4.071   4.065
 4920TIP3    H114724   2.876   3.985   4.026
 4920TIP3    H214725   2.922   4.070   4.142
 4921TIP3   OH214726   0.222   1.303   0.722
 4921TIP3    H114727   0.192   1.286   0.811
 4921TIP3    H214728   0.169   1.244   0.667
 4922TIP3   OH214729   0.212   3.538   5.362
 4922TIP3    H114730   0.150   3.466   5.366
 4922TIP3    H214731   0.188   3.586   5.283
 4923TIP3   OH214732   1.947   2.050   0.543
 4923TIP3    H114733   1.945   1.957   0.518
 4923TIP3    H214734   1.994   2.051   0.626
 4924TIP3   OH214735   1.755   1.756   5.637
 4924TIP3    H114736   1.805   1.719   5.564
 4924TIP3    H214737   1.810   1.827   5.670
 4925TIP3   OH214738   2.498   6.653   0.380
 4925TIP3    H114739   2.455   6.653   0.295
 4925TIP3    H214740   2.491   6.562   0.410
 4926TIP3   OH214741   3.288   5.523   0.558
 4926TIP3    H114742   3.360   5.488   0.611
 4926TIP3    H214743   3.323   5.523   0.469
 4927TIP3   OH214744   6.172   0.860   1.525
 4927TIP3    H114745   6.144   0.795   1.589
 4927TIP3    H214746   6.140   0.827   1.441
 4928TIP3   OH214747   0.737   6.672   2.986
 4928TIP3    H114748   0.699   6.638   2.905
 4928TIP3    H214749   0.684   6.749   3.007
 4929TIP3   OH214750   1.469   3.957   0.840
 4929TIP3    H114751   1.527   3.935   0.913
 4929TIP3    H214752   1.425   3.875   0.818
 4930TIP3   OH214753   6.880   0.573   4.688
 4930TIP3    H114754   6.898   0.479   4.687
 4930TIP3    H214755   6.795   0.581   4.732
 4931TIP3   OH214756   6.583   3.102   2.693
 4931TIP3    H114757   6.651   3.080   2.757
 4931TIP3    H214758   6.595   3.195   2.676
 4932TIP3   OH214759   0.569   4.459   3.161
 4932TIP3    H114760   0.595   4.367   3.152
 4932TIP3    H214761   0.511   4.459   3.237
 4933TIP3   OH214762   4.291   0.143   5.355
 4933TIP3    H114763   4.364   0.168   5.411
 4933TIP3    H214764   4.252   0.068   5.400
 4934TIP3   OH214765   1.232   2.440   3.656
 4934TIP3    H114766   1.249   2.354   3.619
 4934TIP3    H214767   1.159   2.427   3.716
 4935TIP3   OH214768   4.495   0.582   4.054
 4935TIP3    H114769   4.428   0.641   4.019
 4935TIP3    H214770   4.449   0.499   4.068
 4936TIP3   OH214771   3.114   6.210   3.083
 4936TIP3    H114772   3.199   6.166   3.087
 4936TIP3    H214773   3.059   6.151   3.031
 4937TIP3   OH214774   2.814   4.770   2.894
 4937TIP3    H114775   2.765   4.797   2.972
 4937TIP3    H214776   2.901   4.809   2.906
 4938TIP3   OH214777   0.972   0.833   2.110
 4938TIP3    H114778   0.916   0.845   2.033
 4938TIP3    H214779   0.951   0.906   2.167
 4939TIP3   OH214780   2.440   4.742   0.603
 4939TIP3    H114781   2.346   4.753   0.611
 4939TIP3    H214782   2.451   4.663   0.551
 4940TIP3   OH214783   3.583   5.474   1.998
 4940TIP3    H114784   3.512   5.507   1.942
 4940TIP3    H214785   3.576   5.526   2.078
 4941TIP3   OH214786   1.460   3.354   3.431
 4941TIP3    H114787   1.476   3.435   3.381
 4941TIP3    H214788   1.406   3.382   3.505
 4942TIP3   OH214789   4.072   1.546   5.372
 4942TIP3    H114790   3.978   1.538   5.391
 4942TIP3    H214791   4.095   1.464   5.328
 4943TIP3   OH214792   5.858   2.303   5.664
 4943TIP3    H114793   5.770   2.291   5.628
 4943TIP3    H214794   5.915   2.300   5.587
 4944TIP3   OH214795   4.473   0.057   5.107
 4944TIP3    H114796   4.559   0.039   5.146
 4944TIP3    H214797   4.411   0.007   5.160
 4945TIP3   OH214798   3.550   2.294   3.799
 4945TIP3    H114799   3.534   2.203   3.774
 4945TIP3    H214800   3.496   2.307   3.877
 4946TIP3   OH214801   0.330   0.686   4.517
 4946TIP3    H114802   0.377   0.656   4.596
 4946TIP3    H214803   0.317   0.607   4.465
 4947TIP3   OH214804   4.975   2.474   3.836
 4947TIP3    H114805   5.019   2.533   3.775
 4947TIP3    H214806   4.912   2.426   3.781
 4948TIP3   OH214807   2.008   1.838   1.842
 4948TIP3    H114808   2.008   1.933   1.842
 4948TIP3    H214809   2.072   1.814   1.774
 4949TIP3   OH214810   6.459   3.108   3.040
 4949TIP3    H114811   6.480   3.034   2.984
 4949TIP3    H214812   6.489   3.185   2.992
 4950TIP3   OH214813   2.609   0.692   2.732
 4950TIP3    H114814   2.516   0.709   2.715
 4950TIP3    H214815   2.655   0.750   2.672
 4951TIP3   OH214816   5.941   5.144   0.947
 4951TIP3    H114817   5.901   5.084   0.884
 4951TIP3    H214818   6.033   5.118   0.951
 4952TIP3   OH214819   4.114   0.138   0.143
 4952TIP3    H114820   4.090   0.102   0.228
 4952TIP3    H214821   4.086   0.229   0.146
 4953TIP3   OH214822   0.611   1.383   1.787
 4953TIP3    H114823   0.698   1.350   1.810
 4953TIP3    H214824   0.558   1.304   1.775
 4954TIP3   OH214825   6.376   1.788   1.869
 4954TIP3    H114826   6.379   1.741   1.786
 4954TIP3    H214827   6.388   1.880   1.846
 4955TIP3   OH214828   0.806   3.901   3.588
 4955TIP3    H114829   0.870   3.948   3.643
 4955TIP3    H214830   0.778   3.827   3.642
 4956TIP3   OH214831   2.965   3.012   2.279
 4956TIP3    H114832   3.032   2.973   2.222
 4956TIP3    H214833   3.003   3.010   2.366
 4957TIP3   OH214834   1.916   1.537   0.631
 4957TIP3    H114835   1.945   1.614   0.679
 4957TIP3    H214836   1.984   1.521   0.566
 4958TIP3   OH214837   3.151   3.294   5.564
 4958TIP3    H114838   3.100   3.317   5.641
 4958TIP3    H214839   3.242   3.296   5.594
 4959TIP3   OH214840   3.741   0.631   5.363
 4959TIP3    H114841   3.707   0.548   5.396
 4959TIP3    H214842   3.828   0.611   5.329
 4960TIP3   OH214843   2.273   5.460   2.944
 4960TIP3    H114844   2.328   5.538   2.940
 4960TIP3    H214845   2.334   5.387   2.945
 4961TIP3   OH214846   2.565   4.465   4.080
 4961TIP3    H114847   2.608   4.462   4.166
 4961TIP3    H214848   2.532   4.554   4.073
 4962TIP3   OH214849   5.278   0.345   2.581
 4962TIP3    H114850   5.289   0.256   2.550
 4962TIP3    H214851   5.202   0.341   2.641
 4963TIP3   OH214852   1.947   3.448   5.324
 4963TIP3    H114853   2.032   3.432   5.284
 4963TIP3    H214854   1.907   3.515   5.268
 4964TIP3   OH214855   0.278   5.832   2.731
 4964TIP3    H114856   0.209   5.766   2.741
 4964TIP3    H214857   0.336   5.797   2.664
 4965TIP3   OH214858   2.576   4.998   4.062
 4965TIP3    H114859   2.513   5.031   4.126
 4965TIP3    H214860   2.638   5.069   4.050
 4966TIP3   OH214861   2.446   4.959   1.648
 4966TIP3    H114862   2.502   4.886   1.676
 4966TIP3    H214863   2.357   4.929   1.666
 4967TIP3   OH214864   5.202   0.777   0.979
 4967TIP3    H114865   5.202   0.703   1.039
 4967TIP3    H214866   5.149   0.748   0.905
 4968TIP3   OH214867   3.566   4.977   5.071
 4968TIP3    H114868   3.584   4.979   4.977
 4968TIP3    H214869   3.652   4.968   5.112
 4969TIP3   OH214870   5.153   4.253   1.053
 4969TIP3    H114871   5.167   4.299   0.971
 4969TIP3    H214872   5.058   4.245   1.060
 4970TIP3   OH214873   2.000   4.730   2.888
 4970TIP3    H114874   2.086   4.709   2.852
 4970TIP3    H214875   1.953   4.646   2.888
 4971TIP3   OH214876   1.008   1.547   2.646
 4971TIP3    H114877   1.008   1.454   2.626
 4971TIP3    H214878   0.928   1.562   2.695
 4972TIP3   OH214879   0.813   5.556   0.341
 4972TIP3    H114880   0.906   5.551   0.319
 4972TIP3    H214881   0.811   5.592   0.429
 4973TIP3   OH214882   2.383   0.397   2.429
 4973TIP3    H114883   2.444   0.325   2.413
 4973TIP3    H214884   2.434   0.476   2.413
 4974TIP3   OH214885   6.718   5.234   4.493
 4974TIP3    H114886   6.629   5.200   4.507
 4974TIP3    H214887   6.742   5.204   4.406
 4975TIP3   OH214888   3.126   2.768   4.361
 4975TIP3    H114889   3.167   2.839   4.312
 4975TIP3    H214890   3.057   2.809   4.413
 4976TIP3   OH214891   6.857   0.491   3.187
 4976TIP3    H114892   6.887   0.537   3.108
 4976TIP3    H214893   6.762   0.489   3.178
 4977TIP3   OH214894   5.760   5.561   5.130
 4977TIP3    H114895   5.780   5.542   5.222
 4977TIP3    H214896   5.747   5.656   5.127
 4978TIP3   OH214897   5.798   4.425   5.386
 4978TIP3    H114898   5.869   4.441   5.324
 4978TIP3    H214899   5.754   4.510   5.394
 4979TIP3   OH214900   4.036   0.670   4.347
 4979TIP3    H114901   3.996   0.755   4.363
 4979TIP3    H214902   3.966   0.616   4.311
 4980TIP3   OH214903   2.249   4.222   5.304
 4980TIP3    H114904   2.208   4.214   5.218
 4980TIP3    H214905   2.249   4.133   5.339
 4981TIP3   OH214906   5.082   4.679   1.857
 4981TIP3    H114907   5.032   4.657   1.936
 4981TIP3    H214908   5.091   4.596   1.811
 4982TIP3   OH214909   1.516   5.019   3.294
 4982TIP3    H114910   1.533   4.930   3.325
 4982TIP3    H214911   1.551   5.020   3.204
 4983TIP3   OH214912   3.333   6.783   1.431
 4983TIP3    H114913   3.374   6.735   1.503
 4983TIP3    H214914   3.240   6.783   1.453
 4984TIP3   OH214915   2.655   1.419   0.255
 4984TIP3    H114916   2.628   1.329   0.237
 4984TIP3    H214917   2.574   1.465   0.277
 4985TIP3   OH214918   5.306   4.826   3.340
 4985TIP3    H114919   5.386   4.777   3.360
 4985TIP3    H214920   5.235   4.769   3.370
 4986TIP3   OH214921   3.845   5.608   0.491
 4986TIP3    H114922   3.847   5.593   0.586
 4986TIP3    H214923   3.757   5.581   0.465
 4987TIP3   OH214924   4.322   0.502   2.198
 4987TIP3    H114925   4.349   0.435   2.135
 4987TIP3    H214926   4.227   0.503   2.192
 4988TIP3   OH214927   2.783   4.680   3.645
 4988TIP3    H114928   2.769   4.763   3.600
 4988TIP3    H214929   2.857   4.697   3.704
 4989TIP3   OH214930   3.918   3.618   5.258
 4989TIP3    H114931   3.985   3.560   5.221
 4989TIP3    H214932   3.944   3.706   5.231
 4990TIP3   OH214933   5.676   2.594   3.166
 4990TIP3    H114934   5.596   2.611   3.117
 4990TIP3    H214935   5.723   2.529   3.113
 4991TIP3   OH214936   3.570   6.038   1.835
 4991TIP3    H114937   3.550   6.032   1.928
 4991TIP3    H214938   3.662   6.012   1.828
 4992TIP3   OH214939   0.561   6.252   1.326
 4992TIP3    H114940   0.574   6.303   1.246
 4992TIP3    H214941   0.562   6.161   1.297
 4993TIP3   OH214942   1.781   4.372   0.870
 4993TIP3    H114943   1.757   4.311   0.801
 4993TIP3    H214944   1.700   4.388   0.918
 4994TIP3   OH214945   4.190   5.937   4.433
 4994TIP3    H114946   4.142   5.872   4.381
 4994TIP3    H214947   4.274   5.894   4.452
 4995TIP3   OH214948   0.461   2.118   3.470
 4995TIP3    H114949   0.549   2.108   3.507
 4995TIP3    H214950   0.444   2.034   3.426
 4996TIP3   OH214951   5.767   4.227   1.526
 4996TIP3    H114952   5.706   4.155   1.540
 4996TIP3    H214953   5.819   4.200   1.450
 4997TIP3   OH214954   5.447   2.737   0.149
 4997TIP3    H114955   5.403   2.688   0.079
 4997TIP3    H214956   5.443   2.679   0.225
 4998TIP3   OH214957   3.952   2.894   5.194
 4998TIP3    H114958   4.036   2.917   5.233
 4998TIP3    H214959   3.930   2.969   5.139
 4999TIP3   OH214960   2.366   1.724   5.578
 4999TIP3    H114961   2.414   1.695   5.656
 4999TIP3    H214962   2.387   1.817   5.571
 5000TIP3   OH214963   3.977   4.010   0.880
 5000TIP3    H114964   4.032   4.053   0.814
 5000TIP3    H214965   4.035   3.947   0.923
 5001TIP3   OH214966   2.784   0.298   0.761
 5001TIP3    H114967   2.783   0.207   0.732
 5001TIP3    H214968   2.802   0.349   0.682
 5002TIP3   OH214969   3.950   3.668   0.873
 5002TIP3    H114970   3.877   3.707   0.919
 5002TIP3    H214971   3.951   3.577   0.902
 5003TIP3   OH214972   6.236   3.547   0.567
 5003TIP3    H114973   6.192   3.575   0.486
 5003TIP3    H214974   6.166   3.538   0.631
 5004TIP3   OH214975   0.037   6.305   0.419
 5004TIP3    H114976  -0.040   6.260   0.453
 5004TIP3    H214977   0.012   6.398   0.419
 5005TIP3   OH214978   6.607   0.983   2.503
 5005TIP3    H114979   6.681   0.977   2.443
 5005TIP3    H214980   6.535   0.940   2.457
 5006TIP3   OH214981   5.246   0.430   1.388
 5006TIP3    H114982   5.180   0.377   1.432
 5006TIP3    H214983   5.315   0.368   1.363
 5007TIP3   OH214984   2.728   4.601   1.082
 5007TIP3    H114985   2.700   4.515   1.113
 5007TIP3    H214986   2.701   4.662   1.150
 5008TIP3   OH214987   2.286   4.936   1.229
 5008TIP3    H114988   2.198   4.959   1.197
 5008TIP3    H214989   2.308   5.007   1.288
 5009TIP3   OH214990   0.906   3.525   3.648
 5009TIP3    H114991   0.827   3.567   3.681
 5009TIP3    H214992   0.914   3.444   3.699
 5010TIP3   OH214993   5.968   1.148   3.306
 5010TIP3    H114994   6.061   1.149   3.329
 5010TIP3    H214995   5.922   1.141   3.389
 5011TIP3   OH214996   1.045   4.743   0.317
 5011TIP3    H114997   1.084   4.671   0.267
 5011TIP3    H214998   1.102   4.752   0.394
 5012TIP3   OH214999   6.495   6.759   0.975
 5012TIP3    H115000   6.506   6.665   0.987
 5012TIP3    H215001   6.437   6.767   0.899
 5013TIP3   OH215002   1.541   4.762   0.884
 5013TIP3    H115003   1.619   4.722   0.847
 5013TIP3    H215004   1.574   4.816   0.956
 5014TIP3   OH215005   2.199   4.503   0.091
 5014TIP3    H115006   2.243   4.538   0.014
 5014TIP3    H215007   2.270   4.466   0.144
 5015TIP3   OH215008   1.446   3.319   0.927
 5015TIP3    H115009   1.440   3.324   1.022
 5015TIP3    H215010   1.398   3.240   0.903
 5016TIP3   OH215011   0.284   5.816   5.122
 5016TIP3    H115012   0.288   5.752   5.194
 5016TIP3    H215013   0.355   5.791   5.064
 5017TIP3   OH215014   1.397   2.624   4.864
 5017TIP3    H115015   1.353   2.617   4.779
 5017TIP3    H215016   1.463   2.555   4.862
 5018TIP3   OH215017   0.233   2.762   4.612
 5018TIP3    H115018   0.234   2.670   4.639
 5018TIP3    H215019   0.244   2.759   4.517
 5019TIP3   OH215020   4.362   3.283   0.274
 5019TIP3    H115021   4.422   3.225   0.227
 5019TIP3    H215022   4.395   3.284   0.364
 5020TIP3   OH215023   2.302   5.830   4.572
 5020TIP3    H115024   2.344   5.911   4.542
 5020TIP3    H215025   2.228   5.860   4.625
 5021TIP3   OH215026   5.570   1.682   3.343
 5021TIP3    H115027   5.543   1.690   3.435
 5021TIP3    H215028   5.608   1.768   3.323
 5022TIP3   OH215029   1.527   2.331   0.461
 5022TIP3    H115030   1.572   2.255   0.498
 5022TIP3    H215031   1.435   2.318   0.486
 5023TIP3   OH215032   5.567   5.038   4.853
 5023TIP3    H115033   5.518   5.004   4.928
 5023TIP3    H215034   5.505   5.034   4.780
 5024TIP3   OH215035   3.037   3.657   0.469
 5024TIP3    H115036   3.117   3.658   0.522
 5024TIP3    H215037   3.033   3.568   0.434
 5025TIP3   OH215038   7.081   0.297   3.204
 5025TIP3    H115039   7.138   0.328   3.275
 5025TIP3    H215040   7.017   0.367   3.192
 5026TIP3   OH215041   4.295   0.692   0.255
 5026TIP3    H115042   4.352   0.646   0.193
 5026TIP3    H215043   4.322   0.784   0.249
 5027TIP3   OH215044   1.261   6.576   3.584
 5027TIP3    H115045   1.212   6.656   3.604
 5027TIP3    H215046   1.313   6.560   3.662
 5028TIP3   OH215047   0.145   2.055   4.122
 5028TIP3    H115048   0.153   2.013   4.208
 5028TIP3    H215049   0.183   2.142   4.135
 5029TIP3   OH215050   0.809   1.616   2.812
 5029TIP3    H115051   0.724   1.574   2.818
 5029TIP3    H215052   0.789   1.707   2.788
 5030TIP3   OH215053   0.529   4.680   3.677
 5030TIP3    H115054   0.578   4.619   3.622
 5030TIP3    H215055   0.525   4.638   3.762
 5031TIP3   OH215056   2.414   5.314   2.196
 5031TIP3    H115057   2.348   5.364   2.149
 5031TIP3    H215058   2.482   5.298   2.131
 5032TIP3   OH215059   2.606   2.361   4.938
 5032TIP3    H115060   2.659   2.287   4.968
 5032TIP3    H215061   2.626   2.431   5.000
 5033TIP3   OH215062   3.396   2.529   4.970
 5033TIP3    H115063   3.358   2.561   4.888
 5033TIP3    H215064   3.435   2.606   5.010
 5034TIP3   OH215065   3.363   4.886   1.221
 5034TIP3    H115066   3.435   4.848   1.271
 5034TIP3    H215067   3.301   4.919   1.287
 5035TIP3   OH215068   0.455   0.734   5.088
 5035TIP3    H115069   0.379   0.706   5.037
 5035TIP3    H215070   0.453   0.830   5.084
 5036TIP3   OH215071   6.173   4.178   4.081
 5036TIP3    H115072   6.146   4.247   4.142
 5036TIP3    H215073   6.091   4.142   4.049
 5037TIP3   OH215074   5.570   4.473   0.581
 5037TIP3    H115075   5.591   4.415   0.508
 5037TIP3    H215076   5.595   4.423   0.659
 5038TIP3   OH215077   4.964   1.101   1.849
 5038TIP3    H115078   4.937   1.011   1.863
 5038TIP3    H215079   5.058   1.101   1.864
 5039TIP3   OH215080   3.540   0.102   1.251
 5039TIP3    H115081   3.513   0.012   1.232
 5039TIP3    H215082   3.508   0.119   1.339
 5040TIP3   OH215083   1.086   4.450   2.360
 5040TIP3    H115084   1.069   4.542   2.383
 5040TIP3    H215085   1.002   4.418   2.328
 5041TIP3   OH215086   2.871   5.682   4.168
 5041TIP3    H115087   2.828   5.616   4.115
 5041TIP3    H215088   2.930   5.632   4.225
 5042TIP3   OH215089   6.785   1.682   1.518
 5042TIP3    H115090   6.822   1.743   1.454
 5042TIP3    H215091   6.861   1.637   1.555
 5043TIP3   OH215092   5.774   4.814   2.955
 5043TIP3    H115093   5.740   4.813   2.865
 5043TIP3    H215094   5.707   4.767   3.005
 5044TIP3   OH215095   5.672   5.477   2.596
 5044TIP3    H115096   5.684   5.393   2.640
 5044TIP3    H215097   5.721   5.539   2.650
 5045TIP3   OH215098   6.715   5.878   2.488
 5045TIP3    H115099   6.638   5.923   2.454
 5045TIP3    H215100   6.775   5.949   2.511
 5046TIP3   OH215101   4.724   2.586   2.577
 5046TIP3    H115102   4.717   2.655   2.511
 5046TIP3    H215103   4.793   2.615   2.635
 5047TIP3   OH215104   2.190   5.275   1.780
 5047TIP3    H115105   2.209   5.248   1.869
 5047TIP3    H215106   2.254   5.226   1.726
 5048TIP3   OH215107   2.606   2.894   3.236
 5048TIP3    H115108   2.513   2.882   3.217
 5048TIP3    H215109   2.640   2.805   3.245
 5049TIP3   OH215110   4.939   3.497   1.732
 5049TIP3    H115111   5.013   3.437   1.737
 5049TIP3    H215112   4.866   3.449   1.770
 5050TIP3   OH215113   5.881   0.809   2.329
 5050TIP3    H115114   5.811   0.763   2.283
 5050TIP3    H215115   5.956   0.751   2.323
 5051TIP3   OH215116   3.094   6.092   1.217
 5051TIP3    H115117   3.113   6.103   1.124
 5051TIP3    H215118   3.106   6.179   1.255
 5052TIP3   OH215119   0.255   3.301   5.114
 5052TIP3    H115120   0.292   3.266   5.195
 5052TIP3    H215121   0.171   3.258   5.104
 5053TIP3   OH215122   4.837   0.086   3.248
 5053TIP3    H115123   4.802   0.115   3.332
 5053TIP3    H215124   4.930   0.111   3.251
 5054TIP3   OH215125   4.515   5.013   5.698
 5054TIP3    H115126   4.453   5.084   5.716
 5054TIP3    H215127   4.460   4.937   5.680
 5055TIP3   OH215128   6.341   4.589   3.936
 5055TIP3    H115129   6.396   4.542   3.999
 5055TIP3    H215130   6.369   4.556   3.851
 5056TIP3   OH215131   2.356   0.279   5.151
 5056TIP3    H115132   2.273   0.269   5.198
 5056TIP3    H215133   2.336   0.252   5.062
 5057TIP3   OH215134   5.644   4.386   0.844
 5057TIP3    H115135   5.725   4.429   0.872
 5057TIP3    H215136   5.581   4.405   0.913
 5058TIP3   OH215137   5.138   1.520   0.709
 5058TIP3    H115138   5.113   1.428   0.700
 5058TIP3    H215139   5.213   1.530   0.650
 5059TIP3   OH215140   7.144   5.586   2.980
 5059TIP3    H115141   7.191   5.531   3.043
 5059TIP3    H215142   7.167   5.676   3.004
 5060TIP3   OH215143   2.577   3.720   3.301
 5060TIP3    H115144   2.666   3.745   3.275
 5060TIP3    H215145   2.532   3.803   3.315
 5061TIP3   OH215146   4.990   6.803   5.394
 5061TIP3    H115147   4.947   6.725   5.359
 5061TIP3    H215148   4.918   6.863   5.413
 5062TIP3   OH215149   6.714   3.969   4.997
 5062TIP3    H115150   6.802   4.001   4.978
 5062TIP3    H215151   6.666   3.982   4.915
 5063TIP3   OH215152   1.892   5.106   0.895
 5063TIP3    H115153   1.829   5.175   0.875
 5063TIP3    H215154   1.839   5.034   0.929
 5064TIP3   OH215155   3.317   2.658   3.245
 5064TIP3    H115156   3.381   2.727   3.262
 5064TIP3    H215157   3.336   2.628   3.156
 5065TIP3   OH215158   0.230   3.635   0.042
 5065TIP3    H115159   0.265   3.566   0.099
 5065TIP3    H215160   0.266   3.716   0.078
 5066TIP3   OH215161   3.347   3.412   3.127
 5066TIP3    H115162   3.264   3.408   3.079
 5066TIP3    H215163   3.345   3.336   3.186
 5067TIP3   OH215164   3.886   4.958   4.062
 5067TIP3    H115165   3.841   5.036   4.031
 5067TIP3    H215166   3.974   4.963   4.024
 5068TIP3   OH215167   5.279   4.997   3.603
 5068TIP3    H115168   5.360   5.028   3.644
 5068TIP3    H215169   5.305   4.969   3.516
 5069TIP3   OH215170   2.353   3.416   3.157
 5069TIP3    H115171   2.405   3.399   3.079
 5069TIP3    H215172   2.263   3.423   3.125
 5070TIP3   OH215173   6.649   2.699   0.239
 5070TIP3    H115174   6.676   2.703   0.331
 5070TIP3    H215175   6.554   2.691   0.242
 5071TIP3   OH215176   5.079   2.561   5.195
 5071TIP3    H115177   5.126   2.570   5.278
 5071TIP3    H215178   4.987   2.549   5.221
 5072TIP3   OH215179   1.911   5.924   2.079
 5072TIP3    H115180   1.884   5.841   2.119
 5072TIP3    H215181   1.852   5.989   2.118
 5073TIP3   OH215182   5.186   2.644   1.588
 5073TIP3    H115183   5.274   2.681   1.587
 5073TIP3    H215184   5.143   2.680   1.510
 5074TIP3   OH215185   1.955   4.696   4.081
 5074TIP3    H115186   1.981   4.784   4.053
 5074TIP3    H215187   1.963   4.642   4.002
 5075TIP3   OH215188   2.294   5.688   4.237
 5075TIP3    H115189   2.384   5.721   4.249
 5075TIP3    H215190   2.280   5.693   4.142
 5076TIP3   OH215191   3.897   5.532   5.265
 5076TIP3    H115192   3.831   5.568   5.323
 5076TIP3    H215193   3.980   5.567   5.297
 5077TIP3   OH215194   0.396   4.241   5.539
 5077TIP3    H115195   0.449   4.289   5.475
 5077TIP3    H215196   0.402   4.150   5.512
 5078TIP3   OH215197   2.983   3.702   2.307
 5078TIP3    H115198   2.916   3.634   2.297
 5078TIP3    H215199   2.971   3.759   2.232
 5079TIP3   OH215200   0.748   0.869   4.895
 5079TIP3    H115201   0.828   0.831   4.931
 5079TIP3    H215202   0.677   0.829   4.945
 5080TIP3   OH215203   1.055   4.272   3.204
 5080TIP3    H115204   1.082   4.312   3.286
 5080TIP3    H215205   1.043   4.179   3.225
 5081TIP3   OH215206   6.333   1.900   5.653
 5081TIP3    H115207   6.415   1.928   5.612
 5081TIP3    H215208   6.283   1.981   5.661
 5082TIP3   OH215209   7.187   5.687   1.586
 5082TIP3    H115210   7.215   5.765   1.635
 5082TIP3    H215211   7.154   5.627   1.653
 5083TIP3   OH215212   4.955   2.971   0.038
 5083TIP3    H115213   4.930   2.902  -0.023
 5083TIP3    H215214   4.976   3.046  -0.018
 5084TIP3   OH215215   6.609   1.349   1.691
 5084TIP3    H115216   6.695   1.309   1.676
 5084TIP3    H215217   6.627   1.441   1.706
 5085TIP3   OH215218   4.678   2.443   1.510
 5085TIP3    H115219   4.596   2.442   1.461
 5085TIP3    H215220   4.729   2.370   1.474
 5086TIP3   OH215221   5.360   1.650   2.509
 5086TIP3    H115222   5.411   1.569   2.513
 5086TIP3    H215223   5.387   1.699   2.587
 5087TIP3   OH215224   5.580   4.404   2.958
 5087TIP3    H115225   5.662   4.396   3.006
 5087TIP3    H215226   5.519   4.440   3.022
 5088TIP3   OH215227   4.101   1.845   2.100
 5088TIP3    H115228   4.129   1.936   2.110
 5088TIP3    H215229   4.099   1.811   2.190
 5089TIP3   OH215230   6.397   2.273   4.119
 5089TIP3    H115231   6.443   2.255   4.201
 5089TIP3    H215232   6.384   2.368   4.119
 5090TIP3   OH215233   5.069   4.080   3.505
 5090TIP3    H115234   5.102   4.016   3.442
 5090TIP3    H215235   5.086   4.041   3.591
 5091TIP3   OH215236   1.254   0.316   4.860
 5091TIP3    H115237   1.170   0.270   4.859
 5091TIP3    H215238   1.236   0.397   4.907
 5092TIP3   OH215239   6.114   0.457   5.500
 5092TIP3    H115240   6.153   0.370   5.491
 5092TIP3    H215241   6.119   0.476   5.594
 5093TIP3   OH215242   5.290   2.932   5.901
 5093TIP3    H115243   5.330   2.966   5.821
 5093TIP3    H215244   5.322   2.842   5.907
 5094TIP3   OH215245   1.020   4.340   3.805
 5094TIP3    H115246   1.074   4.345   3.884
 5094TIP3    H215247   1.053   4.411   3.749
 5095TIP3   OH215248   6.592   0.081   0.941
 5095TIP3    H115249   6.596   0.014   1.009
 5095TIP3    H215250   6.684   0.106   0.927
 5096TIP3   OH215251   6.877   6.723   0.910
 5096TIP3    H115252   6.852   6.710   1.002
 5096TIP3    H215253   6.895   6.634   0.877
 5097TIP3   OH215254   5.902   1.390   0.227
 5097TIP3    H115255   5.942   1.369   0.311
 5097TIP3    H215256   5.885   1.484   0.232
 5098TIP3   OH215257   1.132   1.607   0.650
 5098TIP3    H115258   1.177   1.662   0.586
 5098TIP3    H215259   1.174   1.627   0.733
 5099TIP3   OH215260   4.841   4.839   5.686
 5099TIP3    H115261   4.841   4.933   5.705
 5099TIP3    H215262   4.933   4.813   5.691
 5100TIP3   OH215263   2.710   0.492   2.872
 5100TIP3    H115264   2.658   0.553   2.819
 5100TIP3    H215265   2.736   0.543   2.948
 5101TIP3   OH215266   3.599   0.855   4.926
 5101TIP3    H115267   3.685   0.850   4.885
 5101TIP3    H215268   3.613   0.906   5.006
 5102TIP3   OH215269   6.665   0.831   3.486
 5102TIP3    H115270   6.667   0.756   3.546
 5102TIP3    H215271   6.700   0.797   3.404
 5103TIP3   OH215272   4.291   0.896   4.265
 5103TIP3    H115273   4.370   0.950   4.270
 5103TIP3    H215274   4.324   0.806   4.261
 5104TIP3   OH215275   2.871   6.538   3.209
 5104TIP3    H115276   2.931   6.517   3.138
 5104TIP3    H215277   2.928   6.562   3.282
 5105TIP3   OH215278   2.543   5.602   1.853
 5105TIP3    H115279   2.522   5.642   1.938
 5105TIP3    H215280   2.459   5.579   1.816
 5106TIP3   OH215281   6.699   1.249   3.934
 5106TIP3    H115282   6.690   1.266   4.028
 5106TIP3    H215283   6.608   1.239   3.904
 5107TIP3   OH215284   0.240   1.376   0.241
 5107TIP3    H115285   0.156   1.419   0.223
 5107TIP3    H215286   0.248   1.310   0.172
 5108TIP3   OH215287   3.089   4.824   2.529
 5108TIP3    H115288   3.131   4.826   2.443
 5108TIP3    H215289   3.116   4.741   2.568
 5109TIP3   OH215290   6.730   4.132   5.217
 5109TIP3    H115291   6.813   4.166   5.184
 5109TIP3    H215292   6.694   4.081   5.144
 5110TIP3   OH215293   1.203   0.824   3.289
 5110TIP3    H115294   1.178   0.739   3.325
 5110TIP3    H215295   1.242   0.871   3.363
 5111TIP3   OH215296   5.777   1.834   2.277
 5111TIP3    H115297   5.766   1.848   2.183
 5111TIP3    H215298   5.862   1.791   2.286
 5112TIP3   OH215299   6.636   4.821   2.122
 5112TIP3    H115300   6.683   4.901   2.098
 5112TIP3    H215301   6.669   4.799   2.209
 5113TIP3   OH215302   7.178   1.007   1.019
 5113TIP3    H115303   7.145   0.976   1.104
 5113TIP3    H215304   7.229   0.934   0.985
 5114TIP3   OH215305   6.241   3.418   2.020
 5114TIP3    H115306   6.272   3.506   1.997
 5114TIP3    H215307   6.312   3.360   1.993
 5115TIP3   OH215308   6.272   5.352   5.505
 5115TIP3    H115309   6.342   5.287   5.509
 5115TIP3    H215310   6.309   5.430   5.546
 5116TIP3   OH215311   6.895   2.495   5.830
 5116TIP3    H115312   6.956   2.498   5.757
 5116TIP3    H215313   6.862   2.584   5.839
 5117TIP3   OH215314   2.449   5.477   0.794
 5117TIP3    H115315   2.419   5.455   0.882
 5117TIP3    H215316   2.482   5.566   0.802
 5118TIP3   OH215317   0.195   3.706   0.765
 5118TIP3    H115318   0.286   3.718   0.738
 5118TIP3    H215319   0.166   3.627   0.720
 5119TIP3   OH215320   1.046   1.122   4.134
 5119TIP3    H115321   1.043   1.100   4.041
 5119TIP3    H215322   1.084   1.045   4.176
 5120TIP3   OH215323   0.826   2.403   1.386
 5120TIP3    H115324   0.859   2.484   1.346
 5120TIP3    H215325   0.775   2.433   1.461
 5121TIP3   OH215326   3.680   2.422   4.062
 5121TIP3    H115327   3.756   2.467   4.026
 5121TIP3    H215328   3.710   2.332   4.077
 5122TIP3   OH215329   6.813   6.427   2.117
 5122TIP3    H115330   6.811   6.447   2.024
 5122TIP3    H215331   6.899   6.386   2.131
 5123TIP3   OH215332   4.660   1.955   0.530
 5123TIP3    H115333   4.687   1.896   0.601
 5123TIP3    H215334   4.742   1.980   0.487
 5124TIP3   OH215335   6.946   3.229   0.076
 5124TIP3    H115336   6.988   3.298   0.025
 5124TIP3    H215337   7.001   3.221   0.154
 5125TIP3   OH215338   2.754   3.881   1.837
 5125TIP3    H115339   2.679   3.912   1.887
 5125TIP3    H215340   2.742   3.786   1.831
 5126TIP3   OH215341   1.873   5.029   1.332
 5126TIP3    H115342   1.933   5.029   1.257
 5126TIP3    H215343   1.876   5.119   1.365
 5127TIP3   OH215344   3.588   6.059   2.110
 5127TIP3    H115345   3.626   5.971   2.108
 5127TIP3    H215346   3.526   6.056   2.184
 5128TIP3   OH215347   1.024   2.972   0.452
 5128TIP3    H115348   0.959   3.037   0.425
 5128TIP3    H215349   1.060   3.008   0.533
 5129TIP3   OH215350   0.956   3.326   5.313
 5129TIP3    H115351   0.888   3.304   5.250
 5129TIP3    H215352   1.038   3.312   5.265
 5130TIP3   OH215353   3.073   3.156   4.631
 5130TIP3    H115354   2.984   3.166   4.663
 5130TIP3    H215355   3.090   3.061   4.635
 5131TIP3   OH215356   4.364   2.551   0.719
 5131TIP3    H115357   4.307   2.614   0.764
 5131TIP3    H215358   4.364   2.474   0.776
 5132TIP3   OH215359   6.923   1.483   1.779
 5132TIP3    H115360   6.995   1.450   1.724
 5132TIP3    H215361   6.951   1.571   1.804
 5133TIP3   OH215362   3.556   0.350   2.763
 5133TIP3    H115363   3.605   0.432   2.772
 5133TIP3    H215364   3.569   0.324   2.672
 5134TIP3   OH215365   7.068   4.234   2.558
 5134TIP3    H115366   7.063   4.328   2.571
 5134TIP3    H215367   7.162   4.215   2.553
 5135TIP3   OH215368   0.164   6.584   2.845
 5135TIP3    H115369   0.113   6.613   2.921
 5135TIP3    H215370   0.102   6.531   2.795
 5136TIP3   OH215371   6.769   1.120   0.593
 5136TIP3    H115372   6.784   1.049   0.530
 5136TIP3    H215373   6.856   1.138   0.629
 5137TIP3   OH215374   0.317   1.932   1.783
 5137TIP3    H115375   0.322   1.941   1.688
 5137TIP3    H215376   0.226   1.953   1.805
 5138TIP3   OH215377   3.256   6.574   0.849
 5138TIP3    H115378   3.213   6.493   0.821
 5138TIP3    H215379   3.216   6.643   0.796
 5139TIP3   OH215380   0.012   2.359   3.865
 5139TIP3    H115381   0.082   2.424   3.875
 5139TIP3    H215382  -0.069   2.408   3.879
 5140TIP3   OH215383   3.531   2.015   2.548
 5140TIP3    H115384   3.622   2.035   2.526
 5140TIP3    H215385   3.492   1.986   2.466
 5141TIP3   OH215386   6.307   5.861   2.819
 5141TIP3    H115387   6.246   5.915   2.870
 5141TIP3    H215388   6.266   5.775   2.815
 5142TIP3   OH215389   2.609   4.017   2.802
 5142TIP3    H115390   2.584   3.944   2.747
 5142TIP3    H215391   2.597   4.095   2.747
 5143TIP3   OH215392   0.723   4.904   2.298
 5143TIP3    H115393   0.638   4.912   2.254
 5143TIP3    H215394   0.757   4.819   2.268
 5144TIP3   OH215395   3.032   5.938   4.628
 5144TIP3    H115396   3.035   5.865   4.567
 5144TIP3    H215397   2.939   5.946   4.652
 5145TIP3   OH215398   0.087   6.269   1.490
 5145TIP3    H115399   0.067   6.195   1.433
 5145TIP3    H215400   0.176   6.252   1.521
 5146TIP3   OH215401   0.363   1.058   3.363
 5146TIP3    H115402   0.434   0.995   3.353
 5146TIP3    H215403   0.373   1.093   3.452
 5147TIP3   OH215404   5.020   0.248   2.434
 5147TIP3    H115405   5.104   0.259   2.478
 5147TIP3    H215406   5.041   0.197   2.356
 5148TIP3   OH215407   2.523   3.301   1.474
 5148TIP3    H115408   2.571   3.381   1.455
 5148TIP3    H215409   2.435   3.316   1.439
 5149TIP3   OH215410   1.232   6.026   1.431
 5149TIP3    H115411   1.264   5.985   1.512
 5149TIP3    H215412   1.258   5.966   1.362
 5150TIP3   OH215413   4.459   1.112   4.202
 5150TIP3    H115414   4.461   1.208   4.206
 5150TIP3    H215415   4.459   1.092   4.109
 5151TIP3   OH215416   2.513   1.832   1.633
 5151TIP3    H115417   2.494   1.829   1.540
 5151TIP3    H215418   2.603   1.802   1.641
 5152TIP3   OH215419   2.919   0.949   0.010
 5152TIP3    H115420   2.853   0.880   0.019
 5152TIP3    H215421   2.963   0.951   0.095
 5153TIP3   OH215422   4.721   1.182   4.244
 5153TIP3    H115423   4.763   1.143   4.321
 5153TIP3    H215424   4.632   1.147   4.245
 5154TIP3   OH215425   7.161   1.202   2.960
 5154TIP3    H115426   7.223   1.247   2.902
 5154TIP3    H215427   7.215   1.145   3.014
 5155TIP3   OH215428   2.016   1.953   2.887
 5155TIP3    H115429   2.048   2.002   2.811
 5155TIP3    H215430   2.012   1.862   2.856
 5156TIP3   OH215431   4.947   0.586   2.417
 5156TIP3    H115432   4.928   0.594   2.511
 5156TIP3    H215433   4.870   0.542   2.382
 5157TIP3   OH215434   4.030   0.445   1.175
 5157TIP3    H115435   4.078   0.395   1.110
 5157TIP3    H215436   3.959   0.487   1.126
 5158TIP3   OH215437   2.247   1.729   0.013
 5158TIP3    H115438   2.256   1.822  -0.007
 5158TIP3    H215439   2.226   1.689  -0.072
 5159TIP3   OH215440   4.346   4.087   3.844
 5159TIP3    H115441   4.295   4.063   3.922
 5159TIP3    H215442   4.286   4.141   3.793
 5160TIP3   OH215443   3.274   5.897   1.548
 5160TIP3    H115444   3.234   5.842   1.615
 5160TIP3    H215445   3.335   5.839   1.502
 5161TIP3   OH215446   1.313   4.525   1.916
 5161TIP3    H115447   1.335   4.564   1.832
 5161TIP3    H215448   1.345   4.589   1.981
 5162TIP3   OH215449   5.836   4.627   3.540
 5162TIP3    H115450   5.783   4.580   3.604
 5162TIP3    H215451   5.831   4.573   3.461
 5163TIP3   OH215452   5.729   1.826   3.907
 5163TIP3    H115453   5.721   1.733   3.887
 5163TIP3    H215454   5.693   1.871   3.830
 5164TIP3   OH215455   3.570   0.417   2.202
 5164TIP3    H115456   3.586   0.359   2.276
 5164TIP3    H215457   3.589   0.363   2.125
 5165TIP3   OH215458   6.878   4.503   2.275
 5165TIP3    H115459   6.920   4.456   2.203
 5165TIP3    H215460   6.785   4.507   2.251
 5166TIP3   OH215461   6.497   2.540   0.475
 5166TIP3    H115462   6.404   2.523   0.459
 5166TIP3    H215463   6.519   2.485   0.550
 5167TIP3   OH215464   0.990   1.013   1.417
 5167TIP3    H115465   0.906   1.013   1.371
 5167TIP3    H215466   1.038   1.087   1.380
 5168TIP3   OH215467   1.629   6.328   1.006
 5168TIP3    H115468   1.563   6.285   0.952
 5168TIP3    H215469   1.681   6.380   0.945
 5169TIP3   OH215470   2.652   1.509   2.350
 5169TIP3    H115471   2.644   1.416   2.327
 5169TIP3    H215472   2.704   1.509   2.430
 5170TIP3   OH215473   1.904   5.066   5.087
 5170TIP3    H115474   1.874   5.021   5.166
 5170TIP3    H215475   1.833   5.055   5.024
 5171TIP3   OH215476   6.306   2.711   0.967
 5171TIP3    H115477   6.237   2.645   0.974
 5171TIP3    H215478   6.387   2.661   0.971
 5172TIP3   OH215479   0.339   4.918   3.107
 5172TIP3    H115480   0.266   4.949   3.053
 5172TIP3    H215481   0.369   4.838   3.064
 5173TIP3   OH215482   2.217   2.407   1.690
 5173TIP3    H115483   2.241   2.434   1.601
 5173TIP3    H215484   2.261   2.471   1.747
 5174TIP3   OH215485   5.406   0.822   3.647
 5174TIP3    H115486   5.432   0.850   3.559
 5174TIP3    H215487   5.358   0.897   3.683
 5175TIP3   OH215488   0.279   5.553   5.250
 5175TIP3    H115489   0.215   5.501   5.299
 5175TIP3    H215490   0.254   5.541   5.158
 5176TIP3   OH215491   6.381   5.799   5.566
 5176TIP3    H115492   6.420   5.756   5.490
 5176TIP3    H215493   6.415   5.750   5.641
 5177TIP3   OH215494   4.618   1.650   1.946
 5177TIP3    H115495   4.708   1.658   1.977
 5177TIP3    H215496   4.564   1.675   2.021
 5178TIP3   OH215497   0.935   6.326   1.391
 5178TIP3    H115498   1.000   6.288   1.450
 5178TIP3    H215499   0.872   6.369   1.449
 5179TIP3   OH215500   6.124   2.144   4.074
 5179TIP3    H115501   6.155   2.102   4.155
 5179TIP3    H215502   6.045   2.094   4.051
 5180TIP3   OH215503   4.807   5.630   2.542
 5180TIP3    H115504   4.881   5.645   2.482
 5180TIP3    H215505   4.736   5.601   2.486
 5181TIP3   OH215506   7.011   1.463   1.313
 5181TIP3    H115507   7.049   1.518   1.382
 5181TIP3    H215508   7.062   1.382   1.317
 5182TIP3   OH215509   5.285   4.996   3.943
 5182TIP3    H115510   5.364   5.005   3.889
 5182TIP3    H215511   5.267   4.902   3.942
 5183TIP3   OH215512   6.132   1.885   0.063
 5183TIP3    H115513   6.078   1.811   0.034
 5183TIP3    H215514   6.177   1.852   0.141
 5184TIP3   OH215515   1.004   0.914   3.094
 5184TIP3    H115516   1.018   0.846   3.028
 5184TIP3    H215517   1.028   0.873   3.177
 5185TIP3   OH215518   2.273   4.394   0.450
 5185TIP3    H115519   2.324   4.445   0.387
 5185TIP3    H215520   2.324   4.313   0.462
 5186TIP3   OH215521   4.177   0.183   2.172
 5186TIP3    H115522   4.198   0.185   2.265
 5186TIP3    H215523   4.157   0.274   2.150
 5187TIP3   OH215524   2.862   1.145   3.111
 5187TIP3    H115525   2.918   1.069   3.095
 5187TIP3    H215526   2.867   1.159   3.205
 5188TIP3   OH215527   4.577   3.775   0.169
 5188TIP3    H115528   4.561   3.681   0.162
 5188TIP3    H215529   4.668   3.781   0.198
 5189TIP3   OH215530   6.056   3.981   4.390
 5189TIP3    H115531   6.089   3.946   4.473
 5189TIP3    H215532   6.103   4.064   4.379
 5190TIP3   OH215533   6.838   1.151   4.417
 5190TIP3    H115534   6.821   1.115   4.330
 5190TIP3    H215535   6.933   1.142   4.428
 5191TIP3   OH215536   0.670   1.202   0.926
 5191TIP3    H115537   0.584   1.190   0.966
 5191TIP3    H215538   0.729   1.146   0.976
 5192TIP3   OH215539   3.738   5.840   2.032
 5192TIP3    H115540   3.705   5.762   2.076
 5192TIP3    H215541   3.797   5.807   1.965
 5193TIP3   OH215542   1.092   4.169   5.274
 5193TIP3    H115543   1.019   4.112   5.250
 5193TIP3    H215544   1.059   4.221   5.347
 5194TIP3   OH215545   1.797   1.058   5.753
 5194TIP3    H115546   1.863   0.994   5.726
 5194TIP3    H215547   1.736   1.008   5.807
 5195TIP3   OH215548   1.142   1.110   3.850
 5195TIP3    H115549   1.185   1.024   3.847
 5195TIP3    H215550   1.057   1.096   3.808
 5196TIP3   OH215551   6.539   5.679   0.526
 5196TIP3    H115552   6.458   5.657   0.480
 5196TIP3    H215553   6.595   5.718   0.459
 5197TIP3   OH215554   5.493   1.782   2.690
 5197TIP3    H115555   5.479   1.875   2.707
 5197TIP3    H215556   5.552   1.754   2.760
 5198TIP3   OH215557   0.470   0.221   4.673
 5198TIP3    H115558   0.391   0.227   4.727
 5198TIP3    H215559   0.438   0.228   4.583
 5199TIP3   OH215560   0.075   5.689   0.297
 5199TIP3    H115561   0.033   5.748   0.235
 5199TIP3    H215562   0.012   5.618   0.310
 5200TIP3   OH215563   4.237   2.987   4.182
 5200TIP3    H115564   4.143   2.980   4.197
 5200TIP3    H215565   4.261   3.073   4.216
 5201TIP3   OH215566   6.349   2.475   0.035
 5201TIP3    H115567   6.278   2.417   0.062
 5201TIP3    H215568   6.428   2.433   0.069
 5202TIP3   OH215569   2.152   0.664   0.521
 5202TIP3    H115570   2.185   0.609   0.450
 5202TIP3    H215571   2.227   0.674   0.580
 5203TIP3   OH215572   2.150   2.771   3.399
 5203TIP3    H115573   2.199   2.783   3.481
 5203TIP3    H215574   2.060   2.794   3.422
 5204TIP3   OH215575   6.387   2.478   3.708
 5204TIP3    H115576   6.309   2.503   3.758
 5204TIP3    H215577   6.373   2.516   3.621
 5205TIP3   OH215578   5.563   5.306   3.888
 5205TIP3    H115579   5.658   5.315   3.883
 5205TIP3    H215580   5.542   5.317   3.981
 5206TIP3   OH215581   2.588   6.639   1.926
 5206TIP3    H115582   2.633   6.562   1.892
 5206TIP3    H215583   2.629   6.656   2.011
 5207TIP3   OH215584   1.796   1.076   0.125
 5207TIP3    H115585   1.718   1.129   0.142
 5207TIP3    H215586   1.854   1.135   0.077
 5208TIP3   OH215587   4.270   2.647   4.693
 5208TIP3    H115588   4.263   2.731   4.647
 5208TIP3    H215589   4.207   2.590   4.648
 5209TIP3   OH215590   5.021   1.345   1.665
 5209TIP3    H115591   4.963   1.421   1.670
 5209TIP3    H215592   5.045   1.327   1.756
 5210TIP3   OH215593   3.392   4.270   4.236
 5210TIP3    H115594   3.410   4.187   4.281
 5210TIP3    H215595   3.474   4.291   4.192
 5211TIP3   OH215596   0.971   6.696   0.587
 5211TIP3    H115597   1.043   6.692   0.649
 5211TIP3    H215598   1.007   6.742   0.511
 5212TIP3   OH215599   2.350   5.536   3.859
 5212TIP3    H115600   2.389   5.539   3.772
 5212TIP3    H215601   2.356   5.626   3.891
 5213TIP3   OH215602   5.558   6.280   2.208
 5213TIP3    H115603   5.541   6.264   2.301
 5213TIP3    H215604   5.651   6.300   2.204
 5214TIP3   OH215605   2.070   0.358   3.613
 5214TIP3    H115606   2.053   0.447   3.645
 5214TIP3    H215607   1.984   0.319   3.605
 5215TIP3   OH215608   4.524   0.143   3.177
 5215TIP3    H115609   4.503   0.168   3.267
 5215TIP3    H215610   4.603   0.089   3.185
 5216TIP3   OH215611   6.230   6.138   3.380
 5216TIP3    H115612   6.264   6.226   3.365
 5216TIP3    H215613   6.309   6.084   3.391
 5217TIP3   OH215614   0.695   2.786   4.259
 5217TIP3    H115615   0.690   2.762   4.167
 5217TIP3    H215616   0.786   2.809   4.273
 5218TIP3   OH215617   2.045   1.419   2.019
 5218TIP3    H115618   2.076   1.383   2.102
 5218TIP3    H215619   2.047   1.514   2.032
 5219TIP3   OH215620   1.710   4.073   0.775
 5219TIP3    H115621   1.769   4.042   0.843
 5219TIP3    H215622   1.634   4.015   0.780
 5220TIP3   OH215623   2.037   5.369   5.724
 5220TIP3    H115624   2.044   5.456   5.763
 5220TIP3    H215625   2.045   5.384   5.630
 5221TIP3   OH215626   3.449   1.812   2.089
 5221TIP3    H115627   3.393   1.823   2.165
 5221TIP3    H215628   3.535   1.842   2.117
 5222TIP3   OH215629   2.378   6.461   5.257
 5222TIP3    H115630   2.416   6.377   5.284
 5222TIP3    H215631   2.444   6.526   5.279
 5223TIP3   OH215632   1.098   0.724   3.532
 5223TIP3    H115633   1.061   0.670   3.602
 5223TIP3    H215634   1.159   0.782   3.577
 5224TIP3   OH215635   5.504   3.034   5.473
 5224TIP3    H115636   5.488   3.117   5.427
 5224TIP3    H215637   5.548   2.979   5.409
 5225TIP3   OH215638   6.107   1.326   5.573
 5225TIP3    H115639   6.100   1.419   5.555
 5225TIP3    H215640   6.018   1.300   5.597
 5226TIP3   OH215641   4.723   6.394   0.001
 5226TIP3    H115642   4.699   6.341   0.077
 5226TIP3    H215643   4.786   6.340  -0.048
 5227TIP3   OH215644   3.358   2.238   3.242
 5227TIP3    H115645   3.371   2.287   3.162
 5227TIP3    H215646   3.408   2.285   3.308
 5228TIP3   OH215647   1.529   5.559   5.603
 5228TIP3    H115648   1.582   5.636   5.625
 5228TIP3    H215649   1.458   5.559   5.667
 5229TIP3   OH215650   0.211   6.606   0.989
 5229TIP3    H115651   0.212   6.517   1.026
 5229TIP3    H215652   0.138   6.605   0.926
 5230TIP3   OH215653   4.930   2.678   4.550
 5230TIP3    H115654   4.862   2.691   4.484
 5230TIP3    H215655   4.963   2.765   4.569
 5231TIP3   OH215656   3.907   1.817   3.474
 5231TIP3    H115657   3.876   1.776   3.555
 5231TIP3    H215658   3.839   1.880   3.451
 5232TIP3   OH215659   4.911   5.103   5.816
 5232TIP3    H115660   4.872   5.146   5.739
 5232TIP3    H215661   4.844   5.112   5.884
 5233TIP3   OH215662   2.328   2.736   2.411
 5233TIP3    H115663   2.304   2.721   2.320
 5233TIP3    H215664   2.256   2.788   2.447
 5234TIP3   OH215665   3.480   3.936   1.627
 5234TIP3    H115666   3.444   3.998   1.689
 5234TIP3    H215667   3.404   3.893   1.588
 5235TIP3   OH215668   1.671   6.630   0.267
 5235TIP3    H115669   1.668   6.565   0.197
 5235TIP3    H215670   1.756   6.616   0.308
 5236TIP3   OH215671   4.607   6.692   1.323
 5236TIP3    H115672   4.606   6.785   1.302
 5236TIP3    H215673   4.677   6.655   1.270
 5237TIP3   OH215674   5.268   2.618   4.984
 5237TIP3    H115675   5.294   2.532   4.949
 5237TIP3    H215676   5.185   2.601   5.029
 5238TIP3   OH215677   6.381   5.267   2.413
 5238TIP3    H115678   6.399   5.267   2.507
 5238TIP3    H215679   6.445   5.205   2.376
 5239TIP3   OH215680   1.425   1.191   0.757
 5239TIP3    H115681   1.453   1.283   0.753
 5239TIP3    H215682   1.507   1.141   0.761
 5240TIP3   OH215683   6.289   4.944   2.627
 5240TIP3    H115684   6.268   4.950   2.720
 5240TIP3    H215685   6.217   4.989   2.583
 5241TIP3   OH215686   6.025   0.293   2.228
 5241TIP3    H115687   6.116   0.306   2.255
 5241TIP3    H215688   6.006   0.368   2.171
 5242TIP3   OH215689   7.081   3.577   1.863
 5242TIP3    H115690   7.161   3.591   1.914
 5242TIP3    H215691   7.011   3.608   1.920
 5243TIP3   OH215692   5.957   3.412   2.073
 5243TIP3    H115693   6.050   3.430   2.090
 5243TIP3    H215694   5.943   3.445   1.984
 5244TIP3   OH215695   2.598   0.381   1.052
 5244TIP3    H115696   2.661   0.371   1.123
 5244TIP3    H215697   2.608   0.303   0.999
 5245TIP3   OH215698   6.843   0.387   2.264
 5245TIP3    H115699   6.904   0.329   2.219
 5245TIP3    H215700   6.860   0.473   2.228
 5246TIP3   OH215701   3.017   6.084   5.137
 5246TIP3    H115702   2.949   6.099   5.203
 5246TIP3    H215703   3.008   6.157   5.076
 5247TIP3   OH215704   2.158   5.821   5.107
 5247TIP3    H115705   2.100   5.805   5.183
 5247TIP3    H215706   2.202   5.737   5.093
 5248TIP3   OH215707   4.518   6.573   0.955
 5248TIP3    H115708   4.450   6.505   0.947
 5248TIP3    H215709   4.599   6.524   0.968
 5249TIP3   OH215710   6.115   6.585   0.119
 5249TIP3    H115711   6.046   6.537   0.165
 5249TIP3    H215712   6.116   6.546   0.031
 5250TIP3   OH215713   3.904   6.507   5.864
 5250TIP3    H115714   3.954   6.493   5.944
 5250TIP3    H215715   3.925   6.596   5.837
 5251TIP3   OH215716   6.223   0.526   5.750
 5251TIP3    H115717   6.170   0.505   5.827
 5251TIP3    H215718   6.249   0.617   5.762
 5252TIP3   OH215719   0.115   4.602   0.446
 5252TIP3    H115720   0.084   4.512   0.433
 5252TIP3    H215721   0.206   4.599   0.416
 5253TIP3   OH215722   2.236   5.931   2.408
 5253TIP3    H115723   2.223   5.862   2.474
 5253TIP3    H215724   2.150   5.970   2.397
 5254TIP3   OH215725   2.314   5.789   3.958
 5254TIP3    H115726   2.393   5.843   3.958
 5254TIP3    H215727   2.252   5.838   3.903
 5255TIP3   OH215728   0.627   4.269   2.629
 5255TIP3    H115729   0.635   4.364   2.642
 5255TIP3    H215730   0.535   4.251   2.646
 5256TIP3   OH215731   0.898   5.338   4.400
 5256TIP3    H115732   0.804   5.331   4.417
 5256TIP3    H215733   0.912   5.284   4.321
 5257TIP3   OH215734   4.283   5.410   4.261
 5257TIP3    H115735   4.245   5.411   4.173
 5257TIP3    H215736   4.375   5.389   4.248
 5258TIP3   OH215737   2.553   2.510   4.458
 5258TIP3    H115738   2.617   2.477   4.395
 5258TIP3    H215739   2.506   2.578   4.411
 5259TIP3   OH215740   4.051   6.289   1.987
 5259TIP3    H115741   4.077   6.268   1.897
 5259TIP3    H215742   3.958   6.268   1.991
 5260TIP3   OH215743   5.373   6.594   2.830
 5260TIP3    H115744   5.383   6.628   2.742
 5260TIP3    H215745   5.418   6.657   2.886
 5261TIP3   OH215746   4.829   0.747   4.196
 5261TIP3    H115747   4.748   0.735   4.246
 5261TIP3    H215748   4.889   0.681   4.231
 5262TIP3   OH215749   6.801   6.449   5.261
 5262TIP3    H115750   6.877   6.419   5.211
 5262TIP3    H215751   6.835   6.463   5.350
 5263TIP3   OH215752   0.869   1.674   0.719
 5263TIP3    H115753   0.943   1.639   0.669
 5263TIP3    H215754   0.819   1.596   0.744
 5264TIP3   OH215755   0.531   3.539   5.390
 5264TIP3    H115756   0.438   3.542   5.371
 5264TIP3    H215757   0.573   3.570   5.310
 5265TIP3   OH215758   4.692   3.709   0.975
 5265TIP3    H115759   4.609   3.746   0.946
 5265TIP3    H215760   4.725   3.772   1.039
 5266TIP3   OH215761   1.661   4.795   3.925
 5266TIP3    H115762   1.658   4.733   3.998
 5266TIP3    H215763   1.640   4.742   3.848
 5267TIP3   OH215764   1.869   2.571   5.285
 5267TIP3    H115765   1.944   2.554   5.228
 5267TIP3    H215766   1.892   2.528   5.368
 5268TIP3   OH215767   0.583   6.748   3.317
 5268TIP3    H115768   0.666   6.764   3.361
 5268TIP3    H215769   0.592   6.790   3.232
 5269TIP3   OH215770   7.190   2.544   4.512
 5269TIP3    H115771   7.267   2.502   4.552
 5269TIP3    H215772   7.223   2.625   4.475
 5270TIP3   OH215773   2.158   6.443   0.723
 5270TIP3    H115774   2.134   6.428   0.632
 5270TIP3    H215775   2.195   6.360   0.753
 5271TIP3   OH215776   5.583   0.627   1.290
 5271TIP3    H115777   5.602   0.718   1.312
 5271TIP3    H215778   5.488   0.619   1.299
 5272TIP3   OH215779   2.663   3.948   3.836
 5272TIP3    H115780   2.651   4.029   3.886
 5272TIP3    H215781   2.644   3.973   3.745
 5273TIP3   OH215782   6.931   1.028   1.900
 5273TIP3    H115783   6.916   1.118   1.930
 5273TIP3    H215784   6.960   1.038   1.809
 5274TIP3   OH215785   2.198   1.635   3.420
 5274TIP3    H115786   2.272   1.680   3.380
 5274TIP3    H215787   2.168   1.572   3.354
 5275TIP3   OH215788   2.203   3.433   1.815
 5275TIP3    H115789   2.178   3.498   1.880
 5275TIP3    H215790   2.137   3.440   1.746
 5276TIP3   OH215791   4.807   4.733   2.269
 5276TIP3    H115792   4.782   4.688   2.349
 5276TIP3    H215793   4.737   4.796   2.253
 5277TIP3   OH215794   6.381   3.491   1.170
 5277TIP3    H115795   6.400   3.397   1.164
 5277TIP3    H215796   6.465   3.533   1.152
 5278TIP3   OH215797   2.936   4.652   4.309
 5278TIP3    H115798   2.872   4.722   4.297
 5278TIP3    H215799   2.889   4.586   4.361
 5279TIP3   OH215800   2.343   2.714  -0.018
 5279TIP3    H115801   2.385   2.630   0.000
 5279TIP3    H215802   2.415   2.777  -0.015
 5280TIP3   OH215803   0.915   3.342   2.553
 5280TIP3    H115804   0.957   3.309   2.633
 5280TIP3    H215805   0.846   3.279   2.534
 5281TIP3   OH215806   5.478   3.217   1.691
 5281TIP3    H115807   5.455   3.157   1.620
 5281TIP3    H215808   5.397   3.225   1.742
 5282TIP3   OH215809   3.134   4.304   4.094
 5282TIP3    H115810   3.222   4.336   4.115
 5282TIP3    H215811   3.084   4.382   4.073
 5283TIP3   OH215812   2.407   6.134   1.847
 5283TIP3    H115813   2.378   6.219   1.880
 5283TIP3    H215814   2.444   6.090   1.923
 5284TIP3   OH215815   6.623   5.956   0.901
 5284TIP3    H115816   6.713   5.956   0.866
 5284TIP3    H215817   6.614   5.871   0.945
 5285TIP3   OH215818   1.082   3.002   5.086
 5285TIP3    H115819   1.161   2.993   5.139
 5285TIP3    H215820   1.111   3.047   5.007
 5286TIP3   OH215821   3.584   5.055   3.606
 5286TIP3    H115822   3.497   5.046   3.568
 5286TIP3    H215823   3.576   5.018   3.694
 5287TIP3   OH215824   3.901   2.074   4.464
 5287TIP3    H115825   3.859   2.155   4.435
 5287TIP3    H215826   3.902   2.019   4.385
 5288TIP3   OH215827   2.013   3.291   2.482
 5288TIP3    H115828   2.090   3.262   2.433
 5288TIP3    H215829   1.946   3.307   2.416
 5289TIP3   OH215830   0.824   5.359   2.131
 5289TIP3    H115831   0.801   5.356   2.224
 5289TIP3    H215832   0.918   5.377   2.130
 5290TIP3   OH215833   2.770   5.130   5.028
 5290TIP3    H115834   2.778   5.206   4.970
 5290TIP3    H215835   2.717   5.067   4.978
 5291TIP3   OH215836   1.779   0.525   2.528
 5291TIP3    H115837   1.695   0.502   2.568
 5291TIP3    H215838   1.845   0.491   2.589
 5292TIP3   OH215839   0.997   0.049   0.477
 5292TIP3    H115840   0.927   0.111   0.499
 5292TIP3    H215841   0.966   0.008   0.396
 5293TIP3   OH215842   6.911   4.580   4.262
 5293TIP3    H115843   6.919   4.485   4.260
 5293TIP3    H215844   6.998   4.611   4.288
 5294TIP3   OH215845   4.763   2.296   0.302
 5294TIP3    H115846   4.787   2.296   0.394
 5294TIP3    H215847   4.747   2.388   0.281
 5295TIP3   OH215848   6.378   3.169   2.164
 5295TIP3    H115849   6.445   3.167   2.231
 5295TIP3    H215850   6.299   3.197   2.209
 5296TIP3   OH215851   3.226   4.911   4.569
 5296TIP3    H115852   3.276   4.968   4.510
 5296TIP3    H215853   3.264   4.929   4.655
 5297TIP3   OH215854   4.857   0.549   5.718
 5297TIP3    H115855   4.784   0.512   5.669
 5297TIP3    H215856   4.934   0.505   5.685
 5298TIP3   OH215857   3.331   2.285   3.985
 5298TIP3    H115858   3.265   2.306   3.919
 5298TIP3    H215859   3.281   2.270   4.065
 5299TIP3   OH215860   2.489   1.102   1.016
 5299TIP3    H115861   2.565   1.136   0.969
 5299TIP3    H215862   2.431   1.177   1.026
 5300TIP3   OH215863   5.846   5.743   3.617
 5300TIP3    H115864   5.778   5.789   3.567
 5300TIP3    H215865   5.808   5.732   3.704
 5301TIP3   OH215866   2.424   6.687   2.505
 5301TIP3    H115867   2.332   6.687   2.530
 5301TIP3    H215868   2.470   6.653   2.581
 5302TIP3   OH215869   4.117   2.559   5.526
 5302TIP3    H115870   4.086   2.604   5.447
 5302TIP3    H215871   4.062   2.482   5.534
 5303TIP3   OH215872   3.069   0.700   4.410
 5303TIP3    H115873   3.060   0.725   4.318
 5303TIP3    H215874   3.144   0.749   4.442
 5304TIP3   OH215875   4.531   2.365   2.024
 5304TIP3    H115876   4.586   2.395   1.952
 5304TIP3    H215877   4.561   2.276   2.042
 5305TIP3   OH215878   3.305   1.563   4.571
 5305TIP3    H115879   3.216   1.556   4.537
 5305TIP3    H215880   3.294   1.610   4.654
 5306TIP3   OH215881   3.244   1.730   4.794
 5306TIP3    H115882   3.310   1.796   4.816
 5306TIP3    H215883   3.176   1.741   4.860
 5307TIP3   OH215884   4.466   6.208   0.844
 5307TIP3    H115885   4.419   6.131   0.876
 5307TIP3    H215886   4.461   6.201   0.748
 5308TIP3   OH215887   4.719   3.310   1.667
 5308TIP3    H115888   4.676   3.270   1.743
 5308TIP3    H215889   4.677   3.269   1.592
 5309TIP3   OH215890   0.657   5.354   0.418
 5309TIP3    H115891   0.725   5.287   0.422
 5309TIP3    H215892   0.706   5.436   0.408
 5310TIP3   OH215893   3.179   6.655   2.498
 5310TIP3    H115894   3.244   6.649   2.428
 5310TIP3    H215895   3.192   6.742   2.535
 5311TIP3   OH215896   6.583   0.511   0.287
 5311TIP3    H115897   6.624   0.435   0.245
 5311TIP3    H215898   6.611   0.506   0.378
 5312TIP3   OH215899   7.144   2.528   2.700
 5312TIP3    H115900   7.104   2.573   2.626
 5312TIP3    H215901   7.140   2.435   2.676
 5313TIP3   OH215902  -0.010   6.631   1.259
 5313TIP3    H115903  -0.093   6.608   1.301
 5313TIP3    H215904  -0.028   6.629   1.165
 5314TIP3   OH215905   1.602   2.698   2.106
 5314TIP3    H115906   1.635   2.767   2.164
 5314TIP3    H215907   1.673   2.683   2.043
 5315TIP3   OH215908   1.150   5.187   4.457
 5315TIP3    H115909   1.072   5.200   4.403
 5315TIP3    H215910   1.215   5.151   4.397
 5316TIP3   OH215911   4.259   5.065   0.307
 5316TIP3    H115912   4.322   4.993   0.306
 5316TIP3    H215913   4.229   5.072   0.216
 5317TIP3   OH215914   4.886   6.603   4.081
 5317TIP3    H115915   4.897   6.693   4.048
 5317TIP3    H215916   4.811   6.608   4.140
 5318TIP3   OH215917   4.019   5.788   4.219
 5318TIP3    H115918   4.030   5.874   4.179
 5318TIP3    H215919   4.057   5.726   4.157
 5319TIP3   OH215920   1.994   1.175   4.745
 5319TIP3    H115921   1.902   1.159   4.724
 5319TIP3    H215922   2.001   1.152   4.838
 5320TIP3   OH215923   1.920   5.166   3.208
 5320TIP3    H115924   1.917   5.242   3.265
 5320TIP3    H215925   2.005   5.125   3.226
 5321TIP3   OH215926   2.409   4.072   1.144
 5321TIP3    H115927   2.428   3.979   1.140
 5321TIP3    H215928   2.479   4.109   1.198
 5322TIP3   OH215929   0.073   0.121   4.498
 5322TIP3    H115930   0.146   0.107   4.438
 5322TIP3    H215931   0.051   0.214   4.488
 5323TIP3   OH215932   0.613   4.228   2.256
 5323TIP3    H115933   0.596   4.159   2.320
 5323TIP3    H215934   0.584   4.308   2.300
 5324TIP3   OH215935   2.394   5.300   5.169
 5324TIP3    H115936   2.489   5.295   5.177
 5324TIP3    H215937   2.378   5.319   5.076
 5325TIP3   OH215938   5.339   4.188   3.364
 5325TIP3    H115939   5.293   4.110   3.334
 5325TIP3    H215940   5.279   4.261   3.346
 5326TIP3   OH215941   2.384   6.235   2.658
 5326TIP3    H115942   2.435   6.179   2.601
 5326TIP3    H215943   2.448   6.296   2.695
 5327TIP3   OH215944   4.102   5.570   4.076
 5327TIP3    H115945   4.087   5.485   4.036
 5327TIP3    H215946   4.197   5.585   4.066
 5328TIP3   OH215947   1.385   2.169   0.210
 5328TIP3    H115948   1.439   2.109   0.159
 5328TIP3    H215949   1.313   2.192   0.152
 5329TIP3   OH215950   3.033   6.062   2.010
 5329TIP3    H115951   3.116   6.059   1.962
 5329TIP3    H215952   3.057   6.098   2.096
 5330TIP3   OH215953   3.402   0.296   3.233
 5330TIP3    H115954   3.314   0.323   3.258
 5330TIP3    H215955   3.420   0.346   3.153
 5331TIP3   OH215956   3.500   2.204   1.551
 5331TIP3    H115957   3.431   2.173   1.492
 5331TIP3    H215958   3.529   2.125   1.596
 5332TIP3   OH215959   3.996   0.545   2.929
 5332TIP3    H115960   3.951   0.506   3.004
 5332TIP3    H215961   4.073   0.491   2.916
 5333TIP3   OH215962   4.021   4.755   4.272
 5333TIP3    H115963   4.115   4.746   4.256
 5333TIP3    H215964   3.987   4.799   4.194
 5334TIP3   OH215965   4.612   5.403   4.198
 5334TIP3    H115966   4.612   5.407   4.103
 5334TIP3    H215967   4.626   5.311   4.219
 5335TIP3   OH215968   4.748   1.269   2.775
 5335TIP3    H115969   4.723   1.240   2.687
 5335TIP3    H215970   4.802   1.199   2.810
 5336TIP3   OH215971   3.740   2.067   0.922
 5336TIP3    H115972   3.650   2.095   0.936
 5336TIP3    H215973   3.784   2.087   1.005
 5337TIP3   OH215974   5.858   4.126   3.582
 5337TIP3    H115975   5.925   4.181   3.541
 5337TIP3    H215976   5.791   4.116   3.515
 5338TIP3   OH215977   3.530   0.393   3.608
 5338TIP3    H115978   3.510   0.461   3.544
 5338TIP3    H215979   3.475   0.413   3.683
 5339TIP3   OH215980   7.068   0.240   2.805
 5339TIP3    H115981   7.054   0.334   2.815
 5339TIP3    H215982   7.105   0.212   2.889
 5340TIP3   OH215983   3.054   5.270   5.840
 5340TIP3    H115984   3.068   5.221   5.921
 5340TIP3    H215985   3.133   5.255   5.789
 5341TIP3   OH215986   0.591   4.723   5.109
 5341TIP3    H115987   0.622   4.713   5.019
 5341TIP3    H215988   0.501   4.690   5.107
 5342TIP3   OH215989   1.589   0.910   5.857
 5342TIP3    H115990   1.496   0.889   5.866
 5342TIP3    H215991   1.620   0.920   5.947
 5343TIP3   OH215992   5.714   3.885   2.236
 5343TIP3    H115993   5.717   3.978   2.256
 5343TIP3    H215994   5.633   3.854   2.276
 5344TIP3   OH215995   3.930   2.704   4.691
 5344TIP3    H115996   3.912   2.677   4.781
 5344TIP3    H215997   3.941   2.622   4.643
 5345TIP3   OH215998   2.167   2.354   3.727
 5345TIP3    H115999   2.166   2.447   3.747
 5345TIP3    H216000   2.201   2.313   3.807
 5346TIP3   OH216001   2.639   4.954   3.681
 5346TIP3    H116002   2.692   5.013   3.734
 5346TIP3    H216003   2.666   4.971   3.590
 5347TIP3   OH216004   7.198   5.926   5.325
 5347TIP3    H116005   7.178   5.843   5.283
 5347TIP3    H216006   7.141   5.929   5.402
 5348TIP3   OH216007   6.109   0.610   5.249
 5348TIP3    H116008   6.188   0.663   5.241
 5348TIP3    H216009   6.109   0.581   5.341
 5349TIP3   OH216010   1.297   0.973   2.882
 5349TIP3    H116011   1.319   0.973   2.789
 5349TIP3    H216012   1.251   0.890   2.896
 5350TIP3   OH216013   0.472   6.275   2.962
 5350TIP3    H116014   0.412   6.312   3.027
 5350TIP3    H216015   0.420   6.268   2.882
 5351TIP3   OH216016   6.998   0.106   4.406
 5351TIP3    H116017   6.976   0.169   4.474
 5351TIP3    H216018   7.092   0.090   4.418
 5352TIP3   OH216019   2.806   4.295   3.190
 5352TIP3    H116020   2.870   4.231   3.223
 5352TIP3    H216021   2.837   4.314   3.101
 5353TIP3   OH216022   4.669   0.613   3.649
 5353TIP3    H116023   4.762   0.591   3.644
 5353TIP3    H216024   4.664   0.675   3.722
 5354TIP3   OH216025   0.693   0.916   2.614
 5354TIP3    H116026   0.717   0.910   2.522
 5354TIP3    H216027   0.632   0.844   2.627
 5355TIP3   OH216028   1.237   3.743   2.766
 5355TIP3    H116029   1.169   3.805   2.791
 5355TIP3    H216030   1.290   3.733   2.845
 5356TIP3   OH216031   5.507   0.577   2.745
 5356TIP3    H116032   5.422   0.544   2.718
 5356TIP3    H216033   5.545   0.615   2.666
 5357TIP3   OH216034   4.939   4.798   4.721
 5357TIP3    H116035   4.884   4.760   4.790
 5357TIP3    H216036   4.992   4.725   4.690
 5358TIP3   OH216037   2.179   6.211   2.045
 5358TIP3    H116038   2.091   6.243   2.067
 5358TIP3    H216039   2.223   6.287   2.006
 5359TIP3   OH216040   2.338   2.385   5.544
 5359TIP3    H116041   2.401   2.313   5.555
 5359TIP3    H216042   2.388   2.464   5.568
 5360TIP3   OH216043   4.974   0.028   2.848
 5360TIP3    H116044   4.962  -0.040   2.781
 5360TIP3    H216045   4.983  -0.020   2.930
 5361TIP3   OH216046   5.866   0.635   5.567
 5361TIP3    H116047   5.942   0.581   5.547
 5361TIP3    H216048   5.897   0.725   5.556
 5362TIP3   OH216049   0.031   1.227   5.062
 5362TIP3    H116050   0.094   1.171   5.019
 5362TIP3    H216051   0.060   1.230   5.154
 5363TIP3   OH216052   7.162   6.100   2.430
 5363TIP3    H116053   7.207   6.056   2.502
 5363TIP3    H216054   7.183   6.193   2.442
 5364TIP3   OH216055   4.429   0.957   5.875
 5364TIP3    H116056   4.431   1.049   5.849
 5364TIP3    H216057   4.337   0.932   5.865
 5365TIP3   OH216058   5.525   2.381   0.630
 5365TIP3    H116059   5.601   2.433   0.656
 5365TIP3    H216060   5.491   2.346   0.713
 5366TIP3   OH216061   5.879   1.628   4.605
 5366TIP3    H116062   5.841   1.607   4.519
 5366TIP3    H216063   5.830   1.704   4.635
 5367TIP3   OH216064   5.593   0.907   4.898
 5367TIP3    H116065   5.534   0.899   4.823
 5367TIP3    H216066   5.540   0.876   4.972
 5368TIP3   OH216067   4.667   0.917   5.541
 5368TIP3    H116068   4.589   0.968   5.519
 5368TIP3    H216069   4.634   0.844   5.593
 5369TIP3   OH216070   4.091   4.982   5.601
 5369TIP3    H116071   4.011   4.953   5.557
 5369TIP3    H216072   4.159   4.974   5.534
 5370TIP3   OH216073   0.674   1.856   0.675
 5370TIP3    H116074   0.692   1.949   0.664
 5370TIP3    H216075   0.760   1.815   0.684
 5371TIP3   OH216076   1.681   5.049   4.888
 5371TIP3    H116077   1.719   5.046   4.801
 5371TIP3    H216078   1.637   4.964   4.899
 5372TIP3   OH216079   4.712   0.288   4.503
 5372TIP3    H116080   4.778   0.223   4.527
 5372TIP3    H216081   4.657   0.243   4.439
 5373TIP3   OH216082   0.344   2.742   3.564
 5373TIP3    H116083   0.363   2.754   3.471
 5373TIP3    H216084   0.401   2.672   3.592
 5374TIP3   OH216085   6.454   4.069   5.652
 5374TIP3    H116086   6.375   4.118   5.676
 5374TIP3    H216087   6.495   4.122   5.584
 5375TIP3   OH216088   1.001   5.543   1.882
 5375TIP3    H116089   0.999   5.450   1.860
 5375TIP3    H216090   0.921   5.578   1.844
 5376TIP3   OH216091   0.397   2.785   2.284
 5376TIP3    H116092   0.414   2.777   2.190
 5376TIP3    H216093   0.473   2.746   2.326
 5377TIP3   OH216094   6.167   3.755   5.079
 5377TIP3    H116095   6.224   3.800   5.142
 5377TIP3    H216096   6.166   3.664   5.109
 5378TIP3   OH216097   1.420   5.457   3.684
 5378TIP3    H116098   1.504   5.413   3.676
 5378TIP3    H216099   1.415   5.483   3.776
 5379TIP3   OH216100   7.182   2.538   3.365
 5379TIP3    H116101   7.187   2.481   3.289
 5379TIP3    H216102   7.088   2.543   3.386
 5380TIP3   OH216103   6.210   5.152   1.665
 5380TIP3    H116104   6.280   5.106   1.712
 5380TIP3    H216105   6.172   5.086   1.608
 5381TIP3   OH216106   5.177   1.533   5.204
 5381TIP3    H116107   5.175   1.598   5.274
 5381TIP3    H216108   5.156   1.582   5.125
 5382TIP3   OH216109   2.912   4.973   3.294
 5382TIP3    H116110   2.972   5.036   3.255
 5382TIP3    H216111   2.967   4.899   3.320
 5383TIP3   OH216112   0.436   4.887   4.262
 5383TIP3    H116113   0.491   4.937   4.202
 5383TIP3    H216114   0.473   4.799   4.261
 5384TIP3   OH216115   2.856   4.956   2.616
 5384TIP3    H116116   2.939   4.910   2.603
 5384TIP3    H216117   2.789   4.889   2.601
 5385TIP3   OH216118   4.970   3.700   0.956
 5385TIP3    H116119   5.000   3.752   0.880
 5385TIP3    H216120   4.880   3.677   0.935
 5386TIP3   OH216121   0.637   6.155   1.670
 5386TIP3    H116122   0.577   6.190   1.736
 5386TIP3    H216123   0.721   6.196   1.690
 5387TIP3   OH216124   4.139   4.147   5.237
 5387TIP3    H116125   4.214   4.135   5.296
 5387TIP3    H216126   4.179   4.166   5.152
 5388TIP3   OH216127   5.951   6.310   4.827
 5388TIP3    H116128   6.008   6.259   4.884
 5388TIP3    H216129   5.965   6.401   4.855
 5389TIP3   OH216130   6.504   2.239   1.148
 5389TIP3    H116131   6.441   2.211   1.081
 5389TIP3    H216132   6.582   2.263   1.098
 5390TIP3   OH216133   3.208   6.164   3.499
 5390TIP3    H116134   3.241   6.083   3.538
 5390TIP3    H216135   3.285   6.221   3.492
 5391TIP3   OH216136   6.565   4.817   4.541
 5391TIP3    H116137   6.636   4.764   4.507
 5391TIP3    H216138   6.599   4.855   4.622
 5392TIP3   OH216139   0.141   4.348   3.482
 5392TIP3    H116140   0.049   4.338   3.459
 5392TIP3    H216141   0.150   4.439   3.508
 5393TIP3   OH216142   2.213   2.169   2.146
 5393TIP3    H116143   2.300   2.135   2.167
 5393TIP3    H216144   2.214   2.181   2.051
 5394TIP3   OH216145   1.572   2.409   2.472
 5394TIP3    H116146   1.548   2.481   2.414
 5394TIP3    H216147   1.657   2.378   2.438
 5395TIP3   OH216148   0.745   3.654   2.187
 5395TIP3    H116149   0.811   3.622   2.248
 5395TIP3    H216150   0.769   3.746   2.172
 5396TIP3   OH216151   1.349   0.861   0.752
 5396TIP3    H116152   1.284   0.880   0.684
 5396TIP3    H216153   1.319   0.911   0.828
 5397TIP3   OH216154   5.292   3.203   1.391
 5397TIP3    H116155   5.237   3.169   1.321
 5397TIP3    H216156   5.351   3.131   1.413
 5398TIP3   OH216157   2.195   3.666   3.368
 5398TIP3    H116158   2.181   3.731   3.437
 5398TIP3    H216159   2.227   3.589   3.414
 5399TIP3   OH216160   3.250   3.991   3.444
 5399TIP3    H116161   3.214   4.075   3.415
 5399TIP3    H216162   3.309   3.965   3.374
 5400TIP3   OH216163   1.940   2.967   0.546
 5400TIP3    H116164   1.985   3.045   0.577
 5400TIP3    H216165   1.922   2.916   0.625
 5401TIP3   OH216166   0.484   5.912   4.622
 5401TIP3    H116167   0.475   5.943   4.712
 5401TIP3    H216168   0.460   5.988   4.568
 5402TIP3   OH216169   0.719   4.210   5.795
 5402TIP3    H116170   0.721   4.232   5.888
 5402TIP3    H216171   0.627   4.190   5.777
 5403TIP3   OH216172   1.344   6.198   2.425
 5403TIP3    H116173   1.280   6.205   2.496
 5403TIP3    H216174   1.359   6.104   2.416
 5404TIP3   OH216175   1.484   4.955   2.426
 5404TIP3    H116176   1.540   5.013   2.478
 5404TIP3    H216177   1.422   5.014   2.384
 5405TIP3   OH216178   3.432   0.356   1.726
 5405TIP3    H116179   3.445   0.434   1.779
 5405TIP3    H216180   3.381   0.387   1.651
 5406TIP3   OH216181   5.603   3.417   4.545
 5406TIP3    H116182   5.645   3.335   4.570
 5406TIP3    H216183   5.614   3.421   4.450
 5407TIP3   OH216184   5.397   0.251   5.372
 5407TIP3    H116185   5.434   0.163   5.365
 5407TIP3    H216186   5.417   0.278   5.462
 5408TIP3   OH216187   1.021   0.204   1.286
 5408TIP3    H116188   0.983   0.177   1.370
 5408TIP3    H216189   1.115   0.214   1.305
 5409TIP3   OH216190   4.293   3.160   2.136
 5409TIP3    H116191   4.234   3.107   2.083
 5409TIP3    H216192   4.258   3.249   2.130
 5410TIP3   OH216193   2.809   1.288   1.610
 5410TIP3    H116194   2.853   1.342   1.544
 5410TIP3    H216195   2.716   1.306   1.598
 5411TIP3   OH216196   5.696   3.013   0.354
 5411TIP3    H116197   5.786   3.002   0.387
 5411TIP3    H216198   5.670   3.099   0.385
 5412TIP3   OH216199   1.800   1.693   2.036
 5412TIP3    H116200   1.866   1.760   2.019
 5412TIP3    H216201   1.805   1.677   2.130
 5413TIP3   OH216202   5.069   2.044   0.127
 5413TIP3    H116203   4.999   1.982   0.106
 5413TIP3    H216204   5.053   2.118   0.069
 5414TIP3   OH216205   1.746   1.972   3.021
 5414TIP3    H116206   1.717   2.062   3.010
 5414TIP3    H216207   1.835   1.971   2.985
 5415TIP3   OH216208   6.913   0.910   2.597
 5415TIP3    H116209   6.991   0.957   2.569
 5415TIP3    H216210   6.840   0.959   2.557
 5416TIP3   OH216211   0.301   4.567   4.398
 5416TIP3    H116212   0.247   4.504   4.351
 5416TIP3    H216213   0.249   4.590   4.475
 5417TIP3   OH216214   1.412   4.447   5.871
 5417TIP3    H116215   1.482   4.512   5.880
 5417TIP3    H216216   1.333   4.492   5.899
 5418TIP3   OH216217   4.177   5.857   2.328
 5418TIP3    H116218   4.106   5.841   2.390
 5418TIP3    H216219   4.150   5.936   2.280
 5419TIP3   OH216220   2.982   0.609   4.823
 5419TIP3    H116221   2.993   0.547   4.896
 5419TIP3    H216222   2.991   0.695   4.863
 5420TIP3   OH216223   5.533   3.157   2.243
 5420TIP3    H116224   5.480   3.198   2.311
 5420TIP3    H216225   5.594   3.226   2.215
 5421TIP3   OH216226   2.648   6.161   1.678
 5421TIP3    H116227   2.728   6.136   1.724
 5421TIP3    H216228   2.579   6.154   1.745
 5422TIP3   OH216229   0.347   0.876   4.191
 5422TIP3    H116230   0.413   0.886   4.122
 5422TIP3    H216231   0.369   0.794   4.234
 5423TIP3   OH216232   3.408   6.323   5.207
 5423TIP3    H116233   3.472   6.393   5.194
 5423TIP3    H216234   3.386   6.294   5.118
 5424TIP3   OH216235   2.900   3.789   3.244
 5424TIP3    H116236   2.946   3.730   3.184
 5424TIP3    H216237   2.904   3.745   3.329
 5425TIP3   OH216238   0.822   2.594   2.956
 5425TIP3    H116239   0.728   2.582   2.971
 5425TIP3    H216240   0.827   2.640   2.873
 5426TIP3   OH216241   3.403   1.313   5.717
 5426TIP3    H116242   3.496   1.335   5.711
 5426TIP3    H216243   3.378   1.338   5.806
 5427TIP3   OH216244   4.622   2.677   1.916
 5427TIP3    H116245   4.663   2.664   1.831
 5427TIP3    H216246   4.689   2.721   1.968
 5428TIP3   OH216247   3.182   1.266   1.958
 5428TIP3    H116248   3.147   1.187   1.999
 5428TIP3    H216249   3.107   1.324   1.949
 5429TIP3   OH216250   3.825   6.657   3.739
 5429TIP3    H116251   3.800   6.639   3.830
 5429TIP3    H216252   3.903   6.604   3.725
 5430TIP3   OH216253   6.969   4.482   5.307
 5430TIP3    H116254   6.976   4.490   5.211
 5430TIP3    H216255   6.880   4.511   5.327
 5431TIP3   OH216256   0.383   0.348   1.503
 5431TIP3    H116257   0.373   0.332   1.409
 5431TIP3    H216258   0.300   0.390   1.529
 5432TIP3   OH216259   4.448   3.913   3.608
 5432TIP3    H116260   4.385   3.933   3.539
 5432TIP3    H216261   4.418   3.965   3.683
 5433TIP3   OH216262   6.514   6.045   1.445
 5433TIP3    H116263   6.478   5.960   1.417
 5433TIP3    H216264   6.521   6.037   1.540
 5434TIP3   OH216265   6.898   4.639   3.385
 5434TIP3    H116266   6.850   4.658   3.304
 5434TIP3    H216267   6.949   4.718   3.401
 5435TIP3   OH216268   5.705   2.915   3.310
 5435TIP3    H116269   5.689   2.843   3.248
 5435TIP3    H216270   5.784   2.958   3.279
 5436TIP3   OH216271   0.909   2.244   2.865
 5436TIP3    H116272   0.960   2.171   2.831
 5436TIP3    H216273   0.833   2.202   2.906
 5437TIP3   OH216274   3.352   5.495   1.467
 5437TIP3    H116275   3.348   5.487   1.372
 5437TIP3    H216276   3.261   5.485   1.496
 5438TIP3   OH216277   0.780   4.606   2.301
 5438TIP3    H116278   0.827   4.530   2.265
 5438TIP3    H216279   0.732   4.570   2.376
 5439TIP3   OH216280   6.482   6.804   4.040
 5439TIP3    H116281   6.397   6.761   4.042
 5439TIP3    H216282   6.472   6.874   3.976
 5440TIP3   OH216283   6.399   1.200   3.928
 5440TIP3    H116284   6.325   1.149   3.894
 5440TIP3    H216285   6.383   1.289   3.896
 5441TIP3   OH216286   6.606   6.307   1.556
 5441TIP3    H116287   6.617   6.224   1.510
 5441TIP3    H216288   6.637   6.289   1.645
 5442TIP3   OH216289   0.837   5.791   3.979
 5442TIP3    H116290   0.858   5.873   4.023
 5442TIP3    H216291   0.923   5.751   3.962
 5443TIP3   OH216292   2.139   0.543   4.770
 5443TIP3    H116293   2.103   0.505   4.850
 5443TIP3    H216294   2.093   0.498   4.699
 5444TIP3   OH216295   4.477   6.076   5.755
 5444TIP3    H116296   4.565   6.074   5.792
 5444TIP3    H216297   4.473   6.159   5.707
 5445TIP3   OH216298   4.400   0.402   4.297
 5445TIP3    H116299   4.449   0.320   4.286
 5445TIP3    H216300   4.314   0.384   4.260
 5446TIP3   OH216301   5.266   5.465   1.474
 5446TIP3    H116302   5.263   5.534   1.541
 5446TIP3    H216303   5.277   5.384   1.523
 5447TIP3   OH216304   5.012   4.399   3.838
 5447TIP3    H116305   4.928   4.402   3.884
 5447TIP3    H216306   5.077   4.419   3.905
 5448TIP3   OH216307   5.131   3.568   5.687
 5448TIP3    H116308   5.078   3.597   5.612
 5448TIP3    H216309   5.076   3.504   5.732
 5449TIP3   OH216310   6.004   4.153   5.233
 5449TIP3    H116311   6.000   4.246   5.209
 5449TIP3    H216312   6.013   4.107   5.149
 5450TIP3   OH216313   6.625   2.732   4.339
 5450TIP3    H116314   6.713   2.735   4.376
 5450TIP3    H216315   6.615   2.643   4.306
 5451TIP3   OH216316   2.331   0.273   4.744
 5451TIP3    H116317   2.241   0.303   4.750
 5451TIP3    H216318   2.343   0.216   4.820
 5452TIP3   OH216319   5.392   4.584   5.700
 5452TIP3    H116320   5.466   4.525   5.713
 5452TIP3    H216321   5.318   4.540   5.741
 5453TIP3   OH216322   0.692   5.844   1.054
 5453TIP3    H116323   0.683   5.920   0.997
 5453TIP3    H216324   0.768   5.796   1.019
 5454TIP3   OH216325   1.280   1.290   4.192
 5454TIP3    H116326   1.212   1.232   4.226
 5454TIP3    H216327   1.350   1.286   4.258
 5455TIP3   OH216328   1.492   4.844   3.642
 5455TIP3    H116329   1.570   4.885   3.678
 5455TIP3    H216330   1.512   4.833   3.549
 5456TIP3   OH216331   1.522   4.738   0.521
 5456TIP3    H116332   1.500   4.667   0.460
 5456TIP3    H216333   1.550   4.693   0.601
 5457TIP3   OH216334  -0.073   1.165   5.749
 5457TIP3    H116335  -0.069   1.251   5.708
 5457TIP3    H216336  -0.022   1.108   5.692
 5458TIP3   OH216337   2.699   3.292   2.431
 5458TIP3    H116338   2.655   3.207   2.434
 5458TIP3    H216339   2.757   3.286   2.355
 5459TIP3   OH216340   4.010   0.542   4.759
 5459TIP3    H116341   4.005   0.472   4.693
 5459TIP3    H216342   4.052   0.615   4.714
 5460TIP3   OH216343   6.151   4.071   0.092
 5460TIP3    H116344   6.221   4.093   0.154
 5460TIP3    H216345   6.131   4.154   0.049
 5461TIP3   OH216346   6.183   1.772   0.929
 5461TIP3    H116347   6.256   1.726   0.887
 5461TIP3    H216348   6.146   1.826   0.859
 5462TIP3   OH216349   2.802   2.881   3.471
 5462TIP3    H116350   2.752   2.910   3.395
 5462TIP3    H216351   2.852   2.805   3.439
 5463TIP3   OH216352   0.906   1.801   4.754
 5463TIP3    H116353   0.938   1.790   4.844
 5463TIP3    H216354   0.828   1.746   4.750
 5464TIP3   OH216355   1.155   1.835   0.325
 5464TIP3    H116356   1.160   1.897   0.253
 5464TIP3    H216357   1.064   1.806   0.326
 5465TIP3   OH216358   0.554   1.349   3.654
 5465TIP3    H116359   0.476   1.404   3.658
 5465TIP3    H216360   0.597   1.364   3.738
 5466TIP3   OH216361   6.610   1.913   5.603
 5466TIP3    H116362   6.659   1.838   5.571
 5466TIP3    H216363   6.668   1.955   5.666
 5467TIP3   OH216364   4.645   5.362   1.646
 5467TIP3    H116365   4.648   5.345   1.740
 5467TIP3    H216366   4.709   5.301   1.609
 5468TIP3   OH216367   4.160   0.696   2.753
 5468TIP3    H116368   4.126   0.645   2.827
 5468TIP3    H216369   4.101   0.676   2.681
 5469TIP3   OH216370   6.296   3.587   1.527
 5469TIP3    H116371   6.325   3.496   1.528
 5469TIP3    H216372   6.215   3.586   1.475
 5470TIP3   OH216373   7.108   2.359   5.326
 5470TIP3    H116374   7.028   2.324   5.365
 5470TIP3    H216375   7.154   2.402   5.398
 5471TIP3   OH216376   3.738   4.329   0.116
 5471TIP3    H116377   3.781   4.413   0.132
 5471TIP3    H216378   3.734   4.287   0.202
 5472TIP3   OH216379   5.194   1.241   4.584
 5472TIP3    H116380   5.202   1.148   4.563
 5472TIP3    H216381   5.102   1.261   4.567
 5473TIP3   OH216382   0.429   0.267   0.787
 5473TIP3    H116383   0.439   0.358   0.760
 5473TIP3    H216384   0.510   0.246   0.832
 5474TIP3   OH216385   1.751   3.233   3.126
 5474TIP3    H116386   1.771   3.321   3.094
 5474TIP3    H216387   1.778   3.233   3.217
 5475TIP3   OH216388   1.427   1.520   2.028
 5475TIP3    H116389   1.451   1.427   2.035
 5475TIP3    H216390   1.455   1.545   1.941
 5476TIP3   OH216391   5.013   5.167   3.711
 5476TIP3    H116392   5.089   5.109   3.704
 5476TIP3    H216393   5.008   5.210   3.625
 5477TIP3   OH216394   4.333   2.966   5.566
 5477TIP3    H116395   4.361   2.884   5.524
 5477TIP3    H216396   4.375   3.035   5.515
 5478TIP3   OH216397   4.792   6.462   3.713
 5478TIP3    H116398   4.780   6.557   3.703
 5478TIP3    H216399   4.791   6.448   3.807
 5479TIP3   OH216400   3.876   0.320   3.763
 5479TIP3    H116401   3.788   0.305   3.728
 5479TIP3    H216402   3.893   0.413   3.746
 5480TIP3   OH216403   5.930   5.984   2.531
 5480TIP3    H116404   6.015   5.945   2.550
 5480TIP3    H216405   5.868   5.912   2.536
 5481TIP3   OH216406   5.624   2.911   1.752
 5481TIP3    H116407   5.656   2.971   1.819
 5481TIP3    H216408   5.529   2.924   1.751
 5482TIP3   OH216409   7.006   0.036   3.282
 5482TIP3    H116410   7.065  -0.036   3.306
 5482TIP3    H216411   7.064   0.105   3.249
 5483TIP3   OH216412   4.325   0.015   5.791
 5483TIP3    H116413   4.338  -0.079   5.778
 5483TIP3    H216414   4.233   0.030   5.768
 5484TIP3   OH216415   6.870   2.339   5.479
 5484TIP3    H116416   6.777   2.317   5.487
 5484TIP3    H216417   6.883   2.410   5.542
 5485TIP3   OH216418   5.463   3.890   1.538
 5485TIP3    H116419   5.388   3.832   1.524
 5485TIP3    H216420   5.525   3.865   1.470
 5486TIP3   OH216421   5.319   5.077   5.298
 5486TIP3    H116422   5.226   5.083   5.278
 5486TIP3    H216423   5.345   5.166   5.319
 5487TIP3   OH216424   4.846   3.970   3.745
 5487TIP3    H116425   4.850   3.957   3.840
 5487TIP3    H216426   4.937   3.965   3.716
 5488TIP3   OH216427   4.896   2.456   4.711
 5488TIP3    H116428   4.896   2.370   4.670
 5488TIP3    H216429   4.897   2.518   4.638
 5489TIP3   OH216430   3.926   6.633   5.505
 5489TIP3    H116431   3.992   6.567   5.483
 5489TIP3    H216432   3.891   6.660   5.420
 5490TIP3   OH216433   3.784   1.790   1.868
 5490TIP3    H116434   3.859   1.849   1.869
 5490TIP3    H216435   3.811   1.717   1.924
 5491TIP3   OH216436   1.306   6.579   3.885
 5491TIP3    H116437   1.349   6.665   3.895
 5491TIP3    H216438   1.377   6.516   3.894
 5492TIP3   OH216439   5.098   0.626   5.029
 5492TIP3    H116440   5.150   0.584   4.961
 5492TIP3    H216441   5.101   0.719   5.008
 5493TIP3   OH216442   3.298   1.752   3.277
 5493TIP3    H116443   3.221   1.798   3.245
 5493TIP3    H216444   3.334   1.809   3.345
 5494TIP3   OH216445   1.820   6.196   4.592
 5494TIP3    H116446   1.794   6.192   4.501
 5494TIP3    H216447   1.838   6.105   4.616
 5495TIP3   OH216448   3.803   0.869   0.280
 5495TIP3    H116449   3.854   0.921   0.219
 5495TIP3    H216450   3.862   0.850   0.352
 5496TIP3   OH216451   5.847   0.443   2.372
 5496TIP3    H116452   5.879   0.377   2.310
 5496TIP3    H216453   5.820   0.516   2.316
 5497TIP3   OH216454   5.071   5.870   1.151
 5497TIP3    H116455   5.153   5.856   1.199
 5497TIP3    H216456   5.096   5.929   1.079
 5498TIP3   OH216457   0.659   1.006   1.554
 5498TIP3    H116458   0.721   1.052   1.498
 5498TIP3    H216459   0.699   0.921   1.570
 5499TIP3   OH216460   4.089   6.754   3.881
 5499TIP3    H116461   4.127   6.737   3.967
 5499TIP3    H216462   4.084   6.667   3.840
 5500TIP3   OH216463   2.018   6.088   5.066
 5500TIP3    H116464   2.036   6.007   5.018
 5500TIP3    H216465   1.945   6.064   5.124
 5501TIP3   OH216466   5.581   6.264   2.920
 5501TIP3    H116467   5.661   6.213   2.910
 5501TIP3    H216468   5.587   6.301   3.009
 5502TIP3   OH216469   2.217   6.591   4.465
 5502TIP3    H116470   2.123   6.589   4.484
 5502TIP3    H216471   2.224   6.637   4.382
 5503TIP3   OH216472   3.871   4.902   5.454
 5503TIP3    H116473   3.810   4.845   5.408
 5503TIP3    H216474   3.821   4.983   5.469
 5504TIP3   OH216475   4.128   4.909   3.148
 5504TIP3    H116476   4.214   4.895   3.110
 5504TIP3    H216477   4.141   4.980   3.212
 5505TIP3   OH216478   0.314   0.907   3.889
 5505TIP3    H116479   0.320   0.942   3.800
 5505TIP3    H216480   0.352   0.975   3.944
 5506TIP3   OH216481   2.187   4.752   1.411
 5506TIP3    H116482   2.239   4.820   1.368
 5506TIP3    H216483   2.101   4.757   1.369
 5507TIP3   OH216484   6.365   5.363   4.510
 5507TIP3    H116485   6.319   5.411   4.579
 5507TIP3    H216486   6.402   5.286   4.556
 5508TIP3   OH216487   2.054   3.700   4.100
 5508TIP3    H116488   2.045   3.795   4.108
 5508TIP3    H216489   2.128   3.687   4.041
 5509TIP3   OH216490   2.329   4.819   0.240
 5509TIP3    H116491   2.358   4.733   0.271
 5509TIP3    H216492   2.386   4.838   0.165
 5510TIP3   OH216493   5.866   1.566   2.020
 5510TIP3    H116494   5.880   1.472   2.010
 5510TIP3    H216495   5.921   1.590   2.095
 5511TIP3   OH216496   6.806   3.170   5.120
 5511TIP3    H116497   6.772   3.204   5.203
 5511TIP3    H216498   6.896   3.145   5.140
 5512TIP3   OH216499   2.331   3.706   3.077
 5512TIP3    H116500   2.250   3.703   3.128
 5512TIP3    H216501   2.400   3.685   3.140
 5513TIP3   OH216502   1.176   1.234   4.702
 5513TIP3    H116503   1.151   1.290   4.628
 5513TIP3    H216504   1.269   1.254   4.716
 5514TIP3   OH216505   5.784   6.123   0.357
 5514TIP3    H116506   5.710   6.063   0.360
 5514TIP3    H216507   5.845   6.090   0.424
 5515TIP3   OH216508   4.218   2.097   3.085
 5515TIP3    H116509   4.273   2.022   3.109
 5515TIP3    H216510   4.207   2.146   3.166
 5516TIP3   OH216511   0.626   0.920   3.344
 5516TIP3    H116512   0.640   0.865   3.267
 5516TIP3    H216513   0.708   0.913   3.393
 5517TIP3   OH216514   0.673   2.621   4.503
 5517TIP3    H116515   0.692   2.704   4.547
 5517TIP3    H216516   0.647   2.647   4.415
 5518TIP3   OH216517   1.592   1.951   0.281
 5518TIP3    H116518   1.633   2.004   0.350
 5518TIP3    H216519   1.600   2.004   0.202
 5519TIP3   OH216520   2.722   2.003   5.068
 5519TIP3    H116521   2.787   2.072   5.064
 5519TIP3    H216522   2.638   2.047   5.053
 5520TIP3   OH216523   3.020   1.383   2.480
 5520TIP3    H116524   2.959   1.444   2.522
 5520TIP3    H216525   3.106   1.425   2.492
 5521TIP3   OH216526   2.218   4.444   2.915
 5521TIP3    H116527   2.232   4.349   2.912
 5521TIP3    H216528   2.274   4.474   2.987
 5522TIP3   OH216529   3.213   3.785   5.352
 5522TIP3    H116530   3.214   3.694   5.382
 5522TIP3    H216531   3.158   3.831   5.416
 5523TIP3   OH216532   4.764   2.929   0.879
 5523TIP3    H116533   4.842   2.948   0.827
 5523TIP3    H216534   4.754   2.834   0.874
 5524TIP3   OH216535   0.639   1.311   4.529
 5524TIP3    H116536   0.570   1.290   4.466
 5524TIP3    H216537   0.592   1.340   4.607
 5525TIP3   OH216538   4.063   3.533   4.524
 5525TIP3    H116539   3.969   3.550   4.515
 5525TIP3    H216540   4.068   3.451   4.573
 5526TIP3   OH216541   0.145   0.603  -0.079
 5526TIP3    H116542   0.057   0.639  -0.065
 5526TIP3    H216543   0.196   0.636  -0.005
 5527TIP3   OH216544   2.237   1.906   5.849
 5527TIP3    H116545   2.285   1.988   5.835
 5527TIP3    H216546   2.294   1.855   5.907
 5528TIP3   OH216547   1.189   0.944   4.267
 5528TIP3    H116548   1.251   0.968   4.336
 5528TIP3    H216549   1.170   0.851   4.283
 5529TIP3   OH216550   6.613   1.100   1.008
 5529TIP3    H116551   6.600   1.188   1.044
 5529TIP3    H216552   6.704   1.080   1.026
 5530TIP3   OH216553   2.523   2.812   3.537
 5530TIP3    H116554   2.616   2.832   3.548
 5530TIP3    H216555   2.521   2.720   3.513
 5531TIP3   OH216556   4.234   4.728   3.902
 5531TIP3    H116557   4.256   4.653   3.957
 5531TIP3    H216558   4.167   4.696   3.843
 5532TIP3   OH216559   0.373   3.610   3.375
 5532TIP3    H116560   0.425   3.584   3.452
 5532TIP3    H216561   0.283   3.614   3.407
 5533TIP3   OH216562   2.027   2.824   3.695
 5533TIP3    H116563   2.099   2.787   3.747
 5533TIP3    H216564   1.948   2.798   3.741
 5534TIP3   OH216565   1.711   5.925   3.760
 5534TIP3    H116566   1.647   5.957   3.697
 5534TIP3    H216567   1.769   5.868   3.709
 5535TIP3   OH216568   5.207   2.712   3.783
 5535TIP3    H116569   5.257   2.792   3.763
 5535TIP3    H216570   5.150   2.699   3.707
 5536TIP3   OH216571   2.773   3.490   4.798
 5536TIP3    H116572   2.715   3.421   4.829
 5536TIP3    H216573   2.771   3.556   4.867
 5537TIP3   OH216574   5.646   4.118   0.634
 5537TIP3    H116575   5.715   4.059   0.606
 5537TIP3    H216576   5.592   4.131   0.555
 5538TIP3   OH216577   6.280   4.731   2.427
 5538TIP3    H116578   6.194   4.688   2.422
 5538TIP3    H216579   6.272   4.791   2.501
 5539TIP3   OH216580   0.503   0.692   1.129
 5539TIP3    H116581   0.456   0.771   1.101
 5539TIP3    H216582   0.435   0.634   1.163
 5540TIP3   OH216583   6.554   3.335   5.159
 5540TIP3    H116584   6.514   3.302   5.078
 5540TIP3    H216585   6.535   3.267   5.224
 5541TIP3   OH216586   2.272   0.684   5.253
 5541TIP3    H116587   2.367   0.686   5.248
 5541TIP3    H216588   2.244   0.666   5.163
 5542TIP3   OH216589   6.533   1.253   4.961
 5542TIP3    H116590   6.556   1.161   4.975
 5542TIP3    H216591   6.466   1.250   4.893
 5543TIP3   OH216592   1.601   6.730   5.262
 5543TIP3    H116593   1.617   6.762   5.350
 5543TIP3    H216594   1.541   6.795   5.223
 5544TIP3   OH216595  -0.030   3.069   3.641
 5544TIP3    H116596   0.035   3.001   3.656
 5544TIP3    H216597  -0.086   3.035   3.572
 5545TIP3   OH216598   3.312   2.288   1.866
 5545TIP3    H116599   3.270   2.237   1.797
 5545TIP3    H216600   3.364   2.224   1.915
 5546TIP3   OH216601   5.275   2.051   4.062
 5546TIP3    H116602   5.302   2.112   4.131
 5546TIP3    H216603   5.339   2.065   3.992
 5547TIP3   OH216604   2.418   3.980   3.345
 5547TIP3    H116605   2.407   4.049   3.411
 5547TIP3    H216606   2.331   3.968   3.308
 5548TIP3   OH216607   1.786   3.569   5.637
 5548TIP3    H116608   1.867   3.575   5.586
 5548TIP3    H216609   1.810   3.515   5.712
 5549TIP3   OH216610   0.063   3.125   2.085
 5549TIP3    H116611  -0.010   3.185   2.100
 5549TIP3    H216612   0.031   3.065   2.018
 5550TIP3   OH216613   5.881   2.436   3.029
 5550TIP3    H116614   5.965   2.392   3.037
 5550TIP3    H216615   5.901   2.516   2.979
 5551TIP3   OH216616   3.599   6.047   4.594
 5551TIP3    H116617   3.694   6.036   4.602
 5551TIP3    H216618   3.563   5.995   4.665
 5552TIP3   OH216619   6.891   0.035   1.036
 5552TIP3    H116620   6.880   0.093   0.960
 5552TIP3    H216621   6.889  -0.053   0.999
 5553TIP3   OH216622   0.144   1.131   3.689
 5553TIP3    H116623   0.112   1.215   3.722
 5553TIP3    H216624   0.081   1.106   3.622
 5554TIP3   OH216625   2.225   2.530   3.211
 5554TIP3    H116626   2.186   2.592   3.272
 5554TIP3    H216627   2.154   2.508   3.150
 5555TIP3   OH216628   0.827   0.083   4.853
 5555TIP3    H116629   0.902   0.134   4.823
 5555TIP3    H216630   0.862   0.025   4.920
 5556TIP3   OH216631   1.730   2.803   4.310
 5556TIP3    H116632   1.733   2.715   4.348
 5556TIP3    H216633   1.821   2.822   4.286
 5557TIP3   OH216634   1.591   4.984   3.041
 5557TIP3    H116635   1.646   4.907   3.053
 5557TIP3    H216636   1.550   4.972   2.955
 5558TIP3   OH216637   3.949   4.517   2.923
 5558TIP3    H116638   4.018   4.514   2.857
 5558TIP3    H216639   3.902   4.434   2.912
 5559TIP3   OH216640   7.024   5.567   2.424
 5559TIP3    H116641   6.956   5.592   2.362
 5559TIP3    H216642   7.003   5.615   2.504
 5560TIP3   OH216643   0.322   4.482   2.074
 5560TIP3    H116644   0.325   4.397   2.031
 5560TIP3    H216645   0.399   4.528   2.040
 5561TIP3   OH216646   6.548   5.467   3.856
 5561TIP3    H116647   6.484   5.535   3.836
 5561TIP3    H216648   6.495   5.389   3.876
 5562TIP3   OH216649   3.857   4.072   2.779
 5562TIP3    H116650   3.812   3.991   2.806
 5562TIP3    H216651   3.787   4.127   2.745
 5563TIP3   OH216652   3.958   2.683   0.210
 5563TIP3    H116653   3.864   2.695   0.217
 5563TIP3    H216654   3.986   2.747   0.145
 5564TIP3   OH216655   4.770   0.972   5.871
 5564TIP3    H116656   4.721   0.890   5.868
 5564TIP3    H216657   4.839   0.960   5.806
 5565TIP3   OH216658   5.916   4.979   2.407
 5565TIP3    H116659   5.902   4.992   2.501
 5565TIP3    H216660   5.831   4.997   2.368
 5566TIP3   OH216661   6.694   4.707   0.338
 5566TIP3    H116662   6.751   4.778   0.368
 5566TIP3    H216663   6.754   4.645   0.295
 5567TIP3   OH216664   5.201   0.954   1.860
 5567TIP3    H116665   5.174   0.868   1.826
 5567TIP3    H216666   5.282   0.974   1.812
 5568TIP3   OH216667   6.730   4.727   0.941
 5568TIP3    H116668   6.702   4.653   0.886
 5568TIP3    H216669   6.734   4.691   1.029
 5569TIP3   OH216670   1.130   5.778   0.744
 5569TIP3    H116671   1.162   5.801   0.657
 5569TIP3    H216672   1.040   5.750   0.731
 5570TIP3   OH216673   2.639   4.048   4.356
 5570TIP3    H116674   2.682   3.965   4.337
 5570TIP3    H216675   2.677   4.077   4.439
 5571TIP3   OH216676   2.653   0.973   2.832
 5571TIP3    H116677   2.719   0.950   2.898
 5571TIP3    H216678   2.575   0.925   2.860
 5572TIP3   OH216679   2.892   2.201   5.016
 5572TIP3    H116680   2.896   2.296   5.008
 5572TIP3    H216681   2.965   2.178   5.074
 5573TIP3   OH216682   2.461   4.329   0.725
 5573TIP3    H116683   2.497   4.404   0.679
 5573TIP3    H216684   2.501   4.253   0.684
 5574TIP3   OH216685   5.774   4.173   4.707
 5574TIP3    H116686   5.840   4.174   4.777
 5574TIP3    H216687   5.781   4.086   4.669
 5575TIP3   OH216688   1.417   6.275   4.438
 5575TIP3    H116689   1.447   6.192   4.474
 5575TIP3    H216690   1.375   6.320   4.512
 5576TIP3   OH216691   2.956   0.829   5.780
 5576TIP3    H116692   2.933   0.788   5.697
 5576TIP3    H216693   2.898   0.905   5.786
 5577TIP3   OH216694   6.627   0.315   1.452
 5577TIP3    H116695   6.692   0.384   1.456
 5577TIP3    H216696   6.632   0.282   1.362
 5578TIP3   OH216697   6.082   5.416   0.372
 5578TIP3    H116698   6.170   5.381   0.386
 5578TIP3    H216699   6.050   5.371   0.294
 5579TIP3   OH216700   2.843   2.154   2.848
 5579TIP3    H116701   2.757   2.112   2.848
 5579TIP3    H216702   2.864   2.167   2.940
 5580TIP3   OH216703   2.643   0.797   0.973
 5580TIP3    H116704   2.602   0.717   0.939
 5580TIP3    H216705   2.571   0.842   1.018
 5581TIP3   OH216706   3.491   0.314   0.627
 5581TIP3    H116707   3.551   0.359   0.686
 5581TIP3    H216708   3.445   0.251   0.682
 5582TIP3   OH216709   3.337   3.912   4.379
 5582TIP3    H116710   3.288   3.951   4.452
 5582TIP3    H216711   3.423   3.955   4.383
 5583TIP3   OH216712   1.822   4.455   4.870
 5583TIP3    H116713   1.830   4.510   4.947
 5583TIP3    H216714   1.802   4.368   4.905
 5584TIP3   OH216715   2.259   0.487   2.675
 5584TIP3    H116716   2.169   0.457   2.663
 5584TIP3    H216717   2.304   0.462   2.594
 5585TIP3   OH216718   3.121   4.737   1.752
 5585TIP3    H116719   3.212   4.718   1.729
 5585TIP3    H216720   3.117   4.833   1.756
 5586TIP3   OH216721   3.355   6.636   3.536
 5586TIP3    H116722   3.282   6.590   3.578
 5586TIP3    H216723   3.421   6.645   3.605
 5587TIP3   OH216724   3.045   2.546   2.690
 5587TIP3    H116725   3.124   2.583   2.650
 5587TIP3    H216726   2.985   2.620   2.697
 5588TIP3   OH216727   6.185   1.492   3.112
 5588TIP3    H116728   6.093   1.470   3.127
 5588TIP3    H216729   6.206   1.452   3.027
 5589TIP3   OH216730   1.576   4.533   0.316
 5589TIP3    H116731   1.668   4.544   0.339
 5589TIP3    H216732   1.571   4.560   0.224
 5590TIP3   OH216733   4.664   1.942   5.817
 5590TIP3    H116734   4.665   2.001   5.741
 5590TIP3    H216735   4.669   1.854   5.779
 5591TIP3   OH216736   0.833   5.305   4.784
 5591TIP3    H116737   0.827   5.278   4.876
 5591TIP3    H216738   0.905   5.253   4.748
 5592TIP3   OH216739   1.302   1.287   3.712
 5592TIP3    H116740   1.246   1.229   3.764
 5592TIP3    H216741   1.308   1.367   3.763
 5593TIP3   OH216742   0.436   5.139   1.234
 5593TIP3    H116743   0.420   5.222   1.190
 5593TIP3    H216744   0.355   5.090   1.224
 5594TIP3   OH216745   6.683   3.122   2.251
 5594TIP3    H116746   6.758   3.144   2.306
 5594TIP3    H216747   6.611   3.106   2.312
 5595TIP3   OH216748   3.478   2.401   5.935
 5595TIP3    H116749   3.563   2.422   5.897
 5595TIP3    H216750   3.467   2.308   5.919
 5596TIP3   OH216751   5.613   4.384   4.622
 5596TIP3    H116752   5.592   4.430   4.703
 5596TIP3    H216753   5.635   4.295   4.649
 5597TIP3   OH216754   6.839   4.907   5.301
 5597TIP3    H116755   6.907   4.894   5.367
 5597TIP3    H216756   6.870   4.981   5.249
 5598TIP3   OH216757   0.100   4.422   0.688
 5598TIP3    H116758   0.172   4.419   0.624
 5598TIP3    H216759   0.143   4.424   0.773
 5599TIP3   OH216760   4.009   6.427   4.312
 5599TIP3    H116761   4.090   6.470   4.339
 5599TIP3    H216762   4.033   6.335   4.300
 5600TIP3   OH216763   1.803   4.426   3.586
 5600TIP3    H116764   1.855   4.353   3.554
 5600TIP3    H216765   1.757   4.391   3.663
 5601TIP3   OH216766   5.173   0.271   3.507
 5601TIP3    H116767   5.202   0.290   3.597
 5601TIP3    H216768   5.220   0.335   3.453
 5602TIP3   OH216769   3.016   3.857   3.953
 5602TIP3    H116770   3.096   3.831   3.998
 5602TIP3    H216771   3.045   3.913   3.882
 5603TIP3   OH216772   2.093   4.553   4.258
 5603TIP3    H116773   2.123   4.492   4.190
 5603TIP3    H216774   2.034   4.613   4.212
 5604TIP3   OH216775   1.509   6.115   3.218
 5604TIP3    H116776   1.433   6.123   3.276
 5604TIP3    H216777   1.488   6.041   3.161
 5605TIP3   OH216778   6.333   0.517   3.334
 5605TIP3    H116779   6.274   0.445   3.356
 5605TIP3    H216780   6.292   0.558   3.258
 5606TIP3   OH216781   3.044   1.429   4.558
 5606TIP3    H116782   3.100   1.383   4.619
 5606TIP3    H216783   2.960   1.436   4.602
 5607TIP3   OH216784   1.760   0.526   1.885
 5607TIP3    H116785   1.782   0.615   1.858
 5607TIP3    H216786   1.678   0.535   1.934
 5608TIP3   OH216787   1.844   2.818   1.529
 5608TIP3    H116788   1.777   2.858   1.585
 5608TIP3    H216789   1.797   2.790   1.451
 5609TIP3   OH216790   4.701   3.279   4.386
 5609TIP3    H116791   4.690   3.248   4.297
 5609TIP3    H216792   4.764   3.351   4.379
 5610TIP3   OH216793   0.279   0.434   3.485
 5610TIP3    H116794   0.362   0.478   3.501
 5610TIP3    H216795   0.286   0.399   3.396
 5611TIP3   OH216796   0.637   2.242   5.139
 5611TIP3    H116797   0.550   2.227   5.102
 5611TIP3    H216798   0.698   2.217   5.069
 5612TIP3   OH216799   4.153   5.549   3.576
 5612TIP3    H116800   4.125   5.512   3.492
 5612TIP3    H216801   4.117   5.637   3.576
 5613TIP3   OH216802   6.498   4.039   2.890
 5613TIP3    H116803   6.545   3.970   2.935
 5613TIP3    H216804   6.561   4.075   2.827
 5614TIP3   OH216805   6.800   5.632   0.631
 5614TIP3    H116806   6.709   5.618   0.605
 5614TIP3    H216807   6.801   5.721   0.666
 5615TIP3   OH216808   3.135   5.798   2.133
 5615TIP3    H116809   3.112   5.718   2.087
 5615TIP3    H216810   3.062   5.858   2.115
 5616TIP3   OH216811   5.759   3.666   0.379
 5616TIP3    H116812   5.746   3.590   0.436
 5616TIP3    H216813   5.678   3.673   0.329
 5617TIP3   OH216814   6.256   3.732   2.188
 5617TIP3    H116815   6.171   3.758   2.223
 5617TIP3    H216816   6.244   3.728   2.093
 5618TIP3   OH216817   2.571   0.477   0.561
 5618TIP3    H116818   2.655   0.446   0.527
 5618TIP3    H216819   2.512   0.402   0.551
 5619TIP3   OH216820   3.073   2.652   4.719
 5619TIP3    H116821   3.056   2.564   4.686
 5619TIP3    H216822   3.164   2.669   4.694
 5620TIP3   OH216823   5.545   1.349   3.739
 5620TIP3    H116824   5.519   1.324   3.651
 5620TIP3    H216825   5.573   1.267   3.780
 5621TIP3   OH216826   4.282   2.842   0.812
 5621TIP3    H116827   4.340   2.877   0.879
 5621TIP3    H216828   4.194   2.853   0.849
 5622TIP3   OH216829   0.263   5.248   1.735
 5622TIP3    H116830   0.192   5.187   1.757
 5622TIP3    H216831   0.257   5.258   1.640
 5623TIP3   OH216832   5.924   3.187   0.423
 5623TIP3    H116833   5.975   3.229   0.493
 5623TIP3    H216834   5.989   3.135   0.375
 5624TIP3   OH216835   0.873   4.565   1.584
 5624TIP3    H116836   0.818   4.487   1.579
 5624TIP3    H216837   0.958   4.533   1.615
 5625TIP3   OH216838   6.901   6.095   2.531
 5625TIP3    H116839   6.910   6.159   2.601
 5625TIP3    H216840   6.988   6.092   2.490
 5626TIP3   OH216841   3.174   3.604   5.705
 5626TIP3    H116842   3.207   3.560   5.784
 5626TIP3    H216843   3.251   3.620   5.652
 5627TIP3   OH216844   1.336   3.962   5.755
 5627TIP3    H116845   1.274   4.017   5.706
 5627TIP3    H216846   1.416   4.014   5.759
 5628TIP3   OH216847   5.269   6.022   0.330
 5628TIP3    H116848   5.272   6.087   0.401
 5628TIP3    H216849   5.182   5.983   0.338
 5629TIP3   OH216850   2.247   1.894   5.024
 5629TIP3    H116851   2.323   1.952   5.014
 5629TIP3    H216852   2.280   1.807   5.002
 5630TIP3   OH216853   6.862   0.631   2.136
 5630TIP3    H116854   6.844   0.686   2.060
 5630TIP3    H216855   6.954   0.644   2.154
 5631TIP3   OH216856   4.096   2.710   4.105
 5631TIP3    H116857   4.175   2.670   4.143
 5631TIP3    H216858   4.089   2.795   4.148
 5632TIP3   OH216859   5.547   5.949   0.749
 5632TIP3    H116860   5.602   6.025   0.770
 5632TIP3    H216861   5.532   5.907   0.834
 5633TIP3   OH216862   3.928   3.081   2.548
 5633TIP3    H116863   3.837   3.107   2.535
 5633TIP3    H216864   3.950   3.032   2.468
 5634TIP3   OH216865   1.089   3.433   1.573
 5634TIP3    H116866   1.149   3.438   1.647
 5634TIP3    H216867   1.094   3.341   1.545
 5635TIP3   OH216868   2.480   1.987   2.056
 5635TIP3    H116869   2.484   2.075   2.018
 5635TIP3    H216870   2.560   1.944   2.026
 5636TIP3   OH216871   5.397   4.878   0.877
 5636TIP3    H116872   5.361   4.833   0.953
 5636TIP3    H216873   5.444   4.810   0.828
 5637TIP3   OH216874   4.992   4.170   0.437
 5637TIP3    H116875   4.905   4.186   0.400
 5637TIP3    H216876   4.978   4.169   0.532
 5638TIP3   OH216877   4.725   3.715   5.926
 5638TIP3    H116878   4.781   3.712   5.849
 5638TIP3    H216879   4.668   3.791   5.911
 5639TIP3   OH216880   6.047   3.502   5.047
 5639TIP3    H116881   6.069   3.464   4.962
 5639TIP3    H216882   5.953   3.517   5.044
 5640TIP3   OH216883   4.994   5.062   1.272
 5640TIP3    H116884   5.029   4.975   1.290
 5640TIP3    H216885   4.947   5.086   1.352
 5641TIP3   OH216886   4.018   5.549   2.812
 5641TIP3    H116887   4.114   5.550   2.815
 5641TIP3    H216888   3.994   5.641   2.805
 5642TIP3   OH216889   5.364   0.557   0.379
 5642TIP3    H116890   5.446   0.579   0.423
 5642TIP3    H216891   5.382   0.567   0.286
 5643TIP3   OH216892   0.299   6.126   3.323
 5643TIP3    H116893   0.301   6.211   3.279
 5643TIP3    H216894   0.349   6.068   3.266
 5644TIP3   OH216895   2.234   2.565   1.473
 5644TIP3    H116896   2.181   2.622   1.528
 5644TIP3    H216897   2.303   2.622   1.439
 5645TIP3   OH216898   0.235   5.100   2.824
 5645TIP3    H116899   0.262   5.124   2.736
 5645TIP3    H216900   0.264   5.009   2.834
 5646TIP3   OH216901   6.443   4.368   4.095
 5646TIP3    H116902   6.422   4.277   4.073
 5646TIP3    H216903   6.536   4.378   4.072
 5647TIP3   OH216904   2.548   2.584   2.478
 5647TIP3    H116905   2.592   2.584   2.392
 5647TIP3    H216906   2.482   2.652   2.471
 5648TIP3   OH216907   5.395   4.594   1.702
 5648TIP3    H116908   5.388   4.513   1.652
 5648TIP3    H216909   5.309   4.636   1.693
 5649TIP3   OH216910   2.932   3.614   3.473
 5649TIP3    H116911   3.018   3.570   3.476
 5649TIP3    H216912   2.895   3.600   3.559
 5650TIP3   OH216913   5.454   4.332   1.543
 5650TIP3    H116914   5.527   4.274   1.521
 5650TIP3    H216915   5.425   4.303   1.629
 5651TIP3   OH216916   0.492   6.695   1.587
 5651TIP3    H116917   0.505   6.616   1.639
 5651TIP3    H216918   0.432   6.749   1.639
 5652TIP3   OH216919   3.947   4.808   0.571
 5652TIP3    H116920   4.004   4.829   0.498
 5652TIP3    H216921   3.961   4.879   0.634
 5653TIP3   OH216922   6.159   1.099   2.697
 5653TIP3    H116923   6.240   1.146   2.720
 5653TIP3    H216924   6.173   1.011   2.731
 5654TIP3   OH216925   0.688   2.905   0.062
 5654TIP3    H116926   0.643   2.989   0.076
 5654TIP3    H216927   0.621   2.839   0.078
 5655TIP3   OH216928   1.843   5.662   2.188
 5655TIP3    H116929   1.883   5.579   2.162
 5655TIP3    H216930   1.864   5.670   2.281
 5656TIP3   OH216931   1.817   4.223   4.542
 5656TIP3    H116932   1.864   4.160   4.487
 5656TIP3    H216933   1.748   4.172   4.583
 5657TIP3   OH216934   2.279   3.690   5.223
 5657TIP3    H116935   2.364   3.686   5.178
 5657TIP3    H216936   2.295   3.649   5.308
 5658TIP3   OH216937   4.160   6.106   3.701
 5658TIP3    H116938   4.118   6.157   3.770
 5658TIP3    H216939   4.094   6.099   3.632
 5659TIP3   OH216940   3.776   5.499   2.364
 5659TIP3    H116941   3.828   5.485   2.443
 5659TIP3    H216942   3.786   5.592   2.346
 5660TIP3   OH216943   6.449   4.557   0.310
 5660TIP3    H116944   6.522   4.605   0.272
 5660TIP3    H216945   6.395   4.623   0.352
 5661TIP3   OH216946   1.691   3.285   0.743
 5661TIP3    H116947   1.631   3.268   0.816
 5661TIP3    H216948   1.703   3.380   0.743
 5662TIP3   OH216949   5.412   3.787   3.683
 5662TIP3    H116950   5.447   3.752   3.765
 5662TIP3    H216951   5.405   3.881   3.698
 5663TIP3   OH216952   6.617   3.644   4.157
 5663TIP3    H116953   6.629   3.570   4.098
 5663TIP3    H216954   6.703   3.685   4.162
 5664TIP3   OH216955   0.133   2.994   4.725
 5664TIP3    H116956   0.155   3.056   4.655
 5664TIP3    H216957   0.153   2.908   4.688
 5665TIP3   OH216958   1.640   3.800   5.623
 5665TIP3    H116959   1.650   3.829   5.714
 5665TIP3    H216960   1.686   3.717   5.619
 5666TIP3   OH216961   1.103   0.775   5.595
 5666TIP3    H116962   1.065   0.780   5.507
 5666TIP3    H216963   1.073   0.855   5.639
 5667TIP3   OH216964   6.173   0.300   3.363
 5667TIP3    H116965   6.176   0.216   3.410
 5667TIP3    H216966   6.083   0.331   3.374
 5668TIP3   OH216967   1.488   0.183   4.797
 5668TIP3    H116968   1.470   0.089   4.789
 5668TIP3    H216969   1.404   0.221   4.822
 5669TIP3   OH216970   0.937   3.609   5.472
 5669TIP3    H116971   0.884   3.570   5.542
 5669TIP3    H216972   0.924   3.551   5.397
 5670TIP3   OH216973   1.025   5.825   1.423
 5670TIP3    H116974   0.956   5.888   1.405
 5670TIP3    H216975   1.102   5.878   1.444
 5671TIP3   OH216976   4.723   0.452   2.292
 5671TIP3    H116977   4.660   0.497   2.348
 5671TIP3    H216978   4.670   0.400   2.233
 5672TIP3   OH216979   5.749   3.246   4.974
 5672TIP3    H116980   5.809   3.295   4.918
 5672TIP3    H216981   5.724   3.170   4.922
 5673TIP3   OH216982   6.153   6.276   2.672
 5673TIP3    H116983   6.190   6.296   2.759
 5673TIP3    H216984   6.144   6.362   2.630
 5674TIP3   OH216985   3.068   5.870   2.866
 5674TIP3    H116986   3.109   5.851   2.782
 5674TIP3    H216987   2.989   5.920   2.844
 5675TIP3   OH216988   1.995   6.267   5.293
 5675TIP3    H116989   1.930   6.199   5.276
 5675TIP3    H216990   2.051   6.267   5.216
 5676TIP3   OH216991   1.162   5.740   1.796
 5676TIP3    H116992   1.127   5.656   1.825
 5676TIP3    H216993   1.246   5.749   1.842
 5677TIP3   OH216994   5.583   1.582   4.706
 5677TIP3    H116995   5.583   1.496   4.665
 5677TIP3    H216996   5.575   1.643   4.632
 5678TIP3   OH216997   0.484   5.793   2.257
 5678TIP3    H116998   0.468   5.873   2.307
 5678TIP3    H216999   0.579   5.783   2.257
 5679TIP3   OH217000   6.411   2.557   5.866
 5679TIP3    H117001   6.349   2.503   5.915
 5679TIP3    H217002   6.367   2.641   5.855
 5680TIP3   OH217003   0.504   1.045   2.299
 5680TIP3    H117004   0.473   1.116   2.356
 5680TIP3    H217005   0.497   0.967   2.353
 5681TIP3   OH217006   6.617   5.306   0.385
 5681TIP3    H117007   6.672   5.379   0.355
 5681TIP3    H217008   6.653   5.229   0.339
 5682TIP3   OH217009   0.521   3.502   1.327
 5682TIP3    H117010   0.515   3.468   1.238
 5682TIP3    H217011   0.431   3.522   1.351
 5683TIP3   OH217012   5.169   0.717   2.781
 5683TIP3    H117013   5.077   0.691   2.780
 5683TIP3    H217014   5.181   0.765   2.699
 5684TIP3   OH217015   4.404   4.984   2.812
 5684TIP3    H117016   4.466   5.055   2.830
 5684TIP3    H217017   4.389   4.943   2.897
 5685TIP3   OH217018   5.626   3.638   2.561
 5685TIP3    H117019   5.594   3.551   2.585
 5685TIP3    H217020   5.679   3.625   2.483
 5686TIP3   OH217021   5.929   1.367   3.130
 5686TIP3    H117022   5.939   1.299   3.197
 5686TIP3    H217023   5.839   1.397   3.139
 5687TIP3   OH217024   3.880   2.286   4.921
 5687TIP3    H117025   3.785   2.282   4.916
 5687TIP3    H217026   3.911   2.211   4.870
 5688TIP3   OH217027   5.053   4.470   0.237
 5688TIP3    H117028   4.971   4.431   0.208
 5688TIP3    H217029   5.057   4.554   0.192
 5689TIP3   OH217030   2.198   2.511   0.240
 5689TIP3    H117031   2.212   2.507   0.146
 5689TIP3    H217032   2.110   2.547   0.250
 5690TIP3   OH217033   5.735   5.278   1.381
 5690TIP3    H117034   5.824   5.241   1.382
 5690TIP3    H217035   5.710   5.282   1.473
 5691TIP3   OH217036   0.450   5.780   4.188
 5691TIP3    H117037   0.403   5.798   4.269
 5691TIP3    H217038   0.488   5.864   4.163
 5692TIP3   OH217039   0.066   1.370   3.796
 5692TIP3    H117040  -0.007   1.428   3.818
 5692TIP3    H217041   0.119   1.368   3.876
 5693TIP3   OH217042   1.353   3.642   2.349
 5693TIP3    H117043   1.300   3.721   2.362
 5693TIP3    H217044   1.309   3.575   2.401
 5694TIP3   OH217045   5.534   6.150   3.752
 5694TIP3    H117046   5.456   6.187   3.712
 5694TIP3    H217047   5.502   6.077   3.804
 5695TIP3   OH217048   4.071   5.669   0.149
 5695TIP3    H117049   4.090   5.658   0.055
 5695TIP3    H217050   4.083   5.581   0.186
 5696TIP3   OH217051   6.586   0.734   4.605
 5696TIP3    H117052   6.560   0.644   4.584
 5696TIP3    H217053   6.585   0.737   4.701
 5697TIP3   OH217054   4.058   0.333   0.466
 5697TIP3    H117055   3.963   0.330   0.477
 5697TIP3    H217056   4.087   0.243   0.482
 5698TIP3   OH217057   1.806   4.649   3.424
 5698TIP3    H117058   1.898   4.674   3.422
 5698TIP3    H217059   1.802   4.576   3.486
 5699TIP3   OH217060   4.174   4.297   1.092
 5699TIP3    H117061   4.209   4.228   1.036
 5699TIP3    H217062   4.226   4.374   1.070
 5700TIP3   OH217063   4.574   6.056   5.137
 5700TIP3    H117064   4.574   6.074   5.231
 5700TIP3    H217065   4.572   6.142   5.095
 5701TIP3   OH217066   5.775   6.252   4.116
 5701TIP3    H117067   5.771   6.343   4.089
 5701TIP3    H217068   5.865   6.239   4.145
 5702TIP3   OH217069   5.396  -0.026   4.290
 5702TIP3    H117070   5.354   0.037   4.349
 5702TIP3    H217071   5.456  -0.075   4.346
 5703TIP3   OH217072   7.200   1.936   0.283
 5703TIP3    H117073   7.172   1.872   0.217
 5703TIP3    H217074   7.133   2.004   0.280
 5704TIP3   OH217075   4.096   6.048   2.145
 5704TIP3    H117076   4.075   5.995   2.069
 5704TIP3    H217077   4.081   6.138   2.117
 5705TIP3   OH217078   7.048   4.488   2.779
 5705TIP3    H117079   7.060   4.505   2.685
 5705TIP3    H217080   7.025   4.573   2.816
 5706TIP3   OH217081   0.672   6.684   5.062
 5706TIP3    H117082   0.656   6.771   5.025
 5706TIP3    H217083   0.749   6.651   5.016
 5707TIP3   OH217084   0.226   4.303   0.163
 5707TIP3    H117085   0.202   4.368   0.098
 5707TIP3    H217086   0.264   4.231   0.113
 5708TIP3   OH217087   1.029   3.468   4.579
 5708TIP3    H117088   0.969   3.511   4.641
 5708TIP3    H217089   1.017   3.375   4.595
 5709TIP3   OH217090   4.071   4.586   4.946
 5709TIP3    H117091   4.101   4.561   4.858
 5709TIP3    H217092   4.149   4.574   5.001
 5710TIP3   OH217093   1.853   3.416   1.823
 5710TIP3    H117094   1.832   3.510   1.818
 5710TIP3    H217095   1.901   3.398   1.742
 5711TIP3   OH217096   2.246   4.538   5.360
 5711TIP3    H117097   2.315   4.509   5.300
 5711TIP3    H217098   2.210   4.457   5.395
 5712TIP3   OH217099   4.798   6.154   4.581
 5712TIP3    H117100   4.835   6.069   4.605
 5712TIP3    H217101   4.871   6.215   4.588
 5713TIP3   OH217102   3.428   1.456   3.695
 5713TIP3    H117103   3.473   1.455   3.780
 5713TIP3    H217104   3.481   1.400   3.639
 5714TIP3   OH217105   1.583   4.877   0.061
 5714TIP3    H117106   1.602   4.963   0.023
 5714TIP3    H217107   1.660   4.856   0.113
 5715TIP3   OH217108   4.867   6.152   5.566
 5715TIP3    H117109   4.868   6.227   5.625
 5715TIP3    H217110   4.893   6.188   5.481
 5716TIP3   OH217111   5.981   3.417   0.164
 5716TIP3    H117112   6.030   3.335   0.162
 5716TIP3    H217113   5.992   3.450   0.253
 5717TIP3   OH217114   6.912   3.700   4.167
 5717TIP3    H117115   6.898   3.789   4.198
 5717TIP3    H217116   6.991   3.671   4.212
 5718TIP3   OH217117   0.820   3.394   3.013
 5718TIP3    H117118   0.875   3.471   2.995
 5718TIP3    H217119   0.780   3.373   2.929
 5719TIP3   OH217120   2.127   5.050   3.369
 5719TIP3    H117121   2.181   5.026   3.444
 5719TIP3    H217122   2.179   5.024   3.293
 5720TIP3   OH217123   4.677   0.531   1.854
 5720TIP3    H117124   4.748   0.569   1.802
 5720TIP3    H217125   4.721   0.494   1.931
 5721TIP3   OH217126   6.710   5.914   3.121
 5721TIP3    H117127   6.707   6.001   3.162
 5721TIP3    H217128   6.737   5.855   3.191
 5722TIP3   OH217129   3.953   4.858   4.901
 5722TIP3    H117130   3.979   4.768   4.921
 5722TIP3    H217131   3.998   4.878   4.819
 5723TIP3   OH217132   2.604   4.359   2.932
 5723TIP3    H117133   2.589   4.270   2.965
 5723TIP3    H217134   2.607   4.414   3.010
 5724TIP3   OH217135   4.951   5.522   5.173
 5724TIP3    H117136   4.893   5.455   5.137
 5724TIP3    H217137   5.018   5.535   5.107
 5725TIP3   OH217138   1.737   0.850   0.273
 5725TIP3    H117139   1.751   0.919   0.208
 5725TIP3    H217140   1.819   0.802   0.276
 5726TIP3   OH217141   6.612   5.996   4.680
 5726TIP3    H117142   6.687   5.949   4.717
 5726TIP3    H217143   6.554   5.927   4.647
 5727TIP3   OH217144   7.079   1.289   4.710
 5727TIP3    H117145   7.061   1.198   4.684
 5727TIP3    H217146   7.005   1.339   4.676
 5728TIP3   OH217147   0.056   0.530   4.127
 5728TIP3    H117148   0.026   0.612   4.167
 5728TIP3    H217149   0.046   0.465   4.196
 5729TIP3   OH217150   1.884   2.298   4.998
 5729TIP3    H117151   1.899   2.204   4.989
 5729TIP3    H217152   1.799   2.304   5.041
 5730TIP3   OH217153   0.699   1.186   0.474
 5730TIP3    H117154   0.780   1.236   0.463
 5730TIP3    H217155   0.716   1.127   0.547
 5731TIP3   OH217156   0.060   5.650   2.747
 5731TIP3    H117157   0.037   5.595   2.821
 5731TIP3    H217158  -0.024   5.679   2.711
 5732TIP3   OH217159   7.014   0.982   1.621
 5732TIP3    H117160   6.924   0.968   1.591
 5732TIP3    H217161   7.032   1.073   1.599
 5733TIP3   OH217162   4.267   1.192   5.056
 5733TIP3    H117163   4.358   1.167   5.038
 5733TIP3    H217164   4.216   1.114   5.037
 5734TIP3   OH217165   0.389   2.702   1.649
 5734TIP3    H117166   0.318   2.759   1.678
 5734TIP3    H217167   0.353   2.657   1.572
 5735TIP3   OH217168   1.634   3.190   2.880
 5735TIP3    H117169   1.670   3.192   2.968
 5735TIP3    H217170   1.628   3.097   2.858
 5736TIP3   OH217171   6.371   2.048   5.013
 5736TIP3    H117172   6.324   2.035   5.095
 5736TIP3    H217173   6.409   2.136   5.021
 5737TIP3   OH217174   6.460   4.053   2.557
 5737TIP3    H117175   6.497   4.127   2.607
 5737TIP3    H217176   6.527   4.033   2.492
 5738TIP3   OH217177   5.318   4.469   2.811
 5738TIP3    H117178   5.237   4.422   2.831
 5738TIP3    H217179   5.386   4.401   2.811
 5739TIP3   OH217180   3.614   3.389   3.964
 5739TIP3    H117181   3.534   3.432   3.994
 5739TIP3    H217182   3.587   3.340   3.886
 5740TIP3   OH217183  -0.010   0.421   3.425
 5740TIP3    H117184   0.083   0.410   3.447
 5740TIP3    H217185  -0.020   0.515   3.414
 5741TIP3   OH217186   1.003   3.851   2.865
 5741TIP3    H117187   0.991   3.909   2.940
 5741TIP3    H217188   0.915   3.820   2.844
 5742TIP3   OH217189   4.680   3.081   1.093
 5742TIP3    H117190   4.707   3.021   1.023
 5742TIP3    H217191   4.633   3.150   1.047
 5743TIP3   OH217192   5.883   3.093   3.227
 5743TIP3    H117193   5.937   3.168   3.253
 5743TIP3    H217194   5.868   3.105   3.134
 5744TIP3   OH217195   1.581   0.271   0.846
 5744TIP3    H117196   1.527   0.277   0.925
 5744TIP3    H217197   1.557   0.187   0.807
 5745TIP3   OH217198   5.373   3.785   5.110
 5745TIP3    H117199   5.461   3.806   5.076
 5745TIP3    H217200   5.336   3.869   5.134
 5746TIP3   OH217201   3.861   0.958   1.569
 5746TIP3    H117202   3.892   0.946   1.480
 5746TIP3    H217203   3.940   0.978   1.619
 5747TIP3   OH217204   6.452   1.595   4.174
 5747TIP3    H117205   6.384   1.642   4.127
 5747TIP3    H217206   6.493   1.661   4.229
 5748TIP3   OH217207   2.263   6.636   3.395
 5748TIP3    H117208   2.343   6.687   3.379
 5748TIP3    H217209   2.194   6.702   3.406
 5749TIP3   OH217210   6.504   5.825   0.084
 5749TIP3    H117211   6.426   5.810   0.138
 5749TIP3    H217212   6.528   5.739   0.051
 5750TIP3   OH217213   5.319   5.717   4.886
 5750TIP3    H117214   5.318   5.767   4.968
 5750TIP3    H217215   5.386   5.651   4.899
 5751TIP3   OH217216   5.264   4.930   2.519
 5751TIP3    H117217   5.268   4.838   2.545
 5751TIP3    H217218   5.212   4.972   2.587
 5752TIP3   OH217219   2.192   1.056   1.335
 5752TIP3    H117220   2.276   1.013   1.353
 5752TIP3    H217221   2.128   0.984   1.336
 5753TIP3   OH217222   6.948   3.974   3.383
 5753TIP3    H117223   6.976   4.053   3.337
 5753TIP3    H217224   6.895   3.926   3.320
 5754TIP3   OH217225   3.679   4.965   3.864
 5754TIP3    H117226   3.733   4.903   3.913
 5754TIP3    H217227   3.703   5.051   3.900
 5755TIP3   OH217228   5.275   2.789   1.289
 5755TIP3    H117229   5.267   2.839   1.208
 5755TIP3    H217230   5.366   2.762   1.292
 5756TIP3   OH217231   3.436   1.833   1.655
 5756TIP3    H117232   3.454   1.741   1.676
 5756TIP3    H217233   3.340   1.839   1.655
 5757TIP3   OH217234   5.854   5.574   4.358
 5757TIP3    H117235   5.878   5.632   4.286
 5757TIP3    H217236   5.915   5.500   4.350
 5758TIP3   OH217237   3.475   2.142   2.785
 5758TIP3    H117238   3.470   2.126   2.691
 5758TIP3    H217239   3.564   2.117   2.809
 5759TIP3   OH217240   1.859   2.933   3.288
 5759TIP3    H117241   1.952   2.955   3.292
 5759TIP3    H217242   1.851   2.854   3.341
 5760TIP3   OH217243   3.375   3.629   4.342
 5760TIP3    H117244   3.351   3.721   4.349
 5760TIP3    H217245   3.347   3.590   4.425
 5761TIP3   OH217246   2.287   3.635   5.686
 5761TIP3    H117247   2.284   3.654   5.780
 5761TIP3    H217248   2.365   3.681   5.655
 5762TIP3   OH217249   6.912   0.924   0.806
 5762TIP3    H117250   6.931   0.871   0.883
 5762TIP3    H217251   6.819   0.944   0.812
 5763TIP3   OH217252   5.935   0.005   1.247
 5763TIP3    H117253   5.879  -0.017   1.321
 5763TIP3    H217254   6.024   0.005   1.283
 5764TIP3   OH217255   1.460   0.785   0.289
 5764TIP3    H117256   1.556   0.782   0.286
 5764TIP3    H217257   1.440   0.879   0.297
 5765TIP3   OH217258   5.124   0.759   3.224
 5765TIP3    H117259   5.149   0.832   3.281
 5765TIP3    H217260   5.206   0.713   3.207
 5766TIP3   OH217261   4.108   3.551   2.304
 5766TIP3    H117262   4.024   3.597   2.296
 5766TIP3    H217263   4.107   3.515   2.393
 5767TIP3   OH217264   7.119   6.035   2.797
 5767TIP3    H117265   7.043   6.067   2.844
 5767TIP3    H217266   7.086   5.966   2.740
 5768TIP3   OH217267   1.970   3.933   0.112
 5768TIP3    H117268   1.967   4.024   0.144
 5768TIP3    H217269   2.063   3.914   0.104
 5769TIP3   OH217270   1.774   5.183   2.986
 5769TIP3    H117271   1.704   5.119   2.999
 5769TIP3    H217272   1.846   5.153   3.041
 5770TIP3   OH217273   2.545   2.395   0.821
 5770TIP3    H117274   2.498   2.325   0.866
 5770TIP3    H217275   2.559   2.361   0.732
 5771TIP3   OH217276   5.322   0.930   1.343
 5771TIP3    H117277   5.296   0.971   1.426
 5771TIP3    H217278   5.319   0.836   1.361
 5772TIP3   OH217279   5.022   2.325   5.477
 5772TIP3    H117280   4.955   2.350   5.414
 5772TIP3    H217281   5.022   2.229   5.475
 5773TIP3   OH217282   6.815   4.736   4.032
 5773TIP3    H117283   6.887   4.751   4.093
 5773TIP3    H217284   6.790   4.824   4.002
 5774TIP3   OH217285   1.056   2.852   3.479
 5774TIP3    H117286   1.118   2.779   3.471
 5774TIP3    H217287   1.004   2.830   3.557
 5775TIP3   OH217288   5.197   4.888   1.998
 5775TIP3    H117289   5.131   4.898   2.067
 5775TIP3    H217290   5.174   4.805   1.956
 5776TIP3   OH217291   0.108   6.781   3.528
 5776TIP3    H117292   0.063   6.795   3.445
 5776TIP3    H217293   0.198   6.810   3.512
 5777TIP3   OH217294   4.800   5.389   1.331
 5777TIP3    H117295   4.705   5.399   1.332
 5777TIP3    H217296   4.834   5.476   1.352
 5778TIP3   OH217297   0.291   6.385   4.650
 5778TIP3    H117298   0.287   6.461   4.592
 5778TIP3    H217299   0.234   6.320   4.608
 5779TIP3   OH217300   3.616   2.000   1.787
 5779TIP3    H117301   3.686   1.951   1.831
 5779TIP3    H217302   3.554   1.933   1.758
 5780TIP3   OH217303   6.752   6.408   1.291
 5780TIP3    H117304   6.773   6.339   1.354
 5780TIP3    H217305   6.691   6.465   1.336
 5781TIP3   OH217306   4.278   2.706   1.568
 5781TIP3    H117307   4.257   2.613   1.564
 5781TIP3    H217308   4.289   2.724   1.662
 5782TIP3   OH217309   1.899   3.284   2.792
 5782TIP3    H117310   1.917   3.306   2.701
 5782TIP3    H217311   1.804   3.272   2.796
 5783TIP3   OH217312   3.092   5.476   1.544
 5783TIP3    H117313   3.022   5.412   1.528
 5783TIP3    H217314   3.057   5.558   1.510
 5784TIP3   OH217315   2.940   4.158   2.080
 5784TIP3    H117316   3.012   4.176   2.141
 5784TIP3    H217317   2.934   4.237   2.026
 5785TIP3   OH217318   0.411   3.122   2.007
 5785TIP3    H117319   0.491   3.129   2.058
 5785TIP3    H217320   0.344   3.165   2.061
 5786TIP3   OH217321   6.438   1.203   4.355
 5786TIP3    H117322   6.482   1.140   4.412
 5786TIP3    H217323   6.504   1.270   4.336
 5787TIP3   OH217324   2.473   6.034   5.674
 5787TIP3    H117325   2.539   5.976   5.713
 5787TIP3    H217326   2.432   5.981   5.606
 5788TIP3   OH217327   1.042   3.860   5.395
 5788TIP3    H117328   1.015   3.779   5.438
 5788TIP3    H217329   0.975   3.874   5.327
 5789TIP3   OH217330   1.012   4.006   3.258
 5789TIP3    H117331   0.999   3.930   3.200
 5789TIP3    H217332   1.041   3.968   3.341
 5790TIP3   OH217333   1.071   3.994   2.003
 5790TIP3    H117334   1.023   4.075   1.992
 5790TIP3    H217335   1.161   4.016   1.979
 5791TIP3   OH217336   4.597   1.673   5.720
 5791TIP3    H117337   4.606   1.680   5.625
 5791TIP3    H217338   4.622   1.582   5.740
 5792TIP3   OH217339   1.814   3.365   4.642
 5792TIP3    H117340   1.885   3.430   4.650
 5792TIP3    H217341   1.855   3.290   4.600
 5793TIP3   OH217342   6.204   1.580   0.619
 5793TIP3    H117343   6.261   1.550   0.690
 5793TIP3    H217344   6.116   1.556   0.647
 5794TIP3   OH217345   2.458   3.081   4.855
 5794TIP3    H117346   2.417   3.125   4.781
 5794TIP3    H217347   2.526   3.142   4.885
 5795TIP3   OH217348   7.125   6.516   2.233
 5795TIP3    H117349   7.170   6.471   2.304
 5795TIP3    H217350   7.186   6.585   2.205
 5796TIP3   OH217351   1.529   2.106   5.442
 5796TIP3    H117352   1.623   2.118   5.428
 5796TIP3    H217353   1.488   2.149   5.368
 5797TIP3   OH217354   4.106   0.700   3.213
 5797TIP3    H117355   4.170   0.643   3.256
 5797TIP3    H217356   4.060   0.642   3.152
 5798TIP3   OH217357   6.457   1.723   5.830
 5798TIP3    H117358   6.469   1.772   5.911
 5798TIP3    H217359   6.439   1.790   5.764
 5799TIP3   OH217360   2.201   1.138   2.642
 5799TIP3    H117361   2.264   1.075   2.678
 5799TIP3    H217362   2.192   1.204   2.710
 5800TIP3   OH217363   6.707   2.008   0.899
 5800TIP3    H117364   6.633   1.963   0.941
 5800TIP3    H217365   6.699   1.986   0.806
 5801TIP3   OH217366   3.294   0.786   3.971
 5801TIP3    H117367   3.335   0.739   3.898
 5801TIP3    H217368   3.219   0.732   3.995
 5802TIP3   OH217369   4.479   5.709   2.787
 5802TIP3    H117370   4.410   5.775   2.793
 5802TIP3    H217371   4.456   5.644   2.853
 5803TIP3   OH217372   3.849   5.441   2.612
 5803TIP3    H117373   3.891   5.364   2.575
 5803TIP3    H217374   3.910   5.473   2.678
 5804TIP3   OH217375   0.081   2.564   1.135
 5804TIP3    H117376   0.022   2.575   1.209
 5804TIP3    H217377   0.169   2.563   1.174
 5805TIP3   OH217378   2.795   6.611   2.186
 5805TIP3    H117379   2.840   6.599   2.270
 5805TIP3    H217380   2.862   6.590   2.120
 5806TIP3   OH217381   1.783   5.985   1.685
 5806TIP3    H117382   1.870   5.984   1.644
 5806TIP3    H217383   1.770   6.077   1.710
 5807TIP3   OH217384   2.857   4.031   1.459
 5807TIP3    H117385   2.893   4.076   1.535
 5807TIP3    H217386   2.895   4.077   1.383
 5808TIP3   OH217387   3.744   2.814   4.382
 5808TIP3    H117388   3.649   2.818   4.376
 5808TIP3    H217389   3.763   2.728   4.420
 5809TIP3   OH217390   4.770   5.512   0.864
 5809TIP3    H117391   4.826   5.436   0.849
 5809TIP3    H217392   4.811   5.582   0.814
 5810TIP3   OH217393   1.333   0.871   4.728
 5810TIP3    H117394   1.332   0.910   4.815
 5810TIP3    H217395   1.247   0.893   4.691
 5811TIP3   OH217396   6.073   4.049   2.256
 5811TIP3    H117397   6.022   4.117   2.212
 5811TIP3    H217398   6.149   4.095   2.291
 5812TIP3   OH217399   6.500   0.062   2.819
 5812TIP3    H117400   6.414   0.097   2.795
 5812TIP3    H217401   6.482   0.005   2.894
 5813TIP3   OH217402   1.948   0.144   1.477
 5813TIP3    H117403   1.963   0.057   1.441
 5813TIP3    H217404   2.024   0.160   1.533
 5814TIP3   OH217405   0.119   5.630   1.868
 5814TIP3    H117406   0.066   5.707   1.887
 5814TIP3    H217407   0.195   5.637   1.926
 5815TIP3   OH217408   6.204   0.223   5.420
 5815TIP3    H117409   6.141   0.279   5.374
 5815TIP3    H217410   6.272   0.205   5.355
 5816TIP3   OH217411   6.042   1.943   3.029
 5816TIP3    H117412   6.050   2.015   2.966
 5816TIP3    H217413   6.013   1.985   3.110
 5817TIP3   OH217414   6.719   4.185   3.972
 5817TIP3    H117415   6.666   4.233   3.908
 5817TIP3    H217416   6.673   4.102   3.984
 5818TIP3   OH217417   3.299   3.980   2.833
 5818TIP3    H117418   3.372   3.952   2.888
 5818TIP3    H217419   3.235   4.018   2.894
 5819TIP3   OH217420   5.603   1.033   2.246
 5819TIP3    H117421   5.586   0.949   2.290
 5819TIP3    H217422   5.581   1.099   2.312
 5820TIP3   OH217423   3.122   2.223   4.220
 5820TIP3    H117424   3.046   2.172   4.191
 5820TIP3    H217425   3.151   2.181   4.300
 5821TIP3   OH217426   2.978   5.719   0.546
 5821TIP3    H117427   3.074   5.725   0.553
 5821TIP3    H217428   2.954   5.651   0.609
 5822TIP3   OH217429   1.526   2.052   1.657
 5822TIP3    H117430   1.532   2.056   1.752
 5822TIP3    H217431   1.567   1.968   1.633
 5823TIP3   OH217432   5.802   2.766   2.424
 5823TIP3    H117433   5.728   2.765   2.484
 5823TIP3    H217434   5.878   2.786   2.478
 5824TIP3   OH217435   3.392   0.155   0.806
 5824TIP3    H117436   3.366   0.066   0.827
 5824TIP3    H217437   3.396   0.200   0.890
 5825TIP3   OH217438   2.671   2.537   2.238
 5825TIP3    H117439   2.759   2.575   2.243
 5825TIP3    H217440   2.667   2.498   2.151
 5826TIP3   OH217441   2.667   4.493   2.066
 5826TIP3    H117442   2.683   4.587   2.064
 5826TIP3    H217443   2.753   4.453   2.083
 5827TIP3   OH217444   2.413   6.798   4.014
 5827TIP3    H117445   2.496   6.828   4.051
 5827TIP3    H217446   2.424   6.703   4.004
 5828TIP3   OH217447   2.546   3.089   1.735
 5828TIP3    H117448   2.511   3.096   1.646
 5828TIP3    H217449   2.506   3.163   1.782
 5829TIP3   OH217450   5.981   4.492   2.485
 5829TIP3    H117451   6.000   4.508   2.393
 5829TIP3    H217452   5.924   4.415   2.485
 5830TIP3   OH217453   5.755   1.396   0.997
 5830TIP3    H117454   5.758   1.361   1.086
 5830TIP3    H217455   5.825   1.461   0.994
 5831TIP3   OH217456   4.882   4.368   0.032
 5831TIP3    H117457   4.822   4.420  -0.022
 5831TIP3    H217458   4.852   4.278   0.021
 5832TIP3   OH217459   6.560   2.465   5.177
 5832TIP3    H117460   6.649   2.447   5.146
 5832TIP3    H217461   6.567   2.550   5.222
 5833TIP3   OH217462   5.559   1.904   1.550
 5833TIP3    H117463   5.497   1.975   1.568
 5833TIP3    H217464   5.521   1.858   1.475
 5834TIP3   OH217465   0.144   4.824   4.159
 5834TIP3    H117466   0.224   4.839   4.209
 5834TIP3    H217467   0.175   4.812   4.069
 5835TIP3   OH217468   1.642   1.543   3.501
 5835TIP3    H117469   1.565   1.486   3.501
 5835TIP3    H217470   1.672   1.543   3.410
 5836TIP3   OH217471   5.657   4.383   2.266
 5836TIP3    H117472   5.700   4.452   2.216
 5836TIP3    H217473   5.594   4.344   2.205
 5837TIP3   OH217474   4.558   4.263   3.902
 5837TIP3    H117475   4.640   4.232   3.864
 5837TIP3    H217476   4.497   4.190   3.890
 5838TIP3   OH217477   5.003   6.656   0.529
 5838TIP3    H117478   5.076   6.633   0.587
 5838TIP3    H217479   4.935   6.592   0.549
 5839TIP3   OH217480   3.219   1.211   0.042
 5839TIP3    H117481   3.297   1.247   0.085
 5839TIP3    H217482   3.251   1.175  -0.040
 5840TIP3   OH217483   3.484   4.656   4.424
 5840TIP3    H117484   3.393   4.631   4.407
 5840TIP3    H217485   3.478   4.720   4.495
 5841TIP3   OH217486   6.813   1.718   4.469
 5841TIP3    H117487   6.746   1.652   4.453
 5841TIP3    H217488   6.884   1.671   4.512
 5842TIP3   OH217489   4.096   3.429   4.150
 5842TIP3    H117490   4.102   3.485   4.072
 5842TIP3    H217491   4.002   3.415   4.162
 5843TIP3   OH217492   4.926   3.568   2.464
 5843TIP3    H117493   4.927   3.629   2.390
 5843TIP3    H217494   4.853   3.597   2.519
 5844TIP3   OH217495   5.821   6.111   2.751
 5844TIP3    H117496   5.836   6.079   2.840
 5844TIP3    H217497   5.862   6.045   2.695
 5845TIP3   OH217498   1.118   3.029   3.773
 5845TIP3    H117499   1.148   3.070   3.691
 5845TIP3    H217500   1.185   3.054   3.837
 5846TIP3   OH217501   4.626   5.165   2.806
 5846TIP3    H117502   4.684   5.159   2.881
 5846TIP3    H217503   4.619   5.258   2.788
 5847TIP3   OH217504   4.714   5.648   0.097
 5847TIP3    H117505   4.633   5.613   0.059
 5847TIP3    H217506   4.728   5.731   0.051
 5848TIP3   OH217507   7.137   2.200   4.087
 5848TIP3    H117508   7.205   2.134   4.099
 5848TIP3    H217509   7.174   2.260   4.022
 5849TIP3   OH217510   0.278   6.844   0.714
 5849TIP3    H117511   0.339   6.821   0.644
 5849TIP3    H217512   0.196   6.799   0.689
 5850TIP3   OH217513   2.213   1.122   5.208
 5850TIP3    H117514   2.159   1.059   5.256
 5850TIP3    H217515   2.278   1.068   5.163
 5851TIP3   OH217516   5.991   6.066   5.638
 5851TIP3    H117517   5.937   6.140   5.609
 5851TIP3    H217518   6.001   6.012   5.559
 5852TIP3   OH217519   2.122   0.813   1.454
 5852TIP3    H117520   2.171   0.870   1.514
 5852TIP3    H217521   2.129   0.726   1.492
 5853TIP3   OH217522   1.943   6.153   1.400
 5853TIP3    H117523   2.034   6.173   1.378
 5853TIP3    H217524   1.908   6.235   1.434
 5854TIP3   OH217525   3.781   1.555   3.432
 5854TIP3    H117526   3.705   1.608   3.408
 5854TIP3    H217527   3.855   1.615   3.424
 5855TIP3   OH217528   1.613   2.082   4.952
 5855TIP3    H117529   1.537   2.140   4.956
 5855TIP3    H217530   1.579   1.999   4.917
 5856TIP3   OH217531   5.159   6.184   3.395
 5856TIP3    H117532   5.099   6.165   3.323
 5856TIP3    H217533   5.126   6.133   3.469
 5857TIP3   OH217534   3.407   1.072   1.479
 5857TIP3    H117535   3.421   1.000   1.417
 5857TIP3    H217536   3.328   1.116   1.446
 5858TIP3   OH217537   4.554   3.014   0.696
 5858TIP3    H117538   4.608   3.060   0.632
 5858TIP3    H217539   4.611   3.001   0.772
 5859TIP3   OH217540   2.855   1.276   0.651
 5859TIP3    H117541   2.759   1.270   0.647
 5859TIP3    H217542   2.885   1.186   0.646
 5860TIP3   OH217543   2.056   1.684   5.637
 5860TIP3    H117544   2.149   1.691   5.618
 5860TIP3    H217545   2.030   1.600   5.597
 5861TIP3   OH217546   4.716   5.947   0.725
 5861TIP3    H117547   4.770   6.016   0.762
 5861TIP3    H217548   4.726   5.957   0.630
 5862TIP3   OH217549   6.837   0.699   2.978
 5862TIP3    H117550   6.789   0.683   2.897
 5862TIP3    H217551   6.863   0.791   2.973
 5863TIP3   OH217552   2.958   4.206   3.560
 5863TIP3    H117553   2.961   4.198   3.656
 5863TIP3    H217554   2.892   4.273   3.543
 5864TIP3   OH217555   0.820   5.323   1.452
 5864TIP3    H117556   0.750   5.333   1.516
 5864TIP3    H217557   0.878   5.396   1.468
 5865TIP3   OH217558   5.081   1.012   0.337
 5865TIP3    H117559   5.172   1.011   0.367
 5865TIP3    H217560   5.070   0.930   0.289
 5866TIP3   OH217561   5.179   2.915   4.246
 5866TIP3    H117562   5.196   2.875   4.331
 5866TIP3    H217563   5.249   2.980   4.236
 5867TIP3   OH217564   0.060   2.756   3.496
 5867TIP3    H117565   0.035   2.681   3.441
 5867TIP3    H217566   0.128   2.722   3.554
 5868TIP3   OH217567   0.646   5.130   1.630
 5868TIP3    H117568   0.683   5.167   1.710
 5868TIP3    H217569   0.710   5.065   1.602
 5869TIP3   OH217570   3.634   0.609   5.707
 5869TIP3    H117571   3.695   0.672   5.746
 5869TIP3    H217572   3.557   0.612   5.765
 5870TIP3   OH217573   4.155   2.575   0.903
 5870TIP3    H117574   4.167   2.522   0.982
 5870TIP3    H217575   4.127   2.661   0.935
 5871TIP3   OH217576   1.782   0.778   2.142
 5871TIP3    H117577   1.757   0.691   2.173
 5871TIP3    H217578   1.699   0.821   2.121
 5872TIP3   OH217579   1.231   0.841   5.244
 5872TIP3    H117580   1.285   0.763   5.239
 5872TIP3    H217581   1.292   0.912   5.264
 5873TIP3   OH217582  -0.007   3.445   4.708
 5873TIP3    H117583   0.066   3.414   4.655
 5873TIP3    H217584  -0.062   3.367   4.721
 5874TIP3   OH217585   0.442   0.054   5.428
 5874TIP3    H117586   0.347   0.053   5.418
 5874TIP3    H217587   0.471   0.130   5.379
 5875TIP3   OH217588   2.943   4.289   1.273
 5875TIP3    H117589   3.021   4.243   1.303
 5875TIP3    H217590   2.935   4.363   1.334
 5876TIP3   OH217591   3.867   5.957   0.948
 5876TIP3    H117592   3.932   5.988   1.011
 5876TIP3    H217593   3.837   5.873   0.984
 5877TIP3   OH217594   3.529   4.856   4.603
 5877TIP3    H117595   3.601   4.919   4.613
 5877TIP3    H217596   3.515   4.822   4.691
 5878TIP3   OH217597   1.617   6.533   2.358
 5878TIP3    H117598   1.648   6.596   2.293
 5878TIP3    H217599   1.574   6.587   2.425
 5879TIP3   OH217600   0.278   3.130   1.772
 5879TIP3    H117601   0.238   3.215   1.789
 5879TIP3    H217602   0.330   3.112   1.851
 5880TIP3   OH217603   5.808   2.181   2.421
 5880TIP3    H117604   5.741   2.145   2.363
 5880TIP3    H217605   5.763   2.198   2.503
 5881TIP3   OH217606   0.108   2.172   0.148
 5881TIP3    H117607   0.175   2.147   0.083
 5881TIP3    H217608   0.110   2.100   0.212
 5882TIP3   OH217609   5.420   0.727   2.515
 5882TIP3    H117610   5.456   0.796   2.571
 5882TIP3    H217611   5.325   0.743   2.515
 5883TIP3   OH217612   3.147   5.869   2.567
 5883TIP3    H117613   3.230   5.836   2.602
 5883TIP3    H217614   3.130   5.814   2.491
 5884TIP3   OH217615   3.535   5.068   0.869
 5884TIP3    H117616   3.566   5.069   0.779
 5884TIP3    H217617   3.475   4.994   0.874
 5885TIP3   OH217618   2.424   1.924   2.339
 5885TIP3    H117619   2.472   1.931   2.257
 5885TIP3    H217620   2.435   1.833   2.365
 5886TIP3   OH217621   1.205   3.019   5.449
 5886TIP3    H117622   1.211   3.007   5.354
 5886TIP3    H217623   1.287   3.062   5.473
 5887TIP3   OH217624   1.242   2.845   4.067
 5887TIP3    H117625   1.328   2.868   4.102
 5887TIP3    H217626   1.256   2.834   3.973
 5888TIP3   OH217627   1.885   2.600   0.934
 5888TIP3    H117628   1.951   2.540   0.969
 5888TIP3    H217629   1.904   2.602   0.840
 5889TIP3   OH217630   1.728   6.282   4.828
 5889TIP3    H117631   1.731   6.377   4.813
 5889TIP3    H217632   1.759   6.244   4.746
 5890TIP3   OH217633   6.934   1.313   3.792
 5890TIP3    H117634   6.904   1.231   3.751
 5890TIP3    H217635   6.867   1.332   3.858
 5891TIP3   OH217636   6.386   0.091   3.100
 5891TIP3    H117637   6.438   0.013   3.117
 5891TIP3    H217638   6.380   0.135   3.185
 5892TIP3   OH217639   6.912   2.998   0.536
 5892TIP3    H117640   6.837   2.961   0.582
 5892TIP3    H217641   6.987   2.978   0.592
 5893TIP3   OH217642   2.868   4.697   5.659
 5893TIP3    H117643   2.804   4.680   5.727
 5893TIP3    H217644   2.936   4.749   5.702
 5894TIP3   OH217645   5.950   5.032   0.594
 5894TIP3    H117646   5.931   4.970   0.665
 5894TIP3    H217647   6.043   5.054   0.605
 5895TIP3   OH217648   3.055   2.334   5.539
 5895TIP3    H117649   3.119   2.263   5.545
 5895TIP3    H217650   3.098   2.409   5.580
 5896TIP3   OH217651   2.312   2.701   2.960
 5896TIP3    H117652   2.375   2.761   2.998
 5896TIP3    H217653   2.301   2.633   3.026
 5897TIP3   OH217654   1.631   6.237   5.104
 5897TIP3    H117655   1.651   6.253   5.012
 5897TIP3    H217656   1.665   6.314   5.150
 5898TIP3   OH217657   6.304   6.513   2.336
 5898TIP3    H117658   6.370   6.526   2.404
 5898TIP3    H217659   6.349   6.535   2.255
 5899TIP3   OH217660   5.461   4.059   5.851
 5899TIP3    H117661   5.521   4.068   5.925
 5899TIP3    H217662   5.410   3.981   5.872
 5900TIP3   OH217663   2.024   1.473   1.187
 5900TIP3    H117664   1.938   1.432   1.196
 5900TIP3    H217665   2.008   1.565   1.209
 5901TIP3   OH217666   1.484   4.919   1.715
 5901TIP3    H117667   1.446   4.956   1.635
 5901TIP3    H217668   1.447   4.971   1.786
 5902TIP3   OH217669   5.147   6.013   2.500
 5902TIP3    H117670   5.055   5.996   2.522
 5902TIP3    H217671   5.163   6.103   2.528
 5903TIP3   OH217672   5.021   0.844   4.853
 5903TIP3    H117673   5.082   0.817   4.784
 5903TIP3    H217674   4.936   0.848   4.811
 5904TIP3   OH217675   4.393   1.985   0.520
 5904TIP3    H117676   4.347   1.903   0.503
 5904TIP3    H217677   4.486   1.962   0.512
 5905TIP3   OH217678   0.966   4.914   1.375
 5905TIP3    H117679   0.899   4.846   1.363
 5905TIP3    H217680   0.953   4.973   1.300
 5906TIP3   OH217681   1.398   5.079   4.705
 5906TIP3    H117682   1.329   5.135   4.741
 5906TIP3    H217683   1.426   5.125   4.626
 5907TIP3   OH217684   5.885   0.600   1.294
 5907TIP3    H117685   5.845   0.636   1.215
 5907TIP3    H217686   5.810   0.579   1.350
 5908TIP3   OH217687   6.500   0.462   3.114
 5908TIP3    H117688   6.414   0.460   3.073
 5908TIP3    H217689   6.484   0.493   3.203
 5909TIP3   OH217690   2.907   1.798   0.695
 5909TIP3    H117691   2.860   1.720   0.667
 5909TIP3    H217692   2.841   1.868   0.691
 5910TIP3   OH217693   4.965   0.233   3.682
 5910TIP3    H117694   5.029   0.218   3.612
 5910TIP3    H217695   5.015   0.225   3.763
 5911TIP3   OH217696   5.396   4.920   2.188
 5911TIP3    H117697   5.332   4.892   2.254
 5911TIP3    H217698   5.355   4.899   2.104
 5912TIP3   OH217699   5.408   5.685   2.017
 5912TIP3    H117700   5.418   5.593   1.991
 5912TIP3    H217701   5.355   5.724   1.947
 5913TIP3   OH217702   3.621   6.472   2.606
 5913TIP3    H117703   3.573   6.554   2.617
 5913TIP3    H217704   3.680   6.489   2.533
 5914TIP3   OH217705   4.927   2.083   5.790
 5914TIP3    H117706   4.837   2.092   5.822
 5914TIP3    H217707   4.980   2.132   5.853
 5915TIP3   OH217708   1.691   0.811   5.444
 5915TIP3    H117709   1.755   0.782   5.379
 5915TIP3    H217710   1.681   0.737   5.503
 5916TIP3   OH217711   2.480   2.592   4.150
 5916TIP3    H117712   2.558   2.557   4.193
 5916TIP3    H217713   2.446   2.518   4.099
 5917TIP3   OH217714   5.526   6.558   4.556
 5917TIP3    H117715   5.558   6.506   4.482
 5917TIP3    H217716   5.528   6.648   4.525
 5918TIP3   OH217717   5.201   2.876   0.660
 5918TIP3    H117718   5.277   2.899   0.606
 5918TIP3    H217719   5.238   2.834   0.737
 5919TIP3   OH217720   3.823   2.087   2.302
 5919TIP3    H117721   3.826   2.074   2.397
 5919TIP3    H217722   3.913   2.111   2.279
 5920TIP3   OH217723   3.228   1.057   4.076
 5920TIP3    H117724   3.294   0.999   4.037
 5920TIP3    H217725   3.256   1.145   4.052
 5921TIP3   OH217726   5.317   1.086   5.908
 5921TIP3    H117727   5.315   0.991   5.900
 5921TIP3    H217728   5.370   1.115   5.833
 5922TIP3   OH217729   6.621   3.430   1.616
 5922TIP3    H117730   6.712   3.404   1.631
 5922TIP3    H217731   6.602   3.401   1.527
 5923TIP3   OH217732   4.743   4.483   4.190
 5923TIP3    H117733   4.654   4.519   4.184
 5923TIP3    H217734   4.757   4.439   4.106
 5924TIP3   OH217735   2.274   0.718   4.618
 5924TIP3    H117736   2.249   0.666   4.541
 5924TIP3    H217737   2.252   0.663   4.693
 5925TIP3   OH217738   4.813   1.003   4.449
 5925TIP3    H117739   4.798   0.980   4.541
 5925TIP3    H217740   4.845   0.922   4.409
 5926TIP3   OH217741   5.706   3.476   3.368
 5926TIP3    H117742   5.740   3.528   3.295
 5926TIP3    H217743   5.678   3.394   3.327
 5927TIP3   OH217744   6.582   4.669   3.627
 5927TIP3    H117745   6.581   4.637   3.537
 5927TIP3    H217746   6.569   4.764   3.619
 5928TIP3   OH217747   2.310   2.590   0.604
 5928TIP3    H117748   2.327   2.671   0.556
 5928TIP3    H217749   2.348   2.605   0.691
 5929TIP3   OH217750   6.972   3.922   0.862
 5929TIP3    H117751   7.051   3.908   0.810
 5929TIP3    H217752   6.980   4.011   0.897
 5930TIP3   OH217753   4.770   4.466   3.909
 5930TIP3    H117754   4.741   4.553   3.935
 5930TIP3    H217755   4.691   4.422   3.877
 5931TIP3   OH217756   4.175   2.754   2.835
 5931TIP3    H117757   4.255   2.703   2.842
 5931TIP3    H217758   4.196   2.824   2.773
 5932TIP3   OH217759   6.837   3.907   5.383
 5932TIP3    H117760   6.770   3.959   5.339
 5932TIP3    H217761   6.912   3.910   5.323
 5933TIP3   OH217762   2.687   4.116   5.418
 5933TIP3    H117763   2.632   4.143   5.492
 5933TIP3    H217764   2.730   4.196   5.390
 5934TIP3   OH217765   1.089   6.697   2.669
 5934TIP3    H117766   1.172   6.740   2.650
 5934TIP3    H217767   1.110   6.604   2.672
 5935TIP3   OH217768   5.825   2.041   4.881
 5935TIP3    H117769   5.906   2.092   4.872
 5935TIP3    H217770   5.844   1.980   4.952
 5936TIP3   OH217771   7.225   2.290   3.532
 5936TIP3    H117772   7.319   2.310   3.541
 5936TIP3    H217773   7.181   2.373   3.548
 5937TIP3   OH217774   3.467   1.122   0.350
 5937TIP3    H117775   3.408   1.193   0.377
 5937TIP3    H217776   3.410   1.048   0.332
 5938TIP3   OH217777   1.440   1.322   4.806
 5938TIP3    H117778   1.382   1.396   4.824
 5938TIP3    H217779   1.528   1.357   4.814
 5939TIP3   OH217780   1.368   1.486   3.883
 5939TIP3    H117781   1.302   1.554   3.876
 5939TIP3    H217782   1.435   1.511   3.819
 5940TIP3   OH217783   5.551   0.517   4.163
 5940TIP3    H117784   5.535   0.609   4.181
 5940TIP3    H217785   5.591   0.516   4.076
 5941TIP3   OH217786   1.281   3.640   5.360
 5941TIP3    H117787   1.291   3.671   5.450
 5941TIP3    H217788   1.197   3.676   5.332
 5942TIP3   OH217789   0.521   0.842   1.892
 5942TIP3    H117790   0.468   0.868   1.968
 5942TIP3    H217791   0.486   0.756   1.867
 5943TIP3   OH217792   2.429   1.976   5.484
 5943TIP3    H117793   2.470   2.063   5.491
 5943TIP3    H217794   2.475   1.934   5.412
 5944TIP3   OH217795   1.746   6.210   3.875
 5944TIP3    H117796   1.760   6.134   3.820
 5944TIP3    H217797   1.799   6.279   3.835
 5945TIP3   OH217798   6.702   0.244   1.994
 5945TIP3    H117799   6.697   0.175   2.061
 5945TIP3    H217800   6.772   0.215   1.936
 5946TIP3   OH217801   3.345   4.574   5.579
 5946TIP3    H117802   3.342   4.517   5.502
 5946TIP3    H217803   3.398   4.648   5.552
 5947TIP3   OH217804   4.039   3.436   4.855
 5947TIP3    H117805   4.119   3.438   4.802
 5947TIP3    H217806   4.061   3.485   4.934
 5948TIP3   OH217807   4.282   3.530   4.741
 5948TIP3    H117808   4.292   3.475   4.663
 5948TIP3    H217809   4.292   3.620   4.708
 5949TIP3   OH217810   5.344   1.194   2.271
 5949TIP3    H117811   5.288   1.268   2.294
 5949TIP3    H217812   5.333   1.133   2.345
 5950TIP3   OH217813   5.726   4.023   3.369
 5950TIP3    H117814   5.695   3.935   3.349
 5950TIP3    H217815   5.671   4.080   3.315
 5951TIP3   OH217816   1.423   1.717   0.309
 5951TIP3    H117817   1.461   1.804   0.298
 5951TIP3    H217818   1.330   1.733   0.328
 5952TIP3   OH217819   6.880   1.060   3.986
 5952TIP3    H117820   6.808   1.123   3.979
 5952TIP3    H217821   6.862   1.012   4.067
 5953TIP3   OH217822   5.061   3.940   0.317
 5953TIP3    H117823   5.026   4.025   0.343
 5953TIP3    H217824   5.147   3.936   0.359
 5954TIP3   OH217825   0.267   5.612   0.069
 5954TIP3    H117826   0.347   5.663   0.078
 5954TIP3    H217827   0.244   5.587   0.158
 5955TIP3   OH217828   1.286   4.402   0.915
 5955TIP3    H117829   1.273   4.456   0.993
 5955TIP3    H217830   1.198   4.391   0.879
 5956TIP3   OH217831   0.974   0.943   5.107
 5956TIP3    H117832   0.972   0.986   5.021
 5956TIP3    H217833   1.021   0.861   5.091
 5957TIP3   OH217834   6.511   2.907   4.157
 5957TIP3    H117835   6.553   2.834   4.202
 5957TIP3    H217836   6.581   2.945   4.103
 5958TIP3   OH217837   0.708   2.172   0.621
 5958TIP3    H117838   0.626   2.158   0.573
 5958TIP3    H217839   0.776   2.156   0.557
 5959TIP3   OH217840   2.068   3.734   5.571
 5959TIP3    H117841   2.055   3.800   5.638
 5959TIP3    H217842   2.148   3.688   5.597
 5960TIP3   OH217843   3.638   4.699   5.601
 5960TIP3    H117844   3.669   4.697   5.691
 5960TIP3    H217845   3.678   4.622   5.560
 5961TIP3   OH217846   6.563   0.242   1.195
 5961TIP3    H117847   6.476   0.258   1.232
 5961TIP3    H217848   6.552   0.168   1.136
 5962TIP3   OH217849   3.433   3.118  -0.021
 5962TIP3    H117850   3.446   3.104   0.073
 5962TIP3    H217851   3.457   3.210  -0.035
 5963TIP3   OH217852   1.334   4.017   1.905
 5963TIP3    H117853   1.375   4.088   1.856
 5963TIP3    H217854   1.404   3.981   1.958
 5964TIP3   OH217855   6.747   1.928   1.837
 5964TIP3    H117856   6.680   1.907   1.773
 5964TIP3    H217857   6.777   2.016   1.813
 5965TIP3   OH217858   4.035   6.593   1.312
 5965TIP3    H117859   4.056   6.501   1.325
 5965TIP3    H217860   3.944   6.594   1.284
 5966TIP3   OH217861   2.582   0.428   5.101
 5966TIP3    H117862   2.505   0.381   5.132
 5966TIP3    H217863   2.623   0.370   5.038
 5967TIP3   OH217864   5.272   2.427   4.651
 5967TIP3    H117865   5.248   2.356   4.710
 5967TIP3    H217866   5.360   2.454   4.679
 5968TIP3   OH217867   1.321   5.444   2.503
 5968TIP3    H117868   1.237   5.458   2.547
 5968TIP3    H217869   1.383   5.498   2.552
 5969TIP3   OH217870   6.028   6.207   4.218
 5969TIP3    H117871   6.107   6.260   4.229
 5969TIP3    H217872   6.038   6.169   4.130
 5970TIP3   OH217873   3.303   1.007   3.577
 5970TIP3    H117874   3.383   1.028   3.529
 5970TIP3    H217875   3.301   0.912   3.581
 5971TIP3   OH217876   3.539   4.541   5.242
 5971TIP3    H117877   3.461   4.497   5.277
 5971TIP3    H217878   3.574   4.479   5.177
 5972TIP3   OH217879   6.953   6.125   2.135
 5972TIP3    H117880   7.027   6.173   2.100
 5972TIP3    H217881   6.992   6.054   2.186
 5973TIP3   OH217882   1.127   0.553   3.046
 5973TIP3    H117883   1.181   0.589   2.976
 5973TIP3    H217884   1.037   0.564   3.015
 5974TIP3   OH217885   1.059   0.744   4.951
 5974TIP3    H117886   1.069   0.774   4.861
 5974TIP3    H217887   1.137   0.689   4.966
 5975TIP3   OH217888   1.761   3.233   5.359
 5975TIP3    H117889   1.803   3.276   5.285
 5975TIP3    H217890   1.810   3.152   5.372
 5976TIP3   OH217891   4.905   3.669   5.488
 5976TIP3    H117892   4.847   3.705   5.422
 5976TIP3    H217893   4.993   3.697   5.461
 5977TIP3   OH217894   0.710   1.335   5.267
 5977TIP3    H117895   0.670   1.377   5.191
 5977TIP3    H217896   0.687   1.242   5.257
 5978TIP3   OH217897   2.397   1.602   0.604
 5978TIP3    H117898   2.404   1.551   0.523
 5978TIP3    H217899   2.336   1.673   0.583
 5979TIP3   OH217900   7.096   1.094   4.290
 5979TIP3    H117901   7.057   1.130   4.210
 5979TIP3    H217902   7.159   1.029   4.259
 5980TIP3   OH217903   0.541   3.294   4.702
 5980TIP3    H117904   0.626   3.325   4.733
 5980TIP3    H217905   0.560   3.207   4.666
 5981TIP3   OH217906   5.744   0.365   4.811
 5981TIP3    H117907   5.752   0.286   4.758
 5981TIP3    H217908   5.835   0.391   4.830
 5982TIP3   OH217909   4.590   6.259   4.123
 5982TIP3    H117910   4.593   6.164   4.128
 5982TIP3    H217911   4.591   6.288   4.214
 5983TIP3   OH217912   4.595   2.467   3.497
 5983TIP3    H117913   4.512   2.464   3.449
 5983TIP3    H217914   4.595   2.553   3.539
 5984TIP3   OH217915   4.625   2.471   2.261
 5984TIP3    H117916   4.605   2.565   2.267
 5984TIP3    H217917   4.609   2.450   2.169
 5985TIP3   OH217918   4.260   5.183   0.951
 5985TIP3    H117919   4.262   5.150   1.041
 5985TIP3    H217920   4.241   5.107   0.897
 5986TIP3   OH217921   3.182   3.905   0.341
 5986TIP3    H117922   3.212   3.830   0.392
 5986TIP3    H217923   3.262   3.955   0.322
 5987TIP3   OH217924   3.863   1.639   5.827
 5987TIP3    H117925   3.917   1.680   5.895
 5987TIP3    H217926   3.921   1.576   5.785
 5988TIP3   OH217927   2.922   4.625   4.888
 5988TIP3    H117928   2.889   4.694   4.945
 5988TIP3    H217929   2.889   4.648   4.801
 5989TIP3   OH217930   6.228   0.020   0.716
 5989TIP3    H117931   6.165   0.087   0.743
 5989TIP3    H217932   6.263   0.052   0.633
 5990TIP3   OH217933   1.353   2.269   4.209
 5990TIP3    H117934   1.319   2.203   4.269
 5990TIP3    H217935   1.414   2.220   4.153
 5991TIP3   OH217936   1.015   0.769   0.125
 5991TIP3    H117937   1.076   0.710   0.169
 5991TIP3    H217938   1.036   0.761   0.032
 5992TIP3   OH217939   2.255   3.243   4.117
 5992TIP3    H117940   2.216   3.163   4.082
 5992TIP3    H217941   2.191   3.311   4.099
 5993TIP3   OH217942   6.476   2.221   1.411
 5993TIP3    H117943   6.518   2.139   1.435
 5993TIP3    H217944   6.492   2.230   1.317
 5994TIP3   OH217945   1.327   0.184   2.630
 5994TIP3    H117946   1.286   0.249   2.573
 5994TIP3    H217947   1.349   0.233   2.710
 5995TIP3   OH217948   7.158   3.671   5.790
 5995TIP3    H117949   7.147   3.589   5.740
 5995TIP3    H217950   7.142   3.740   5.726
 5996TIP3   OH217951   1.588   1.698   1.076
 5996TIP3    H117952   1.603   1.779   1.124
 5996TIP3    H217953   1.522   1.719   1.011
 5997TIP3   OH217954   3.859   2.372   0.954
 5997TIP3    H117955   3.883   2.423   0.877
 5997TIP3    H217956   3.937   2.320   0.975
 5998TIP3   OH217957   0.080   5.765   2.460
 5998TIP3    H117958   0.090   5.732   2.549
 5998TIP3    H217959   0.129   5.704   2.406
 5999TIP3   OH217960   4.571   6.277   3.628
 5999TIP3    H117961   4.534   6.217   3.693
 5999TIP3    H217962   4.618   6.342   3.680
 6000TIP3   OH217963   0.178   4.032   5.918
 6000TIP3    H117964   0.156   3.940   5.906
 6000TIP3    H217965   0.103   4.080   5.883
 6001TIP3   OH217966   6.988   5.235   4.648
 6001TIP3    H117967   6.898   5.229   4.618
 6001TIP3    H217968   7.017   5.144   4.655
 6002TIP3   OH217969   0.838   5.475   0.926
 6002TIP3    H117970   0.808   5.412   0.861
 6002TIP3    H217971   0.861   5.422   1.002
 6003TIP3   OH217972   4.105   2.440   4.937
 6003TIP3    H117973   4.142   2.431   4.848
 6003TIP3    H217974   4.016   2.405   4.930
 6004TIP3   OH217975   2.174   2.515   2.594
 6004TIP3    H117976   2.234   2.569   2.544
 6004TIP3    H217977   2.215   2.429   2.597
 6005TIP3   OH217978   6.805   2.313   3.126
 6005TIP3    H117979   6.861   2.353   3.060
 6005TIP3    H217980   6.741   2.381   3.148
 6006TIP3   OH217981   6.837   4.565   3.810
 6006TIP3    H117982   6.821   4.637   3.872
 6006TIP3    H217983   6.796   4.594   3.729
 6007TIP3   OH217984   2.631   1.117   1.991
 6007TIP3    H117985   2.600   1.071   2.069
 6007TIP3    H217986   2.625   1.210   2.014
 6008TIP3   OH217987   5.609   3.056   4.813
 6008TIP3    H117988   5.518   3.081   4.830
 6008TIP3    H217989   5.602   2.982   4.753
 6009TIP3   OH217990   4.396   0.635   5.782
 6009TIP3    H117991   4.325   0.690   5.814
 6009TIP3    H217992   4.369   0.546   5.803
 6010TIP3   OH217993   0.907   2.101   0.411
 6010TIP3    H117994   0.879   2.135   0.326
 6010TIP3    H217995   0.872   2.012   0.413
 6011TIP3   OH217996   0.760   5.833   4.312
 6011TIP3    H117997   0.776   5.769   4.382
 6011TIP3    H217998   0.769   5.782   4.231
 6012TIP3   OH217999   6.255   2.157   0.396
 6012TIP3    H118000   6.175   2.194   0.358
 6012TIP3    H218001   6.241   2.161   0.490
 6013TIP3   OH218002   4.348   6.514   1.474
 6013TIP3    H118003   4.431   6.536   1.516
 6013TIP3    H218004   4.326   6.427   1.510
 6014TIP3   OH218005   0.777   2.221   4.896
 6014TIP3    H118006   0.801   2.314   4.892
 6014TIP3    H218007   0.861   2.174   4.892
 6015TIP3   OH218008   2.657   2.481   5.194
 6015TIP3    H118009   2.665   2.574   5.173
 6015TIP3    H218010   2.741   2.457   5.231
 6016TIP3   OH218011   5.308   0.062   5.744
 6016TIP3    H118012   5.234   0.014   5.781
 6016TIP3    H218013   5.330   0.015   5.663
 6017TIP3   OH218014   4.989   4.809   5.148
 6017TIP3    H118015   4.893   4.803   5.141
 6017TIP3    H218016   5.021   4.750   5.080
 6018TIP3   OH218017   6.758   5.972   5.120
 6018TIP3    H118018   6.745   5.905   5.188
 6018TIP3    H218019   6.715   5.936   5.043
 6019TIP3   OH218020   1.965   6.567   0.084
 6019TIP3    H118021   1.907   6.510   0.135
 6019TIP3    H218022   1.993   6.634   0.147
 6020TIP3   OH218023   6.845   3.239   5.421
 6020TIP3    H118024   6.926   3.257   5.469
 6020TIP3    H218025   6.821   3.323   5.382
 6021TIP3   OH218026   3.892   0.119   4.745
 6021TIP3    H118027   3.848   0.181   4.803
 6021TIP3    H218028   3.825   0.056   4.721
 6022TIP3   OH218029   4.073   2.296   1.453
 6022TIP3    H118030   3.993   2.288   1.504
 6022TIP3    H218031   4.093   2.206   1.425
 6023TIP3   OH218032   2.315   1.995   1.342
 6023TIP3    H118033   2.284   1.996   1.251
 6023TIP3    H218034   2.259   2.058   1.387
 6024TIP3   OH218035   3.271   0.147   2.272
 6024TIP3    H118036   3.306   0.235   2.260
 6024TIP3    H218037   3.294   0.125   2.362
 6025TIP3   OH218038   6.930   5.563   5.448
 6025TIP3    H118039   6.905   5.582   5.538
 6025TIP3    H218040   6.944   5.468   5.446
 6026TIP3   OH218041   3.729   0.864   5.524
 6026TIP3    H118042   3.758   0.784   5.480
 6026TIP3    H218043   3.650   0.890   5.476
 6027TIP3   OH218044   5.468   3.131   4.040
 6027TIP3    H118045   5.377   3.131   4.012
 6027TIP3    H218046   5.518   3.124   3.959
 6028TIP3   OH218047   2.367   3.480   4.617
 6028TIP3    H118048   2.368   3.524   4.532
 6028TIP3    H218049   2.357   3.552   4.681
 6029TIP3   OH218050   0.931   1.678   3.596
 6029TIP3    H118051   0.965   1.594   3.567
 6029TIP3    H218052   0.943   1.736   3.521
 6030TIP3   OH218053   3.186   0.569   1.778
 6030TIP3    H118054   3.158   0.526   1.698
 6030TIP3    H218055   3.278   0.542   1.789
 6031TIP3   OH218056   4.683   2.665   4.418
 6031TIP3    H118057   4.643   2.619   4.345
 6031TIP3    H218058   4.628   2.743   4.430
 6032TIP3   OH218059   1.334   6.044   5.409
 6032TIP3    H118060   1.344   5.948   5.413
 6032TIP3    H218061   1.348   6.066   5.317
 6033TIP3   OH218062   6.096   4.039   2.727
 6033TIP3    H118063   6.008   4.047   2.691
 6033TIP3    H218064   6.095   4.095   2.805
 6034TIP3   OH218065   5.021   0.723   0.727
 6034TIP3    H118066   4.971   0.776   0.788
 6034TIP3    H218067   5.022   0.774   0.646
 6035TIP3   OH218068   6.833   5.557   1.558
 6035TIP3    H118069   6.920   5.567   1.597
 6035TIP3    H218070   6.776   5.534   1.631
 6036TIP3   OH218071   1.751   5.120   4.617
 6036TIP3    H118072   1.790   5.177   4.550
 6036TIP3    H218073   1.658   5.117   4.593
 6037TIP3   OH218074   3.460   0.527   4.148
 6037TIP3    H118075   3.453   0.440   4.189
 6037TIP3    H218076   3.491   0.509   4.060
 6038TIP3   OH218077   4.400   0.796   0.513
 6038TIP3    H118078   4.364   0.773   0.427
 6038TIP3    H218079   4.337   0.760   0.575
 6039TIP3   OH218080   5.381   0.585   0.114
 6039TIP3    H118081   5.380   0.500   0.070
 6039TIP3    H218082   5.323   0.640   0.060
 6040TIP3   OH218083   1.784   4.132   1.510
 6040TIP3    H118084   1.824   4.069   1.450
 6040TIP3    H218085   1.848   4.202   1.518
 6041TIP3   OH218086   7.047   3.579   3.666
 6041TIP3    H118087   7.043   3.544   3.755
 6041TIP3    H218088   7.078   3.506   3.613
 6042TIP3   OH218089   6.469   5.044   4.399
 6042TIP3    H118090   6.515   4.962   4.415
 6042TIP3    H218091   6.470   5.054   4.304
 6043TIP3   OH218092   0.634   6.238   4.915
 6043TIP3    H118093   0.607   6.304   4.979
 6043TIP3    H218094   0.685   6.287   4.850
 6044TIP3   OH218095   3.569   1.017   0.760
 6044TIP3    H118096   3.518   0.936   0.755
 6044TIP3    H218097   3.619   1.018   0.678
 6045TIP3   OH218098   4.684   6.414   4.348
 6045TIP3    H118099   4.732   6.461   4.416
 6045TIP3    H218100   4.627   6.480   4.310
 6046TIP3   OH218101   5.500   2.362   0.059
 6046TIP3    H118102   5.449   2.435   0.023
 6046TIP3    H218103   5.445   2.327   0.129
 6047TIP3   OH218104   7.242   0.798   5.112
 6047TIP3    H118105   7.198   0.847   5.042
 6047TIP3    H218106   7.243   0.858   5.187
 6048TIP3   OH218107   1.329   3.931   3.196
 6048TIP3    H118108   1.357   3.931   3.288
 6048TIP3    H218109   1.269   4.005   3.189
 6049TIP3   OH218110   2.748   3.344   1.672
 6049TIP3    H118111   2.692   3.389   1.609
 6049TIP3    H218112   2.706   3.259   1.686
 6050TIP3   OH218113   2.390   5.678   1.203
 6050TIP3    H118114   2.470   5.723   1.174
 6050TIP3    H218115   2.320   5.743   1.190
 6051TIP3   OH218116   2.874   0.043   1.950
 6051TIP3    H118117   2.891  -0.033   1.896
 6051TIP3    H218118   2.935   0.035   2.023
 6052TIP3   OH218119   0.381   2.554   0.500
 6052TIP3    H118120   0.350   2.599   0.421
 6052TIP3    H218121   0.316   2.577   0.567
 6053TIP3   OH218122   6.200   6.450   3.588
 6053TIP3    H118123   6.250   6.493   3.519
 6053TIP3    H218124   6.225   6.358   3.584
 6054TIP3   OH218125   1.604   5.060   5.856
 6054TIP3    H118126   1.600   5.149   5.821
 6054TIP3    H218127   1.534   5.056   5.921
 6055TIP3   OH218128   4.949   2.583   1.078
 6055TIP3    H118129   4.857   2.595   1.101
 6055TIP3    H218130   4.978   2.670   1.049
 6056TIP3   OH218131   1.724   4.108   2.903
 6056TIP3    H118132   1.809   4.067   2.920
 6056TIP3    H218133   1.729   4.193   2.945
 6057TIP3   OH218134   3.264   2.533   3.487
 6057TIP3    H118135   3.194   2.580   3.533
 6057TIP3    H218136   3.273   2.580   3.404
 6058TIP3   OH218137   5.797   5.170   4.827
 6058TIP3    H118138   5.823   5.201   4.913
 6058TIP3    H218139   5.720   5.115   4.842
 6059TIP3   OH218140   4.094   2.242   4.190
 6059TIP3    H118141   4.004   2.227   4.162
 6059TIP3    H218142   4.122   2.158   4.225
 6060TIP3   OH218143   4.296   3.162   3.487
 6060TIP3    H118144   4.331   3.077   3.461
 6060TIP3    H218145   4.243   3.190   3.413
 6061TIP3   OH218146   4.270   1.240   0.381
 6061TIP3    H118147   4.280   1.322   0.430
 6061TIP3    H218148   4.320   1.176   0.432
 6062TIP3   OH218149   4.726   3.731   5.266
 6062TIP3    H118150   4.697   3.642   5.245
 6062TIP3    H218151   4.651   3.786   5.242
 6063TIP3   OH218152   6.008   5.688   0.340
 6063TIP3    H118153   5.934   5.681   0.280
 6063TIP3    H218154   6.021   5.599   0.372
 6064TIP3   OH218155   3.074   3.233   1.502
 6064TIP3    H118156   3.091   3.153   1.550
 6064TIP3    H218157   3.157   3.254   1.459
 6065TIP3   OH218158   3.644   2.569   0.883
 6065TIP3    H118159   3.704   2.643   0.891
 6065TIP3    H218160   3.684   2.499   0.934
 6066TIP3   OH218161   3.431   3.090   1.319
 6066TIP3    H118162   3.440   3.116   1.411
 6066TIP3    H218163   3.381   3.161   1.279
 6067TIP3   OH218164   4.451   2.940   5.807
 6067TIP3    H118165   4.394   2.943   5.730
 6067TIP3    H218166   4.439   2.852   5.842
 6068TIP3   OH218167   1.156   6.607   0.788
 6068TIP3    H118168   1.091   6.540   0.805
 6068TIP3    H218169   1.225   6.562   0.740
 6069TIP3   OH218170   5.557   2.516   1.898
 6069TIP3    H118171   5.516   2.589   1.851
 6069TIP3    H218172   5.605   2.557   1.970
 6070TIP3   OH218173   1.561   5.811   1.073
 6070TIP3    H118174   1.656   5.808   1.081
 6070TIP3    H218175   1.541   5.754   0.999
 6071TIP3   OH218176   1.204   6.484   1.466
 6071TIP3    H118177   1.163   6.567   1.491
 6071TIP3    H218178   1.281   6.509   1.416
 6072TIP3   OH218179   5.588   0.818   2.878
 6072TIP3    H118180   5.559   0.728   2.863
 6072TIP3    H218181   5.590   0.857   2.790
 6073TIP3   OH218182   2.960   0.269   0.951
 6073TIP3    H118183   2.937   0.266   0.859
 6073TIP3    H218184   3.028   0.202   0.961
 6074TIP3   OH218185   2.752   2.067   1.361
 6074TIP3    H118186   2.701   1.987   1.348
 6074TIP3    H218187   2.799   2.053   1.443
 6075TIP3   OH218188   0.977   5.930   2.510
 6075TIP3    H118189   0.894   5.937   2.558
 6075TIP3    H218190   0.953   5.940   2.418
 6076TIP3   OH218191   3.238   4.499   0.367
 6076TIP3    H118192   3.324   4.520   0.403
 6076TIP3    H218193   3.256   4.480   0.275
 6077TIP3   OH218194   3.057   6.142   3.730
 6077TIP3    H118195   3.094   6.206   3.790
 6077TIP3    H218196   3.104   6.155   3.648
 6078TIP3   OH218197   6.364   3.916   0.519
 6078TIP3    H118198   6.391   3.828   0.545
 6078TIP3    H218199   6.379   3.970   0.597
 6079TIP3   OH218200   1.790   4.535   2.071
 6079TIP3    H118201   1.756   4.511   2.157
 6079TIP3    H218202   1.863   4.594   2.090
 6080TIP3   OH218203   5.700   1.051   1.983
 6080TIP3    H118204   5.667   1.023   2.069
 6080TIP3    H218205   5.629   1.104   1.947
 6081TIP3   OH218206   2.995   3.119   0.810
 6081TIP3    H118207   3.040   3.093   0.890
 6081TIP3    H218208   2.915   3.066   0.808
 6082TIP3   OH218209   4.605   6.347   0.502
 6082TIP3    H118210   4.650   6.286   0.560
 6082TIP3    H218211   4.574   6.417   0.560
 6083TIP3   OH218212   0.133   4.098   5.536
 6083TIP3    H118213   0.168   4.034   5.474
 6083TIP3    H218214   0.189   4.175   5.526
 6084TIP3   OH218215   0.514   3.390   5.021
 6084TIP3    H118216   0.419   3.391   5.034
 6084TIP3    H218217   0.540   3.300   5.041
 6085TIP3   OH218218   4.537   2.631   4.705
 6085TIP3    H118219   4.442   2.638   4.693
 6085TIP3    H218220   4.549   2.632   4.800
 6086TIP3   OH218221   1.531   6.488   3.384
 6086TIP3    H118222   1.516   6.555   3.451
 6086TIP3    H218223   1.609   6.518   3.338
 6087TIP3   OH218224   3.201   2.771   5.367
 6087TIP3    H118225   3.130   2.824   5.329
 6087TIP3    H218226   3.278   2.828   5.362
 6088TIP3   OH218227   4.465   5.822   2.392
 6088TIP3    H118228   4.443   5.873   2.470
 6088TIP3    H218229   4.451   5.731   2.417
 6089TIP3   OH218230   1.528   5.778   5.340
 6089TIP3    H118231   1.537   5.688   5.369
 6089TIP3    H218232   1.593   5.827   5.392
 6090TIP3   OH218233   1.815   5.571   3.439
 6090TIP3    H118234   1.857   5.486   3.430
 6090TIP3    H218235   1.805   5.604   3.350
 6091TIP3   OH218236   5.240   1.348   5.654
 6091TIP3    H118237   5.263   1.433   5.616
 6091TIP3    H218238   5.147   1.338   5.635
 6092TIP3   OH218239   5.347   1.326   0.678
 6092TIP3    H118240   5.315   1.325   0.768
 6092TIP3    H218241   5.438   1.297   0.684
 6093TIP3   OH218242   1.208   2.700   5.123
 6093TIP3    H118243   1.256   2.708   5.205
 6093TIP3    H218244   1.276   2.700   5.055
 6094TIP3   OH218245   2.777   3.361   3.600
 6094TIP3    H118246   2.753   3.309   3.523
 6094TIP3    H218247   2.696   3.404   3.626
 6095TIP3   OH218248   1.791   4.427   5.755
 6095TIP3    H118249   1.828   4.515   5.766
 6095TIP3    H218250   1.727   4.437   5.684
 6096TIP3   OH218251   2.642   4.353   5.747
 6096TIP3    H118252   2.640   4.374   5.653
 6096TIP3    H218253   2.713   4.288   5.755
 6097TIP3   OH218254   6.885   5.659   5.717
 6097TIP3    H118255   6.925   5.608   5.786
 6097TIP3    H218256   6.858   5.740   5.760
 6098TIP3   OH218257   3.344   5.321   3.954
 6098TIP3    H118258   3.361   5.381   3.882
 6098TIP3    H218259   3.339   5.377   4.031
 6099TIP3   OH218260   4.334   2.303   2.237
 6099TIP3    H118261   4.383   2.300   2.320
 6099TIP3    H218262   4.398   2.332   2.172
 6100TIP3   OH218263   2.968   4.062   3.286
 6100TIP3    H118264   2.944   4.068   3.379
 6100TIP3    H218265   2.962   3.969   3.265
 6101TIP3   OH218266   4.811   1.898   3.774
 6101TIP3    H118267   4.821   1.844   3.695
 6101TIP3    H218268   4.787   1.984   3.741
 6102TIP3   OH218269   5.670   4.810   5.025
 6102TIP3    H118270   5.698   4.895   5.059
 6102TIP3    H218271   5.576   4.807   5.043
 6103TIP3   OH218272   4.283   4.683   4.274
 6103TIP3    H118273   4.288   4.592   4.244
 6103TIP3    H218274   4.358   4.726   4.234
 6104TIP3   OH218275   6.358   1.967   1.319
 6104TIP3    H118276   6.451   1.959   1.341
 6104TIP3    H218277   6.353   2.043   1.261
 6105TIP3   OH218278   3.683   2.050   2.955
 6105TIP3    H118279   3.776   2.031   2.963
 6105TIP3    H218280   3.661   2.095   3.037
 6106TIP3   OH218281   7.160   5.844   1.962
 6106TIP3    H118282   7.073   5.863   1.926
 6106TIP3    H218283   7.149   5.851   2.057
 6107TIP3   OH218284   6.114   5.264   3.660
 6107TIP3    H118285   6.149   5.191   3.712
 6107TIP3    H218286   6.046   5.302   3.716
 6108TIP3   OH218287   2.091   0.194   0.842
 6108TIP3    H118288   2.047   0.212   0.925
 6108TIP3    H218289   2.087   0.099   0.833
 6109TIP3   OH218290   6.494   4.938   3.536
 6109TIP3    H118291   6.438   4.936   3.458
 6109TIP3    H218292   6.583   4.948   3.502
 6110TIP3   OH218293   5.002   0.506   3.211
 6110TIP3    H118294   5.022   0.598   3.197
 6110TIP3    H218295   5.087   0.465   3.230
 6111TIP3   OH218296   1.591   5.711   0.148
 6111TIP3    H118297   1.501   5.732   0.127
 6111TIP3    H218298   1.608   5.755   0.231
 6112TIP3   OH218299   2.676   5.049   3.423
 6112TIP3    H118300   2.750   5.054   3.363
 6112TIP3    H218301   2.599   5.063   3.368
 6113TIP3   OH218302   1.385   0.764   5.611
 6113TIP3    H118303   1.296   0.777   5.644
 6113TIP3    H218304   1.376   0.761   5.516
 6114TIP3   OH218305   2.926   4.240   3.827
 6114TIP3    H118306   2.905   4.176   3.894
 6114TIP3    H218307   2.910   4.325   3.869
 6115TIP3   OH218308   3.490   4.811   1.474
 6115TIP3    H118309   3.551   4.789   1.545
 6115TIP3    H218310   3.529   4.772   1.396
 6116TIP3   OH218311   5.677   6.114   4.620
 6116TIP3    H118312   5.760   6.081   4.586
 6116TIP3    H218313   5.626   6.036   4.641
 6117TIP3   OH218314   6.490   3.977   3.765
 6117TIP3    H118315   6.579   4.005   3.742
 6117TIP3    H218316   6.486   3.886   3.735
 6118TIP3   OH218317   3.532   1.715   4.527
 6118TIP3    H118318   3.504   1.797   4.486
 6118TIP3    H218319   3.451   1.666   4.540
 6119TIP3   OH218320   1.394   5.512   1.201
 6119TIP3    H118321   1.316   5.566   1.215
 6119TIP3    H218322   1.420   5.530   1.111
 6120TIP3   OH218323   6.353   6.738   0.178
 6120TIP3    H118324   6.358   6.788   0.259
 6120TIP3    H218325   6.270   6.691   0.184
 6121TIP3   OH218326   4.762   3.296   2.502
 6121TIP3    H118327   4.805   3.374   2.466
 6121TIP3    H218328   4.670   3.306   2.479
 6122TIP3   OH218329   1.853   0.876   3.130
 6122TIP3    H118330   1.842   0.814   3.058
 6122TIP3    H218331   1.785   0.852   3.193
 6123TIP3   OH218332   4.424   2.084   5.643
 6123TIP3    H118333   4.494   2.112   5.702
 6123TIP3    H218334   4.367   2.030   5.698
 6124TIP3   OH218335   5.803   3.654   0.017
 6124TIP3    H118336   5.796   3.592   0.090
 6124TIP3    H218337   5.862   3.722   0.050
 6125TIP3   OH218338   6.537   2.559   1.020
 6125TIP3    H118339   6.497   2.508   0.949
 6125TIP3    H218340   6.623   2.583   0.986
 6126TIP3   OH218341   5.260   1.253   0.985
 6126TIP3    H118342   5.196   1.230   1.053
 6126TIP3    H218343   5.335   1.196   1.003
 6127TIP3   OH218344   1.565   0.547   4.963
 6127TIP3    H118345   1.593   0.505   4.882
 6127TIP3    H218346   1.627   0.517   5.029
 6128TIP3   OH218347   3.890   2.512   2.716
 6128TIP3    H118348   3.881   2.508   2.621
 6128TIP3    H218349   3.827   2.448   2.749
 6129TIP3   OH218350   2.406   1.109   2.847
 6129TIP3    H118351   2.380   1.101   2.939
 6129TIP3    H218352   2.496   1.143   2.851
 6130TIP3   OH218353   2.653   0.648   4.455
 6130TIP3    H118354   2.619   0.583   4.516
 6130TIP3    H218355   2.575   0.690   4.418
 6131TIP3   OH218356   4.403   0.949   3.043
 6131TIP3    H118357   4.344   0.922   3.114
 6131TIP3    H218358   4.489   0.919   3.073
 6132TIP3   OH218359   0.967   0.293   4.737
 6132TIP3    H118360   0.886   0.300   4.685
 6132TIP3    H218361   1.020   0.367   4.708
 6133TIP3   OH218362   0.038   6.341   0.742
 6133TIP3    H118363   0.123   6.302   0.762
 6133TIP3    H218364  -0.020   6.266   0.732
 6134TIP3   OH218365   3.314   0.713   2.080
 6134TIP3    H118366   3.288   0.797   2.042
 6134TIP3    H218367   3.286   0.719   2.172
 6135TIP3   OH218368   3.038   6.392   5.614
 6135TIP3    H118369   2.949   6.404   5.581
 6135TIP3    H218370   3.027   6.338   5.692
 6136TIP3   OH218371   5.209   5.338   5.037
 6136TIP3    H118372   5.261   5.366   5.112
 6136TIP3    H218373   5.182   5.249   5.057
 6137TIP3   OH218374   6.795   5.708   3.288
 6137TIP3    H118375   6.862   5.772   3.310
 6137TIP3    H218376   6.827   5.666   3.208
 6138TIP3   OH218377   6.922   2.232   2.149
 6138TIP3    H118378   6.922   2.158   2.209
 6138TIP3    H218379   6.834   2.232   2.110
 6139TIP3   OH218380   3.130   1.678   4.282
 6139TIP3    H118381   3.146   1.584   4.272
 6139TIP3    H218382   3.217   1.717   4.274
 6140TIP3   OH218383   5.589   0.877   1.399
 6140TIP3    H118384   5.506   0.915   1.371
 6140TIP3    H218385   5.615   0.928   1.475
 6141TIP3   OH218386   3.176   6.188   0.984
 6141TIP3    H118387   3.129   6.226   0.909
 6141TIP3    H218388   3.230   6.259   1.017
 6142TIP3   OH218389   2.891   3.697   2.685
 6142TIP3    H118390   2.845   3.685   2.768
 6142TIP3    H218391   2.984   3.691   2.708
 6143TIP3   OH218392   0.387   2.564   5.552
 6143TIP3    H118393   0.396   2.633   5.486
 6143TIP3    H218394   0.406   2.483   5.505
 6144TIP3   OH218395   0.586   5.827   1.833
 6144TIP3    H118396   0.601   5.911   1.876
 6144TIP3    H218397   0.593   5.762   1.904
 6145TIP3   OH218398   0.060   3.787   1.266
 6145TIP3    H118399   0.075   3.722   1.198
 6145TIP3    H218400   0.127   3.854   1.252
 6146TIP3   OH218401   4.945   0.894   5.688
 6146TIP3    H118402   4.891   0.816   5.674
 6146TIP3    H218403   5.024   0.878   5.637
 6147TIP3   OH218404   1.250   2.241   4.630
 6147TIP3    H118405   1.165   2.205   4.652
 6147TIP3    H218406   1.231   2.313   4.570
 6148TIP3   OH218407   4.380   5.289   4.780
 6148TIP3    H118408   4.397   5.293   4.874
 6148TIP3    H218409   4.284   5.288   4.773
 6149TIP3   OH218410   1.595   2.265   3.839
 6149TIP3    H118411   1.652   2.336   3.809
 6149TIP3    H218412   1.624   2.188   3.791
 6150TIP3   OH218413   4.003   5.711   2.531
 6150TIP3    H118414   3.992   5.760   2.613
 6150TIP3    H218415   4.087   5.666   2.541
 6151TIP3   OH218416   0.287   5.768   4.401
 6151TIP3    H118417   0.278   5.680   4.366
 6151TIP3    H218418   0.302   5.755   4.495
 6152TIP3   OH218419   6.612   2.495   3.177
 6152TIP3    H118420   6.558   2.451   3.242
 6152TIP3    H218421   6.590   2.588   3.185
 6153TIP3   OH218422   1.908   5.795   0.133
 6153TIP3    H118423   1.987   5.815   0.083
 6153TIP3    H218424   1.840   5.784   0.067
 6154TIP3   OH218425   2.085   2.414   2.204
 6154TIP3    H118426   2.112   2.505   2.208
 6154TIP3    H218427   2.165   2.366   2.181
 6155TIP3   OH218428   2.407   6.262   3.870
 6155TIP3    H118429   2.351   6.194   3.907
 6155TIP3    H218430   2.477   6.214   3.826
 6156TIP3   OH218431   2.825   1.625   0.296
 6156TIP3    H118432   2.789   1.541   0.267
 6156TIP3    H218433   2.904   1.636   0.244
 6157TIP3   OH218434   4.859   4.403   2.358
 6157TIP3    H118435   4.803   4.407   2.281
 6157TIP3    H218436   4.817   4.338   2.415
 6158TIP3   OH218437   1.185   4.155   1.359
 6158TIP3    H118438   1.264   4.187   1.316
 6158TIP3    H218439   1.118   4.158   1.291
 6159TIP3   OH218440   2.509   1.342   1.266
 6159TIP3    H118441   2.413   1.344   1.270
 6159TIP3    H218442   2.530   1.261   1.220
 6160TIP3   OH218443   4.454   2.233   0.407
 6160TIP3    H118444   4.368   2.272   0.394
 6160TIP3    H218445   4.439   2.163   0.471
 6161TIP3   OH218446   0.462   6.473   3.395
 6161TIP3    H118447   0.422   6.530   3.329
 6161TIP3    H218448   0.543   6.442   3.355
 6162TIP3   OH218449   2.465   6.724   5.401
 6162TIP3    H118450   2.412   6.803   5.407
 6162TIP3    H218451   2.465   6.688   5.490
 6163TIP3   OH218452   2.653   0.379   0.170
 6163TIP3    H118453   2.703   0.318   0.223
 6163TIP3    H218454   2.635   0.453   0.229
 6164TIP3   OH218455   6.586   1.907   1.634
 6164TIP3    H118456   6.525   1.833   1.632
 6164TIP3    H218457   6.620   1.912   1.545
 6165TIP3   OH218458   4.694   5.247   0.358
 6165TIP3    H118459   4.660   5.225   0.445
 6165TIP3    H218460   4.616   5.271   0.308
 6166TIP3   OH218461   5.954   3.693   5.637
 6166TIP3    H118462   5.993   3.775   5.607
 6166TIP3    H218463   5.999   3.625   5.586
 6167TIP3   OH218464   3.633   3.035   2.224
 6167TIP3    H118465   3.562   2.973   2.239
 6167TIP3    H218466   3.668   3.054   2.311
 6168TIP3   OH218467   2.126   4.184   5.649
 6168TIP3    H118468   2.213   4.212   5.622
 6168TIP3    H218469   2.101   4.245   5.718
 6169TIP3   OH218470   1.032   0.341   3.420
 6169TIP3    H118471   0.938   0.357   3.406
 6169TIP3    H218472   1.037   0.248   3.442
 6170TIP3   OH218473   6.701   5.164   4.853
 6170TIP3    H118474   6.700   5.247   4.901
 6170TIP3    H218475   6.622   5.166   4.800
 6171TIP3   OH218476   6.421   5.956   2.131
 6171TIP3    H118477   6.401   6.042   2.095
 6171TIP3    H218478   6.335   5.916   2.146
 6172TIP3   OH218479   5.174   0.534   1.103
 6172TIP3    H118480   5.181   0.525   1.198
 6172TIP3    H218481   5.261   0.512   1.070
 6173TIP3   OH218482   3.446   6.288   3.430
 6173TIP3    H118483   3.491   6.212   3.394
 6173TIP3    H218484   3.505   6.321   3.498
 6174TIP3   OH218485   6.976   0.028   2.372
 6174TIP3    H118486   6.992   0.050   2.464
 6174TIP3    H218487   6.998   0.108   2.324
 6175TIP3   OH218488   2.640   5.868   2.445
 6175TIP3    H118489   2.709   5.891   2.383
 6175TIP3    H218490   2.573   5.935   2.431
 6176TIP3   OH218491   4.049   0.631   5.635
 6176TIP3    H118492   3.997   0.700   5.678
 6176TIP3    H218493   4.108   0.678   5.576
 6177TIP3   OH218494   5.115   2.118   0.867
 6177TIP3    H118495   5.137   2.029   0.891
 6177TIP3    H218496   5.107   2.165   0.951
 6178TIP3   OH218497   3.133   4.707   5.231
 6178TIP3    H118498   3.222   4.738   5.251
 6178TIP3    H218499   3.083   4.727   5.310
 6179TIP3   OH218500   3.953   6.038   2.393
 6179TIP3    H118501   3.973   6.081   2.310
 6179TIP3    H218502   3.962   6.108   2.459
 6180TIP3   OH218503   6.521   0.053   4.755
 6180TIP3    H118504   6.451   0.042   4.820
 6180TIP3    H218505   6.601   0.029   4.802
 6181TIP3   OH218506   4.480   6.606   4.337
 6181TIP3    H118507   4.451   6.691   4.369
 6181TIP3    H218508   4.405   6.548   4.350
 6182TIP3   OH218509   3.882   6.314   1.515
 6182TIP3    H118510   3.807   6.272   1.475
 6182TIP3    H218511   3.854   6.332   1.605
 6183TIP3   OH218512   6.657   0.369   5.527
 6183TIP3    H118513   6.587   0.331   5.579
 6183TIP3    H218514   6.671   0.456   5.566
 6184TIP3   OH218515   1.440   3.216   4.388
 6184TIP3    H118516   1.456   3.307   4.413
 6184TIP3    H218517   1.446   3.167   4.470
 6185TIP3   OH218518   2.968   1.424   2.837
 6185TIP3    H118519   3.005   1.463   2.757
 6185TIP3    H218520   2.884   1.389   2.810
 6186TIP3   OH218521   1.595   1.641   4.260
 6186TIP3    H118522   1.647   1.561   4.266
 6186TIP3    H218523   1.600   1.679   4.347
 6187TIP3   OH218524   2.909   2.302   3.076
 6187TIP3    H118525   2.997   2.314   3.041
 6187TIP3    H218526   2.866   2.386   3.061
 6188TIP3   OH218527   6.541   4.674   4.840
 6188TIP3    H118528   6.623   4.720   4.855
 6188TIP3    H218529   6.484   4.703   4.912
 6189TIP3   OH218530   3.057   3.885   4.805
 6189TIP3    H118531   3.023   3.974   4.801
 6189TIP3    H218532   3.141   3.893   4.849
 6190TIP3   OH218533   4.568   6.026   4.434
 6190TIP3    H118534   4.501   6.082   4.396
 6190TIP3    H218535   4.642   6.085   4.450
 6191TIP3   OH218536   1.726   2.285   1.026
 6191TIP3    H118537   1.795   2.317   0.967
 6191TIP3    H218538   1.646   2.325   0.992
 6192TIP3   OH218539   0.471   2.386   0.907
 6192TIP3    H118540   0.519   2.446   0.849
 6192TIP3    H218541   0.397   2.357   0.854
 6193TIP3   OH218542   0.573   3.451   2.324
 6193TIP3    H118543   0.631   3.448   2.401
 6193TIP3    H218544   0.603   3.380   2.268
 6194TIP3   OH218545   3.361   2.142   4.691
 6194TIP3    H118546   3.338   2.169   4.780
 6194TIP3    H218547   3.323   2.209   4.635
 6195TIP3   OH218548   2.024   3.611   3.602
 6195TIP3    H118549   2.027   3.706   3.598
 6195TIP3    H218550   1.970   3.592   3.679
 6196TIP3   OH218551   2.114   6.190   2.330
 6196TIP3    H118552   2.143   6.140   2.254
 6196TIP3    H218553   2.058   6.259   2.293
 6197TIP3   OH218554   2.309   1.271   4.384
 6197TIP3    H118555   2.240   1.337   4.386
 6197TIP3    H218556   2.376   1.308   4.326
 6198TIP3   OH218557   4.680   3.901   1.926
 6198TIP3    H118558   4.744   3.878   1.859
 6198TIP3    H218559   4.595   3.893   1.882
 6199TIP3   OH218560   6.756   3.683   1.453
 6199TIP3    H118561   6.826   3.669   1.516
 6199TIP3    H218562   6.683   3.716   1.505
 6200TIP3   OH218563   6.150   2.122   5.882
 6200TIP3    H118564   6.245   2.123   5.894
 6200TIP3    H218565   6.137   2.129   5.787
 6201TIP3   OH218566   2.392   0.719   5.821
 6201TIP3    H118567   2.436   0.640   5.854
 6201TIP3    H218568   2.300   0.707   5.846
 6202TIP3   OH218569   0.446   4.690   3.047
 6202TIP3    H118570   0.498   4.628   3.099
 6202TIP3    H218571   0.468   4.669   2.956
 6203TIP3   OH218572   6.092   5.676   2.876
 6203TIP3    H118573   6.006   5.669   2.836
 6203TIP3    H218574   6.075   5.671   2.970
 6204TIP3   OH218575   5.676   3.858   2.965
 6204TIP3    H118576   5.590   3.816   2.965
 6204TIP3    H218577   5.657   3.952   2.966
 6205TIP3   OH218578   3.840   5.992   5.158
 6205TIP3    H118579   3.807   5.941   5.084
 6205TIP3    H218580   3.762   6.036   5.193
 6206TIP3   OH218581   4.634   4.592   1.905
 6206TIP3    H118582   4.574   4.666   1.917
 6206TIP3    H218583   4.683   4.614   1.825
 6207TIP3   OH218584   2.857   5.080   1.239
 6207TIP3    H118585   2.931   5.112   1.290
 6207TIP3    H218586   2.882   5.095   1.147
 6208TIP3   OH218587   6.056   4.466   4.116
 6208TIP3    H118588   6.073   4.507   4.031
 6208TIP3    H218589   6.107   4.518   4.179
 6209TIP3   OH218590   0.627   5.385   2.635
 6209TIP3    H118591   0.626   5.469   2.681
 6209TIP3    H218592   0.624   5.409   2.542
 6210TIP3   OH218593   0.496   3.273   2.681
 6210TIP3    H118594   0.439   3.301   2.610
 6210TIP3    H218595   0.582   3.263   2.640
 6211TIP3   OH218596   3.844   6.078   3.558
 6211TIP3    H118597   3.834   6.050   3.468
 6211TIP3    H218598   3.802   6.164   3.561
 6212TIP3   OH218599   5.342   3.383   4.136
 6212TIP3    H118600   5.305   3.419   4.217
 6212TIP3    H218601   5.419   3.334   4.164
 6213TIP3   OH218602   5.394   1.783   3.969
 6213TIP3    H118603   5.396   1.854   3.905
 6213TIP3    H218604   5.412   1.704   3.918
 6214TIP3   OH218605   5.682   5.716   4.147
 6214TIP3    H118606   5.598   5.703   4.102
 6214TIP3    H218607   5.658   5.754   4.231
 6215TIP3   OH218608   6.999   4.531   5.033
 6215TIP3    H118609   7.069   4.595   5.045
 6215TIP3    H218610   7.023   4.484   4.953
 6216TIP3   OH218611   2.970   2.131   4.562
 6216TIP3    H118612   2.990   2.221   4.589
 6216TIP3    H218613   3.049   2.102   4.515
 6217TIP3   OH218614   1.097   5.302   3.214
 6217TIP3    H118615   1.119   5.210   3.198
 6217TIP3    H218616   1.038   5.300   3.289
 6218TIP3   OH218617   1.249   1.739   1.289
 6218TIP3    H118618   1.344   1.736   1.296
 6218TIP3    H218619   1.218   1.731   1.379
 6219TIP3   OH218620   5.167   6.735   1.144
 6219TIP3    H118621   5.098   6.730   1.078
 6219TIP3    H218622   5.202   6.824   1.135
 6220TIP3   OH218623   3.244   4.637   1.495
 6220TIP3    H118624   3.222   4.548   1.523
 6220TIP3    H218625   3.336   4.649   1.522
 6221TIP3   OH218626   2.531   3.162   3.253
 6221TIP3    H118627   2.563   3.074   3.235
 6221TIP3    H218628   2.476   3.184   3.177
 6222TIP3   OH218629   4.241   3.839   5.597
 6222TIP3    H118630   4.217   3.840   5.689
 6222TIP3    H218631   4.176   3.783   5.555
 6223TIP3   OH218632   6.181   2.401   4.530
 6223TIP3    H118633   6.220   2.384   4.616
 6223TIP3    H218634   6.247   2.450   4.482
 6224TIP3   OH218635   3.841   3.281   0.682
 6224TIP3    H118636   3.878   3.347   0.740
 6224TIP3    H218637   3.917   3.229   0.654
 6225TIP3   OH218638   1.371   6.519   4.809
 6225TIP3    H118639   1.462   6.548   4.806
 6225TIP3    H218640   1.320   6.598   4.791
 6226TIP3   OH218641   1.652   1.518   1.869
 6226TIP3    H118642   1.701   1.438   1.887
 6226TIP3    H218643   1.696   1.586   1.919
 6227TIP3   OH218644   4.899   6.546   5.389
 6227TIP3    H118645   4.806   6.524   5.391
 6227TIP3    H218646   4.936   6.504   5.466
 6228TIP3   OH218647   1.777   3.465   0.487
 6228TIP3    H118648   1.805   3.374   0.492
 6228TIP3    H218649   1.733   3.482   0.571
 6229TIP3   OH218650   5.086   5.820   1.664
 6229TIP3    H118651   5.008   5.839   1.714
 6229TIP3    H218652   5.066   5.850   1.575
 6230TIP3   OH218653   5.347   1.186   5.133
 6230TIP3    H118654   5.426   1.175   5.080
 6230TIP3    H218655   5.351   1.114   5.196
 6231TIP3   OH218656   4.529   3.417   5.431
 6231TIP3    H118657   4.522   3.464   5.347
 6231TIP3    H218658   4.481   3.472   5.493
 6232TIP3   OH218659   4.196   4.705   5.673
 6232TIP3    H118660   4.225   4.765   5.604
 6232TIP3    H218661   4.167   4.627   5.625
 6233TIP3   OH218662   2.177   4.090   4.624
 6233TIP3    H118663   2.263   4.131   4.631
 6233TIP3    H218664   2.130   4.144   4.560
 6234TIP3   OH218665   6.843   2.824   3.932
 6234TIP3    H118666   6.794   2.906   3.940
 6234TIP3    H218667   6.894   2.819   4.013
 6235TIP3   OH218668   5.857   6.381   2.180
 6235TIP3    H118669   5.869   6.374   2.275
 6235TIP3    H218670   5.943   6.360   2.144
 6236TIP3   OH218671   4.764   5.408   2.745
 6236TIP3    H118672   4.783   5.493   2.704
 6236TIP3    H218673   4.737   5.431   2.834
 6237TIP3   OH218674   5.078   0.189   3.263
 6237TIP3    H118675   5.095   0.226   3.349
 6237TIP3    H218676   5.164   0.177   3.224
 6238TIP3   OH218677   3.901   5.307   1.238
 6238TIP3    H118678   3.862   5.248   1.174
 6238TIP3    H218679   3.885   5.265   1.323
 6239TIP3   OH218680   5.056   0.877   1.637
 6239TIP3    H118681   5.013   0.793   1.625
 6239TIP3    H218682   4.998   0.925   1.697
 6240TIP3   OH218683   3.100   4.273   5.500
 6240TIP3    H118684   3.139   4.186   5.511
 6240TIP3    H218685   3.035   4.261   5.430
 6241TIP3   OH218686   1.729   5.925   3.460
 6241TIP3    H118687   1.637   5.934   3.486
 6241TIP3    H218688   1.743   5.996   3.397
 6242TIP3   OH218689   4.051   6.165   1.757
 6242TIP3    H118690   4.125   6.106   1.739
 6242TIP3    H218691   3.973   6.112   1.738
 6243TIP3   OH218692   2.014   1.833   0.797
 6243TIP3    H118693   1.977   1.919   0.819
 6243TIP3    H218694   1.961   1.771   0.847
 6244TIP3   OH218695   5.687   6.354   0.279
 6244TIP3    H118696   5.616   6.390   0.333
 6244TIP3    H218697   5.713   6.273   0.324
 6245TIP3   OH218698   6.621   6.248   1.862
 6245TIP3    H118699   6.618   6.215   1.952
 6245TIP3    H218700   6.698   6.305   1.860
 6246TIP3   OH218701   5.191   2.202   2.705
 6246TIP3    H118702   5.099   2.179   2.690
 6246TIP3    H218703   5.209   2.269   2.639
 6247TIP3   OH218704   1.129   6.730   4.051
 6247TIP3    H118705   1.146   6.670   4.124
 6247TIP3    H218706   1.173   6.690   3.977
 6248TIP3   OH218707   0.584   1.082   5.263
 6248TIP3    H118708   0.646   1.012   5.285
 6248TIP3    H218709   0.513   1.037   5.218
 6249TIP3   OH218710   1.005   0.982   2.434
 6249TIP3    H118711   0.987   0.982   2.528
 6249TIP3    H218712   0.941   0.921   2.397
 6250TIP3   OH218713   6.781   4.500   0.782
 6250TIP3    H118714   6.868   4.515   0.745
 6250TIP3    H218715   6.758   4.412   0.753
 6251TIP3   OH218716   0.169   3.643   1.056
 6251TIP3    H118717   0.237   3.579   1.035
 6251TIP3    H218718   0.167   3.701   0.981
 6252TIP3   OH218719   0.823   4.093   5.169
 6252TIP3    H118720   0.803   4.186   5.178
 6252TIP3    H218721   0.747   4.049   5.207
 6253TIP3   OH218722   5.603   6.329   3.386
 6253TIP3    H118723   5.512   6.336   3.415
 6253TIP3    H218724   5.652   6.310   3.465
 6254TIP3   OH218725   1.341   2.617   2.290
 6254TIP3    H118726   1.250   2.645   2.296
 6254TIP3    H218727   1.336   2.531   2.248
 6255TIP3   OH218728   1.204   2.654   1.952
 6255TIP3    H118729   1.243   2.571   1.978
 6255TIP3    H218730   1.122   2.630   1.910
 6256TIP3   OH218731   4.466   2.311   4.740
 6256TIP3    H118732   4.467   2.306   4.645
 6256TIP3    H218733   4.515   2.235   4.770
 6257TIP3   OH218734   4.432   2.207   2.963
 6257TIP3    H118735   4.445   2.149   2.888
 6257TIP3    H218736   4.342   2.190   2.991
 6258TIP3   OH218737   4.343   1.731   1.136
 6258TIP3    H118738   4.379   1.690   1.214
 6258TIP3    H218739   4.369   1.823   1.142
 6259TIP3   OH218740   0.893   3.054   0.180
 6259TIP3    H118741   0.984   3.029   0.170
 6259TIP3    H218742   0.844   2.986   0.134
 6260TIP3   OH218743   2.462   1.277   5.797
 6260TIP3    H118744   2.423   1.218   5.733
 6260TIP3    H218745   2.400   1.278   5.869
 6261TIP3   OH218746   1.234   5.037   3.258
 6261TIP3    H118747   1.328   5.037   3.276
 6261TIP3    H218748   1.225   5.003   3.170
 6262TIP3   OH218749   6.990   3.554   0.910
 6262TIP3    H118750   7.016   3.470   0.875
 6262TIP3    H218751   6.983   3.611   0.834
 6263TIP3   OH218752   2.492   6.328   3.280
 6263TIP3    H118753   2.585   6.323   3.256
 6263TIP3    H218754   2.468   6.418   3.261
 6264TIP3   OH218755   5.631   4.454   3.659
 6264TIP3    H118756   5.585   4.372   3.640
 6264TIP3    H218757   5.663   4.442   3.749
 6265TIP3   OH218758   2.501   4.902   2.711
 6265TIP3    H118759   2.457   4.935   2.632
 6265TIP3    H218760   2.569   4.844   2.678
 6266TIP3   OH218761   1.223   6.006   3.946
 6266TIP3    H118762   1.159   6.019   3.876
 6266TIP3    H218763   1.259   6.093   3.962
 6267TIP3   OH218764   7.125   0.967   0.316
 6267TIP3    H118765   7.145   1.057   0.340
 6267TIP3    H218766   7.030   0.962   0.316
 6268TIP3   OH218767   6.956   6.714   2.090
 6268TIP3    H118768   6.981   6.626   2.118
 6268TIP3    H218769   7.021   6.772   2.130
 6269TIP3   OH218770   1.281   3.506   0.776
 6269TIP3    H118771   1.227   3.430   0.797
 6269TIP3    H218772   1.360   3.495   0.829
 6270TIP3   OH218773   0.091   1.102   0.553
 6270TIP3    H118774   0.115   1.115   0.462
 6270TIP3    H218775   0.028   1.029   0.552
 6271TIP3   OH218776   3.842   6.508   4.904
 6271TIP3    H118777   3.753   6.511   4.868
 6271TIP3    H218778   3.863   6.599   4.924
 6272TIP3   OH218779   1.957   5.302   1.413
 6272TIP3    H118780   1.988   5.392   1.410
 6272TIP3    H218781   1.907   5.296   1.494
 6273TIP3   OH218782   6.856   4.525   0.199
 6273TIP3    H118783   6.835   4.442   0.157
 6273TIP3    H218784   6.915   4.570   0.138
 6274TIP3   OH218785   6.594   4.261   2.664
 6274TIP3    H118786   6.519   4.317   2.686
 6274TIP3    H218787   6.650   4.315   2.609
 6275TIP3   OH218788   7.085   0.993   3.675
 6275TIP3    H118789   7.094   0.900   3.654
 6275TIP3    H218790   7.001   1.018   3.638
 6276TIP3   OH218791   2.744   4.211   0.933
 6276TIP3    H118792   2.824   4.213   0.986
 6276TIP3    H218793   2.735   4.119   0.908
 6277TIP3   OH218794   2.433   2.563   3.793
 6277TIP3    H118795   2.448   2.495   3.858
 6277TIP3    H218796   2.519   2.602   3.779
 6278TIP3   OH218797   3.740   6.660   3.994
 6278TIP3    H118798   3.797   6.669   4.070
 6278TIP3    H218799   3.674   6.729   4.005
 6279TIP3   OH218800   5.244   6.108   1.800
 6279TIP3    H118801   5.278   6.128   1.887
 6279TIP3    H218802   5.202   6.023   1.809
 6280TIP3   OH218803   2.030   4.078   4.884
 6280TIP3    H118804   2.099   4.142   4.902
 6280TIP3    H218805   2.037   4.062   4.790
 6281TIP3   OH218806   4.514   5.503   1.021
 6281TIP3    H118807   4.594   5.541   0.984
 6281TIP3    H218808   4.515   5.532   1.113
 6282TIP3   OH218809   0.774   0.165   0.120
 6282TIP3    H118810   0.735   0.156   0.207
 6282TIP3    H218811   0.853   0.218   0.134
 6283TIP3   OH218812   1.919   2.590   2.495
 6283TIP3    H118813   2.006   2.567   2.526
 6283TIP3    H218814   1.923   2.684   2.479
 6284TIP3   OH218815   5.099   1.270   5.188
 6284TIP3    H118816   5.169   1.213   5.154
 6284TIP3    H218817   5.140   1.356   5.195
 6285TIP3   OH218818   3.993   2.052   0.277
 6285TIP3    H118819   3.993   2.090   0.365
 6285TIP3    H218820   4.030   2.122   0.222
 6286TIP3   OH218821   5.906   2.548   2.624
 6286TIP3    H118822   5.855   2.523   2.547
 6286TIP3    H218823   5.997   2.543   2.595
 6287TIP3   OH218824   6.594   5.679   5.720
 6287TIP3    H118825   6.667   5.652   5.665
 6287TIP3    H218826   6.631   5.741   5.782
 6288TIP3   OH218827   6.684   6.337   0.260
 6288TIP3    H118828   6.621   6.354   0.190
 6288TIP3    H218829   6.634   6.293   0.328
 6289TIP3   OH218830   0.353   4.273   2.943
 6289TIP3    H118831   0.398   4.293   2.861
 6289TIP3    H218832   0.262   4.296   2.927
 6290TIP3   OH218833   1.784   5.393   4.803
 6290TIP3    H118834   1.789   5.396   4.899
 6290TIP3    H218835   1.698   5.357   4.784
 6291TIP3   OH218836   0.529   2.833   4.782
 6291TIP3    H118837   0.562   2.747   4.807
 6291TIP3    H218838   0.434   2.827   4.793
 6292TIP3   OH218839   4.212   3.921   0.247
 6292TIP3    H118840   4.157   3.858   0.294
 6292TIP3    H218841   4.230   3.878   0.163
 6293TIP3   OH218842   4.481   4.866   3.356
 6293TIP3    H118843   4.514   4.777   3.367
 6293TIP3    H218844   4.417   4.877   3.427
 6294TIP3   OH218845   2.320   1.254   2.426
 6294TIP3    H118846   2.262   1.242   2.501
 6294TIP3    H218847   2.345   1.165   2.399
 6295TIP3   OH218848   2.091   4.371   1.251
 6295TIP3    H118849   2.160   4.433   1.230
 6295TIP3    H218850   2.104   4.297   1.191
 6296TIP3   OH218851   6.037   1.601   5.557
 6296TIP3    H118852   5.981   1.623   5.483
 6296TIP3    H218853   6.081   1.683   5.580
 6297TIP3   OH218854   5.820   1.226   3.556
 6297TIP3    H118855   5.798   1.214   3.648
 6297TIP3    H218856   5.743   1.194   3.508
 6298TIP3   OH218857   7.196   3.578   2.903
 6298TIP3    H118858   7.155   3.640   2.842
 6298TIP3    H218859   7.250   3.522   2.848
 6299TIP3   OH218860   5.120   1.778   1.576
 6299TIP3    H118861   5.039   1.742   1.539
 6299TIP3    H218862   5.135   1.726   1.655
 6300TIP3   OH218863   5.624   2.685   4.830
 6300TIP3    H118864   5.719   2.690   4.816
 6300TIP3    H218865   5.591   2.765   4.789
 6301TIP3   OH218866   5.968   4.754   1.859
 6301TIP3    H118867   5.931   4.687   1.802
 6301TIP3    H218868   5.905   4.764   1.930
 6302TIP3   OH218869   3.382   6.550   4.089
 6302TIP3    H118870   3.383   6.493   4.165
 6302TIP3    H218871   3.328   6.503   4.025
 6303TIP3   OH218872   4.545   1.515   2.403
 6303TIP3    H118873   4.496   1.597   2.409
 6303TIP3    H218874   4.634   1.539   2.428
 6304TIP3   OH218875   1.186   2.622   3.431
 6304TIP3    H118876   1.185   2.548   3.492
 6304TIP3    H218877   1.260   2.605   3.373
 6305TIP3   OH218878   1.737   5.042   5.341
 6305TIP3    H118879   1.689   5.050   5.424
 6305TIP3    H218880   1.677   4.996   5.283
 6306TIP3   OH218881   3.020   0.048   2.630
 6306TIP3    H118882   2.982   0.125   2.671
 6306TIP3    H218883   3.109   0.075   2.605
 6307TIP3   OH218884   3.427   5.639   4.615
 6307TIP3    H118885   3.406   5.705   4.681
 6307TIP3    H218886   3.369   5.658   4.542
 6308TIP3   OH218887   3.890   5.434   3.844
 6308TIP3    H118888   3.874   5.367   3.778
 6308TIP3    H218889   3.824   5.501   3.826
 6309TIP3   OH218890   3.924   5.471   4.375
 6309TIP3    H118891   3.941   5.556   4.334
 6309TIP3    H218892   3.828   5.462   4.372
 6310TIP3   OH218893   1.259   3.340   4.845
 6310TIP3    H118894   1.349   3.348   4.813
 6310TIP3    H218895   1.228   3.257   4.809
 6311TIP3   OH218896   4.617   3.876   4.162
 6311TIP3    H118897   4.533   3.831   4.153
 6311TIP3    H218898   4.679   3.806   4.181
 6312TIP3   OH218899   3.579   2.647   2.959
 6312TIP3    H118900   3.577   2.741   2.979
 6312TIP3    H218901   3.515   2.635   2.890
 6313TIP3   OH218902   2.720   5.499   5.145
 6313TIP3    H118903   2.695   5.493   5.052
 6313TIP3    H218904   2.814   5.479   5.146
 6314TIP3   OH218905   0.665   3.806   1.687
 6314TIP3    H118906   0.698   3.849   1.766
 6314TIP3    H218907   0.703   3.856   1.615
 6315TIP3   OH218908   5.902   3.942   1.586
 6315TIP3    H118909   5.886   3.975   1.498
 6315TIP3    H218910   5.827   3.974   1.637
 6316TIP3   OH218911   6.892   0.920  -0.003
 6316TIP3    H118912   6.825   0.874   0.048
 6316TIP3    H218913   6.884   1.012   0.024
 6317TIP3   OH218914   6.784   3.066   2.871
 6317TIP3    H118915   6.824   3.153   2.880
 6317TIP3    H218916   6.854   3.010   2.838
 6318TIP3   OH218917   4.688   5.682   4.624
 6318TIP3    H118918   4.690   5.625   4.701
 6318TIP3    H218919   4.613   5.652   4.574
 6319TIP3   OH218920   1.002   6.711   3.373
 6319TIP3    H118921   1.019   6.791   3.423
 6319TIP3    H218922   1.049   6.724   3.290
 6320TIP3   OH218923   5.715   2.487   0.385
 6320TIP3    H118924   5.722   2.445   0.300
 6320TIP3    H218925   5.679   2.420   0.443
 6321TIP3   OH218926   5.549   2.894   2.280
 6321TIP3    H118927   5.493   2.873   2.354
 6321TIP3    H218928   5.547   2.989   2.273
 6322TIP3   OH218929   1.427   1.426   4.409
 6322TIP3    H118930   1.472   1.510   4.409
 6322TIP3    H218931   1.340   1.445   4.446
 6323TIP3   OH218932   4.999   6.300   1.906
 6323TIP3    H118933   5.000   6.288   2.001
 6323TIP3    H218934   5.064   6.237   1.873
 6324TIP3   OH218935   4.701   2.719   3.619
 6324TIP3    H118936   4.777   2.691   3.671
 6324TIP3    H218937   4.733   2.793   3.568
 6325TIP3   OH218938   4.517   5.717   1.241
 6325TIP3    H118939   4.470   5.791   1.202
 6325TIP3    H218940   4.609   5.739   1.232
 6326TIP3   OH218941   2.509   6.497   2.163
 6326TIP3    H118942   2.447   6.564   2.191
 6326TIP3    H218943   2.594   6.532   2.189
 6327TIP3   OH218944   0.348   5.950   3.854
 6327TIP3    H118945   0.353   5.947   3.759
 6327TIP3    H218946   0.432   5.914   3.883
 6328TIP3   OH218947   6.046   3.012   2.018
 6328TIP3    H118948   6.116   3.019   2.083
 6328TIP3    H218949   6.055   3.091   1.965
 6329TIP3   OH218950   0.131   4.004   0.947
 6329TIP3    H118951   0.086   3.950   0.882
 6329TIP3    H218952   0.089   4.090   0.940
 6330TIP3   OH218953   3.756   1.939   4.979
 6330TIP3    H118954   3.689   1.874   4.998
 6330TIP3    H218955   3.838   1.890   4.979
 6331TIP3   OH218956   1.570   3.971   1.410
 6331TIP3    H118957   1.634   4.012   1.468
 6331TIP3    H218958   1.514   3.920   1.468
 6332TIP3   OH218959   0.969   1.582   0.365
 6332TIP3    H118960   0.889   1.608   0.319
 6332TIP3    H218961   0.939   1.520   0.432
 6333TIP3   OH218962   1.429   6.423   1.637
 6333TIP3    H118963   1.334   6.419   1.646
 6333TIP3    H218964   1.444   6.461   1.551
 6334TIP3   OH218965   3.943   4.323   0.793
 6334TIP3    H118966   3.958   4.417   0.784
 6334TIP3    H218967   4.022   4.282   0.758
 6335TIP3   OH218968   0.594   2.548   0.647
 6335TIP3    H118969   0.658   2.504   0.592
 6335TIP3    H218970   0.520   2.565   0.589
 6336TIP3   OH218971   3.364   5.492   5.542
 6336TIP3    H118972   3.341   5.442   5.621
 6336TIP3    H218973   3.281   5.500   5.494
 6337TIP3   OH218974   2.536   5.979   2.111
 6337TIP3    H118975   2.492   5.896   2.130
 6337TIP3    H218976   2.472   6.046   2.134
 6338TIP3   OH218977   3.948   5.815   2.759
 6338TIP3    H118978   3.861   5.828   2.796
 6338TIP3    H218979   3.995   5.895   2.779
 6339TIP3   OH218980   5.523   2.738   1.195
 6339TIP3    H118981   5.579   2.768   1.123
 6339TIP3    H218982   5.567   2.660   1.228
 6340TIP3   OH218983   3.023   1.311   0.437
 6340TIP3    H118984   2.980   1.315   0.522
 6340TIP3    H218985   2.978   1.241   0.390
 6341TIP3   OH218986   0.871   2.840   4.547
 6341TIP3    H118987   0.907   2.751   4.542
 6341TIP3    H218988   0.895   2.881   4.464
 6342TIP3   OH218989   5.094   5.227   2.378
 6342TIP3    H118990   5.163   5.164   2.395
 6342TIP3    H218991   5.021   5.197   2.433
 6343TIP3   OH218992   0.587   5.452   2.368
 6343TIP3    H118993   0.565   5.408   2.285
 6343TIP3    H218994   0.604   5.543   2.342
 6344TIP3   OH218995   3.259   6.478   2.721
 6344TIP3    H118996   3.198   6.404   2.721
 6344TIP3    H218997   3.237   6.527   2.642
 6345TIP3   OH218998   0.930   6.045   2.239
 6345TIP3    H118999   0.995   5.988   2.197
 6345TIP3    H219000   0.980   6.123   2.263
 6346TIP3   OH219001   5.874   1.749   3.046
 6346TIP3    H119002   5.907   1.746   3.136
 6346TIP3    H219003   5.943   1.794   2.997
 6347TIP3   OH219004   1.192   1.497   4.543
 6347TIP3    H119005   1.219   1.585   4.569
 6347TIP3    H219006   1.096   1.499   4.548
 6348TIP3   OH219007   0.226   4.005   2.698
 6348TIP3    H119008   0.229   3.915   2.665
 6348TIP3    H219009   0.154   4.004   2.762
 6349TIP3   OH219010   1.578   1.234   1.385
 6349TIP3    H119011   1.581   1.320   1.344
 6349TIP3    H219012   1.609   1.173   1.318
 6350TIP3   OH219013   5.734   1.406   1.284
 6350TIP3    H119014   5.683   1.416   1.364
 6350TIP3    H219015   5.814   1.362   1.312
 6351TIP3   OH219016   1.155   6.468   1.756
 6351TIP3    H119017   1.087   6.400   1.753
 6351TIP3    H219018   1.175   6.478   1.849
 6352TIP3   OH219019   1.265   2.098   1.605
 6352TIP3    H119020   1.237   2.152   1.679
 6352TIP3    H219021   1.355   2.074   1.626
 6353TIP3   OH219022   7.113   0.705   2.201
 6353TIP3    H119023   7.188   0.693   2.142
 6353TIP3    H219024   7.093   0.798   2.195
 6354TIP3   OH219025   4.620   5.543   0.462
 6354TIP3    H119026   4.623   5.459   0.416
 6354TIP3    H219027   4.605   5.520   0.553
 6355TIP3   OH219028   4.357   6.482   2.699
 6355TIP3    H119029   4.443   6.522   2.715
 6355TIP3    H219030   4.363   6.447   2.611
 6356TIP3   OH219031   4.731   2.906   3.360
 6356TIP3    H119032   4.694   2.831   3.314
 6356TIP3    H219033   4.741   2.974   3.292
 6357TIP3   OH219034   5.367   3.171   4.759
 6357TIP3    H119035   5.334   3.253   4.723
 6357TIP3    H219036   5.290   3.130   4.800
 6358TIP3   OH219037   0.853   3.020   3.790
 6358TIP3    H119038   0.947   3.002   3.794
 6358TIP3    H219039   0.846   3.113   3.812
 6359TIP3   OH219040   4.596   5.317   4.585
 6359TIP3    H119041   4.546   5.364   4.519
 6359TIP3    H219042   4.569   5.357   4.668
 6360TIP3   OH219043   0.269   2.743   3.211
 6360TIP3    H119044   0.320   2.817   3.245
 6360TIP3    H219045   0.288   2.741   3.117
 6361TIP3   OH219046   0.276   4.857   0.704
 6361TIP3    H119047   0.326   4.860   0.622
 6361TIP3    H219048   0.341   4.833   0.771
 6362TIP3   OH219049   0.593   0.879   3.690
 6362TIP3    H119050   0.579   0.790   3.655
 6362TIP3    H219051   0.540   0.935   3.634
 6363TIP3   OH219052   4.848   3.404   3.589
 6363TIP3    H119053   4.782   3.460   3.629
 6363TIP3    H219054   4.808   3.317   3.586
 6364TIP3   OH219055   3.609   6.208   4.918
 6364TIP3    H119056   3.663   6.137   4.883
 6364TIP3    H219057   3.636   6.286   4.869
 6365TIP3   OH219058   4.206   4.355   0.508
 6365TIP3    H119059   4.177   4.277   0.555
 6365TIP3    H219060   4.301   4.346   0.500
 6366TIP3   OH219061   5.578   6.447   1.166
 6366TIP3    H119062   5.575   6.433   1.072
 6366TIP3    H219063   5.494   6.490   1.186
 6367TIP3   OH219064   4.456   4.532   2.642
 6367TIP3    H119065   4.373   4.578   2.633
 6367TIP3    H219066   4.479   4.542   2.735
 6368TIP3   OH219067   2.023   2.585   4.837
 6368TIP3    H119068   1.939   2.579   4.882
 6368TIP3    H219069   2.088   2.588   4.907
 6369TIP3   OH219070   0.831   6.256   5.235
 6369TIP3    H119071   0.836   6.343   5.196
 6369TIP3    H219072   0.922   6.227   5.241
 6370TIP3   OH219073   1.371   5.905   3.048
 6370TIP3    H119074   1.282   5.872   3.059
 6370TIP3    H219075   1.419   5.868   3.122
 6371TIP3   OH219076   6.753   2.243   1.010
 6371TIP3    H119077   6.732   2.163   0.963
 6371TIP3    H219078   6.845   2.260   0.991
 6372TIP3   OH219079   5.921   5.200   4.558
 6372TIP3    H119080   6.004   5.169   4.522
 6372TIP3    H219081   5.922   5.172   4.650
 6373TIP3   OH219082   0.517   0.204   2.472
 6373TIP3    H119083   0.448   0.186   2.535
 6373TIP3    H219084   0.511   0.132   2.408
 6374TIP3   OH219085   5.908   2.808   0.143
 6374TIP3    H119086   5.952   2.820   0.228
 6374TIP3    H219087   5.930   2.887   0.094
 6375TIP3   OH219088   3.443   0.580   1.868
 6375TIP3    H119089   3.504   0.647   1.837
 6375TIP3    H219090   3.427   0.603   1.960
 6376TIP3   OH219091   5.760   3.634   3.141
 6376TIP3    H119092   5.709   3.683   3.206
 6376TIP3    H219093   5.739   3.677   3.058
 6377TIP3   OH219094   1.139   3.685   4.125
 6377TIP3    H119095   1.221   3.671   4.172
 6377TIP3    H219096   1.073   3.642   4.178
 6378TIP3   OH219097   3.836   1.135   2.312
 6378TIP3    H119098   3.806   1.063   2.257
 6378TIP3    H219099   3.757   1.182   2.336
 6379TIP3   OH219100   2.544   2.884   5.027
 6379TIP3    H119101   2.574   2.936   5.102
 6379TIP3    H219102   2.526   2.948   4.959
 6380TIP3   OH219103   0.922   3.342   5.912
 6380TIP3    H119104   0.956   3.423   5.873
 6380TIP3    H219105   0.878   3.298   5.839
 6381TIP3   OH219106   0.933   1.004   2.736
 6381TIP3    H119107   0.840   1.001   2.711
 6381TIP3    H219108   0.931   1.025   2.830
 6382TIP3   OH219109   5.057   2.302   0.350
 6382TIP3    H119110   5.083   2.262   0.433
 6382TIP3    H219111   4.966   2.274   0.337
 6383TIP3   OH219112   0.851   4.345   2.238
 6383TIP3    H119113   0.775   4.288   2.254
 6383TIP3    H219114   0.878   4.324   2.148
 6384TIP3   OH219115   1.862   6.259   1.126
 6384TIP3    H119116   1.859   6.190   1.192
 6384TIP3    H219117   1.775   6.259   1.086
 6385TIP3   OH219118   3.902   0.757   2.333
 6385TIP3    H119119   3.811   0.728   2.325
 6385TIP3    H219120   3.897   0.837   2.387
 6386TIP3   OH219121   4.031   2.195   5.694
 6386TIP3    H119122   3.960   2.214   5.756
 6386TIP3    H219123   4.005   2.239   5.613
 6387TIP3   OH219124   6.401   2.958   3.808
 6387TIP3    H119125   6.365   2.879   3.848
 6387TIP3    H219126   6.491   2.934   3.784
 6388TIP3   OH219127   0.225   2.473   4.610
 6388TIP3    H119128   0.263   2.453   4.524
 6388TIP3    H219129   0.250   2.399   4.665
 6389TIP3   OH219130   0.412   4.543   5.378
 6389TIP3    H119131   0.454   4.570   5.460
 6389TIP3    H219132   0.465   4.470   5.346
 6390TIP3   OH219133   5.248   3.462   0.023
 6390TIP3    H119134   5.325   3.440   0.076
 6390TIP3    H219135   5.174   3.448   0.082
 6391TIP3   OH219136   0.542   3.544   3.591
 6391TIP3    H119137   0.609   3.542   3.660
 6391TIP3    H219138   0.579   3.492   3.520
 6392TIP3   OH219139   3.101   2.065   4.845
 6392TIP3    H119140   3.031   2.116   4.886
 6392TIP3    H219141   3.182   2.103   4.878
 6393TIP3   OH219142   2.128   0.505   1.595
 6393TIP3    H119143   2.176   0.499   1.513
 6393TIP3    H219144   2.195   0.499   1.663
 6394TIP3   OH219145   2.221   6.740   4.206
 6394TIP3    H119146   2.186   6.660   4.168
 6394TIP3    H219147   2.298   6.760   4.153
 6395TIP3   OH219148   6.378   6.497   5.082
 6395TIP3    H119149   6.390   6.468   5.172
 6395TIP3    H219150   6.462   6.538   5.059
 6396TIP3   OH219151   3.824   5.295   0.696
 6396TIP3    H119152   3.768   5.246   0.636
 6396TIP3    H219153   3.886   5.231   0.730
 6397TIP3   OH219154   2.139   2.285   5.681
 6397TIP3    H119155   2.198   2.332   5.622
 6397TIP3    H219156   2.145   2.193   5.654
 6398TIP3   OH219157   4.264   3.560   0.840
 6398TIP3    H119158   4.199   3.493   0.858
 6398TIP3    H219159   4.329   3.551   0.910
 6399TIP3   OH219160   4.355   3.586   5.819
 6399TIP3    H119161   4.331   3.652   5.885
 6399TIP3    H219162   4.271   3.559   5.781
 6400TIP3   OH219163   1.921   2.582   1.904
 6400TIP3    H119164   1.908   2.675   1.887
 6400TIP3    H219165   1.940   2.576   1.997
 6401TIP3   OH219166   3.587   3.860   5.874
 6401TIP3    H119167   3.614   3.804   5.802
 6401TIP3    H219168   3.640   3.939   5.864
 6402TIP3   OH219169   7.053   6.784   1.816
 6402TIP3    H119170   7.146   6.798   1.834
 6402TIP3    H219171   7.018   6.745   1.896
 6403TIP3   OH219172   6.238   5.636   1.579
 6403TIP3    H119173   6.329   5.634   1.606
 6403TIP3    H219174   6.241   5.646   1.484
 6404TIP3   OH219175   0.073   1.284   0.949
 6404TIP3    H119176  -0.003   1.234   0.920
 6404TIP3    H219177   0.037   1.367   0.980
 6405TIP3   OH219178   2.466   2.242   0.594
 6405TIP3    H119179   2.458   2.164   0.540
 6405TIP3    H219180   2.448   2.314   0.534
 6406TIP3   OH219181   0.040   3.958   4.291
 6406TIP3    H119182   0.029   3.930   4.381
 6406TIP3    H219183   0.098   3.893   4.252
 6407TIP3   OH219184   6.780   4.028   3.718
 6407TIP3    H119185   6.807   3.936   3.724
 6407TIP3    H219186   6.857   4.074   3.687
 6408TIP3   OH219187   2.426   6.299   5.805
 6408TIP3    H119188   2.346   6.300   5.859
 6408TIP3    H219189   2.430   6.210   5.770
 6409TIP3   OH219190   6.353   5.018   3.765
 6409TIP3    H119191   6.351   4.931   3.804
 6409TIP3    H219192   6.383   5.004   3.675
 6410TIP3   OH219193   6.718   1.098   2.746
 6410TIP3    H119194   6.636   1.121   2.791
 6410TIP3    H219195   6.690   1.067   2.660
 6411TIP3   OH219196   5.240   5.367   4.753
 6411TIP3    H119197   5.230   5.334   4.843
 6411TIP3    H219198   5.314   5.318   4.718
 6412TIP3   OH219199   3.170   1.863   1.987
 6412TIP3    H119200   3.166   1.907   2.072
 6412TIP3    H219201   3.116   1.785   1.998
 6413TIP3   OH219202   1.378   2.242   4.893
 6413TIP3    H119203   1.323   2.184   4.945
 6413TIP3    H219204   1.320   2.275   4.825
 6414TIP3   OH219205   2.318   5.661   5.289
 6414TIP3    H119206   2.359   5.575   5.303
 6414TIP3    H219207   2.233   5.655   5.333
 6415TIP3   OH219208   1.562   5.038   5.560
 6415TIP3    H119209   1.573   5.027   5.654
 6415TIP3    H219210   1.480   5.087   5.552
 6416TIP3   OH219211   1.031   6.509   5.721
 6416TIP3    H119212   0.975   6.581   5.748
 6416TIP3    H219213   1.014   6.439   5.784
 6417TIP3   OH219214   3.564   4.735   3.265
 6417TIP3    H119215   3.602   4.806   3.317
 6417TIP3    H219216   3.638   4.700   3.215
 6418TIP3   OH219217   5.428   0.716   2.201
 6418TIP3    H119218   5.397   0.722   2.292
 6418TIP3    H219219   5.407   0.802   2.164
 6419TIP3   OH219220   0.191   4.388   1.296
 6419TIP3    H119221   0.153   4.450   1.359
 6419TIP3    H219222   0.141   4.402   1.216
 6420TIP3   OH219223   7.158   0.096   4.807
 6420TIP3    H119224   7.131   0.182   4.774
 6420TIP3    H219225   7.251   0.090   4.783
 6421TIP3   OH219226   1.947   0.956   0.647
 6421TIP3    H119227   2.010   0.900   0.602
 6421TIP3    H219228   1.971   0.951   0.739
 6422TIP3   OH219229   7.069   5.886   5.855
 6422TIP3    H119230   7.027   5.829   5.920
 6422TIP3    H219231   7.070   5.972   5.896
 6423TIP3   OH219232   3.259   6.045   0.462
 6423TIP3    H119233   3.213   6.016   0.384
 6423TIP3    H219234   3.279   5.964   0.510
 6424TIP3   OH219235   5.860   1.929   1.954
 6424TIP3    H119236   5.817   1.964   1.876
 6424TIP3    H219237   5.949   1.963   1.950
 6425TIP3   OH219238   5.269   1.879   3.663
 6425TIP3    H119239   5.327   1.948   3.697
 6425TIP3    H219240   5.184   1.922   3.653
 6426TIP3   OH219241   2.768   3.844   5.392
 6426TIP3    H119242   2.740   3.935   5.398
 6426TIP3    H219243   2.727   3.801   5.467
 6427TIP3   OH219244  -0.056   4.981   4.689
 6427TIP3    H119245   0.016   4.976   4.752
 6427TIP3    H219246  -0.016   4.963   4.605
 6428TIP3   OH219247   4.155   6.694   3.459
 6428TIP3    H119248   4.249   6.680   3.447
 6428TIP3    H219249   4.114   6.646   3.387
 6429TIP3   OH219250   2.985   0.899   2.340
 6429TIP3    H119251   3.072   0.907   2.301
 6429TIP3    H219252   2.965   0.986   2.373
 6430TIP3   OH219253   4.256   0.112   4.142
 6430TIP3    H119254   4.288   0.026   4.118
 6430TIP3    H219255   4.308   0.173   4.089
 6431TIP3   OH219256   0.721   6.112   0.586
 6431TIP3    H119257   0.768   6.161   0.518
 6431TIP3    H219258   0.647   6.168   0.609
 6432TIP3   OH219259   4.540   5.507   0.723
 6432TIP3    H119260   4.514   5.595   0.751
 6432TIP3    H219261   4.620   5.489   0.773
 6433TIP3   OH219262   2.542   4.846   5.793
 6433TIP3    H119263   2.606   4.784   5.829
 6433TIP3    H219264   2.483   4.865   5.866
 6434TIP3   OH219265   5.324   4.653   1.125
 6434TIP3    H119266   5.392   4.710   1.163
 6434TIP3    H219267   5.368   4.568   1.114
 6435TIP3   OH219268   5.937   2.411   4.324
 6435TIP3    H119269   5.895   2.333   4.288
 6435TIP3    H219270   6.017   2.379   4.365
 6436TIP3   OH219271   6.702   3.216   1.950
 6436TIP3    H119272   6.687   3.184   2.038
 6436TIP3    H219273   6.661   3.151   1.893
 6437TIP3   OH219274   5.655   1.643   2.921
 6437TIP3    H119275   5.703   1.592   2.855
 6437TIP3    H219276   5.722   1.674   2.981
 6438TIP3   OH219277   3.237   3.997   2.206
 6438TIP3    H119278   3.318   4.018   2.252
 6438TIP3    H219279   3.171   3.991   2.276
 6439TIP3   OH219280   4.608   2.750   0.137
 6439TIP3    H119281   4.537   2.739   0.200
 6439TIP3    H219282   4.688   2.744   0.189
 6440TIP3   OH219283   3.393   1.170   2.154
 6440TIP3    H119284   3.430   1.130   2.075
 6440TIP3    H219285   3.333   1.237   2.120
 6441TIP3   OH219286   6.506   3.735   4.424
 6441TIP3    H119287   6.492   3.693   4.339
 6441TIP3    H219288   6.473   3.824   4.413
 6442TIP3   OH219289   2.022   4.854   3.698
 6442TIP3    H119290   2.000   4.791   3.766
 6442TIP3    H219291   2.066   4.925   3.745
 6443TIP3   OH219292   0.464   4.243   1.719
 6443TIP3    H119293   0.489   4.216   1.807
 6443TIP3    H219294   0.508   4.327   1.706
 6444TIP3   OH219295   6.361   0.310   1.382
 6444TIP3    H119296   6.448   0.319   1.421
 6444TIP3    H219297   6.301   0.331   1.453
 6445TIP3   OH219298   4.293   3.266   4.177
 6445TIP3    H119299   4.353   3.316   4.122
 6445TIP3    H219300   4.213   3.319   4.178
 6446TIP3   OH219301   6.934   3.967   3.000
 6446TIP3    H119302   7.024   3.993   3.020
 6446TIP3    H219303   6.909   4.020   2.925
 6447TIP3   OH219304   3.934   3.922   2.173
 6447TIP3    H119305   3.883   3.998   2.199
 6447TIP3    H219306   3.975   3.891   2.254
 6448TIP3   OH219307   5.285   3.988   0.793
 6448TIP3    H119308   5.283   4.039   0.874
 6448TIP3    H219309   5.205   3.936   0.796
 6449TIP3   OH219310   0.782   5.269   0.728
 6449TIP3    H119311   0.713   5.259   0.663
 6449TIP3    H219312   0.848   5.204   0.704
 6450TIP3   OH219313   1.148   2.225   5.302
 6450TIP3    H119314   1.105   2.300   5.260
 6450TIP3    H219315   1.188   2.261   5.381
 6451TIP3   OH219316   6.473   5.370   1.230
 6451TIP3    H119317   6.512   5.455   1.248
 6451TIP3    H219318   6.544   5.319   1.190
 6452TIP3   OH219319   4.006   5.554   5.003
 6452TIP3    H119320   3.973   5.548   5.092
 6452TIP3    H219321   4.074   5.622   5.007
 6453TIP3   OH219322   3.575   6.581   3.373
 6453TIP3    H119323   3.503   6.603   3.433
 6453TIP3    H219324   3.534   6.574   3.287
 6454TIP3   OH219325   3.324   3.296   0.222
 6454TIP3    H119326   3.338   3.256   0.308
 6454TIP3    H219327   3.411   3.328   0.197
 6455TIP3   OH219328   5.409   3.752   0.762
 6455TIP3    H119329   5.500   3.749   0.789
 6455TIP3    H219330   5.385   3.844   0.768
 6456TIP3   OH219331   1.410   6.725   3.301
 6456TIP3    H119332   1.496   6.726   3.260
 6456TIP3    H219333   1.411   6.648   3.358
 6457TIP3   OH219334   3.503   3.113   5.720
 6457TIP3    H119335   3.598   3.129   5.727
 6457TIP3    H219336   3.495   3.018   5.729
 6458TIP3   OH219337   3.029   2.051   1.073
 6458TIP3    H119338   3.021   2.116   1.143
 6458TIP3    H219339   3.036   2.103   0.993
 6459TIP3   OH219340   2.453   0.133   2.864
 6459TIP3    H119341   2.427   0.054   2.910
 6459TIP3    H219342   2.385   0.197   2.885
 6460TIP3   OH219343   3.895   6.268   3.006
 6460TIP3    H119344   3.835   6.286   2.934
 6460TIP3    H219345   3.890   6.346   3.061
 6461TIP3   OH219346   0.062   0.412   1.995
 6461TIP3    H119347  -0.009   0.431   1.933
 6461TIP3    H219348   0.095   0.498   2.021
 6462TIP3   OH219349   0.520   2.445   3.124
 6462TIP3    H119350   0.526   2.461   3.029
 6462TIP3    H219351   0.477   2.360   3.132
 6463TIP3   OH219352   2.830   1.929   0.241
 6463TIP3    H119353   2.815   1.863   0.308
 6463TIP3    H219354   2.917   1.963   0.260
 6464TIP3   OH219355   5.399   3.262   0.918
 6464TIP3    H119356   5.383   3.337   0.975
 6464TIP3    H219357   5.426   3.192   0.979
 6465TIP3   OH219358   2.839   0.687   2.407
 6465TIP3    H119359   2.892   0.766   2.399
 6465TIP3    H219360   2.895   0.617   2.373
 6466TIP3   OH219361   2.296   2.640   1.825
 6466TIP3    H119362   2.378   2.686   1.807
 6466TIP3    H219363   2.228   2.698   1.792
 6467TIP3   OH219364   3.739   5.605   3.716
 6467TIP3    H119365   3.778   5.562   3.640
 6467TIP3    H219366   3.719   5.694   3.686
 6468TIP3   OH219367   1.438   3.516   4.428
 6468TIP3    H119368   1.533   3.505   4.420
 6468TIP3    H219369   1.412   3.567   4.352
 6469TIP3   OH219370   3.195   5.088   2.328
 6469TIP3    H119371   3.239   5.003   2.322
 6469TIP3    H219372   3.129   5.086   2.260
 6470TIP3   OH219373   6.839   2.018   2.454
 6470TIP3    H119374   6.923   1.981   2.480
 6470TIP3    H219375   6.819   2.083   2.522
 6471TIP3   OH219376   1.560   1.500   5.341
 6471TIP3    H119377   1.574   1.449   5.420
 6471TIP3    H219378   1.472   1.538   5.352
 6472TIP3   OH219379   6.940   4.156   0.182
 6472TIP3    H119380   6.902   4.223   0.239
 6472TIP3    H219381   6.937   4.195   0.095
 6473TIP3   OH219382   7.196   4.079   0.281
 6473TIP3    H119383   7.116   4.099   0.233
 6473TIP3    H219384   7.255   4.044   0.215
 6474TIP3   OH219385   5.282   4.101   1.638
 6474TIP3    H119386   5.347   4.067   1.578
 6474TIP3    H219387   5.244   4.024   1.679
 6475TIP3   OH219388   6.464   1.875   5.357
 6475TIP3    H119389   6.553   1.862   5.388
 6475TIP3    H219390   6.449   1.805   5.294
 6476TIP3   OH219391   5.862   3.842   3.883
 6476TIP3    H119392   5.789   3.787   3.913
 6476TIP3    H219393   5.939   3.802   3.922
 6477TIP3   OH219394   3.308   6.739   5.949
 6477TIP3    H119395   3.394   6.701   5.930
 6477TIP3    H219396   3.249   6.700   5.885
 6478TIP3   OH219397   2.951   6.259   4.407
 6478TIP3    H119398   2.997   6.196   4.462
 6478TIP3    H219399   3.005   6.265   4.328
 6479TIP3   OH219400   6.342   2.571   5.000
 6479TIP3    H119401   6.412   2.597   4.940
 6479TIP3    H219402   6.387   2.525   5.071
 6480TIP3   OH219403   3.672   3.525   5.147
 6480TIP3    H119404   3.592   3.544   5.194
 6480TIP3    H219405   3.742   3.565   5.200
 6481TIP3   OH219406   1.227   1.706   3.726
 6481TIP3    H119407   1.140   1.728   3.693
 6481TIP3    H219408   1.287   1.759   3.672
 6482TIP3   OH219409   2.706   5.104   0.849
 6482TIP3    H119410   2.765   5.098   0.774
 6482TIP3    H219411   2.718   5.193   0.881
 6483TIP3   OH219412   0.991   1.553   4.902
 6483TIP3    H119413   1.079   1.584   4.880
 6483TIP3    H219414   0.994   1.459   4.880
 6484TIP3   OH219415   1.416   3.752   3.584
 6484TIP3    H119416   1.426   3.693   3.659
 6484TIP3    H219417   1.473   3.715   3.516
 6485TIP3   OH219418   4.821   3.954   2.149
 6485TIP3    H119419   4.760   3.947   2.076
 6485TIP3    H219420   4.769   3.931   2.226
 6486TIP3   OH219421   2.079   0.694   3.165
 6486TIP3    H119422   2.138   0.731   3.230
 6486TIP3    H219423   2.009   0.759   3.156
 6487TIP3   OH219424   1.658   2.779   5.275
 6487TIP3    H119425   1.645   2.850   5.337
 6487TIP3    H219426   1.753   2.767   5.271
 6488TIP3   OH219427   6.501   4.538   0.682
 6488TIP3    H119428   6.489   4.509   0.772
 6488TIP3    H219429   6.596   4.537   0.669
 6489TIP3   OH219430   2.848   6.335   1.563
 6489TIP3    H119431   2.920   6.275   1.547
 6489TIP3    H219432   2.781   6.282   1.606
 6490TIP3   OH219433   0.839   1.126   4.465
 6490TIP3    H119434   0.871   1.139   4.554
 6490TIP3    H219435   0.771   1.193   4.454
 6491TIP3   OH219436   2.008   2.391   4.645
 6491TIP3    H119437   2.004   2.449   4.721
 6491TIP3    H219438   2.101   2.378   4.629
 6492TIP3   OH219439   3.804   3.069   3.381
 6492TIP3    H119440   3.754   3.102   3.306
 6492TIP3    H219441   3.892   3.104   3.369
 6493TIP3   OH219442   1.559   4.756   3.388
 6493TIP3    H119443   1.540   4.676   3.340
 6493TIP3    H219444   1.647   4.743   3.424
 6494TIP3   OH219445   3.108   0.047   0.412
 6494TIP3    H119446   3.171   0.108   0.450
 6494TIP3    H219447   3.151   0.014   0.333
 6495TIP3   OH219448   6.596   5.054   5.879
 6495TIP3    H119449   6.681   5.080   5.913
 6495TIP3    H219450   6.616   5.003   5.800
 6496TIP3   OH219451   0.767   3.854   4.890
 6496TIP3    H119452   0.693   3.905   4.923
 6496TIP3    H219453   0.818   3.917   4.837
 6497TIP3   OH219454   5.692   2.640   5.501
 6497TIP3    H119455   5.666   2.661   5.591
 6497TIP3    H219456   5.703   2.725   5.459
 6498TIP3   OH219457   2.601   3.972   3.553
 6498TIP3    H119458   2.693   3.964   3.528
 6498TIP3    H219459   2.552   3.957   3.472
 6499TIP3   OH219460   0.421   4.114   5.819
 6499TIP3    H119461   0.341   4.144   5.862
 6499TIP3    H219462   0.390   4.052   5.753
 6500TIP3   OH219463   0.301   4.957   4.506
 6500TIP3    H119464   0.373   4.930   4.448
 6500TIP3    H219465   0.344   5.001   4.579
 6501TIP3   OH219466   0.372   2.231   5.108
 6501TIP3    H119467   0.319   2.237   5.187
 6501TIP3    H219468   0.335   2.295   5.048
 6502TIP3   OH219469   4.350   0.314   3.951
 6502TIP3    H119470   4.389   0.251   3.891
 6502TIP3    H219471   4.303   0.376   3.894
 6503TIP3   OH219472   6.961   1.902   1.342
 6503TIP3    H119473   6.900   1.904   1.268
 6503TIP3    H219474   7.025   1.834   1.318
 6504TIP3   OH219475   2.797   0.246   1.184
 6504TIP3    H119476   2.834   0.281   1.103
 6504TIP3    H219477   2.759   0.162   1.159
 6505TIP3   OH219478   2.327   0.025   3.275
 6505TIP3    H119479   2.247  -0.018   3.306
 6505TIP3    H219480   2.305   0.118   3.272
 6506TIP3   OH219481   0.865   4.027   4.151
 6506TIP3    H119482   0.789   4.042   4.096
 6506TIP3    H219483   0.834   4.043   4.240
 6507TIP3   OH219484   1.931   3.539   4.923
 6507TIP3    H119485   1.918   3.455   4.967
 6507TIP3    H219486   1.964   3.597   4.992
 6508TIP3   OH219487   5.452   3.239   5.309
 6508TIP3    H119488   5.530   3.277   5.269
 6508TIP3    H219489   5.399   3.211   5.234
 6509TIP3   OH219490   5.100   3.046   1.662
 6509TIP3    H119491   5.169   3.009   1.717
 6509TIP3    H219492   5.135   3.044   1.574
 6510TIP3   OH219493   0.083   0.401   4.428
 6510TIP3    H119494   0.002   0.451   4.433
 6510TIP3    H219495   0.119   0.405   4.517
 6511TIP3   OH219496   3.012   2.242   1.571
 6511TIP3    H119497   3.070   2.234   1.647
 6511TIP3    H219498   2.964   2.160   1.568
 6512TIP3   OH219499   2.039   2.264   4.074
 6512TIP3    H119500   1.988   2.255   3.994
 6512TIP3    H219501   1.985   2.319   4.131
 6513TIP3   OH219502   4.507   5.820   3.089
 6513TIP3    H119503   4.563   5.803   3.164
 6513TIP3    H219504   4.546   5.895   3.045
 6514TIP3   OH219505   0.656   5.965   5.554
 6514TIP3    H119506   0.704   5.885   5.530
 6514TIP3    H219507   0.629   6.003   5.470
 6515TIP3   OH219508   4.969   4.494   1.396
 6515TIP3    H119509   5.003   4.534   1.317
 6515TIP3    H219510   5.010   4.407   1.399
 6516TIP3   OH219511   5.379   6.647   5.312
 6516TIP3    H119512   5.351   6.728   5.356
 6516TIP3    H219513   5.374   6.580   5.380
 6517TIP3   OH219514   6.751   0.100   3.120
 6517TIP3    H119515   6.748   0.181   3.069
 6517TIP3    H219516   6.844   0.085   3.137
 6518TIP3   OH219517   2.855   6.153   0.850
 6518TIP3    H119518   2.936   6.205   0.848
 6518TIP3    H219519   2.793   6.208   0.898
 6519TIP3   OH219520   2.609   2.519   1.290
 6519TIP3    H119521   2.576   2.533   1.378
 6519TIP3    H219522   2.700   2.491   1.303
 6520TIP3   OH219523   2.937   0.144   4.417
 6520TIP3    H119524   2.871   0.212   4.431
 6520TIP3    H219525   2.923   0.115   4.327
 6521TIP3   OH219526   4.660   5.563   4.858
 6521TIP3    H119527   4.637   5.523   4.942
 6521TIP3    H219528   4.729   5.625   4.879
 6522TIP3   OH219529   5.453   3.257   0.085
 6522TIP3    H119530   5.510   3.294   0.153
 6522TIP3    H219531   5.426   3.173   0.121
 6523TIP3   OH219532   5.205   0.768   4.656
 6523TIP3    H119533   5.287   0.727   4.629
 6523TIP3    H219534   5.201   0.850   4.607
 6524TIP3   OH219535   6.843   6.433   3.212
 6524TIP3    H119536   6.761   6.435   3.261
 6524TIP3    H219537   6.842   6.349   3.166
 6525TIP3   OH219538   2.386   4.660   1.766
 6525TIP3    H119539   2.477   4.678   1.744
 6525TIP3    H219540   2.344   4.641   1.682
 6526TIP3   OH219541   1.735   5.401   2.549
 6526TIP3    H119542   1.710   5.383   2.459
 6526TIP3    H219543   1.818   5.449   2.542
 6527TIP3   OH219544   1.806   0.143   5.165
 6527TIP3    H119545   1.742   0.200   5.121
 6527TIP3    H219546   1.778   0.141   5.256
 6528TIP3   OH219547   1.932   5.549   0.523
 6528TIP3    H119548   1.961   5.458   0.515
 6528TIP3    H219549   1.844   5.550   0.484
 6529TIP3   OH219550   1.531   2.835   4.126
 6529TIP3    H119551   1.603   2.816   4.186
 6529TIP3    H219552   1.535   2.766   4.060
 6530TIP3   OH219553   1.299   1.640   4.135
 6530TIP3    H119554   1.243   1.564   4.119
 6530TIP3    H219555   1.388   1.606   4.122
 6531TIP3   OH219556   6.113   5.356   1.505
 6531TIP3    H119557   6.148   5.364   1.416
 6531TIP3    H219558   6.163   5.285   1.545
 6532TIP3   OH219559   6.425   2.490   2.876
 6532TIP3    H119560   6.513   2.522   2.858
 6532TIP3    H219561   6.378   2.567   2.909
 6533TIP3   OH219562   1.882   5.111   5.687
 6533TIP3    H119563   1.873   5.204   5.706
 6533TIP3    H219564   1.806   5.090   5.632
 6534TIP3   OH219565   2.280   3.335   5.231
 6534TIP3    H119566   2.357   3.392   5.239
 6534TIP3    H219567   2.303   3.257   5.281
 6535TIP3   OH219568   5.312   2.167   3.285
 6535TIP3    H119569   5.315   2.094   3.223
 6535TIP3    H219570   5.377   2.229   3.253
 6536TIP3   OH219571   0.542   5.284   0.156
 6536TIP3    H119572   0.532   5.372   0.120
 6536TIP3    H219573   0.581   5.298   0.242
 6537TIP3   OH219574   3.005   2.832   2.843
 6537TIP3    H119575   2.910   2.842   2.847
 6537TIP3    H219576   3.034   2.848   2.933
 6538TIP3   OH219577   6.571   4.144   0.284
 6538TIP3    H119578   6.488   4.168   0.326
 6538TIP3    H219579   6.618   4.094   0.351
 6539TIP3   OH219580   1.288   5.767   0.542
 6539TIP3    H119581   1.252   5.797   0.459
 6539TIP3    H219582   1.361   5.710   0.518
 6540TIP3   OH219583   5.607   6.598   1.577
 6540TIP3    H119584   5.630   6.673   1.632
 6540TIP3    H219585   5.668   6.602   1.504
 6541TIP3   OH219586   2.610   6.156   0.076
 6541TIP3    H119587   2.693   6.114   0.100
 6541TIP3    H219588   2.612   6.241   0.121
 6542TIP3   OH219589   6.342   5.560   0.845
 6542TIP3    H119590   6.326   5.643   0.800
 6542TIP3    H219591   6.434   5.566   0.874
 6543TIP3   OH219592   1.676   1.219   1.001
 6543TIP3    H119593   1.721   1.135   0.998
 6543TIP3    H219594   1.705   1.265   0.923
 6544TIP3   OH219595   5.348   4.195   2.716
 6544TIP3    H119596   5.417   4.152   2.766
 6544TIP3    H219597   5.297   4.124   2.678
 6545TIP3   OH219598   3.131   0.544   4.029
 6545TIP3    H119599   3.165   0.501   4.107
 6545TIP3    H219600   3.128   0.475   3.963
 6546TIP3   OH219601   0.608   6.600   2.750
 6546TIP3    H119602   0.522   6.561   2.734
 6546TIP3    H219603   0.603   6.687   2.712
 6547TIP3   OH219604   7.077   1.511   2.872
 6547TIP3    H119605   6.987   1.524   2.902
 6547TIP3    H219606   7.131   1.527   2.949
 6548TIP3   OH219607   2.572   0.770   3.461
 6548TIP3    H119608   2.663   0.788   3.483
 6548TIP3    H219609   2.535   0.731   3.540
 6549TIP3   OH219610   6.788   0.228   3.540
 6549TIP3    H119611   6.738   0.205   3.462
 6549TIP3    H219612   6.857   0.287   3.508
 6550TIP3   OH219613   2.176   3.035   2.090
 6550TIP3    H119614   2.160   3.083   2.008
 6550TIP3    H219615   2.270   3.017   2.089
 6551TIP3   OH219616   3.654   0.988   4.675
 6551TIP3    H119617   3.664   0.927   4.601
 6551TIP3    H219618   3.742   1.018   4.694
 6552TIP3   OH219619   4.015   5.774   3.034
 6552TIP3    H119620   4.097   5.780   3.083
 6552TIP3    H219621   3.961   5.712   3.084
 6553TIP3   OH219622   6.153   5.830   0.764
 6553TIP3    H119623   6.074   5.815   0.816
 6553TIP3    H219624   6.162   5.925   0.761
 6554TIP3   OH219625   5.450   3.026   1.058
 6554TIP3    H119626   5.493   2.963   1.115
 6554TIP3    H219627   5.364   2.988   1.040
 6555TIP3   OH219628   6.626   3.376   2.639
 6555TIP3    H119629   6.566   3.450   2.631
 6555TIP3    H219630   6.677   3.378   2.558
 6556TIP3   OH219631   0.310   5.949   3.012
 6556TIP3    H119632   0.376   5.977   3.075
 6556TIP3    H219633   0.359   5.926   2.933
 6557TIP3   OH219634   2.507   2.866   4.690
 6557TIP3    H119635   2.500   2.938   4.753
 6557TIP3    H219636   2.598   2.838   4.695
 6558TIP3   OH219637   2.840   0.776   3.540
 6558TIP3    H119638   2.894   0.738   3.471
 6558TIP3    H219639   2.903   0.809   3.604
 6559TIP3   OH219640   5.427   2.576   5.317
 6559TIP3    H119641   5.411   2.481   5.312
 6559TIP3    H219642   5.353   2.610   5.367
 6560TIP3   OH219643   3.432   4.725   3.502
 6560TIP3    H119644   3.412   4.818   3.510
 6560TIP3    H219645   3.459   4.714   3.411
 6561TIP3   OH219646   0.884   6.460   3.481
 6561TIP3    H119647   0.812   6.455   3.418
 6561TIP3    H219648   0.933   6.538   3.454
 6562TIP3   OH219649   6.250   5.793   3.206
 6562TIP3    H119650   6.268   5.831   3.292
 6562TIP3    H219651   6.336   5.786   3.164
 6563TIP3   OH219652   1.399   1.911   5.592
 6563TIP3    H119653   1.446   1.994   5.592
 6563TIP3    H219654   1.375   1.897   5.683
 6564TIP3   OH219655   5.838   5.308   5.083
 6564TIP3    H119656   5.907   5.331   5.146
 6564TIP3    H219657   5.783   5.385   5.078
 6565TIP3   OH219658   4.686   2.611   1.136
 6565TIP3    H119659   4.643   2.547   1.192
 6565TIP3    H219660   4.615   2.652   1.087
 6566TIP3   OH219661   2.843   2.931   5.518
 6566TIP3    H119662   2.923   2.981   5.502
 6566TIP3    H219663   2.845   2.913   5.612
 6567TIP3   OH219664   0.549   4.273   3.759
 6567TIP3    H119665   0.608   4.241   3.691
 6567TIP3    H219666   0.467   4.291   3.714
 6568TIP3   OH219667   6.619   0.253   2.362
 6568TIP3    H119668   6.660   0.205   2.434
 6568TIP3    H219669   6.692   0.298   2.319
 6569TIP3   OH219670   5.234   6.032   2.235
 6569TIP3    H119671   5.249   5.938   2.235
 6569TIP3    H219672   5.226   6.055   2.328
 6570TIP3   OH219673   0.963   0.494   1.610
 6570TIP3    H119674   0.991   0.403   1.608
 6570TIP3    H219675   0.870   0.490   1.635
 6571TIP3   OH219676   3.531   5.169   5.806
 6571TIP3    H119677   3.543   5.076   5.826
 6571TIP3    H219678   3.471   5.169   5.731
 6572TIP3   OH219679   3.503   5.872   4.792
 6572TIP3    H119680   3.574   5.854   4.854
 6572TIP3    H219681   3.423   5.850   4.841
 6573TIP3   OH219682   5.825   2.052   0.645
 6573TIP3    H119683   5.841   1.975   0.590
 6573TIP3    H219684   5.736   2.039   0.679
 6574TIP3   OH219685   7.181   3.853   1.516
 6574TIP3    H119686   7.090   3.838   1.492
 6574TIP3    H219687   7.230   3.838   1.435
 6575TIP3   OH219688   1.167   5.142   3.534
 6575TIP3    H119689   1.203   5.072   3.589
 6575TIP3    H219690   1.207   5.128   3.448
 6576TIP3   OH219691   6.077   4.354   0.099
 6576TIP3    H119692   6.037   4.363   0.185
 6576TIP3    H219693   6.169   4.374   0.113
 6577TIP3   OH219694   3.620   2.172   4.856
 6577TIP3    H119695   3.575   2.142   4.778
 6577TIP3    H219696   3.672   2.097   4.885
 6578TIP3   OH219697   4.785   1.786   3.037
 6578TIP3    H119698   4.763   1.705   2.990
 6578TIP3    H219699   4.880   1.793   3.029
 6579TIP3   OH219700   3.727   4.824   0.236
 6579TIP3    H119701   3.695   4.747   0.284
 6579TIP3    H219702   3.739   4.891   0.303
 6580TIP3   OH219703   1.617   2.030   0.766
 6580TIP3    H119704   1.587   1.944   0.795
 6580TIP3    H219705   1.548   2.090   0.792
 6581TIP3   OH219706   4.205   6.482   2.947
 6581TIP3    H119707   4.219   6.478   2.853
 6581TIP3    H219708   4.116   6.517   2.956
 6582TIP3   OH219709   4.896   1.005   2.821
 6582TIP3    H119710   4.918   1.002   2.914
 6582TIP3    H219711   4.979   1.025   2.778
 6583TIP3   OH219712   2.452   4.042   4.172
 6583TIP3    H119713   2.530   4.058   4.226
 6583TIP3    H219714   2.479   4.064   4.083
 6584TIP3   OH219715   6.732   1.527   5.558
 6584TIP3    H119716   6.778   1.509   5.476
 6584TIP3    H219717   6.770   1.609   5.589
 6585TIP3   OH219718   1.313   1.200   5.675
 6585TIP3    H119719   1.239   1.259   5.689
 6585TIP3    H219720   1.370   1.214   5.750
 6586TIP3   OH219721   0.424   1.967   5.000
 6586TIP3    H119722   0.517   1.973   4.979
 6586TIP3    H219723   0.404   2.051   5.042
 6587TIP3   OH219724   2.924   4.184   2.902
 6587TIP3    H119725   2.898   4.114   2.842
 6587TIP3    H219726   2.931   4.262   2.846
 6588TIP3   OH219727   2.158   6.308   3.232
 6588TIP3    H119728   2.223   6.319   3.302
 6588TIP3    H219729   2.136   6.215   3.235
 6589TIP3   OH219730   1.887   3.226   3.393
 6589TIP3    H119731   1.965   3.173   3.375
 6589TIP3    H219732   1.867   3.209   3.485
 6590TIP3   OH219733   5.623   5.886   3.482
 6590TIP3    H119734   5.536   5.926   3.481
 6590TIP3    H219735   5.680   5.950   3.440
 6591TIP3   OH219736   7.165   5.961   4.259
 6591TIP3    H119737   7.119   6.010   4.191
 6591TIP3    H219738   7.136   5.870   4.247
 6592TIP3   OH219739   6.722   0.838   1.995
 6592TIP3    H119740   6.643   0.816   1.947
 6592TIP3    H219741   6.778   0.882   1.932
 6593TIP3   OH219742   1.972   2.654   5.664
 6593TIP3    H119743   2.049   2.703   5.691
 6593TIP3    H219744   1.899   2.699   5.707
 6594TIP3   OH219745   6.163   5.677   1.042
 6594TIP3    H119746   6.227   5.625   0.993
 6594TIP3    H219747   6.079   5.654   1.003
 6595TIP3   OH219748   6.239   0.499   3.020
 6595TIP3    H119749   6.165   0.465   3.071
 6595TIP3    H219750   6.201   0.569   2.967
 6596TIP3   OH219751   1.958   4.106   1.258
 6596TIP3    H119752   1.993   4.020   1.235
 6596TIP3    H219753   1.993   4.164   1.191
 6597TIP3   OH219754   2.595   3.230   0.469
 6597TIP3    H119755   2.683   3.244   0.433
 6597TIP3    H219756   2.599   3.142   0.506
 6598TIP3   OH219757   5.766   1.766   1.101
 6598TIP3    H119758   5.680   1.729   1.082
 6598TIP3    H219759   5.752   1.861   1.095
 6599TIP3   OH219760   3.828   3.976   4.820
 6599TIP3    H119761   3.899   4.023   4.778
 6599TIP3    H219762   3.823   3.893   4.772
 6600TIP3   OH219763   3.000   6.697   5.548
 6600TIP3    H119764   2.954   6.613   5.545
 6600TIP3    H219765   3.087   6.676   5.581
 6601TIP3   OH219766   4.833   0.311   1.608
 6601TIP3    H119767   4.867   0.290   1.695
 6601TIP3    H219768   4.860   0.402   1.593
 6602TIP3   OH219769   6.855   5.889   2.884
 6602TIP3    H119770   6.788   5.869   2.819
 6602TIP3    H219771   6.807   5.927   2.957
 6603TIP3   OH219772   5.242   3.768   4.765
 6603TIP3    H119773   5.323   3.807   4.798
 6603TIP3    H219774   5.213   3.709   4.834
 6604TIP3   OH219775   2.507   2.846   5.377
 6604TIP3    H119776   2.503   2.795   5.457
 6604TIP3    H219777   2.438   2.809   5.321
 6605TIP3   OH219778   1.757   0.379   0.055
 6605TIP3    H119779   1.662   0.370   0.066
 6605TIP3    H219780   1.794   0.346   0.137
 6606TIP3   OH219781   3.774   2.481   5.780
 6606TIP3    H119782   3.757   2.541   5.853
 6606TIP3    H219783   3.798   2.399   5.823
 6607TIP3   OH219784   7.219   4.185   4.131
 6607TIP3    H119785   7.223   4.108   4.188
 6607TIP3    H219786   7.126   4.197   4.112
 6608TIP3   OH219787   2.240   3.049   0.665
 6608TIP3    H119788   2.161   3.076   0.618
 6608TIP3    H219789   2.273   2.975   0.615
 6609TIP3   OH219790   0.372   6.271   1.529
 6609TIP3    H119791   0.436   6.237   1.467
 6609TIP3    H219792   0.423   6.320   1.593
 6610TIP3   OH219793   2.700   4.931   1.402
 6610TIP3    H119794   2.649   5.007   1.433
 6610TIP3    H219795   2.757   4.966   1.334
 6611TIP3   OH219796   5.173   4.244   5.598
 6611TIP3    H119797   5.151   4.254   5.691
 6611TIP3    H219798   5.177   4.333   5.565
 6612TIP3   OH219799   4.326   1.431   3.201
 6612TIP3    H119800   4.418   1.458   3.206
 6612TIP3    H219801   4.277   1.513   3.204
 6613TIP3   OH219802   3.340   6.145   1.582
 6613TIP3    H119803   3.434   6.157   1.588
 6613TIP3    H219804   3.329   6.050   1.572
 6614TIP3   OH219805   5.609   4.251   5.221
 6614TIP3    H119806   5.660   4.321   5.263
 6614TIP3    H219807   5.650   4.240   5.135
 6615TIP3   OH219808   3.018   3.949   5.167
 6615TIP3    H119809   2.972   3.878   5.121
 6615TIP3    H219810   3.076   3.904   5.228
 6616TIP3   OH219811   3.565   3.807   4.775
 6616TIP3    H119812   3.555   3.902   4.766
 6616TIP3    H219813   3.522   3.786   4.858
 6617TIP3   OH219814   1.797   4.251   1.969
 6617TIP3    H119815   1.857   4.231   1.897
 6617TIP3    H219816   1.789   4.346   1.967
 6618TIP3   OH219817   4.949   3.447   4.000
 6618TIP3    H119818   4.938   3.535   3.963
 6618TIP3    H219819   4.997   3.462   4.081
 6619TIP3   OH219820   6.899   1.471   3.228
 6619TIP3    H119821   6.974   1.413   3.243
 6619TIP3    H219822   6.894   1.480   3.133
 6620TIP3   OH219823   7.044   4.631   0.042
 6620TIP3    H119824   7.063   4.549  -0.003
 6620TIP3    H219825   7.120   4.645   0.099
 6621TIP3   OH219826   5.480   4.493   3.208
 6621TIP3    H119827   5.509   4.584   3.214
 6621TIP3    H219828   5.386   4.496   3.222
 6622TIP3   OH219829   3.823   4.889   2.163
 6622TIP3    H119830   3.841   4.844   2.245
 6622TIP3    H219831   3.891   4.858   2.103
 6623TIP3   OH219832   2.242   2.911   2.784
 6623TIP3    H119833   2.182   2.950   2.848
 6623TIP3    H219834   2.256   2.822   2.815
 6624TIP3   OH219835   7.022   6.673   5.062
 6624TIP3    H119836   7.013   6.701   5.153
 6624TIP3    H219837   7.024   6.577   5.067
 6625TIP3   OH219838   0.968   1.502   0.997
 6625TIP3    H119839   0.909   1.460   0.934
 6625TIP3    H219840   1.041   1.441   1.007
 6626TIP3   OH219841   5.386   2.030   4.427
 6626TIP3    H119842   5.312   2.074   4.469
 6626TIP3    H219843   5.463   2.072   4.464
 6627TIP3   OH219844   6.316   2.810   5.833
 6627TIP3    H119845   6.386   2.870   5.808
 6627TIP3    H219846   6.236   2.852   5.803
 6628TIP3   OH219847   2.526   3.815   0.538
 6628TIP3    H119848   2.614   3.823   0.575
 6628TIP3    H219849   2.521   3.725   0.506
 6629TIP3   OH219850   1.412   4.228   0.113
 6629TIP3    H119851   1.407   4.306   0.169
 6629TIP3    H219852   1.443   4.262   0.028
 6630TIP3   OH219853   6.951   2.165   3.664
 6630TIP3    H119854   6.872   2.165   3.610
 6630TIP3    H219855   7.008   2.230   3.623
 6631TIP3   OH219856   6.451   0.589   5.449
 6631TIP3    H119857   6.447   0.682   5.427
 6631TIP3    H219858   6.514   0.585   5.521
 6632TIP3   OH219859   2.421   6.629   3.076
 6632TIP3    H119860   2.477   6.594   3.146
 6632TIP3    H219861   2.385   6.710   3.114
 6633TIP3   OH219862   2.312   2.138   5.235
 6633TIP3    H119863   2.292   2.208   5.297
 6633TIP3    H219864   2.259   2.064   5.265
 6634TIP3   OH219865   1.610   4.172   2.358
 6634TIP3    H119866   1.584   4.082   2.338
 6634TIP3    H219867   1.682   4.162   2.421
 6635TIP3   OH219868   3.356   0.555   5.306
 6635TIP3    H119869   3.404   0.605   5.372
 6635TIP3    H219870   3.355   0.465   5.340
 6636TIP3   OH219871   4.593   4.670   1.097
 6636TIP3    H119872   4.637   4.745   1.138
 6636TIP3    H219873   4.585   4.605   1.167
 6637TIP3   OH219874   1.838   3.684   3.190
 6637TIP3    H119875   1.843   3.652   3.280
 6637TIP3    H219876   1.772   3.753   3.192
 6638TIP3   OH219877   2.999   0.996   2.874
 6638TIP3    H119878   2.943   0.922   2.855
 6638TIP3    H219879   2.991   1.054   2.798
 6639TIP3   OH219880   5.433   6.017   3.161
 6639TIP3    H119881   5.527   6.015   3.181
 6639TIP3    H219882   5.390   6.012   3.246
 6640TIP3   OH219883   5.220   3.207   3.099
 6640TIP3    H119884   5.190   3.298   3.095
 6640TIP3    H219885   5.234   3.182   3.007
 6641TIP3   OH219886   6.303   0.791   4.883
 6641TIP3    H119887   6.261   0.744   4.811
 6641TIP3    H219888   6.394   0.799   4.855
 6642TIP3   OH219889   5.931   4.105   3.836
 6642TIP3    H119890   5.900   4.105   3.746
 6642TIP3    H219891   5.910   4.018   3.869
 6643TIP3   OH219892   1.071   5.217   1.361
 6643TIP3    H119893   0.978   5.210   1.385
 6643TIP3    H219894   1.115   5.240   1.442
 6644TIP3   OH219895   0.410   5.667   2.549
 6644TIP3    H119896   0.401   5.572   2.536
 6644TIP3    H219897   0.417   5.702   2.460
 6645TIP3   OH219898   4.035   0.431   1.546
 6645TIP3    H119899   4.000   0.434   1.457
 6645TIP3    H219900   4.019   0.519   1.581
 6646TIP3   OH219901   6.589   5.855   4.152
 6646TIP3    H119902   6.578   5.938   4.199
 6646TIP3    H219903   6.627   5.796   4.217
 6647TIP3   OH219904   4.001   1.657   2.333
 6647TIP3    H119905   4.059   1.603   2.279
 6647TIP3    H219906   3.956   1.594   2.390
 6648TIP3   OH219907   6.282   2.665   5.485
 6648TIP3    H119908   6.226   2.700   5.553
 6648TIP3    H219909   6.226   2.606   5.435
 6649TIP3   OH219910   4.232   6.524   1.773
 6649TIP3    H119911   4.181   6.521   1.854
 6649TIP3    H219912   4.168   6.543   1.705
 6650TIP3   OH219913   3.354   4.933   2.064
 6650TIP3    H119914   3.432   4.904   2.112
 6650TIP3    H219915   3.285   4.874   2.093
 6651TIP3   OH219916   6.744   4.455   2.512
 6651TIP3    H119917   6.799   4.479   2.438
 6651TIP3    H219918   6.670   4.516   2.507
 6652TIP3   OH219919   6.411   1.203   2.807
 6652TIP3    H119920   6.439   1.281   2.759
 6652TIP3    H219921   6.442   1.217   2.897
 6653TIP3   OH219922   0.430   2.018   3.897
 6653TIP3    H119923   0.424   2.077   3.972
 6653TIP3    H219924   0.394   2.068   3.824
 6654TIP3   OH219925   4.183   0.802   5.483
 6654TIP3    H119926   4.134   0.872   5.441
 6654TIP3    H219927   4.269   0.839   5.500
 6655TIP3   OH219928   5.940   1.469   5.824
 6655TIP3    H119929   5.978   1.387   5.855
 6655TIP3    H219930   6.012   1.512   5.777
 6656TIP3   OH219931   2.853   1.257   4.058
 6656TIP3    H119932   2.850   1.270   4.153
 6656TIP3    H219933   2.869   1.163   4.047
 6657TIP3   OH219934   6.165   2.414   1.716
 6657TIP3    H119935   6.236   2.395   1.777
 6657TIP3    H219936   6.209   2.448   1.638
 6658TIP3   OH219937   5.803   1.013   2.517
 6658TIP3    H119938   5.891   1.051   2.516
 6658TIP3    H219939   5.809   0.937   2.459
 6659TIP3   OH219940   3.825   1.887   0.714
 6659TIP3    H119941   3.861   1.940   0.642
 6659TIP3    H219942   3.804   1.951   0.782
 6660TIP3   OH219943   2.741   5.594   2.627
 6660TIP3    H119944   2.708   5.596   2.537
 6660TIP3    H219945   2.820   5.540   2.622
 6661TIP3   OH219946   6.048   2.063   3.287
 6661TIP3    H119947   5.983   2.132   3.291
 6661TIP3    H219948   6.044   2.021   3.373
 6662TIP3   OH219949   5.925   6.577   5.332
 6662TIP3    H119950   5.834   6.578   5.303
 6662TIP3    H219951   5.943   6.667   5.359
 6663TIP3   OH219952   5.646   2.250   2.093
 6663TIP3    H119953   5.575   2.299   2.051
 6663TIP3    H219954   5.726   2.290   2.058
 6664TIP3   OH219955   3.752   3.500   5.887
 6664TIP3    H119956   3.788   3.444   5.955
 6664TIP3    H219957   3.735   3.441   5.813
 6665TIP3   OH219958   6.754   3.821   3.161
 6665TIP3    H119959   6.813   3.861   3.096
 6665TIP3    H219960   6.721   3.742   3.118
 6666TIP3   OH219961   2.064   2.422   1.324
 6666TIP3    H119962   2.129   2.466   1.379
 6666TIP3    H219963   1.980   2.439   1.368
 6667TIP3   OH219964   6.574   6.195   2.733
 6667TIP3    H119965   6.654   6.246   2.737
 6667TIP3    H219966   6.574   6.157   2.645
 6668TIP3   OH219967   2.079   0.898   2.912
 6668TIP3    H119968   2.025   0.959   2.962
 6668TIP3    H219969   2.152   0.878   2.970
 6669TIP3   OH219970   2.421   3.128   0.893
 6669TIP3    H119971   2.442   3.034   0.892
 6669TIP3    H219972   2.363   3.141   0.818
 6670TIP3   OH219973   0.945   3.201   0.604
 6670TIP3    H119974   0.918   3.225   0.516
 6670TIP3    H219975   0.872   3.151   0.639
 6671TIP3   OH219976   6.018   3.348   1.600
 6671TIP3    H119977   6.021   3.428   1.549
 6671TIP3    H219978   5.996   3.279   1.537
 6672TIP3   OH219979   0.407   3.335   3.801
 6672TIP3    H119980   0.397   3.345   3.707
 6672TIP3    H219981   0.328   3.289   3.829
 6673TIP3   OH219982   1.301   2.842   0.503
 6673TIP3    H119983   1.247   2.911   0.541
 6673TIP3    H219984   1.376   2.835   0.562
 6674TIP3   OH219985   5.497   2.043   2.748
 6674TIP3    H119986   5.580   2.058   2.791
 6674TIP3    H219987   5.513   2.065   2.656
 6675TIP3   OH219988   3.483   0.798   1.604
 6675TIP3    H119989   3.552   0.733   1.591
 6675TIP3    H219990   3.525   0.870   1.651
 6676TIP3   OH219991   2.710   1.631   1.635
 6676TIP3    H119992   2.729   1.601   1.546
 6676TIP3    H219993   2.643   1.571   1.667
 6677TIP3   OH219994   0.604   0.777   0.313
 6677TIP3    H119995   0.630   0.829   0.389
 6677TIP3    H219996   0.559   0.701   0.351
 6678TIP3   OH219997   2.837   0.195   0.291
 6678TIP3    H119998   2.812   0.147   0.212
 6678TIP3    H219999   2.894   0.135   0.339
 6679TIP3   OH220000   0.700   3.170   1.723
 6679TIP3    H120001   0.782   3.125   1.746
 6679TIP3    H220002   0.633   3.102   1.728
 6680TIP3   OH220003   5.295   3.187   4.404
 6680TIP3    H120004   5.305   3.193   4.499
 6680TIP3    H220005   5.384   3.197   4.371
 6681TIP3   OH220006   2.873   3.612   5.282
 6681TIP3    H120007   2.835   3.693   5.316
 6681TIP3    H220008   2.942   3.590   5.344
 6682TIP3   OH220009   5.230   6.190   1.363
 6682TIP3    H120010   5.206   6.211   1.453
 6682TIP3    H220011   5.147   6.180   1.318
 6683TIP3   OH220012   6.013   6.715   4.244
 6683TIP3    H120013   6.082   6.699   4.179
 6683TIP3    H220014   6.059   6.719   4.327
 6684TIP3   OH220015   6.367   5.531   5.702
 6684TIP3    H120016   6.460   5.549   5.715
 6684TIP3    H220017   6.323   5.579   5.772
 6685TIP3   OH220018   3.232   3.891   1.435
 6685TIP3    H120019   3.146   3.866   1.469
 6685TIP3    H220020   3.274   3.809   1.411
 6686TIP3   OH220021   2.284   2.457   4.985
 6686TIP3    H120022   2.339   2.508   4.926
 6686TIP3    H220023   2.343   2.431   5.056
 6687TIP3   OH220024   5.308   5.818   1.807
 6687TIP3    H120025   5.226   5.824   1.757
 6687TIP3    H220026   5.376   5.814   1.740
 6688TIP3   OH220027   1.570   4.673   2.928
 6688TIP3    H120028   1.594   4.684   2.836
 6688TIP3    H220029   1.643   4.712   2.976
 6689TIP3   OH220030   0.872   4.764   5.393
 6689TIP3    H120031   0.945   4.733   5.447
 6689TIP3    H220032   0.860   4.855   5.420
 6690TIP3   OH220033   5.142   1.346   4.211
 6690TIP3    H120034   5.174   1.394   4.287
 6690TIP3    H220035   5.127   1.257   4.243
 6691TIP3   OH220036   2.464   0.992   3.367
 6691TIP3    H120037   2.507   0.908   3.384
 6691TIP3    H220038   2.465   1.037   3.452
 6692TIP3   OH220039   2.731   1.085   3.598
 6692TIP3    H120040   2.777   1.043   3.670
 6692TIP3    H220041   2.638   1.081   3.623
 6693TIP3   OH220042   6.590   2.960   0.820
 6693TIP3    H120043   6.497   2.954   0.795
 6693TIP3    H220044   6.615   3.050   0.800
 6694TIP3   OH220045   1.346   1.633   5.453
 6694TIP3    H120046   1.259   1.626   5.492
 6694TIP3    H220047   1.377   1.719   5.481
 6695TIP3   OH220048   3.505   1.587   3.098
 6695TIP3    H120049   3.445   1.533   3.047
 6695TIP3    H220050   3.506   1.672   3.054
 6696TIP3   OH220051   2.998   0.357   3.023
 6696TIP3    H120052   3.034   0.318   2.944
 6696TIP3    H220053   3.059   0.427   3.046
 6697TIP3   OH220054   0.023   5.029   5.088
 6697TIP3    H120055   0.075   5.088   5.033
 6697TIP3    H220056   0.039   5.059   5.177
 6698TIP3   OH220057   0.806   0.745   1.655
 6698TIP3    H120058   0.883   0.709   1.612
 6698TIP3    H220059   0.759   0.668   1.688
 6699TIP3   OH220060   1.404   6.714   0.216
 6699TIP3    H120061   1.421   6.798   0.257
 6699TIP3    H220062   1.490   6.672   0.209
 6700TIP3   OH220063   2.910   0.749   0.881
 6700TIP3    H120064   2.961   0.792   0.950
 6700TIP3    H220065   2.819   0.769   0.902
 6701TIP3   OH220066   5.343   2.704   2.771
 6701TIP3    H120067   5.325   2.746   2.855
 6701TIP3    H220068   5.257   2.696   2.729
 6702TIP3   OH220069   0.128   4.235   2.613
 6702TIP3    H120070   0.184   4.162   2.635
 6702TIP3    H220071   0.170   4.311   2.652
 6703TIP3   OH220072   4.289   6.294   4.931
 6703TIP3    H120073   4.223   6.226   4.916
 6703TIP3    H220074   4.247   6.375   4.901
 6704TIP3   OH220075   2.666   2.117   3.503
 6704TIP3    H120076   2.601   2.141   3.569
 6704TIP3    H220077   2.615   2.083   3.430
 6705TIP3   OH220078   0.991   2.154   1.805
 6705TIP3    H120079   1.077   2.195   1.818
 6705TIP3    H220080   0.972   2.111   1.888
 6706TIP3   OH220081   5.620   0.537   3.374
 6706TIP3    H120082   5.650   0.493   3.454
 6706TIP3    H220083   5.584   0.466   3.320
 6707TIP3   OH220084   4.383   5.992   2.184
 6707TIP3    H120085   4.364   5.942   2.264
 6707TIP3    H220086   4.308   6.051   2.174
 6708TIP3   OH220087   4.046   0.459   2.177
 6708TIP3    H120088   4.007   0.546   2.188
 6708TIP3    H220089   4.005   0.406   2.244
 6709TIP3   OH220090   1.640   4.441   4.565
 6709TIP3    H120091   1.716   4.384   4.553
 6709TIP3    H220092   1.660   4.491   4.644
 6710TIP3   OH220093   0.225   5.562   3.738
 6710TIP3    H120094   0.284   5.543   3.811
 6710TIP3    H220095   0.183   5.479   3.718
 6711TIP3   OH220096   5.112   1.574   2.630
 6711TIP3    H120097   5.156   1.566   2.714
 6711TIP3    H220098   5.181   1.600   2.569
 6712TIP3   OH220099   5.091   2.341   4.892
 6712TIP3    H120100   5.025   2.391   4.844
 6712TIP3    H220101   5.077   2.364   4.984
 6713TIP3   OH220102   0.256   5.407   1.469
 6713TIP3    H120103   0.218   5.444   1.390
 6713TIP3    H220104   0.291   5.322   1.442
 6714TIP3   OH220105   6.683   0.690   0.525
 6714TIP3    H120106   6.623   0.762   0.548
 6714TIP3    H220107   6.673   0.627   0.596
 6715TIP3   OH220108   1.454   6.166   5.632
 6715TIP3    H120109   1.367   6.148   5.596
 6715TIP3    H220110   1.497   6.220   5.565
 6716TIP3   OH220111   4.450   2.878   3.009
 6716TIP3    H120112   4.392   2.806   2.985
 6716TIP3    H220113   4.446   2.937   2.934
 6717TIP3   OH220114   0.531   1.810   2.175
 6717TIP3    H120115   0.554   1.818   2.082
 6717TIP3    H220116   0.459   1.872   2.188
 6718TIP3   OH220117   3.144   1.215   1.441
 6718TIP3    H120118   3.114   1.172   1.520
 6718TIP3    H220119   3.101   1.168   1.370
 6719TIP3   OH220120   2.924   3.631   1.704
 6719TIP3    H120121   3.010   3.610   1.741
 6719TIP3    H220122   2.885   3.546   1.684
 6720TIP3   OH220123   2.586   1.856   5.300
 6720TIP3    H120124   2.587   1.767   5.264
 6720TIP3    H220125   2.640   1.907   5.239
 6721TIP3   OH220126   0.486   4.350   4.556
 6721TIP3    H120127   0.448   4.344   4.644
 6721TIP3    H220128   0.478   4.443   4.533
 6722TIP3   OH220129   4.524   6.330   4.547
 6722TIP3    H120130   4.600   6.276   4.569
 6722TIP3    H220131   4.550   6.377   4.468
 6723TIP3   OH220132   1.154   4.118   0.135
 6723TIP3    H120133   1.140   4.038   0.085
 6723TIP3    H220134   1.241   4.148   0.109
 6724TIP3   OH220135   3.135   2.405   0.954
 6724TIP3    H120136   3.090   2.337   0.904
 6724TIP3    H220137   3.209   2.429   0.898
 6725TIP3   OH220138   5.979   6.391   0.590
 6725TIP3    H120139   6.062   6.411   0.634
 6725TIP3    H220140   5.913   6.437   0.642
 6726TIP3   OH220141   4.337   1.118   1.153
 6726TIP3    H120142   4.341   1.207   1.118
 6726TIP3    H220143   4.428   1.096   1.174
 6727TIP3   OH220144   1.790   6.124   2.242
 6727TIP3    H120145   1.776   6.169   2.324
 6727TIP3    H220146   1.705   6.125   2.198
 6728TIP3   OH220147   0.324   1.651   5.768
 6728TIP3    H120148   0.391   1.700   5.720
 6728TIP3    H220149   0.243   1.700   5.752
 6729TIP3   OH220150   0.461   3.092   2.388
 6729TIP3    H120151   0.429   3.015   2.435
 6729TIP3    H220152   0.407   3.096   2.309
 6730TIP3   OH220153   1.072   2.415   0.289
 6730TIP3    H120154   1.082   2.475   0.216
 6730TIP3    H220155   0.988   2.372   0.274
 6731TIP3   OH220156   2.664   6.648   3.519
 6731TIP3    H120157   2.702   6.728   3.483
 6731TIP3    H220158   2.700   6.642   3.607
 6732TIP3   OH220159   1.229   3.362   5.236
 6732TIP3    H120160   1.269   3.423   5.299
 6732TIP3    H220161   1.303   3.317   5.196
 6733TIP3   OH220162   2.286   4.803   2.857
 6733TIP3    H120163   2.359   4.854   2.822
 6733TIP3    H220164   2.314   4.776   2.944
 6734TIP3   OH220165   2.660   4.515   1.542
 6734TIP3    H120166   2.613   4.438   1.574
 6734TIP3    H220167   2.750   4.502   1.571
 6735TIP3   OH220168   3.016   1.587   3.042
 6735TIP3    H120169   2.996   1.529   2.969
 6735TIP3    H220170   3.112   1.596   3.040
 6736TIP3   OH220171   5.986   5.855   3.953
 6736TIP3    H120172   6.020   5.943   3.968
 6736TIP3    H220173   6.055   5.810   3.905
 6737TIP3   OH220174   5.277   1.691   4.665
 6737TIP3    H120175   5.268   1.598   4.643
 6737TIP3    H220176   5.365   1.698   4.701
 6738TIP3   OH220177   2.195   1.089   3.847
 6738TIP3    H120178   2.177   1.141   3.925
 6738TIP3    H220179   2.118   1.102   3.791
 6739TIP3   OH220180   0.708   5.550   0.059
 6739TIP3    H120181   0.784   5.542   0.002
 6739TIP3    H220182   0.743   5.581   0.142
 6740TIP3   OH220183   7.110   0.911   0.623
 6740TIP3    H120184   7.022   0.910   0.660
 6740TIP3    H220185   7.103   0.861   0.542
 6741TIP3   OH220186   3.346   4.978   3.520
 6741TIP3    H120187   3.306   5.033   3.452
 6741TIP3    H220188   3.280   4.976   3.590
 6742TIP3   OH220189   4.517   4.607   4.755
 6742TIP3    H120190   4.445   4.616   4.693
 6742TIP3    H220191   4.499   4.525   4.802
 6743TIP3   OH220192   6.064   1.841   3.864
 6743TIP3    H120193   6.040   1.760   3.818
 6743TIP3    H220194   6.023   1.832   3.950
 6744TIP3   OH220195   1.073   1.440   4.060
 6744TIP3    H120196   1.141   1.386   4.100
 6744TIP3    H220197   1.033   1.383   3.994
 6745TIP3   OH220198   4.808   2.811   2.402
 6745TIP3    H120199   4.793   2.883   2.341
 6745TIP3    H220200   4.903   2.809   2.415
 6746TIP3   OH220201   1.670   2.952   0.434
 6746TIP3    H120202   1.758   2.939   0.468
 6746TIP3    H220203   1.641   2.864   0.409
 6747TIP3   OH220204   1.581   0.273   5.043
 6747TIP3    H120205   1.543   0.257   4.957
 6747TIP3    H220206   1.515   0.243   5.105
 6748TIP3   OH220207   4.064   4.438   2.690
 6748TIP3    H120208   4.051   4.445   2.595
 6748TIP3    H220209   4.128   4.506   2.711
 6749TIP3   OH220210   0.240   2.098   5.593
 6749TIP3    H120211   0.246   2.147   5.512
 6749TIP3    H220212   0.319   2.122   5.641
 6750TIP3   OH220213   2.378   0.724   0.744
 6750TIP3    H120214   2.422   0.642   0.767
 6750TIP3    H220215   2.384   0.777   0.823
 6751TIP3   OH220216   4.881   3.779   0.183
 6751TIP3    H120217   4.891   3.772   0.088
 6751TIP3    H220218   4.938   3.852   0.207
 6752TIP3   OH220219   7.021   6.349   5.829
 6752TIP3    H120220   7.101   6.319   5.786
 6752TIP3    H220221   7.007   6.285   5.899
 6753TIP3   OH220222   3.619   4.624   4.193
 6753TIP3    H120223   3.628   4.532   4.167
 6753TIP3    H220224   3.580   4.621   4.280
 6754TIP3   OH220225   4.947   0.666   5.255
 6754TIP3    H120226   4.895   0.746   5.240
 6754TIP3    H220227   5.002   0.658   5.177
 6755TIP3   OH220228   5.258   2.394   2.545
 6755TIP3    H120229   5.231   2.410   2.455
 6755TIP3    H220230   5.340   2.442   2.555
 6756TIP3   OH220231   1.845   3.275   0.117
 6756TIP3    H120232   1.812   3.346   0.062
 6756TIP3    H220233   1.768   3.240   0.162
 6757TIP3   OH220234   1.275   2.277   0.452
 6757TIP3    H120235   1.202   2.323   0.411
 6757TIP3    H220236   1.311   2.222   0.382
 6758TIP3   OH220237   1.247   1.696   0.919
 6758TIP3    H120238   1.257   1.649   1.001
 6758TIP3    H220239   1.156   1.728   0.921
 6759TIP3   OH220240   2.445   4.481   3.530
 6759TIP3    H120241   2.536   4.486   3.557
 6759TIP3    H220242   2.443   4.410   3.466
 6760TIP3   OH220243   0.445   4.944   2.208
 6760TIP3    H120244   0.375   4.915   2.149
 6760TIP3    H220245   0.400   4.969   2.289
 6761TIP3   OH220246   1.524   1.815   4.805
 6761TIP3    H120247   1.566   1.754   4.866
 6761TIP3    H220248   1.591   1.835   4.740
 6762TIP3   OH220249   5.486   5.518   4.912
 6762TIP3    H120250   5.565   5.507   4.858
 6762TIP3    H220251   5.416   5.480   4.860
 6763TIP3   OH220252   2.117   2.972   4.663
 6763TIP3    H120253   2.182   3.006   4.724
 6763TIP3    H220254   2.109   3.040   4.596
 6764TIP3   OH220255   4.107   1.195   2.250
 6764TIP3    H120256   4.129   1.282   2.282
 6764TIP3    H220257   4.012   1.188   2.261
 6765TIP3   OH220258   4.756   1.190   2.041
 6765TIP3    H120259   4.822   1.260   2.039
 6765TIP3    H220260   4.788   1.126   1.978
 6766TIP3   OH220261   0.064   3.422   3.127
 6766TIP3    H120262   0.150   3.418   3.085
 6766TIP3    H220263   0.016   3.487   3.076
 6767TIP3   OH220264   4.086   3.816   1.966
 6767TIP3    H120265   4.022   3.748   1.945
 6767TIP3    H220266   4.048   3.863   2.041
 6768TIP3   OH220267   7.114   4.173   0.940
 6768TIP3    H120268   7.109   4.256   0.894
 6768TIP3    H220269   7.108   4.197   1.033
 6769TIP3   OH220270   6.017   0.546   2.093
 6769TIP3    H120271   6.088   0.577   2.149
 6769TIP3    H220272   5.963   0.624   2.079
 6770TIP3   OH220273   0.571   1.636   1.196
 6770TIP3    H120274   0.663   1.621   1.217
 6770TIP3    H220275   0.542   1.701   1.261
 6771TIP3   OH220276   4.817   4.417   2.952
 6771TIP3    H120277   4.809   4.457   3.038
 6771TIP3    H220278   4.860   4.484   2.899
 6772TIP3   OH220279   5.332   4.872   0.358
 6772TIP3    H120280   5.250   4.896   0.315
 6772TIP3    H220281   5.389   4.948   0.344
 6773TIP3   OH220282   2.587   6.288   4.072
 6773TIP3    H120283   2.537   6.283   4.154
 6773TIP3    H220284   2.522   6.312   4.006
 6774TIP3   OH220285   6.834   0.334   4.962
 6774TIP3    H120286   6.886   0.300   4.889
 6774TIP3    H220287   6.896   0.340   5.035
 6775TIP3   OH220288   6.338   2.705   3.902
 6775TIP3    H120289   6.419   2.654   3.899
 6775TIP3    H220290   6.301   2.685   3.988
 6776TIP3   OH220291   2.868   0.423   5.313
 6776TIP3    H120292   2.932   0.486   5.347
 6776TIP3    H220293   2.801   0.417   5.382
 6777TIP3   OH220294   4.743   1.594   4.803
 6777TIP3    H120295   4.676   1.661   4.813
 6777TIP3    H220296   4.815   1.622   4.860
 6778TIP3   OH220297   7.046   1.965   2.032
 6778TIP3    H120298   6.989   1.927   2.100
 6778TIP3    H220299   7.007   2.050   2.012
 6779TIP3   OH220300   0.951   4.768   5.072
 6779TIP3    H120301   0.897   4.716   5.132
 6779TIP3    H220302   0.895   4.842   5.049
 6780TIP3   OH220303   1.977   2.699   2.176
 6780TIP3    H120304   1.956   2.787   2.206
 6780TIP3    H220305   2.065   2.706   2.139
 6781TIP3   OH220306   1.293   4.064   1.031
 6781TIP3    H120307   1.353   4.026   0.968
 6781TIP3    H220308   1.211   4.015   1.020
 6782TIP3   OH220309   4.128   4.380   2.022
 6782TIP3    H120310   4.089   4.429   2.095
 6782TIP3    H220311   4.147   4.294   2.058
 6783TIP3   OH220312   6.633   5.340  -0.084
 6783TIP3    H120313   6.551   5.300  -0.054
 6783TIP3    H220314   6.701   5.279  -0.056
 6784TIP3   OH220315   5.695   2.504   1.200
 6784TIP3    H120316   5.745   2.425   1.222
 6784TIP3    H220317   5.754   2.576   1.223
 6785TIP3   OH220318   4.270   5.854   5.463
 6785TIP3    H120319   4.256   5.853   5.558
 6785TIP3    H220320   4.182   5.862   5.426
 6786TIP3   OH220321   3.765   6.588   1.366
 6786TIP3    H120322   3.775   6.681   1.382
 6786TIP3    H220323   3.769   6.548   1.452
 6787TIP3   OH220324   0.000   0.576   3.072
 6787TIP3    H120325  -0.008   0.662   3.032
 6787TIP3    H220326  -0.031   0.588   3.162
 6788TIP3   OH220327   5.674   6.059   2.019
 6788TIP3    H120328   5.710   6.056   2.108
 6788TIP3    H220329   5.594   6.110   2.028
 6789TIP3   OH220330   3.126   5.344   1.820
 6789TIP3    H120331   3.141   5.252   1.843
 6789TIP3    H220332   3.057   5.342   1.754
 6790TIP3   OH220333   1.808   0.209   5.838
 6790TIP3    H120334   1.838   0.161   5.915
 6790TIP3    H220335   1.715   0.223   5.853
 6791TIP3   OH220336   2.365   0.842   0.989
 6791TIP3    H120337   2.374   0.937   0.981
 6791TIP3    H220338   2.307   0.830   1.064
 6792TIP3   OH220339   1.650   5.855   4.262
 6792TIP3    H120340   1.726   5.800   4.242
 6792TIP3    H220341   1.626   5.894   4.178
 6793TIP3   OH220342   0.726   0.053   1.744
 6793TIP3    H120343   0.644   0.019   1.780
 6793TIP3    H220344   0.765   0.102   1.816
 6794TIP3   OH220345   1.883   5.908   3.981
 6794TIP3    H120346   1.810   5.943   3.930
 6794TIP3    H220347   1.850   5.826   4.017
 6795TIP3   OH220348   6.802   1.076   2.287
 6795TIP3    H120349   6.781   1.155   2.337
 6795TIP3    H220350   6.742   1.078   2.212
 6796TIP3   OH220351   1.132   6.729   1.593
 6796TIP3    H120352   1.218   6.771   1.581
 6796TIP3    H220353   1.147   6.665   1.663
 6797TIP3   OH220354   0.408   3.050   0.518
 6797TIP3    H120355   0.426   3.131   0.564
 6797TIP3    H220356   0.489   3.028   0.473
 6798TIP3   OH220357   2.025   0.268   4.809
 6798TIP3    H120358   1.998   0.326   4.738
 6798TIP3    H220359   1.959   0.199   4.810
 6799TIP3   OH220360   4.371   4.343   4.406
 6799TIP3    H120361   4.442   4.289   4.372
 6799TIP3    H220362   4.412   4.427   4.424
 6800TIP3   OH220363   1.568   1.076   3.470
 6800TIP3    H120364   1.636   1.048   3.530
 6800TIP3    H220365   1.488   1.037   3.504
 6801TIP3   OH220366   1.542   2.450   0.183
 6801TIP3    H120367   1.482   2.484   0.117
 6801TIP3    H220368   1.490   2.448   0.263
 6802TIP3   OH220369   1.505   4.747   1.402
 6802TIP3    H120370   1.498   4.693   1.323
 6802TIP3    H220371   1.415   4.774   1.420
 6803TIP3   OH220372   3.653   3.054   0.883
 6803TIP3    H120373   3.583   3.106   0.922
 6803TIP3    H220374   3.641   3.065   0.788
 6804TIP3   OH220375   6.821   1.989   4.600
 6804TIP3    H120376   6.836   2.061   4.538
 6804TIP3    H220377   6.865   1.914   4.560
 6805TIP3   OH220378   1.192   1.020   0.121
 6805TIP3    H120379   1.243   0.968   0.183
 6805TIP3    H220380   1.163   1.097   0.171
 6806TIP3   OH220381   2.541   2.090   0.070
 6806TIP3    H120382   2.572   2.123   0.155
 6806TIP3    H220383   2.604   2.124   0.007
 6807TIP3   OH220384   2.360   2.009   3.825
 6807TIP3    H120385   2.435   1.950   3.821
 6807TIP3    H220386   2.328   2.001   3.915
 6808TIP3   OH220387   0.706   6.553   0.557
 6808TIP3    H120388   0.781   6.611   0.544
 6808TIP3    H220389   0.708   6.533   0.651
 6809TIP3   OH220390   5.681   5.952   1.011
 6809TIP3    H120391   5.724   6.030   1.045
 6809TIP3    H220392   5.725   5.879   1.053
 6810TIP3   OH220393   0.764   3.542   2.528
 6810TIP3    H120394   0.751   3.514   2.619
 6810TIP3    H220395   0.845   3.500   2.501
 6811TIP3   OH220396   4.861   2.359   2.379
 6811TIP3    H120397   4.794   2.420   2.348
 6811TIP3    H220398   4.943   2.408   2.373
 6812TIP3   OH220399   1.253   1.207   5.186
 6812TIP3    H120400   1.348   1.212   5.180
 6812TIP3    H220401   1.237   1.161   5.268
 6813TIP3   OH220402   4.384   3.592   1.219
 6813TIP3    H120403   4.300   3.635   1.238
 6813TIP3    H220404   4.446   3.633   1.279
 6814TIP3   OH220405   2.639   3.870   1.319
 6814TIP3    H120406   2.701   3.809   1.358
 6814TIP3    H220407   2.553   3.832   1.338
 6815TIP3   OH220408   4.135   1.109   1.321
 6815TIP3    H120409   4.069   1.120   1.253
 6815TIP3    H220410   4.218   1.112   1.274
 6816TIP3   OH220411   6.841  -0.001   3.968
 6816TIP3    H120412   6.856  -0.063   3.897
 6816TIP3    H220413   6.926   0.040   3.983
 6817TIP3   OH220414   5.360   0.111   2.427
 6817TIP3    H120415   5.392   0.043   2.368
 6817TIP3    H220416   5.394   0.086   2.513
 6818TIP3   OH220417   3.883   1.463   3.672
 6818TIP3    H120418   3.837   1.469   3.588
 6818TIP3    H220419   3.865   1.547   3.715
 6819TIP3   OH220420   0.026   5.184   2.668
 6819TIP3    H120421   0.027   5.268   2.622
 6819TIP3    H220422   0.080   5.198   2.746
 6820TIP3   OH220423   7.102   1.846   2.307
 6820TIP3    H120424   7.106   1.930   2.351
 6820TIP3    H220425   7.168   1.793   2.352
 6821TIP3   OH220426   5.200   1.292   2.630
 6821TIP3    H120427   5.180   1.365   2.572
 6821TIP3    H220428   5.198   1.330   2.718
 6822TIP3   OH220429   0.349   2.194   3.715
 6822TIP3    H120430   0.388   2.222   3.632
 6822TIP3    H220431   0.295   2.268   3.742
 6823TIP3   OH220432   6.387   4.008   4.422
 6823TIP3    H120433   6.333   4.070   4.372
 6823TIP3    H220434   6.328   3.973   4.488
 6824TIP3   OH220435   0.206   1.504   0.517
 6824TIP3    H120436   0.244   1.433   0.463
 6824TIP3    H220437   0.214   1.472   0.607
 6825TIP3   OH220438   3.473   4.404   3.887
 6825TIP3    H120439   3.459   4.331   3.827
 6825TIP3    H220440   3.500   4.477   3.831
 6826TIP3   OH220441   1.323   2.751   2.803
 6826TIP3    H120442   1.282   2.701   2.873
 6826TIP3    H220443   1.293   2.709   2.722
 6827TIP3   OH220444   4.978   3.021   1.400
 6827TIP3    H120445   4.901   3.077   1.407
 6827TIP3    H220446   4.990   3.009   1.306
 6828TIP3   OH220447   1.891   5.983   0.521
 6828TIP3    H120448   1.835   6.046   0.475
 6828TIP3    H220449   1.960   5.961   0.458
 6829TIP3   OH220450   4.181   6.185   2.992
 6829TIP3    H120451   4.118   6.120   3.025
 6829TIP3    H220452   4.132   6.267   2.990
 6830TIP3   OH220453   0.612   2.671   2.509
 6830TIP3    H120454   0.563   2.730   2.565
 6830TIP3    H220455   0.681   2.636   2.565
 6831TIP3   OH220456   6.612   4.534   2.160
 6831TIP3    H120457   6.635   4.510   2.070
 6831TIP3    H220458   6.582   4.625   2.153
 6832TIP3   OH220459   4.664   6.469   1.563
 6832TIP3    H120460   4.756   6.453   1.545
 6832TIP3    H220461   4.618   6.395   1.523
 6833TIP3   OH220462   3.800   4.660   3.116
 6833TIP3    H120463   3.784   4.725   3.047
 6833TIP3    H220464   3.856   4.595   3.075
 6834TIP3   OH220465   1.432   4.749   2.636
 6834TIP3    H120466   1.341   4.721   2.645
 6834TIP3    H220467   1.435   4.799   2.554
 6835TIP3   OH220468   2.679   1.243   5.492
 6835TIP3    H120469   2.734   1.236   5.569
 6835TIP3    H220470   2.599   1.195   5.515
 6836TIP3   OH220471   1.949   1.941   5.673
 6836TIP3    H120472   2.005   2.012   5.642
 6836TIP3    H220473   1.994   1.861   5.647
 6837TIP3   OH220474   0.426   4.139   0.477
 6837TIP3    H120475   0.354   4.076   0.468
 6837TIP3    H220476   0.468   4.117   0.560
 6838TIP3   OH220477   6.213   0.480   1.578
 6838TIP3    H120478   6.127   0.439   1.587
 6838TIP3    H220479   6.196   0.562   1.533
 6839TIP3   OH220480   5.811   1.241   4.822
 6839TIP3    H120481   5.860   1.321   4.837
 6839TIP3    H220482   5.844   1.180   4.889
 6840TIP3   OH220483   1.997   0.301   1.108
 6840TIP3    H120484   1.954   0.322   1.192
 6840TIP3    H220485   1.953   0.356   1.044
 6841TIP3   OH220486   2.689   4.744   2.600
 6841TIP3    H120487   2.651   4.699   2.524
 6841TIP3    H220488   2.738   4.676   2.645
 6842TIP3   OH220489   0.132   2.579   2.411
 6842TIP3    H120490   0.212   2.551   2.455
 6842TIP3    H220491   0.156   2.585   2.318
 6843TIP3   OH220492   0.336   4.538   0.288
 6843TIP3    H120493   0.346   4.477   0.215
 6843TIP3    H220494   0.402   4.605   0.273
 6844TIP3   OH220495   0.484   5.039   3.853
 6844TIP3    H120496   0.559   5.074   3.900
 6844TIP3    H220497   0.519   5.015   3.767
 6845TIP3   OH220498   2.943   2.333   5.824
 6845TIP3    H120499   2.924   2.249   5.866
 6845TIP3    H220500   3.038   2.332   5.812
 6846TIP3   OH220501   5.373   5.739   4.600
 6846TIP3    H120502   5.334   5.714   4.684
 6846TIP3    H220503   5.416   5.822   4.618
 6847TIP3   OH220504   5.781   4.445   4.149
 6847TIP3    H120505   5.875   4.460   4.161
 6847TIP3    H220506   5.775   4.352   4.126
 6848TIP3   OH220507   3.111   6.540   3.336
 6848TIP3    H120508   3.118   6.518   3.429
 6848TIP3    H220509   3.195   6.516   3.299
 6849TIP3   OH220510   2.707   1.228   0.913
 6849TIP3    H120511   2.686   1.308   0.863
 6849TIP3    H220512   2.719   1.259   1.003
 6850TIP3   OH220513   0.031   4.631   3.869
 6850TIP3    H120514  -0.007   4.546   3.847
 6850TIP3    H220515   0.121   4.626   3.837
 6851TIP3   OH220516   6.196   1.049   4.954
 6851TIP3    H120517   6.215   0.963   4.917
 6851TIP3    H220518   6.234   1.111   4.892
 6852TIP3   OH220519   5.344   5.165   0.590
 6852TIP3    H120520   5.351   5.197   0.680
 6852TIP3    H220521   5.319   5.241   0.539
 6853TIP3   OH220522   6.835   4.587   4.696
 6853TIP3    H120523   6.821   4.672   4.738
 6853TIP3    H220524   6.924   4.592   4.662
 6854TIP3   OH220525   6.588   0.791   4.879
 6854TIP3    H120526   6.645   0.865   4.897
 6854TIP3    H220527   6.640   0.714   4.902
 6855TIP3   OH220528   2.052   4.245   0.517
 6855TIP3    H120529   2.122   4.307   0.534
 6855TIP3    H220530   2.033   4.207   0.603
 6856TIP3   OH220531   2.275   4.933   4.673
 6856TIP3    H120532   2.187   4.969   4.665
 6856TIP3    H220533   2.277   4.860   4.610
 6857TIP3   OH220534   3.029   5.228   1.021
 6857TIP3    H120535   3.122   5.248   1.013
 6857TIP3    H220536   2.993   5.247   0.935
 6858TIP3   OH220537   0.587   1.256   2.506
 6858TIP3    H120538   0.680   1.280   2.503
 6858TIP3    H220539   0.541   1.334   2.475
 6859TIP3   OH220540   5.488   6.174   2.463
 6859TIP3    H120541   5.473   6.165   2.557
 6859TIP3    H220542   5.473   6.086   2.427
 6860TIP3   OH220543   7.095   4.332   5.508
 6860TIP3    H120544   7.047   4.380   5.441
 6860TIP3    H220545   7.173   4.386   5.524
 6861TIP3   OH220546   2.915   6.760   5.303
 6861TIP3    H120547   2.949   6.688   5.249
 6861TIP3    H220548   2.948   6.741   5.391
 6862TIP3   OH220549   1.293   6.005   4.389
 6862TIP3    H120550   1.260   6.091   4.363
 6862TIP3    H220551   1.306   5.958   4.307
 6863TIP3   OH220552   6.104   6.517   2.934
 6863TIP3    H120553   6.035   6.458   2.903
 6863TIP3    H220554   6.181   6.460   2.942
 6864TIP3   OH220555   0.152   2.495   2.163
 6864TIP3    H120556   0.102   2.422   2.127
 6864TIP3    H220557   0.095   2.571   2.150
 6865TIP3   OH220558   1.795   3.507   3.409
 6865TIP3    H120559   1.867   3.527   3.468
 6865TIP3    H220560   1.821   3.426   3.365
 6866TIP3   OH220561   2.492   0.335   3.236
 6866TIP3    H120562   2.532   0.292   3.161
 6866TIP3    H220563   2.443   0.265   3.280
 6867TIP3   OH220564   2.748   5.745   0.346
 6867TIP3    H120565   2.820   5.746   0.408
 6867TIP3    H220566   2.694   5.671   0.374
 6868TIP3   OH220567   5.203   6.292   2.599
 6868TIP3    H120568   5.176   6.357   2.664
 6868TIP3    H220569   5.269   6.239   2.643
 6869TIP3   OH220570   1.277   3.195   1.121
 6869TIP3    H120571   1.293   3.129   1.053
 6869TIP3    H220572   1.240   3.269   1.073
 6870TIP3   OH220573   2.333   6.356   1.540
 6870TIP3    H120574   2.301   6.444   1.519
 6870TIP3    H220575   2.405   6.370   1.601
 6871TIP3   OH220576   5.805   0.680   1.018
 6871TIP3    H120577   5.854   0.756   0.985
 6871TIP3    H220578   5.715   0.695   0.989
 6872TIP3   OH220579   3.114   5.539   2.011
 6872TIP3    H120580   3.102   5.486   2.089
 6872TIP3    H220581   3.140   5.476   1.943
 6873TIP3   OH220582   3.071   0.344   4.741
 6873TIP3    H120583   3.036   0.421   4.786
 6873TIP3    H220584   3.050   0.359   4.648
 6874TIP3   OH220585   1.146   6.107   1.042
 6874TIP3    H120586   1.105   6.186   1.077
 6874TIP3    H220587   1.232   6.103   1.083
 6875TIP3   OH220588   6.375   2.348   1.905
 6875TIP3    H120589   6.452   2.360   1.961
 6875TIP3    H220590   6.327   2.275   1.944
 6876TIP3   OH220591   6.422   3.840   4.131
 6876TIP3    H120592   6.439   3.927   4.096
 6876TIP3    H220593   6.500   3.789   4.109
 6877TIP3   OH220594   4.809   0.532   4.586
 6877TIP3    H120595   4.845   0.503   4.670
 6877TIP3    H220596   4.776   0.452   4.545
 6878TIP3   OH220597   6.883   6.066   0.426
 6878TIP3    H120598   6.885   6.092   0.333
 6878TIP3    H220599   6.959   6.111   0.464
 6879TIP3   OH220600   2.698   2.695   3.794
 6879TIP3    H120601   2.769   2.634   3.812
 6879TIP3    H220602   2.732   2.752   3.725
 6880TIP3   OH220603   4.162   5.668   4.518
 6880TIP3    H120604   4.140   5.582   4.555
 6880TIP3    H220605   4.119   5.668   4.432
 6881TIP3   OH220606   0.152   6.708   4.973
 6881TIP3    H120607   0.163   6.660   5.055
 6881TIP3    H220608   0.093   6.653   4.921
 6882TIP3   OH220609   2.465   4.919   3.250
 6882TIP3    H120610   2.543   4.896   3.199
 6882TIP3    H220611   2.462   5.014   3.248
 6883TIP3   OH220612   6.341   3.441   4.878
 6883TIP3    H120613   6.375   3.525   4.846
 6883TIP3    H220614   6.415   3.401   4.924
 6884TIP3   OH220615   4.787   3.867   5.647
 6884TIP3    H120616   4.841   3.810   5.593
 6884TIP3    H220617   4.697   3.839   5.631
 6885TIP3   OH220618   6.203   2.524   0.358
 6885TIP3    H120619   6.201   2.489   0.269
 6885TIP3    H220620   6.117   2.505   0.394
 6886TIP3   OH220621   6.603   0.823   5.908
 6886TIP3    H120622   6.587   0.785   5.994
 6886TIP3    H220623   6.639   0.909   5.927
 6887TIP3   OH220624   7.005   2.090   5.473
 6887TIP3    H120625   7.048   2.076   5.389
 6887TIP3    H220626   6.958   2.172   5.463
 6888TIP3   OH220627   4.417   1.780   1.666
 6888TIP3    H120628   4.398   1.778   1.760
 6888TIP3    H220629   4.411   1.872   1.643
 6889TIP3   OH220630   6.670   4.492   4.029
 6889TIP3    H120631   6.721   4.566   4.062
 6889TIP3    H220632   6.718   4.463   3.952
 6890TIP3   OH220633   0.621   6.500   0.296
 6890TIP3    H120634   0.528   6.521   0.285
 6890TIP3    H220635   0.649   6.556   0.368
 6891TIP3   OH220636   6.680   2.980   0.144
 6891TIP3    H120637   6.761   2.990   0.095
 6891TIP3    H220638   6.667   2.885   0.150
 6892TIP3   OH220639   4.722   3.618   4.227
 6892TIP3    H120640   4.801   3.570   4.249
 6892TIP3    H220641   4.674   3.560   4.168
 6893TIP3   OH220642   5.635   3.728   0.893
 6893TIP3    H120643   5.661   3.639   0.918
 6893TIP3    H220644   5.714   3.765   0.855
 6894TIP3   OH220645   2.390   6.690   0.143
 6894TIP3    H120646   2.376   6.626   0.074
 6894TIP3    H220647   2.336   6.765   0.119
 6895TIP3   OH220648   5.063   6.361   0.312
 6895TIP3    H120649   5.113   6.359   0.231
 6895TIP3    H220650   5.127   6.339   0.380
 6896TIP3   OH220651   4.609   0.435   5.674
 6896TIP3    H120652   4.601   0.355   5.727
 6896TIP3    H220653   4.524   0.478   5.682
 6897TIP3   OH220654   6.993   3.768   2.797
 6897TIP3    H120655   7.011   3.827   2.724
 6897TIP3    H220656   6.954   3.824   2.864
 6898TIP3   OH220657   3.368   0.338   4.719
 6898TIP3    H120658   3.366   0.422   4.673
 6898TIP3    H220659   3.276   0.314   4.730
 6899TIP3   OH220660   1.988   6.334   2.957
 6899TIP3    H120661   2.059   6.277   2.987
 6899TIP3    H220662   1.912   6.306   3.008
 6900TIP3   OH220663   3.367   5.739   2.642
 6900TIP3    H120664   3.338   5.656   2.604
 6900TIP3    H220665   3.449   5.716   2.686
 6901TIP3   OH220666   5.598   0.669   0.403
 6901TIP3    H120667   5.618   0.717   0.483
 6901TIP3    H220668   5.683   0.658   0.360
 6902TIP3   OH220669   3.801   3.928   4.492
 6902TIP3    H120670   3.757   3.843   4.494
 6902TIP3    H220671   3.895   3.906   4.494
 6903TIP3   OH220672   3.801   3.539   3.821
 6903TIP3    H120673   3.778   3.620   3.775
 6903TIP3    H220674   3.722   3.515   3.869
 6904TIP3   OH220675   2.148   5.661   0.916
 6904TIP3    H120676   2.243   5.674   0.916
 6904TIP3    H220677   2.131   5.612   0.995
 6905TIP3   OH220678   6.840   6.589   0.100
 6905TIP3    H120679   6.846   6.498   0.071
 6905TIP3    H220680   6.751   6.615   0.075
 6906TIP3   OH220681   1.044   2.658   2.361
 6906TIP3    H120682   0.953   2.670   2.333
 6906TIP3    H220683   1.064   2.738   2.410
 6907TIP3   OH220684   2.364   6.395   1.938
 6907TIP3    H120685   2.319   6.479   1.929
 6907TIP3    H220686   2.428   6.409   2.007
 6908TIP3   OH220687   5.176   0.194   1.849
 6908TIP3    H120688   5.269   0.194   1.824
 6908TIP3    H220689   5.175   0.230   1.938
 6909TIP3   OH220690   6.968   6.192   4.094
 6909TIP3    H120691   7.049   6.179   4.044
 6909TIP3    H220692   6.973   6.284   4.123
 6910TIP3   OH220693   7.099   6.703   1.526
 6910TIP3    H120694   7.026   6.713   1.464
 6910TIP3    H220695   7.072   6.753   1.603
 6911TIP3   OH220696   2.506   3.596   1.769
 6911TIP3    H120697   2.527   3.565   1.681
 6911TIP3    H220698   2.420   3.636   1.762
 6912TIP3   OH220699   1.967   4.719   2.155
 6912TIP3    H120700   1.994   4.745   2.243
 6912TIP3    H220701   1.958   4.801   2.108
 6913TIP3   OH220702   6.059   6.777   0.372
 6913TIP3    H120703   6.013   6.717   0.313
 6913TIP3    H220704   5.990   6.811   0.430
 6914TIP3   OH220705   3.725   1.168   0.936
 6914TIP3    H120706   3.805   1.132   0.898
 6914TIP3    H220707   3.654   1.122   0.890
 6915TIP3   OH220708   6.122   1.867   1.200
 6915TIP3    H120709   6.152   1.839   1.114
 6915TIP3    H220710   6.200   1.898   1.245
 6916TIP3   OH220711   2.408   4.645   2.126
 6916TIP3    H120712   2.396   4.675   2.216
 6916TIP3    H220713   2.489   4.594   2.128
 6917TIP3   OH220714   7.086   5.382   0.993
 6917TIP3    H120715   7.181   5.385   0.997
 6917TIP3    H220716   7.064   5.420   0.908
 6918TIP3   OH220717   5.659   2.880   5.326
 6918TIP3    H120718   5.718   2.943   5.284
 6918TIP3    H220719   5.660   2.804   5.269
 6919TIP3   OH220720   6.345   2.158   3.512
 6919TIP3    H120721   6.250   2.161   3.527
 6919TIP3    H220722   6.360   2.227   3.447
 6920TIP3   OH220723   5.529   2.140   2.476
 6920TIP3    H120724   5.498   2.227   2.450
 6920TIP3    H220725   5.543   2.093   2.393
 6921TIP3   OH220726   4.250   5.065   1.893
 6921TIP3    H120727   4.158   5.089   1.883
 6921TIP3    H220728   4.279   5.111   1.972
 6922TIP3   OH220729   6.582   4.237   0.027
 6922TIP3    H120730   6.499   4.204  -0.006
 6922TIP3    H220731   6.591   4.197   0.113
 6923TIP3   OH220732   0.468   2.398   4.820
 6923TIP3    H120733   0.489   2.307   4.800
 6923TIP3    H220734   0.392   2.393   4.877
 6924TIP3   OH220735   7.061   3.660   4.600
 6924TIP3    H120736   7.093   3.588   4.654
 6924TIP3    H220737   7.053   3.623   4.512
 6925TIP3   OH220738   2.074   0.055   4.485
 6925TIP3    H120739   2.031   0.119   4.428
 6925TIP3    H220740   2.004  -0.005   4.511
 6926TIP3   OH220741   6.671   3.829   4.602
 6926TIP3    H120742   6.724   3.905   4.579
 6926TIP3    H220743   6.632   3.801   4.519
 6927TIP3   OH220744   2.262   6.084   4.016
 6927TIP3    H120745   2.315   6.054   4.090
 6927TIP3    H220746   2.172   6.085   4.049
 6928TIP3   OH220747   7.102   6.148   1.223
 6928TIP3    H120748   7.108   6.209   1.150
 6928TIP3    H220749   7.070   6.201   1.297
 6929TIP3   OH220750   2.702   6.384   1.908
 6929TIP3    H120751   2.789   6.419   1.926
 6929TIP3    H220752   2.711   6.289   1.916
 6930TIP3   OH220753   1.463   6.389   4.198
 6930TIP3    H120754   1.538   6.331   4.183
 6930TIP3    H220755   1.428   6.361   4.282
 6931TIP3   OH220756   5.316   1.904   1.762
 6931TIP3    H120757   5.263   1.961   1.818
 6931TIP3    H220758   5.257   1.874   1.694
 6932TIP3   OH220759   3.614   1.909   1.201
 6932TIP3    H120760   3.598   1.816   1.188
 6932TIP3    H220761   3.537   1.952   1.164
 6933TIP3   OH220762   6.214   3.030   1.456
 6933TIP3    H120763   6.243   2.985   1.535
 6933TIP3    H220764   6.122   3.051   1.473
 6934TIP3   OH220765   3.280   0.989   2.325
 6934TIP3    H120766   3.356   0.931   2.334
 6934TIP3    H220767   3.313   1.066   2.280
 6935TIP3   OH220768   3.027   3.594   4.225
 6935TIP3    H120769   3.082   3.515   4.228
 6935TIP3    H220770   3.025   3.625   4.316
 6936TIP3   OH220771   0.617   0.391   5.497
 6936TIP3    H120772   0.548   0.417   5.435
 6936TIP3    H220773   0.692   0.371   5.441
 6937TIP3   OH220774   0.097   1.531   1.074
 6937TIP3    H120775   0.131   1.565   1.156
 6937TIP3    H220776   0.149   1.574   1.006
 6938TIP3   OH220777   6.249   1.456   2.413
 6938TIP3    H120778   6.175   1.507   2.378
 6938TIP3    H220779   6.265   1.389   2.346
 6939TIP3   OH220780   0.567   5.983   1.286
 6939TIP3    H120781   0.472   5.992   1.284
 6939TIP3    H220782   0.587   5.920   1.216
 6940TIP3   OH220783   3.672   3.102   4.172
 6940TIP3    H120784   3.581   3.070   4.170
 6940TIP3    H220785   3.716   3.043   4.233
 6941TIP3   OH220786   1.426   3.674   0.052
 6941TIP3    H120787   1.385   3.655  -0.033
 6941TIP3    H220788   1.470   3.758   0.040
 6942TIP3   OH220789   4.580   5.582   2.250
 6942TIP3    H120790   4.537   5.664   2.227
 6942TIP3    H220791   4.531   5.548   2.325
 6943TIP3   OH220792   0.877   2.158   5.804
 6943TIP3    H120793   0.926   2.226   5.850
 6943TIP3    H220794   0.942   2.091   5.783
 6944TIP3   OH220795   5.501   4.899   1.828
 6944TIP3    H120796   5.576   4.873   1.774
 6944TIP3    H220797   5.508   4.845   1.907
 6945TIP3   OH220798   3.763   0.016   1.443
 6945TIP3    H120799   3.843   0.062   1.470
 6945TIP3    H220800   3.733   0.063   1.365
 6946TIP3   OH220801   0.013   1.993   1.807
 6946TIP3    H120802  -0.020   1.924   1.749
 6946TIP3    H220803  -0.045   1.989   1.884
 6947TIP3   OH220804   5.106   3.171   2.390
 6947TIP3    H120805   5.189   3.133   2.420
 6947TIP3    H220806   5.039   3.127   2.443
 6948TIP3   OH220807   3.073   5.638   0.209
 6948TIP3    H120808   3.149   5.582   0.220
 6948TIP3    H220809   3.033   5.644   0.296
 6949TIP3   OH220810   1.856   4.434   0.392
 6949TIP3    H120811   1.906   4.431   0.310
 6949TIP3    H220812   1.870   4.348   0.431
 6950TIP3   OH220813   0.039   3.490   0.621
 6950TIP3    H120814  -0.019   3.420   0.650
 6950TIP3    H220815   0.040   3.482   0.525
 6951TIP3   OH220816   1.642   3.651   4.852
 6951TIP3    H120817   1.692   3.725   4.886
 6951TIP3    H220818   1.690   3.574   4.881
 6952TIP3   OH220819   2.042   4.181   0.251
 6952TIP3    H120820   2.051   4.184   0.346
 6952TIP3    H220821   2.016   4.270   0.226
 6953TIP3   OH220822   4.682   6.490   2.707
 6953TIP3    H120823   4.672   6.518   2.798
 6953TIP3    H220824   4.720   6.403   2.712
 6954TIP3   OH220825   4.692   4.222   2.495
 6954TIP3    H120826   4.608   4.268   2.499
 6954TIP3    H220827   4.681   4.158   2.424
 6955TIP3   OH220828   3.484   3.970   0.539
 6955TIP3    H120829   3.490   3.886   0.586
 6955TIP3    H220830   3.464   4.034   0.608
 6956TIP3   OH220831   4.169   4.229   3.688
 6956TIP3    H120832   4.176   4.198   3.598
 6956TIP3    H220833   4.115   4.307   3.683
 6957TIP3   OH220834   0.173   5.533   4.996
 6957TIP3    H120835   0.167   5.445   4.958
 6957TIP3    H220836   0.200   5.589   4.924
 6958TIP3   OH220837   5.563   0.415   3.118
 6958TIP3    H120838   5.640   0.443   3.069
 6958TIP3    H220839   5.530   0.338   3.071
 6959TIP3   OH220840   0.237   5.317   2.250
 6959TIP3    H120841   0.185   5.252   2.298
 6959TIP3    H220842   0.195   5.321   2.164
 6960TIP3   OH220843   2.731   1.582   3.466
 6960TIP3    H120844   2.763   1.543   3.385
 6960TIP3    H220845   2.810   1.611   3.512
 6961TIP3   OH220846   6.541   2.995   4.433
 6961TIP3    H120847   6.551   2.925   4.368
 6961TIP3    H220848   6.563   2.952   4.516
 6962TIP3   OH220849   4.775   1.703   3.568
 6962TIP3    H120850   4.742   1.696   3.478
 6962TIP3    H220851   4.704   1.667   3.622
 6963TIP3   OH220852   0.197   2.693   0.300
 6963TIP3    H120853   0.181   2.613   0.250
 6963TIP3    H220854   0.115   2.710   0.346
 6964TIP3   OH220855   4.451   4.788   2.459
 6964TIP3    H120856   4.369   4.745   2.437
 6964TIP3    H220857   4.493   4.804   2.374
 6965TIP3   OH220858   1.394   4.540   4.436
 6965TIP3    H120859   1.470   4.545   4.495
 6965TIP3    H220860   1.403   4.616   4.378
 6966TIP3   OH220861   5.793   1.177   4.320
 6966TIP3    H120862   5.814   1.087   4.345
 6966TIP3    H220863   5.875   1.213   4.288
 6967TIP3   OH220864   0.831   5.478   3.235
 6967TIP3    H120865   0.851   5.389   3.207
 6967TIP3    H220866   0.764   5.468   3.302
 6968TIP3   OH220867   6.183   3.868   4.606
 6968TIP3    H120868   6.177   3.785   4.560
 6968TIP3    H220869   6.212   3.845   4.695
 6969TIP3   OH220870   5.490   0.178   4.548
 6969TIP3    H120871   5.501   0.255   4.491
 6969TIP3    H220872   5.396   0.175   4.566
 6970TIP3   OH220873   5.916   2.730   4.809
 6970TIP3    H120874   5.988   2.767   4.861
 6970TIP3    H220875   5.947   2.734   4.719
 6971TIP3   OH220876   1.121   5.711   2.413
 6971TIP3    H120877   1.109   5.780   2.478
 6971TIP3    H220878   1.211   5.721   2.383
 6972TIP3   OH220879   3.247   2.733   3.989
 6972TIP3    H120880   3.257   2.773   3.902
 6972TIP3    H220881   3.219   2.806   4.045
 6973TIP3   OH220882   3.433   5.097   1.864
 6973TIP3    H120883   3.508   5.147   1.895
 6973TIP3    H220884   3.413   5.036   1.935
 6974TIP3   OH220885   3.010   1.618   3.551
 6974TIP3    H120886   3.047   1.582   3.632
 6974TIP3    H220887   2.974   1.702   3.577
 6975TIP3   OH220888   7.191   5.343   5.478
 6975TIP3    H120889   7.142   5.376   5.402
 6975TIP3    H220890   7.181   5.248   5.473
 6976TIP3   OH220891   0.409   5.430   3.531
 6976TIP3    H120892   0.376   5.484   3.603
 6976TIP3    H220893   0.350   5.354   3.529
 6977TIP3   OH220894   1.154   5.335   0.479
 6977TIP3    H120895   1.245   5.356   0.497
 6977TIP3    H220896   1.150   5.240   0.481
 6978TIP3   OH220897   7.189   6.750   0.901
 6978TIP3    H120898   7.119   6.770   0.963
 6978TIP3    H220899   7.144   6.711   0.826
 6979TIP3   OH220900   1.963   3.954   1.698
 6979TIP3    H120901   2.004   3.908   1.625
 6979TIP3    H220902   2.025   3.945   1.770
 6980TIP3   OH220903   2.213   3.142   2.372
 6980TIP3    H120904   2.255   3.135   2.458
 6980TIP3    H220905   2.190   3.052   2.349
 6981TIP3   OH220906   0.472   3.075   4.964
 6981TIP3    H120907   0.483   3.111   4.876
 6981TIP3    H220908   0.560   3.045   4.989
 6982TIP3   OH220909   6.730   4.038   2.437
 6982TIP3    H120910   6.724   3.964   2.377
 6982TIP3    H220911   6.781   4.104   2.388
 6983TIP3   OH220912   5.725   1.188   3.009
 6983TIP3    H120913   5.636   1.222   2.997
 6983TIP3    H220914   5.776   1.233   2.942
 6984TIP3   OH220915   5.936   0.516   3.131
 6984TIP3    H120916   5.914   0.443   3.073
 6984TIP3    H220917   5.939   0.478   3.218
 6985TIP3   OH220918   4.688   5.055   3.368
 6985TIP3    H120919   4.679   5.092   3.280
 6985TIP3    H220920   4.599   5.052   3.402
 6986TIP3   OH220921   2.005   4.983   4.065
 6986TIP3    H120922   2.022   5.023   4.150
 6986TIP3    H220923   2.075   5.016   4.008
 6987TIP3   OH220924   2.977   0.700   1.933
 6987TIP3    H120925   2.896   0.667   1.895
 6987TIP3    H220926   3.046   0.657   1.883
 6988TIP3   OH220927   0.266   4.915   1.955
 6988TIP3    H120928   0.216   4.838   1.929
 6988TIP3    H220929   0.335   4.922   1.888
 6989TIP3   OH220930   2.055   1.187   3.590
 6989TIP3    H120931   1.993   1.234   3.646
 6989TIP3    H220932   2.007   1.172   3.509
 6990TIP3   OH220933   1.388   6.410   3.157
 6990TIP3    H120934   1.294   6.424   3.171
 6990TIP3    H220935   1.428   6.429   3.242
 6991TIP3   OH220936   5.689   2.022   3.670
 6991TIP3    H120937   5.719   1.998   3.583
 6991TIP3    H220938   5.751   2.087   3.701
 6992TIP3   OH220939   0.217   4.601   3.569
 6992TIP3    H120940   0.288   4.614   3.632
 6992TIP3    H220941   0.230   4.669   3.503
 6993TIP3   OH220942   4.400   5.853   5.205
 6993TIP3    H120943   4.382   5.861   5.299
 6993TIP3    H220944   4.437   5.938   5.181
 6994TIP3   OH220945   3.712   2.157   5.417
 6994TIP3    H120946   3.695   2.241   5.459
 6994TIP3    H220947   3.743   2.179   5.329
 6995TIP3   OH220948   3.416   2.326   1.136
 6995TIP3    H120949   3.398   2.377   1.057
 6995TIP3    H220950   3.407   2.389   1.207
 6996TIP3   OH220951   5.810   6.652   4.635
 6996TIP3    H120952   5.793   6.697   4.552
 6996TIP3    H220953   5.723   6.627   4.667
 6997TIP3   OH220954   2.959   3.773   0.179
 6997TIP3    H120955   3.006   3.770   0.262
 6997TIP3    H220956   2.980   3.689   0.137
 6998TIP3   OH220957   1.346   5.101   1.891
 6998TIP3    H120958   1.263   5.073   1.929
 6998TIP3    H220959   1.352   5.194   1.913
 6999TIP3   OH220960   4.865   0.826   3.402
 6999TIP3    H120961   4.821   0.835   3.486
 6999TIP3    H220962   4.929   0.757   3.416
 7000TIP3   OH220963   0.337   1.236   1.911
 7000TIP3    H120964   0.402   1.177   1.873
 7000TIP3    H220965   0.286   1.267   1.836
 7001TIP3   OH220966   1.254   4.469   5.613
 7001TIP3    H120967   1.319   4.415   5.570
 7001TIP3    H220968   1.253   4.439   5.704
 7002TIP3   OH220969   0.164   5.081   1.236
 7002TIP3    H120970   0.075   5.050   1.218
 7002TIP3    H220971   0.152   5.149   1.303
 7003TIP3   OH220972   4.794   0.495   3.387
 7003TIP3    H120973   4.866   0.491   3.325
 7003TIP3    H220974   4.837   0.503   3.473
 7004TIP3   OH220975   3.662   5.916   2.622
 7004TIP3    H120976   3.664   5.953   2.533
 7004TIP3    H220977   3.740   5.953   2.664
 7005TIP3   OH220978   3.344   6.394   1.056
 7005TIP3    H120979   3.342   6.457   0.984
 7005TIP3    H220980   3.325   6.446   1.134
 7006TIP3   OH220981   5.529   0.275   3.727
 7006TIP3    H120982   5.460   0.209   3.731
 7006TIP3    H220983   5.484   0.358   3.740
 7007TIP3   OH220984   2.722   4.081   2.252
 7007TIP3    H120985   2.692   3.991   2.263
 7007TIP3    H220986   2.798   4.074   2.194
 7008TIP3   OH220987   6.552   2.247   4.331
 7008TIP3    H120988   6.505   2.209   4.405
 7008TIP3    H220989   6.645   2.236   4.352
 7009TIP3   OH220990   1.357   3.749   4.865
 7009TIP3    H120991   1.322   3.700   4.790
 7009TIP3    H220992   1.446   3.714   4.877
 7010TIP3   OH220993   2.459   2.624   4.842
 7010TIP3    H120994   2.497   2.681   4.909
 7010TIP3    H220995   2.424   2.685   4.776
 7011TIP3   OH220996   5.797   5.415   4.022
 7011TIP3    H120997   5.828   5.467   3.948
 7011TIP3    H220998   5.865   5.425   4.089
 7012TIP3   OH220999   3.360   0.050   4.804
 7012TIP3    H121000   3.402   0.135   4.818
 7012TIP3    H221001   3.267   0.066   4.819
 7013TIP3   OH221002   3.820   4.280   2.539
 7013TIP3    H121003   3.854   4.342   2.474
 7013TIP3    H221004   3.886   4.278   2.607
 7014TIP3   OH221005   4.329   1.494   2.853
 7014TIP3    H121006   4.365   1.407   2.869
 7014TIP3    H221007   4.287   1.487   2.767
 7015TIP3   OH221008   1.077   5.416   2.626
 7015TIP3    H121009   1.027   5.363   2.689
 7015TIP3    H221010   1.011   5.471   2.584
 7016TIP3   OH221011   6.164   2.857   3.734
 7016TIP3    H121012   6.243   2.908   3.752
 7016TIP3    H221013   6.162   2.791   3.803
 7017TIP3   OH221014   4.927   0.353   2.998
 7017TIP3    H121015   4.941   0.395   3.083
 7017TIP3    H221016   4.936   0.259   3.016
 7018TIP3   OH221017   6.441   5.353   1.783
 7018TIP3    H121018   6.413   5.363   1.692
 7018TIP3    H221019   6.436   5.259   1.800
 7019TIP3   OH221020   0.270   3.929   1.165
 7019TIP3    H121021   0.255   4.002   1.224
 7019TIP3    H221022   0.214   3.947   1.089
 7020TIP3   OH221023   6.689   6.139   3.348
 7020TIP3    H121024   6.639   6.220   3.341
 7020TIP3    H221025   6.700   6.125   3.442
 7021TIP3   OH221026   4.221   1.485   1.127
 7021TIP3    H121027   4.286   1.425   1.090
 7021TIP3    H221028   4.258   1.572   1.113
 7022TIP3   OH221029   3.731   6.461   1.138
 7022TIP3    H121030   3.744   6.525   1.068
 7022TIP3    H221031   3.751   6.508   1.218
 7023TIP3   OH221032   7.115   1.886   3.708
 7023TIP3    H121033   7.157   1.947   3.769
 7023TIP3    H221034   7.022   1.908   3.712
 7024TIP3   OH221035   2.173   0.818   1.176
 7024TIP3    H121036   2.079   0.804   1.160
 7024TIP3    H221037   2.191   0.769   1.256
 7025TIP3   OH221038   5.160   0.767   2.507
 7025TIP3    H121039   5.105   0.714   2.451
 7025TIP3    H221040   5.133   0.858   2.489
 7026TIP3   OH221041   5.765   0.581   1.909
 7026TIP3    H121042   5.680   0.623   1.918
 7026TIP3    H221043   5.828   0.650   1.932
 7027TIP3   OH221044   5.259   0.441   3.911
 7027TIP3    H121045   5.241   0.525   3.953
 7027TIP3    H221046   5.268   0.461   3.818
 7028TIP3   OH221047   0.521   2.362   5.369
 7028TIP3    H121048   0.573   2.320   5.301
 7028TIP3    H221049   0.565   2.446   5.384
 7029TIP3   OH221050   3.366   2.052   1.051
 7029TIP3    H121051   3.382   2.141   1.084
 7029TIP3    H221052   3.334   2.004   1.127
 7030TIP3   OH221053   5.646   4.714   2.278
 7030TIP3    H121054   5.672   4.654   2.348
 7030TIP3    H221055   5.571   4.672   2.236
 7031TIP3   OH221056   3.506   1.442   0.883
 7031TIP3    H121057   3.434   1.417   0.940
 7031TIP3    H221058   3.497   1.386   0.805
 7032TIP3   OH221059   6.473   0.045   1.771
 7032TIP3    H121060   6.481  -0.007   1.691
 7032TIP3    H221061   6.564   0.060   1.798
 7033TIP3   OH221062   2.935   4.301   2.525
 7033TIP3    H121063   2.927   4.387   2.566
 7033TIP3    H221064   2.864   4.297   2.461
 7034TIP3   OH221065   5.924   0.227   4.129
 7034TIP3    H121066   5.832   0.235   4.156
 7034TIP3    H221067   5.929   0.140   4.088
 7035TIP3   OH221068   1.248   0.451   4.576
 7035TIP3    H121069   1.329   0.414   4.540
 7035TIP3    H221070   1.269   0.468   4.668
 7036TIP3   OH221071   5.442   1.853   0.077
 7036TIP3    H121072   5.487   1.788   0.131
 7036TIP3    H221073   5.513   1.906   0.041
 7037TIP3   OH221074   6.666   3.579   1.189
 7037TIP3    H121075   6.698   3.660   1.150
 7037TIP3    H221076   6.698   3.582   1.280
 7038TIP3   OH221077   0.132   5.447   0.951
 7038TIP3    H121078   0.105   5.503   0.878
 7038TIP3    H221079   0.202   5.393   0.916
 7039TIP3   OH221080   3.036   6.441   1.780
 7039TIP3    H121081   2.988   6.397   1.710
 7039TIP3    H221082   3.126   6.447   1.747
 7040TIP3   OH221083   3.938   3.922   4.148
 7040TIP3    H121084   3.848   3.953   4.138
 7040TIP3    H221085   3.946   3.902   4.241
 7041TIP3   OH221086   6.066   0.889   4.082
 7041TIP3    H121087   6.079   0.981   4.105
 7041TIP3    H221088   6.038   0.890   3.991
 7042TIP3   OH221089   6.175   0.880   1.973
 7042TIP3    H121090   6.251   0.831   2.005
 7042TIP3    H221091   6.186   0.882   1.878
 7043TIP3   OH221092   2.963   2.628   1.505
 7043TIP3    H121093   2.954   2.569   1.430
 7043TIP3    H221094   2.944   2.573   1.581
 7044TIP3   OH221095   6.642   4.151   4.310
 7044TIP3    H121096   6.563   4.099   4.295
 7044TIP3    H221097   6.618   4.211   4.381
 7045TIP3   OH221098   4.775   3.465   1.057
 7045TIP3    H121099   4.705   3.402   1.067
 7045TIP3    H221100   4.733   3.543   1.020
 7046TIP3   OH221101   5.888   1.224   3.850
 7046TIP3    H121102   5.967   1.189   3.809
 7046TIP3    H221103   5.921   1.277   3.923
 7047TIP3   OH221104   6.692   3.037   4.017
 7047TIP3    H121105   6.732   3.114   4.056
 7047TIP3    H221106   6.608   3.069   3.982
 7048TIP3   OH221107   0.592   1.696   3.469
 7048TIP3    H121108   0.631   1.611   3.448
 7048TIP3    H221109   0.529   1.711   3.398
 7049TIP3   OH221110   2.780   4.460   3.900
 7049TIP3    H121111   2.817   4.548   3.892
 7049TIP3    H221112   2.694   4.474   3.941
 7050TIP3   OH221113   6.605   1.517   4.482
 7050TIP3    H121114   6.624   1.433   4.523
 7050TIP3    H221115   6.510   1.517   4.470
 7051TIP3   OH221116   1.259   2.636   0.871
 7051TIP3    H121117   1.237   2.553   0.828
 7051TIP3    H221118   1.344   2.660   0.834
 7052TIP3   OH221119   4.132   0.974   3.778
 7052TIP3    H121120   4.208   1.000   3.829
 7052TIP3    H221121   4.057   1.005   3.829
 7053TIP3   OH221122   0.962   1.105   1.880
 7053TIP3    H121123   0.902   1.033   1.900
 7053TIP3    H221124   0.964   1.109   1.784
 7054TIP3   OH221125   6.764   1.003   4.957
 7054TIP3    H121126   6.831   1.057   4.999
 7054TIP3    H221127   6.804   0.974   4.875
 7055TIP3   OH221128   0.759   3.382   0.791
 7055TIP3    H121129   0.853   3.385   0.773
 7055TIP3    H221130   0.719   3.358   0.708
 7056TIP3   OH221131   3.373   5.484   5.192
 7056TIP3    H121132   3.400   5.392   5.201
 7056TIP3    H221133   3.409   5.511   5.107
 7057TIP3   OH221134   4.211   6.422   2.415
 7057TIP3    H121135   4.286   6.367   2.391
 7057TIP3    H221136   4.146   6.404   2.348
 7058TIP3   OH221137   6.419   0.384   2.576
 7058TIP3    H121138   6.411   0.479   2.579
 7058TIP3    H221139   6.508   0.367   2.607
 7059TIP3   OH221140   4.908   1.465   5.066
 7059TIP3    H121141   4.898   1.369   5.067
 7059TIP3    H221142   4.989   1.479   5.016
 7060TIP3   OH221143   4.988   5.290   0.371
 7060TIP3    H121144   4.908   5.238   0.373
 7060TIP3    H221145   4.974   5.353   0.300
 7061TIP3   OH221146   1.297   4.481   0.627
 7061TIP3    H121147   1.296   4.519   0.539
 7061TIP3    H221148   1.298   4.557   0.686
 7062TIP3   OH221149   6.632   1.631   1.717
 7062TIP3    H121150   6.545   1.636   1.676
 7062TIP3    H221151   6.692   1.658   1.648
 7063TIP3   OH221152   0.774   4.456   0.532
 7063TIP3    H121153   0.763   4.443   0.438
 7063TIP3    H221154   0.838   4.389   0.557
 7064TIP3   OH221155   4.393   5.954   2.622
 7064TIP3    H121156   4.389   5.925   2.713
 7064TIP3    H221157   4.338   6.033   2.620
 7065TIP3   OH221158   3.479   4.185   0.729
 7065TIP3    H121159   3.564   4.178   0.774
 7065TIP3    H221160   3.494   4.250   0.660
 7066TIP3   OH221161   1.873   2.558   0.007
 7066TIP3    H121162   1.946   2.585  -0.048
 7066TIP3    H221163   1.800   2.616  -0.019
 7067TIP3   OH221164   4.290   1.151   1.547
 7067TIP3    H121165   4.237   1.191   1.616
 7067TIP3    H221166   4.235   1.153   1.469
 7068TIP3   OH221167   7.151   4.762   0.555
 7068TIP3    H121168   7.134   4.681   0.603
 7068TIP3    H221169   7.219   4.739   0.492
 7069TIP3   OH221170   2.562   5.643   4.256
 7069TIP3    H121171   2.566   5.679   4.344
 7069TIP3    H221172   2.644   5.670   4.214
 7070TIP3   OH221173   6.110   0.143   3.759
 7070TIP3    H121174   6.065   0.084   3.820
 7070TIP3    H221175   6.063   0.133   3.677
 7071TIP3   OH221176   2.921   6.714   0.519
 7071TIP3    H121177   2.833   6.748   0.536
 7071TIP3    H221178   2.977   6.792   0.515
 7072TIP3   OH221179   4.394   3.348   1.080
 7072TIP3    H121180   4.401   3.425   1.137
 7072TIP3    H221181   4.329   3.292   1.123
 7073TIP3   OH221182   6.625   0.618   4.038
 7073TIP3    H121183   6.721   0.613   4.034
 7073TIP3    H221184   6.601   0.660   3.955
 7074TIP3   OH221185   1.540   1.079   4.907
 7074TIP3    H121186   1.523   1.169   4.880
 7074TIP3    H221187   1.455   1.045   4.934
 7075TIP3   OH221188   0.533   5.055   3.271
 7075TIP3    H121189   0.628   5.050   3.265
 7075TIP3    H221190   0.501   5.001   3.199
 7076TIP3   OH221191   1.557   1.836   4.056
 7076TIP3    H121192   1.572   1.768   4.122
 7076TIP3    H221193   1.466   1.861   4.067
 7077TIP3   OH221194   1.372   5.868   5.639
 7077TIP3    H121195   1.463   5.838   5.629
 7077TIP3    H221196   1.379   5.958   5.670
 7078TIP3   OH221197   6.199   6.440   0.745
 7078TIP3    H121198   6.178   6.403   0.831
 7078TIP3    H221199   6.205   6.535   0.761
 7079TIP3   OH221200   3.933   3.740   4.685
 7079TIP3    H121201   3.885   3.668   4.725
 7079TIP3    H221202   3.995   3.698   4.625
 7080TIP3   OH221203   4.744   0.210   3.885
 7080TIP3    H121204   4.762   0.142   3.951
 7080TIP3    H221205   4.831   0.233   3.851
 7081TIP3   OH221206   7.163   3.885   5.642
 7081TIP3    H121207   7.121   3.948   5.700
 7081TIP3    H221208   7.237   3.934   5.605
 7082TIP3   OH221209   1.071   5.967   5.449
 7082TIP3    H121210   1.164   5.985   5.435
 7082TIP3    H221211   1.032   5.971   5.362
 7083TIP3   OH221212   3.556   3.443   4.535
 7083TIP3    H121213   3.553   3.381   4.461
 7083TIP3    H221214   3.466   3.445   4.568
 7084TIP3   OH221215   4.525   3.155   1.543
 7084TIP3    H121216   4.443   3.198   1.519
 7084TIP3    H221217   4.507   3.061   1.531
 7085TIP3   OH221218   4.189   2.756   4.410
 7085TIP3    H121219   4.206   2.674   4.364
 7085TIP3    H221220   4.105   2.786   4.376
 7086TIP3   OH221221   3.000   0.819   5.293
 7086TIP3    H121222   3.094   0.804   5.283
 7086TIP3    H221223   2.962   0.784   5.213
 7087TIP3   OH221224   5.114   3.769   2.814
 7087TIP3    H121225   5.065   3.772   2.896
 7087TIP3    H221226   5.137   3.860   2.796
 7088TIP3   OH221227   2.001   1.388   2.630
 7088TIP3    H121228   1.989   1.321   2.697
 7088TIP3    H221229   2.057   1.454   2.671
 7089TIP3   OH221230   0.783   5.014   4.667
 7089TIP3    H121231   0.792   4.965   4.585
 7089TIP3    H221232   0.694   5.048   4.665
 7090TIP3   OH221233   4.977   0.503   4.193
 7090TIP3    H121234   4.892   0.479   4.158
 7090TIP3    H221235   4.978   0.467   4.282
 7091TIP3   OH221236   3.045   0.124   1.691
 7091TIP3    H121237   2.963   0.163   1.723
 7091TIP3    H221238   3.021   0.080   1.610
 7092TIP3   OH221239   1.338   2.102   0.747
 7092TIP3    H121240   1.294   2.039   0.690
 7092TIP3    H221241   1.283   2.106   0.825
 7093TIP3   OH221242   2.885   3.357   1.921
 7093TIP3    H121243   2.835   3.404   1.988
 7093TIP3    H221244   2.823   3.340   1.851
 7094TIP3   OH221245   5.484   3.050   2.725
 7094TIP3    H121246   5.546   2.993   2.680
 7094TIP3    H221247   5.539   3.117   2.766
 7095TIP3   OH221248   5.386   0.089   2.731
 7095TIP3    H121249   5.372   0.163   2.790
 7095TIP3    H221250   5.301   0.044   2.729
 7096TIP3   OH221251   5.584   3.319   3.195
 7096TIP3    H121252   5.596   3.243   3.138
 7096TIP3    H221253   5.556   3.389   3.137
 7097TIP3   OH221254   6.076   5.381   5.322
 7097TIP3    H121255   6.108   5.392   5.411
 7097TIP3    H221256   6.134   5.434   5.268
 7098TIP3   OH221257   6.813   3.461   5.250
 7098TIP3    H121258   6.730   3.428   5.215
 7098TIP3    H221259   6.789   3.535   5.305
 7099TIP3   OH221260   1.865   2.876   2.992
 7099TIP3    H121261   1.834   2.882   3.083
 7099TIP3    H221262   1.802   2.818   2.950
 7100TIP3   OH221263   1.396   2.010   5.927
 7100TIP3    H121264   1.463   2.012   5.995
 7100TIP3    H221265   1.412   2.089   5.875
 7101TIP3   OH221266   0.770   0.182   0.552
 7101TIP3    H121267   0.698   0.154   0.496
 7101TIP3    H221268   0.755   0.136   0.635
 7102TIP3   OH221269   6.757  -0.014   2.158
 7102TIP3    H121270   6.678  -0.041   2.206
 7102TIP3    H221271   6.826  -0.014   2.224
 7103TIP3   OH221272   0.335   5.801   3.582
 7103TIP3    H121273   0.275   5.748   3.634
 7103TIP3    H221274   0.305   5.790   3.491
 7104TIP3   OH221275   6.541   5.541   2.860
 7104TIP3    H121276   6.556   5.632   2.833
 7104TIP3    H221277   6.498   5.549   2.946
 7105TIP3   OH221278   4.152   2.234   1.864
 7105TIP3    H121279   4.237   2.193   1.849
 7105TIP3    H221280   4.170   2.328   1.861
 7106TIP3   OH221281   4.378   4.025   0.462
 7106TIP3    H121282   4.337   3.976   0.391
 7106TIP3    H221283   4.315   4.019   0.534
 7107TIP3   OH221284   0.474   3.662   2.617
 7107TIP3    H121285   0.539   3.613   2.567
 7107TIP3    H221286   0.437   3.724   2.553
 7108TIP3   OH221287   1.546   0.055   2.453
 7108TIP3    H121288   1.630   0.102   2.449
 7108TIP3    H221289   1.525   0.052   2.546
 7109TIP3   OH221290   0.337   5.188   5.032
 7109TIP3    H121291   0.292   5.206   5.115
 7109TIP3    H221292   0.299   5.250   4.970
 7110TIP3   OH221293   4.284   4.079   0.981
 7110TIP3    H121294   4.263   4.089   0.888
 7110TIP3    H221295   4.313   3.989   0.990
 7111TIP3   OH221296   2.698   0.882   0.263
 7111TIP3    H121297   2.736   0.822   0.328
 7111TIP3    H221298   2.606   0.887   0.286
 7112TIP3   OH221299   4.975   5.294   2.134
 7112TIP3    H121300   5.047   5.331   2.083
 7112TIP3    H221301   5.015   5.265   2.216
 7113TIP3   OH221302   1.274   5.018   4.233
 7113TIP3    H121303   1.312   5.095   4.191
 7113TIP3    H221304   1.349   4.960   4.248
 7114TIP3   OH221305   0.300   4.608   2.525
 7114TIP3    H121306   0.233   4.644   2.582
 7114TIP3    H221307   0.282   4.648   2.439
 7115TIP3   OH221308   0.405  -0.008   0.091
 7115TIP3    H121309   0.407  -0.039   0.181
 7115TIP3    H221310   0.345  -0.068   0.046
 7116TIP3   OH221311   1.546   6.170   5.896
 7116TIP3    H121312   1.561   6.078   5.914
 7116TIP3    H221313   1.487   6.171   5.821
 7117TIP3   OH221314   0.003   3.763   4.010
 7117TIP3    H121315   0.078   3.753   4.070
 7117TIP3    H221316   0.043   3.778   3.924
 7118TIP3   OH221317   4.427   2.144   4.054
 7118TIP3    H121318   4.418   2.217   3.993
 7118TIP3    H221319   4.432   2.066   3.997
 7119TIP3   OH221320   2.500   0.610   4.873
 7119TIP3    H121321   2.539   0.696   4.890
 7119TIP3    H221322   2.544   0.551   4.935
 7120TIP3   OH221323   2.163   3.155   1.831
 7120TIP3    H121324   2.117   3.136   1.749
 7120TIP3    H221325   2.170   3.250   1.833
 7121TIP3   OH221326   5.394   4.023   2.201
 7121TIP3    H121327   5.343   4.077   2.261
 7121TIP3    H221328   5.415   3.944   2.251
 7122TIP3   OH221329   6.187   4.805   3.929
 7122TIP3    H121330   6.210   4.848   4.012
 7122TIP3    H221331   6.218   4.715   3.940
 7123TIP3   OH221332   4.865   4.461   4.597
 7123TIP3    H121333   4.838   4.502   4.679
 7123TIP3    H221334   4.867   4.367   4.617
 7124TIP3   OH221335   5.000   0.329   4.414
 7124TIP3    H121336   5.067   0.373   4.466
 7124TIP3    H221337   4.959   0.267   4.474
 7125TIP3   OH221338   1.912   3.010   0.109
 7125TIP3    H121339   1.827   2.967   0.100
 7125TIP3    H221340   1.891   3.104   0.108
 7126TIP3   OH221341   7.068   2.288   0.057
 7126TIP3    H121342   7.087   2.371   0.014
 7126TIP3    H221343   7.150   2.262   0.098
 7127TIP3   OH221344   2.303   6.264   1.078
 7127TIP3    H121345   2.380   6.302   1.121
 7127TIP3    H221346   2.229   6.297   1.129
 7128TIP3   OH221347   5.937   0.701   4.769
 7128TIP3    H121348   5.922   0.792   4.745
 7128TIP3    H221349   5.973   0.704   4.858
 7129TIP3   OH221350   2.995   0.827   1.331
 7129TIP3    H121351   3.084   0.816   1.365
 7129TIP3    H221352   2.940   0.775   1.389
 7130TIP3   OH221353   1.373   4.824   0.258
 7130TIP3    H121354   1.290   4.819   0.211
 7130TIP3    H221355   1.439   4.841   0.191
 7131TIP3   OH221356   4.624   1.142   1.196
 7131TIP3    H121357   4.687   1.112   1.131
 7131TIP3    H221358   4.668   1.129   1.280
 7132TIP3   OH221359   4.753   5.376   2.358
 7132TIP3    H121360   4.839   5.414   2.376
 7132TIP3    H221361   4.726   5.418   2.276
 7133TIP3   OH221362   0.735   6.411   0.039
 7133TIP3    H121363   0.665   6.403   0.105
 7133TIP3    H221364   0.792   6.480   0.074
 7134TIP3   OH221365   0.918   3.668   0.738
 7134TIP3    H121366   0.833   3.649   0.698
 7134TIP3    H221367   0.896   3.706   0.824
 7135TIP3   OH221368   4.175   4.259   1.765
 7135TIP3    H121369   4.213   4.306   1.839
 7135TIP3    H221370   4.211   4.170   1.772
 7136TIP3   OH221371   2.152   1.036   2.197
 7136TIP3    H121372   2.097   1.052   2.274
 7136TIP3    H221373   2.121   1.098   2.132
 7137TIP3   OH221374   1.255   6.313   4.662
 7137TIP3    H121375   1.305   6.373   4.718
 7137TIP3    H221376   1.178   6.290   4.715
 7138TIP3   OH221377   3.650   2.277   2.028
 7138TIP3    H121378   3.657   2.240   1.940
 7138TIP3    H221379   3.739   2.271   2.063
 7139TIP3   OH221380   0.537   3.646   0.084
 7139TIP3    H121381   0.586   3.717   0.043
 7139TIP3    H221382   0.527   3.581   0.015
 7140TIP3   OH221383   4.637   0.719   2.971
 7140TIP3    H121384   4.626   0.638   3.022
 7140TIP3    H221385   4.645   0.787   3.037
 7141TIP3   OH221386   2.219   5.315   4.351
 7141TIP3    H121387   2.280   5.353   4.288
 7141TIP3    H221388   2.214   5.380   4.422
 7142TIP3   OH221389   6.975   4.310   4.580
 7142TIP3    H121390   6.954   4.294   4.488
 7142TIP3    H221391   7.036   4.384   4.578
 7143TIP3   OH221392   3.276   0.254   1.466
 7143TIP3    H121393   3.270   0.165   1.499
 7143TIP3    H221394   3.263   0.246   1.371
 7144TIP3   OH221395   3.343   2.877   3.465
 7144TIP3    H121396   3.414   2.813   3.475
 7144TIP3    H221397   3.386   2.955   3.429
 7145TIP3   OH221398   2.874   5.549   3.461
 7145TIP3    H121399   2.886   5.456   3.481
 7145TIP3    H221400   2.877   5.554   3.365
 7146TIP3   OH221401   4.685   2.116   4.421
 7146TIP3    H121402   4.728   2.055   4.361
 7146TIP3    H221403   4.599   2.132   4.382
 7147TIP3   OH221404   4.951   2.870   1.113
 7147TIP3    H121405   4.937   2.937   1.046
 7147TIP3    H221406   4.884   2.888   1.179
 7148TIP3   OH221407   6.174   0.525   0.867
 7148TIP3    H121408   6.188   0.580   0.790
 7148TIP3    H221409   6.236   0.453   0.855
 7149TIP3   OH221410   4.690   1.247   0.285
 7149TIP3    H121411   4.752   1.236   0.357
 7149TIP3    H221412   4.652   1.161   0.271
 7150TIP3   OH221413   1.085   6.121   3.725
 7150TIP3    H121414   1.061   6.212   3.705
 7150TIP3    H221415   1.041   6.069   3.657
 7151TIP3   OH221416   6.274   1.028   0.673
 7151TIP3    H121417   6.353   1.047   0.723
 7151TIP3    H221418   6.227   0.963   0.725
 7152TIP3   OH221419   2.314   3.961   0.393
 7152TIP3    H121420   2.227   3.922   0.385
 7152TIP3    H221421   2.366   3.894   0.438
 7153TIP3   OH221422   5.909   1.720   3.306
 7153TIP3    H121423   5.985   1.761   3.348
 7153TIP3    H221424   5.896   1.639   3.354
 7154TIP3   OH221425   4.717   3.131   3.572
 7154TIP3    H121426   4.664   3.096   3.644
 7154TIP3    H221427   4.731   3.056   3.514
 7155TIP3   OH221428   2.947   3.142   3.647
 7155TIP3    H121429   2.894   3.221   3.658
 7155TIP3    H221430   2.954   3.106   3.736
 7156TIP3   OH221431   1.078   1.349   5.784
 7156TIP3    H121432   1.003   1.291   5.795
 7156TIP3    H221433   1.067   1.415   5.852
 7157TIP3   OH221434   1.840   3.764   1.310
 7157TIP3    H121435   1.756   3.724   1.286
 7157TIP3    H221436   1.885   3.775   1.226
 7158TIP3   OH221437   5.899   5.676   1.854
 7158TIP3    H121438   5.989   5.708   1.843
 7158TIP3    H221439   5.890   5.663   1.949
 7159TIP3   OH221440   6.209   4.851   1.828
 7159TIP3    H121441   6.256   4.810   1.901
 7159TIP3    H221442   6.118   4.824   1.840
 7160TIP3   OH221443   5.356   6.472   1.642
 7160TIP3    H121444   5.446   6.504   1.633
 7160TIP3    H221445   5.345   6.459   1.736
 7161TIP3   OH221446   0.809   4.929   1.021
 7161TIP3    H121447   0.800   4.999   1.086
 7161TIP3    H221448   0.748   4.861   1.049
 7162TIP3   OH221449   0.786   1.592   5.756
 7162TIP3    H121450   0.778   1.508   5.711
 7162TIP3    H221451   0.710   1.642   5.726
 7163TIP3   OH221452   4.449   2.032   1.058
 7163TIP3    H121453   4.457   2.017   0.964
 7163TIP3    H221454   4.524   1.987   1.097
 7164TIP3   OH221455   6.283   2.989   0.891
 7164TIP3    H121456   6.211   2.974   0.829
 7164TIP3    H221457   6.303   2.901   0.924
 7165TIP3   OH221458   2.278   3.598   0.302
 7165TIP3    H121459   2.353   3.653   0.280
 7165TIP3    H221460   2.316   3.525   0.351
 7166TIP3   OH221461   2.382   5.081   2.403
 7166TIP3    H121462   2.435   5.161   2.396
 7166TIP3    H221463   2.308   5.097   2.344
 7167TIP3   OH221464   3.327   5.911   3.297
 7167TIP3    H121465   3.329   5.860   3.216
 7167TIP3    H221466   3.235   5.935   3.308
 7168TIP3   OH221467   6.743   6.045   0.149
 7168TIP3    H121468   6.722   6.042   0.055
 7168TIP3    H221469   6.693   6.120   0.182
 7169TIP3   OH221470   5.656   2.825   2.674
 7169TIP3    H121471   5.744   2.824   2.711
 7169TIP3    H221472   5.601   2.787   2.742
 7170TIP3   OH221473   5.961   3.477   1.103
 7170TIP3    H121474   5.959   3.522   1.019
 7170TIP3    H221475   5.991   3.388   1.082
 7171TIP3   OH221476   0.603   2.117   2.469
 7171TIP3    H121477   0.593   2.041   2.527
 7171TIP3    H221478   0.657   2.085   2.397
 7172TIP3   OH221479   0.205   2.429   3.011
 7172TIP3    H121480   0.264   2.484   2.960
 7172TIP3    H221481   0.235   2.439   3.101
 7173TIP3   OH221482   1.025   0.592   4.492
 7173TIP3    H121483   1.080   0.522   4.527
 7173TIP3    H221484   1.068   0.618   4.410
 7174TIP3   OH221485   4.703   2.785   5.383
 7174TIP3    H121486   4.614   2.772   5.416
 7174TIP3    H221487   4.758   2.728   5.436
 7175TIP3   OH221488   4.805   0.482   2.610
 7175TIP3    H121489   4.841   0.406   2.564
 7175TIP3    H221490   4.717   0.456   2.635
 7176TIP3   OH221491   0.762   4.240   4.727
 7176TIP3    H121492   0.774   4.276   4.639
 7176TIP3    H221493   0.823   4.167   4.732
 7177TIP3   OH221494   4.746   3.189   0.586
 7177TIP3    H121495   4.766   3.267   0.637
 7177TIP3    H221496   4.815   3.127   0.609
 7178TIP3   OH221497   4.873   5.166   4.201
 7178TIP3    H121498   4.967   5.159   4.182
 7178TIP3    H221499   4.868   5.165   4.297
 7179TIP3   OH221500   5.709   5.853   2.928
 7179TIP3    H121501   5.625   5.815   2.953
 7179TIP3    H221502   5.705   5.944   2.959
 7180TIP3   OH221503   4.076   5.516   5.618
 7180TIP3    H121504   4.046   5.607   5.621
 7180TIP3    H221505   4.131   5.506   5.696
 7181TIP3   OH221506   2.358   0.505   1.109
 7181TIP3    H121507   2.440   0.455   1.103
 7181TIP3    H221508   2.384   0.588   1.149
 7182TIP3   OH221509   0.784   5.472   5.913
 7182TIP3    H121510   0.776   5.502   5.823
 7182TIP3    H221511   0.798   5.551   5.964
 7183TIP3   OH221512   0.578   0.679   5.835
 7183TIP3    H121513   0.642   0.650   5.770
 7183TIP3    H221514   0.495   0.641   5.805
 7184TIP3   OH221515   4.897   6.748   1.802
 7184TIP3    H121516   4.838   6.701   1.861
 7184TIP3    H221517   4.843   6.772   1.727
 7185TIP3   OH221518   5.809   4.544   3.108
 7185TIP3    H121519   5.771   4.624   3.146
 7185TIP3    H221520   5.825   4.487   3.183
 7186TIP3   OH221521   2.606   5.896   3.911
 7186TIP3    H121522   2.625   5.985   3.882
 7186TIP3    H221523   2.668   5.841   3.862
 7187TIP3   OH221524   2.891   3.881   2.074
 7187TIP3    H121525   2.866   3.857   1.985
 7187TIP3    H221526   2.909   3.975   2.070
 7188TIP3   OH221527   1.524   3.612   1.833
 7188TIP3    H121528   1.616   3.624   1.806
 7188TIP3    H221529   1.526   3.613   1.928
 7189TIP3   OH221530   5.341   6.305   0.767
 7189TIP3    H121531   5.259   6.342   0.801
 7189TIP3    H221532   5.410   6.352   0.814
 7190TIP3   OH221533   1.629   1.681   5.006
 7190TIP3    H121534   1.597   1.670   5.095
 7190TIP3    H221535   1.723   1.700   5.017
 7191TIP3   OH221536   2.180   0.880   4.106
 7191TIP3    H121537   2.158   0.949   4.169
 7191TIP3    H221538   2.171   0.798   4.156
 7192TIP3   OH221539   1.383   4.167   0.422
 7192TIP3    H121540   1.313   4.101   0.417
 7192TIP3    H221541   1.409   4.167   0.514
 7193TIP3   OH221542   1.619   4.970   2.121
 7193TIP3    H121543   1.661   4.919   2.052
 7193TIP3    H221544   1.612   4.910   2.195
 7194TIP3   OH221545   7.018   3.260   4.742
 7194TIP3    H121546   6.943   3.209   4.713
 7194TIP3    H221547   6.980   3.335   4.787
 7195TIP3   OH221548   6.362   2.365   0.844
 7195TIP3    H121549   6.369   2.279   0.802
 7195TIP3    H221550   6.277   2.399   0.815
 7196TIP3   OH221551   2.044   3.438   0.741
 7196TIP3    H121552   1.977   3.505   0.750
 7196TIP3    H221553   2.126   3.487   0.736
 7197TIP3   OH221554   1.275   0.205   1.363
 7197TIP3    H121555   1.280   0.191   1.457
 7197TIP3    H221556   1.366   0.222   1.337
 7198TIP3   OH221557   4.664   2.286   5.473
 7198TIP3    H121558   4.580   2.286   5.428
 7198TIP3    H221559   4.725   2.327   5.412
 7199TIP3   OH221560   6.791   0.836   1.095
 7199TIP3    H121561   6.768   0.754   1.052
 7199TIP3    H221562   6.765   0.823   1.186
 7200TIP3   OH221563   4.282   5.560   2.937
 7200TIP3    H121564   4.276   5.626   3.006
 7200TIP3    H221565   4.268   5.477   2.982
 7201TIP3   OH221566   2.337   2.857   4.474
 7201TIP3    H121567   2.246   2.848   4.505
 7201TIP3    H221568   2.390   2.818   4.544
 7202TIP3   OH221569   0.288   6.015   0.203
 7202TIP3    H121570   0.210   6.045   0.157
 7202TIP3    H221571   0.284   6.057   0.289
 7203TIP3   OH221572   1.951   2.170   1.564
 7203TIP3    H121573   1.888   2.104   1.594
 7203TIP3    H221574   1.947   2.240   1.629
 7204TIP3   OH221575   2.608   6.571   3.265
 7204TIP3    H121576   2.689   6.590   3.218
 7204TIP3    H221577   2.630   6.587   3.357
 7205TIP3   OH221578   3.261   2.107   2.987
 7205TIP3    H121579   3.339   2.105   2.931
 7205TIP3    H221580   3.219   2.190   2.966
 7206TIP3   OH221581   4.219   4.988   2.328
 7206TIP3    H121582   4.206   4.916   2.267
 7206TIP3    H221583   4.230   5.065   2.272
 7207TIP3   OH221584   2.939   5.695   1.501
 7207TIP3    H121585   2.983   5.751   1.437
 7207TIP3    H221586   2.938   5.746   1.581
 7208TIP3   OH221587   6.592   2.295   3.877
 7208TIP3    H121588   6.599   2.238   3.800
 7208TIP3    H221589   6.672   2.278   3.927
 7209TIP3   OH221590   5.501   6.605   0.353
 7209TIP3    H121591   5.579   6.644   0.314
 7209TIP3    H221592   5.512   6.617   0.447
 7210TIP3   OH221593   1.599   2.603   3.314
 7210TIP3    H121594   1.519   2.606   3.262
 7210TIP3    H221595   1.613   2.694   3.342
 7211TIP3   OH221596   5.930   2.573   0.511
 7211TIP3    H121597   5.857   2.582   0.450
 7211TIP3    H221598   5.915   2.489   0.554
 7212TIP3   OH221599   1.067   5.404   4.071
 7212TIP3    H121600   0.977   5.434   4.074
 7212TIP3    H221601   1.066   5.329   4.011
 7213TIP3   OH221602   1.873   2.051   0.859
 7213TIP3    H121603   1.785   2.052   0.821
 7213TIP3    H221604   1.906   2.140   0.845
 7214TIP3   OH221605   1.235   1.891   0.581
 7214TIP3    H121606   1.145   1.898   0.613
 7214TIP3    H221607   1.226   1.868   0.489
 7215TIP3   OH221608   1.060   3.567   2.914
 7215TIP3    H121609   1.026   3.594   2.999
 7215TIP3    H221610   1.094   3.648   2.876
 7216TIP3   OH221611   0.556   0.929   5.538
 7216TIP3    H121612   0.615   0.891   5.473
 7216TIP3    H221613   0.470   0.893   5.518
 7217TIP3   OH221614   0.916   6.110   4.297
 7217TIP3    H121615   0.854   6.125   4.226
 7217TIP3    H221616   0.932   6.015   4.295
 7218TIP3   OH221617   1.562   3.342   2.491
 7218TIP3    H121618   1.499   3.343   2.562
 7218TIP3    H221619   1.592   3.433   2.484
 7219TIP3   OH221620   3.835   4.416   3.279
 7219TIP3    H121621   3.744   4.393   3.297
 7219TIP3    H221622   3.831   4.500   3.234
 7220TIP3   OH221623   1.051   2.645   3.843
 7220TIP3    H121624   1.126   2.702   3.827
 7220TIP3    H221625   0.988   2.669   3.775
 7221TIP3   OH221626   6.574   5.862   3.682
 7221TIP3    H121627   6.662   5.845   3.648
 7221TIP3    H221628   6.525   5.783   3.661
 7222TIP3   OH221629   2.482   2.960   2.947
 7222TIP3    H121630   2.427   2.995   2.877
 7222TIP3    H221631   2.430   2.974   3.027
 7223TIP3   OH221632   0.699   0.368   3.680
 7223TIP3    H121633   0.788   0.333   3.681
 7223TIP3    H221634   0.644   0.295   3.650
 7224TIP3   OH221635   1.370   0.607   2.896
 7224TIP3    H121636   1.351   0.514   2.907
 7224TIP3    H221637   1.411   0.633   2.979
 7225TIP3   OH221638   2.130   2.623   4.520
 7225TIP3    H121639   2.145   2.586   4.433
 7225TIP3    H221640   2.098   2.549   4.572
 7226TIP3   OH221641   0.022   6.569   0.111
 7226TIP3    H121642  -0.035   6.557   0.035
 7226TIP3    H221643   0.002   6.656   0.143
 7227TIP3   OH221644   3.870   6.603   3.346
 7227TIP3    H121645   3.778   6.579   3.361
 7227TIP3    H221646   3.920   6.540   3.399
 7228TIP3   OH221647   1.143   4.305   3.467
 7228TIP3    H121648   1.228   4.281   3.504
 7228TIP3    H221649   1.125   4.391   3.505
 7229TIP3   OH221650   0.390   4.484   4.816
 7229TIP3    H121651   0.480   4.452   4.817
 7229TIP3    H221652   0.399   4.577   4.794
 7230TIP3   OH221653   5.088   3.186   1.175
 7230TIP3    H121654   5.039   3.164   1.096
 7230TIP3    H221655   5.069   3.278   1.190
 7231TIP3   OH221656   4.303   3.527   4.397
 7231TIP3    H121657   4.209   3.529   4.415
 7231TIP3    H221658   4.310   3.547   4.303
 7232TIP3   OH221659   7.127   0.446   5.684
 7232TIP3    H121660   7.207   0.395   5.697
 7232TIP3    H221661   7.089   0.455   5.771
 7233TIP3   OH221662   5.639   1.735   5.518
 7233TIP3    H121663   5.692   1.712   5.441
 7233TIP3    H221664   5.699   1.726   5.592
 7234TIP3   OH221665   6.726   3.282   3.787
 7234TIP3    H121666   6.782   3.213   3.753
 7234TIP3    H221667   6.740   3.356   3.728
 7235TIP3   OH221668   7.143   2.443   3.094
 7235TIP3    H121669   7.226   2.444   3.047
 7235TIP3    H221670   7.099   2.364   3.063
 7236TIP3   OH221671   4.966   6.194   1.296
 7236TIP3    H121672   4.877   6.224   1.279
 7236TIP3    H221673   4.956   6.127   1.364
 7237TIP3   OH221674   4.336   2.435   3.385
 7237TIP3    H121675   4.300   2.445   3.473
 7237TIP3    H221676   4.321   2.344   3.363
 7238TIP3   OH221677   3.859   0.666   3.394
 7238TIP3    H121678   3.932   0.622   3.438
 7238TIP3    H221679   3.811   0.596   3.350
 7239TIP3   OH221680   4.893   6.359   1.540
 7239TIP3    H121681   4.876   6.322   1.453
 7239TIP3    H221682   4.982   6.330   1.561
 7240TIP3   OH221683   4.946   3.374   5.771
 7240TIP3    H121684   4.956   3.329   5.687
 7240TIP3    H221685   4.852   3.372   5.788
 7241TIP3   OH221686   6.886   3.410   1.631
 7241TIP3    H121687   6.933   3.476   1.579
 7241TIP3    H221688   6.952   3.342   1.648
 7242TIP3   OH221689   4.492   3.131   5.390
 7242TIP3    H121690   4.564   3.092   5.439
 7242TIP3    H221691   4.510   3.225   5.391
 7243TIP3   OH221692   0.582   3.171   0.851
 7243TIP3    H121693   0.642   3.231   0.896
 7243TIP3    H221694   0.579   3.094   0.907
 7244TIP3   OH221695   2.640   3.224   5.848
 7244TIP3    H121696   2.667   3.206   5.758
 7244TIP3    H221697   2.661   3.144   5.896
 7245TIP3   OH221698   5.493   6.174   1.656
 7245TIP3    H121699   5.477   6.222   1.575
 7245TIP3    H221700   5.408   6.134   1.677
 7246TIP3   OH221701   2.145   3.028   5.369
 7246TIP3    H121702   2.095   3.087   5.313
 7246TIP3    H221703   2.084   2.958   5.390
 7247TIP3   OH221704   1.199   0.804   1.894
 7247TIP3    H121705   1.163   0.741   1.832
 7247TIP3    H221706   1.131   0.871   1.902
 7248TIP3   OH221707   2.308   4.144   0.178
 7248TIP3    H121708   2.212   4.150   0.187
 7248TIP3    H221709   2.336   4.096   0.256
 7249TIP3   OH221710   4.729   5.178   4.882
 7249TIP3    H121711   4.645   5.206   4.917
 7249TIP3    H221712   4.707   5.122   4.808
 7250TIP3   OH221713   2.314   4.868   4.225
 7250TIP3    H121714   2.363   4.948   4.243
 7250TIP3    H221715   2.334   4.847   4.134
 7251TIP3   OH221716   1.403   1.975   1.190
 7251TIP3    H121717   1.400   1.953   1.283
 7251TIP3    H221718   1.315   1.956   1.157
 7252TIP3   OH221719   3.676   3.652   0.014
 7252TIP3    H121720   3.699   3.672   0.105
 7252TIP3    H221721   3.652   3.736  -0.024
 7253TIP3   OH221722   0.542   5.983   5.812
 7253TIP3    H121723   0.600   6.000   5.737
 7253TIP3    H221724   0.467   5.938   5.774
 7254TIP3   OH221725   2.204   4.332   1.866
 7254TIP3    H121726   2.196   4.398   1.935
 7254TIP3    H221727   2.115   4.318   1.835
 7255TIP3   OH221728   6.132   4.036   0.810
 7255TIP3    H121729   6.127   4.127   0.837
 7255TIP3    H221730   6.063   3.992   0.860
 7256TIP3   OH221731   0.371   1.974   0.089
 7256TIP3    H121732   0.326   1.993   0.006
 7256TIP3    H221733   0.394   1.881   0.083
 7257TIP3   OH221734   0.826   4.096   5.578
 7257TIP3    H121735   0.916   4.092   5.609
 7257TIP3    H221736   0.776   4.130   5.653
 7258TIP3   OH221737   6.553   6.457   4.806
 7258TIP3    H121738   6.517   6.369   4.816
 7258TIP3    H221739   6.477   6.514   4.800
 7259TIP3   OH221740   3.781   6.410   1.747
 7259TIP3    H121741   3.776   6.505   1.759
 7259TIP3    H221742   3.790   6.376   1.836
 7260TIP3   OH221743   0.897   6.655   2.026
 7260TIP3    H121744   0.948   6.735   2.035
 7260TIP3    H221745   0.809   6.679   2.053
 7261TIP3   OH221746   3.014   4.510   3.208
 7261TIP3    H121747   3.012   4.531   3.115
 7261TIP3    H221748   3.080   4.441   3.216
 7262TIP3   OH221749   2.087   5.661   4.783
 7262TIP3    H121750   2.107   5.637   4.874
 7262TIP3    H221751   2.099   5.756   4.780
 7263TIP3   OH221752   2.563   3.989   1.981
 7263TIP3    H121753   2.521   4.042   1.914
 7263TIP3    H221754   2.537   4.030   2.064
 7264TIP3   OH221755   2.466   5.361   2.457
 7264TIP3    H121756   2.478   5.368   2.362
 7264TIP3    H221757   2.378   5.394   2.473
 7265TIP3   OH221758   0.029   3.409   1.661
 7265TIP3    H121759   0.106   3.406   1.719
 7265TIP3    H221760  -0.002   3.318   1.659
 7266TIP3   OH221761   0.507   5.630   1.193
 7266TIP3    H121762   0.592   5.653   1.156
 7266TIP3    H221763   0.522   5.624   1.287
 7267TIP3   OH221764   2.821   5.017   0.423
 7267TIP3    H121765   2.745   5.023   0.481
 7267TIP3    H221766   2.826   5.104   0.382
 7268TIP3   OH221767   2.878   1.210   5.307
 7268TIP3    H121768   2.950   1.160   5.344
 7268TIP3    H221769   2.817   1.222   5.380
 7269TIP3   OH221770   7.059   3.575   2.162
 7269TIP3    H121771   6.989   3.509   2.158
 7269TIP3    H221772   7.030   3.636   2.230
 7270TIP3   OH221773   2.895   2.650   2.215
 7270TIP3    H121774   2.911   2.716   2.147
 7270TIP3    H221775   2.970   2.592   2.211
 7271TIP3   OH221776   1.957   5.985   2.436
 7271TIP3    H121777   1.970   6.056   2.373
 7271TIP3    H221778   1.863   5.972   2.438
 7272TIP3   OH221779   4.141   0.921   4.729
 7272TIP3    H121780   4.165   0.829   4.719
 7272TIP3    H221781   4.129   0.953   4.639
 7273TIP3   OH221782   1.591   1.309   5.531
 7273TIP3    H121783   1.678   1.309   5.572
 7273TIP3    H221784   1.558   1.220   5.546
 7274TIP3   OH221785   3.359   4.835   4.142
 7274TIP3    H121786   3.407   4.798   4.068
 7274TIP3    H221787   3.423   4.889   4.188
 7275TIP3   OH221788   5.226   2.243   5.277
 7275TIP3    H121789   5.167   2.234   5.201
 7275TIP3    H221790   5.185   2.310   5.331
 7276TIP3   OH221791   5.869   3.695   0.692
 7276TIP3    H121792   5.845   3.622   0.635
 7276TIP3    H221793   5.878   3.770   0.633
 7277TIP3   OH221794   6.330   1.491   3.795
 7277TIP3    H121795   6.263   1.498   3.728
 7277TIP3    H221796   6.374   1.576   3.795
 7278TIP3   OH221797   5.068   1.846   0.930
 7278TIP3    H121798   4.996   1.784   0.918
 7278TIP3    H221799   5.129   1.800   0.988
 7279TIP3   OH221800   4.437   1.437   1.974
 7279TIP3    H121801   4.393   1.424   1.890
 7279TIP3    H221802   4.522   1.475   1.951
 7280TIP3   OH221803   5.823   6.624   1.059
 7280TIP3    H121804   5.865   6.556   1.112
 7280TIP3    H221805   5.808   6.696   1.121
 7281TIP3   OH221806   1.638   3.086   4.051
 7281TIP3    H121807   1.733   3.095   4.060
 7281TIP3    H221808   1.618   3.002   4.093
 7282TIP3   OH221809   6.502   0.900   0.508
 7282TIP3    H121810   6.455   0.973   0.549
 7282TIP3    H221811   6.436   0.856   0.455
 7283TIP3   OH221812   4.153   4.438   1.468
 7283TIP3    H121813   4.147   4.343   1.460
 7283TIP3    H221814   4.071   4.470   1.431
 7284TIP3   OH221815   1.318   3.051   2.468
 7284TIP3    H121816   1.383   2.983   2.452
 7284TIP3    H221817   1.325   3.109   2.392
 7285TIP3   OH221818   4.101   1.762   3.028
 7285TIP3    H121819   4.082   1.668   3.033
 7285TIP3    H221820   4.021   1.804   3.059
 7286TIP3   OH221821   3.569   6.235   1.115
 7286TIP3    H121822   3.486   6.280   1.097
 7286TIP3    H221823   3.628   6.304   1.145
 7287TIP3   OH221824   5.039   3.897   0.728
 7287TIP3    H121825   5.018   3.857   0.644
 7287TIP3    H221826   5.010   3.987   0.721
 7288TIP3   OH221827   5.330   2.969   1.798
 7288TIP3    H121828   5.304   2.877   1.810
 7288TIP3    H221829   5.342   3.002   1.887
 7289TIP3   OH221830   1.827   0.689   0.563
 7289TIP3    H121831   1.902   0.705   0.506
 7289TIP3    H221832   1.770   0.764   0.550
 7290TIP3   OH221833   5.419   6.156   2.727
 7290TIP3    H121834   5.392   6.073   2.766
 7290TIP3    H221835   5.466   6.202   2.797
 7291TIP3   OH221836   0.997   4.661   0.691
 7291TIP3    H121837   1.083   4.654   0.651
 7291TIP3    H221838   0.945   4.712   0.628
 7292TIP3   OH221839   2.476   0.647   0.215
 7292TIP3    H121840   2.405   0.590   0.244
 7292TIP3    H221841   2.497   0.701   0.292
 7293TIP3   OH221842   2.812   1.020   4.249
 7293TIP3    H121843   2.748   1.041   4.317
 7293TIP3    H221844   2.860   0.945   4.284
 7294TIP3   OH221845   1.923   3.784   5.355
 7294TIP3    H121846   1.837   3.743   5.369
 7294TIP3    H221847   1.978   3.749   5.425
 7295TIP3   OH221848   4.885   4.612   2.037
 7295TIP3    H121849   4.799   4.604   1.993
 7295TIP3    H221850   4.864   4.632   2.128
 7296TIP3   OH221851   2.828   1.118   0.295
 7296TIP3    H121852   2.921   1.105   0.274
 7296TIP3    H221853   2.787   1.034   0.276
 7297TIP3   OH221854   1.238   3.379   3.615
 7297TIP3    H121855   1.216   3.434   3.689
 7297TIP3    H221856   1.262   3.295   3.654
 7298TIP3   OH221857   2.416   6.612   1.399
 7298TIP3    H121858   2.464   6.668   1.460
 7298TIP3    H221859   2.338   6.662   1.376
 7299TIP3   OH221860   6.420   3.113   1.715
 7299TIP3    H121861   6.340   3.166   1.716
 7299TIP3    H221862   6.426   3.077   1.804
 7300TIP3   OH221863   5.604   5.859   4.388
 7300TIP3    H121864   5.646   5.943   4.373
 7300TIP3    H221865   5.662   5.814   4.450
 7301TIP3   OH221866   0.917   2.133   1.425
 7301TIP3    H121867   0.873   2.218   1.428
 7301TIP3    H221868   0.889   2.089   1.506
 7302TIP3   OH221869   0.585   3.095   5.304
 7302TIP3    H121870   0.610   3.017   5.353
 7302TIP3    H221871   0.489   3.097   5.308
 7303TIP3   OH221872   3.274   5.818   5.608
 7303TIP3    H121873   3.275   5.794   5.515
 7303TIP3    H221874   3.185   5.798   5.637
 7304TIP3   OH221875   2.524   2.276   1.679
 7304TIP3    H121876   2.557   2.352   1.631
 7304TIP3    H221877   2.530   2.203   1.617
 7305TIP3   OH221878   1.203   6.368   4.976
 7305TIP3    H121879   1.258   6.318   5.036
 7305TIP3    H221880   1.257   6.443   4.951
 7306TIP3   OH221881   1.360   3.050   1.521
 7306TIP3    H121882   1.359   3.095   1.605
 7306TIP3    H221883   1.278   3.077   1.478
 7307TIP3   OH221884   4.899   0.661   2.823
 7307TIP3    H121885   4.861   0.594   2.766
 7307TIP3    H221886   4.826   0.689   2.878
 7308TIP3   OH221887   7.136   3.709   3.448
 7308TIP3    H121888   7.090   3.691   3.530
 7308TIP3    H221889   7.076   3.678   3.380
 7309TIP3   OH221890   4.765   0.090   5.136
 7309TIP3    H121891   4.850   0.128   5.160
 7309TIP3    H221892   4.782   0.044   5.054
 7310TIP3   OH221893   1.510   5.864   2.160
 7310TIP3    H121894   1.486   5.956   2.173
 7310TIP3    H221895   1.557   5.863   2.076
 7311TIP3   OH221896   2.748   4.608   0.374
 7311TIP3    H121897   2.774   4.522   0.341
 7311TIP3    H221898   2.710   4.591   0.460
 7312TIP3   OH221899   1.429   2.053   4.539
 7312TIP3    H121900   1.351   2.102   4.564
 7312TIP3    H221901   1.396   1.968   4.510
 7313TIP3   OH221902   6.945   1.546   4.643
 7313TIP3    H121903   6.941   1.595   4.725
 7313TIP3    H221904   7.037   1.551   4.616
 7314TIP3   OH221905   5.615   4.763   0.369
 7314TIP3    H121906   5.595   4.848   0.408
 7314TIP3    H221907   5.574   4.766   0.282
 7315TIP3   OH221908   1.972   3.122   5.177
 7315TIP3    H121909   1.958   3.180   5.102
 7315TIP3    H221910   1.961   3.034   5.142
 7316TIP3   OH221911   6.407   6.462   4.392
 7316TIP3    H121912   6.426   6.377   4.431
 7316TIP3    H221913   6.460   6.524   4.444
 7317TIP3   OH221914   3.868   5.816   4.619
 7317TIP3    H121915   3.867   5.909   4.638
 7317TIP3    H221916   3.934   5.779   4.678
 7318TIP3   OH221917   4.642   4.914   1.754
 7318TIP3    H121918   4.652   4.834   1.702
 7318TIP3    H221919   4.732   4.939   1.776
 7319TIP3   OH221920   2.709   1.606   3.802
 7319TIP3    H121921   2.676   1.526   3.762
 7319TIP3    H221922   2.782   1.576   3.857
 7320TIP3   OH221923   0.996   5.389   5.141
 7320TIP3    H121924   1.043   5.461   5.100
 7320TIP3    H221925   1.061   5.319   5.148
 7321TIP3   OH221926   4.475   3.734   3.334
 7321TIP3    H121927   4.520   3.814   3.361
 7321TIP3    H221928   4.406   3.722   3.400
 7322TIP3   OH221929   6.850   1.780   5.533
 7322TIP3    H121930   6.925   1.721   5.532
 7322TIP3    H221931   6.870   1.847   5.468
 7323TIP3   OH221932   6.146   4.366   2.648
 7323TIP3    H121933   6.084   4.390   2.579
 7323TIP3    H221934   6.161   4.448   2.696
 7324TIP3   OH221935   4.884   5.879   4.626
 7324TIP3    H121936   4.804   5.827   4.618
 7324TIP3    H221937   4.934   5.858   4.546
 7325TIP3   OH221938   4.438   4.267   2.591
 7325TIP3    H121939   4.454   4.359   2.612
 7325TIP3    H221940   4.431   4.224   2.677
 7326TIP3   OH221941   7.116   4.907   0.231
 7326TIP3    H121942   7.175   4.843   0.192
 7326TIP3    H221943   7.173   4.973   0.269
 7327TIP3   OH221944   1.350   6.191   3.686
 7327TIP3    H121945   1.265   6.156   3.713
 7327TIP3    H221946   1.336   6.224   3.598
 7328TIP3   OH221947   3.125   0.921   2.021
 7328TIP3    H121948   3.091   0.837   1.991
 7328TIP3    H221949   3.052   0.982   2.011
 7329TIP3   OH221950   1.507   1.765   1.373
 7329TIP3    H121951   1.547   1.698   1.428
 7329TIP3    H221952   1.579   1.826   1.354
 7330TIP3   OH221953   0.144   1.881   2.599
 7330TIP3    H121954   0.086   1.817   2.640
 7330TIP3    H221955   0.086   1.940   2.551
 7331TIP3   OH221956   1.705   3.795   2.853
 7331TIP3    H121957   1.664   3.830   2.774
 7331TIP3    H221958   1.633   3.789   2.916
 7332TIP3   OH221959   0.977   2.021   2.625
 7332TIP3    H121960   0.993   2.098   2.570
 7332TIP3    H221961   1.063   1.997   2.658
 7333TIP3   OH221962   1.279   3.475   0.512
 7333TIP3    H121963   1.194   3.518   0.505
 7333TIP3    H221964   1.299   3.475   0.606
 7334TIP3   OH221965   0.728   6.338   2.710
 7334TIP3    H121966   0.736   6.389   2.629
 7334TIP3    H221967   0.660   6.383   2.760
 7335TIP3   OH221968   3.315   3.918   5.806
 7335TIP3    H121969   3.399   3.888   5.840
 7335TIP3    H221970   3.252   3.853   5.837
 7336TIP3   OH221971   6.976   0.896   3.403
 7336TIP3    H121972   6.993   0.968   3.343
 7336TIP3    H221973   6.900   0.851   3.367
 7337TIP3   OH221974   4.627   4.043   3.110
 7337TIP3    H121975   4.606   4.000   3.193
 7337TIP3    H221976   4.624   4.137   3.130
 7338TIP3   OH221977   3.298   6.219   0.657
 7338TIP3    H121978   3.356   6.171   0.716
 7338TIP3    H221979   3.268   6.153   0.594
 7339TIP3   OH221980   7.209   5.693   4.227
 7339TIP3    H121981   7.297   5.686   4.190
 7339TIP3    H221982   7.154   5.642   4.168
 7340TIP3   OH221983   1.522   3.362   4.746
 7340TIP3    H121984   1.489   3.451   4.737
 7340TIP3    H221985   1.605   3.363   4.698
 7341TIP3   OH221986   3.560   1.662   1.119
 7341TIP3    H121987   3.480   1.621   1.151
 7341TIP3    H221988   3.557   1.651   1.024
 7342TIP3   OH221989   1.496   4.638   4.871
 7342TIP3    H121990   1.469   4.729   4.880
 7342TIP3    H221991   1.592   4.641   4.874
 7343TIP3   OH221992   4.580   6.288   4.913
 7343TIP3    H121993   4.614   6.353   4.851
 7343TIP3    H221994   4.498   6.258   4.873
 7344TIP3   OH221995   2.839   5.560   5.557
 7344TIP3    H121996   2.817   5.469   5.537
 7344TIP3    H221997   2.754   5.602   5.570
 7345TIP3   OH221998   3.070   2.668   1.022
 7345TIP3    H121999   3.080   2.576   0.999
 7345TIP3    H222000   3.145   2.686   1.079
 7346TIP3   OH222001   2.098   3.596   2.007
 7346TIP3    H122002   2.156   3.583   2.082
 7346TIP3    H222003   2.015   3.556   2.034
 7347TIP3   OH222004   1.195   2.236   0.006
 7347TIP3    H122005   1.151   2.272  -0.071
 7347TIP3    H222006   1.129   2.240   0.076
 7348TIP3   OH222007   6.082   5.272   3.944
 7348TIP3    H122008   6.066   5.239   4.033
 7348TIP3    H222009   6.040   5.358   3.943
 7349TIP3   OH222010   2.739   0.073   1.715
 7349TIP3    H122011   2.667   0.076   1.652
 7349TIP3    H222012   2.705   0.117   1.792
 7350TIP3   OH222013   0.377   3.276   0.720
 7350TIP3    H122014   0.358   3.345   0.783
 7350TIP3    H222015   0.456   3.234   0.755
 7351TIP3   OH222016   1.651   2.090   3.399
 7351TIP3    H122017   1.660   2.017   3.337
 7351TIP3    H222018   1.727   2.083   3.456
 7352TIP3   OH222019   0.454   6.647   0.873
 7352TIP3    H122020   0.371   6.667   0.915
 7352TIP3    H222021   0.431   6.589   0.800
 7353TIP3   OH222022   5.744   4.903   5.537
 7353TIP3    H122023   5.814   4.965   5.515
 7353TIP3    H222024   5.664   4.956   5.534
 7354TIP3   OH222025   6.442   0.512   5.187
 7354TIP3    H122026   6.443   0.524   5.282
 7354TIP3    H222027   6.420   0.599   5.152
 7355TIP3   OH222028   6.076   3.545   0.790
 7355TIP3    H122029   6.137   3.585   0.853
 7355TIP3    H222030   6.009   3.612   0.775
 7356TIP3   OH222031   4.446   0.634   1.933
 7356TIP3    H122032   4.399   0.552   1.949
 7356TIP3    H222033   4.531   0.607   1.900
 7357TIP3   OH222034   6.293   5.403   2.134
 7357TIP3    H122035   6.305   5.384   2.227
 7357TIP3    H222036   6.362   5.354   2.090
 7358TIP3   OH222037   7.010   2.259   0.925
 7358TIP3    H122038   7.094   2.303   0.936
 7358TIP3    H222039   6.999   2.250   0.830
 7359TIP3   OH222040   5.108   4.649   5.336
 7359TIP3    H122041   5.160   4.703   5.395
 7359TIP3    H222042   5.095   4.704   5.259
 7360TIP3   OH222043   5.832   5.898   4.850
 7360TIP3    H122044   5.796   5.896   4.762
 7360TIP3    H222045   5.757   5.916   4.907
 7361TIP3   OH222046   2.931   2.212   0.192
 7361TIP3    H122047   2.991   2.180   0.124
 7361TIP3    H222048   2.853   2.240   0.144
 7362TIP3   OH222049   2.680   4.878   5.393
 7362TIP3    H122050   2.602   4.908   5.347
 7362TIP3    H222051   2.740   4.953   5.390
 7363TIP3   OH222052   3.458   3.178   5.267
 7363TIP3    H122053   3.517   3.160   5.194
 7363TIP3    H222054   3.434   3.091   5.301
 7364TIP3   OH222055   3.513   5.867   4.382
 7364TIP3    H122056   3.532   5.931   4.451
 7364TIP3    H222057   3.584   5.803   4.388
 7365TIP3   OH222058   2.497   3.510   5.252
 7365TIP3    H122059   2.525   3.564   5.178
 7365TIP3    H222060   2.493   3.571   5.326
 7366TIP3   OH222061   1.517   1.779   2.101
 7366TIP3    H122062   1.473   1.696   2.087
 7366TIP3    H222063   1.610   1.760   2.087
 7367TIP3   OH222064   5.630   1.498   4.170
 7367TIP3    H122065   5.562   1.475   4.107
 7367TIP3    H222066   5.709   1.510   4.117
 7368TIP3   OH222067   7.092   5.903   2.231
 7368TIP3    H122068   7.120   5.965   2.297
 7368TIP3    H222069   7.112   5.817   2.268
 7369TIP3   OH222070   5.271   0.423   3.290
 7369TIP3    H122071   5.319   0.501   3.264
 7369TIP3    H222072   5.301   0.355   3.229
 7370TIP3   OH222073   1.600   6.038   4.022
 7370TIP3    H122074   1.509   6.062   4.005
 7370TIP3    H222075   1.650   6.113   3.991
 7371TIP3   OH222076   5.812   5.663   0.640
 7371TIP3    H122077   5.846   5.671   0.551
 7371TIP3    H222078   5.771   5.576   0.642
 7372TIP3   OH222079   6.620   3.912   0.756
 7372TIP3    H122080   6.689   3.864   0.801
 7372TIP3    H222081   6.540   3.861   0.773
 7373TIP3   OH222082   6.877   1.559   0.508
 7373TIP3    H122083   6.969   1.567   0.485
 7373TIP3    H222084   6.875   1.557   0.603
 7374TIP3   OH222085   4.429   4.405   5.726
 7374TIP3    H122086   4.494   4.388   5.658
 7374TIP3    H222087   4.478   4.401   5.808
 7375TIP3   OH222088   3.681   2.215   3.171
 7375TIP3    H122089   3.637   2.285   3.123
 7375TIP3    H222090   3.772   2.244   3.177
 7376TIP3   OH222091   2.465   4.919   5.232
 7376TIP3    H122092   2.490   5.010   5.214
 7376TIP3    H222093   2.374   4.913   5.203
 7377TIP3   OH222094   0.201   1.480   1.810
 7377TIP3    H122095   0.158   1.546   1.865
 7377TIP3    H222096   0.140   1.467   1.737
 7378TIP3   OH222097   2.841   2.173   0.439
 7378TIP3    H122098   2.861   2.252   0.488
 7378TIP3    H222099   2.892   2.181   0.359
 7379TIP3   OH222100   1.806   3.485   1.513
 7379TIP3    H122101   1.762   3.567   1.535
 7379TIP3    H222102   1.735   3.423   1.498
 7380TIP3   OH222103   3.864   1.358   4.546
 7380TIP3    H122104   3.810   1.332   4.471
 7380TIP3    H222105   3.850   1.452   4.555
 7381TIP3   OH222106   6.410   6.518   5.672
 7381TIP3    H122107   6.433   6.426   5.686
 7381TIP3    H222108   6.318   6.524   5.697
 7382TIP3   OH222109   2.531   5.309   2.992
 7382TIP3    H122110   2.603   5.257   3.025
 7382TIP3    H222111   2.524   5.285   2.899
 7383TIP3   OH222112   6.156   2.701   0.620
 7383TIP3    H122113   6.088   2.654   0.572
 7383TIP3    H222114   6.116   2.784   0.645
 7384TIP3   OH222115   1.382   3.125   3.284
 7384TIP3    H122116   1.338   3.136   3.199
 7384TIP3    H222117   1.400   3.215   3.314
 7385TIP3   OH222118   0.977   1.771   5.583
 7385TIP3    H122119   0.926   1.724   5.650
 7385TIP3    H222120   1.034   1.704   5.545
 7386TIP3   OH222121   6.093   5.887   0.506
 7386TIP3    H122122   6.122   5.853   0.591
 7386TIP3    H222123   6.046   5.814   0.466
 7387TIP3   OH222124   2.367   4.176   2.059
 7387TIP3    H122125   2.354   4.226   1.979
 7387TIP3    H222126   2.279   4.145   2.082
 7388TIP3   OH222127   1.048   0.547   2.189
 7388TIP3    H122128   1.060   0.488   2.115
 7388TIP3    H222129   0.967   0.594   2.168
 7389TIP3   OH222130   5.853   4.548   1.687
 7389TIP3    H122131   5.858   4.453   1.701
 7389TIP3    H222132   5.762   4.563   1.660
 7390TIP3   OH222133   4.479   2.037   1.455
 7390TIP3    H122134   4.520   1.951   1.443
 7390TIP3    H222135   4.396   2.030   1.408
 7391TIP3   OH222136   3.607   4.690   1.249
 7391TIP3    H122137   3.555   4.625   1.202
 7391TIP3    H222138   3.676   4.714   1.189
 7392TIP3   OH222139   1.266   2.817   1.279
 7392TIP3    H122140   1.315   2.790   1.357
 7392TIP3    H222141   1.188   2.762   1.279
 7393TIP3   OH222142   3.494   2.855   5.805
 7393TIP3    H122143   3.459   2.768   5.785
 7393TIP3    H222144   3.514   2.852   5.898
 7394TIP3   OH222145   1.747   0.347   2.099
 7394TIP3    H122146   1.748   0.386   2.012
 7394TIP3    H222147   1.671   0.288   2.098
 7395TIP3   OH222148   4.079   0.138   5.778
 7395TIP3    H122149   4.090   0.230   5.753
 7395TIP3    H222150   3.987   0.131   5.801
 7396TIP3   OH222151   6.552   3.553   2.039
 7396TIP3    H122152   6.585   3.628   1.989
 7396TIP3    H222153   6.503   3.502   1.974
 7397TIP3   OH222154   2.015   3.454   1.320
 7397TIP3    H122155   1.934   3.456   1.371
 7397TIP3    H222156   2.008   3.374   1.268
 7398TIP3   OH222157   6.316   6.501   0.497
 7398TIP3    H122158   6.250   6.454   0.446
 7398TIP3    H222159   6.291   6.484   0.588
 7399TIP3   OH222160   6.409   4.501   4.665
 7399TIP3    H122161   6.454   4.574   4.707
 7399TIP3    H222162   6.358   4.542   4.594
 7400TIP3   OH222163   2.366   2.844   0.413
 7400TIP3    H122164   2.432   2.902   0.374
 7400TIP3    H222165   2.287   2.859   0.362
 7401TIP3   OH222166   4.116   2.056   5.350
 7401TIP3    H122167   4.034   2.015   5.324
 7401TIP3    H222168   4.171   1.984   5.380
 7402TIP3   OH222169   3.052   3.424   2.844
 7402TIP3    H122170   2.964   3.387   2.843
 7402TIP3    H222171   3.102   3.368   2.903
 7403TIP3   OH222172   6.513   1.809   2.178
 7403TIP3    H122173   6.605   1.791   2.162
 7403TIP3    H222174   6.477   1.829   2.091
 7404TIP3   OH222175   0.632   1.425   5.617
 7404TIP3    H122176   0.678   1.347   5.584
 7404TIP3    H222177   0.582   1.393   5.692
 7405TIP3   OH222178   6.073   4.884   2.202
 7405TIP3    H122179   6.013   4.921   2.267
 7405TIP3    H222180   6.125   4.958   2.171
 7406TIP3   OH222181   2.602   0.479   2.069
 7406TIP3    H122182   2.608   0.385   2.086
 7406TIP3    H222183   2.673   0.495   2.006
 7407TIP3   OH222184   1.381   0.772   1.050
 7407TIP3    H122185   1.310   0.835   1.039
 7407TIP3    H222186   1.342   0.700   1.098
 7408TIP3   OH222187   0.461   5.351   1.873
 7408TIP3    H122188   0.434   5.430   1.826
 7408TIP3    H222189   0.412   5.281   1.831
 7409TIP3   OH222190   2.931   3.340   5.179
 7409TIP3    H122191   3.026   3.353   5.185
 7409TIP3    H222192   2.894   3.424   5.206
 7410TIP3   OH222193   3.646   1.031   5.130
 7410TIP3    H122194   3.674   1.112   5.173
 7410TIP3    H222195   3.726   0.978   5.124
 7411TIP3   OH222196   0.372   6.489   2.661
 7411TIP3    H122197   0.291   6.522   2.699
 7411TIP3    H222198   0.382   6.539   2.579
 7412TIP3   OH222199   1.616   1.598   3.784
 7412TIP3    H122200   1.610   1.609   3.689
 7412TIP3    H222201   1.657   1.679   3.815
 7413TIP3   OH222202   2.142   2.106   3.074
 7413TIP3    H122203   2.074   2.112   3.142
 7413TIP3    H222204   2.097   2.067   2.999
 7414TIP3   OH222205   0.867   4.516   5.856
 7414TIP3    H122206   0.849   4.562   5.938
 7414TIP3    H222207   0.924   4.443   5.881
 7415TIP3   OH222208   4.379   3.394   3.935
 7415TIP3    H122209   4.393   3.304   3.906
 7415TIP3    H222210   4.313   3.429   3.875
 7416TIP3   OH222211   1.121   4.930   2.375
 7416TIP3    H122212   1.086   4.993   2.313
 7416TIP3    H222213   1.166   4.983   2.441
 7417TIP3   OH222214   3.568   1.609   1.489
 7417TIP3    H122215   3.499   1.622   1.423
 7417TIP3    H222216   3.650   1.618   1.440
 7418TIP3   OH222217   6.156   1.461   3.553
 7418TIP3    H122218   6.229   1.453   3.492
 7418TIP3    H222219   6.080   1.429   3.504
 7419TIP3   OH222220   3.763   2.196   1.147
 7419TIP3    H122221   3.775   2.255   1.072
 7419TIP3    H222222   3.732   2.253   1.217
 7420TIP3   OH222223   2.810   0.555   3.847
 7420TIP3    H122224   2.828   0.523   3.759
 7420TIP3    H222225   2.735   0.614   3.836
 7421TIP3   OH222226   6.100   3.207   1.846
 7421TIP3    H122227   6.110   3.234   1.755
 7421TIP3    H222228   6.120   3.285   1.898
 7422TIP3   OH222229   4.247   5.469   1.348
 7422TIP3    H122230   4.309   5.499   1.415
 7422TIP3    H222231   4.244   5.374   1.358
 7423TIP3   OH222232   2.641   5.828   5.809
 7423TIP3    H122233   2.729   5.830   5.847
 7423TIP3    H222234   2.641   5.752   5.751
 7424TIP3   OH222235   5.906   0.265   2.979
 7424TIP3    H122236   5.986   0.214   2.990
 7424TIP3    H222237   5.888   0.261   2.884
 7425TIP3   OH222238   6.988   2.996   3.136
 7425TIP3    H122239   7.059   2.945   3.175
 7425TIP3    H222240   6.912   2.939   3.140
 7426TIP3   OH222241   6.211   0.066   1.336
 7426TIP3    H122242   6.201   0.118   1.256
 7426TIP3    H222243   6.237   0.130   1.402
 7427TIP3   OH222244   3.903   3.475   2.998
 7427TIP3    H122245   3.953   3.546   2.958
 7427TIP3    H222246   3.892   3.503   3.089
 7428TIP3   OH222247   0.426   5.410   0.568
 7428TIP3    H122248   0.393   5.497   0.546
 7428TIP3    H222249   0.507   5.402   0.517
 7429TIP3   OH222250   6.287   3.244   0.446
 7429TIP3    H122251   6.240   3.264   0.527
 7429TIP3    H222252   6.264   3.315   0.387
 7430TIP3   OH222253   0.329   3.472   4.770
 7430TIP3    H122254   0.390   3.401   4.789
 7430TIP3    H222255   0.382   3.551   4.775
 7431TIP3   OH222256   6.469   5.992   3.372
 7431TIP3    H122257   6.500   5.901   3.362
 7431TIP3    H222258   6.549   6.042   3.387
 7432TIP3   OH222259   3.206   1.072   2.588
 7432TIP3    H122260   3.244   1.042   2.505
 7432TIP3    H222261   3.267   1.139   2.618
 7433TIP3   OH222262   6.507   5.947   5.834
 7433TIP3    H122263   6.454   6.001   5.893
 7433TIP3    H222264   6.452   5.935   5.757
 7434TIP3   OH222265   3.570   3.108   0.230
 7434TIP3    H122266   3.509   3.078   0.298
 7434TIP3    H222267   3.599   3.194   0.260
 7435TIP3   OH222268   7.065   0.622   5.257
 7435TIP3    H122269   7.018   0.680   5.317
 7435TIP3    H222270   7.129   0.678   5.214
 7436TIP3   OH222271   0.312   4.823   2.803
 7436TIP3    H122272   0.264   4.745   2.830
 7436TIP3    H222273   0.404   4.799   2.814
 7437TIP3   OH222274   0.835   1.615   5.102
 7437TIP3    H122275   0.885   1.588   5.025
 7437TIP3    H222276   0.898   1.614   5.173
 7438TIP3   OH222277   1.235   5.182   2.407
 7438TIP3    H122278   1.293   5.159   2.334
 7438TIP3    H222279   1.279   5.256   2.450
 7439TIP3   OH222280   2.474   4.930   0.840
 7439TIP3    H122281   2.515   5.006   0.881
 7439TIP3    H222282   2.452   4.872   0.913
 7440TIP3   OH222283   4.819   3.136   2.027
 7440TIP3    H122284   4.725   3.118   2.038
 7440TIP3    H222285   4.823   3.228   2.002
 7441TIP3   OH222286   7.044   2.440   5.052
 7441TIP3    H122287   7.003   2.526   5.067
 7441TIP3    H222288   7.100   2.427   5.128
 7442TIP3   OH222289   0.412   3.422   0.475
 7442TIP3    H122290   0.388   3.379   0.557
 7442TIP3    H222291   0.331   3.420   0.423
 7443TIP3   OH222292   4.241   0.492   5.287
 7443TIP3    H122293   4.323   0.451   5.260
 7443TIP3    H222294   4.243   0.490   5.383
 7444TIP3   OH222295   4.283   6.080   4.020
 7444TIP3    H122296   4.347   6.011   4.002
 7444TIP3    H222297   4.207   6.056   3.966
 7445TIP3   OH222298   6.761   4.904   4.778
 7445TIP3    H122299   6.828   4.884   4.844
 7445TIP3    H222300   6.737   4.995   4.796
 7446TIP3   OH222301   6.064   3.265   3.691
 7446TIP3    H122302   6.156   3.248   3.668
 7446TIP3    H222303   6.026   3.178   3.702
 7447TIP3   OH222304   4.429   1.393   5.165
 7447TIP3    H122305   4.495   1.426   5.104
 7447TIP3    H222306   4.366   1.347   5.110
 7448TIP3   OH222307   6.904   5.871   0.919
 7448TIP3    H122308   6.926   5.889   0.828
 7448TIP3    H222309   6.988   5.853   0.961
 7449TIP3   OH222310   2.340   3.723   3.993
 7449TIP3    H122311   2.432   3.727   4.019
 7449TIP3    H222312   2.339   3.668   3.914
 7450TIP3   OH222313   2.302   2.272   2.689
 7450TIP3    H122314   2.371   2.296   2.627
 7450TIP3    H222315   2.293   2.177   2.679
 7451TIP3   OH222316   0.777   5.254   5.542
 7451TIP3    H122317   0.855   5.309   5.536
 7451TIP3    H222318   0.710   5.301   5.491
 7452TIP3   OH222319   7.087   5.515   0.372
 7452TIP3    H122320   7.033   5.483   0.444
 7452TIP3    H222321   7.096   5.440   0.313
 7453TIP3   OH222322   1.443   4.541   4.076
 7453TIP3    H122323   1.423   4.598   4.150
 7453TIP3    H222324   1.538   4.547   4.067
 7454TIP3   OH222325   4.234   5.433   5.821
 7454TIP3    H122326   4.297   5.453   5.890
 7454TIP3    H222327   4.251   5.341   5.799
 7455TIP3   OH222328   4.461   2.966   4.920
 7455TIP3    H122329   4.492   3.029   4.855
 7455TIP3    H222330   4.529   2.899   4.923
 7456TIP3   OH222331   4.316   0.929   2.500
 7456TIP3    H122332   4.226   0.960   2.499
 7456TIP3    H222333   4.325   0.878   2.419
 7457TIP3   OH222334   4.491   5.343   0.234
 7457TIP3    H122335   4.494   5.325   0.140
 7457TIP3    H222336   4.442   5.426   0.240
 7458TIP3   OH222337   6.230   2.627   2.038
 7458TIP3    H122338   6.271   2.678   1.969
 7458TIP3    H222339   6.143   2.665   2.048
 7459TIP3   OH222340   5.029   3.975   1.232
 7459TIP3    H122341   5.057   3.929   1.311
 7459TIP3    H222342   5.029   4.067   1.256
 7460TIP3   OH222343   1.929   4.711   1.709
 7460TIP3    H122344   1.868   4.728   1.637
 7460TIP3    H222345   1.946   4.617   1.703
 7461TIP3   OH222346   3.203   0.432   3.349
 7461TIP3    H122347   3.173   0.522   3.357
 7461TIP3    H222348   3.151   0.384   3.413
 7462TIP3   OH222349   7.176   6.288   3.186
 7462TIP3    H122350   7.125   6.326   3.257
 7462TIP3    H222351   7.112   6.243   3.131
 7463TIP3   OH222352   5.201   4.465   3.220
 7463TIP3    H122353   5.181   4.505   3.304
 7463TIP3    H222354   5.172   4.528   3.155
 7464TIP3   OH222355   6.436   4.106   4.007
 7464TIP3    H122356   6.451   4.071   3.920
 7464TIP3    H222357   6.343   4.131   4.007
 7465TIP3   OH222358   2.884   2.793   5.803
 7465TIP3    H122359   2.849   2.704   5.814
 7465TIP3    H222360   2.972   2.789   5.840
 7466TIP3   OH222361   5.501   5.026   3.787
 7466TIP3    H122362   5.578   4.969   3.796
 7466TIP3    H222363   5.529   5.109   3.827
 7467TIP3   OH222364   0.331   4.149   3.198
 7467TIP3    H122365   0.355   4.181   3.111
 7467TIP3    H222366   0.357   4.057   3.198
 7468TIP3   OH222367   2.612   4.176   3.967
 7468TIP3    H122368   2.692   4.153   4.016
 7468TIP3    H222369   2.586   4.262   4.003
 7469TIP3   OH222370   5.506   0.686   5.646
 7469TIP3    H122371   5.539   0.727   5.566
 7469TIP3    H222372   5.529   0.594   5.636
 7470TIP3   OH222373   5.664   3.568   3.643
 7470TIP3    H122374   5.675   3.662   3.635
 7470TIP3    H222375   5.681   3.533   3.556
 7471TIP3   OH222376   7.016   4.665   1.325
 7471TIP3    H122377   7.107   4.672   1.354
 7471TIP3    H222378   7.022   4.626   1.237
 7472TIP3   OH222379   6.268   2.770   3.271
 7472TIP3    H122380   6.180   2.788   3.237
 7472TIP3    H222381   6.283   2.839   3.336
 7473TIP3   OH222382   5.531   0.934   4.044
 7473TIP3    H122383   5.512   0.914   4.136
 7473TIP3    H222384   5.612   0.887   4.025
 7474TIP3   OH222385   4.466   4.477   4.043
 7474TIP3    H122386   4.371   4.476   4.032
 7474TIP3    H222387   4.497   4.410   3.982
 7475TIP3   OH222388   1.114   2.392   5.846
 7475TIP3    H122389   1.192   2.391   5.790
 7475TIP3    H222390   1.052   2.449   5.799
 7476TIP3   OH222391   3.961   2.314   3.146
 7476TIP3    H122392   3.985   2.396   3.102
 7476TIP3    H222393   4.028   2.252   3.118
 7477TIP3   OH222394   1.132   3.911   1.484
 7477TIP3    H122395   1.055   3.913   1.540
 7477TIP3    H222396   1.148   4.003   1.463
 7478TIP3   OH222397   5.453   4.175   4.884
 7478TIP3    H122398   5.503   4.105   4.926
 7478TIP3    H222399   5.506   4.253   4.895
 7479TIP3   OH222400   5.625   4.803   2.732
 7479TIP3    H122401   5.659   4.750   2.660
 7479TIP3    H222402   5.586   4.880   2.689
 7480TIP3   OH222403   2.223   3.108   3.107
 7480TIP3    H122404   2.222   3.200   3.133
 7480TIP3    H222405   2.162   3.103   3.033
 7481TIP3   OH222406   5.509   4.638   3.469
 7481TIP3    H122407   5.549   4.553   3.487
 7481TIP3    H222408   5.510   4.684   3.553
 7482TIP3   OH222409   6.059   5.266   3.211
 7482TIP3    H122410   6.038   5.329   3.280
 7482TIP3    H222411   6.125   5.209   3.249
 7483TIP3   OH222412   6.040   4.832   1.215
 7483TIP3    H122413   6.105   4.842   1.284
 7483TIP3    H222414   6.053   4.907   1.157
 7484TIP3   OH222415   0.606   5.633   2.798
 7484TIP3    H122416   0.637   5.720   2.822
 7484TIP3    H222417   0.535   5.650   2.736
 7485TIP3   OH222418   5.976   5.641   4.759
 7485TIP3    H122419   5.996   5.695   4.836
 7485TIP3    H222420   5.930   5.701   4.700
 7486TIP3   OH222421   0.730   1.699   0.158
 7486TIP3    H122422   0.707   1.614   0.196
 7486TIP3    H222423   0.760   1.678   0.070
 7487TIP3   OH222424   6.012   0.712   0.688
 7487TIP3    H122425   6.047   0.763   0.762
 7487TIP3    H222426   6.033   0.765   0.611
 7488TIP3   OH222427   2.100   4.926   0.794
 7488TIP3    H122428   2.122   4.983   0.867
 7488TIP3    H222429   2.071   4.844   0.835
 7489TIP3   OH222430   2.191   1.835   1.524
 7489TIP3    H122431   2.243   1.863   1.449
 7489TIP3    H222432   2.199   1.906   1.587
 7490TIP3   OH222433   1.295   2.709   5.798
 7490TIP3    H122434   1.233   2.764   5.845
 7490TIP3    H222435   1.324   2.645   5.864
 7491TIP3   OH222436   4.652  -0.034   0.453
 7491TIP3    H122437   4.613  -0.030   0.365
 7491TIP3    H222438   4.740  -0.070   0.438
 7492TIP3   OH222439   0.907   4.800   1.946
 7492TIP3    H122440   0.870   4.786   1.860
 7492TIP3    H222441   0.831   4.810   2.004
 7493TIP3   OH222442   2.022   5.938   2.712
 7493TIP3    H122443   1.952   5.973   2.766
 7493TIP3    H222444   1.986   5.937   2.623
 7494TIP3   OH222445   3.166   6.178   2.730
 7494TIP3    H122446   3.077   6.178   2.765
 7494TIP3    H222447   3.155   6.154   2.638
 7495TIP3   OH222448   2.877   1.814   3.733
 7495TIP3    H122449   2.867   1.875   3.660
 7495TIP3    H222450   2.803   1.753   3.724
 7496TIP3   OH222451   4.648   4.607   0.830
 7496TIP3    H122452   4.588   4.610   0.904
 7496TIP3    H222453   4.735   4.616   0.869
 7497TIP3   OH222454   4.094   3.208   0.503
 7497TIP3    H122455   4.132   3.295   0.513
 7497TIP3    H222456   4.150   3.164   0.439
 7498TIP3   OH222457   0.258   2.266   0.754
 7498TIP3    H122458   0.201   2.202   0.798
 7498TIP3    H222459   0.232   2.262   0.662
 7499TIP3   OH222460   0.228   2.727   4.335
 7499TIP3    H122461   0.150   2.696   4.290
 7499TIP3    H222462   0.301   2.697   4.281
 7500TIP3   OH222463   4.218   4.810   2.107
 7500TIP3    H122464   4.291   4.793   2.047
 7500TIP3    H222465   4.150   4.748   2.080
 7501TIP3   OH222466   4.433   2.719   5.437
 7501TIP3    H122467   4.457   2.648   5.496
 7501TIP3    H222468   4.364   2.682   5.381
 7502TIP3   OH222469   6.261   2.319   2.736
 7502TIP3    H122470   6.320   2.383   2.776
 7502TIP3    H222471   6.215   2.367   2.668
 7503TIP3   OH222472   3.789   5.243   3.657
 7503TIP3    H122473   3.808   5.280   3.571
 7503TIP3    H222474   3.724   5.175   3.640
 7504TIP3   OH222475   6.640   1.256   4.580
 7504TIP3    H122476   6.581   1.181   4.589
 7504TIP3    H222477   6.710   1.224   4.523
 7505TIP3   OH222478   6.151   4.978   0.976
 7505TIP3    H122479   6.239   5.015   0.970
 7505TIP3    H222480   6.161   4.886   0.952
 7506TIP3   OH222481   0.227   1.359   4.033
 7506TIP3    H122482   0.268   1.444   4.017
 7506TIP3    H222483   0.156   1.378   4.094
 7507TIP3   OH222484   4.782   3.048   2.977
 7507TIP3    H122485   4.849   3.029   3.043
 7507TIP3    H222486   4.714   3.095   3.025
 7508TIP3   OH222487   0.067   5.039   0.762
 7508TIP3    H122488   0.076   5.006   0.852
 7508TIP3    H222489   0.133   4.991   0.712
 7509TIP3   OH222490   0.297   6.731   1.234
 7509TIP3    H122491   0.232   6.703   1.298
 7509TIP3    H222492   0.255   6.718   1.149
 7510TIP3   OH222493   0.960   0.086   5.400
 7510TIP3    H122494   0.980   0.065   5.491
 7510TIP3    H222495   1.020   0.158   5.378
 7511TIP3   OH222496   6.566   1.617   1.300
 7511TIP3    H122497   6.476   1.585   1.304
 7511TIP3    H222498   6.601   1.601   1.387
 7512TIP3   OH222499   6.230   3.067   4.744
 7512TIP3    H122500   6.247   3.108   4.659
 7512TIP3    H222501   6.177   2.990   4.724
 7513TIP3   OH222502   3.700   5.324   5.242
 7513TIP3    H122503   3.726   5.415   5.250
 7513TIP3    H222504   3.685   5.296   5.333
 7514TIP3   OH222505   5.709   6.071   3.279
 7514TIP3    H122506   5.691   6.163   3.301
 7514TIP3    H222507   5.800   6.058   3.303
 7515TIP3   OH222508   3.758   6.674   1.797
 7515TIP3    H122509   3.795   6.747   1.746
 7515TIP3    H222510   3.747   6.710   1.885
 7516TIP3   OH222511   3.975   2.889   4.294
 7516TIP3    H122512   3.966   2.982   4.274
 7516TIP3    H222513   3.895   2.867   4.342
 7517TIP3   OH222514   3.924   3.938   0.075
 7517TIP3    H122515   3.910   3.988   0.156
 7517TIP3    H222516   3.950   3.851   0.105
 7518TIP3   OH222517   5.150   5.140   0.195
 7518TIP3    H122518   5.083   5.203   0.222
 7518TIP3    H222519   5.120   5.056   0.230
 7519TIP3   OH222520   3.391   1.883   0.397
 7519TIP3    H122521   3.329   1.822   0.437
 7519TIP3    H222522   3.445   1.828   0.340
 7520TIP3   OH222523   3.576   6.528   4.841
 7520TIP3    H122524   3.501   6.558   4.894
 7520TIP3    H222525   3.553   6.553   4.752
 7521TIP3   OH222526   1.669   5.810   1.942
 7521TIP3    H122527   1.716   5.729   1.958
 7521TIP3    H222528   1.730   5.864   1.892
 7522TIP3   OH222529   3.349   4.549   1.248
 7522TIP3    H122530   3.293   4.595   1.310
 7522TIP3    H222531   3.336   4.456   1.268
 7523TIP3   OH222532   0.641   1.604   5.402
 7523TIP3    H122533   0.620   1.512   5.419
 7523TIP3    H222534   0.648   1.644   5.489
 7524TIP3   OH222535   6.911   3.763   0.652
 7524TIP3    H122536   6.944   3.810   0.576
 7524TIP3    H222537   6.937   3.816   0.727
 7525TIP3   OH222538   0.793   5.138   2.682
 7525TIP3    H122539   0.834   5.185   2.755
 7525TIP3    H222540   0.720   5.194   2.655
 7526TIP3   OH222541   0.347   2.888   0.161
 7526TIP3    H122542   0.417   2.843   0.209
 7526TIP3    H222543   0.271   2.831   0.172
 7527TIP3   OH222544   5.628   1.735   0.261
 7527TIP3    H122545   5.670   1.766   0.181
 7527TIP3    H222546   5.697   1.738   0.327
 7528TIP3   OH222547   5.639   3.864   1.330
 7528TIP3    H122548   5.714   3.806   1.323
 7528TIP3    H222549   5.592   3.853   1.247
 7529TIP3   OH222550   0.889   1.381   0.522
 7529TIP3    H122551   0.825   1.424   0.578
 7529TIP3    H222552   0.954   1.345   0.582
 7530TIP3   OH222553   2.623   3.221   2.732
 7530TIP3    H122554   2.575   3.143   2.705
 7530TIP3    H222555   2.658   3.257   2.650
 7531TIP3   OH222556   1.021   1.827   0.878
 7531TIP3    H122557   1.046   1.898   0.819
 7531TIP3    H222558   0.951   1.781   0.832
 7532TIP3   OH222559   1.620   4.761   2.304
 7532TIP3    H122560   1.686   4.722   2.362
 7532TIP3    H222561   1.581   4.831   2.356
 7533TIP3   OH222562   5.244   4.536   4.292
 7533TIP3    H122563   5.149   4.529   4.303
 7533TIP3    H222564   5.256   4.613   4.238
 7534TIP3   OH222565   0.690   3.021   0.376
 7534TIP3    H122566   0.724   3.007   0.464
 7534TIP3    H222567   0.764   3.055   0.326
 7535TIP3   OH222568   3.414   6.240   2.846
 7535TIP3    H122569   3.326   6.219   2.815
 7535TIP3    H222570   3.403   6.320   2.897
 7536TIP3   OH222571   1.653   4.654   1.112
 7536TIP3    H122572   1.618   4.603   1.040
 7536TIP3    H222573   1.698   4.589   1.167
 7537TIP3   OH222574   6.085   0.077   5.081
 7537TIP3    H122575   6.001   0.045   5.047
 7537TIP3    H222576   6.073   0.172   5.088
 7538TIP3   OH222577   2.070   0.469   3.991
 7538TIP3    H122578   2.009   0.491   4.061
 7538TIP3    H222579   2.130   0.406   4.029
 7539TIP3   OH222580   4.068   4.148   5.798
 7539TIP3    H122581   4.036   4.237   5.816
 7539TIP3    H222582   3.994   4.091   5.818
 7540TIP3   OH222583   5.839   2.337   0.622
 7540TIP3    H122584   5.822   2.246   0.647
 7540TIP3    H222585   5.828   2.387   0.702
 7541TIP3   OH222586   0.086   4.717   0.172
 7541TIP3    H122587   0.167   4.737   0.124
 7541TIP3    H222588   0.115   4.701   0.262
 7542TIP3   OH222589   2.415   1.732   3.275
 7542TIP3    H122590   2.450   1.676   3.205
 7542TIP3    H222591   2.453   1.819   3.257
 7543TIP3   OH222592   4.490   4.178   2.846
 7543TIP3    H122593   4.580   4.159   2.820
 7543TIP3    H222594   4.494   4.265   2.885
 7544TIP3   OH222595   6.718   3.397   4.055
 7544TIP3    H122596   6.789   3.347   4.096
 7544TIP3    H222597   6.699   3.349   3.974
 7545TIP3   OH222598   4.809   1.144   3.984
 7545TIP3    H122599   4.882   1.083   3.997
 7545TIP3    H222600   4.767   1.151   4.070
 7546TIP3   OH222601   2.299   0.486   3.091
 7546TIP3    H122602   2.323   0.449   3.176
 7546TIP3    H222603   2.235   0.554   3.112
 7547TIP3   OH222604   6.475   6.499   2.109
 7547TIP3    H122605   6.433   6.503   2.023
 7547TIP3    H222606   6.542   6.568   2.106
 7548TIP3   OH222607   5.204   2.476   2.086
 7548TIP3    H122608   5.149   2.550   2.111
 7548TIP3    H222609   5.142   2.404   2.072
 7549TIP3   OH222610   1.191   4.428   4.016
 7549TIP3    H122611   1.123   4.409   4.081
 7549TIP3    H222612   1.252   4.485   4.063
 7550TIP3   OH222613   3.742   0.352   5.388
 7550TIP3    H122614   3.762   0.394   5.472
 7550TIP3    H222615   3.818   0.298   5.369
 7551TIP3   OH222616   4.825   0.571   1.313
 7551TIP3    H122617   4.858   0.594   1.400
 7551TIP3    H222618   4.894   0.515   1.276
 7552TIP3   OH222619   5.232   4.283   0.374
 7552TIP3    H122620   5.145   4.243   0.386
 7552TIP3    H222621   5.293   4.210   0.387
 7553TIP3   OH222622   7.156   1.329   3.273
 7553TIP3    H122623   7.187   1.290   3.191
 7553TIP3    H222624   7.107   1.260   3.316
 7554TIP3   OH222625   5.413   3.572   5.529
 7554TIP3    H122626   5.347   3.515   5.568
 7554TIP3    H222627   5.425   3.538   5.440
 7555TIP3   OH222628   3.945   5.045   0.901
 7555TIP3    H122629   3.999   5.016   0.975
 7555TIP3    H222630   4.002   5.034   0.825
 7556TIP3   OH222631   6.657   1.548   2.501
 7556TIP3    H122632   6.586   1.485   2.516
 7556TIP3    H222633   6.650   1.610   2.574
 7557TIP3   OH222634   1.906   1.638   5.010
 7557TIP3    H122635   1.960   1.590   5.072
 7557TIP3    H222636   1.967   1.665   4.941
 7558TIP3   OH222637   5.087   4.602   4.981
 7558TIP3    H122638   5.027   4.569   4.913
 7558TIP3    H222639   5.121   4.523   5.023
 7559TIP3   OH222640   6.674   6.788   4.939
 7559TIP3    H122641   6.653   6.702   4.975
 7559TIP3    H222642   6.659   6.850   5.011
 7560TIP3   OH222643   1.364   5.283   5.624
 7560TIP3    H122644   1.327   5.310   5.540
 7560TIP3    H222645   1.288   5.271   5.681
 7561TIP3   OH222646   2.944   2.078   3.232
 7561TIP3    H122647   2.942   2.171   3.207
 7561TIP3    H222648   2.859   2.044   3.206
 7562TIP3   OH222649   4.159   6.087   4.781
 7562TIP3    H122650   4.127   6.005   4.745
 7562TIP3    H222651   4.248   6.095   4.747
 7563TIP3   OH222652   2.017   5.474   3.081
 7563TIP3    H122653   2.097   5.487   3.030
 7563TIP3    H222654   2.017   5.381   3.102
 7564TIP3   OH222655   2.819   5.321   1.944
 7564TIP3    H122656   2.866   5.270   2.011
 7564TIP3    H222657   2.729   5.324   1.976
 7565TIP3   OH222658   5.349   4.438   0.123
 7565TIP3    H122659   5.424   4.493   0.100
 7565TIP3    H222660   5.337   4.381   0.047
 7566TIP3   OH222661   0.569   2.834   3.773
 7566TIP3    H122662   0.570   2.926   3.801
 7566TIP3    H222663   0.599   2.837   3.682
 7567TIP3   OH222664   0.587   4.932   3.613
 7567TIP3    H122665   0.560   4.841   3.627
 7567TIP3    H222666   0.634   4.930   3.529
 7568TIP3   OH222667   0.912   2.715   5.442
 7568TIP3    H122668   0.912   2.789   5.503
 7568TIP3    H222669   0.985   2.660   5.471
 7569TIP3   OH222670   4.183   6.686   3.139
 7569TIP3    H122671   4.254   6.748   3.128
 7569TIP3    H222672   4.200   6.618   3.073
 7570TIP3   OH222673   1.700   1.022   1.259
 7570TIP3    H122674   1.711   0.969   1.180
 7570TIP3    H222675   1.735   0.969   1.329
 7571TIP3   OH222676   2.391   4.249   5.708
 7571TIP3    H122677   2.483   4.268   5.724
 7571TIP3    H222678   2.353   4.333   5.681
 7572TIP3   OH222679   5.048   6.048   3.600
 7572TIP3    H122680   5.074   5.971   3.650
 7572TIP3    H222681   5.011   6.108   3.665
 7573TIP3   OH222682   1.563   5.061   4.239
 7573TIP3    H122683   1.601   4.975   4.223
 7573TIP3    H222684   1.566   5.105   4.154
 7574TIP3   OH222685   6.836   3.999   4.503
 7574TIP3    H122686   6.851   4.052   4.425
 7574TIP3    H222687   6.885   4.044   4.573
 7575TIP3   OH222688   4.255   5.999   3.323
 7575TIP3    H122689   4.342   5.999   3.362
 7575TIP3    H222690   4.244   6.089   3.290
 7576TIP3   OH222691   2.307   1.284   3.639
 7576TIP3    H122692   2.277   1.363   3.685
 7576TIP3    H222693   2.229   1.229   3.634
 7577TIP3   OH222694   3.069   3.460   1.097
 7577TIP3    H122695   3.024   3.499   1.172
 7577TIP3    H222696   3.002   3.408   1.053
 7578TIP3   OH222697   3.500   6.130   0.316
 7578TIP3    H122698   3.559   6.068   0.358
 7578TIP3    H222699   3.412   6.098   0.336
 7579TIP3   OH222700   0.217   5.958   1.897
 7579TIP3    H122701   0.257   5.914   1.823
 7579TIP3    H222702   0.123   5.942   1.887
 7580TIP3   OH222703   1.537   2.461   2.750
 7580TIP3    H122704   1.590   2.464   2.670
 7580TIP3    H222705   1.447   2.474   2.719
 7581TIP3   OH222706   1.412   2.892   4.958
 7581TIP3    H122707   1.411   2.802   4.925
 7581TIP3    H222708   1.502   2.920   4.946
 7582TIP3   OH222709   0.592   4.628   0.670
 7582TIP3    H122710   0.651   4.561   0.637
 7582TIP3    H222711   0.549   4.663   0.592
 7583TIP3   OH222712   6.909   2.634   3.369
 7583TIP3    H122713   6.910   2.677   3.283
 7583TIP3    H222714   6.836   2.676   3.415
 7584TIP3   OH222715   5.131   5.167   1.055
 7584TIP3    H122716   5.064   5.132   1.114
 7584TIP3    H222717   5.186   5.222   1.110
 7585TIP3   OH222718   0.318   5.070   3.415
 7585TIP3    H122719   0.357   5.019   3.486
 7585TIP3    H222720   0.382   5.064   3.344
 7586TIP3   OH222721   6.441   1.053   1.342
 7586TIP3    H122722   6.394   1.107   1.279
 7586TIP3    H222723   6.428   0.963   1.312
 7587TIP3   OH222724   4.751   6.808   5.810
 7587TIP3    H122725   4.782   6.858   5.886
 7587TIP3    H222726   4.660   6.836   5.799
 7588TIP3   OH222727   1.064   4.167   5.812
 7588TIP3    H122728   1.084   4.108   5.739
 7588TIP3    H222729   0.980   4.136   5.846
 7589TIP3   OH222730   0.465   3.417   5.815
 7589TIP3    H122731   0.434   3.341   5.766
 7589TIP3    H222732   0.406   3.423   5.890
 7590TIP3   OH222733   2.643   1.137   2.613
 7590TIP3    H122734   2.608   1.078   2.680
 7590TIP3    H222735   2.731   1.103   2.595
 7591TIP3   OH222736   2.851   0.346   1.867
 7591TIP3    H122737   2.896   0.280   1.918
 7591TIP3    H222738   2.918   0.382   1.809
 7592TIP3   OH222739   0.742   1.866   0.364
 7592TIP3    H122740   0.738   1.806   0.290
 7592TIP3    H222741   0.705   1.816   0.437
 7593TIP3   OH222742   2.666   1.201   2.320
 7593TIP3    H122743   2.584   1.170   2.281
 7593TIP3    H222744   2.666   1.163   2.408
 7594TIP3   OH222745   0.828   4.727   0.478
 7594TIP3    H122746   0.809   4.634   0.470
 7594TIP3    H222747   0.890   4.746   0.408
 7595TIP3   OH222748   4.677   4.077   0.947
 7595TIP3    H122749   4.634   4.041   0.870
 7595TIP3    H222750   4.605   4.101   1.006
 7596TIP3   OH222751   3.583   0.226   4.868
 7596TIP3    H122752   3.531   0.290   4.819
 7596TIP3    H222753   3.609   0.273   4.948
 7597TIP3   OH222754   4.776   3.902   1.152
 7597TIP3    H122755   4.863   3.939   1.170
 7597TIP3    H222756   4.727   3.975   1.114
 7598TIP3   OH222757  -0.013   1.904   5.274
 7598TIP3    H122758  -0.034   1.900   5.181
 7598TIP3    H222759   0.073   1.946   5.277
 7599TIP3   OH222760   1.404   2.834   1.850
 7599TIP3    H122761   1.343   2.767   1.879
 7599TIP3    H222762   1.419   2.888   1.927
 7600TIP3   OH222763   4.740   2.063   4.057
 7600TIP3    H122764   4.679   2.136   4.050
 7600TIP3    H222765   4.715   2.004   3.986
 7601TIP3   OH222766   5.879   6.259   2.451
 7601TIP3    H122767   5.890   6.169   2.482
 7601TIP3    H222768   5.954   6.307   2.486
 7602TIP3   OH222769   6.999   5.206   5.087
 7602TIP3    H122770   7.039   5.119   5.073
 7602TIP3    H222771   7.040   5.262   5.020
 7603TIP3   OH222772   0.324   5.405   1.159
 7603TIP3    H122773   0.375   5.486   1.166
 7603TIP3    H222774   0.255   5.425   1.097
 7604TIP3   OH222775   0.206   1.042   1.293
 7604TIP3    H122776   0.281   1.000   1.336
 7604TIP3    H222777   0.130   0.990   1.319
 7605TIP3   OH222778   3.582   2.665   5.518
 7605TIP3    H122779   3.559   2.758   5.525
 7605TIP3    H222780   3.598   2.652   5.424
 7606TIP3   OH222781   2.332   5.245   0.669
 7606TIP3    H122782   2.386   5.318   0.698
 7606TIP3    H222783   2.317   5.193   0.747
 7607TIP3   OH222784   6.891   5.087   3.028
 7607TIP3    H122785   6.857   5.147   2.961
 7607TIP3    H222786   6.967   5.046   2.986
 7608TIP3   OH222787   5.224   3.963   3.257
 7608TIP3    H122788   5.269   3.970   3.173
 7608TIP3    H222789   5.183   3.877   3.255
 7609TIP3   OH222790   7.138   6.753   2.509
 7609TIP3    H122791   7.083   6.681   2.541
 7609TIP3    H222792   7.221   6.741   2.554
 7610TIP3   OH222793   6.562   2.791   3.220
 7610TIP3    H122794   6.594   2.802   3.309
 7610TIP3    H222795   6.472   2.826   3.222
 7611TIP3   OH222796   1.378   0.316   3.323
 7611TIP3    H122797   1.333   0.387   3.369
 7611TIP3    H222798   1.413   0.358   3.244
 7612TIP3   OH222799   4.176   5.232   4.448
 7612TIP3    H122800   4.169   5.149   4.400
 7612TIP3    H222801   4.205   5.295   4.383
 7613TIP3   OH222802   3.294   1.124   0.741
 7613TIP3    H122803   3.282   1.218   0.757
 7613TIP3    H222804   3.387   1.114   0.721
 7614TIP3   OH222805   2.964   5.903   0.763
 7614TIP3    H122806   2.930   5.861   0.684
 7614TIP3    H222807   2.891   5.956   0.795
 7615TIP3   OH222808   6.598   2.114   3.673
 7615TIP3    H122809   6.628   2.028   3.644
 7615TIP3    H222810   6.535   2.141   3.605
 7616TIP3   OH222811   1.161   6.804   2.319
 7616TIP3    H122812   1.187   6.832   2.231
 7616TIP3    H222813   1.182   6.879   2.375
 7617TIP3   OH222814   5.080   4.312   2.791
 7617TIP3    H122815   5.130   4.267   2.723
 7617TIP3    H222816   4.989   4.290   2.771
 7618TIP3   OH222817   6.126   3.152   0.153
 7618TIP3    H122818   6.105   3.093   0.081
 7618TIP3    H222819   6.218   3.134   0.174
 7619TIP3   OH222820   7.110   2.849   5.107
 7619TIP3    H122821   7.099   2.894   5.190
 7619TIP3    H222822   7.121   2.919   5.042
 7620TIP3   OH222823   2.761   5.525   3.986
 7620TIP3    H122824   2.708   5.451   3.956
 7620TIP3    H222825   2.808   5.555   3.908
 7621TIP3   OH222826   3.120   1.079   5.383
 7621TIP3    H122827   3.153   0.989   5.391
 7621TIP3    H222828   3.194   1.129   5.350
 7622TIP3   OH222829   3.639   4.220   1.711
 7622TIP3    H122830   3.609   4.182   1.628
 7622TIP3    H222831   3.721   4.174   1.729
 7623TIP3   OH222832   1.754   2.764   3.792
 7623TIP3    H122833   1.744   2.747   3.886
 7623TIP3    H222834   1.670   2.802   3.765
 7624TIP3   OH222835   3.356   2.280   2.412
 7624TIP3    H122836   3.404   2.237   2.341
 7624TIP3    H222837   3.265   2.253   2.398
 7625TIP3   OH222838   4.157   6.646   0.207
 7625TIP3    H122839   4.189   6.704   0.276
 7625TIP3    H222840   4.091   6.591   0.249
 7626TIP3   OH222841   6.900   4.882   3.676
 7626TIP3    H122842   6.860   4.915   3.596
 7626TIP3    H222843   6.853   4.927   3.747
 7627TIP3   OH222844   6.103   0.094   4.699
 7627TIP3    H122845   6.052   0.107   4.618
 7627TIP3    H222846   6.131   0.182   4.723
 7628TIP3   OH222847   3.594   1.313   1.582
 7628TIP3    H122848   3.662   1.300   1.516
 7628TIP3    H222849   3.583   1.408   1.588
 7629TIP3   OH222850   3.033   3.473   4.706
 7629TIP3    H122851   3.072   3.489   4.791
 7629TIP3    H222852   2.939   3.483   4.721
 7630TIP3   OH222853   4.429   3.150   4.379
 7630TIP3    H122854   4.516   3.187   4.395
 7630TIP3    H222855   4.405   3.183   4.292
 7631TIP3   OH222856   5.478   0.575   1.968
 7631TIP3    H122857   5.452   0.485   1.990
 7631TIP3    H222858   5.445   0.627   2.041
 7632TIP3   OH222859   4.673   0.778   1.519
 7632TIP3    H122860   4.721   0.861   1.520
 7632TIP3    H222861   4.734   0.715   1.558
 7633TIP3   OH222862   4.817   5.202   1.536
 7633TIP3    H122863   4.903   5.219   1.576
 7633TIP3    H222864   4.824   5.241   1.449
 7634TIP3   OH222865   2.823   4.090   0.446
 7634TIP3    H122866   2.753   4.121   0.387
 7634TIP3    H222867   2.903   4.102   0.395
 7635TIP3   OH222868   0.592   1.806   5.616
 7635TIP3    H122869   0.617   1.869   5.684
 7635TIP3    H222870   0.538   1.856   5.555
 7636TIP3   OH222871   5.560   1.235   0.181
 7636TIP3    H122872   5.574   1.327   0.203
 7636TIP3    H222873   5.562   1.190   0.266
 7637TIP3   OH222874   5.104   1.268   0.554
 7637TIP3    H122875   5.195   1.295   0.563
 7637TIP3    H222876   5.109   1.178   0.521
 7638TIP3   OH222877   3.344   4.759   3.111
 7638TIP3    H122878   3.356   4.834   3.053
 7638TIP3    H222879   3.418   4.765   3.173
 7639TIP3   OH222880   2.539   2.319   2.571
 7639TIP3    H122881   2.523   2.401   2.524
 7639TIP3    H222882   2.629   2.327   2.603
 7640TIP3   OH222883   4.932   0.519   3.648
 7640TIP3    H122884   4.956   0.430   3.674
 7640TIP3    H222885   4.987   0.575   3.704
 7641TIP3   OH222886   2.977   5.246   0.681
 7641TIP3    H122887   3.052   5.186   0.683
 7641TIP3    H222888   2.942   5.238   0.592
 7642TIP3   OH222889   0.448   5.270   5.670
 7642TIP3    H122890   0.364   5.314   5.682
 7642TIP3    H222891   0.479   5.299   5.584
 7643TIP3   OH222892   6.899   5.194   1.468
 7643TIP3    H122893   6.910   5.252   1.393
 7643TIP3    H222894   6.945   5.239   1.540
 7644TIP3   OH222895   4.737   5.650   4.127
 7644TIP3    H122896   4.712   5.605   4.208
 7644TIP3    H222897   4.757   5.578   4.066
 7645TIP3   OH222898   0.673   5.492   3.789
 7645TIP3    H122899   0.645   5.583   3.795
 7645TIP3    H222900   0.765   5.497   3.762
 7646TIP3   OH222901   6.649   5.553   4.829
 7646TIP3    H122902   6.612   5.530   4.744
 7646TIP3    H222903   6.742   5.531   4.822
 7647TIP3   OH222904   1.942   4.069   4.364
 7647TIP3    H122905   1.915   4.139   4.305
 7647TIP3    H222906   2.015   4.027   4.319
 7648TIP3   OH222907   7.160   0.511   3.886
 7648TIP3    H122908   7.225   0.501   3.816
 7648TIP3    H222909   7.212   0.521   3.966
 7649TIP3   OH222910   6.556   6.542   3.522
 7649TIP3    H122911   6.592   6.562   3.609
 7649TIP3    H222912   6.551   6.627   3.478
 7650TIP3   OH222913   3.113   1.385   5.850
 7650TIP3    H122914   3.086   1.369   5.759
 7650TIP3    H222915   3.151   1.472   5.848
 7651TIP3   OH222916   5.026   3.655   3.514
 7651TIP3    H122917   5.013   3.560   3.505
 7651TIP3    H222918   4.940   3.688   3.539
 7652TIP3   OH222919   2.549   2.132   2.881
 7652TIP3    H122920   2.502   2.091   2.953
 7652TIP3    H222921   2.543   2.226   2.899
 7653TIP3   OH222922   5.906   3.377   4.804
 7653TIP3    H122923   5.970   3.436   4.765
 7653TIP3    H222924   5.905   3.301   4.746
 7654TIP3   OH222925   6.793   1.769   3.692
 7654TIP3    H122926   6.864   1.708   3.710
 7654TIP3    H222927   6.805   1.839   3.755
 7655TIP3   OH222928   4.883   6.603   1.205
 7655TIP3    H122929   4.977   6.589   1.199
 7655TIP3    H222930   4.862   6.659   1.131
 7656TIP3   OH222931   1.696   4.747   4.668
 7656TIP3    H122932   1.742   4.709   4.593
 7656TIP3    H222933   1.613   4.778   4.632
 7657TIP3   OH222934   2.781   1.225   1.205
 7657TIP3    H122935   2.875   1.223   1.221
 7657TIP3    H222936   2.752   1.134   1.219
 7658TIP3   OH222937   1.001   0.329   0.172
 7658TIP3    H122938   0.984   0.423   0.180
 7658TIP3    H222939   1.061   0.309   0.245
 7659TIP3   OH222940   4.552   1.653   2.873
 7659TIP3    H122941   4.467   1.610   2.864
 7659TIP3    H222942   4.615   1.581   2.874
 7660TIP3   OH222943   4.111   4.612   0.171
 7660TIP3    H122944   4.132   4.527   0.133
 7660TIP3    H222945   4.189   4.665   0.154
 7661TIP3   OH222946   0.210   0.979   1.863
 7661TIP3    H122947   0.264   1.013   1.934
 7661TIP3    H222948   0.195   1.055   1.806
 7662TIP3   OH222949   1.007   1.322   2.202
 7662TIP3    H122950   1.056   1.338   2.283
 7662TIP3    H222951   1.014   1.227   2.189
 7663TIP3   OH222952   1.070   6.278   2.262
 7663TIP3    H122953   1.148   6.241   2.302
 7663TIP3    H222954   1.050   6.356   2.314
 7664TIP3   OH222955   3.637   3.709   4.526
 7664TIP3    H122956   3.612   3.619   4.503
 7664TIP3    H222957   3.591   3.726   4.609
 7665TIP3   OH222958   3.524   2.842   1.012
 7665TIP3    H122959   3.572   2.847   1.095
 7665TIP3    H222960   3.548   2.921   0.965
 7666TIP3   OH222961   6.035   1.261   4.187
 7666TIP3    H122962   6.123   1.225   4.200
 7666TIP3    H222963   6.047   1.332   4.124
 7667TIP3   OH222964   4.169   2.024   1.352
 7667TIP3    H122965   4.151   1.972   1.274
 7667TIP3    H222966   4.140   1.968   1.425
 7668TIP3   OH222967   4.500   1.290   1.386
 7668TIP3    H122968   4.545   1.253   1.310
 7668TIP3    H222969   4.464   1.213   1.432
 7669TIP3   OH222970   1.193   1.852   5.834
 7669TIP3    H122971   1.278   1.871   5.874
 7669TIP3    H222972   1.188   1.756   5.834
 7670TIP3   OH222973   3.014   2.458   4.355
 7670TIP3    H122974   3.066   2.536   4.336
 7670TIP3    H222975   3.033   2.398   4.283
 7671TIP3   OH222976   3.514   4.131   5.483
 7671TIP3    H122977   3.434   4.104   5.528
 7671TIP3    H222978   3.582   4.127   5.550
 7672TIP3   OH222979   0.873   4.495   1.929
 7672TIP3    H122980   0.938   4.501   1.859
 7672TIP3    H222981   0.857   4.586   1.955
 7673TIP3   OH222982   2.492   2.882   0.915
 7673TIP3    H122983   2.537   2.828   0.851
 7673TIP3    H222984   2.527   2.854   1.000
 7674TIP3   OH222985   1.367   6.012   2.808
 7674TIP3    H122986   1.356   6.106   2.817
 7674TIP3    H222987   1.387   5.981   2.897
 7675TIP3   OH222988   6.730   2.428   2.426
 7675TIP3    H122989   6.679   2.348   2.443
 7675TIP3    H222990   6.814   2.396   2.394
 7676TIP3   OH222991   5.982   6.497   1.237
 7676TIP3    H122992   5.992   6.411   1.278
 7676TIP3    H222993   6.065   6.541   1.253
 7677TIP3   OH222994   4.771   0.858   4.699
 7677TIP3    H122995   4.686   0.862   4.743
 7677TIP3    H222996   4.761   0.790   4.633
 7678TIP3   OH222997   3.984   4.870   2.929
 7678TIP3    H122998   4.022   4.880   3.016
 7678TIP3    H222999   3.889   4.871   2.944
 7679TIP3   OH223000   6.321   2.037   0.992
 7679TIP3    H123001   6.235   1.997   0.981
 7679TIP3    H223002   6.354   2.048   0.903
 7680TIP3   OH223003   4.537   6.424   3.081
 7680TIP3    H123004   4.501   6.354   3.027
 7680TIP3    H223005   4.548   6.384   3.168
 7681TIP3   OH223006   2.024   3.071   2.901
 7681TIP3    H123007   1.967   3.139   2.866
 7681TIP3    H223008   1.964   2.999   2.923
 7682TIP3   OH223009   5.130   1.211   4.858
 7682TIP3    H123010   5.128   1.290   4.912
 7682TIP3    H223011   5.146   1.243   4.769
 7683TIP3   OH223012   2.926   6.309   2.405
 7683TIP3    H123013   2.906   6.237   2.465
 7683TIP3    H223014   2.876   6.287   2.325
 7684TIP3   OH223015   2.197   0.810   3.825
 7684TIP3    H123016   2.220   0.900   3.802
 7684TIP3    H223017   2.160   0.817   3.913
 7685TIP3   OH223018   3.725   5.882   3.680
 7685TIP3    H123019   3.672   5.943   3.731
 7685TIP3    H223020   3.765   5.936   3.612
 7686TIP3   OH223021   2.030   6.021   4.197
 7686TIP3    H123022   1.966   5.976   4.143
 7686TIP3    H223023   2.049   5.959   4.268
 7687TIP3   OH223024   6.345   4.418   0.105
 7687TIP3    H123025   6.367   4.448   0.193
 7687TIP3    H223026   6.391   4.479   0.047
 7688TIP3   OH223027   6.007   2.159   5.167
 7688TIP3    H123028   6.075   2.092   5.171
 7688TIP3    H223029   5.994   2.176   5.074
 7689TIP3   OH223030   0.385   1.764   1.454
 7689TIP3    H123031   0.384   1.735   1.545
 7689TIP3    H223032   0.472   1.803   1.442
 7690TIP3   OH223033   1.395   5.382   1.978
 7690TIP3    H123034   1.337   5.440   2.027
 7690TIP3    H223035   1.404   5.424   1.892
 7691TIP3   OH223036   3.713   2.371   3.524
 7691TIP3    H123037   3.694   2.370   3.618
 7691TIP3    H223038   3.646   2.314   3.485
 7692TIP3   OH223039   5.264   5.321   1.229
 7692TIP3    H123040   5.239   5.357   1.314
 7692TIP3    H223041   5.325   5.385   1.192
 7693TIP3   OH223042   0.955   1.737   1.417
 7693TIP3    H123043   0.906   1.796   1.474
 7693TIP3    H223044   1.045   1.743   1.450
 7694TIP3   OH223045   6.485   3.357   1.850
 7694TIP3    H123046   6.554   3.294   1.869
 7694TIP3    H223047   6.500   3.383   1.759
 7695TIP3   OH223048   3.127   1.813   1.649
 7695TIP3    H123049   3.145   1.719   1.660
 7695TIP3    H223050   3.108   1.823   1.556
 7696TIP3   OH223051   5.719   0.350   1.742
 7696TIP3    H123052   5.629   0.326   1.719
 7696TIP3    H223053   5.710   0.425   1.801
 7697TIP3   OH223054   5.680   2.037   1.038
 7697TIP3    H123055   5.609   2.058   1.098
 7697TIP3    H223056   5.636   2.003   0.959
 7698TIP3   OH223057   3.325   4.287   1.219
 7698TIP3    H123058   3.331   4.251   1.131
 7698TIP3    H223059   3.412   4.273   1.257
 7699TIP3   OH223060   4.707   3.120   4.599
 7699TIP3    H123061   4.795   3.135   4.634
 7699TIP3    H223062   4.710   3.157   4.511
 7700TIP3   OH223063   6.458   6.238   4.067
 7700TIP3    H123064   6.440   6.167   4.005
 7700TIP3    H223065   6.534   6.283   4.031
 7701TIP3   OH223066   4.257   3.733   3.489
 7701TIP3    H123067   4.326   3.751   3.552
 7701TIP3    H223068   4.176   3.738   3.540
 7702TIP3   OH223069   2.144   1.834   2.300
 7702TIP3    H123070   2.205   1.908   2.300
 7702TIP3    H223071   2.153   1.796   2.213
 7703TIP3   OH223072   4.577   3.754   1.357
 7703TIP3    H123073   4.653   3.776   1.302
 7703TIP3    H223074   4.615   3.709   1.432
 7704TIP3   OH223075   1.311   5.274   4.194
 7704TIP3    H123076   1.254   5.347   4.168
 7704TIP3    H223077   1.390   5.316   4.226
 7705TIP3   OH223078   2.171   5.823   1.243
 7705TIP3    H123079   2.102   5.881   1.211
 7705TIP3    H223080   2.143   5.798   1.331
 7706TIP3   OH223081   6.945   5.074   0.918
 7706TIP3    H123082   6.986   4.993   0.889
 7706TIP3    H223083   7.013   5.141   0.908
 7707TIP3   OH223084   6.276   2.226   2.360
 7707TIP3    H123085   6.207   2.160   2.362
 7707TIP3    H223086   6.261   2.279   2.438
 7708TIP3   OH223087   4.223   3.612   2.860
 7708TIP3    H123088   4.290   3.614   2.929
 7708TIP3    H223089   4.255   3.674   2.795
 7709TIP3   OH223090   4.785   0.163   2.536
 7709TIP3    H123091   4.811   0.071   2.538
 7709TIP3    H223092   4.861   0.207   2.497
 7710TIP3   OH223093   3.702   6.305   3.608
 7710TIP3    H123094   3.779   6.358   3.588
 7710TIP3    H223095   3.687   6.318   3.701
 7711TIP3   OH223096   6.967   3.328   1.907
 7711TIP3    H123097   6.991   3.409   1.861
 7711TIP3    H223098   6.871   3.328   1.906
 7712TIP3   OH223099   3.938   0.070   2.387
 7712TIP3    H123100   3.888   0.001   2.431
 7712TIP3    H223101   4.017   0.079   2.441
 7713TIP3   OH223102   7.078   5.131   3.364
 7713TIP3    H123103   7.086   5.040   3.337
 7713TIP3    H223104   7.005   5.131   3.427
 7714TIP3   OH223105   5.334   1.442   4.497
 7714TIP3    H123106   5.391   1.407   4.428
 7714TIP3    H223107   5.291   1.366   4.534
 7715TIP3   OH223108   2.832   5.188   0.149
 7715TIP3    H123109   2.748   5.231   0.140
 7715TIP3    H223110   2.836   5.126   0.076
 7716TIP3   OH223111   2.893   3.056   3.040
 7716TIP3    H123112   2.872   3.141   3.000
 7716TIP3    H223113   2.842   2.993   2.990
 7717TIP3   OH223114   5.917   5.562   1.616
 7717TIP3    H123115   5.831   5.539   1.579
 7717TIP3    H223116   5.896   5.602   1.701
 7718TIP3   OH223117   3.608   1.366   1.928
 7718TIP3    H123118   3.548   1.396   1.996
 7718TIP3    H223119   3.621   1.443   1.873
 7719TIP3   OH223120   3.929   4.049   1.165
 7719TIP3    H123121   3.858   3.987   1.146
 7719TIP3    H223122   3.985   4.046   1.087
 7720TIP3   OH223123   4.140   1.799   4.740
 7720TIP3    H123124   4.197   1.820   4.666
 7720TIP3    H223125   4.192   1.821   4.817
 7721TIP3   OH223126   3.121   2.535   5.144
 7721TIP3    H123127   3.105   2.621   5.183
 7721TIP3    H223128   3.062   2.531   5.068
 7722TIP3   OH223129   3.471   1.509   2.135
 7722TIP3    H123130   3.469   1.598   2.101
 7722TIP3    H223131   3.389   1.500   2.185
 7723TIP3   OH223132   0.637   1.837   1.397
 7723TIP3    H123133   0.674   1.883   1.322
 7723TIP3    H223134   0.708   1.781   1.428
 7724TIP3   OH223135   1.176   6.278   4.276
 7724TIP3    H123136   1.162   6.316   4.363
 7724TIP3    H223137   1.100   6.222   4.261
 7725TIP3   OH223138   1.928   6.398   3.937
 7725TIP3    H123139   1.991   6.469   3.944
 7725TIP3    H223140   1.974   6.321   3.970
 7726TIP3   OH223141   2.621   4.409   0.510
 7726TIP3    H123142   2.626   4.328   0.459
 7726TIP3    H223143   2.686   4.397   0.580
 7727TIP3   OH223144   6.068   0.818   2.952
 7727TIP3    H123145   6.098   0.837   3.041
 7727TIP3    H223146   5.991   0.874   2.940
 7728TIP3   OH223147   4.568   4.357   0.681
 7728TIP3    H123148   4.552   4.417   0.754
 7728TIP3    H223149   4.663   4.348   0.677
 7729TIP3   OH223150   3.370   6.173   4.123
 7729TIP3    H123151   3.371   6.209   4.035
 7729TIP3    H223152   3.416   6.238   4.177
 7730TIP3   OH223153   6.790   3.787   1.068
 7730TIP3    H123154   6.852   3.808   0.998
 7730TIP3    H223155   6.762   3.872   1.101
 7731TIP3   OH223156   4.566   5.114   1.444
 7731TIP3    H123157   4.524   5.146   1.524
 7731TIP3    H223158   4.658   5.107   1.466
 7732TIP3   OH223159   5.280   0.315  -0.015
 7732TIP3    H123160   5.297   0.249  -0.082
 7732TIP3    H223161   5.191   0.298   0.014
 7733TIP3   OH223162   3.489   4.389   2.982
 7733TIP3    H123163   3.461   4.348   3.064
 7733TIP3    H223164   3.510   4.479   3.007
 7734TIP3   OH223165   4.120   1.234   1.744
 7734TIP3    H123166   4.120   1.145   1.781
 7734TIP3    H223167   4.084   1.289   1.814
 7735TIP3   OH223168   3.634   3.208   1.996
 7735TIP3    H123169   3.620   3.294   2.037
 7735TIP3    H223170   3.607   3.146   2.063
 7736TIP3   OH223171   2.239   2.179   0.711
 7736TIP3    H123172   2.314   2.217   0.665
 7736TIP3    H223173   2.278   2.130   0.784
 7737TIP3   OH223174   2.906   2.516   5.316
 7737TIP3    H123175   2.988   2.471   5.335
 7737TIP3    H223176   2.933   2.592   5.263
 7738TIP3   OH223177   4.889   4.240   1.041
 7738TIP3    H123178   4.819   4.179   1.021
 7738TIP3    H223179   4.866   4.277   1.127
 7739TIP3   OH223180   6.687   6.117   3.632
 7739TIP3    H123181   6.744   6.132   3.707
 7739TIP3    H223182   6.637   6.039   3.655
 7740TIP3   OH223183   4.989   6.031   4.061
 7740TIP3    H123184   4.984   5.945   4.101
 7740TIP3    H223185   5.006   6.091   4.134
 7741TIP3   OH223186   1.485   1.279   4.034
 7741TIP3    H123187   1.456   1.358   3.989
 7741TIP3    H223188   1.410   1.254   4.088
 7742TIP3   OH223189   6.692   2.911   1.727
 7742TIP3    H123190   6.653   2.902   1.639
 7742TIP3    H223191   6.618   2.905   1.787
 7743TIP3   OH223192   3.340   1.261   1.040
 7743TIP3    H123193   3.384   1.181   1.066
 7743TIP3    H223194   3.252   1.253   1.076
 7744TIP3   OH223195   7.252   3.211   3.311
 7744TIP3    H123196   7.176   3.154   3.301
 7744TIP3    H223197   7.241   3.277   3.243
 7745TIP3   OH223198   3.597   5.054   4.809
 7745TIP3    H123199   3.664   5.047   4.740
 7745TIP3    H223200   3.626   5.127   4.863
 7746TIP3   OH223201   3.691   0.147   3.997
 7746TIP3    H123202   3.759   0.163   4.062
 7746TIP3    H223203   3.636   0.079   4.037
 7747TIP3   OH223204   0.887   4.082   3.801
 7747TIP3    H123205   0.819   4.071   3.867
 7747TIP3    H223206   0.936   4.160   3.829
 7748TIP3   OH223207   5.925   1.347   0.493
 7748TIP3    H123208   5.864   1.273   0.493
 7748TIP3    H223209   5.997   1.319   0.549
 7749TIP3   OH223210   6.707   1.267   3.415
 7749TIP3    H123211   6.674   1.352   3.443
 7749TIP3    H223212   6.771   1.242   3.481
 7750TIP3   OH223213   3.248   5.363   2.499
 7750TIP3    H123214   3.234   5.270   2.516
 7750TIP3    H223215   3.339   5.378   2.525
 7751TIP3   OH223216   1.967   1.694   2.801
 7751TIP3    H123217   1.988   1.601   2.806
 7751TIP3    H223218   1.878   1.697   2.766
 7752TIP3   OH223219   7.161   4.180   5.262
 7752TIP3    H123220   7.146   4.236   5.339
 7752TIP3    H223221   7.118   4.097   5.283
 7753TIP3   OH223222   2.780   4.576   3.341
 7753TIP3    H123223   2.865   4.561   3.300
 7753TIP3    H223224   2.785   4.528   3.424
 7754TIP3   OH223225   4.742   1.786   0.755
 7754TIP3    H123226   4.649   1.764   0.764
 7754TIP3    H223227   4.778   1.776   0.843
 7755TIP3   OH223228   6.345   0.155   2.133
 7755TIP3    H123229   6.383   0.206   2.061
 7755TIP3    H223230   6.420   0.111   2.173
 7756TIP3   OH223231   2.344   6.356   3.019
 7756TIP3    H123232   2.298   6.334   3.100
 7756TIP3    H223233   2.366   6.271   2.980
 7757TIP3   OH223234   2.210   0.206   3.978
 7757TIP3    H123235   2.305   0.192   3.976
 7757TIP3    H223236   2.180   0.175   3.893
 7758TIP3   OH223237   4.504   5.595   2.531
 7758TIP3    H123238   4.512   5.635   2.618
 7758TIP3    H223239   4.557   5.516   2.537
 7759TIP3   OH223240   0.076   1.049   2.107
 7759TIP3    H123241  -0.015   1.033   2.083
 7759TIP3    H223242   0.083   1.144   2.112
 7760TIP3   OH223243   5.557   1.191   1.031
 7760TIP3    H123244   5.616   1.242   0.975
 7760TIP3    H223245   5.528   1.119   0.975
 7761TIP3   OH223246   1.221   5.687   5.497
 7761TIP3    H123247   1.197   5.742   5.422
 7761TIP3    H223248   1.287   5.738   5.544
 7762TIP3   OH223249   6.401   2.963   0.202
 7762TIP3    H123250   6.402   2.917   0.118
 7762TIP3    H223251   6.333   2.919   0.253
 7763TIP3   OH223252   4.849   5.063   3.927
 7763TIP3    H123253   4.908   5.092   3.857
 7763TIP3    H223254   4.863   5.126   3.997
 7764TIP3   OH223255   3.505   2.638   4.070
 7764TIP3    H123256   3.584   2.588   4.049
 7764TIP3    H223257   3.449   2.629   3.993
 7765TIP3   OH223258   6.271   1.241   5.930
 7765TIP3    H123259   6.305   1.202   5.850
 7765TIP3    H223260   6.315   1.326   5.936
 7766TIP3   OH223261   5.677   2.205   0.376
 7766TIP3    H123262   5.714   2.176   0.459
 7766TIP3    H223263   5.582   2.204   0.390
 7767TIP3   OH223264   0.569   4.764   2.786
 7767TIP3    H123265   0.561   4.804   2.699
 7767TIP3    H223266   0.663   4.762   2.803
 7768TIP3   OH223267   3.656   4.380   1.082
 7768TIP3    H123268   3.748   4.384   1.106
 7768TIP3    H223269   3.653   4.322   1.006
 7769TIP3   OH223270   5.809   5.199   3.761
 7769TIP3    H123271   5.851   5.190   3.676
 7769TIP3    H223272   5.852   5.134   3.817
 7770TIP3   OH223273   5.327   2.276   0.252
 7770TIP3    H123274   5.235   2.290   0.273
 7770TIP3    H223275   5.360   2.223   0.325
 7771TIP3   OH223276   3.204   4.787   2.275
 7771TIP3    H123277   3.120   4.747   2.252
 7771TIP3    H223278   3.267   4.716   2.266
 7772TIP3   OH223279   1.116   3.174   1.440
 7772TIP3    H123280   1.121   3.203   1.349
 7772TIP3    H223281   1.023   3.157   1.455
 7773TIP3   OH223282   0.306   0.590   4.234
 7773TIP3    H123283   0.223   0.546   4.214
 7773TIP3    H223284   0.362   0.569   4.159
 7774TIP3   OH223285   3.592   3.608   1.184
 7774TIP3    H123286   3.657   3.677   1.176
 7774TIP3    H223287   3.599   3.559   1.102
 7775TIP3   OH223288   2.161   0.094   3.732
 7775TIP3    H123289   2.113   0.105   3.650
 7775TIP3    H223290   2.230   0.030   3.711
 7776TIP3   OH223291   1.881   3.570   3.875
 7776TIP3    H123292   1.882   3.661   3.907
 7776TIP3    H223293   1.788   3.549   3.865
 7777TIP3   OH223294   3.154   0.607   5.103
 7777TIP3    H123295   3.221   0.568   5.160
 7777TIP3    H223296   3.200   0.678   5.058
 7778TIP3   OH223297   0.572   2.442   1.224
 7778TIP3    H123298   0.608   2.493   1.151
 7778TIP3    H223299   0.478   2.462   1.223
 7779TIP3   OH223300   5.989   0.076   0.990
 7779TIP3    H123301   6.016  -0.014   0.971
 7779TIP3    H223302   5.944   0.069   1.074
 7780TIP3   OH223303   3.617   4.107   4.990
 7780TIP3    H123304   3.628   4.074   5.079
 7780TIP3    H223305   3.700   4.088   4.947
 7781TIP3   OH223306   7.040   5.753   0.568
 7781TIP3    H123307   6.960   5.735   0.617
 7781TIP3    H223308   7.045   5.683   0.503
 7782TIP3   OH223309   5.529   5.016   2.581
 7782TIP3    H123310   5.457   4.979   2.530
 7782TIP3    H223311   5.492   5.095   2.620
 7783TIP3   OH223312   3.575   4.298   1.987
 7783TIP3    H123313   3.484   4.323   1.976
 7783TIP3    H223314   3.605   4.274   1.900
 7784TIP3   OH223315   0.239   3.429   4.053
 7784TIP3    H123316   0.320   3.453   4.099
 7784TIP3    H223317   0.240   3.334   4.051
 7785TIP3   OH223318   1.498   3.055   0.647
 7785TIP3    H123319   1.546   3.033   0.567
 7785TIP3    H223320   1.545   3.130   0.683
 7786TIP3   OH223321   4.525   2.289   2.449
 7786TIP3    H123322   4.563   2.297   2.536
 7786TIP3    H223323   4.584   2.338   2.392
 7787TIP3   OH223324   0.097   3.930   3.374
 7787TIP3    H123325   0.052   3.849   3.395
 7787TIP3    H223326   0.101   3.978   3.457
 7788TIP3   OH223327   6.234   1.210   1.708
 7788TIP3    H123328   6.213   1.198   1.615
 7788TIP3    H223329   6.187   1.289   1.733
 7789TIP3   OH223330   4.658   6.034   2.976
 7789TIP3    H123331   4.731   6.076   3.021
 7789TIP3    H223332   4.597   6.106   2.956
 7790TIP3   OH223333   5.088   4.505   1.133
 7790TIP3    H123334   5.174   4.547   1.127
 7790TIP3    H223335   5.105   4.412   1.119
 7791TIP3   OH223336   3.334   3.112   0.910
 7791TIP3    H123337   3.289   3.107   0.994
 7791TIP3    H223338   3.321   3.203   0.881
 7792TIP3   OH223339   3.264   3.279   1.192
 7792TIP3    H123340   3.298   3.365   1.218
 7792TIP3    H223341   3.178   3.297   1.154
 7793TIP3   OH223342   3.616   5.355   5.497
 7793TIP3    H123343   3.659   5.398   5.570
 7793TIP3    H223344   3.541   5.411   5.477
 7794TIP3   OH223345   6.481   5.068   1.783
 7794TIP3    H123346   6.476   4.975   1.761
 7794TIP3    H223347   6.548   5.103   1.724
 7795TIP3   OH223348   4.159   3.492   0.579
 7795TIP3    H123349   4.220   3.517   0.648
 7795TIP3    H223350   4.149   3.571   0.526
 7796TIP3   OH223351   5.000   5.904   1.404
 7796TIP3    H123352   5.011   5.895   1.309
 7796TIP3    H223353   4.914   5.945   1.415
 7797TIP3   OH223354   2.848   1.034   4.737
 7797TIP3    H123355   2.842   0.969   4.666
 7797TIP3    H223356   2.930   1.080   4.719
 7798TIP3   OH223357   1.917   5.330   1.781
 7798TIP3    H123358   2.009   5.301   1.782
 7798TIP3    H223359   1.871   5.259   1.736
 7799TIP3   OH223360   6.129   1.074   5.451
 7799TIP3    H123361   6.161   1.070   5.361
 7799TIP3    H223362   6.153   1.162   5.482
 7800TIP3   OH223363   6.773   1.999   0.149
 7800TIP3    H123364   6.718   2.036   0.080
 7800TIP3    H223365   6.723   1.924   0.181
 7801TIP3   OH223366   2.955   2.084   5.636
 7801TIP3    H123367   2.977   2.168   5.595
 7801TIP3    H223368   2.871   2.060   5.597
 7802TIP3   OH223369   3.383   6.297   3.141
 7802TIP3    H123370   3.395   6.317   3.234
 7802TIP3    H223371   3.327   6.367   3.108
 7803TIP3   OH223372   6.897   2.678   5.094
 7803TIP3    H123373   6.967   2.744   5.093
 7803TIP3    H223374   6.857   2.684   5.007
 7804TIP3   OH223375   4.263   0.494   3.285
 7804TIP3    H123376   4.356   0.475   3.296
 7804TIP3    H223377   4.225   0.410   3.257
 7805TIP3   OH223378   2.309   1.811   2.963
 7805TIP3    H123379   2.404   1.810   2.976
 7805TIP3    H223380   2.297   1.797   2.869
 7806TIP3   OH223381   5.407   2.296   2.851
 7806TIP3    H123382   5.455   2.217   2.828
 7806TIP3    H223383   5.316   2.278   2.827
 7807TIP3   OH223384   4.822   6.314   3.456
 7807TIP3    H123385   4.834   6.219   3.458
 7807TIP3    H223386   4.823   6.340   3.548
 7808TIP3   OH223387   3.236   2.559   4.221
 7808TIP3    H123388   3.261   2.591   4.134
 7808TIP3    H223389   3.226   2.639   4.273
 7809TIP3   OH223390   3.811   3.341   5.017
 7809TIP3    H123391   3.846   3.400   4.950
 7809TIP3    H223392   3.751   3.395   5.069
 7810TIP3   OH223393   7.045   3.839   4.954
 7810TIP3    H123394   6.972   3.791   4.995
 7810TIP3    H223395   7.026   3.837   4.860
 7811TIP3   OH223396   0.411   0.569   2.295
 7811TIP3    H123397   0.429   0.548   2.203
 7811TIP3    H223398   0.345   0.505   2.322
 7812TIP3   OH223399   3.039   5.516   0.700
 7812TIP3    H123400   2.997   5.430   0.704
 7812TIP3    H223401   3.112   5.505   0.639
 7813TIP3   OH223402   5.426   5.538   1.132
 7813TIP3    H123403   5.393   5.619   1.170
 7813TIP3    H223404   5.486   5.566   1.063
 7814TIP3   OH223405   4.213   0.207   3.208
 7814TIP3    H123406   4.205   0.262   3.130
 7814TIP3    H223407   4.158   0.131   3.190
 7815TIP3   OH223408   0.760   2.190   1.121
 7815TIP3    H123409   0.706   2.240   1.182
 7815TIP3    H223410   0.794   2.117   1.172
 7816TIP3   OH223411   1.626   5.259   1.203
 7816TIP3    H123412   1.555   5.286   1.144
 7816TIP3    H223413   1.647   5.170   1.176
 7817TIP3   OH223414   3.763   5.507   5.673
 7817TIP3    H123415   3.718   5.534   5.753
 7817TIP3    H223416   3.854   5.496   5.699
 7818TIP3   OH223417   6.684   5.359   5.249
 7818TIP3    H123418   6.623   5.285   5.244
 7818TIP3    H223419   6.766   5.321   5.281
 7819TIP3   OH223420   2.110   5.650   5.502
 7819TIP3    H123421   2.181   5.587   5.515
 7819TIP3    H223422   2.074   5.664   5.589
 7820TIP3   OH223423   2.849   0.485   3.565
 7820TIP3    H123424   2.799   0.564   3.545
 7820TIP3    H223425   2.800   0.415   3.521
 7821TIP3   OH223426   4.295   4.507   3.490
 7821TIP3    H123427   4.221   4.517   3.550
 7821TIP3    H223428   4.254   4.499   3.404
 7822TIP3   OH223429   0.141   0.172   3.652
 7822TIP3    H123430   0.120   0.101   3.713
 7822TIP3    H223431   0.075   0.239   3.670
 7823TIP3   OH223432   0.228   2.980   3.744
 7823TIP3    H123433   0.263   2.913   3.686
 7823TIP3    H223434   0.248   2.949   3.832
 7824TIP3   OH223435   0.573   6.036   4.035
 7824TIP3    H123436   0.621   5.998   4.108
 7824TIP3    H223437   0.491   6.068   4.075
 7825TIP3   OH223438   3.038   4.609   0.606
 7825TIP3    H123439   3.121   4.615   0.559
 7825TIP3    H223440   3.017   4.515   0.606
 7826TIP3   OH223441   0.878   2.538   5.828
 7826TIP3    H123442   0.900   2.629   5.809
 7826TIP3    H223443   0.791   2.542   5.869
 7827TIP3   OH223444   6.704   3.346   4.885
 7827TIP3    H123445   6.611   3.324   4.890
 7827TIP3    H223446   6.742   3.306   4.963
 7828TIP3   OH223447   6.539   4.682   1.899
 7828TIP3    H123448   6.607   4.738   1.936
 7828TIP3    H223449   6.461   4.700   1.951
 7829TIP3   OH223450   6.902   1.738   2.596
 7829TIP3    H123451   6.820   1.788   2.597
 7829TIP3    H223452   6.875   1.647   2.608
 7830TIP3   OH223453   1.000   3.597   2.308
 7830TIP3    H123454   1.066   3.650   2.264
 7830TIP3    H223455   0.973   3.649   2.383
 7831TIP3   OH223456   2.477   2.621   5.690
 7831TIP3    H123457   2.559   2.604   5.644
 7831TIP3    H223458   2.503   2.637   5.781
 7832TIP3   OH223459   4.346   0.948   0.274
 7832TIP3    H123460   4.276   1.012   0.269
 7832TIP3    H223461   4.426   1.000   0.267
 7833TIP3   OH223462   0.369   2.492   2.517
 7833TIP3    H123463   0.397   2.407   2.553
 7833TIP3    H223464   0.449   2.545   2.517
 7834TIP3   OH223465   0.903   0.503   5.198
 7834TIP3    H123466   0.887   0.494   5.104
 7834TIP3    H223467   0.865   0.424   5.236
 7835TIP3   OH223468   2.535   0.926   5.355
 7835TIP3    H123469   2.516   0.848   5.303
 7835TIP3    H223470   2.599   0.975   5.303
 7836TIP3   OH223471   0.441   0.460   3.979
 7836TIP3    H123472   0.435   0.383   3.922
 7836TIP3    H223473   0.387   0.526   3.936
 7837TIP3   OH223474   6.918   0.437   1.244
 7837TIP3    H123475   6.901   0.346   1.268
 7837TIP3    H223476   6.907   0.486   1.326
 7838TIP3   OH223477   6.122   1.668   4.424
 7838TIP3    H123478   6.133   1.577   4.396
 7838TIP3    H223479   6.036   1.669   4.467
 7839TIP3   OH223480   4.037   1.468   4.166
 7839TIP3    H123481   4.060   1.378   4.145
 7839TIP3    H223482   3.942   1.471   4.156
 7840TIP3   OH223483   3.427   0.096   2.049
 7840TIP3    H123484   3.364   0.150   2.002
 7840TIP3    H223485   3.396   0.096   2.139
 7841TIP3   OH223486   1.947   1.971   3.235
 7841TIP3    H123487   1.869   1.955   3.181
 7841TIP3    H223488   2.008   1.902   3.210
 7842TIP3   OH223489   1.961   0.902   3.417
 7842TIP3    H123490   1.885   0.858   3.380
 7842TIP3    H223491   1.973   0.979   3.362
 7843TIP3   OH223492   0.404   3.857   3.795
 7843TIP3    H123493   0.399   3.913   3.718
 7843TIP3    H223494   0.331   3.795   3.785
 7844TIP3   OH223495   3.074   0.110   4.882
 7844TIP3    H123496   3.055   0.043   4.816
 7844TIP3    H223497   3.038   0.190   4.845
 7845TIP3   OH223498   4.161   3.815   4.003
 7845TIP3    H123499   4.090   3.855   4.053
 7845TIP3    H223500   4.124   3.732   3.972
 7846TIP3   OH223501   3.096   4.574   1.973
 7846TIP3    H123502   3.178   4.525   1.977
 7846TIP3    H223503   3.100   4.621   1.890
 7847TIP3   OH223504   3.819   0.841   4.472
 7847TIP3    H123505   3.755   0.850   4.401
 7847TIP3    H223506   3.824   0.747   4.487
 7848TIP3   OH223507   4.441   5.266   3.163
 7848TIP3    H123508   4.451   5.356   3.193
 7848TIP3    H223509   4.529   5.239   3.136
 7849TIP3   OH223510   4.370   5.474   1.634
 7849TIP3    H123511   4.341   5.399   1.686
 7849TIP3    H223512   4.465   5.468   1.636
 7850TIP3   OH223513   6.457   4.687   5.730
 7850TIP3    H123514   6.538   4.636   5.728
 7850TIP3    H223515   6.389   4.624   5.707
 7851TIP3   OH223516   1.400   4.295   5.462
 7851TIP3    H123517   1.404   4.282   5.367
 7851TIP3    H223518   1.387   4.207   5.497
 7852TIP3   OH223519   5.756   2.286   1.439
 7852TIP3    H123520   5.743   2.278   1.534
 7852TIP3    H223521   5.806   2.207   1.416
 7853TIP3   OH223522   2.744   2.903   5.276
 7853TIP3    H123523   2.768   2.914   5.368
 7853TIP3    H223524   2.659   2.859   5.279
 7854TIP3   OH223525   4.714   5.520   3.035
 7854TIP3    H123526   4.644   5.517   3.101
 7854TIP3    H223527   4.756   5.605   3.048
 7855TIP3   OH223528   5.171   6.273   1.623
 7855TIP3    H123529   5.206   6.200   1.674
 7855TIP3    H223530   5.223   6.348   1.651
 7856TIP3   OH223531   6.751   1.327   0.392
 7856TIP3    H123532   6.791   1.413   0.409
 7856TIP3    H223533   6.762   1.279   0.474
 7857TIP3   OH223534   6.891   6.567   5.534
 7857TIP3    H123535   6.977   6.526   5.545
 7857TIP3    H223536   6.910   6.657   5.510
 7858TIP3   OH223537   4.197   1.627   3.978
 7858TIP3    H123538   4.291   1.622   3.999
 7858TIP3    H223539   4.160   1.548   4.017
 7859TIP3   OH223540   4.300   4.913   5.182
 7859TIP3    H123541   4.276   4.908   5.089
 7859TIP3    H223542   4.223   4.949   5.225
 7860TIP3   OH223543   7.162   5.870   1.008
 7860TIP3    H123544   7.214   5.864   0.927
 7860TIP3    H223545   7.187   5.955   1.045
 7861TIP3   OH223546   6.602   1.224   1.997
 7861TIP3    H123547   6.590   1.158   1.929
 7861TIP3    H223548   6.554   1.189   2.073
 7862TIP3   OH223549   1.346   4.724   5.661
 7862TIP3    H123550   1.324   4.631   5.650
 7862TIP3    H223551   1.416   4.739   5.598
 7863TIP3   OH223552   7.119   6.562   0.374
 7863TIP3    H123553   7.025   6.553   0.359
 7863TIP3    H223554   7.159   6.541   0.289
 7864TIP3   OH223555   0.369   5.346   0.832
 7864TIP3    H123556   0.450   5.339   0.882
 7864TIP3    H223557   0.397   5.333   0.741
 7865TIP3   OH223558   5.747   6.624   2.660
 7865TIP3    H123559   5.784   6.564   2.725
 7865TIP3    H223560   5.822   6.668   2.622
 7866TIP3   OH223561   4.855   1.749   5.002
 7866TIP3    H123562   4.837   1.795   5.084
 7866TIP3    H223563   4.916   1.679   5.026
 7867TIP3   OH223564   2.875   0.677   1.525
 7867TIP3    H123565   2.928   0.601   1.550
 7867TIP3    H223566   2.824   0.697   1.604
 7868TIP3   OH223567   1.692   6.644   3.209
 7868TIP3    H123568   1.778   6.603   3.196
 7868TIP3    H223569   1.678   6.694   3.128
 7869TIP3   OH223570   2.540   3.471   0.122
 7869TIP3    H123571   2.585   3.493   0.203
 7869TIP3    H223572   2.563   3.379   0.106
 7870TIP3   OH223573   0.946   5.493   0.614
 7870TIP3    H123574   1.012   5.430   0.586
 7870TIP3    H223575   0.886   5.443   0.669
 7871TIP3   OH223576   6.280   0.160   2.682
 7871TIP3    H123577   6.198   0.165   2.633
 7871TIP3    H223578   6.328   0.240   2.658
 7872TIP3   OH223579   5.158   5.473   2.735
 7872TIP3    H123580   5.242   5.431   2.754
 7872TIP3    H223581   5.124   5.500   2.820
 7873TIP3   OH223582   5.936   0.467   0.079
 7873TIP3    H123583   6.004   0.486   0.014
 7873TIP3    H223584   5.854   0.490   0.035
 7874TIP3   OH223585   1.815   0.450   3.410
 7874TIP3    H123586   1.893   0.504   3.423
 7874TIP3    H223587   1.768   0.457   3.493
 7875TIP3   OH223588   0.123   5.248   3.316
 7875TIP3    H123589   0.197   5.194   3.345
 7875TIP3    H223590   0.046   5.207   3.357
 7876TIP3   OH223591   5.521   6.465   4.998
 7876TIP3    H123592   5.557   6.404   4.934
 7876TIP3    H223593   5.542   6.552   4.964
 7877TIP3   OH223594   5.879   6.762   5.651
 7877TIP3    H123595   5.927   6.769   5.734
 7877TIP3    H223596   5.943   6.786   5.584
 7878TIP3   OH223597   5.586   0.781   3.281
 7878TIP3    H123598   5.668   0.801   3.236
 7878TIP3    H223599   5.598   0.691   3.312
 7879TIP3   OH223600   7.046   2.292   2.557
 7879TIP3    H123601   6.964   2.251   2.585
 7879TIP3    H223602   7.020   2.347   2.483
 7880TIP3   OH223603   2.419   3.804   4.561
 7880TIP3    H123604   2.467   3.803   4.478
 7880TIP3    H223605   2.341   3.857   4.542
 7881TIP3   OH223606   7.032   3.969   2.618
 7881TIP3    H123607   7.116   3.945   2.579
 7881TIP3    H223608   7.016   4.058   2.587
 7882TIP3   OH223609   0.353   4.406   4.099
 7882TIP3    H123610   0.277   4.406   4.158
 7882TIP3    H223611   0.389   4.318   4.107
 7883TIP3   OH223612   2.134   1.928   5.304
 7883TIP3    H123613   2.189   1.859   5.266
 7883TIP3    H223614   2.052   1.884   5.326
 7884TIP3   OH223615   5.216   3.259   0.710
 7884TIP3    H123616   5.140   3.317   0.721
 7884TIP3    H223617   5.261   3.263   0.794
 7885TIP3   OH223618   1.124   3.285   0.796
 7885TIP3    H123619   1.094   3.281   0.887
 7885TIP3    H223620   1.044   3.280   0.744
 7886TIP3   OH223621   7.048   4.180   2.868
 7886TIP3    H123622   7.020   4.175   2.776
 7886TIP3    H223623   7.000   4.255   2.903
 7887TIP3   OH223624   1.214   1.734   1.559
 7887TIP3    H123625   1.226   1.662   1.622
 7887TIP3    H223626   1.229   1.813   1.610
 7888TIP3   OH223627   1.172   1.336   0.977
 7888TIP3    H123628   1.190   1.242   0.984
 7888TIP3    H223629   1.251   1.378   1.010
 7889TIP3   OH223630   0.128   5.070   0.278
 7889TIP3    H123631   0.211   5.091   0.320
 7889TIP3    H223632   0.114   5.142   0.215
 7890TIP3   OH223633   5.402   4.565   2.201
 7890TIP3    H123634   5.360   4.484   2.173
 7890TIP3    H223635   5.349   4.595   2.275
 7891TIP3   OH223636   0.025   3.234   2.570
 7891TIP3    H123637   0.084   3.259   2.641
 7891TIP3    H223638   0.060   3.151   2.538
 7892TIP3   OH223639   1.802   0.323   2.945
 7892TIP3    H123640   1.806   0.370   3.028
 7892TIP3    H223641   1.797   0.231   2.970
 7893TIP3   OH223642   0.850   2.208   4.575
 7893TIP3    H123643   0.925   2.161   4.612
 7893TIP3    H223644   0.825   2.270   4.644
 7894TIP3   OH223645   4.952   3.818   3.032
 7894TIP3    H123646   4.886   3.822   3.102
 7894TIP3    H223647   4.901   3.818   2.951
 7895TIP3   OH223648   4.139   4.424   3.254
 7895TIP3    H123649   4.046   4.439   3.243
 7895TIP3    H223650   4.164   4.370   3.179
 7896TIP3   OH223651   1.889   1.148   2.981
 7896TIP3    H123652   1.826   1.105   3.039
 7896TIP3    H223653   1.836   1.201   2.923
 7897TIP3   OH223654   0.592   3.467   3.963
 7897TIP3    H123655   0.567   3.558   3.944
 7897TIP3    H223656   0.527   3.414   3.918
 7898TIP3   OH223657   4.975   4.833   3.534
 7898TIP3    H123658   4.896   4.865   3.578
 7898TIP3    H223659   5.029   4.910   3.522
 7899TIP3   OH223660   6.262   3.468   0.268
 7899TIP3    H123661   6.220   3.547   0.232
 7899TIP3    H223662   6.337   3.453   0.211
 7900TIP3   OH223663   4.559   1.424   0.474
 7900TIP3    H123664   4.596   1.348   0.429
 7900TIP3    H223665   4.553   1.397   0.566
 7901TIP3   OH223666   0.534   2.425   2.841
 7901TIP3    H123667   0.546   2.330   2.837
 7901TIP3    H223668   0.612   2.460   2.798
 7902TIP3   OH223669   0.743   0.749   1.350
 7902TIP3    H123670   0.693   0.710   1.421
 7902TIP3    H223671   0.698   0.722   1.271
 7903TIP3   OH223672   4.607   6.799   5.003
 7903TIP3    H123673   4.658   6.829   4.928
 7903TIP3    H223674   4.636   6.708   5.017
 7904TIP3   OH223675   1.447   0.805   4.343
 7904TIP3    H123676   1.526   0.859   4.331
 7904TIP3    H223677   1.460   0.761   4.427
 7905TIP3   OH223678   6.529   6.145   2.995
 7905TIP3    H123679   6.578   6.164   2.915
 7905TIP3    H223680   6.450   6.099   2.966
 7906TIP3   OH223681   4.140   1.126   3.443
 7906TIP3    H123682   4.110   1.178   3.369
 7906TIP3    H223683   4.230   1.154   3.458
 7907TIP3   OH223684   6.469   4.760   2.806
 7907TIP3    H123685   6.481   4.757   2.901
 7907TIP3    H223686   6.376   4.744   2.792
 7908TIP3   OH223687   5.608   2.352   3.685
 7908TIP3    H123688   5.673   2.400   3.632
 7908TIP3    H223689   5.569   2.290   3.624
 7909TIP3   OH223690   6.482   6.449   2.539
 7909TIP3    H123691   6.501   6.376   2.598
 7909TIP3    H223692   6.504   6.527   2.590
 7910TIP3   OH223693   4.524   1.309   2.216
 7910TIP3    H123694   4.468   1.355   2.154
 7910TIP3    H223695   4.549   1.376   2.280
 7911TIP3   OH223696   6.463   5.677   2.013
 7911TIP3    H123697   6.470   5.614   2.084
 7911TIP3    H223698   6.400   5.742   2.044
 7912TIP3   OH223699   1.732   2.163   5.639
 7912TIP3    H123700   1.759   2.072   5.653
 7912TIP3    H223701   1.765   2.184   5.551
 7913TIP3   OH223702   0.244   2.723   1.945
 7913TIP3    H123703   0.313   2.768   1.994
 7913TIP3    H223704   0.220   2.784   1.875
 7914TIP3   OH223705   3.678   1.951   3.853
 7914TIP3    H123706   3.750   2.009   3.878
 7914TIP3    H223707   3.609   2.010   3.822
 7915TIP3   OH223708   4.811   4.819   3.284
 7915TIP3    H123709   4.753   4.888   3.316
 7915TIP3    H223710   4.849   4.781   3.363
 7916TIP3   OH223711   3.168   5.594   1.151
 7916TIP3    H123712   3.184   5.608   1.058
 7916TIP3    H223713   3.229   5.652   1.195
 7917TIP3   OH223714   6.098   2.544   1.062
 7917TIP3    H123715   6.049   2.467   1.091
 7917TIP3    H223716   6.046   2.618   1.093
 7918TIP3   OH223717   3.654   2.937   1.231
 7918TIP3    H123718   3.652   2.878   1.307
 7918TIP3    H223719   3.587   3.002   1.250
 7919TIP3   OH223720   4.491   1.873   3.396
 7919TIP3    H123721   4.565   1.815   3.381
 7919TIP3    H223722   4.464   1.854   3.486
 7920TIP3   OH223723   1.160   5.439   5.400
 7920TIP3    H123724   1.205   5.518   5.429
 7920TIP3    H223725   1.095   5.470   5.337
 7921TIP3   OH223726   6.692   5.789   1.144
 7921TIP3    H123727   6.699   5.843   1.223
 7921TIP3    H223728   6.783   5.766   1.123
 7922TIP3   OH223729   2.548   1.713   2.951
 7922TIP3    H123730   2.552   1.629   2.998
 7922TIP3    H223731   2.574   1.692   2.862
 7923TIP3   OH223732   5.952   0.492   5.877
 7923TIP3    H123733   5.992   0.425   5.933
 7923TIP3    H223734   5.923   0.443   5.799
 7924TIP3   OH223735   4.226   4.665   2.371
 7924TIP3    H123736   4.213   4.705   2.285
 7924TIP3    H223737   4.171   4.587   2.371
 7925TIP3   OH223738   3.239   0.201   1.866
 7925TIP3    H123739   3.177   0.196   1.793
 7925TIP3    H223740   3.317   0.241   1.828
 7926TIP3   OH223741   7.138   0.831   2.997
 7926TIP3    H123742   7.072   0.843   2.929
 7926TIP3    H223743   7.208   0.891   2.972
 7927TIP3   OH223744   0.167   2.246   4.758
 7927TIP3    H123745   0.080   2.228   4.722
 7927TIP3    H223746   0.218   2.168   4.739
 7928TIP3   OH223747   0.462   0.742   2.671
 7928TIP3    H123748   0.461   0.682   2.745
 7928TIP3    H223749   0.469   0.829   2.710
 7929TIP3   OH223750   4.140   5.254   0.483
 7929TIP3    H123751   4.187   5.201   0.418
 7929TIP3    H223752   4.208   5.283   0.544
 7930TIP3   OH223753   5.207   5.002   5.693
 7930TIP3    H123754   5.128   5.022   5.745
 7930TIP3    H223755   5.251   4.934   5.742
 7931TIP3   OH223756   2.033   3.718   2.555
 7931TIP3    H123757   2.038   3.667   2.636
 7931TIP3    H223758   2.085   3.796   2.573
 7932TIP3   OH223759   5.228   2.869   1.031
 7932TIP3    H123760   5.228   2.822   0.947
 7932TIP3    H223761   5.135   2.877   1.054
 7933TIP3   OH223762   0.123   5.916   1.612
 7933TIP3    H123763   0.214   5.889   1.611
 7933TIP3    H223764   0.104   5.940   1.522
 7934TIP3   OH223765   1.933   5.641   5.223
 7934TIP3    H123766   1.962   5.574   5.285
 7934TIP3    H223767   1.976   5.617   5.140
 7935TIP3   OH223768   0.105   3.556   4.936
 7935TIP3    H123769   0.038   3.533   4.871
 7935TIP3    H223770   0.187   3.530   4.896
 7936TIP3   OH223771   4.265   3.541   0.236
 7936TIP3    H123772   4.269   3.445   0.230
 7936TIP3    H223773   4.346   3.565   0.280
 7937TIP3   OH223774   5.463   0.693   4.565
 7937TIP3    H123775   5.517   0.767   4.537
 7937TIP3    H223776   5.519   0.642   4.624
 7938TIP3   OH223777   6.092   5.779   3.486
 7938TIP3    H123778   6.010   5.778   3.535
 7938TIP3    H223779   6.160   5.791   3.552
 7939TIP3   OH223780   7.146   0.315   1.480
 7939TIP3    H123781   7.157   0.284   1.391
 7939TIP3    H223782   7.061   0.359   1.481
 7940TIP3   OH223783   2.905   5.270   2.864
 7940TIP3    H123784   2.969   5.239   2.928
 7940TIP3    H223785   2.829   5.214   2.877
 7941TIP3   OH223786   4.117   3.049   0.230
 7941TIP3    H123787   4.186   3.102   0.192
 7941TIP3    H223788   4.035   3.090   0.200
 7942TIP3   OH223789   1.254   5.798   5.252
 7942TIP3    H123790   1.228   5.735   5.185
 7942TIP3    H223791   1.348   5.787   5.260
 7943TIP3   OH223792   4.176   5.449   2.288
 7943TIP3    H123793   4.180   5.538   2.254
 7943TIP3    H223794   4.202   5.457   2.379
 7944TIP3   OH223795   0.537   2.984   4.137
 7944TIP3    H123796   0.462   3.020   4.186
 7944TIP3    H223797   0.581   2.927   4.199
 7945TIP3   OH223798   3.597   4.754   2.055
 7945TIP3    H123799   3.642   4.686   2.004
 7945TIP3    H223800   3.668   4.808   2.090
 7946TIP3   OH223801   4.581   4.441   0.246
 7946TIP3    H123802   4.541   4.410   0.327
 7946TIP3    H223803   4.671   4.411   0.251
 7947TIP3   OH223804   2.445   5.187   3.275
 7947TIP3    H123805   2.488   5.247   3.213
 7947TIP3    H223806   2.383   5.242   3.323
 7948TIP3   OH223807   0.564   4.037   4.943
 7948TIP3    H123808   0.607   4.107   4.992
 7948TIP3    H223809   0.482   4.023   4.990
 7949TIP3   OH223810   6.905   4.858   0.444
 7949TIP3    H123811   6.939   4.779   0.488
 7949TIP3    H223812   6.981   4.895   0.400
 7950TIP3   OH223813   6.914   3.065   1.121
 7950TIP3    H123814   6.875   3.150   1.099
 7950TIP3    H223815   7.001   3.086   1.154
 7951TIP3   OH223816   6.720   4.025   1.200
 7951TIP3    H123817   6.638   4.068   1.225
 7951TIP3    H223818   6.755   3.992   1.283
 7952TIP3   OH223819   7.169   5.349   2.420
 7952TIP3    H123820   7.128   5.428   2.387
 7952TIP3    H223821   7.138   5.280   2.361
 7953TIP3   OH223822   6.634   5.922   1.937
 7953TIP3    H123823   6.577   5.872   1.996
 7953TIP3    H223824   6.656   6.000   1.987
 7954TIP3   OH223825   2.737   0.377   4.421
 7954TIP3    H123826   2.675   0.347   4.487
 7954TIP3    H223827   2.733   0.472   4.425
 7955TIP3   OH223828   0.979   4.587   4.770
 7955TIP3    H123829   1.068   4.551   4.766
 7955TIP3    H223830   0.948   4.565   4.858
 7956TIP3   OH223831   4.798   2.100   0.794
 7956TIP3    H123832   4.831   2.166   0.855
 7956TIP3    H223833   4.847   2.020   0.816
 7957TIP3   OH223834   3.657   1.422   1.200
 7957TIP3    H123835   3.636   1.358   1.132
 7957TIP3    H223836   3.626   1.505   1.166
 7958TIP3   OH223837   6.560   4.501   1.058
 7958TIP3    H123838   6.570   4.435   0.988
 7958TIP3    H223839   6.578   4.452   1.138
 7959TIP3   OH223840   6.566   1.004   5.163
 7959TIP3    H123841   6.581   1.086   5.210
 7959TIP3    H223842   6.642   0.996   5.105
 7960TIP3   OH223843   4.140   1.709   4.362
 7960TIP3    H123844   4.165   1.641   4.425
 7960TIP3    H223845   4.119   1.661   4.282
 7961TIP3   OH223846   6.712   1.093   3.176
 7961TIP3    H123847   6.652   1.120   3.106
 7961TIP3    H223848   6.691   1.152   3.249
 7962TIP3   OH223849   5.241   6.282   0.505
 7962TIP3    H123850   5.239   6.297   0.600
 7962TIP3    H223851   5.327   6.314   0.478
 7963TIP3   OH223852   6.737   1.802   3.131
 7963TIP3    H123853   6.772   1.795   3.220
 7963TIP3    H223854   6.646   1.829   3.144
 7964TIP3   OH223855   0.711   2.085   5.536
 7964TIP3    H123856   0.781   2.064   5.598
 7964TIP3    H223857   0.706   2.181   5.538
 7965TIP3   OH223858   2.199   4.929   5.164
 7965TIP3    H123859   2.149   5.002   5.201
 7965TIP3    H223860   2.201   4.864   5.235
 7966TIP3   OH223861   2.630   2.853   4.015
 7966TIP3    H123862   2.659   2.820   3.930
 7966TIP3    H223863   2.584   2.779   4.055
 7967TIP3   OH223864   0.980   3.278   3.531
 7967TIP3    H123865   0.930   3.359   3.518
 7967TIP3    H223866   1.066   3.307   3.560
 7968TIP3   OH223867   4.894   5.468   5.456
 7968TIP3    H123868   4.937   5.452   5.373
 7968TIP3    H223869   4.889   5.563   5.463
 7969TIP3   OH223870   0.821   2.489   5.054
 7969TIP3    H123871   0.767   2.449   5.122
 7969TIP3    H223872   0.909   2.492   5.092
 7970TIP3   OH223873   5.200   4.931   0.585
 7970TIP3    H123874   5.248   4.880   0.521
 7970TIP3    H223875   5.235   5.020   0.576
 7971TIP3   OH223876   1.521   4.751   4.291
 7971TIP3    H123877   1.527   4.791   4.378
 7971TIP3    H223878   1.606   4.709   4.279
 7972TIP3   OH223879   3.075   0.464   5.487
 7972TIP3    H123880   3.092   0.465   5.581
 7972TIP3    H223881   3.109   0.380   5.457
 7973TIP3   OH223882   6.532   2.111   0.029
 7973TIP3    H123883   6.448   2.154   0.043
 7973TIP3    H223884   6.513   2.042  -0.034
 7974TIP3   OH223885   5.503   3.413   2.678
 7974TIP3    H123886   5.426   3.432   2.731
 7974TIP3    H223887   5.548   3.343   2.725
 7975TIP3   OH223888   0.663   5.680   3.110
 7975TIP3    H123889   0.707   5.746   3.056
 7975TIP3    H223890   0.732   5.617   3.131
 7976TIP3   OH223891   0.196   2.057   4.415
 7976TIP3    H123892   0.266   2.119   4.436
 7976TIP3    H223893   0.231   1.971   4.439
 7977TIP3   OH223894   1.042   5.535   5.699
 7977TIP3    H123895   0.950   5.556   5.680
 7977TIP3    H223896   1.092   5.602   5.653
 7978TIP3   OH223897   2.141   0.291   2.381
 7978TIP3    H123898   2.227   0.332   2.389
 7978TIP3    H223899   2.087   0.355   2.335
 7979TIP3   OH223900   3.938   4.751   1.052
 7979TIP3    H123901   3.912   4.662   1.030
 7979TIP3    H223902   4.003   4.775   0.986
 7980TIP3   OH223903   4.008   5.305   5.450
 7980TIP3    H123904   4.007   5.373   5.517
 7980TIP3    H223905   3.937   5.245   5.474
 7981TIP3   OH223906   5.568   5.763   5.733
 7981TIP3    H123907   5.657   5.743   5.763
 7981TIP3    H223908   5.559   5.857   5.746
 7982TIP3   OH223909   1.278   5.806   2.650
 7982TIP3    H123910   1.280   5.727   2.703
 7982TIP3    H223911   1.314   5.874   2.708
 7983TIP3   OH223912   4.277   3.149   3.873
 7983TIP3    H123913   4.214   3.109   3.933
 7983TIP3    H223914   4.235   3.145   3.787
 7984TIP3   OH223915   6.747   3.576   0.144
 7984TIP3    H123916   6.736   3.529   0.061
 7984TIP3    H223917   6.662   3.568   0.188
 7985TIP3   OH223918   2.294   4.382   3.974
 7985TIP3    H123919   2.374   4.402   4.022
 7985TIP3    H223920   2.289   4.449   3.906
 7986TIP3   OH223921   4.752   2.505   3.197
 7986TIP3    H123922   4.664   2.478   3.169
 7986TIP3    H223923   4.738   2.588   3.243
 7987TIP3   OH223924   6.618   5.855   1.671
 7987TIP3    H123925   6.595   5.867   1.763
 7987TIP3    H223926   6.595   5.765   1.651
 7988TIP3   OH223927   1.655   5.337   3.882
 7988TIP3    H123928   1.650   5.421   3.928
 7988TIP3    H223929   1.705   5.281   3.942
 7989TIP3   OH223930   1.100   2.109   1.234
 7989TIP3    H123931   1.031   2.130   1.297
 7989TIP3    H223932   1.076   2.023   1.200
 7990TIP3   OH223933   2.296   0.013   4.618
 7990TIP3    H123934   2.212   0.044   4.586
 7990TIP3    H223935   2.329   0.084   4.673
 7991TIP3   OH223936   1.678   0.025   1.945
 7991TIP3    H123937   1.745   0.068   1.892
 7991TIP3    H223938   1.725  -0.040   1.996
 7992TIP3   OH223939   3.309   4.628   3.765
 7992TIP3    H123940   3.377   4.659   3.824
 7992TIP3    H223941   3.347   4.637   3.677
 7993TIP3   OH223942   3.468   4.513   2.640
 7993TIP3    H123943   3.401   4.446   2.645
 7993TIP3    H223944   3.486   4.536   2.731
 7994TIP3   OH223945   5.459   3.848   5.474
 7994TIP3    H123946   5.390   3.900   5.514
 7994TIP3    H223947   5.444   3.759   5.506
 7995TIP3   OH223948   6.647   3.663   3.815
 7995TIP3    H123949   6.678   3.630   3.900
 7995TIP3    H223950   6.554   3.679   3.829
 7996TIP3   OH223951   4.927   1.988   4.825
 7996TIP3    H123952   4.880   1.920   4.874
 7996TIP3    H223953   4.978   1.939   4.760
 7997TIP3   OH223954   1.789   5.813   5.400
 7997TIP3    H123955   1.851   5.837   5.470
 7997TIP3    H223956   1.845   5.786   5.327
 7998TIP3   OH223957   2.346   6.779   4.879
 7998TIP3    H123958   2.405   6.715   4.840
 7998TIP3    H223959   2.259   6.741   4.870
 7999TIP3   OH223960   0.591   0.583   3.533
 7999TIP3    H123961   0.629   0.510   3.582
 7999TIP3    H223962   0.608   0.562   3.441
 8000TIP3   OH223963   5.078   4.596   5.671
 8000TIP3    H123964   5.100   4.589   5.578
 8000TIP3    H223965   5.009   4.531   5.684
 8001TIP3   OH223966   2.465   5.378   4.237
 8001TIP3    H123967   2.549   5.345   4.267
 8001TIP3    H223968   2.481   5.469   4.213
 8002TIP3   OH223969   5.038   5.788   3.704
 8002TIP3    H123970   4.949   5.774   3.673
 8002TIP3    H223971   5.070   5.700   3.725
 8003TIP3   OH223972   3.933   2.851   1.949
 8003TIP3    H123973   3.853   2.840   2.000
 8003TIP3    H223974   3.939   2.946   1.933
 8004TIP3   OH223975   1.263   5.003   3.743
 8004TIP3    H123976   1.310   5.054   3.809
 8004TIP3    H223977   1.326   4.937   3.714
 8005TIP3   OH223978   5.042   0.208   0.353
 8005TIP3    H123979   5.049   0.141   0.420
 8005TIP3    H223980   5.116   0.192   0.294
 8006TIP3   OH223981   3.570   4.005   2.023
 8006TIP3    H123982   3.549   4.097   2.039
 8006TIP3    H223983   3.496   3.972   1.972
 8007TIP3   OH223984   6.736   5.848   1.416
 8007TIP3    H123985   6.830   5.838   1.430
 8007TIP3    H223986   6.697   5.836   1.503
 8008TIP3   OH223987   3.430   1.241   4.071
 8008TIP3    H123988   3.508   1.236   4.016
 8008TIP3    H223989   3.457   1.292   4.147
 8009TIP3   OH223990   2.840   1.590   2.562
 8009TIP3    H123991   2.889   1.672   2.566
 8009TIP3    H223992   2.764   1.605   2.618
 8010TIP3   OH223993   1.172   5.520   4.726
 8010TIP3    H123994   1.101   5.555   4.780
 8010TIP3    H223995   1.232   5.593   4.716
 8011TIP3   OH223996   2.813   3.214   2.208
 8011TIP3    H123997   2.797   3.207   2.114
 8011TIP3    H223998   2.879   3.146   2.226
 8012TIP3   OH223999   4.367   2.966   5.187
 8012TIP3    H124000   4.426   3.004   5.253
 8012TIP3    H224001   4.414   2.977   5.104
 8013TIP3   OH224002   4.059   3.017   0.693
 8013TIP3    H124003   4.074   3.087   0.629
 8013TIP3    H224004   4.143   2.973   0.700
 8014TIP3   OH224005   6.458   1.770   0.328
 8014TIP3    H124006   6.551   1.787   0.344
 8014TIP3    H224007   6.414   1.802   0.407
 8015TIP3   OH224008   1.655   1.959   1.253
 8015TIP3    H124009   1.717   2.030   1.266
 8015TIP3    H224010   1.575   2.002   1.222
 8016TIP3   OH224011   5.736   3.084   5.631
 8016TIP3    H124012   5.782   3.119   5.555
 8016TIP3    H224013   5.652   3.053   5.596
 8017TIP3   OH224014   0.163   3.756   2.001
 8017TIP3    H124015   0.161   3.746   1.906
 8017TIP3    H224016   0.252   3.731   2.026
 8018TIP3   OH224017   3.938   4.378   1.043
 8018TIP3    H124018   4.024   4.347   1.072
 8018TIP3    H224019   3.927   4.339   0.957
 8019TIP3   OH224020   0.201   0.284   0.230
 8019TIP3    H124021   0.201   0.208   0.288
 8019TIP3    H224022   0.180   0.248   0.144
 8020TIP3   OH224023   0.149   4.429   5.471
 8020TIP3    H124024   0.169   4.515   5.433
 8020TIP3    H224025   0.204   4.425   5.550
 8021TIP3   OH224026   6.359   5.148   5.850
 8021TIP3    H124027   6.353   5.080   5.782
 8021TIP3    H224028   6.449   5.140   5.882
 8022TIP3   OH224029   5.130   1.840   4.250
 8022TIP3    H124030   5.164   1.882   4.328
 8022TIP3    H224031   5.135   1.747   4.268
 8023TIP3   OH224032   5.444   2.417   1.019
 8023TIP3    H124033   5.365   2.462   1.047
 8023TIP3    H224034   5.508   2.433   1.089
 8024TIP3   OH224035   6.340   2.124   2.100
 8024TIP3    H124036   6.311   2.040   2.136
 8024TIP3    H224037   6.313   2.189   2.165
 8025TIP3   OH224038   6.695   3.015   1.296
 8025TIP3    H124039   6.760   3.025   1.227
 8025TIP3    H224040   6.641   2.941   1.269
 8026TIP3   OH224041   2.782   1.526   2.060
 8026TIP3    H124042   2.687   1.516   2.054
 8026TIP3    H224043   2.812   1.448   2.105
 8027TIP3   OH224044   0.688   0.947   4.647
 8027TIP3    H124045   0.732   0.919   4.727
 8027TIP3    H224046   0.756   0.991   4.596
 8028TIP3   OH224047   4.573   4.075   0.086
 8028TIP3    H124048   4.505   4.135   0.117
 8028TIP3    H224049   4.545   3.989   0.119
 8029TIP3   OH224050   3.812   3.838   5.061
 8029TIP3    H124051   3.862   3.883   5.129
 8029TIP3    H224052   3.834   3.885   4.980
 8030TIP3   OH224053   2.061   3.218   0.565
 8030TIP3    H124054   2.054   3.245   0.473
 8030TIP3    H224055   2.050   3.298   0.615
 8031TIP3   OH224056   4.384   0.699   1.549
 8031TIP3    H124057   4.475   0.722   1.530
 8031TIP3    H224058   4.333   0.747   1.484
 8032TIP3   OH224059   7.189   4.524   3.367
 8032TIP3    H124060   7.101   4.496   3.394
 8032TIP3    H224061   7.202   4.606   3.414
 8033TIP3   OH224062   7.060   2.287   1.201
 8033TIP3    H124063   7.072   2.382   1.193
 8033TIP3    H224064   7.017   2.261   1.119
 8034TIP3   OH224065   7.048   0.686   4.250
 8034TIP3    H124066   7.037   0.616   4.315
 8034TIP3    H224067   7.029   0.767   4.298
 8035TIP3   OH224068   2.203   6.465   2.310
 8035TIP3    H124069   2.237   6.554   2.300
 8035TIP3    H224070   2.139   6.455   2.240
 8036TIP3   OH224071   1.246   5.783   4.898
 8036TIP3    H124072   1.245   5.805   4.805
 8036TIP3    H224073   1.264   5.866   4.942
 8037TIP3   OH224074   6.749   5.418   0.955
 8037TIP3    H124075   6.839   5.446   0.939
 8037TIP3    H224076   6.756   5.340   1.009
 8038TIP3   OH224077   5.712   3.462   0.909
 8038TIP3    H124078   5.738   3.398   0.975
 8038TIP3    H224079   5.665   3.411   0.842
 8039TIP3   OH224080   3.340   5.143   5.582
 8039TIP3    H124081   3.415   5.087   5.562
 8039TIP3    H224082   3.300   5.159   5.496
 8040TIP3   OH224083   5.496   5.710   3.694
 8040TIP3    H124084   5.568   5.649   3.709
 8040TIP3    H224085   5.535   5.780   3.641
 8041TIP3   OH224086   1.900   3.117   1.492
 8041TIP3    H124087   1.919   3.025   1.508
 8041TIP3    H224088   1.808   3.120   1.468
 8042TIP3   OH224089   3.682   3.369   2.781
 8042TIP3    H124090   3.741   3.335   2.848
 8042TIP3    H224091   3.639   3.444   2.822
 8043TIP3   OH224092   4.439   3.357   0.523
 8043TIP3    H124093   4.380   3.303   0.577
 8043TIP3    H224094   4.385   3.432   0.497
 8044TIP3   OH224095   1.240   1.489   2.782
 8044TIP3    H124096   1.298   1.564   2.776
 8044TIP3    H224097   1.161   1.514   2.733
 8045TIP3   OH224098   1.757   3.052   2.039
 8045TIP3    H124099   1.810   3.132   2.045
 8045TIP3    H224100   1.679   3.079   1.991
 8046TIP3   OH224101   4.619   2.412   4.541
 8046TIP3    H124102   4.636   2.499   4.578
 8046TIP3    H224103   4.686   2.356   4.582
 8047TIP3   OH224104   6.784   5.098   2.627
 8047TIP3    H124105   6.689   5.101   2.609
 8047TIP3    H224106   6.804   5.183   2.665
 8048TIP3   OH224107   6.977   3.476   4.885
 8048TIP3    H124108   6.897   3.529   4.877
 8048TIP3    H224109   7.044   3.539   4.913
 8049TIP3   OH224110   2.118   1.453   0.467
 8049TIP3    H124111   2.129   1.360   0.486
 8049TIP3    H224112   2.118   1.459   0.372
 8050TIP3   OH224113   5.429   1.468   3.960
 8050TIP3    H124114   5.359   1.405   3.980
 8050TIP3    H224115   5.464   1.439   3.876
 8051TIP3   OH224116   2.294   0.301   4.242
 8051TIP3    H124117   2.290   0.277   4.150
 8051TIP3    H224118   2.344   0.230   4.283
 8052TIP3   OH224119   5.571   3.430   3.846
 8052TIP3    H124120   5.481   3.405   3.824
 8052TIP3    H224121   5.604   3.474   3.768
 8053TIP3   OH224122   4.559   0.857   1.757
 8053TIP3    H124123   4.612   0.801   1.700
 8053TIP3    H224124   4.500   0.796   1.802
 8054TIP3   OH224125   4.921   1.746   2.543
 8054TIP3    H124126   4.998   1.699   2.574
 8054TIP3    H224127   4.864   1.754   2.619
 8055TIP3   OH224128   3.837   5.557   0.760
 8055TIP3    H124129   3.892   5.563   0.839
 8055TIP3    H224130   3.818   5.463   0.752
 8056TIP3   OH224131   2.779   6.116   4.177
 8056TIP3    H124132   2.711   6.143   4.115
 8056TIP3    H224133   2.858   6.106   4.124
 8057TIP3   OH224134   3.282   0.855   5.721
 8057TIP3    H124135   3.199   0.832   5.679
 8057TIP3    H224136   3.308   0.937   5.678
 8058TIP3   OH224137   3.554   3.225   3.759
 8058TIP3    H124138   3.607   3.155   3.720
 8058TIP3    H224139   3.478   3.232   3.702
 8059TIP3   OH224140   6.816   5.921   0.648
 8059TIP3    H124141   6.859   5.978   0.584
 8059TIP3    H224142   6.741   5.972   0.679
 8060TIP3   OH224143   1.868   2.740   3.482
 8060TIP3    H124144   1.917   2.729   3.563
 8060TIP3    H224145   1.863   2.652   3.444
 8061TIP3   OH224146   2.601   0.654   3.211
 8061TIP3    H124147   2.578   0.691   3.297
 8061TIP3    H224148   2.633   0.566   3.231
 8062TIP3   OH224149   1.061   4.901   5.770
 8062TIP3    H124150   0.968   4.891   5.791
 8062TIP3    H224151   1.082   4.824   5.717
 8063TIP3   OH224152   7.079   1.606   4.265
 8063TIP3    H124153   7.093   1.664   4.340
 8063TIP3    H224154   7.067   1.665   4.190
 8064TIP3   OH224155   4.669   4.707   3.972
 8064TIP3    H124156   4.624   4.718   4.056
 8064TIP3    H224157   4.743   4.767   3.976
 8065TIP3   OH224158   0.931   5.564   3.701
 8065TIP3    H124159   0.980   5.482   3.692
 8065TIP3    H224160   0.983   5.616   3.762
 8066TIP3   OH224161   2.553   6.246   5.471
 8066TIP3    H124162   2.644   6.251   5.439
 8066TIP3    H224163   2.547   6.160   5.513
 8067TIP3   OH224164   1.282   5.069   2.964
 8067TIP3    H124165   1.377   5.069   2.951
 8067TIP3    H224166   1.255   5.159   2.945
 8068TIP3   OH224167   2.771   4.676   4.647
 8068TIP3    H124168   2.723   4.601   4.611
 8068TIP3    H224169   2.705   4.745   4.656
 8069TIP3   OH224170   0.264   0.596   1.242
 8069TIP3    H124171   0.197   0.661   1.222
 8069TIP3    H224172   0.246   0.523   1.183
 8070TIP3   OH224173   0.880   5.748   4.925
 8070TIP3    H124174   0.960   5.770   4.877
 8070TIP3    H224175   0.842   5.833   4.948
 8071TIP3   OH224176   0.769   2.471   2.679
 8071TIP3    H124177   0.845   2.432   2.722
 8071TIP3    H224178   0.759   2.420   2.599
 8072TIP3   OH224179   4.602   1.559   3.761
 8072TIP3    H124180   4.694   1.552   3.789
 8072TIP3    H224181   4.556   1.495   3.816
 8073TIP3   OH224182   3.195   4.675   4.373
 8073TIP3    H124183   3.110   4.655   4.335
 8073TIP3    H224184   3.194   4.770   4.385
 8074TIP3   OH224185   1.617   1.624   0.723
 8074TIP3    H124186   1.546   1.680   0.755
 8074TIP3    H224187   1.638   1.659   0.637
 8075TIP3   OH224188   5.444   1.973   3.100
 8075TIP3    H124189   5.535   2.000   3.096
 8075TIP3    H224190   5.424   1.939   3.013
 8076TIP3   OH224191   3.156   4.365   0.588
 8076TIP3    H124192   3.199   4.402   0.511
 8076TIP3    H224193   3.159   4.270   0.574
 8077TIP3   OH224194   1.697   2.535   1.392
 8077TIP3    H124195   1.674   2.479   1.466
 8077TIP3    H224196   1.645   2.503   1.319
 8078TIP3   OH224197   6.422   6.013   3.931
 8078TIP3    H124198   6.514   5.985   3.930
 8078TIP3    H224199   6.375   5.942   3.973
 8079TIP3   OH224200   2.777   2.775   4.675
 8079TIP3    H124201   2.846   2.795   4.737
 8079TIP3    H224202   2.762   2.680   4.685
 8080TIP3   OH224203   1.465   1.404   2.976
 8080TIP3    H124204   1.410   1.337   3.018
 8080TIP3    H224205   1.406   1.449   2.916
 8081TIP3   OH224206   0.732   0.589   2.203
 8081TIP3    H124207   0.714   0.578   2.109
 8081TIP3    H224208   0.686   0.516   2.245
 8082TIP3   OH224209   7.080   2.855   1.476
 8082TIP3    H124210   7.075   2.944   1.441
 8082TIP3    H224211   7.158   2.818   1.436
 8083TIP3   OH224212   1.361   1.123   1.878
 8083TIP3    H124213   1.279   1.074   1.885
 8083TIP3    H224214   1.340   1.200   1.826
 8084TIP3   OH224215   5.409   0.294   0.585
 8084TIP3    H124216   5.340   0.328   0.528
 8084TIP3    H224217   5.480   0.358   0.578
 8085TIP3   OH224218   1.814   4.137   5.791
 8085TIP3    H124219   1.806   4.232   5.788
 8085TIP3    H224220   1.726   4.106   5.812
 8086TIP3   OH224221   3.267   4.044   5.558
 8086TIP3    H124222   3.264   4.017   5.650
 8086TIP3    H224223   3.185   4.012   5.521
 8087TIP3   OH224224   5.256   3.521   0.827
 8087TIP3    H124225   5.292   3.511   0.915
 8087TIP3    H224226   5.281   3.610   0.801
 8088TIP3   OH224227   5.337   5.285   1.672
 8088TIP3    H124228   5.428   5.276   1.643
 8088TIP3    H224229   5.327   5.218   1.740
 8089TIP3   OH224230   5.659   4.445   2.716
 8089TIP3    H124231   5.601   4.431   2.641
 8089TIP3    H224232   5.607   4.414   2.791
 8090TIP3   OH224233   1.268   0.838   2.382
 8090TIP3    H124234   1.224   0.770   2.434
 8090TIP3    H224235   1.289   0.795   2.299
 8091TIP3   OH224236   1.159   5.250   0.845
 8091TIP3    H124237   1.139   5.194   0.770
 8091TIP3    H224238   1.113   5.209   0.918
 8092TIP3   OH224239   5.988   6.208   0.193
 8092TIP3    H124240   6.036   6.134   0.156
 8092TIP3    H224241   5.912   6.169   0.235
 8093TIP3   OH224242   3.013   4.449   5.063
 8093TIP3    H124243   3.060   4.508   5.122
 8093TIP3    H224244   2.968   4.507   5.001
 8094TIP3   OH224245   2.280   1.867   1.818
 8094TIP3    H124246   2.276   1.956   1.852
 8094TIP3    H224247   2.348   1.870   1.750
 8095TIP3   OH224248   5.476   2.492   5.705
 8095TIP3    H124249   5.484   2.529   5.617
 8095TIP3    H224250   5.424   2.556   5.754
 8096TIP3   OH224251   5.314   5.876   2.720
 8096TIP3    H124252   5.271   5.904   2.640
 8096TIP3    H224253   5.367   5.801   2.694
 8097TIP3   OH224254   0.698   3.863   2.790
 8097TIP3    H124255   0.732   3.945   2.826
 8097TIP3    H224256   0.697   3.876   2.695
 8098TIP3   OH224257   1.326   0.534   1.202
 8098TIP3    H124258   1.238   0.511   1.234
 8098TIP3    H224259   1.357   0.455   1.158
 8099TIP3   OH224260   3.040   5.220   0.331
 8099TIP3    H124261   2.997   5.186   0.253
 8099TIP3    H224262   2.996   5.303   0.349
 8100TIP3   OH224263   5.363   2.320   2.262
 8100TIP3    H124264   5.357   2.226   2.250
 8100TIP3    H224265   5.314   2.357   2.189
 8101TIP3   OH224266   3.568   2.925   2.788
 8101TIP3    H124267   3.642   2.955   2.842
 8101TIP3    H224268   3.581   2.967   2.703
 8102TIP3   OH224269   3.488   6.105   0.797
 8102TIP3    H124270   3.522   6.082   0.884
 8102TIP3    H224271   3.523   6.037   0.739
 8103TIP3   OH224272   1.461   3.845   2.654
 8103TIP3    H124273   1.376   3.809   2.679
 8103TIP3    H224274   1.441   3.924   2.605
 8104TIP3   OH224275   2.084   5.470   3.784
 8104TIP3    H124276   2.109   5.412   3.711
 8104TIP3    H224277   2.158   5.529   3.794
 8105TIP3   OH224278   7.017   6.357   5.138
 8105TIP3    H124279   7.107   6.376   5.112
 8105TIP3    H224280   7.016   6.262   5.155
 8106TIP3   OH224281   5.056   3.177   4.255
 8106TIP3    H124282   5.036   3.084   4.246
 8106TIP3    H224283   5.115   3.181   4.330
 8107TIP3   OH224284   3.826   4.704   3.834
 8107TIP3    H124285   3.909   4.693   3.789
 8107TIP3    H224286   3.773   4.629   3.805
 8108TIP3   OH224287   1.158   4.058   5.571
 8108TIP3    H124288   1.110   4.125   5.523
 8108TIP3    H224289   1.153   3.980   5.516
 8109TIP3   OH224290   4.501   3.304   2.440
 8109TIP3    H124291   4.425   3.245   2.433
 8109TIP3    H224292   4.484   3.356   2.518
 8110TIP3   OH224293   2.232   1.797   0.274
 8110TIP3    H124294   2.202   1.764   0.189
 8110TIP3    H224295   2.299   1.862   0.252
 8111TIP3   OH224296   5.012   1.336   2.054
 8111TIP3    H124297   5.012   1.431   2.040
 8111TIP3    H224298   5.091   1.305   2.010
 8112TIP3   OH224299   3.365   4.373   5.381
 8112TIP3    H124300   3.399   4.289   5.411
 8112TIP3    H224301   3.271   4.359   5.371
 8113TIP3   OH224302   1.663   5.408   3.118
 8113TIP3    H124303   1.670   5.340   3.051
 8113TIP3    H224304   1.644   5.361   3.199
 8114TIP3   OH224305   3.906   4.829   4.511
 8114TIP3    H124306   3.932   4.821   4.420
 8114TIP3    H224307   3.868   4.744   4.533
 8115TIP3   OH224308   2.436   1.046   5.591
 8115TIP3    H124309   2.341   1.057   5.600
 8115TIP3    H224310   2.447   1.006   5.504
 8116TIP3   OH224311   5.221   3.562   4.340
 8116TIP3    H124312   5.168   3.622   4.286
 8116TIP3    H224313   5.218   3.600   4.428
 8117TIP3   OH224314   5.966   2.877   0.405
 8117TIP3    H124315   5.899   2.810   0.419
 8117TIP3    H224316   5.981   2.915   0.491
 8118TIP3   OH224317   4.807   3.798   2.800
 8118TIP3    H124318   4.841   3.845   2.724
 8118TIP3    H224319   4.772   3.716   2.765
 8119TIP3   OH224320   6.715   3.835   0.068
 8119TIP3    H124321   6.739   3.743   0.070
 8119TIP3    H224322   6.735   3.867   0.157
 8120TIP3   OH224323   0.532   1.221   4.264
 8120TIP3    H124324   0.516   1.313   4.244
 8120TIP3    H224325   0.607   1.197   4.210
 8121TIP3   OH224326   3.125   6.680   1.143
 8121TIP3    H124327   3.104   6.774   1.138
 8121TIP3    H224328   3.153   6.657   1.055
 8122TIP3   OH224329   1.772   1.394   0.440
 8122TIP3    H124330   1.786   1.302   0.462
 8122TIP3    H224331   1.828   1.442   0.501
 8123TIP3   OH224332   5.524   6.322   5.239
 8123TIP3    H124333   5.540   6.373   5.159
 8123TIP3    H224334   5.458   6.371   5.286
 8124TIP3   OH224335   3.640   1.663   0.642
 8124TIP3    H124336   3.700   1.732   0.670
 8124TIP3    H224337   3.554   1.693   0.671
 8125TIP3   OH224338   4.588   3.601   5.666
 8125TIP3    H124339   4.507   3.621   5.712
 8125TIP3    H224340   4.633   3.537   5.722
 8126TIP3   OH224341   1.443   4.901   4.891
 8126TIP3    H124342   1.349   4.893   4.904
 8126TIP3    H224343   1.453   4.971   4.826
 8127TIP3   OH224344   6.001   4.921   5.030
 8127TIP3    H124345   6.039   4.983   5.092
 8127TIP3    H224346   5.907   4.927   5.046
 8128TIP3   OH224347   1.357   3.118   3.899
 8128TIP3    H124348   1.405   3.081   3.973
 8128TIP3    H224349   1.361   3.213   3.913
 8129TIP3   OH224350   4.412   6.255   0.003
 8129TIP3    H124351   4.323   6.250  -0.031
 8129TIP3    H224352   4.405   6.315   0.078
 8130TIP3   OH224353   4.340   6.067   0.287
 8130TIP3    H124354   4.278   5.998   0.264
 8130TIP3    H224355   4.422   6.042   0.244
 8131TIP3   OH224356   5.350   6.334   3.544
 8131TIP3    H124357   5.275   6.338   3.603
 8131TIP3    H224358   5.311   6.337   3.456
 8132TIP3   OH224359   0.108   5.331   1.983
 8132TIP3    H124360   0.031   5.387   1.999
 8132TIP3    H224361   0.124   5.339   1.889
 8133TIP3   OH224362   2.687   3.555   1.998
 8133TIP3    H124363   2.594   3.562   2.021
 8133TIP3    H224364   2.690   3.573   1.904
 8134TIP3   OH224365   2.663   3.524   2.587
 8134TIP3    H124366   2.724   3.592   2.558
 8134TIP3    H224367   2.683   3.448   2.532
 8135TIP3   OH224368   5.303   6.761   2.240
 8135TIP3    H124369   5.350   6.686   2.205
 8135TIP3    H224370   5.232   6.724   2.292
 8136TIP3   OH224371   4.801   0.750   0.971
 8136TIP3    H124372   4.753   0.827   0.940
 8136TIP3    H224373   4.805   0.762   1.066
 8137TIP3   OH224374   3.388   6.552   1.278
 8137TIP3    H124375   3.472   6.598   1.281
 8137TIP3    H224376   3.323   6.620   1.296
 8138TIP3   OH224377   5.746   3.037   1.982
 8138TIP3    H124378   5.766   3.053   2.074
 8138TIP3    H224379   5.764   3.121   1.939
 8139TIP3   OH224380   4.160   4.761   1.644
 8139TIP3    H124381   4.137   4.677   1.683
 8139TIP3    H224382   4.078   4.795   1.609
 8140TIP3   OH224383   5.401   2.147   5.454
 8140TIP3    H124384   5.322   2.173   5.406
 8140TIP3    H224385   5.411   2.054   5.435
 8141TIP3   OH224386   1.683   1.944   4.317
 8141TIP3    H124387   1.648   1.875   4.261
 8141TIP3    H224388   1.752   1.985   4.265
 8142TIP3   OH224389   3.874   2.205   5.181
 8142TIP3    H124390   3.884   2.237   5.091
 8142TIP3    H224391   3.931   2.129   5.185
 8143TIP3   OH224392   5.398   2.726   2.474
 8143TIP3    H124393   5.439   2.658   2.420
 8143TIP3    H224394   5.421   2.703   2.564
 8144TIP3   OH224395   1.690   0.914   0.994
 8144TIP3    H124396   1.690   0.963   0.912
 8144TIP3    H224397   1.733   0.831   0.972
 8145TIP3   OH224398   0.638   0.861   4.171
 8145TIP3    H124399   0.583   0.862   4.250
 8145TIP3    H224400   0.692   0.939   4.179
 8146TIP3   OH224401   5.559   3.240   0.460
 8146TIP3    H124402   5.464   3.250   0.468
 8146TIP3    H224403   5.587   3.212   0.547
 8147TIP3   OH224404   5.739   6.621   2.147
 8147TIP3    H124405   5.808   6.686   2.164
 8147TIP3    H224406   5.783   6.537   2.156
 8148TIP3   OH224407   1.998   1.785   4.004
 8148TIP3    H124408   2.078   1.741   3.977
 8148TIP3    H224409   2.026   1.874   4.028
 8149TIP3   OH224410   4.243   5.128   3.325
 8149TIP3    H124411   4.305   5.155   3.257
 8149TIP3    H224412   4.294   5.132   3.406
 8150TIP3   OH224413   1.793   6.061   5.254
 8150TIP3    H124414   1.709   6.092   5.221
 8150TIP3    H224415   1.771   5.986   5.309
 8151TIP3   OH224416   6.714   0.366   4.524
 8151TIP3    H124417   6.804   0.345   4.549
 8151TIP3    H224418   6.718   0.384   4.430
 8152TIP3   OH224419   2.314   0.098   4.959
 8152TIP3    H124420   2.377   0.028   4.978
 8152TIP3    H224421   2.228   0.057   4.967
 8153TIP3   OH224422   1.153   4.856   4.779
 8153TIP3    H124423   1.128   4.800   4.852
 8153TIP3    H224424   1.094   4.931   4.785
 8154TIP3   OH224425   2.340   1.789   4.368
 8154TIP3    H124426   2.326   1.798   4.462
 8154TIP3    H224427   2.418   1.734   4.361
 8155TIP3   OH224428   5.009   5.473   3.230
 8155TIP3    H124429   5.006   5.512   3.143
 8155TIP3    H224430   5.101   5.450   3.243
 8156TIP3   OH224431   4.163   6.622   2.578
 8156TIP3    H124432   4.164   6.547   2.518
 8156TIP3    H224433   4.229   6.600   2.645
 8157TIP3   OH224434   1.790   5.582   3.731
 8157TIP3    H124435   1.788   5.589   3.636
 8157TIP3    H224436   1.877   5.548   3.751
 8158TIP3   OH224437   3.569   0.333   4.297
 8158TIP3    H124438   3.557   0.279   4.375
 8158TIP3    H224439   3.643   0.293   4.251
 8159TIP3   OH224440   5.012   4.855   2.823
 8159TIP3    H124441   5.010   4.934   2.769
 8159TIP3    H224442   5.021   4.888   2.913
 8160TIP3   OH224443   5.499   5.043   5.650
 8160TIP3    H124444   5.404   5.042   5.655
 8160TIP3    H224445   5.528   4.988   5.722
 8161TIP3   OH224446   5.059   5.853   0.383
 8161TIP3    H124447   5.002   5.897   0.320
 8161TIP3    H224448   5.011   5.774   0.407
 8162TIP3   OH224449   1.017   6.255   4.818
 8162TIP3    H124450   1.002   6.160   4.825
 8162TIP3    H224451   1.064   6.277   4.899
 8163TIP3   OH224452   5.387   3.815   5.782
 8163TIP3    H124453   5.299   3.846   5.761
 8163TIP3    H224454   5.393   3.730   5.738
 8164TIP3   OH224455   2.763   2.660   1.854
 8164TIP3    H124456   2.808   2.676   1.937
 8164TIP3    H224457   2.768   2.744   1.807
 8165TIP3   OH224458   0.806   0.890   1.889
 8165TIP3    H124459   0.712   0.875   1.881
 8165TIP3    H224460   0.843   0.862   1.805
 8166TIP3   OH224461   5.301   1.329   0.319
 8166TIP3    H124462   5.325   1.252   0.371
 8166TIP3    H224463   5.376   1.388   0.327
 8167TIP3   OH224464   1.422   5.060   0.430
 8167TIP3    H124465   1.332   5.063   0.398
 8167TIP3    H224466   1.465   4.994   0.374
 8168TIP3   OH224467   6.210   1.911   4.325
 8168TIP3    H124468   6.168   1.838   4.372
 8168TIP3    H224469   6.184   1.989   4.374
 8169TIP3   OH224470   2.710   0.916   1.320
 8169TIP3    H124471   2.774   0.892   1.253
 8169TIP3    H224472   2.761   0.922   1.401
 8170TIP3   OH224473   4.076   3.470   3.628
 8170TIP3    H124474   4.038   3.551   3.596
 8170TIP3    H224475   4.004   3.406   3.625
 8171TIP3   OH224476   4.782   1.484   2.528
 8171TIP3    H124477   4.749   1.395   2.513
 8171TIP3    H224478   4.874   1.472   2.550
 8172TIP3   OH224479   2.577   0.589   3.656
 8172TIP3    H124480   2.530   0.583   3.739
 8172TIP3    H224481   2.525   0.535   3.596
 8173TIP3   OH224482   1.661   3.932   1.741
 8173TIP3    H124483   1.747   3.970   1.725
 8173TIP3    H224484   1.599   3.997   1.707
 8174TIP3   OH224485   1.713   2.651   0.313
 8174TIP3    H124486   1.644   2.594   0.280
 8174TIP3    H224487   1.777   2.656   0.242
 8175TIP3   OH224488   5.231   3.168   5.145
 8175TIP3    H124489   5.226   3.094   5.084
 8175TIP3    H224490   5.156   3.156   5.203
 8176TIP3   OH224491   3.937   3.472   1.428
 8176TIP3    H124492   3.883   3.542   1.391
 8176TIP3    H224493   3.897   3.391   1.395
 8177TIP3   OH224494   0.603   4.657   4.550
 8177TIP3    H124495   0.698   4.653   4.538
 8177TIP3    H224496   0.568   4.656   4.461
 8178TIP3   OH224497   1.056   6.415   3.676
 8178TIP3    H124498   1.125   6.475   3.651
 8178TIP3    H224499   0.997   6.413   3.601
 8179TIP3   OH224500   6.286   2.212   3.840
 8179TIP3    H124501   6.252   2.201   3.928
 8179TIP3    H224502   6.371   2.254   3.851
 8180TIP3   OH224503   6.308   0.992   2.378
 8180TIP3    H124504   6.231   1.026   2.332
 8180TIP3    H224505   6.274   0.962   2.463
 8181TIP3   OH224506   6.302   5.376   4.187
 8181TIP3    H124507   6.309   5.317   4.262
 8181TIP3    H224508   6.390   5.414   4.178
 8182TIP3   OH224509   3.074   1.046   0.208
 8182TIP3    H124510   3.133   0.987   0.254
 8182TIP3    H224511   3.127   1.086   0.140
 8183TIP3   OH224512   6.711   6.264   5.028
 8183TIP3    H124513   6.722   6.201   5.099
 8183TIP3    H224514   6.795   6.308   5.021
 8184TIP3   OH224515   0.841   1.544   3.345
 8184TIP3    H124516   0.899   1.578   3.277
 8184TIP3    H224517   0.884   1.465   3.377
 8185TIP3   OH224518   0.006   6.064   4.001
 8185TIP3    H124519   0.084   6.116   3.982
 8185TIP3    H224520   0.041   5.977   4.020
 8186TIP3   OH224521   5.970   2.947   1.015
 8186TIP3    H124522   5.999   2.943   0.924
 8186TIP3    H224523   6.043   2.911   1.065
 8187TIP3   OH224524   1.637   5.341   0.907
 8187TIP3    H124525   1.712   5.399   0.923
 8187TIP3    H224526   1.653   5.305   0.819
 8188TIP3   OH224527   2.417   1.661   2.422
 8188TIP3    H124528   2.504   1.623   2.410
 8188TIP3    H224529   2.359   1.605   2.370
 8189TIP3   OH224530   7.009   3.697   0.256
 8189TIP3    H124531   7.011   3.775   0.312
 8189TIP3    H224532   6.920   3.665   0.263
 8190TIP3   OH224533   5.521   1.440   2.441
 8190TIP3    H124534   5.553   1.500   2.373
 8190TIP3    H224535   5.585   1.369   2.441
 8191TIP3   OH224536   0.701   6.635   5.594
 8191TIP3    H124537   0.723   6.542   5.597
 8191TIP3    H224538   0.746   6.668   5.516
 8192TIP3   OH224539   3.480   5.335   4.277
 8192TIP3    H124540   3.511   5.416   4.238
 8192TIP3    H224541   3.545   5.315   4.345
 8193TIP3   OH224542   0.471   2.103   0.456
 8193TIP3    H124543   0.532   2.054   0.401
 8193TIP3    H224544   0.416   2.037   0.497
 8194TIP3   OH224545   4.880   3.328   0.783
 8194TIP3    H124546   4.921   3.412   0.763
 8194TIP3    H224547   4.820   3.347   0.855
 8195TIP3   OH224548   3.116   4.185   4.499
 8195TIP3    H124549   3.188   4.164   4.559
 8195TIP3    H224550   3.131   4.276   4.474
 8196TIP3   OH224551   5.217   5.758   2.284
 8196TIP3    H124552   5.267   5.705   2.222
 8196TIP3    H224553   5.224   5.711   2.367
 8197TIP3   OH224554   1.898   3.517   4.233
 8197TIP3    H124555   1.951   3.573   4.176
 8197TIP3    H224556   1.962   3.463   4.279
 8198TIP3   OH224557   1.911   2.760   4.654
 8198TIP3    H124558   1.960   2.693   4.701
 8198TIP3    H224559   1.958   2.841   4.672
 8199TIP3   OH224560   5.875   4.865   3.388
 8199TIP3    H124561   5.879   4.794   3.452
 8199TIP3    H224562   5.875   4.945   3.440
 8200TIP3   OH224563   5.887   0.845   3.489
 8200TIP3    H124564   5.886   0.835   3.394
 8200TIP3    H224565   5.806   0.892   3.509
 8201TIP3   OH224566   4.995   4.939   3.109
 8201TIP3    H124567   5.023   5.022   3.148
 8201TIP3    H224568   4.923   4.910   3.164
 8202TIP3   OH224569   2.578   4.078   0.614
 8202TIP3    H124570   2.657   4.045   0.572
 8202TIP3    H224571   2.507   4.055   0.555
 8203TIP3   OH224572   3.065   5.683   2.380
 8203TIP3    H124573   3.065   5.719   2.291
 8203TIP3    H224574   2.996   5.617   2.379
 8204TIP3   OH224575   5.604   5.308   2.360
 8204TIP3    H124576   5.637   5.381   2.413
 8204TIP3    H224577   5.519   5.339   2.328
 8205TIP3   OH224578   2.539   0.917   1.572
 8205TIP3    H124579   2.501   0.997   1.536
 8205TIP3    H224580   2.628   0.941   1.596
 8206TIP3   OH224581   2.762   1.633   4.173
 8206TIP3    H124582   2.843   1.638   4.123
 8206TIP3    H224583   2.693   1.634   4.107
 8207TIP3   OH224584   7.203   3.914   2.123
 8207TIP3    H124585   7.124   3.927   2.070
 8207TIP3    H224586   7.246   3.838   2.082
 8208TIP3   OH224587   3.995   2.118   0.547
 8208TIP3    H124588   3.957   2.148   0.630
 8208TIP3    H224589   4.088   2.106   0.566
 8209TIP3   OH224590   0.274   3.110   5.366
 8209TIP3    H124591   0.251   3.021   5.338
 8209TIP3    H224592   0.195   3.143   5.408
 8210TIP3   OH224593   3.026   6.047   5.485
 8210TIP3    H124594   3.020   5.958   5.450
 8210TIP3    H224595   2.945   6.089   5.456
 8211TIP3   OH224596   6.931   0.720   5.477
 8211TIP3    H124597   6.947   0.629   5.502
 8211TIP3    H224598   6.840   0.736   5.502
 8212TIP3   OH224599   4.220   5.765   1.422
 8212TIP3    H124600   4.265   5.768   1.507
 8212TIP3    H224601   4.227   5.855   1.389
 8213TIP3   OH224602   6.093   6.840   2.872
 8213TIP3    H124603   6.139   6.756   2.870
 8213TIP3    H224604   6.118   6.879   2.956
 8214TIP3   OH224605   1.552   1.190   5.213
 8214TIP3    H124606   1.571   1.269   5.265
 8214TIP3    H224607   1.618   1.191   5.144
 8215TIP3   OH224608   3.481   2.734   4.308
 8215TIP3    H124609   3.488   2.684   4.227
 8215TIP3    H224610   3.418   2.804   4.288
 8216TIP3   OH224611   5.219   6.110   3.027
 8216TIP3    H124612   5.235   6.200   2.996
 8216TIP3    H224613   5.303   6.083   3.065
 8217TIP3   OH224614   5.709   2.756   0.452
 8217TIP3    H124615   5.679   2.673   0.414
 8217TIP3    H224616   5.696   2.819   0.381
 8218TIP3   OH224617   3.958   0.333   4.578
 8218TIP3    H124618   4.013   0.287   4.514
 8218TIP3    H224619   3.919   0.263   4.631
 8219TIP3   OH224620   0.318   3.851   3.000
 8219TIP3    H124621   0.270   3.902   2.934
 8219TIP3    H224622   0.253   3.793   3.038
 8220TIP3   OH224623   4.620   1.395   5.699
 8220TIP3    H124624   4.680   1.342   5.751
 8220TIP3    H224625   4.622   1.356   5.612
 8221TIP3   OH224626   4.804   1.491   0.749
 8221TIP3    H124627   4.800   1.585   0.730
 8221TIP3    H224628   4.833   1.486   0.840
 8222TIP3   OH224629   0.220   2.332   1.889
 8222TIP3    H124630   0.132   2.353   1.921
 8222TIP3    H224631   0.265   2.295   1.965
 8223TIP3   OH224632   3.749   0.193   3.410
 8223TIP3    H124633   3.779   0.107   3.381
 8223TIP3    H224634   3.655   0.184   3.421
 8224TIP3   OH224635   4.855   6.252   2.998
 8224TIP3    H124636   4.884   6.334   3.040
 8224TIP3    H224637   4.839   6.276   2.907
 8225TIP3   OH224638   2.230   2.776   5.634
 8225TIP3    H124639   2.318   2.738   5.637
 8225TIP3    H224640   2.227   2.833   5.711
 8226TIP3   OH224641   5.058   5.114   5.146
 8226TIP3    H124642   4.995   5.141   5.212
 8226TIP3    H224643   5.033   5.024   5.124
 8227TIP3   OH224644   2.534   6.081   3.722
 8227TIP3    H124645   2.608   6.105   3.665
 8227TIP3    H224646   2.479   6.024   3.667
 8228TIP3   OH224647   4.385   3.704   4.101
 8228TIP3    H124648   4.303   3.747   4.077
 8228TIP3    H224649   4.378   3.616   4.062
 8229TIP3   OH224650   3.310   0.705   0.529
 8229TIP3    H124651   3.250   0.631   0.533
 8229TIP3    H224652   3.375   0.687   0.597
 8230TIP3   OH224653   1.141   4.180   2.298
 8230TIP3    H124654   1.202   4.174   2.225
 8230TIP3    H224655   1.153   4.269   2.332
 8231TIP3   OH224656   1.987   2.257   3.331
 8231TIP3    H124657   2.076   2.239   3.362
 8231TIP3    H224658   1.947   2.171   3.323
 8232TIP3   OH224659   3.410   0.053   4.491
 8232TIP3    H124660   3.346  -0.018   4.490
 8232TIP3    H224661   3.358   0.133   4.497
 8233TIP3   OH224662   3.983   4.855   3.541
 8233TIP3    H124663   4.004   4.920   3.608
 8233TIP3    H224664   4.044   4.784   3.556
 8234TIP3   OH224665   6.109   1.960   1.765
 8234TIP3    H124666   6.103   1.872   1.800
 8234TIP3    H224667   6.181   2.000   1.812
 8235TIP3   OH224668   5.086   2.339   4.037
 8235TIP3    H124669   5.046   2.367   3.954
 8235TIP3    H224670   5.027   2.373   4.104
 8236TIP3   OH224671   2.354   3.211   4.643
 8236TIP3    H124672   2.356   3.189   4.550
 8236TIP3    H224673   2.352   3.307   4.644
 8237TIP3   OH224674   5.519   2.803   4.015
 8237TIP3    H124675   5.531   2.872   3.949
 8237TIP3    H224676   5.511   2.850   4.098
 8238TIP3   OH224677   7.206   4.916   5.654
 8238TIP3    H124678   7.199   4.947   5.745
 8238TIP3    H224679   7.203   4.821   5.662
 8239TIP3   OH224680   4.780   6.374   3.965
 8239TIP3    H124681   4.809   6.443   4.025
 8239TIP3    H224682   4.708   6.331   4.011
 8240TIP3   OH224683   3.672   6.047   4.158
 8240TIP3    H124684   3.618   5.995   4.218
 8240TIP3    H224685   3.643   6.138   4.172
 8241TIP3   OH224686   4.374   4.751   1.890
 8241TIP3    H124687   4.362   4.844   1.870
 8241TIP3    H224688   4.335   4.705   1.816
 8242TIP3   OH224689   1.772   5.505   1.446
 8242TIP3    H124690   1.706   5.462   1.392
 8242TIP3    H224691   1.838   5.534   1.383
 8243TIP3   OH224692   1.920   5.331   3.423
 8243TIP3    H124693   1.892   5.293   3.506
 8243TIP3    H224694   2.015   5.320   3.423
 8244TIP3   OH224695   4.999   0.233   5.135
 8244TIP3    H124696   4.996   0.312   5.189
 8244TIP3    H224697   5.090   0.229   5.104
 8245TIP3   OH224698   2.108   6.788   0.714
 8245TIP3    H124699   2.182   6.818   0.766
 8245TIP3    H224700   2.132   6.698   0.689
 8246TIP3   OH224701   6.356   3.634   5.604
 8246TIP3    H124702   6.406   3.555   5.586
 8246TIP3    H224703   6.319   3.620   5.691
 8247TIP3   OH224704   0.085   3.891   4.845
 8247TIP3    H124705   0.048   3.823   4.901
 8247TIP3    H224706   0.068   3.973   4.892
 8248TIP3   OH224707   1.883   5.330   2.787
 8248TIP3    H124708   1.809   5.379   2.750
 8248TIP3    H224709   1.846   5.286   2.863
 8249TIP3   OH224710   1.228   0.859   3.787
 8249TIP3    H124711   1.168   0.816   3.848
 8249TIP3    H224712   1.279   0.788   3.749
 8250TIP3   OH224713   2.783   5.172   4.170
 8250TIP3    H124714   2.739   5.206   4.248
 8250TIP3    H224715   2.868   5.217   4.168
 8251TIP3   OH224716   6.510   0.637   2.611
 8251TIP3    H124717   6.534   0.648   2.519
 8251TIP3    H224718   6.587   0.669   2.659
 8252TIP3   OH224719   0.052   5.561   0.711
 8252TIP3    H124720  -0.040   5.542   0.731
 8252TIP3    H224721   0.083   5.483   0.665
 8253TIP3   OH224722   6.618   2.327   0.318
 8253TIP3    H124723   6.566   2.250   0.342
 8253TIP3    H224724   6.607   2.387   0.392
 8254TIP3   OH224725   3.352   2.866   2.512
 8254TIP3    H124726   3.266   2.900   2.489
 8254TIP3    H224727   3.408   2.944   2.518
 8255TIP3   OH224728   2.751   1.889   2.040
 8255TIP3    H124729   2.801   1.833   1.980
 8255TIP3    H224730   2.799   1.972   2.040
 8256TIP3   OH224731   7.011   1.873   3.018
 8256TIP3    H124732   6.964   1.935   2.963
 8256TIP3    H224733   6.943   1.816   3.054
 8257TIP3   OH224734   3.458   2.464   4.643
 8257TIP3    H124735   3.447   2.411   4.565
 8257TIP3    H224736   3.513   2.411   4.701
 8258TIP3   OH224737   7.133   1.061   4.550
 8258TIP3    H124738   7.212   1.011   4.574
 8258TIP3    H224739   7.145   1.079   4.456
 8259TIP3   OH224740   0.079   5.477   3.202
 8259TIP3    H124741   0.097   5.390   3.237
 8259TIP3    H224742   0.164   5.508   3.171
 8260TIP3   OH224743   1.441   0.592   0.785
 8260TIP3    H124744   1.376   0.652   0.748
 8260TIP3    H224745   1.460   0.628   0.872
 8261TIP3   OH224746   2.789   4.116   5.722
 8261TIP3    H124747   2.777   4.085   5.633
 8261TIP3    H224748   2.750   4.047   5.777
 8262TIP3   OH224749   1.969   6.522   3.234
 8262TIP3    H124750   2.036   6.455   3.228
 8262TIP3    H224751   1.941   6.521   3.325
 8263TIP3   OH224752   4.178   1.675   5.105
 8263TIP3    H124753   4.200   1.595   5.058
 8263TIP3    H224754   4.148   1.644   5.191
 8264TIP3   OH224755   2.113   4.943   0.516
 8264TIP3    H124756   2.100   4.917   0.607
 8264TIP3    H224757   2.162   4.872   0.477
 8265TIP3   OH224758   1.892   6.694   2.790
 8265TIP3    H124759   1.953   6.751   2.742
 8265TIP3    H224760   1.903   6.719   2.882
 8266TIP3   OH224761   3.852   1.862   1.051
 8266TIP3    H124762   3.781   1.849   1.114
 8266TIP3    H224763   3.817   1.924   0.987
 8267TIP3   OH224764   4.365   3.607   5.255
 8267TIP3    H124765   4.412   3.666   5.314
 8267TIP3    H224766   4.398   3.629   5.168
 8268TIP3   OH224767   3.808   2.152   4.169
 8268TIP3    H124768   3.827   2.150   4.075
 8268TIP3    H224769   3.829   2.063   4.200
 8269TIP3   OH224770   6.680   6.491   2.953
 8269TIP3    H124771   6.765   6.533   2.969
 8269TIP3    H224772   6.698   6.427   2.885
 8270TIP3   OH224773   6.714   0.567   1.079
 8270TIP3    H124774   6.639   0.580   1.137
 8270TIP3    H224775   6.768   0.502   1.124
 8271TIP3   OH224776   2.229   3.895   2.285
 8271TIP3    H124777   2.178   3.955   2.231
 8271TIP3    H224778   2.229   3.934   2.372
 8272TIP3   OH224779   2.084   1.483   2.299
 8272TIP3    H124780   2.041   1.422   2.359
 8272TIP3    H224781   2.013   1.530   2.256
 8273TIP3   OH224782   3.865   0.837   5.119
 8273TIP3    H124783   3.884   0.748   5.148
 8273TIP3    H224784   3.878   0.834   5.024
 8274TIP3   OH224785   6.255   2.421   1.246
 8274TIP3    H124786   6.224   2.449   1.160
 8274TIP3    H224787   6.271   2.327   1.237
 8275TIP3   OH224788   5.496   6.275   1.375
 8275TIP3    H124789   5.532   6.359   1.346
 8275TIP3    H224790   5.410   6.271   1.332
 8276TIP3   OH224791   0.588   5.752   3.871
 8276TIP3    H124792   0.616   5.788   3.787
 8276TIP3    H224793   0.656   5.779   3.932
 8277TIP3   OH224794   3.346   4.015   5.276
 8277TIP3    H124795   3.307   3.934   5.308
 8277TIP3    H224796   3.395   4.049   5.351
 8278TIP3   OH224797   4.562   2.764   2.243
 8278TIP3    H124798   4.550   2.822   2.318
 8278TIP3    H224799   4.621   2.812   2.185
 8279TIP3   OH224800   5.852   5.793   4.551
 8279TIP3    H124801   5.877   5.854   4.482
 8279TIP3    H224802   5.861   5.707   4.511
 8280TIP3   OH224803   7.259   6.188   5.411
 8280TIP3    H124804   7.190   6.243   5.374
 8280TIP3    H224805   7.263   6.111   5.354
 8281TIP3   OH224806   2.485   4.854   0.025
 8281TIP3    H124807   2.440   4.826  -0.055
 8281TIP3    H224808   2.578   4.846   0.004
 8282TIP3   OH224809   6.267   3.511   2.590
 8282TIP3    H124810   6.356   3.546   2.587
 8282TIP3    H224811   6.213   3.582   2.554
 8283TIP3   OH224812   1.992   5.802   3.476
 8283TIP3    H124813   1.904   5.773   3.454
 8283TIP3    H224814   1.994   5.803   3.572
 8284TIP3   OH224815   3.898   6.394   5.132
 8284TIP3    H124816   3.964   6.461   5.148
 8284TIP3    H224817   3.832   6.437   5.077
 8285TIP3   OH224818   2.171   1.195   0.613
 8285TIP3    H124819   2.194   1.220   0.703
 8285TIP3    H224820   2.219   1.114   0.597
 8286TIP3   OH224821   5.748   0.103   0.448
 8286TIP3    H124822   5.808   0.139   0.383
 8286TIP3    H224823   5.667   0.086   0.400
 8287TIP3   OH224824   3.403   5.237   2.235
 8287TIP3    H124825   3.418   5.196   2.150
 8287TIP3    H224826   3.316   5.208   2.261
 8288TIP3   OH224827   3.807   0.418   5.632
 8288TIP3    H124828   3.752   0.485   5.674
 8288TIP3    H224829   3.895   0.455   5.634
 8289TIP3   OH224830   3.772   6.251   1.984
 8289TIP3    H124831   3.716   6.174   1.990
 8289TIP3    H224832   3.756   6.300   2.065
 8290TIP3   OH224833   2.428   5.796   0.851
 8290TIP3    H124834   2.514   5.779   0.889
 8290TIP3    H224835   2.389   5.861   0.910
 8291TIP3   OH224836   2.578   5.889   4.687
 8291TIP3    H124837   2.499   5.835   4.687
 8291TIP3    H224838   2.634   5.850   4.620
 8292TIP3   OH224839   2.062   0.812   1.813
 8292TIP3    H124840   2.123   0.745   1.783
 8292TIP3    H224841   1.975   0.777   1.793
 8293TIP3   OH224842   1.728   3.939   3.171
 8293TIP3    H124843   1.681   4.019   3.193
 8293TIP3    H224844   1.761   3.954   3.082
 8294TIP3   OH224845   5.157   4.617   3.424
 8294TIP3    H124846   5.189   4.551   3.485
 8294TIP3    H224847   5.094   4.668   3.475
 8295TIP3   OH224848   5.849   1.669   5.306
 8295TIP3    H124849   5.922   1.653   5.246
 8295TIP3    H224850   5.850   1.764   5.319
 8296TIP3   OH224851   6.553   2.716   5.292
 8296TIP3    H124852   6.589   2.800   5.319
 8296TIP3    H224853   6.504   2.685   5.368
 8297TIP3   OH224854   3.550   4.996   2.729
 8297TIP3    H124855   3.580   5.084   2.706
 8297TIP3    H224856   3.582   4.940   2.658
 8298TIP3   OH224857   2.527   3.367   0.707
 8298TIP3    H124858   2.495   3.421   0.635
 8298TIP3    H224859   2.543   3.281   0.667
 8299TIP3   OH224860   2.313   0.215   5.800
 8299TIP3    H124861   2.288   0.162   5.875
 8299TIP3    H224862   2.401   0.184   5.776
 8300TIP3   OH224863   6.147   1.125   1.392
 8300TIP3    H124864   6.066   1.083   1.364
 8300TIP3    H224865   6.192   1.059   1.444
 8301TIP3   OH224866   3.319   5.574   2.319
 8301TIP3    H124867   3.231   5.607   2.334
 8301TIP3    H224868   3.310   5.479   2.325
 8302TIP3   OH224869   1.842   0.820   1.411
 8302TIP3    H124870   1.793   0.825   1.493
 8302TIP3    H224871   1.933   0.836   1.436
 8303TIP3   OH224872   3.305   3.284   3.628
 8303TIP3    H124873   3.314   3.226   3.552
 8303TIP3    H224874   3.248   3.355   3.597
 8304TIP3   OH224875   5.252   1.054   1.574
 8304TIP3    H124876   5.225   1.131   1.623
 8304TIP3    H224877   5.174   0.997   1.574
 8305TIP3   OH224878   2.592   1.722   2.176
 8305TIP3    H124879   2.645   1.653   2.216
 8305TIP3    H224880   2.655   1.782   2.136
 8306TIP3   OH224881   4.775   2.062   1.743
 8306TIP3    H124882   4.870   2.061   1.741
 8306TIP3    H224883   4.752   2.149   1.775
 8307TIP3   OH224884   2.149   2.226   0.083
 8307TIP3    H124885   2.124   2.144   0.126
 8307TIP3    H224886   2.184   2.280   0.154
 8308TIP3   OH224887   2.423   2.435   0.402
 8308TIP3    H124888   2.337   2.435   0.362
 8308TIP3    H224889   2.418   2.502   0.471
 8309TIP3   OH224890   6.191   3.996   5.417
 8309TIP3    H124891   6.120   4.060   5.414
 8309TIP3    H224892   6.246   4.017   5.342
 8310TIP3   OH224893   1.424   0.628   0.041
 8310TIP3    H124894   1.416   0.670   0.127
 8310TIP3    H224895   1.446   0.537   0.060
 8311TIP3   OH224896   0.396   6.706   0.243
 8311TIP3    H124897   0.345   6.629   0.216
 8311TIP3    H224898   0.410   6.755   0.162
 8312TIP3   OH224899   2.436   3.798   3.657
 8312TIP3    H124900   2.495   3.725   3.635
 8312TIP3    H224901   2.484   3.876   3.632
 8313TIP3   OH224902   2.858   0.699   0.391
 8313TIP3    H124903   2.874   0.619   0.341
 8313TIP3    H224904   2.903   0.684   0.475
 8314TIP3   OH224905   1.789   3.478   3.036
 8314TIP3    H124906   1.699   3.508   3.044
 8314TIP3    H224907   1.841   3.543   3.083
 8315TIP3   OH224908   2.330   5.129   5.492
 8315TIP3    H124909   2.300   5.112   5.581
 8315TIP3    H224910   2.388   5.056   5.471
 8316TIP3   OH224911   2.496   6.409   1.227
 8316TIP3    H124912   2.493   6.483   1.287
 8316TIP3    H224913   2.510   6.333   1.284
 8317TIP3   OH224914   7.005   4.506   0.440
 8317TIP3    H124915   6.957   4.510   0.357
 8317TIP3    H224916   7.087   4.462   0.418
 8318TIP3   OH224917   5.062   1.404  -0.023
 8318TIP3    H124918   5.049   1.321   0.023
 8318TIP3    H224919   4.985   1.457   0.002
 8319TIP3   OH224920   4.811   6.144   4.867
 8319TIP3    H124921   4.801   6.168   4.775
 8319TIP3    H224922   4.747   6.199   4.913
 8320TIP3   OH224923   1.164   1.027   1.645
 8320TIP3    H124924   1.194   1.118   1.647
 8320TIP3    H224925   1.086   1.029   1.589
 8321TIP3   OH224926   6.756   4.976   3.902
 8321TIP3    H124927   6.665   4.949   3.894
 8321TIP3    H224928   6.752   5.069   3.925
 8322TIP3   OH224929   3.634   2.136   0.045
 8322TIP3    H124930   3.711   2.078   0.053
 8322TIP3    H224931   3.648   2.203   0.112
 8323TIP3   OH224932   5.215   4.389   0.819
 8323TIP3    H124933   5.233   4.347   0.735
 8323TIP3    H224934   5.187   4.478   0.797
 8324TIP3   OH224935   0.061   2.108   3.772
 8324TIP3    H124936   0.100   2.175   3.829
 8324TIP3    H224937   0.005   2.158   3.713
 8325TIP3   OH224938   3.366   6.616   5.281
 8325TIP3    H124939   3.423   6.621   5.358
 8325TIP3    H224940   3.307   6.543   5.299
 8326TIP3   OH224941   2.697   2.196   4.404
 8326TIP3    H124942   2.726   2.195   4.495
 8326TIP3    H224943   2.602   2.205   4.408
 8327TIP3   OH224944   3.447   6.156   2.569
 8327TIP3    H124945   3.398   6.224   2.523
 8327TIP3    H224946   3.440   6.180   2.662
 8328TIP3   OH224947   4.568   1.844   0.261
 8328TIP3    H124948   4.637   1.908   0.244
 8328TIP3    H224949   4.488   1.896   0.263
 8329TIP3   OH224950   2.378   5.646   2.358
 8329TIP3    H124951   2.333   5.729   2.372
 8329TIP3    H224952   2.373   5.631   2.264
 8330TIP3   OH224953   1.927   4.740   1.263
 8330TIP3    H124954   1.860   4.777   1.321
 8330TIP3    H224955   1.892   4.654   1.239
 8331TIP3   OH224956   0.197   1.204   3.218
 8331TIP3    H124957   0.273   1.164   3.260
 8331TIP3    H224958   0.144   1.237   3.291
 8332TIP3   OH224959   3.719   2.085   0.428
 8332TIP3    H124960   3.789   2.027   0.399
 8332TIP3    H224961   3.764   2.167   0.449
 8333TIP3   OH224962   5.470   3.488   1.567
 8333TIP3    H124963   5.377   3.475   1.546
 8333TIP3    H224964   5.504   3.399   1.579
 8334TIP3   OH224965   1.901   2.462   2.978
 8334TIP3    H124966   1.901   2.542   2.926
 8334TIP3    H224967   1.988   2.424   2.964
 8335TIP3   OH224968   0.595   5.718   0.684
 8335TIP3    H124969   0.549   5.799   0.660
 8335TIP3    H224970   0.526   5.661   0.719
 8336TIP3   OH224971   6.441   0.537   4.431
 8336TIP3    H124972   6.479   0.483   4.361
 8336TIP3    H224973   6.446   0.483   4.509
 8337TIP3   OH224974   4.615   0.234   0.913
 8337TIP3    H124975   4.690   0.215   0.970
 8337TIP3    H224976   4.634   0.320   0.876
 8338TIP3   OH224977   4.991   1.427   1.139
 8338TIP3    H124978   5.000   1.381   1.222
 8338TIP3    H224979   4.977   1.358   1.075
 8339TIP3   OH224980   3.925   2.261   0.077
 8339TIP3    H124981   3.979   2.327   0.122
 8339TIP3    H224982   3.868   2.226   0.145
 8340TIP3   OH224983   0.603   3.344   3.417
 8340TIP3    H124984   0.599   3.292   3.337
 8340TIP3    H224985   0.541   3.302   3.477
 8341TIP3   OH224986   3.152   3.372   1.824
 8341TIP3    H124987   3.158   3.282   1.790
 8341TIP3    H224988   3.064   3.378   1.862
 8342TIP3   OH224989   5.410   4.950   5.080
 8342TIP3    H124990   5.399   4.986   5.168
 8342TIP3    H224991   5.322   4.946   5.044
 8343TIP3   OH224992   5.952   6.703   0.654
 8343TIP3    H124993   5.903   6.781   0.628
 8343TIP3    H224994   6.044   6.730   0.650
 8344TIP3   OH224995   7.120   3.002   4.863
 8344TIP3    H124996   7.095   3.091   4.840
 8344TIP3    H224997   7.195   2.982   4.807
 8345TIP3   OH224998   2.102   2.462   1.025
 8345TIP3    H124999   2.188   2.499   1.041
 8345TIP3    H225000   2.071   2.433   1.111
 8346TIP3   OH225001   2.692   3.410   4.112
 8346TIP3    H125002   2.725   3.485   4.063
 8346TIP3    H225003   2.603   3.433   4.136
 8347TIP3   OH225004   7.078   5.484   2.089
 8347TIP3    H125005   7.044   5.396   2.074
 8347TIP3    H225006   7.002   5.536   2.114
 8348TIP3   OH225007   0.172   0.483   4.710
 8348TIP3    H125008   0.211   0.441   4.787
 8348TIP3    H225009   0.100   0.536   4.745
 8349TIP3   OH225010   0.544   5.603   5.330
 8349TIP3    H125011   0.550   5.691   5.294
 8349TIP3    H225012   0.455   5.575   5.310
 8350TIP3   OH225013   0.144   4.396   4.270
 8350TIP3    H125014   0.161   4.331   4.338
 8350TIP3    H225015   0.093   4.349   4.204
 8351TIP3   OH225016   4.735   0.509   0.863
 8351TIP3    H125017   4.759   0.596   0.894
 8351TIP3    H225018   4.815   0.457   0.871
 8352TIP3   OH225019   2.112   0.183   3.098
 8352TIP3    H125020   2.168   0.203   3.023
 8352TIP3    H225021   2.060   0.263   3.112
 8353TIP3   OH225022   5.108   1.539   4.895
 8353TIP3    H125023   5.200   1.512   4.901
 8353TIP3    H225024   5.105   1.601   4.823
 8354TIP3   OH225025   5.134   4.410   1.739
 8354TIP3    H125026   5.190   4.349   1.787
 8354TIP3    H225027   5.133   4.376   1.649
 8355TIP3   OH225028   5.239   2.082   1.976
 8355TIP3    H125029   5.265   2.076   2.068
 8355TIP3    H225030   5.288   2.157   1.942
 8356TIP3   OH225031   3.219   3.627   0.885
 8356TIP3    H125032   3.191   3.718   0.895
 8356TIP3    H225033   3.194   3.585   0.968
 8357TIP3   OH225034   4.496   4.120   1.896
 8357TIP3    H125035   4.411   4.075   1.891
 8357TIP3    H225036   4.473   4.213   1.898
 8358TIP3   OH225037   1.179   4.377   1.527
 8358TIP3    H125038   1.176   4.299   1.470
 8358TIP3    H225039   1.255   4.426   1.496
 8359TIP3   OH225040   5.492   2.332   3.178
 8359TIP3    H125041   5.496   2.416   3.223
 8359TIP3    H225042   5.453   2.351   3.093
 8360TIP3   OH225043   0.290   5.659   4.800
 8360TIP3    H125044   0.242   5.732   4.761
 8360TIP3    H225045   0.379   5.693   4.810
 8361TIP3   OH225046   2.118   3.840   4.666
 8361TIP3    H125047   2.120   3.933   4.642
 8361TIP3    H225048   2.179   3.833   4.740
 8362TIP3   OH225049   0.135   6.700   2.124
 8362TIP3    H125050   0.163   6.610   2.106
 8362TIP3    H225051   0.143   6.745   2.040
 8363TIP3   OH225052   5.186   4.962   1.655
 8363TIP3    H125053   5.193   4.881   1.604
 8363TIP3    H225054   5.225   4.941   1.740
 8364TIP3   OH225055   0.717   0.851   0.569
 8364TIP3    H125056   0.757   0.934   0.593
 8364TIP3    H225057   0.729   0.796   0.647
 8365TIP3   OH225058   5.789   0.189   0.824
 8365TIP3    H125059   5.854   0.147   0.768
 8365TIP3    H225060   5.840   0.248   0.880
 8366TIP3   OH225061   5.092   6.485   3.356
 8366TIP3    H125062   5.182   6.483   3.326
 8366TIP3    H225063   5.077   6.399   3.395
 8367TIP3   OH225064   3.756   5.088   4.312
 8367TIP3    H125065   3.746   5.083   4.407
 8367TIP3    H225066   3.700   5.018   4.279
 8368TIP3   OH225067   5.083   5.794   4.443
 8368TIP3    H125068   5.113   5.716   4.488
 8368TIP3    H225069   5.163   5.840   4.417
 8369TIP3   OH225070   4.235   6.099   5.145
 8369TIP3    H125071   4.265   6.010   5.163
 8369TIP3    H225072   4.149   6.087   5.104
 8370TIP3   OH225073   1.729   5.961   0.758
 8370TIP3    H125074   1.660   6.027   0.766
 8370TIP3    H225075   1.683   5.878   0.747
 8371TIP3   OH225076   3.946   4.112   3.153
 8371TIP3    H125077   4.033   4.120   3.192
 8371TIP3    H225078   3.887   4.146   3.220
 8372TIP3   OH225079   5.993   6.724   2.613
 8372TIP3    H125080   6.025   6.763   2.695
 8372TIP3    H225081   6.026   6.782   2.545
 8373TIP3   OH225082   6.734   3.922   1.614
 8373TIP3    H125083   6.787   3.858   1.660
 8373TIP3    H225084   6.652   3.927   1.664
 8374TIP3   OH225085   6.759   2.612   0.836
 8374TIP3    H125086   6.753   2.704   0.863
 8374TIP3    H225087   6.850   2.601   0.809
 8375TIP3   OH225088   5.608   2.268   5.604
 8375TIP3    H125089   5.549   2.321   5.658
 8375TIP3    H225090   5.549   2.217   5.548
 8376TIP3   OH225091   6.287   0.533   0.117
 8376TIP3    H125092   6.286   0.456   0.172
 8376TIP3    H225093   6.218   0.517   0.052
 8377TIP3   OH225094   1.672   5.525   1.191
 8377TIP3    H125095   1.587   5.533   1.235
 8377TIP3    H225096   1.687   5.431   1.184
 8378TIP3   OH225097   2.786   0.445   3.231
 8378TIP3    H125098   2.757   0.370   3.283
 8378TIP3    H225099   2.853   0.409   3.173
 8379TIP3   OH225100   1.077   3.868   0.967
 8379TIP3    H125101   1.063   3.824   1.050
 8379TIP3    H225102   1.139   3.811   0.920
 8380TIP3   OH225103   5.364   5.959   5.894
 8380TIP3    H125104   5.452   5.982   5.865
 8380TIP3    H225105   5.330   5.904   5.823
 8381TIP3   OH225106   3.460   4.136   3.714
 8381TIP3    H125107   3.477   4.075   3.786
 8381TIP3    H225108   3.365   4.146   3.713
 8382TIP3   OH225109   4.203   3.023   2.691
 8382TIP3    H125110   4.136   3.057   2.632
 8382TIP3    H225111   4.283   3.022   2.638
 8383TIP3   OH225112   4.497   6.038   3.456
 8383TIP3    H125113   4.532   6.126   3.441
 8383TIP3    H225114   4.478   6.035   3.550
 8384TIP3   OH225115   3.043   5.722   5.672
 8384TIP3    H125116   2.994   5.648   5.636
 8384TIP3    H225117   3.040   5.708   5.767
 8385TIP3   OH225118   1.778   4.393   3.857
 8385TIP3    H125119   1.700   4.340   3.875
 8385TIP3    H225120   1.825   4.396   3.940
 8386TIP3   OH225121   4.319   3.141   2.927
 8386TIP3    H125122   4.257   3.173   2.992
 8386TIP3    H225123   4.267   3.086   2.868
 8387TIP3   OH225124   3.838   4.493   1.653
 8387TIP3    H125125   3.867   4.559   1.591
 8387TIP3    H225126   3.750   4.469   1.623
 8388TIP3   OH225127   1.740   1.117   4.729
 8388TIP3    H125128   1.691   1.152   4.654
 8388TIP3    H225129   1.672   1.094   4.792
 8389TIP3   OH225130   1.417   5.366   0.476
 8389TIP3    H125131   1.510   5.387   0.467
 8389TIP3    H225132   1.415   5.273   0.494
 8390TIP3   OH225133   3.819   3.496   2.062
 8390TIP3    H125134   3.846   3.540   2.142
 8390TIP3    H225135   3.724   3.507   2.058
 8391TIP3   OH225136   6.319   6.596   4.825
 8391TIP3    H125137   6.316   6.584   4.920
 8391TIP3    H225138   6.230   6.576   4.796
 8392TIP3   OH225139   1.040   3.574   5.784
 8392TIP3    H125140   1.134   3.591   5.791
 8392TIP3    H225141   1.002   3.657   5.754
 8393TIP3   OH225142   5.492   1.314   2.967
 8393TIP3    H125143   5.484   1.365   2.886
 8393TIP3    H225144   5.411   1.264   2.973
 8394TIP3   OH225145   2.980   6.282   4.970
 8394TIP3    H125146   2.906   6.342   4.984
 8394TIP3    H225147   3.049   6.337   4.934
 8395TIP3   OH225148   4.954   6.186   3.829
 8395TIP3    H125149   4.898   6.245   3.879
 8395TIP3    H225150   4.956   6.105   3.881
 8396TIP3   OH225151   3.033   3.080   3.333
 8396TIP3    H125152   3.128   3.091   3.329
 8396TIP3    H225153   3.000   3.132   3.260
 8397TIP3   OH225154   1.585   3.627   2.515
 8397TIP3    H125155   1.565   3.666   2.600
 8397TIP3    H225156   1.504   3.638   2.464
 8398TIP3   OH225157   6.538   0.201   3.325
 8398TIP3    H125158   6.534   0.230   3.234
 8398TIP3    H225159   6.568   0.111   3.321
 8399TIP3   OH225160   2.635   4.329   4.706
 8399TIP3    H125161   2.610   4.298   4.793
 8399TIP3    H225162   2.717   4.377   4.721
 8400TIP3   OH225163   5.821   4.421   3.341
 8400TIP3    H125164   5.751   4.370   3.301
 8400TIP3    H225165   5.857   4.363   3.409
 8401TIP3   OH225166   4.387   6.519   5.379
 8401TIP3    H125167   4.449   6.453   5.350
 8401TIP3    H225168   4.431   6.603   5.362
 8402TIP3   OH225169   5.929   4.987   3.939
 8402TIP3    H125170   5.907   5.038   4.017
 8402TIP3    H225171   5.997   4.926   3.968
 8403TIP3   OH225172   3.931   5.219   2.460
 8403TIP3    H125173   3.908   5.211   2.367
 8403TIP3    H225174   3.917   5.131   2.496
 8404TIP3   OH225175   4.836   1.596   0.032
 8404TIP3    H125176   4.881   1.618   0.114
 8404TIP3    H225177   4.748   1.570   0.060
 8405TIP3   OH225178   0.611   1.468   3.103
 8405TIP3    H125179   0.560   1.411   3.161
 8405TIP3    H225180   0.658   1.526   3.162
 8406TIP3   OH225181   0.190   6.588   5.226
 8406TIP3    H125182   0.254   6.564   5.293
 8406TIP3    H225183   0.162   6.676   5.251
 8407TIP3   OH225184   5.195   3.104   3.998
 8407TIP3    H125185   5.126   3.116   3.934
 8407TIP3    H225186   5.164   3.148   4.077
 8408TIP3   OH225187   0.033   6.575   4.746
 8408TIP3    H125188  -0.047   6.619   4.717
 8408TIP3    H225189   0.004   6.489   4.776
 8409TIP3   OH225190   2.800   3.289   2.923
 8409TIP3    H125191   2.757   3.260   2.842
 8409TIP3    H225192   2.730   3.328   2.974
 8410TIP3   OH225193   4.341   2.764  -0.007
 8410TIP3    H125194   4.335   2.669  -0.016
 8410TIP3    H225195   4.376   2.777   0.081
 8411TIP3   OH225196   0.251   1.509   3.085
 8411TIP3    H125197   0.225   1.438   3.026
 8411TIP3    H225198   0.169   1.552   3.108
 8412TIP3   OH225199   7.206   4.532   2.236
 8412TIP3    H125200   7.144   4.523   2.163
 8412TIP3    H225201   7.226   4.441   2.260
 8413TIP3   OH225202   6.269  -0.011   4.894
 8413TIP3    H125203   6.211   0.029   4.828
 8413TIP3    H225204   6.231   0.015   4.978
 8414TIP3   OH225205   3.556   6.283   1.700
 8414TIP3    H125206   3.566   6.210   1.760
 8414TIP3    H225207   3.627   6.344   1.722
 8415TIP3   OH225208   5.386   3.685   3.991
 8415TIP3    H125209   5.306   3.670   3.940
 8415TIP3    H225210   5.396   3.781   3.991
 8416TIP3   OH225211   2.211   3.976   5.350
 8416TIP3    H125212   2.127   3.971   5.304
 8416TIP3    H225213   2.207   3.905   5.414
 8417TIP3   OH225214   3.051   2.001   5.327
 8417TIP3    H125215   3.083   2.059   5.258
 8417TIP3    H225216   2.994   1.939   5.282
 8418TIP3   OH225217   5.735   6.288   5.480
 8418TIP3    H125218   5.812   6.320   5.432
 8418TIP3    H225219   5.661   6.312   5.424
 8419TIP3   OH225220   3.783   3.240   1.357
 8419TIP3    H125221   3.770   3.183   1.433
 8419TIP3    H225222   3.747   3.190   1.283
 8420TIP3   OH225223   1.896   1.231   3.833
 8420TIP3    H125224   1.858   1.318   3.842
 8420TIP3    H225225   1.854   1.179   3.901
 8421TIP3   OH225226   3.409   4.606   0.721
 8421TIP3    H125227   3.328   4.565   0.752
 8421TIP3    H225228   3.380   4.679   0.667
 8422TIP3   OH225229   6.058   3.410   5.299
 8422TIP3    H125230   6.028   3.446   5.216
 8422TIP3    H225231   6.099   3.484   5.343
 8423TIP3   OH225232   2.847   4.598   5.390
 8423TIP3    H125233   2.818   4.676   5.343
 8423TIP3    H225234   2.854   4.626   5.481
 8424TIP3   OH225235   6.119   1.158   3.725
 8424TIP3    H125236   6.132   1.209   3.645
 8424TIP3    H225237   6.180   1.085   3.718
 8425TIP3   OH225238   5.536   1.628   2.211
 8425TIP3    H125239   5.548   1.643   2.118
 8425TIP3    H225240   5.602   1.684   2.253
 8426TIP3   OH225241   5.453   1.644   1.380
 8426TIP3    H125242   5.539   1.606   1.360
 8426TIP3    H225243   5.449   1.644   1.476
 8427TIP3   OH225244   2.470   4.407   5.249
 8427TIP3    H125245   2.427   4.323   5.263
 8427TIP3    H225246   2.446   4.433   5.160
 8428TIP3   OH225247   4.407   2.094   1.864
 8428TIP3    H125248   4.407   2.000   1.883
 8428TIP3    H225249   4.464   2.132   1.932
 8429TIP3   OH225250   3.218   5.019   5.800
 8429TIP3    H125251   3.239   5.073   5.723
 8429TIP3    H225252   3.301   4.977   5.823
 8430TIP3   OH225253   4.371   1.835   1.911
 8430TIP3    H125254   4.290   1.826   1.961
 8430TIP3    H225255   4.441   1.831   1.976
 8431TIP3   OH225256   4.741   3.021   5.509
 8431TIP3    H125257   4.837   3.027   5.505
 8431TIP3    H225258   4.721   2.934   5.475
 8432TIP3   OH225259   0.325   0.211   5.102
 8432TIP3    H125260   0.341   0.273   5.031
 8432TIP3    H225261   0.231   0.217   5.119
 8433TIP3   OH225262   6.792   0.111   1.633
 8433TIP3    H125263   6.775   0.024   1.597
 8433TIP3    H225264   6.746   0.171   1.574
 8434TIP3   OH225265   4.771   2.350   3.671
 8434TIP3    H125266   4.710   2.396   3.614
 8434TIP3    H225267   4.747   2.258   3.662
 8435TIP3   OH225268   5.604   2.032   2.243
 8435TIP3    H125269   5.672   1.965   2.237
 8435TIP3    H225270   5.636   2.104   2.190
 8436TIP3   OH225271   4.451   6.314   2.396
 8436TIP3    H125272   4.486   6.399   2.368
 8436TIP3    H225273   4.507   6.250   2.353
 8437TIP3   OH225274   4.266   3.993   1.835
 8437TIP3    H125275   4.259   3.991   1.739
 8437TIP3    H225276   4.200   3.931   1.865
 8438TIP3   OH225277   4.407   4.592   1.459
 8438TIP3    H125278   4.377   4.649   1.388
 8438TIP3    H225279   4.329   4.546   1.488
 8439TIP3   OH225280   4.451   4.596   3.133
 8439TIP3    H125281   4.372   4.544   3.141
 8439TIP3    H225282   4.492   4.590   3.219
 8440TIP3   OH225283   5.146   1.601   4.389
 8440TIP3    H125284   5.227   1.562   4.423
 8440TIP3    H225285   5.088   1.605   4.464
 8441TIP3   OH225286   7.149   3.473   0.340
 8441TIP3    H125287   7.094   3.550   0.324
 8441TIP3    H225288   7.093   3.414   0.389
 8442TIP3   OH225289   3.214   4.068   3.887
 8442TIP3    H125290   3.180   4.134   3.947
 8442TIP3    H225291   3.303   4.050   3.918
 8443TIP3   OH225292   6.012   5.085   5.866
 8443TIP3    H125293   6.039   5.146   5.797
 8443TIP3    H225294   6.087   5.026   5.877
 8444TIP3   OH225295   4.722   4.792   3.631
 8444TIP3    H125296   4.638   4.765   3.668
 8444TIP3    H225297   4.781   4.719   3.648
 8445TIP3   OH225298   6.179   6.362   5.549
 8445TIP3    H125299   6.204   6.273   5.522
 8445TIP3    H225300   6.090   6.353   5.581
 8446TIP3   OH225301   0.581   6.428   4.530
 8446TIP3    H125302   0.634   6.445   4.452
 8446TIP3    H225303   0.494   6.463   4.508
 8447TIP3   OH225304   4.347   0.343   3.553
 8447TIP3    H125305   4.405   0.311   3.623
 8447TIP3    H225306   4.405   0.395   3.497
 8448TIP3   OH225307   3.514   2.509   2.127
 8448TIP3    H125308   3.600   2.549   2.138
 8448TIP3    H225309   3.532   2.415   2.117
 8449TIP3   OH225310   2.704   2.495   4.685
 8449TIP3    H125311   2.631   2.507   4.625
 8449TIP3    H225312   2.665   2.456   4.763
 8450TIP3   OH225313   6.745   4.981   3.444
 8450TIP3    H125314   6.752   5.076   3.436
 8450TIP3    H225315   6.746   4.949   3.354
 8451TIP3   OH225316   4.186   0.974   2.116
 8451TIP3    H125317   4.114   0.960   2.055
 8451TIP3    H225318   4.152   1.038   2.179
 8452TIP3   OH225319   2.191   6.267   4.295
 8452TIP3    H125320   2.130   6.198   4.269
 8452TIP3    H225321   2.205   6.253   4.389
 8453TIP3   OH225322   1.067   4.072   0.771
 8453TIP3    H125323   1.058   4.001   0.835
 8453TIP3    H225324   1.159   4.068   0.744
 8454TIP3   OH225325   3.699   4.292   4.361
 8454TIP3    H125326   3.780   4.338   4.340
 8454TIP3    H225327   3.675   4.324   4.448
 8455TIP3   OH225328   5.617   5.021   0.686
 8455TIP3    H125329   5.524   5.010   0.669
 8455TIP3    H225330   5.629   5.116   0.692
 8456TIP3   OH225331   0.171   6.596   5.748
 8456TIP3    H125332   0.258   6.599   5.709
 8456TIP3    H225333   0.140   6.686   5.747
 8457TIP3   OH225334   6.254   2.881   4.234
 8457TIP3    H125335   6.341   2.920   4.227
 8457TIP3    H225336   6.199   2.935   4.176
 8458TIP3   OH225337   6.123   3.674   1.934
 8458TIP3    H125338   6.106   3.756   1.887
 8458TIP3    H225339   6.072   3.608   1.888
 8459TIP3   OH225340   4.342   3.538   1.545
 8459TIP3    H125341   4.435   3.554   1.560
 8459TIP3    H225342   4.300   3.623   1.560
 8460TIP3   OH225343   4.466   1.099   0.884
 8460TIP3    H125344   4.471   1.127   0.975
 8460TIP3    H225345   4.452   1.180   0.834
 8461TIP3   OH225346   2.010   0.254   4.293
 8461TIP3    H125347   1.960   0.335   4.289
 8461TIP3    H225348   2.101   0.283   4.303
 8462TIP3   OH225349   1.096   3.773   1.801
 8462TIP3    H125350   1.159   3.803   1.737
 8462TIP3    H225351   1.081   3.849   1.858
 8463TIP3   OH225352   0.372   1.675   1.712
 8463TIP3    H125353   0.337   1.747   1.766
 8463TIP3    H225354   0.316   1.600   1.734
 8464TIP3   OH225355   6.845   6.452   1.811
 8464TIP3    H125356   6.856   6.372   1.759
 8464TIP3    H225357   6.933   6.473   1.842
 8465TIP3   OH225358   6.611   1.498   0.102
 8465TIP3    H125359   6.549   1.526   0.035
 8465TIP3    H225360   6.570   1.524   0.185
 8466TIP3   OH225361   3.240   5.191   2.854
 8466TIP3    H125362   3.201   5.183   2.767
 8466TIP3    H225363   3.256   5.285   2.865
 8467TIP3   OH225364   0.507   1.678   2.714
 8467TIP3    H125365   0.499   1.644   2.625
 8467TIP3    H225366   0.523   1.600   2.768
 8468TIP3   OH225367   4.695   4.466   5.330
 8468TIP3    H125368   4.710   4.451   5.237
 8468TIP3    H225369   4.776   4.505   5.362
 8469TIP3   OH225370   0.927   1.597   2.042
 8469TIP3    H125371   1.006   1.633   2.003
 8469TIP3    H225372   0.856   1.626   1.985
 8470TIP3   OH225373   1.088   3.798   2.508
 8470TIP3    H125374   1.129   3.791   2.594
 8470TIP3    H225375   1.161   3.818   2.449
 8471TIP3   OH225376   3.492   2.409   3.062
 8471TIP3    H125377   3.540   2.492   3.061
 8471TIP3    H225378   3.447   2.406   2.978
 8472TIP3   OH225379   4.481   6.447   1.224
 8472TIP3    H125380   4.416   6.485   1.165
 8472TIP3    H225381   4.506   6.519   1.282
 8473TIP3   OH225382   0.803   4.972   4.948
 8473TIP3    H125383   0.817   4.985   4.854
 8473TIP3    H225384   0.822   5.058   4.986
 8474TIP3   OH225385   4.999   3.122   0.926
 8474TIP3    H125386   5.081   3.165   0.903
 8474TIP3    H225387   4.933   3.167   0.874
 8475TIP3   OH225388   5.353   2.860   2.991
 8475TIP3    H125389   5.290   2.886   3.059
 8475TIP3    H225390   5.367   2.940   2.940
 8476TIP3   OH225391   3.609   6.711   4.290
 8476TIP3    H125392   3.629   6.657   4.367
 8476TIP3    H225393   3.692   6.718   4.244
 8477TIP3   OH225394   2.619   2.295   0.247
 8477TIP3    H125395   2.672   2.232   0.297
 8477TIP3    H225396   2.552   2.323   0.309
 8478TIP3   OH225397   0.222   6.571   2.412
 8478TIP3    H125398   0.272   6.653   2.413
 8478TIP3    H225399   0.201   6.557   2.320
 8479TIP3   OH225400   2.610   1.403   5.016
 8479TIP3    H125401   2.636   1.463   5.086
 8479TIP3    H225402   2.573   1.328   5.062
 8480TIP3   OH225403   5.517   0.345   4.981
 8480TIP3    H125404   5.581   0.313   5.045
 8480TIP3    H225405   5.560   0.335   4.896
 8481TIP3   OH225406   3.934   3.114   5.051
 8481TIP3    H125407   4.011   3.103   4.995
 8481TIP3    H225408   3.889   3.191   5.015
 8482TIP3   OH225409   5.911   0.198   1.869
 8482TIP3    H125410   5.840   0.260   1.854
 8482TIP3    H225411   5.981   0.251   1.909
 8483TIP3   OH225412   6.538   5.482   2.601
 8483TIP3    H125413   6.486   5.560   2.582
 8483TIP3    H225414   6.551   5.484   2.696
 8484TIP3   OH225415   1.850   4.709   2.529
 8484TIP3    H125416   1.801   4.648   2.585
 8484TIP3    H225417   1.914   4.748   2.588
 8485TIP3   OH225418   2.069   5.081   1.130
 8485TIP3    H125419   1.994   5.079   1.070
 8485TIP3    H225420   2.131   5.140   1.087
 8486TIP3   OH225421  -0.031   4.194   2.118
 8486TIP3    H125422   0.028   4.229   2.184
 8486TIP3    H225423  -0.004   4.103   2.107
 8487TIP3   OH225424   2.403   5.165   3.842
 8487TIP3    H125425   2.498   5.164   3.830
 8487TIP3    H225426   2.385   5.246   3.890
 8488TIP3   OH225427   2.729   6.328   1.005
 8488TIP3    H125428   2.658   6.390   1.020
 8488TIP3    H225429   2.772   6.320   1.090
 8489TIP3   OH225430   4.595   4.243   5.491
 8489TIP3    H125431   4.514   4.214   5.450
 8489TIP3    H225432   4.625   4.316   5.437
 8490TIP3   OH225433   6.202   5.763   2.065
 8490TIP3    H125434   6.120   5.795   2.104
 8490TIP3    H225435   6.180   5.749   1.973
 8491TIP3   OH225436   7.084   3.419   2.423
 8491TIP3    H125437   7.074   3.394   2.331
 8491TIP3    H225438   7.147   3.355   2.458
 8492TIP3   OH225439   5.954   0.715   5.045
 8492TIP3    H125440   5.868   0.687   5.076
 8492TIP3    H225441   6.016   0.676   5.106
 8493TIP3   OH225442   4.165   1.205   4.113
 8493TIP3    H125443   4.228   1.161   4.170
 8493TIP3    H225444   4.188   1.176   4.024
 8494TIP3   OH225445   6.832   2.188   1.412
 8494TIP3    H125446   6.812   2.263   1.468
 8494TIP3    H225447   6.899   2.221   1.352
 8495TIP3   OH225448   2.713   1.316   3.810
 8495TIP3    H125449   2.795   1.321   3.761
 8495TIP3    H225450   2.740   1.312   3.902
 8496TIP3   OH225451   3.636   3.210   3.227
 8496TIP3    H125452   3.622   3.261   3.147
 8496TIP3    H225453   3.548   3.192   3.260
 8497TIP3   OH225454   2.437   1.085   2.193
 8497TIP3    H125455   2.350   1.124   2.196
 8497TIP3    H225456   2.422   0.994   2.170
 8498TIP3   OH225457   5.680   5.043   2.291
 8498TIP3    H125458   5.636   5.127   2.299
 8498TIP3    H225459   5.611   4.978   2.301
 8499TIP3   OH225460   2.630   5.486   0.264
 8499TIP3    H125461   2.549   5.458   0.307
 8499TIP3    H225462   2.628   5.442   0.179
 8500TIP3   OH225463   5.418   3.788   2.997
 8500TIP3    H125464   5.336   3.837   2.994
 8500TIP3    H225465   5.398   3.706   2.951
 8501TIP3   OH225466   5.783   4.776   4.163
 8501TIP3    H125467   5.818   4.803   4.248
 8501TIP3    H225468   5.835   4.699   4.140
 8502TIP3   OH225469   3.881   1.196   0.652
 8502TIP3    H125470   3.835   1.128   0.603
 8502TIP3    H225471   3.816   1.265   0.664
 8503TIP3   OH225472   3.981   2.424   0.286
 8503TIP3    H125473   3.974   2.518   0.266
 8503TIP3    H225474   3.930   2.413   0.366
 8504TIP3   OH225475   3.955   1.750   4.946
 8504TIP3    H125476   4.031   1.701   4.980
 8504TIP3    H225477   3.989   1.795   4.869
 8505TIP3   OH225478   2.623   4.550   0.032
 8505TIP3    H125479   2.683   4.622   0.049
 8505TIP3    H225480   2.559   4.584  -0.030
 8506TIP3   OH225481   3.951   2.580   3.333
 8506TIP3    H125482   3.988   2.654   3.285
 8506TIP3    H225483   3.903   2.530   3.267
 8507TIP3   OH225484   4.230   5.122   4.147
 8507TIP3    H125485   4.146   5.160   4.171
 8507TIP3    H225486   4.275   5.190   4.098
 8508TIP3   OH225487   0.366   1.286   1.472
 8508TIP3    H125488   0.343   1.346   1.401
 8508TIP3    H225489   0.436   1.330   1.520
 8509TIP3   OH225490   2.781   2.148   0.815
 8509TIP3    H125491   2.720   2.109   0.752
 8509TIP3    H225492   2.746   2.125   0.901
 8510TIP3   OH225493   4.334   0.364   1.975
 8510TIP3    H125494   4.387   0.284   1.977
 8510TIP3    H225495   4.295   0.364   1.888
 8511TIP3   OH225496   5.864   4.698   0.605
 8511TIP3    H125497   5.790   4.706   0.544
 8511TIP3    H225498   5.898   4.610   0.590
 8512TIP3   OH225499   0.202   1.922   3.622
 8512TIP3    H125500   0.174   1.981   3.692
 8512TIP3    H225501   0.222   1.980   3.548
 8513TIP3   OH225502   6.046   4.537   3.849
 8513TIP3    H125503   6.107   4.606   3.823
 8513TIP3    H225504   6.098   4.457   3.850
 8514TIP3   OH225505   0.488   2.535   1.895
 8514TIP3    H125506   0.451   2.617   1.862
 8514TIP3    H225507   0.414   2.475   1.895
 8515TIP3   OH225508   7.194   0.808   1.763
 8515TIP3    H125509   7.273   0.859   1.782
 8515TIP3    H225510   7.129   0.873   1.736
 8516TIP3   OH225511   4.548   5.477   3.896
 8516TIP3    H125512   4.578   5.415   3.830
 8516TIP3    H225513   4.499   5.543   3.847
 8517TIP3   OH225514   0.123   0.270   5.743
 8517TIP3    H125515   0.202   0.291   5.694
 8517TIP3    H225516   0.131   0.176   5.761
 8518TIP3   OH225517   0.227   2.188   1.112
 8518TIP3    H125518   0.312   2.152   1.087
 8518TIP3    H225519   0.172   2.177   1.034
 8519TIP3   OH225520   5.180   4.738   3.794
 8519TIP3    H125521   5.189   4.824   3.752
 8519TIP3    H225522   5.263   4.694   3.776
 8520TIP3   OH225523   1.998   5.327   5.139
 8520TIP3    H125524   1.977   5.237   5.115
 8520TIP3    H225525   2.039   5.320   5.225
 8521TIP3   OH225526   6.929   5.928   1.850
 8521TIP3    H125527   6.834   5.929   1.843
 8521TIP3    H225528   6.960   5.970   1.769
 8522TIP3   OH225529   3.407   4.029   3.228
 8522TIP3    H125530   3.427   4.020   3.134
 8522TIP3    H225531   3.482   4.078   3.263
 8523TIP3   OH225532   7.078   3.911   5.230
 8523TIP3    H125533   7.142   3.847   5.259
 8523TIP3    H225534   7.079   3.905   5.134
 8524TIP3   OH225535   5.917   6.498   0.283
 8524TIP3    H125536   5.852   6.428   0.275
 8524TIP3    H225537   5.943   6.497   0.375
 8525TIP3   OH225538   2.935   2.089   3.819
 8525TIP3    H125539   2.888   2.047   3.892
 8525TIP3    H225540   2.871   2.095   3.749
 8526TIP3   OH225541   6.507   1.938   3.107
 8526TIP3    H125542   6.498   1.971   3.017
 8526TIP3    H225543   6.419   1.914   3.133
 8527TIP3   OH225544   3.748   1.513   2.254
 8527TIP3    H125545   3.784   1.430   2.284
 8527TIP3    H225546   3.665   1.490   2.213
 8528TIP3   OH225547   6.943   5.660   5.180
 8528TIP3    H125548   6.945   5.622   5.268
 8528TIP3    H225549   7.034   5.686   5.163
 8529TIP3   OH225550   3.904   0.644   3.733
 8529TIP3    H125551   3.961   0.624   3.659
 8529TIP3    H225552   3.962   0.646   3.808
 8530TIP3   OH225553   3.592   5.884   0.662
 8530TIP3    H125554   3.566   5.812   0.720
 8530TIP3    H225555   3.578   5.850   0.574
 8531TIP3   OH225556   0.433   0.188   2.078
 8531TIP3    H125557   0.452   0.119   2.142
 8531TIP3    H225558   0.379   0.146   2.012
 8532TIP3   OH225559   1.103   1.819   2.244
 8532TIP3    H125560   1.113   1.806   2.338
 8532TIP3    H225561   1.009   1.812   2.228
 8533TIP3   OH225562   3.947   6.242   4.917
 8533TIP3    H125563   3.964   6.226   5.010
 8533TIP3    H225564   3.909   6.330   4.914
 8534TIP3   OH225565   1.088   3.714   0.537
 8534TIP3    H125566   1.024   3.750   0.475
 8534TIP3    H225567   1.039   3.702   0.618
 8535TIP3   OH225568   3.733   6.335   0.191
 8535TIP3    H125569   3.752   6.298   0.278
 8535TIP3    H225570   3.644   6.305   0.172
 8536TIP3   OH225571   0.728   1.400   1.365
 8536TIP3    H125572   0.761   1.466   1.304
 8536TIP3    H225573   0.639   1.429   1.386
 8537TIP3   OH225574   5.557   1.305   2.123
 8537TIP3    H125575   5.579   1.346   2.207
 8537TIP3    H225576   5.495   1.235   2.146
 8538TIP3   OH225577   4.297   0.358   0.297
 8538TIP3    H125578   4.203   0.356   0.314
 8538TIP3    H225579   4.305   0.383   0.204
 8539TIP3   OH225580   1.550   4.977   1.234
 8539TIP3    H125581   1.470   5.026   1.252
 8539TIP3    H225582   1.553   4.911   1.303
 8540TIP3   OH225583   1.086   2.024   5.661
 8540TIP3    H125584   1.019   1.965   5.627
 8540TIP3    H225585   1.132   1.973   5.727
 8541TIP3   OH225586   4.581   3.493   0.738
 8541TIP3    H125587   4.635   3.571   0.725
 8541TIP3    H225588   4.533   3.483   0.656
 8542TIP3   OH225589   3.142   6.092   2.242
 8542TIP3    H125590   3.190   6.131   2.315
 8542TIP3    H225591   3.169   6.000   2.241
 8543TIP3   OH225592   6.257   0.291   2.362
 8543TIP3    H125593   6.330   0.324   2.416
 8543TIP3    H225594   6.300   0.245   2.290
 8544TIP3   OH225595   6.440   0.889   5.484
 8544TIP3    H125596   6.419   0.941   5.406
 8544TIP3    H225597   6.524   0.925   5.514
 8545TIP3   OH225598   5.760   2.615   4.220
 8545TIP3    H125599   5.735   2.594   4.130
 8545TIP3    H225600   5.817   2.543   4.247
 8546TIP3   OH225601   0.199   3.687   3.784
 8546TIP3    H125602   0.236   3.614   3.834
 8546TIP3    H225603   0.180   3.650   3.698
 8547TIP3   OH225604   7.013   0.051   2.630
 8547TIP3    H125605   6.928   0.021   2.660
 8547TIP3    H225606   7.040   0.116   2.695
 8548TIP3   OH225607   6.179   3.886   5.663
 8548TIP3    H125608   6.247   3.835   5.619
 8548TIP3    H225609   6.153   3.952   5.598
 8549TIP3   OH225610   6.474   4.533   4.306
 8549TIP3    H125611   6.485   4.466   4.238
 8549TIP3    H225612   6.556   4.530   4.356
 8550TIP3   OH225613   5.056   3.579   4.917
 8550TIP3    H125614   4.964   3.604   4.912
 8550TIP3    H225615   5.066   3.545   5.006
 8551TIP3   OH225616   5.212   1.415   2.876
 8551TIP3    H125617   5.130   1.401   2.924
 8551TIP3    H225618   5.246   1.497   2.911
 8552TIP3   OH225619   1.549   5.636   2.274
 8552TIP3    H125620   1.640   5.607   2.269
 8552TIP3    H225621   1.550   5.723   2.234
 8553TIP3   OH225622   1.664   4.013   4.655
 8553TIP3    H125623   1.600   3.951   4.619
 8553TIP3    H225624   1.685   3.978   4.742
 8554TIP3   OH225625   5.363   1.370   1.657
 8554TIP3    H125626   5.435   1.432   1.646
 8554TIP3    H225627   5.311   1.379   1.577
 8555TIP3   OH225628   6.251   6.148   3.728
 8555TIP3    H125629   6.341   6.150   3.761
 8555TIP3    H225630   6.244   6.065   3.682
 8556TIP3   OH225631   3.512   3.981   3.918
 8556TIP3    H125632   3.558   4.028   3.988
 8556TIP3    H225633   3.476   3.904   3.962
 8557TIP3   OH225634   0.064   6.145   0.138
 8557TIP3    H125635   0.095   6.187   0.057
 8557TIP3    H225636   0.006   6.209   0.178
 8558TIP3   OH225637   0.283   0.354   1.058
 8558TIP3    H125638   0.227   0.399   0.995
 8558TIP3    H225639   0.222   0.300   1.109
 8559TIP3   OH225640   4.962   4.193   4.274
 8559TIP3    H125641   5.029   4.189   4.343
 8559TIP3    H225642   5.005   4.238   4.201
 8560TIP3   OH225643   5.672   3.956   5.011
 8560TIP3    H125644   5.758   3.975   4.974
 8560TIP3    H225645   5.682   3.975   5.105
 8561TIP3   OH225646   3.909   4.502   1.306
 8561TIP3    H125647   3.928   4.504   1.212
 8561TIP3    H225648   3.874   4.414   1.322
 8562TIP3   OH225649   2.183   5.091   1.480
 8562TIP3    H125650   2.192   5.023   1.547
 8562TIP3    H225651   2.104   5.067   1.432
 8563TIP3   OH225652   3.073   0.858   4.171
 8563TIP3    H125653   3.042   0.827   4.086
 8563TIP3    H225654   3.125   0.937   4.151
 8564TIP3   OH225655   1.545   3.610   3.078
 8564TIP3    H125656   1.474   3.549   3.096
 8564TIP3    H225657   1.502   3.687   3.040
 8565TIP3   OH225658   5.802   4.567   4.967
 8565TIP3    H125659   5.855   4.562   5.046
 8565TIP3    H225660   5.749   4.646   4.978
 8566TIP3   OH225661   3.722   3.057   1.567
 8566TIP3    H125662   3.657   3.122   1.596
 8566TIP3    H225663   3.725   2.994   1.638
 8567TIP3   OH225664   5.096   6.690   2.413
 8567TIP3    H125665   5.066   6.604   2.384
 8567TIP3    H225666   5.015   6.739   2.431
 8568TIP3   OH225667   0.566   3.150   1.185
 8568TIP3    H125668   0.550   3.149   1.280
 8568TIP3    H225669   0.650   3.105   1.175
 8569TIP3   OH225670   1.011   3.515   4.295
 8569TIP3    H125671   1.036   3.519   4.388
 8569TIP3    H225672   0.918   3.491   4.297
 8570TIP3   OH225673   3.771   5.721   1.350
 8570TIP3    H125674   3.756   5.786   1.281
 8570TIP3    H225675   3.684   5.686   1.369
 8571TIP3   OH225676   1.398   5.266   1.031
 8571TIP3    H125677   1.313   5.290   0.994
 8571TIP3    H225678   1.461   5.302   0.969
 8572TIP3   OH225679   4.532   2.042   4.762
 8572TIP3    H125680   4.452   1.995   4.739
 8572TIP3    H225681   4.602   1.994   4.718
 8573TIP3   OH225682   0.569   0.491   0.654
 8573TIP3    H125683   0.665   0.491   0.661
 8573TIP3    H225684   0.552   0.501   0.560
 8574TIP3   OH225685   4.585   5.956   0.207
 8574TIP3    H125686   4.616   5.923   0.122
 8574TIP3    H225687   4.539   5.882   0.246
 8575TIP3   OH225688   1.001   2.339   3.850
 8575TIP3    H125689   1.046   2.255   3.848
 8575TIP3    H225690   0.911   2.319   3.823
 8576TIP3   OH225691   1.303   3.120   3.601
 8576TIP3    H125692   1.379   3.065   3.621
 8576TIP3    H225693   1.314   3.143   3.508
 8577TIP3   OH225694   5.896   2.511   1.767
 8577TIP3    H125695   5.986   2.483   1.747
 8577TIP3    H225696   5.875   2.468   1.850
 8578TIP3   OH225697   6.950   5.337   2.592
 8578TIP3    H125698   6.999   5.399   2.537
 8578TIP3    H225699   6.997   5.337   2.676
 8579TIP3   OH225700   1.030   4.921   3.836
 8579TIP3    H125701   1.073   4.979   3.773
 8579TIP3    H225702   1.048   4.833   3.802
 8580TIP3   OH225703   3.092   2.036   2.699
 8580TIP3    H125704   3.000   2.043   2.723
 8580TIP3    H225705   3.131   1.981   2.767
 8581TIP3   OH225706   4.057   4.811   5.905
 8581TIP3    H125707   4.130   4.855   5.949
 8581TIP3    H225708   4.093   4.786   5.820
 8582TIP3   OH225709   0.208   6.021   4.351
 8582TIP3    H125710   0.243   5.938   4.384
 8582TIP3    H225711   0.122   5.998   4.315
 8583TIP3   OH225712   3.590   6.661   5.449
 8583TIP3    H125713   3.639   6.596   5.500
 8583TIP3    H225714   3.649   6.683   5.377
 8584TIP3   OH225715   0.193   5.450   2.574
 8584TIP3    H125716   0.165   5.477   2.486
 8584TIP3    H225717   0.145   5.508   2.633
 8585TIP3   OH225718   3.919   3.093   0.930
 8585TIP3    H125719   3.824   3.081   0.930
 8585TIP3    H225720   3.947   3.054   0.847
 8586TIP3   OH225721   0.633   1.994   5.827
 8586TIP3    H125722   0.587   2.020   5.907
 8586TIP3    H225723   0.720   2.035   5.835
 8587TIP3   OH225724   0.992   3.183   3.113
 8587TIP3    H125725   0.951   3.168   3.198
 8587TIP3    H225726   0.943   3.256   3.075
 8588TIP3   OH225727   1.716   2.881   2.264
 8588TIP3    H125728   1.701   2.947   2.196
 8588TIP3    H225729   1.809   2.888   2.284
 8589TIP3   OH225730   0.764   6.394   4.727
 8589TIP3    H125731   0.705   6.400   4.652
 8589TIP3    H225732   0.837   6.341   4.696
 8590TIP3   OH225733   5.073   2.552   2.409
 8590TIP3    H125734   5.127   2.564   2.331
 8590TIP3    H225735   5.059   2.641   2.442
 8591TIP3   OH225736   3.231   3.349   0.819
 8591TIP3    H125737   3.171   3.424   0.823
 8591TIP3    H225738   3.198   3.296   0.747
 8592TIP3   OH225739   0.024   3.975   2.397
 8592TIP3    H125740   0.118   3.969   2.413
 8592TIP3    H225741   0.013   3.954   2.304
 8593TIP3   OH225742   3.769   1.534   4.187
 8593TIP3    H125743   3.722   1.608   4.148
 8593TIP3    H225744   3.763   1.549   4.282
 8594TIP3   OH225745   0.248   5.585   2.314
 8594TIP3    H125746   0.289   5.598   2.229
 8594TIP3    H225747   0.251   5.491   2.329
 8595TIP3   OH225748   4.871   5.732   5.521
 8595TIP3    H125749   4.803   5.716   5.586
 8595TIP3    H225750   4.920   5.807   5.556
 8596TIP3   OH225751   3.037   2.521   0.274
 8596TIP3    H125752   3.003   2.536   0.185
 8596TIP3    H225753   3.086   2.440   0.267
 8597TIP3   OH225754   1.862   3.280   4.982
 8597TIP3    H125755   1.775   3.314   5.006
 8597TIP3    H225756   1.845   3.224   4.906
 8598TIP3   OH225757   3.448   6.521   2.903
 8598TIP3    H125758   3.526   6.466   2.888
 8598TIP3    H225759   3.408   6.529   2.817
 8599TIP3   OH225760   2.642   3.565   1.539
 8599TIP3    H125761   2.592   3.612   1.472
 8599TIP3    H225762   2.721   3.617   1.550
 8600TIP3   OH225763   0.607   3.639   5.083
 8600TIP3    H125764   0.568   3.553   5.067
 8600TIP3    H225765   0.695   3.620   5.116
 8601TIP3   OH225766   4.373   1.066   0.563
 8601TIP3    H125767   4.324   1.070   0.645
 8601TIP3    H225768   4.393   0.973   0.551
 8602TIP3   OH225769   5.652   2.674   5.129
 8602TIP3    H125770   5.643   2.655   5.035
 8602TIP3    H225771   5.567   2.648   5.166
 8603TIP3   OH225772   4.725   0.197   5.395
 8603TIP3    H125773   4.727   0.166   5.304
 8603TIP3    H225774   4.796   0.261   5.400
 8604TIP3   OH225775   1.981   1.140   3.298
 8604TIP3    H125776   1.901   1.172   3.256
 8604TIP3    H225777   2.048   1.203   3.274
 8605TIP3   OH225778   3.047   1.312   1.067
 8605TIP3    H125779   3.013   1.226   1.042
 8605TIP3    H225780   3.096   1.342   0.990
 8606TIP3   OH225781   0.386   6.801   3.512
 8606TIP3    H125782   0.450   6.753   3.564
 8606TIP3    H225783   0.431   6.819   3.429
 8607TIP3   OH225784   4.506   6.648   3.736
 8607TIP3    H125785   4.530   6.627   3.646
 8607TIP3    H225786   4.493   6.563   3.778
 8608TIP3   OH225787   1.827   1.476   4.199
 8608TIP3    H125788   1.887   1.548   4.178
 8608TIP3    H225789   1.799   1.443   4.114
 8609TIP3   OH225790   0.445   0.649   1.518
 8609TIP3    H125791   0.415   0.737   1.499
 8609TIP3    H225792   0.387   0.592   1.467
 8610TIP3   OH225793   0.067   6.104   0.994
 8610TIP3    H125794   0.150   6.124   0.950
 8610TIP3    H225795   0.019   6.186   0.994
 8611TIP3   OH225796   6.616   0.294   2.962
 8611TIP3    H125797   6.566   0.347   3.024
 8611TIP3    H225798   6.555   0.226   2.933
 8612TIP3   OH225799   6.303   6.738   5.560
 8612TIP3    H125800   6.387   6.722   5.605
 8612TIP3    H225801   6.244   6.673   5.597
 8613TIP3   OH225802   3.809   3.007   2.938
 8613TIP3    H125803   3.834   2.923   2.900
 8613TIP3    H225804   3.860   3.072   2.888
 8614TIP3   OH225805   6.907   1.967   2.775
 8614TIP3    H125806   7.001   1.968   2.792
 8614TIP3    H225807   6.894   1.895   2.714
 8615TIP3   OH225808   1.098   1.272   1.407
 8615TIP3    H125809   1.036   1.345   1.400
 8615TIP3    H225810   1.184   1.314   1.409
 8616TIP3   OH225811   3.910   2.710   5.375
 8616TIP3    H125812   3.948   2.784   5.329
 8616TIP3    H225813   3.906   2.640   5.309
 8617TIP3   OH225814   4.916   3.898   5.287
 8617TIP3    H125815   4.841   3.841   5.273
 8617TIP3    H225816   4.991   3.838   5.291
 8618TIP3   OH225817   3.370   4.293   3.197
 8618TIP3    H125818   3.324   4.334   3.270
 8618TIP3    H225819   3.328   4.207   3.188
 8619TIP3   OH225820   1.400   6.212   0.865
 8619TIP3    H125821   1.410   6.150   0.937
 8619TIP3    H225822   1.342   6.167   0.803
 8620TIP3   OH225823   6.573   2.201   2.340
 8620TIP3    H125824   6.479   2.192   2.321
 8620TIP3    H225825   6.600   2.113   2.367
 8621TIP3   OH225826   0.245   4.054   2.121
 8621TIP3    H125827   0.191   3.978   2.101
 8621TIP3    H225828   0.265   4.046   2.214
 8622TIP3   OH225829   6.505   3.609   3.177
 8622TIP3    H125830   6.412   3.601   3.155
 8622TIP3    H225831   6.551   3.587   3.096
 8623TIP3   OH225832   1.133   6.632   1.134
 8623TIP3    H125833   1.127   6.542   1.104
 8623TIP3    H225834   1.210   6.668   1.089
 8624TIP3   OH225835   6.213   4.228   3.212
 8624TIP3    H125836   6.190   4.158   3.152
 8624TIP3    H225837   6.293   4.198   3.255
 8625TIP3   OH225838   0.065   2.566   1.567
 8625TIP3    H125839   0.003   2.544   1.497
 8625TIP3    H225840   0.146   2.587   1.522
 8626TIP3   OH225841   2.403   0.746   4.297
 8626TIP3    H125842   2.395   0.817   4.360
 8626TIP3    H225843   2.442   0.786   4.219
 8627TIP3   OH225844   5.557   5.405   4.202
 8627TIP3    H125845   5.616   5.341   4.241
 8627TIP3    H225846   5.609   5.447   4.133
 8628TIP3   OH225847   5.489   1.346   5.325
 8628TIP3    H125848   5.439   1.305   5.255
 8628TIP3    H225849   5.474   1.290   5.401
 8629TIP3   OH225850   3.211   6.287   2.444
 8629TIP3    H125851   3.249   6.374   2.433
 8629TIP3    H225852   3.121   6.295   2.412
 8630TIP3   OH225853   6.497   3.856   5.484
 8630TIP3    H125854   6.490   3.917   5.557
 8630TIP3    H225855   6.455   3.776   5.516
 8631TIP3   OH225856   6.482   4.885   0.393
 8631TIP3    H125857   6.495   4.934   0.474
 8631TIP3    H225858   6.555   4.823   0.391
 8632TIP3   OH225859   3.279   2.797   0.410
 8632TIP3    H125860   3.314   2.719   0.453
 8632TIP3    H225861   3.322   2.799   0.325
 8633TIP3   OH225862   2.780   2.352   5.572
 8633TIP3    H125863   2.856   2.345   5.514
 8633TIP3    H225864   2.819   2.357   5.660
 8634TIP3   OH225865   1.921   3.920   4.001
 8634TIP3    H125866   2.002   3.959   3.968
 8634TIP3    H225867   1.877   3.886   3.923
 8635TIP3   OH225868   7.070   6.776  -0.075
 8635TIP3    H125869   7.052   6.683  -0.092
 8635TIP3    H225870   7.023   6.795   0.006
 8636TIP3   OH225871   0.407   2.728   5.344
 8636TIP3    H125872   0.320   2.762   5.325
 8636TIP3    H225873   0.455   2.739   5.261
 8637TIP3   OH225874   5.270   5.345   4.204
 8637TIP3    H125875   5.230   5.429   4.181
 8637TIP3    H225876   5.363   5.358   4.186
 8638TIP3   OH225877   1.864   4.044   5.281
 8638TIP3    H125878   1.887   3.961   5.322
 8638TIP3    H225879   1.881   4.110   5.348
 8639TIP3   OH225880   7.020   4.135   1.221
 8639TIP3    H125881   7.008   4.042   1.239
 8639TIP3    H225882   7.042   4.173   1.306
 8640TIP3   OH225883   6.984   3.205   2.692
 8640TIP3    H125884   7.065   3.224   2.645
 8640TIP3    H225885   6.955   3.289   2.726
 8641TIP3   OH225886   5.116   1.905   5.201
 8641TIP3    H125887   5.045   1.845   5.223
 8641TIP3    H225888   5.191   1.874   5.253
 8642TIP3   OH225889   6.704   4.831   2.390
 8642TIP3    H125890   6.776   4.848   2.450
 8642TIP3    H225891   6.637   4.789   2.443
 8643TIP3   OH225892   3.952   3.196   2.805
 8643TIP3    H125893   3.982   3.275   2.760
 8643TIP3    H225894   3.956   3.128   2.738
 8644TIP3   OH225895   3.897   2.181   3.498
 8644TIP3    H125896   3.845   2.254   3.532
 8644TIP3    H225897   3.832   2.117   3.469
 8645TIP3   OH225898   5.701   0.616   2.204
 8645TIP3    H125899   5.613   0.645   2.227
 8645TIP3    H225900   5.691   0.571   2.120
 8646TIP3   OH225901   2.988   3.181   0.529
 8646TIP3    H125902   3.014   3.155   0.618
 8646TIP3    H225903   2.944   3.104   0.494
 8647TIP3   OH225904   3.435   1.920   4.858
 8647TIP3    H125905   3.408   1.973   4.783
 8647TIP3    H225906   3.473   1.983   4.919
 8648TIP3   OH225907   0.554   6.328   5.515
 8648TIP3    H125908   0.647   6.346   5.524
 8648TIP3    H225909   0.520   6.334   5.604
 8649TIP3   OH225910   6.400   0.149   5.250
 8649TIP3    H125911   6.462   0.105   5.308
 8649TIP3    H225912   6.455   0.187   5.181
 8650TIP3   OH225913   4.539   5.783   0.885
 8650TIP3    H125914   4.592   5.851   0.844
 8650TIP3    H225915   4.481   5.831   0.945
 8651TIP3   OH225916   0.184   1.644   1.308
 8651TIP3    H125917   0.278   1.647   1.321
 8651TIP3    H225918   0.150   1.609   1.390
 8652TIP3   OH225919   5.497   4.707   3.750
 8652TIP3    H125920   5.587   4.733   3.771
 8652TIP3    H225921   5.489   4.619   3.786
 8653TIP3   OH225922   1.289   5.735   4.623
 8653TIP3    H125923   1.361   5.727   4.560
 8653TIP3    H225924   1.211   5.747   4.568
 8654TIP3   OH225925   3.954   6.225   5.353
 8654TIP3    H125926   3.963   6.288   5.282
 8654TIP3    H225927   4.005   6.149   5.325
 8655TIP3   OH225928   4.039   6.598   4.625
 8655TIP3    H125929   4.071   6.684   4.599
 8655TIP3    H225930   4.087   6.577   4.705
 8656TIP3   OH225931   5.412   1.108   3.207
 8656TIP3    H125932   5.390   1.057   3.129
 8656TIP3    H225933   5.496   1.148   3.186
 8657TIP3   OH225934   0.930   5.069   2.199
 8657TIP3    H125935   0.915   5.154   2.241
 8657TIP3    H225936   0.844   5.028   2.199
 8658TIP3   OH225937   2.963   5.725   4.486
 8658TIP3    H125938   2.979   5.648   4.432
 8658TIP3    H225939   2.889   5.700   4.541
 8659TIP3   OH225940   0.682   4.557   2.580
 8659TIP3    H125941   0.595   4.588   2.603
 8659TIP3    H225942   0.737   4.581   2.655
 8660TIP3   OH225943   1.669   0.978   4.360
 8660TIP3    H125944   1.646   1.038   4.432
 8660TIP3    H225945   1.644   1.025   4.281
 8661TIP3   OH225946   2.176   6.390   2.567
 8661TIP3    H125947   2.196   6.391   2.474
 8661TIP3    H225948   2.230   6.319   2.602
 8662TIP3   OH225949   1.927   6.801   4.829
 8662TIP3    H125950   1.886   6.837   4.908
 8662TIP3    H225951   2.019   6.789   4.854
 8663TIP3   OH225952   3.767   1.218   3.306
 8663TIP3    H125953   3.852   1.261   3.296
 8663TIP3    H225954   3.762   1.156   3.234
 8664TIP3   OH225955   0.747   3.704   1.284
 8664TIP3    H125956   0.673   3.764   1.292
 8664TIP3    H225957   0.716   3.621   1.319
 8665TIP3   OH225958   0.401   1.240   5.646
 8665TIP3    H125959   0.433   1.172   5.705
 8665TIP3    H225960   0.353   1.300   5.703
 8666TIP3   OH225961   2.716   3.122   5.112
 8666TIP3    H125962   2.746   3.076   5.190
 8666TIP3    H225963   2.789   3.113   5.050
 8667TIP3   OH225964   6.768   0.534   1.462
 8667TIP3    H125965   6.724   0.618   1.449
 8667TIP3    H225966   6.779   0.527   1.557
 8668TIP3   OH225967   0.051   5.222   2.983
 8668TIP3    H125968   0.126   5.185   2.936
 8668TIP3    H225969   0.066   5.200   3.074
 8669TIP3   OH225970   0.326   5.862   5.674
 8669TIP3    H125971   0.336   5.912   5.593
 8669TIP3    H225972   0.247   5.898   5.715
 8670TIP3   OH225973   0.390   3.832   4.602
 8670TIP3    H125974   0.432   3.918   4.610
 8670TIP3    H225975   0.434   3.778   4.668
 8671TIP3   OH225976   0.944   4.005   4.673
 8671TIP3    H125977   1.034   4.004   4.642
 8671TIP3    H225978   0.901   3.935   4.624
 8672TIP3   OH225979   0.837   6.745   5.810
 8672TIP3    H125980   0.769   6.709   5.867
 8672TIP3    H225981   0.797   6.747   5.724
 8673TIP3   OH225982   0.554   3.506   4.520
 8673TIP3    H125983   0.469   3.539   4.493
 8673TIP3    H225984   0.534   3.433   4.579
 8674TIP3   OH225985   0.182   2.849   5.271
 8674TIP3    H125986   0.202   2.856   5.177
 8674TIP3    H225987   0.098   2.895   5.281
 8675TIP3   OH225988   1.103   5.204   0.073
 8675TIP3    H125989   1.062   5.243  -0.004
 8675TIP3    H225990   1.193   5.184   0.046
 8676TIP3   OH225991   4.273   2.437   1.574
 8676TIP3    H125992   4.345   2.376   1.591
 8676TIP3    H225993   4.202   2.383   1.540
 8677TIP3   OH225994   3.581   5.961   1.230
 8677TIP3    H125995   3.620   5.914   1.157
 8677TIP3    H225996   3.598   6.054   1.212
 8678TIP3   OH225997   3.808   0.093   5.166
 8678TIP3    H125998   3.832   0.143   5.088
 8678TIP3    H225999   3.713   0.086   5.162
 8679TIP3   OH226000   7.100   5.372   3.699
 8679TIP3    H126001   7.090   5.408   3.787
 8679TIP3    H226002   7.054   5.434   3.642
 8680TIP3   OH226003   3.826   2.546   1.542
 8680TIP3    H126004   3.911   2.568   1.502
 8680TIP3    H226005   3.843   2.548   1.636
 8681TIP3   OH226006   4.836   0.009   5.731
 8681TIP3    H126007   4.790   0.090   5.753
 8681TIP3    H226008   4.766  -0.054   5.715
 8682TIP3   OH226009   1.985   2.086   3.851
 8682TIP3    H126010   2.036   2.046   3.780
 8682TIP3    H226011   1.894   2.083   3.819
 8683TIP3   OH226012   2.327   5.058   4.931
 8683TIP3    H126013   2.262   5.036   4.998
 8683TIP3    H226014   2.313   4.993   4.862
 8684TIP3   OH226015   3.646   4.805   1.693
 8684TIP3    H126016   3.728   4.811   1.644
 8684TIP3    H226017   3.632   4.893   1.728
 8685TIP3   OH226018   5.415   4.019   1.930
 8685TIP3    H126019   5.497   3.970   1.926
 8685TIP3    H226020   5.402   4.036   2.023
 8686TIP3   OH226021   6.927   1.554   1.074
 8686TIP3    H126022   6.886   1.637   1.099
 8686TIP3    H226023   6.946   1.511   1.157
 8687TIP3   OH226024   2.556   3.023   2.467
 8687TIP3    H126025   2.467   3.049   2.488
 8687TIP3    H226026   2.547   2.939   2.421
 8688TIP3   OH226027   3.406   2.059   1.974
 8688TIP3    H126028   3.372   1.973   1.999
 8688TIP3    H226029   3.468   2.040   1.903
 8689TIP3   OH226030   4.277   4.939   4.916
 8689TIP3    H126031   4.215   4.931   4.843
 8689TIP3    H226032   4.363   4.924   4.875
 8690TIP3   OH226033   0.354   6.529   5.421
 8690TIP3    H126034   0.412   6.456   5.442
 8690TIP3    H226035   0.366   6.591   5.493
 8691TIP3   OH226036   1.433   1.796   1.801
 8691TIP3    H126037   1.475   1.854   1.865
 8691TIP3    H226038   1.341   1.823   1.801
 8692TIP3   OH226039   5.484   5.181   1.287
 8692TIP3    H126040   5.560   5.219   1.331
 8692TIP3    H226041   5.409   5.224   1.327
 8693TIP3   OH226042   5.262   4.653   0.729
 8693TIP3    H126043   5.202   4.719   0.696
 8693TIP3    H226044   5.349   4.691   0.715
 8694TIP3   OH226045   5.050   1.216   0.167
 8694TIP3    H126046   5.088   1.288   0.218
 8694TIP3    H226047   5.054   1.140   0.226
 8695TIP3   OH226048   1.858   5.693   2.816
 8695TIP3    H126049   1.844   5.788   2.824
 8695TIP3    H226050   1.952   5.682   2.833
 8696TIP3   OH226051   1.697   3.121   5.761
 8696TIP3    H126052   1.616   3.146   5.806
 8696TIP3    H226053   1.753   3.198   5.769
 8697TIP3   OH226054   1.413   6.610   1.863
 8697TIP3    H126055   1.431   6.569   1.779
 8697TIP3    H226056   1.351   6.552   1.906
 8698TIP3   OH226057   2.321   2.028   2.587
 8698TIP3    H126058   2.363   1.999   2.506
 8698TIP3    H226059   2.307   1.948   2.637
 8699TIP3   OH226060   5.542   4.823   4.427
 8699TIP3    H126061   5.538   4.845   4.334
 8699TIP3    H226062   5.463   4.862   4.464
 8700TIP3   OH226063   2.473   2.480   0.025
 8700TIP3    H126064   2.454   2.411  -0.039
 8700TIP3    H226065   2.533   2.440   0.087
 8701TIP3   OH226066   0.603   6.370   4.209
 8701TIP3    H126067   0.665   6.337   4.143
 8701TIP3    H226068   0.547   6.295   4.229
 8702TIP3   OH226069   0.816   6.197   4.065
 8702TIP3    H126070   0.897   6.246   4.050
 8702TIP3    H226071   0.782   6.180   3.977
 8703TIP3   OH226072   5.477   0.279   3.418
 8703TIP3    H126073   5.494   0.263   3.510
 8703TIP3    H226074   5.454   0.193   3.382
 8704TIP3   OH226075   6.673   0.517   4.844
 8704TIP3    H126076   6.731   0.448   4.875
 8704TIP3    H226077   6.586   0.477   4.843
 8705TIP3   OH226078   0.278   3.230   0.273
 8705TIP3    H126079   0.280   3.167   0.344
 8705TIP3    H226080   0.332   3.191   0.204
 8706TIP3   OH226081   3.530   0.965   5.377
 8706TIP3    H126082   3.549   0.999   5.289
 8706TIP3    H226083   3.471   0.891   5.361
 8707TIP3   OH226084   4.201   2.041   0.741
 8707TIP3    H126085   4.290   2.066   0.763
 8707TIP3    H226086   4.195   1.948   0.765
 8708TIP3   OH226087   0.661   3.510   1.040
 8708TIP3    H126088   0.694   3.481   0.955
 8708TIP3    H226089   0.680   3.603   1.044
 8709TIP3   OH226090   1.623   0.521   4.606
 8709TIP3    H126091   1.709   0.544   4.643
 8709TIP3    H226092   1.575   0.604   4.603
 8710TIP3   OH226093   3.595   4.070   4.699
 8710TIP3    H126094   3.597   4.164   4.714
 8710TIP3    H226095   3.688   4.044   4.701
 8711TIP3   OH226096   4.535   1.374   0.782
 8711TIP3    H126097   4.539   1.308   0.713
 8711TIP3    H226098   4.619   1.420   0.777
 8712TIP3   OH226099   3.249   1.967   0.817
 8712TIP3    H126100   3.291   2.000   0.896
 8712TIP3    H226101   3.169   2.020   0.809
 8713TIP3   OH226102   6.877   4.838   0.123
 8713TIP3    H126103   6.960   4.866   0.163
 8713TIP3    H226104   6.901   4.764   0.068
 8714TIP3   OH226105   3.747   6.578   4.576
 8714TIP3    H126106   3.841   6.568   4.591
 8714TIP3    H226107   3.722   6.652   4.631
 8715TIP3   OH226108   4.382   3.926   1.273
 8715TIP3    H126109   4.391   3.882   1.188
 8715TIP3    H226110   4.446   3.882   1.329
 8716TIP3   OH226111   4.462   2.051   2.704
 8716TIP3    H126112   4.426   2.032   2.617
 8716TIP3    H226113   4.446   1.971   2.754
 8717TIP3   OH226114   3.624   1.445   5.629
 8717TIP3    H126115   3.694   1.390   5.665
 8717TIP3    H226116   3.666   1.493   5.557
 8718TIP3   OH226117   1.429   5.717   1.877
 8718TIP3    H126118   1.512   5.761   1.899
 8718TIP3    H226119   1.456   5.639   1.829
 8719TIP3   OH226120   0.330   2.929   5.616
 8719TIP3    H126121   0.289   2.918   5.530
 8719TIP3    H226122   0.270   2.884   5.676
 8720TIP3   OH226123   4.739   3.736   3.193
 8720TIP3    H126124   4.655   3.721   3.149
 8720TIP3    H226125   4.718   3.731   3.286
 8721TIP3   OH226126   6.350   5.249   0.290
 8721TIP3    H126127   6.366   5.160   0.259
 8721TIP3    H226128   6.427   5.269   0.344
 8722TIP3   OH226129   0.049   6.426   5.048
 8722TIP3    H126130   0.089   6.458   5.129
 8722TIP3    H226131   0.122   6.402   4.992
 8723TIP3   OH226132   6.402   0.262   0.510
 8723TIP3    H126133   6.401   0.251   0.415
 8723TIP3    H226134   6.483   0.310   0.528
 8724TIP3   OH226135   4.982   2.948   4.535
 8724TIP3    H126136   4.939   2.962   4.451
 8724TIP3    H226137   4.968   3.029   4.584
 8725TIP3   OH226138   1.049   2.371   4.375
 8725TIP3    H126139   0.979   2.308   4.353
 8725TIP3    H226140   1.057   2.425   4.296
 8726TIP3   OH226141   5.599   2.219   4.445
 8726TIP3    H126142   5.647   2.236   4.364
 8726TIP3    H226143   5.667   2.217   4.513
 8727TIP3   OH226144   7.236   4.520   3.109
 8727TIP3    H126145   7.262   4.434   3.075
 8727TIP3    H226146   7.229   4.507   3.203
 8728TIP3   OH226147   2.219   6.306   4.581
 8728TIP3    H126148   2.173   6.264   4.655
 8728TIP3    H226149   2.158   6.372   4.550
 8729TIP3   OH226150   5.925   0.959   1.357
 8729TIP3    H126151   5.887   1.014   1.288
 8729TIP3    H226152   5.849   0.917   1.399
 8730TIP3   OH226153   5.839   3.837   5.343
 8730TIP3    H126154   5.842   3.803   5.254
 8730TIP3    H226155   5.746   3.856   5.358
 8731TIP3   OH226156   2.198   3.938   1.293
 8731TIP3    H126157   2.242   3.942   1.378
 8731TIP3    H226158   2.238   4.008   1.241
 8732TIP3   OH226159   2.101   5.184   4.645
 8732TIP3    H126160   2.076   5.154   4.732
 8732TIP3    H226161   2.062   5.271   4.637
 8733TIP3   OH226162   5.287   6.171   4.806
 8733TIP3    H126163   5.330   6.228   4.742
 8733TIP3    H226164   5.287   6.221   4.887
 8734TIP3   OH226165   7.086   0.056   3.734
 8734TIP3    H126166   7.019  -0.007   3.760
 8734TIP3    H226167   7.092   0.047   3.639
 8735TIP3   OH226168   6.871   3.211   4.167
 8735TIP3    H126169   6.850   3.232   4.258
 8735TIP3    H226170   6.962   3.179   4.170
 8736TIP3   OH226171   5.817   3.914   4.660
 8736TIP3    H126172   5.875   3.882   4.730
 8736TIP3    H226173   5.794   3.835   4.611
 8737TIP3   OH226174   3.701   2.999   0.037
 8737TIP3    H126175   3.640   3.037   0.100
 8737TIP3    H226176   3.668   2.911   0.020
 8738TIP3   OH226177   6.082   4.286   5.489
 8738TIP3    H126178   6.018   4.218   5.505
 8738TIP3    H226179   6.094   4.286   5.394
 8739TIP3   OH226180   3.522   3.745   0.907
 8739TIP3    H126181   3.612   3.751   0.940
 8739TIP3    H226182   3.467   3.767   0.982
 8740TIP3   OH226183   1.551   3.867   5.166
 8740TIP3    H126184   1.524   3.907   5.249
 8740TIP3    H226185   1.487   3.899   5.102
 8741TIP3   OH226186   3.358   3.291   1.521
 8741TIP3    H126187   3.384   3.381   1.541
 8741TIP3    H226188   3.373   3.243   1.603
 8742TIP3   OH226189   1.077   3.354   2.178
 8742TIP3    H126190   1.064   3.298   2.255
 8742TIP3    H226191   1.056   3.443   2.209
 8743TIP3   OH226192   2.406   2.078   4.395
 8743TIP3    H126193   2.408   2.040   4.483
 8743TIP3    H226194   2.366   2.010   4.340
 8744TIP3   OH226195   0.679   0.186   0.898
 8744TIP3    H126196   0.739   0.136   0.953
 8744TIP3    H226197   0.650   0.258   0.954
 8745TIP3   OH226198   3.083   3.073   4.293
 8745TIP3    H126199   2.988   3.086   4.292
 8745TIP3    H226200   3.118   3.154   4.330
 8746TIP3   OH226201   1.467   3.956   0.176
 8746TIP3    H126202   1.401   3.940   0.244
 8746TIP3    H226203   1.452   4.046   0.149
 8747TIP3   OH226204   4.091   1.475   3.035
 8747TIP3    H126205   4.177   1.436   3.021
 8747TIP3    H226206   4.034   1.434   2.970
 8748TIP3   OH226207   4.220   3.702   3.169
 8748TIP3    H126208   4.291   3.673   3.110
 8748TIP3    H226209   4.262   3.767   3.226
 8749TIP3   OH226210   7.044   0.624   1.540
 8749TIP3    H126211   7.075   0.710   1.571
 8749TIP3    H226212   7.011   0.641   1.452
 8750TIP3   OH226213   4.871   0.411   2.028
 8750TIP3    H126214   4.839   0.363   2.105
 8750TIP3    H226215   4.878   0.344   1.959
 8751TIP3   OH226216   0.649   4.488   3.943
 8751TIP3    H126217   0.558   4.457   3.943
 8751TIP3    H226218   0.691   4.437   3.873
 8752TIP3   OH226219   0.269   1.972   5.279
 8752TIP3    H126220   0.262   2.065   5.301
 8752TIP3    H226221   0.361   1.951   5.294
 8753TIP3   OH226222   6.461   5.789   3.043
 8753TIP3    H126223   6.544   5.837   3.053
 8753TIP3    H226224   6.419   5.830   2.968
 8754TIP3   OH226225   0.892   3.617   4.825
 8754TIP3    H126226   0.840   3.687   4.864
 8754TIP3    H226227   0.967   3.607   4.883
 8755TIP3   OH226228   4.147   0.071   1.662
 8755TIP3    H126229   4.056   0.099   1.671
 8755TIP3    H226230   4.196   0.153   1.652
 8756TIP3   OH226231   2.463   1.082   3.677
 8756TIP3    H126232   2.420   1.167   3.665
 8756TIP3    H226233   2.413   1.040   3.748
 8757TIP3   OH226234   4.088   6.721   2.223
 8757TIP3    H126235   4.089   6.646   2.163
 8757TIP3    H226236   4.029   6.695   2.293
 8758TIP3   OH226237   3.682   5.626   2.976
 8758TIP3    H126238   3.675   5.641   2.881
 8758TIP3    H226239   3.617   5.685   3.014
 8759TIP3   OH226240   4.306   4.031   5.857
 8759TIP3    H126241   4.278   3.947   5.895
 8759TIP3    H226242   4.224   4.074   5.831
 8760TIP3   OH226243   3.886   1.390   2.848
 8760TIP3    H126244   3.828   1.317   2.828
 8760TIP3    H226245   3.849   1.429   2.927
 8761TIP3   OH226246   2.906   4.379   4.673
 8761TIP3    H126247   2.982   4.426   4.638
 8761TIP3    H226248   2.942   4.325   4.744
 8762TIP3   OH226249   5.259   5.850   5.658
 8762TIP3    H126250   5.174   5.880   5.623
 8762TIP3    H226251   5.280   5.773   5.606
 8763TIP3   OH226252   0.396   0.919   1.480
 8763TIP3    H126253   0.484   0.957   1.474
 8763TIP3    H226254   0.346   0.983   1.530
 8764TIP3   OH226255   3.843   6.072   0.381
 8764TIP3    H126256   3.812   6.101   0.466
 8764TIP3    H226257   3.858   5.978   0.391
 8765TIP3   OH226258   5.521   6.749   3.592
 8765TIP3    H126259   5.554   6.678   3.646
 8765TIP3    H226260   5.524   6.826   3.648
 8766TIP3   OH226261   5.534   5.385   0.454
 8766TIP3    H126262   5.439   5.376   0.463
 8766TIP3    H226263   5.547   5.437   0.375
 8767TIP3   OH226264   4.138   0.216   3.739
 8767TIP3    H126265   4.196   0.289   3.718
 8767TIP3    H226266   4.057   0.234   3.691
 8768TIP3   OH226267   0.690   3.236   5.750
 8768TIP3    H126268   0.637   3.313   5.773
 8768TIP3    H226269   0.702   3.242   5.656
 8769TIP3   OH226270   0.263   2.931   2.492
 8769TIP3    H126271   0.168   2.938   2.490
 8769TIP3    H226272   0.283   2.859   2.432
 8770TIP3   OH226273   4.217   6.172   2.656
 8770TIP3    H126274   4.124   6.183   2.636
 8770TIP3    H226275   4.260   6.246   2.612
 8771TIP3   OH226276   4.931   1.588   5.733
 8771TIP3    H126277   4.946   1.511   5.678
 8771TIP3    H226278   4.951   1.558   5.822
 8772TIP3   OH226279   3.400   0.581   4.516
 8772TIP3    H126280   3.408   0.552   4.425
 8772TIP3    H226281   3.487   0.568   4.553
 8773TIP3   OH226282   6.967   5.614   4.780
 8773TIP3    H126283   6.956   5.624   4.685
 8773TIP3    H226284   7.056   5.645   4.797
 8774TIP3   OH226285   3.951   4.815   1.883
 8774TIP3    H126286   3.937   4.728   1.921
 8774TIP3    H226287   4.043   4.834   1.900
 8775TIP3   OH226288   0.190   1.603   2.223
 8775TIP3    H126289   0.277   1.572   2.247
 8775TIP3    H226290   0.141   1.602   2.306
 8776TIP3   OH226291   0.409   4.228   1.048
 8776TIP3    H126292   0.371   4.275   0.974
 8776TIP3    H226293   0.334   4.209   1.105
 8777TIP3   OH226294   6.768   3.421   0.954
 8777TIP3    H126295   6.743   3.432   1.046
 8777TIP3    H226296   6.855   3.460   0.947
 8778TIP3   OH226297   5.815   4.554   4.700
 8778TIP3    H126298   5.756   4.625   4.727
 8778TIP3    H226299   5.872   4.540   4.775
 8779TIP3   OH226300   1.780   3.873   4.935
 8779TIP3    H126301   1.870   3.904   4.940
 8779TIP3    H226302   1.746   3.883   5.024
 8780TIP3   OH226303   2.186   6.443   5.046
 8780TIP3    H126304   2.255   6.464   5.108
 8780TIP3    H226305   2.232   6.428   4.963
 8781TIP3   OH226306   2.469   5.814   2.683
 8781TIP3    H126307   2.391   5.822   2.628
 8781TIP3    H226308   2.541   5.801   2.620
 8782TIP3   OH226309   4.176   1.665   3.678
 8782TIP3    H126310   4.220   1.695   3.758
 8782TIP3    H226311   4.095   1.625   3.709
 8783TIP3   OH226312   6.541   3.419   5.561
 8783TIP3    H126313   6.605   3.472   5.514
 8783TIP3    H226314   6.594   3.367   5.622
 8784TIP3   OH226315   0.223   0.093   4.747
 8784TIP3    H126316   0.196   0.104   4.655
 8784TIP3    H226317   0.280   0.017   4.746
 8785TIP3   OH226318   2.176   3.853   3.605
 8785TIP3    H126319   2.258   3.807   3.591
 8785TIP3    H226320   2.194   3.912   3.679
 8786TIP3   OH226321   2.552   3.627   2.821
 8786TIP3    H126322   2.604   3.618   2.741
 8786TIP3    H226323   2.611   3.671   2.882
 8787TIP3   OH226324   2.114   3.197   0.863
 8787TIP3    H126325   2.102   3.287   0.833
 8787TIP3    H226326   2.168   3.155   0.796
 8788TIP3   OH226327   1.143   5.720   0.307
 8788TIP3    H126328   1.123   5.633   0.272
 8788TIP3    H226329   1.108   5.781   0.242
 8789TIP3   OH226330   3.047   5.440   3.141
 8789TIP3    H126331   3.083   5.477   3.061
 8789TIP3    H226332   3.089   5.490   3.211
 8790TIP3   OH226333   1.384   4.407   3.813
 8790TIP3    H126334   1.325   4.407   3.888
 8790TIP3    H226335   1.394   4.499   3.791
 8791TIP3   OH226336   2.308   3.613   4.849
 8791TIP3    H126337   2.246   3.665   4.901
 8791TIP3    H226338   2.381   3.673   4.834
 8792TIP3   OH226339   5.129   6.687   2.983
 8792TIP3    H126340   5.207   6.663   2.933
 8792TIP3    H226341   5.068   6.723   2.918
 8793TIP3   OH226342   2.672   6.623   5.244
 8793TIP3    H126343   2.750   6.677   5.253
 8793TIP3    H226344   2.604   6.670   5.292
 8794TIP3   OH226345   4.549   1.524   1.638
 8794TIP3    H126346   4.528   1.615   1.659
 8794TIP3    H226347   4.467   1.477   1.647
 8795TIP3   OH226348   6.787   6.439   4.595
 8795TIP3    H126349   6.769   6.427   4.688
 8795TIP3    H226350   6.882   6.435   4.587
 8796TIP3   OH226351   4.718   4.770   5.157
 8796TIP3    H126352   4.648   4.812   5.108
 8796TIP3    H226353   4.705   4.797   5.248
 8797TIP3   OH226354   5.087   0.496   0.325
 8797TIP3    H126355   5.180   0.480   0.341
 8797TIP3    H226356   5.049   0.409   0.313
 8798TIP3   OH226357   4.109   1.941   1.098
 8798TIP3    H126358   4.187   1.890   1.080
 8798TIP3    H226359   4.036   1.880   1.084
 8799TIP3   OH226360   1.726   6.585   1.862
 8799TIP3    H126361   1.652   6.554   1.914
 8799TIP3    H226362   1.689   6.653   1.805
 8800TIP3   OH226363   3.570   6.039   3.385
 8800TIP3    H126364   3.478   6.018   3.374
 8800TIP3    H226365   3.615   5.955   3.378
 8801TIP3   OH226366   5.496   4.612   4.026
 8801TIP3    H126367   5.582   4.582   4.055
 8801TIP3    H226368   5.460   4.657   4.102
 8802TIP3   OH226369   1.138   5.498   4.422
 8802TIP3    H126370   1.170   5.493   4.512
 8802TIP3    H226371   1.072   5.430   4.416
 8803TIP3   OH226372   6.175   2.630   4.134
 8803TIP3    H126373   6.121   2.701   4.170
 8803TIP3    H226374   6.233   2.605   4.206
 8804TIP3   OH226375   7.164   5.991   0.506
 8804TIP3    H126376   7.152   5.904   0.545
 8804TIP3    H226377   7.257   5.995   0.485
 8805TIP3   OH226378   3.475   3.477   0.822
 8805TIP3    H126379   3.478   3.547   0.887
 8805TIP3    H226380   3.392   3.432   0.840
 8806TIP3   OH226381   5.092   1.168   3.232
 8806TIP3    H126382   5.029   1.107   3.193
 8806TIP3    H226383   5.178   1.136   3.204
 8807TIP3   OH226384   0.230   2.277   1.373
 8807TIP3    H126385   0.239   2.259   1.279
 8807TIP3    H226386   0.241   2.372   1.380
 8808TIP3   OH226387   3.491   6.776   3.988
 8808TIP3    H126388   3.418   6.818   3.942
 8808TIP3    H226389   3.451   6.704   4.036
 8809TIP3   OH226390   4.104   5.652   1.742
 8809TIP3    H126391   4.088   5.559   1.726
 8809TIP3    H226392   4.199   5.662   1.733
 8810TIP3   OH226393   1.144   6.165   0.362
 8810TIP3    H126394   1.075   6.105   0.389
 8810TIP3    H226395   1.158   6.222   0.438
 8811TIP3   OH226396   0.764   5.433   4.042
 8811TIP3    H126397   0.723   5.452   4.127
 8811TIP3    H226398   0.692   5.439   3.979
 8812TIP3   OH226399   3.231   3.351   4.207
 8812TIP3    H126400   3.181   3.324   4.130
 8812TIP3    H226401   3.170   3.337   4.280
 8813TIP3   OH226402   5.562   2.028   0.767
 8813TIP3    H126403   5.512   2.110   0.767
 8813TIP3    H226404   5.501   1.964   0.729
 8814TIP3   OH226405   3.075   0.011   0.953
 8814TIP3    H126406   3.049   0.044   0.867
 8814TIP3    H226407   3.012  -0.058   0.972
 8815TIP3   OH226408   3.811   6.039   1.671
 8815TIP3    H126409   3.718   6.047   1.649
 8815TIP3    H226410   3.839   5.957   1.629
 8816TIP3   OH226411   6.183   2.828   1.191
 8816TIP3    H126412   6.237   2.797   1.118
 8816TIP3    H226413   6.242   2.881   1.243
 8817TIP3   OH226414   0.450   6.770   0.503
 8817TIP3    H126415   0.405   6.731   0.428
 8817TIP3    H226416   0.541   6.778   0.475
 8818TIP3   OH226417   6.340   4.779   1.376
 8818TIP3    H126418   6.369   4.868   1.357
 8818TIP3    H226419   6.330   4.738   1.290
 8819TIP3   OH226420   0.473   3.448   4.241
 8819TIP3    H126421   0.523   3.409   4.313
 8819TIP3    H226422   0.528   3.433   4.164
 8820TIP3   OH226423   4.233   6.755  -0.026
 8820TIP3    H126424   4.327   6.738  -0.028
 8820TIP3    H226425   4.202   6.711   0.054
 8821TIP3   OH226426   1.350   5.798   0.058
 8821TIP3    H126427   1.290   5.725   0.075
 8821TIP3    H226428   1.298   5.861   0.009
 8822TIP3   OH226429   4.247   2.519   4.203
 8822TIP3    H126430   4.343   2.514   4.211
 8822TIP3    H226431   4.218   2.428   4.212
 8823TIP3   OH226432   4.926   3.443   4.306
 8823TIP3    H126433   4.947   3.352   4.285
 8823TIP3    H226434   5.000   3.473   4.359
 8824TIP3   OH226435   2.449   6.011   4.435
 8824TIP3    H126436   2.449   5.984   4.343
 8824TIP3    H226437   2.523   6.072   4.441
 8825TIP3   OH226438   6.353   0.187   0.004
 8825TIP3    H126439   6.432   0.228  -0.032
 8825TIP3    H226440   6.386   0.113   0.055
 8826TIP3   OH226441   2.605   6.465   5.878
 8826TIP3    H126442   2.649   6.399   5.931
 8826TIP3    H226443   2.528   6.420   5.843
 8827TIP3   OH226444   5.471   5.702   3.975
 8827TIP3    H126445   5.386   5.685   4.016
 8827TIP3    H226446   5.453   5.702   3.881
 8828TIP3   OH226447   4.719   0.126   3.484
 8828TIP3    H126448   4.742   0.203   3.536
 8828TIP3    H226449   4.638   0.093   3.523
 8829TIP3   OH226450   6.379   2.448   1.476
 8829TIP3    H126451   6.339   2.465   1.391
 8829TIP3    H226452   6.423   2.363   1.466
 8830TIP3   OH226453   3.994   3.759   2.942
 8830TIP3    H126454   4.068   3.717   2.900
 8830TIP3    H226455   4.014   3.754   3.036
 8831TIP3   OH226456   2.912   6.040   2.545
 8831TIP3    H126457   3.001   6.005   2.535
 8831TIP3    H226458   2.867   6.013   2.465
 8832TIP3   OH226459   2.992   3.678   4.485
 8832TIP3    H126460   2.993   3.599   4.540
 8832TIP3    H226461   2.942   3.742   4.536
 8833TIP3   OH226462   6.735   1.770   0.382
 8833TIP3    H126463   6.798   1.699   0.392
 8833TIP3    H226464   6.775   1.845   0.427
 8834TIP3   OH226465   6.928   2.674   4.386
 8834TIP3    H126466   6.986   2.733   4.433
 8834TIP3    H226467   6.975   2.591   4.383
 8835TIP3   OH226468   5.233   2.422   0.651
 8835TIP3    H126469   5.182   2.341   0.638
 8835TIP3    H226470   5.324   2.394   0.642
 8836TIP3   OH226471   6.585   3.922   2.068
 8836TIP3    H126472   6.490   3.934   2.072
 8836TIP3    H226473   6.620   4.011   2.060
 8837TIP3   OH226474   3.884   3.152   5.550
 8837TIP3    H126475   3.975   3.150   5.578
 8837TIP3    H226476   3.887   3.191   5.462
 8838TIP3   OH226477   2.706   6.378   5.109
 8838TIP3    H126478   2.696   6.460   5.157
 8838TIP3    H226479   2.642   6.384   5.038
 8839TIP3   OH226480   3.242   3.346   2.452
 8839TIP3    H126481   3.235   3.361   2.358
 8839TIP3    H226482   3.179   3.407   2.491
 8840TIP3   OH226483   5.224   1.618   0.986
 8840TIP3    H126484   5.213   1.580   0.899
 8840TIP3    H226485   5.194   1.550   1.046
 8841TIP3   OH226486   5.183   6.408   0.047
 8841TIP3    H126487   5.267   6.453   0.052
 8841TIP3    H226488   5.206   6.318   0.021
 8842TIP3   OH226489   3.160   6.775   2.899
 8842TIP3    H126490   3.110   6.705   2.940
 8842TIP3    H226491   3.109   6.801   2.823
 8843TIP3   OH226492   5.094   4.640   3.036
 8843TIP3    H126493   5.071   4.716   3.089
 8843TIP3    H226494   5.042   4.651   2.956
 8844TIP3   OH226495   0.188   6.421   2.166
 8844TIP3    H126496   0.281   6.400   2.176
 8844TIP3    H226497   0.150   6.341   2.130
 8845TIP3   OH226498   2.211   0.559   4.359
 8845TIP3    H126499   2.281   0.606   4.313
 8845TIP3    H226500   2.217   0.470   4.326
 8846TIP3   OH226501   0.493   3.902   1.986
 8846TIP3    H126502   0.463   3.826   2.036
 8846TIP3    H226503   0.459   3.887   1.898
 8847TIP3   OH226504   3.546   5.644   2.203
 8847TIP3    H126505   3.609   5.669   2.271
 8847TIP3    H226506   3.470   5.611   2.252
 8848TIP3   OH226507   2.320   4.696   2.409
 8848TIP3    H126508   2.235   4.739   2.407
 8848TIP3    H226509   2.317   4.638   2.485
 8849TIP3   OH226510   4.713   4.994   4.641
 8849TIP3    H126511   4.795   4.946   4.650
 8849TIP3    H226512   4.737   5.076   4.598
 8850TIP3   OH226513   0.194   2.610   3.915
 8850TIP3    H126514   0.130   2.658   3.968
 8850TIP3    H226515   0.275   2.660   3.922
 8851TIP3   OH226516   4.350   6.172   4.324
 8851TIP3    H126517   4.316   6.095   4.370
 8851TIP3    H226518   4.312   6.167   4.237
 8852TIP3   OH226519   1.588   2.923   3.381
 8852TIP3    H126520   1.517   2.977   3.346
 8852TIP3    H226521   1.667   2.961   3.343
 8853TIP3   OH226522   6.492   0.674   0.832
 8853TIP3    H126523   6.439   0.658   0.754
 8853TIP3    H226524   6.578   0.637   0.812
 8854TIP3   OH226525   0.404   0.993   5.070
 8854TIP3    H126526   0.321   1.004   5.024
 8854TIP3    H226527   0.454   1.072   5.049
 8855TIP3   OH226528   0.609   2.350   4.481
 8855TIP3    H126529   0.694   2.308   4.475
 8855TIP3    H226530   0.628   2.444   4.477
 8856TIP3   OH226531   6.253   4.855   4.501
 8856TIP3    H126532   6.209   4.772   4.523
 8856TIP3    H226533   6.346   4.832   4.497
 8857TIP3   OH226534   2.346   5.944   0.582
 8857TIP3    H126535   2.406   5.922   0.653
 8857TIP3    H226536   2.376   5.890   0.508
 8858TIP3   OH226537   1.008   6.505   5.139
 8858TIP3    H126538   0.970   6.550   5.064
 8858TIP3    H226539   1.088   6.464   5.105
 8859TIP3   OH226540   4.917   2.788   4.865
 8859TIP3    H126541   4.847   2.783   4.800
 8859TIP3    H226542   4.870   2.793   4.949
 8860TIP3   OH226543   6.345   6.139   4.732
 8860TIP3    H126544   6.306   6.054   4.711
 8860TIP3    H226545   6.277   6.202   4.708
 8861TIP3   OH226546   2.180   5.296   5.335
 8861TIP3    H126547   2.197   5.224   5.395
 8861TIP3    H226548   2.260   5.304   5.283
 8862TIP3   OH226549   6.571   6.607   0.071
 8862TIP3    H126550   6.510   6.675   0.099
 8862TIP3    H226551   6.522   6.525   0.082
 8863TIP3   OH226552   4.811   1.431   3.478
 8863TIP3    H126553   4.893   1.402   3.440
 8863TIP3    H226554   4.822   1.526   3.490
 8864TIP3   OH226555   0.104   2.555   0.639
 8864TIP3    H126556   0.094   2.649   0.649
 8864TIP3    H226557   0.030   2.530   0.583
 8865TIP3   OH226558   6.803   0.085   5.546
 8865TIP3    H126559   6.814   0.139   5.467
 8865TIP3    H226560   6.853   0.005   5.527
 8866TIP3   OH226561   2.044   6.036   1.083
 8866TIP3    H126562   2.037   5.970   1.015
 8866TIP3    H226563   2.005   6.115   1.045
 8867TIP3   OH226564   5.294   3.519   2.849
 8867TIP3    H126565   5.222   3.492   2.907
 8867TIP3    H226566   5.266   3.604   2.816
 8868TIP3   OH226567   0.892   5.748   0.587
 8868TIP3    H126568   0.813   5.758   0.640
 8868TIP3    H226569   0.913   5.655   0.593
 8869TIP3   OH226570   6.895   1.195   0.942
 8869TIP3    H126571   6.938   1.262   0.890
 8869TIP3    H226572   6.945   1.115   0.925
 8870TIP3   OH226573   2.734   1.024   5.808
 8870TIP3    H126574   2.716   0.981   5.725
 8870TIP3    H226575   2.650   1.026   5.854
 8871TIP3   OH226576   1.777   1.438   3.273
 8871TIP3    H126577   1.809   1.441   3.183
 8871TIP3    H226578   1.722   1.359   3.275
 8872TIP3   OH226579   2.990   2.832   5.139
 8872TIP3    H126580   2.906   2.869   5.166
 8872TIP3    H226581   3.048   2.908   5.130
 8873TIP3   OH226582   0.603   2.871   5.484
 8873TIP3    H126583   0.562   2.803   5.429
 8873TIP3    H226584   0.540   2.886   5.554
 8874TIP3   OH226585   2.166   5.300   3.567
 8874TIP3    H126586   2.212   5.340   3.493
 8874TIP3    H226587   2.215   5.220   3.585
 8875TIP3   OH226588   3.278   0.675   2.341
 8875TIP3    H126589   3.366   0.670   2.381
 8875TIP3    H226590   3.228   0.729   2.403
 8876TIP3   OH226591   5.476   5.140   2.852
 8876TIP3    H126592   5.493   5.074   2.918
 8876TIP3    H226593   5.558   5.150   2.804
 8877TIP3   OH226594   2.282   3.589   1.258
 8877TIP3    H126595   2.189   3.568   1.248
 8877TIP3    H226596   2.325   3.505   1.271
 8878TIP3   OH226597   2.901   6.084   2.807
 8878TIP3    H126598   2.885   6.075   2.713
 8878TIP3    H226599   2.816   6.106   2.844
 8879TIP3   OH226600   5.558   1.551   0.876
 8879TIP3    H126601   5.530   1.627   0.926
 8879TIP3    H226602   5.607   1.497   0.939
 8880TIP3   OH226603   5.190   2.244   4.467
 8880TIP3    H126604   5.146   2.213   4.546
 8880TIP3    H226605   5.240   2.320   4.496
 8881TIP3   OH226606   6.949   2.229   5.822
 8881TIP3    H126607   6.929   2.318   5.793
 8881TIP3    H226608   7.043   2.220   5.806
 8882TIP3   OH226609   4.233   1.774   5.428
 8882TIP3    H126610   4.171   1.805   5.494
 8882TIP3    H226611   4.212   1.682   5.417
 8883TIP3   OH226612   6.416   5.109   0.970
 8883TIP3    H126613   6.488   5.071   0.918
 8883TIP3    H226614   6.374   5.171   0.911
 8884TIP3   OH226615   1.734   3.682   4.578
 8884TIP3    H126616   1.829   3.668   4.586
 8884TIP3    H226617   1.702   3.674   4.668
 8885TIP3   OH226618   5.574   1.556   0.611
 8885TIP3    H126619   5.500   1.611   0.585
 8885TIP3    H226620   5.577   1.563   0.707
 8886TIP3   OH226621   7.010   0.682   2.459
 8886TIP3    H126622   6.988   0.770   2.490
 8886TIP3    H226623   7.060   0.696   2.379
 8887TIP3   OH226624   0.416   1.087   3.656
 8887TIP3    H126625   0.325   1.109   3.673
 8887TIP3    H226626   0.461   1.171   3.647
 8888TIP3   OH226627   3.400   5.738   0.195
 8888TIP3    H126628   3.428   5.772   0.110
 8888TIP3    H226629   3.441   5.652   0.203
 8889TIP3   OH226630   3.554   5.734   5.229
 8889TIP3    H126631   3.480   5.730   5.290
 8889TIP3    H226632   3.618   5.673   5.266
 8890TIP3   OH226633   7.136   2.326   4.347
 8890TIP3    H126634   7.146   2.416   4.379
 8890TIP3    H226635   7.166   2.329   4.257
 8891TIP3   OH226636   2.938   2.835   2.000
 8891TIP3    H126637   3.020   2.843   1.951
 8891TIP3    H226638   2.885   2.909   1.971
 8892TIP3   OH226639   6.118   0.217   5.707
 8892TIP3    H126640   6.167   0.148   5.663
 8892TIP3    H226641   6.036   0.224   5.658
 8893TIP3   OH226642   5.300   4.504   1.390
 8893TIP3    H126643   5.357   4.557   1.336
 8893TIP3    H226644   5.356   4.433   1.423
 8894TIP3   OH226645   0.640   4.963   1.991
 8894TIP3    H126646   0.578   4.987   2.060
 8894TIP3    H226647   0.676   5.046   1.961
 8895TIP3   OH226648   3.976   5.243   4.644
 8895TIP3    H126649   4.035   5.233   4.719
 8895TIP3    H226650   4.033   5.246   4.568
 8896TIP3   OH226651   1.385   4.477   1.371
 8896TIP3    H126652   1.470   4.487   1.413
 8896TIP3    H226653   1.391   4.395   1.323
 8897TIP3   OH226654   5.422   0.518   1.040
 8897TIP3    H126655   5.497   0.459   1.028
 8897TIP3    H226656   5.458   0.596   1.081
 8898TIP3   OH226657   3.145   4.598   2.659
 8898TIP3    H126658   3.068   4.571   2.709
 8898TIP3    H226659   3.189   4.516   2.637
 8899TIP3   OH226660   4.145   4.119   2.513
 8899TIP3    H126661   4.108   4.181   2.450
 8899TIP3    H226662   4.177   4.174   2.585
 8900TIP3   OH226663   0.599   0.602   5.262
 8900TIP3    H126664   0.628   0.524   5.215
 8900TIP3    H226665   0.551   0.653   5.198
 8901TIP3   OH226666   2.496   0.050   5.286
 8901TIP3    H126667   2.482   0.120   5.222
 8901TIP3    H226668   2.564   0.084   5.344
 8902TIP3   OH226669   5.523   4.934   3.073
 8902TIP3    H126670   5.594   4.911   3.132
 8902TIP3    H226671   5.497   4.852   3.032
 8903TIP3   OH226672   1.538   0.555   3.923
 8903TIP3    H126673   1.579   0.566   4.009
 8903TIP3    H226674   1.468   0.492   3.939
 8904TIP3   OH226675   5.422   0.769   5.112
 8904TIP3    H126676   5.378   0.703   5.165
 8904TIP3    H226677   5.352   0.829   5.086
 8905TIP3   OH226678   6.804   0.692   1.707
 8905TIP3    H126679   6.880   0.652   1.666
 8905TIP3    H226680   6.792   0.645   1.789
 8906TIP3   OH226681   4.744   0.479   4.062
 8906TIP3    H126682   4.660   0.525   4.055
 8906TIP3    H226683   4.733   0.400   4.009
 8907TIP3   OH226684   4.139   3.191   5.674
 8907TIP3    H126685   4.212   3.134   5.650
 8907TIP3    H226686   4.146   3.203   5.769
 8908TIP3   OH226687   3.987   1.224   0.345
 8908TIP3    H126688   3.972   1.221   0.440
 8908TIP3    H226689   4.080   1.246   0.336
 8909TIP3   OH226690   0.355   2.836   3.974
 8909TIP3    H126691   0.427   2.843   3.912
 8909TIP3    H226692   0.395   2.856   4.059
 8910TIP3   OH226693   4.716   2.344   1.800
 8910TIP3    H126694   4.649   2.355   1.732
 8910TIP3    H226695   4.798   2.364   1.756
 8911TIP3   OH226696   6.388   0.750   2.110
 8911TIP3    H126697   6.456   0.788   2.166
 8911TIP3    H226698   6.435   0.717   2.034
 8912TIP3   OH226699   5.235   0.486   2.933
 8912TIP3    H126700   5.223   0.570   2.890
 8912TIP3    H226701   5.152   0.469   2.978
 8913TIP3   OH226702   2.210   2.211   3.468
 8913TIP3    H126703   2.272   2.141   3.486
 8913TIP3    H226704   2.181   2.241   3.554
 8914TIP3   OH226705   2.400   3.535   0.887
 8914TIP3    H126706   2.441   3.484   0.817
 8914TIP3    H226707   2.317   3.564   0.851
 8915TIP3   OH226708   3.079   0.581   3.708
 8915TIP3    H126709   3.023   0.534   3.646
 8915TIP3    H226710   3.135   0.513   3.746
 8916TIP3   OH226711   6.832   3.769   5.920
 8916TIP3    H126712   6.747   3.789   5.880
 8916TIP3    H226713   6.846   3.677   5.899
 8917TIP3   OH226714   2.256   1.337   3.184
 8917TIP3    H126715   2.205   1.410   3.219
 8917TIP3    H226716   2.330   1.329   3.244
 8918TIP3   OH226717   1.508   3.417   2.786
 8918TIP3    H126718   1.533   3.460   2.868
 8918TIP3    H226719   1.539   3.327   2.796
 8919TIP3   OH226720   4.612   2.183   0.068
 8919TIP3    H126721   4.536   2.124   0.065
 8919TIP3    H226722   4.623   2.203   0.161
 8920TIP3   OH226723   0.291   5.945   5.416
 8920TIP3    H126724   0.255   5.868   5.371
 8920TIP3    H226725   0.220   6.009   5.415
 8921TIP3   OH226726   1.783   0.091   5.420
 8921TIP3    H126727   1.778   0.000   5.451
 8921TIP3    H226728   1.827   0.138   5.490
 8922TIP3   OH226729   3.085   3.539   5.452
 8922TIP3    H126730   3.071   3.444   5.452
 8922TIP3    H226731   3.101   3.562   5.543
 8923TIP3   OH226732   6.253   2.661   3.001
 8923TIP3    H126733   6.226   2.679   3.091
 8923TIP3    H226734   6.212   2.730   2.949
 8924TIP3   OH226735   0.587   4.350   5.356
 8924TIP3    H126736   0.646   4.425   5.345
 8924TIP3    H226737   0.622   4.283   5.298
 8925TIP3   OH226738   5.536   1.849   4.249
 8925TIP3    H126739   5.492   1.833   4.165
 8925TIP3    H226740   5.494   1.929   4.283
 8926TIP3   OH226741   6.097   1.032   1.087
 8926TIP3    H126742   6.157   1.105   1.100
 8926TIP3    H226743   6.113   0.973   1.161
 8927TIP3   OH226744   4.452   0.869   0.001
 8927TIP3    H126745   4.497   0.788   0.024
 8927TIP3    H226746   4.381   0.877   0.065
 8928TIP3   OH226747   3.695   1.349   2.605
 8928TIP3    H126748   3.611   1.395   2.616
 8928TIP3    H226749   3.687   1.272   2.661
 8929TIP3   OH226750   0.083   4.301   2.891
 8929TIP3    H126751   0.011   4.237   2.895
 8929TIP3    H226752   0.046   4.375   2.843
 8930TIP3   OH226753   4.131   3.604   5.093
 8930TIP3    H126754   4.213   3.597   5.141
 8930TIP3    H226755   4.136   3.688   5.048
 8931TIP3   OH226756   7.120   2.736   0.968
 8931TIP3    H126757   7.209   2.764   0.990
 8931TIP3    H226758   7.116   2.645   0.999
 8932TIP3   OH226759   4.947   5.735   2.794
 8932TIP3    H126760   4.879   5.726   2.728
 8932TIP3    H226761   4.962   5.830   2.800
 8933TIP3   OH226762   4.641   4.218   3.557
 8933TIP3    H126763   4.585   4.288   3.593
 8933TIP3    H226764   4.729   4.240   3.586
 8934TIP3   OH226765   3.329   4.176   0.967
 8934TIP3    H126766   3.257   4.237   0.950
 8934TIP3    H226767   3.361   4.151   0.881
 8935TIP3   OH226768   0.369   2.424   4.345
 8935TIP3    H126769   0.450   2.379   4.368
 8935TIP3    H226770   0.397   2.495   4.286
 8936TIP3   OH226771   2.883   1.965   3.500
 8936TIP3    H126772   2.911   2.001   3.416
 8936TIP3    H226773   2.799   2.006   3.518
 8937TIP3   OH226774   1.670   4.820   1.890
 8937TIP3    H126775   1.645   4.731   1.915
 8937TIP3    H226776   1.611   4.842   1.817
 8938TIP3   OH226777   3.477   2.257   5.625
 8938TIP3    H126778   3.550   2.314   5.598
 8938TIP3    H226779   3.404   2.283   5.569
 8939TIP3   OH226780   4.895   5.213   2.937
 8939TIP3    H126781   4.985   5.218   2.967
 8939TIP3    H226782   4.892   5.269   2.859
 8940TIP3   OH226783   6.222   1.437   0.338
 8940TIP3    H126784   6.318   1.437   0.334
 8940TIP3    H226785   6.202   1.465   0.428
 8941TIP3   OH226786   4.408   0.693   2.660
 8941TIP3    H126787   4.462   0.768   2.685
 8941TIP3    H226788   4.322   0.712   2.696
 8942TIP3   OH226789   3.149   4.793   3.304
 8942TIP3    H126790   3.190   4.800   3.217
 8942TIP3    H226791   3.117   4.703   3.308
 8943TIP3   OH226792   1.996   4.956   4.549
 8943TIP3    H126793   1.904   4.978   4.563
 8943TIP3    H226794   2.042   5.039   4.556
 8944TIP3   OH226795   6.299   3.804   4.858
 8944TIP3    H126796   6.371   3.744   4.877
 8944TIP3    H226797   6.249   3.809   4.940
 8945TIP3   OH226798   6.947   4.928   5.567
 8945TIP3    H126799   7.032   4.947   5.607
 8945TIP3    H226800   6.894   5.006   5.586
 8946TIP3   OH226801   0.144   1.817   5.628
 8946TIP3    H126802   0.066   1.797   5.575
 8946TIP3    H226803   0.168   1.906   5.603
 8947TIP3   OH226804   4.526   0.506   3.389
 8947TIP3    H126805   4.620   0.490   3.391
 8947TIP3    H226806   4.517   0.596   3.357
 8948TIP3   OH226807   6.621   5.673   0.922
 8948TIP3    H126808   6.654   5.714   1.001
 8948TIP3    H226809   6.667   5.589   0.917
 8949TIP3   OH226810   4.414   3.639   0.423
 8949TIP3    H126811   4.499   3.678   0.404
 8949TIP3    H226812   4.373   3.699   0.486
 8950TIP3   OH226813   4.623   4.935   5.420
 8950TIP3    H126814   4.583   5.019   5.396
 8950TIP3    H226815   4.601   4.924   5.512
 8951TIP3   OH226816   0.120   0.690   1.995
 8951TIP3    H126817   0.087   0.720   1.911
 8951TIP3    H226818   0.180   0.759   2.024
 8952TIP3   OH226819   6.237   1.528   4.791
 8952TIP3    H126820   6.285   1.564   4.716
 8952TIP3    H226821   6.282   1.563   4.868
 8953TIP3   OH226822   4.240   3.121   1.188
 8953TIP3    H126823   4.277   3.147   1.273
 8953TIP3    H226824   4.154   3.085   1.209
 8954TIP3   OH226825   5.362   3.041   0.214
 8954TIP3    H126826   5.410   2.959   0.219
 8954TIP3    H226827   5.356   3.071   0.305
 8955TIP3   OH226828   0.768   0.443   4.958
 8955TIP3    H126829   0.702   0.465   4.892
 8955TIP3    H226830   0.793   0.353   4.938
 8956TIP3   OH226831   5.354   1.539   5.492
 8956TIP3    H126832   5.394   1.489   5.421
 8956TIP3    H226833   5.415   1.610   5.508
 8957TIP3   OH226834   7.116   1.193   4.018
 8957TIP3    H126835   7.032   1.156   3.989
 8957TIP3    H226836   7.177   1.173   3.947
 8958TIP3   OH226837   1.327   2.660   0.260
 8958TIP3    H126838   1.309   2.729   0.197
 8958TIP3    H226839   1.330   2.705   0.345
 8959TIP3   OH226840   3.667   0.952   2.167
 8959TIP3    H126841   3.603   0.945   2.096
 8959TIP3    H226842   3.622   0.917   2.244
 8960TIP3   OH226843   3.027   3.941   4.334
 8960TIP3    H126844   3.111   3.899   4.312
 8960TIP3    H226845   3.051   4.016   4.388
 8961TIP3   OH226846   0.665   6.779   2.150
 8961TIP3    H126847   0.721   6.830   2.209
 8961TIP3    H226848   0.654   6.695   2.193
 8962TIP3   OH226849   0.196   3.131   5.830
 8962TIP3    H126850   0.274   3.142   5.776
 8962TIP3    H226851   0.126   3.112   5.767
 8963TIP3   OH226852   0.875   4.165   2.663
 8963TIP3    H126853   0.785   4.199   2.667
 8963TIP3    H226854   0.878   4.117   2.580
 8964TIP3   OH226855   3.730   6.358   2.222
 8964TIP3    H126856   3.735   6.445   2.261
 8964TIP3    H226857   3.637   6.345   2.205
 8965TIP3   OH226858   6.703   4.815   2.666
 8965TIP3    H126859   6.630   4.802   2.726
 8965TIP3    H226860   6.709   4.911   2.657
 8966TIP3   OH226861   6.711   1.696   1.963
 8966TIP3    H126862   6.727   1.789   1.950
 8966TIP3    H226863   6.680   1.664   1.878
 8967TIP3   OH226864   1.229   4.805   1.420
 8967TIP3    H126865   1.149   4.855   1.436
 8967TIP3    H226866   1.227   4.785   1.327
 8968TIP3   OH226867   2.238   6.477  -0.003
 8968TIP3    H126868   2.237   6.401   0.055
 8968TIP3    H226869   2.153   6.518   0.010
 8969TIP3   OH226870   5.812   5.094   0.374
 8969TIP3    H126871   5.849   5.068   0.459
 8969TIP3    H226872   5.785   5.185   0.387
 8970TIP3   OH226873   3.550   4.018   2.977
 8970TIP3    H126874   3.620   3.972   3.024
 8970TIP3    H226875   3.596   4.074   2.915
 8971TIP3   OH226876   6.437   3.826   1.496
 8971TIP3    H126877   6.457   3.858   1.584
 8971TIP3    H226878   6.401   3.738   1.509
 8972TIP3   OH226879   2.400   1.082   3.115
 8972TIP3    H126880   2.448   1.069   3.197
 8972TIP3    H226881   2.316   1.119   3.142
 8973TIP3   OH226882   0.361   3.842   5.101
 8973TIP3    H126883   0.277   3.798   5.115
 8973TIP3    H226884   0.337   3.932   5.080
 8974TIP3   OH226885   3.143   4.079   3.046
 8974TIP3    H126886   3.093   4.059   3.125
 8974TIP3    H226887   3.091   4.146   3.001
 8975TIP3   OH226888   3.177   6.077   4.800
 8975TIP3    H126889   3.148   6.026   4.725
 8975TIP3    H226890   3.112   6.146   4.809
 8976TIP3   OH226891   5.007   6.511   2.702
 8976TIP3    H126892   4.937   6.448   2.716
 8976TIP3    H226893   4.982   6.587   2.755
 8977TIP3   OH226894   4.319   2.689   5.746
 8977TIP3    H126895   4.391   2.642   5.704
 8977TIP3    H226896   4.241   2.662   5.697
 8978TIP3   OH226897   3.692   3.016   3.630
 8978TIP3    H126898   3.716   3.032   3.539
 8978TIP3    H226899   3.714   2.924   3.644
 8979TIP3   OH226900   6.132   0.808   2.548
 8979TIP3    H126901   6.131   0.734   2.609
 8979TIP3    H226902   6.053   0.858   2.569
 8980TIP3   OH226903   1.352  -0.037   2.288
 8980TIP3    H126904   1.393  -0.119   2.258
 8980TIP3    H226905   1.418   0.004   2.343
 8981TIP3   OH226906   6.557   5.449   4.140
 8981TIP3    H126907   6.625   5.507   4.173
 8981TIP3    H226908   6.578   5.438   4.047
 8982TIP3   OH226909   3.112   1.924   0.208
 8982TIP3    H126910   3.197   1.955   0.239
 8982TIP3    H226911   3.124   1.831   0.192
 8983TIP3   OH226912   0.355   6.217   2.715
 8983TIP3    H126913   0.266   6.200   2.684
 8983TIP3    H226914   0.375   6.305   2.683
 8984TIP3   OH226915   6.535   6.075   2.470
 8984TIP3    H126916   6.522   6.117   2.385
 8984TIP3    H226917   6.448   6.070   2.508
 8985TIP3   OH226918   4.701   0.506   5.139
 8985TIP3    H126919   4.698   0.557   5.058
 8985TIP3    H226920   4.737   0.566   5.204
 8986TIP3   OH226921   6.827   1.374   5.086
 8986TIP3    H126922   6.807   1.467   5.091
 8986TIP3    H226923   6.779   1.343   5.009
 8987TIP3   OH226924   4.507   6.352   1.897
 8987TIP3    H126925   4.454   6.396   1.830
 8987TIP3    H226926   4.597   6.368   1.870
 8988TIP3   OH226927   4.630   3.438   0.145
 8988TIP3    H126928   4.625   3.394   0.060
 8988TIP3    H226929   4.661   3.370   0.205
 8989TIP3   OH226930   6.496   5.717   3.395
 8989TIP3    H126931   6.588   5.701   3.416
 8989TIP3    H226932   6.453   5.633   3.412
 8990TIP3   OH226933   3.351   0.521   3.780
 8990TIP3    H126934   3.430   0.572   3.798
 8990TIP3    H226935   3.361   0.442   3.834
 8991TIP3   OH226936   1.592   3.359   1.959
 8991TIP3    H126937   1.522   3.367   2.024
 8991TIP3    H226938   1.659   3.420   1.989
 8992TIP3   OH226939   5.407   5.291   3.574
 8992TIP3    H126940   5.442   5.217   3.623
 8992TIP3    H226941   5.446   5.283   3.487
 8993TIP3   OH226942   2.520   5.246   2.736
 8993TIP3    H126943   2.542   5.260   2.644
 8993TIP3    H226944   2.430   5.213   2.734
 8994TIP3   OH226945   6.052   0.862   5.621
 8994TIP3    H126946   6.118   0.848   5.690
 8994TIP3    H226947   6.096   0.918   5.558
 8995TIP3   OH226948   2.135   4.302   2.506
 8995TIP3    H126949   2.082   4.317   2.427
 8995TIP3    H226950   2.202   4.240   2.478
 8996TIP3   OH226951   5.731   0.142   4.677
 8996TIP3    H126952   5.777   0.078   4.622
 8996TIP3    H226953   5.643   0.147   4.639
 8997TIP3   OH226954   2.585   6.758   1.634
 8997TIP3    H126955   2.625   6.675   1.659
 8997TIP3    H226956   2.657   6.821   1.636
 8998TIP3   OH226957   2.440   3.340   1.896
 8998TIP3    H126958   2.344   3.342   1.888
 8998TIP3    H226959   2.469   3.420   1.851
 8999TIP3   OH226960   1.705   5.892   3.122
 8999TIP3    H126961   1.628   5.869   3.173
 8999TIP3    H226962   1.763   5.816   3.129
 9000TIP3   OH226963   3.376   0.560   0.975
 9000TIP3    H126964   3.410   0.619   0.908
 9000TIP3    H226965   3.309   0.612   1.020
 9001TIP3   OH226966   6.141   4.201   1.195
 9001TIP3    H126967   6.185   4.115   1.190
 9001TIP3    H226968   6.200   4.260   1.148
 9002TIP3   OH226969   1.902   0.737   1.154
 9002TIP3    H126970   1.822   0.709   1.110
 9002TIP3    H226971   1.876   0.754   1.244
 9003TIP3   OH226972   2.208   3.361   2.694
 9003TIP3    H126973   2.204   3.454   2.719
 9003TIP3    H226974   2.130   3.347   2.640
 9004TIP3   OH226975   2.611   3.016   4.461
 9004TIP3    H126976   2.560   3.071   4.401
 9004TIP3    H226977   2.546   2.975   4.517
 9005TIP3   OH226978   4.928   3.563   3.241
 9005TIP3    H126979   4.860   3.621   3.206
 9005TIP3    H226980   4.997   3.622   3.270
 9006TIP3   OH226981   1.491   3.653   2.120
 9006TIP3    H126982   1.415   3.649   2.062
 9006TIP3    H226983   1.453   3.656   2.208
 9007TIP3   OH226984   1.299   3.546   2.596
 9007TIP3    H126985   1.248   3.588   2.666
 9007TIP3    H226986   1.367   3.498   2.643
 9008TIP3   OH226987   3.681   2.404   5.534
 9008TIP3    H126988   3.741   2.417   5.608
 9008TIP3    H226989   3.640   2.489   5.521
 9009TIP3   OH226990   5.761   3.512   2.356
 9009TIP3    H126991   5.853   3.531   2.336
 9009TIP3    H226992   5.725   3.482   2.272
 9010TIP3   OH226993   4.061   5.342   1.752
 9010TIP3    H126994   4.123   5.369   1.820
 9010TIP3    H226995   4.002   5.280   1.796
 9011TIP3   OH226996   4.726   2.216   3.364
 9011TIP3    H126997   4.689   2.303   3.382
 9011TIP3    H226998   4.707   2.201   3.271
 9012TIP3   OH226999   4.186   0.316   2.950
 9012TIP3    H127000   4.146   0.256   2.887
 9012TIP3    H227001   4.280   0.310   2.934
 9013TIP3   OH227002   6.874   0.160   1.307
 9013TIP3    H127003   6.887   0.118   1.222
 9013TIP3    H227004   6.813   0.103   1.354
 9014TIP3   OH227005   6.914   4.297   4.317
 9014TIP3    H127006   6.937   4.252   4.235
 9014TIP3    H227007   6.819   4.308   4.311
 9015TIP3   OH227008   6.577   6.370   3.309
 9015TIP3    H127009   6.580   6.443   3.371
 9015TIP3    H227010   6.526   6.404   3.235
 9016TIP3   OH227011   0.319  -0.070   5.152
 9016TIP3    H127012   0.307   0.015   5.109
 9016TIP3    H227013   0.261  -0.066   5.229
 9017TIP3   OH227014   6.714   4.478   2.932
 9017TIP3    H127015   6.622   4.459   2.914
 9017TIP3    H227016   6.747   4.516   2.850
 9018TIP3   OH227017   1.239   6.581   4.233
 9018TIP3    H127018   1.185   6.553   4.306
 9018TIP3    H227019   1.294   6.504   4.213
 9019TIP3   OH227020   6.084   4.405   4.855
 9019TIP3    H127021   6.131   4.484   4.883
 9019TIP3    H227022   6.125   4.334   4.905
 9020TIP3   OH227023   6.310   0.993   3.644
 9020TIP3    H127024   6.279   0.915   3.597
 9020TIP3    H227025   6.402   1.002   3.619
 9021TIP3   OH227026   2.467   0.787   2.066
 9021TIP3    H127027   2.556   0.823   2.066
 9021TIP3    H227028   2.458   0.746   2.152
 9022TIP3   OH227029   1.630   3.688   1.546
 9022TIP3    H127030   1.656   3.728   1.629
 9022TIP3    H227031   1.535   3.698   1.544
 9023TIP3   OH227032   2.166   2.623   3.827
 9023TIP3    H127033   2.262   2.625   3.824
 9023TIP3    H227034   2.144   2.633   3.919
 9024TIP3   OH227035   6.264   3.082   4.456
 9024TIP3    H127036   6.355   3.056   4.439
 9024TIP3    H227037   6.214   3.037   4.387
 9025TIP3   OH227038   3.158   4.357   0.087
 9025TIP3    H127039   3.213   4.291   0.044
 9025TIP3    H227040   3.105   4.307   0.150
 9026TIP3   OH227041   4.075   6.594   5.136
 9026TIP3    H127042   4.093   6.687   5.148
 9026TIP3    H227043   4.124   6.550   5.206
 9027TIP3   OH227044   1.009   4.415   0.829
 9027TIP3    H127045   1.019   4.504   0.793
 9027TIP3    H227046   0.988   4.361   0.752
 9028TIP3   OH227047   4.982   6.734   3.765
 9028TIP3    H127048   5.052   6.725   3.701
 9028TIP3    H227049   5.022   6.710   3.848
 9029TIP3   OH227050   2.876   4.779   5.120
 9029TIP3    H127051   2.959   4.741   5.147
 9029TIP3    H227052   2.891   4.874   5.124
 9030TIP3   OH227053   0.223   0.101   1.348
 9030TIP3    H127054   0.179   0.038   1.406
 9030TIP3    H227055   0.305   0.058   1.325
 9031TIP3   OH227056   3.749   1.301   5.187
 9031TIP3    H127057   3.812   1.263   5.126
 9031TIP3    H227058   3.718   1.380   5.143
 9032TIP3   OH227059   2.602   4.993   4.858
 9032TIP3    H127060   2.583   4.908   4.817
 9032TIP3    H227061   2.518   5.023   4.892
 9033TIP3   OH227062   5.753   4.411   1.267
 9033TIP3    H127063   5.712   4.414   1.353
 9033TIP3    H227064   5.847   4.405   1.285
 9034TIP3   OH227065   6.192   5.443   4.720
 9034TIP3    H127066   6.166   5.395   4.799
 9034TIP3    H227067   6.141   5.524   4.723
 9035TIP3   OH227068   4.404   0.052   0.122
 9035TIP3    H127069   4.321   0.084   0.158
 9035TIP3    H227070   4.472   0.097   0.173
 9036TIP3   OH227071   6.406   4.355   0.467
 9036TIP3    H127072   6.439   4.416   0.401
 9036TIP3    H227073   6.414   4.402   0.550
 9037TIP3   OH227074   6.359   5.322   0.003
 9037TIP3    H127075   6.285   5.362  -0.042
 9037TIP3    H227076   6.326   5.301   0.091
 9038TIP3   OH227077   6.135   3.882   1.324
 9038TIP3    H127078   6.062   3.883   1.262
 9038TIP3    H227079   6.147   3.790   1.344
 9039TIP3   OH227080   4.398   0.638   1.193
 9039TIP3    H127081   4.385   0.728   1.165
 9039TIP3    H227082   4.313   0.596   1.178
 9040TIP3   OH227083   3.945   3.983   5.230
 9040TIP3    H127084   3.924   3.994   5.323
 9040TIP3    H227085   4.028   4.030   5.219
 9041TIP3   OH227086   6.082   1.822   5.309
 9041TIP3    H127087   6.128   1.747   5.273
 9041TIP3    H227088   6.149   1.890   5.318
 9042TIP3   OH227089   0.233   5.743   3.331
 9042TIP3    H127090   0.275   5.695   3.259
 9042TIP3    H227091   0.180   5.809   3.287
 9043TIP3   OH227092   3.603   5.528   0.256
 9043TIP3    H127093   3.655   5.505   0.178
 9043TIP3    H227094   3.578   5.444   0.294
 9044TIP3   OH227095   6.035   1.416   1.797
 9044TIP3    H127096   6.027   1.354   1.870
 9044TIP3    H227097   6.049   1.501   1.839
 9045TIP3   OH227098  -0.073   2.113   4.509
 9045TIP3    H127099   0.011   2.094   4.468
 9045TIP3    H227100  -0.098   2.199   4.475
 9046TIP3   OH227101   1.907   4.649   0.577
 9046TIP3    H127102   1.906   4.582   0.508
 9046TIP3    H227103   1.866   4.725   0.536
 9047TIP3   OH227104   3.464   4.889   5.863
 9047TIP3    H127105   3.423   4.805   5.843
 9047TIP3    H227106   3.532   4.868   5.927
 9048TIP3   OH227107   4.481   4.594   5.456
 9048TIP3    H127108   4.510   4.600   5.547
 9048TIP3    H227109   4.553   4.551   5.411
 9049TIP3   OH227110   0.885   4.003   1.568
 9049TIP3    H127111   0.833   4.058   1.627
 9049TIP3    H227112   0.870   4.040   1.481
 9050TIP3   OH227113   4.117   1.088   3.073
 9050TIP3    H127114   4.175   1.053   3.141
 9050TIP3    H227115   4.082   1.169   3.111
 9051TIP3   OH227116   2.263   0.699   4.975
 9051TIP3    H127117   2.349   0.662   4.953
 9051TIP3    H227118   2.201   0.645   4.925
 9052TIP3   OH227119   6.067   3.700   5.374
 9052TIP3    H127120   6.108   3.781   5.405
 9052TIP3    H227121   5.973   3.718   5.374
 9053TIP3   OH227122   1.244   1.084   5.440
 9053TIP3    H127123   1.262   1.134   5.520
 9053TIP3    H227124   1.299   1.006   5.447
 9054TIP3   OH227125   1.898   1.906   2.429
 9054TIP3    H127126   1.982   1.888   2.387
 9054TIP3    H227127   1.921   1.953   2.509
 9055TIP3   OH227128   2.237   1.841   0.636
 9055TIP3    H127129   2.179   1.832   0.711
 9055TIP3    H227130   2.182   1.824   0.560
 9056TIP3   OH227131   4.705   4.673   2.556
 9056TIP3    H127132   4.616   4.650   2.530
 9056TIP3    H227133   4.697   4.764   2.587
 9057TIP3   OH227134   6.768   6.702   0.588
 9057TIP3    H127135   6.680   6.676   0.560
 9057TIP3    H227136   6.753   6.758   0.665
 9058TIP3   OH227137   3.058   1.302   4.919
 9058TIP3    H127138   3.119   1.266   4.854
 9058TIP3    H227139   3.072   1.248   4.997
 9059TIP3   OH227140   3.793   2.819   0.844
 9059TIP3    H127141   3.883   2.823   0.876
 9059TIP3    H227142   3.744   2.876   0.904
 9060TIP3   OH227143   0.054   0.920   4.182
 9060TIP3    H127144  -0.004   0.885   4.114
 9060TIP3    H227145   0.142   0.915   4.144
 9061TIP3   OH227146   5.360   3.993   3.860
 9061TIP3    H127147   5.273   4.020   3.888
 9061TIP3    H227148   5.420   4.035   3.923
 9062TIP3   OH227149   6.002   6.523   1.824
 9062TIP3    H127150   5.952   6.451   1.784
 9062TIP3    H227151   6.026   6.489   1.910
 9063TIP3   OH227152   6.755   2.039   5.805
 9063TIP3    H127153   6.773   1.993   5.887
 9063TIP3    H227154   6.822   2.107   5.800
 9064TIP3   OH227155   5.499   0.841   0.179
 9064TIP3    H127156   5.452   0.761   0.204
 9064TIP3    H227157   5.525   0.880   0.262
 9065TIP3   OH227158   6.877   4.194   5.618
 9065TIP3    H127159   6.875   4.237   5.704
 9065TIP3    H227160   6.967   4.205   5.588
 9066TIP3   OH227161   0.863   3.576   5.126
 9066TIP3    H127162   0.919   3.524   5.068
 9066TIP3    H227163   0.905   3.662   5.128
 9067TIP3   OH227164   2.588   1.957   3.285
 9067TIP3    H127165   2.659   1.914   3.238
 9067TIP3    H227166   2.544   2.011   3.219
 9068TIP3   OH227167   6.932   2.962   0.029
 9068TIP3    H127168   6.984   2.949   0.108
 9068TIP3    H227169   6.920   3.057   0.023
 9069TIP3   OH227170   5.897   0.502   4.193
 9069TIP3    H127171   5.809   0.539   4.185
 9069TIP3    H227172   5.889   0.413   4.157
 9070TIP3   OH227173   1.012   3.715   1.188
 9070TIP3    H127174   0.929   3.717   1.236
 9070TIP3    H227175   1.079   3.704   1.255
 9071TIP3   OH227176   7.161   4.161   5.785
 9071TIP3    H127177   7.156   4.157   5.690
 9071TIP3    H227178   7.184   4.252   5.805
 9072TIP3   OH227179   4.268   2.476   1.953
 9072TIP3    H127180   4.280   2.555   1.901
 9072TIP3    H227181   4.356   2.440   1.963
 9073TIP3   OH227182   3.274   3.800   4.048
 9073TIP3    H127183   3.256   3.721   3.998
 9073TIP3    H227184   3.242   3.781   4.137
 9074TIP3   OH227185   3.675   3.789   3.330
 9074TIP3    H127186   3.587   3.814   3.300
 9074TIP3    H227187   3.731   3.802   3.253
 9075TIP3   OH227188   7.210   4.096   4.990
 9075TIP3    H127189   7.196   4.105   5.085
 9075TIP3    H227190   7.175   4.177   4.953
 9076TIP3   OH227191   1.370   4.665   3.799
 9076TIP3    H127192   1.417   4.724   3.740
 9076TIP3    H227193   1.370   4.711   3.883
 9077TIP3   OH227194   2.988   0.055   4.141
 9077TIP3    H127195   3.073   0.031   4.106
 9077TIP3    H227196   2.959   0.129   4.087
 9078TIP3   OH227197   6.522   6.050   4.947
 9078TIP3    H127198   6.492   6.028   4.858
 9078TIP3    H227199   6.595   6.110   4.933
 9079TIP3   OH227200   6.884   4.199   4.992
 9079TIP3    H127201   6.812   4.204   4.929
 9079TIP3    H227202   6.959   4.239   4.947
 9080TIP3   OH227203   5.146   3.779   5.392
 9080TIP3    H127204   5.225   3.765   5.340
 9080TIP3    H227205   5.162   3.862   5.437
 9081TIP3   OH227206   3.640   2.345   0.230
 9081TIP3    H127207   3.575   2.415   0.224
 9081TIP3    H227208   3.672   2.350   0.320
 9082TIP3   OH227209   7.023   2.502   3.945
 9082TIP3    H127210   6.951   2.458   3.991
 9082TIP3    H227211   7.077   2.537   4.015
 9083TIP3   OH227212   6.897   5.513   0.059
 9083TIP3    H127213   6.926   5.599   0.029
 9083TIP3    H227214   6.953   5.451   0.014
 9084TIP3   OH227215   4.457   1.684   0.075
 9084TIP3    H127216   4.496   1.597   0.077
 9084TIP3    H227217   4.498   1.730   0.148
 9085TIP3   OH227218   0.820   3.054   1.201
 9085TIP3    H127219   0.838   3.134   1.251
 9085TIP3    H227220   0.903   3.007   1.200
 9086TIP3   OH227221   1.828   4.713   5.747
 9086TIP3    H127222   1.887   4.734   5.820
 9086TIP3    H227223   1.868   4.756   5.671
 9087TIP3   OH227224   7.046   4.236   3.252
 9087TIP3    H127225   7.015   4.298   3.186
 9087TIP3    H227226   7.116   4.187   3.209
 9088TIP3   OH227227   2.633   3.492   3.160
 9088TIP3    H127228   2.554   3.469   3.111
 9088TIP3    H227229   2.604   3.561   3.221
 9089TIP3   OH227230   6.230   6.165   1.278
 9089TIP3    H127231   6.322   6.191   1.267
 9089TIP3    H227232   6.226   6.077   1.240
 9090TIP3   OH227233   1.792   2.597   5.002
 9090TIP3    H127234   1.796   2.580   5.096
 9090TIP3    H227235   1.715   2.548   4.972
 9091TIP3   OH227236   5.709   3.240   5.840
 9091TIP3    H127237   5.659   3.304   5.789
 9091TIP3    H227238   5.715   3.163   5.783
 9092TIP3   OH227239   5.223   6.726   3.623
 9092TIP3    H127240   5.309   6.760   3.601
 9092TIP3    H227241   5.230   6.631   3.612
 9093TIP3   OH227242   1.105   1.808   1.812
 9093TIP3    H127243   1.099   1.885   1.869
 9093TIP3    H227244   1.033   1.819   1.750
 9094TIP3   OH227245   6.125   5.066   0.238
 9094TIP3    H127246   6.067   5.011   0.291
 9094TIP3    H227247   6.178   5.113   0.303
 9095TIP3   OH227248   6.831   1.065   3.595
 9095TIP3    H127249   6.835   0.985   3.543
 9095TIP3    H227250   6.773   1.044   3.668
 9096TIP3   OH227251   6.033   3.541   2.366
 9096TIP3    H127252   6.016   3.634   2.356
 9096TIP3    H227253   5.993   3.517   2.449
 9097TIP3   OH227254   5.902   5.288   0.157
 9097TIP3    H127255   5.876   5.257   0.070
 9097TIP3    H227256   5.894   5.210   0.213
 9098TIP3   OH227257   0.870   1.469   3.790
 9098TIP3    H127258   0.887   1.555   3.751
 9098TIP3    H227259   0.792   1.482   3.845
 9099TIP3   OH227260   1.386   2.803   0.041
 9099TIP3    H127261   1.429   2.832  -0.040
 9099TIP3    H227262   1.448   2.826   0.110
 9100TIP3   OH227263   4.385   6.457   0.217
 9100TIP3    H127264   4.303   6.507   0.218
 9100TIP3    H227265   4.387   6.414   0.302
 9101TIP3   OH227266   4.789   5.197   1.116
 9101TIP3    H127267   4.818   5.106   1.128
 9101TIP3    H227268   4.834   5.246   1.185
 9102TIP3   OH227269   0.279   4.603   1.633
 9102TIP3    H127270   0.310   4.689   1.663
 9102TIP3    H227271   0.358   4.548   1.633
 9103TIP3   OH227272   0.853   1.356   1.896
 9103TIP3    H127273   0.908   1.385   1.823
 9103TIP3    H227274   0.891   1.272   1.923
 9104TIP3   OH227275   5.774   6.097   5.230
 9104TIP3    H127276   5.848   6.156   5.246
 9104TIP3    H227277   5.712   6.115   5.301
 9105TIP3   OH227278   3.305   0.505   1.525
 9105TIP3    H127279   3.359   0.540   1.455
 9105TIP3    H227280   3.270   0.423   1.490
 9106TIP3   OH227281   0.123   0.112   0.446
 9106TIP3    H127282   0.067   0.116   0.524
 9106TIP3    H227283   0.153   0.021   0.444
 9107TIP3   OH227284   2.981   0.425   0.259
 9107TIP3    H127285   2.922   0.350   0.253
 9107TIP3    H227286   3.042   0.414   0.187
 9108TIP3   OH227287   2.599   0.124   0.950
 9108TIP3    H127288   2.529   0.059   0.951
 9108TIP3    H227289   2.643   0.111   0.866
 9109TIP3   OH227290   6.141   2.399   3.418
 9109TIP3    H127291   6.107   2.489   3.420
 9109TIP3    H227292   6.123   2.365   3.506
 9110TIP3   OH227293   0.901   0.005   0.849
 9110TIP3    H127294   0.979   0.057   0.866
 9110TIP3    H227295   0.908  -0.070   0.908
 9111TIP3   OH227296   1.222   2.259   5.579
 9111TIP3    H127297   1.304   2.211   5.587
 9111TIP3    H227298   1.158   2.207   5.628
 9112TIP3   OH227299   7.016   0.456   4.408
 9112TIP3    H127300   6.997   0.422   4.495
 9112TIP3    H227301   6.933   0.450   4.361
 9113TIP3   OH227302   3.720   0.980   0.506
 9113TIP3    H127303   3.711   0.966   0.412
 9113TIP3    H227304   3.744   0.894   0.541
 9114TIP3   OH227305   7.053   2.959   0.272
 9114TIP3    H127306   7.004   2.974   0.352
 9114TIP3    H227307   7.110   3.035   0.263
 9115TIP3   OH227308   1.652   5.805   0.415
 9115TIP3    H127309   1.700   5.878   0.376
 9115TIP3    H227310   1.678   5.805   0.507
 9116TIP3   OH227311   0.225   2.406   4.963
 9116TIP3    H127312   0.184   2.362   4.888
 9116TIP3    H227313   0.164   2.477   4.985
 9117TIP3   OH227314   3.742   3.585   4.850
 9117TIP3    H127315   3.769   3.615   4.937
 9117TIP3    H227316   3.691   3.658   4.814
 9118TIP3   OH227317   5.081   0.373   5.688
 9118TIP3    H127318   5.172   0.346   5.673
 9118TIP3    H227319   5.048   0.310   5.752
 9119TIP3   OH227320   1.924   3.900   2.989
 9119TIP3    H127321   1.875   3.838   2.935
 9119TIP3    H227322   1.958   3.846   3.062
 9120TIP3   OH227323   1.941   2.396   1.722
 9120TIP3    H127324   2.033   2.408   1.699
 9120TIP3    H227325   1.921   2.470   1.779
 9121TIP3   OH227326   6.609   4.260   0.872
 9121TIP3    H127327   6.567   4.213   0.800
 9121TIP3    H227328   6.696   4.221   0.879
 9122TIP3   OH227329   3.381   1.114   5.030
 9122TIP3    H127330   3.464   1.074   5.055
 9122TIP3    H227331   3.393   1.208   5.047
 9123TIP3   OH227332   6.470   4.490   1.724
 9123TIP3    H127333   6.534   4.553   1.758
 9123TIP3    H227334   6.452   4.521   1.635
 9124TIP3   OH227335   1.199   4.451   3.037
 9124TIP3    H127336   1.152   4.379   3.078
 9124TIP3    H227337   1.185   4.439   2.943
 9125TIP3   OH227338   3.590   4.378   5.024
 9125TIP3    H127339   3.676   4.419   5.036
 9125TIP3    H227340   3.608   4.284   5.025
 9126TIP3   OH227341   5.403   2.115   0.445
 9126TIP3    H127342   5.369   2.042   0.392
 9126TIP3    H227343   5.360   2.105   0.530
 9127TIP3   OH227344   2.338   2.723   5.199
 9127TIP3    H127345   2.385   2.642   5.218
 9127TIP3    H227346   2.268   2.726   5.265
 9128TIP3   OH227347   2.240   1.888   0.960
 9128TIP3    H127348   2.286   1.875   0.877
 9128TIP3    H227349   2.148   1.869   0.940
 9129TIP3   OH227350   3.569   4.222   1.382
 9129TIP3    H127351   3.548   4.143   1.333
 9129TIP3    H227352   3.664   4.230   1.375
 9130TIP3   OH227353   0.886   6.236   1.770
 9130TIP3    H127354   0.913   6.263   1.683
 9130TIP3    H227355   0.944   6.163   1.792
 9131TIP3   OH227356   3.204   5.647   0.883
 9131TIP3    H127357   3.117   5.636   0.847
 9131TIP3    H227358   3.211   5.740   0.904
 9132TIP3   OH227359   6.784   3.448   2.206
 9132TIP3    H127360   6.721   3.480   2.140
 9132TIP3    H227361   6.787   3.354   2.192
 9133TIP3   OH227362   2.461   2.199   3.656
 9133TIP3    H127363   2.387   2.260   3.666
 9133TIP3    H227364   2.445   2.132   3.721
 9134TIP3   OH227365   2.038   5.292   0.721
 9134TIP3    H127366   2.121   5.271   0.677
 9134TIP3    H227367   2.009   5.209   0.758
 9135TIP3   OH227368   0.356   5.613   5.561
 9135TIP3    H127369   0.384   5.599   5.470
 9135TIP3    H227370   0.381   5.703   5.580
 9136TIP3   OH227371   4.717   6.283   1.193
 9136TIP3    H127372   4.681   6.195   1.188
 9136TIP3    H227373   4.640   6.339   1.204
 9137TIP3   OH227374   3.678   0.889   2.870
 9137TIP3    H127375   3.596   0.899   2.918
 9137TIP3    H227376   3.745   0.926   2.927
 9138TIP3   OH227377   6.139   6.580   5.693
 9138TIP3    H127378   6.150   6.498   5.644
 9138TIP3    H227379   6.100   6.553   5.776
 9139TIP3   OH227380   5.252   3.277   3.574
 9139TIP3    H127381   5.306   3.291   3.497
 9139TIP3    H227382   5.303   3.310   3.647
 9140TIP3   OH227383   1.971   6.719   3.952
 9140TIP3    H127384   1.989   6.809   3.925
 9140TIP3    H227385   1.998   6.665   3.877
 9141TIP3   OH227386   5.108   4.057   3.990
 9141TIP3    H127387   5.160   4.112   4.049
 9141TIP3    H227388   5.024   4.048   4.034
 9142TIP3   OH227389   2.077   3.592   0.491
 9142TIP3    H127390   2.011   3.523   0.483
 9142TIP3    H227391   2.105   3.609   0.401
 9143TIP3   OH227392   5.486   1.668   1.681
 9143TIP3    H127393   5.450   1.756   1.696
 9143TIP3    H227394   5.510   1.637   1.768
 9144TIP3   OH227395   6.377   0.295   1.892
 9144TIP3    H127396   6.410   0.247   1.816
 9144TIP3    H227397   6.416   0.382   1.883
 9145TIP3   OH227398   5.484   3.416   0.674
 9145TIP3    H127399   5.442   3.337   0.708
 9145TIP3    H227400   5.438   3.488   0.718
 9146TIP3   OH227401   4.856   1.637   0.986
 9146TIP3    H127402   4.776   1.674   1.023
 9146TIP3    H227403   4.889   1.578   1.054
 9147TIP3   OH227404   0.654   3.460   2.780
 9147TIP3    H127405   0.616   3.517   2.847
 9147TIP3    H227406   0.585   3.398   2.758
 9148TIP3   OH227407   5.654   5.300   3.078
 9148TIP3    H127408   5.728   5.353   3.109
 9148TIP3    H227409   5.670   5.289   2.985
 9149TIP3   OH227410   4.848   2.307   0.574
 9149TIP3    H127411   4.846   2.238   0.641
 9149TIP3    H227412   4.757   2.331   0.563
 9150TIP3   OH227413   6.519   3.127   5.343
 9150TIP3    H127414   6.585   3.069   5.381
 9150TIP3    H227415   6.473   3.163   5.419
 9151TIP3   OH227416   2.449   6.383   0.419
 9151TIP3    H127417   2.515   6.386   0.349
 9151TIP3    H227418   2.462   6.298   0.460
 9152TIP3   OH227419   2.932   1.450   1.835
 9152TIP3    H127420   2.881   1.428   1.756
 9152TIP3    H227421   2.878   1.515   1.880
 9153TIP3   OH227422   2.705   5.178   5.286
 9153TIP3    H127423   2.786   5.193   5.336
 9153TIP3    H227424   2.735   5.160   5.197
 9154TIP3   OH227425   6.351   2.046   1.810
 9154TIP3    H127426   6.359   2.089   1.895
 9154TIP3    H227427   6.438   2.056   1.770
 9155TIP3   OH227428   3.527   6.538   0.043
 9155TIP3    H127429   3.456   6.602   0.033
 9155TIP3    H227430   3.488   6.454   0.019
 9156TIP3   OH227431   5.786   4.956   1.176
 9156TIP3    H127432   5.813   4.940   1.267
 9156TIP3    H227433   5.799   4.872   1.133
 9157TIP3   OH227434   5.205   6.475   2.233
 9157TIP3    H127435   5.147   6.447   2.305
 9157TIP3    H227436   5.288   6.496   2.277
 9158TIP3   OH227437   4.424   3.627   3.032
 9158TIP3    H127438   4.448   3.718   3.015
 9158TIP3    H227439   4.498   3.592   3.082
 9159TIP3   OH227440   3.234   6.604   5.696
 9159TIP3    H127441   3.317   6.595   5.743
 9159TIP3    H227442   3.199   6.515   5.691
 9160TIP3   OH227443   1.266   4.825   1.142
 9160TIP3    H127444   1.288   4.913   1.173
 9160TIP3    H227445   1.215   4.838   1.063
 9161TIP3   OH227446   5.370   3.308   5.558
 9161TIP3    H127447   5.381   3.296   5.464
 9161TIP3    H227448   5.458   3.297   5.594
 9162TIP3   OH227449   3.156   2.055   1.771
 9162TIP3    H127450   3.150   1.974   1.720
 9162TIP3    H227451   3.161   2.025   1.862
 9163TIP3   OH227452   5.322   0.548   4.884
 9163TIP3    H127453   5.363   0.608   4.821
 9163TIP3    H227454   5.394   0.491   4.913
 9164TIP3   OH227455   7.092   6.735   0.634
 9164TIP3    H127456   6.999   6.753   0.624
 9164TIP3    H227457   7.115   6.681   0.558
 9165TIP3   OH227458   0.634   5.929   2.574
 9165TIP3    H127459   0.612   5.964   2.487
 9165TIP3    H227460   0.597   5.993   2.635
 9166TIP3   OH227461   3.246   3.075   1.725
 9166TIP3    H127462   3.249   3.013   1.651
 9166TIP3    H227463   3.225   3.020   1.800
 9167TIP3   OH227464   4.471   5.895   3.962
 9167TIP3    H127465   4.556   5.923   3.997
 9167TIP3    H227466   4.472   5.800   3.969
 9168TIP3   OH227467   6.790   2.882   2.141
 9168TIP3    H127468   6.707   2.838   2.126
 9168TIP3    H227469   6.766   2.970   2.170
 9169TIP3   OH227470   4.236   5.540   2.552
 9169TIP3    H127471   4.223   5.458   2.600
 9169TIP3    H227472   4.330   5.553   2.553
 9170TIP3   OH227473   1.537   2.315   3.291
 9170TIP3    H127474   1.557   2.395   3.338
 9170TIP3    H227475   1.582   2.246   3.340
 9171TIP3   OH227476   1.100   5.176   5.396
 9171TIP3    H127477   1.172   5.124   5.360
 9171TIP3    H227478   1.136   5.263   5.410
 9172TIP3   OH227479   5.687   1.576   4.957
 9172TIP3    H127480   5.772   1.534   4.945
 9172TIP3    H227481   5.654   1.588   4.868
 9173TIP3   OH227482   5.273   4.031   0.483
 9173TIP3    H127483   5.366   4.015   0.466
 9173TIP3    H227484   5.265   4.032   0.579
 9174TIP3   OH227485   2.068   2.481   0.511
 9174TIP3    H127486   2.130   2.517   0.574
 9174TIP3    H227487   2.061   2.548   0.443
 9175TIP3   OH227488   1.471   2.837   3.596
 9175TIP3    H127489   1.468   2.743   3.582
 9175TIP3    H227490   1.520   2.871   3.521
 9176TIP3   OH227491   1.680   0.482   3.707
 9176TIP3    H127492   1.758   0.530   3.736
 9176TIP3    H227493   1.616   0.497   3.777
 9177TIP3   OH227494   2.819   5.601   1.883
 9177TIP3    H127495   2.845   5.509   1.893
 9177TIP3    H227496   2.724   5.597   1.866
 9178TIP3   OH227497   2.403   4.720   3.093
 9178TIP3    H127498   2.464   4.647   3.099
 9178TIP3    H227499   2.440   4.787   3.151
 9179TIP3   OH227500   2.032   6.089   0.758
 9179TIP3    H127501   2.123   6.115   0.746
 9179TIP3    H227502   1.986   6.171   0.778
 9180TIP3   OH227503   3.207   1.800   5.131
 9180TIP3    H127504   3.163   1.718   5.110
 9180TIP3    H227505   3.228   1.793   5.224
 9181TIP3   OH227506   5.772   1.728   4.307
 9181TIP3    H127507   5.692   1.756   4.263
 9181TIP3    H227508   5.764   1.633   4.313
 9182TIP3   OH227509   6.778   5.570   1.934
 9182TIP3    H127510   6.763   5.487   1.980
 9182TIP3    H227511   6.693   5.614   1.934
 9183TIP3   OH227512   4.079   6.319   1.298
 9183TIP3    H127513   4.145   6.259   1.331
 9183TIP3    H227514   4.010   6.318   1.364
 9184TIP3   OH227515   1.888   5.318   4.406
 9184TIP3    H127516   1.962   5.265   4.377
 9184TIP3    H227517   1.925   5.377   4.471
 9185TIP3   OH227518   6.831   3.951   4.212
 9185TIP3    H127519   6.769   4.012   4.251
 9185TIP3    H227520   6.897   4.007   4.171
 9186TIP3   OH227521   2.857   3.969   2.619
 9186TIP3    H127522   2.880   3.877   2.632
 9186TIP3    H227523   2.762   3.968   2.603
 9187TIP3   OH227524   2.739   2.916   2.891
 9187TIP3    H127525   2.736   2.946   2.800
 9187TIP3    H227526   2.652   2.936   2.926
 9188TIP3   OH227527   5.566   5.336   0.861
 9188TIP3    H127528   5.502   5.267   0.844
 9188TIP3    H227529   5.608   5.310   0.943
 9189TIP3   OH227530   0.596   5.463   1.591
 9189TIP3    H127531   0.508   5.478   1.624
 9189TIP3    H227532   0.614   5.539   1.535
 9190TIP3   OH227533   1.704   6.368   5.714
 9190TIP3    H127534   1.648   6.405   5.646
 9190TIP3    H227535   1.644   6.314   5.766
 9191TIP3   OH227536   2.986   3.809   5.711
 9191TIP3    H127537   3.041   3.732   5.700
 9191TIP3    H227538   3.005   3.840   5.799
 9192TIP3   OH227539   4.494   3.552   2.297
 9192TIP3    H127540   4.495   3.463   2.331
 9192TIP3    H227541   4.417   3.555   2.240
 9193TIP3   OH227542   4.929   0.906   3.081
 9193TIP3    H127543   5.004   0.864   3.124
 9193TIP3    H227544   4.853   0.860   3.116
 9194TIP3   OH227545   0.014   0.868   3.879
 9194TIP3    H127546   0.106   0.864   3.854
 9194TIP3    H227547  -0.028   0.920   3.810
 9195TIP3   OH227548   0.073   1.168   2.664
 9195TIP3    H127549   0.083   1.096   2.602
 9195TIP3    H227550   0.040   1.240   2.611
 9196TIP3   OH227551   5.453   0.056   1.749
 9196TIP3    H127552   5.458   0.149   1.728
 9196TIP3    H227553   5.451   0.013   1.664
 9197TIP3   OH227554   5.582   2.242   3.983
 9197TIP3    H127555   5.540   2.245   4.069
 9197TIP3    H227556   5.510   2.259   3.921
 9198TIP3   OH227557   1.658   4.584   2.684
 9198TIP3    H127558   1.583   4.629   2.646
 9198TIP3    H227559   1.637   4.491   2.676
 9199TIP3   OH227560   5.609   4.151   4.364
 9199TIP3    H127561   5.572   4.130   4.450
 9199TIP3    H227562   5.612   4.068   4.318
 9200TIP3   OH227563   0.579   2.675   3.285
 9200TIP3    H127564   0.546   2.755   3.243
 9200TIP3    H227565   0.548   2.604   3.229
 9201TIP3   OH227566   5.394   2.030   1.160
 9201TIP3    H127567   5.323   1.982   1.203
 9201TIP3    H227568   5.353   2.111   1.130
 9202TIP3   OH227569   5.206   4.229   4.453
 9202TIP3    H127570   5.237   4.288   4.521
 9202TIP3    H227571   5.177   4.151   4.500
 9203TIP3   OH227572   4.495   2.438   1.300
 9203TIP3    H127573   4.458   2.525   1.282
 9203TIP3    H227574   4.439   2.377   1.253
 9204TIP3   OH227575   4.963   1.124   5.348
 9204TIP3    H127576   4.970   1.165   5.434
 9204TIP3    H227577   5.012   1.182   5.289
 9205TIP3   OH227578   3.660   6.623   3.050
 9205TIP3    H127579   3.676   6.714   3.026
 9205TIP3    H227580   3.574   6.603   3.014
 9206TIP3   OH227581   4.884   0.444   0.572
 9206TIP3    H127582   4.960   0.477   0.525
 9206TIP3    H227583   4.883   0.492   0.654
 9207TIP3   OH227584   1.756   2.556   4.435
 9207TIP3    H127585   1.799   2.604   4.505
 9207TIP3    H227586   1.705   2.488   4.480
 9208TIP3   OH227587   5.647   3.157   0.728
 9208TIP3    H127588   5.691   3.075   0.708
 9208TIP3    H227589   5.636   3.156   0.823
 9209TIP3   OH227590   0.422   1.887   4.420
 9209TIP3    H127591   0.502   1.915   4.463
 9209TIP3    H227592   0.446   1.806   4.375
 9210TIP3   OH227593   1.729   0.461   5.174
 9210TIP3    H127594   1.686   0.389   5.127
 9210TIP3    H227595   1.675   0.474   5.252
 9211TIP3   OH227596   3.655   5.658   2.708
 9211TIP3    H127597   3.663   5.739   2.658
 9211TIP3    H227598   3.713   5.597   2.663
 9212TIP3   OH227599   3.687   4.652   5.882
 9212TIP3    H127600   3.659   4.575   5.931
 9212TIP3    H227601   3.722   4.711   5.948
 9213TIP3   OH227602   3.182   1.538   0.536
 9213TIP3    H127603   3.117   1.535   0.465
 9213TIP3    H227604   3.206   1.630   0.542
 9214TIP3   OH227605   6.966   0.361   5.216
 9214TIP3    H127606   6.934   0.365   5.306
 9214TIP3    H227607   7.011   0.444   5.202
 9215TIP3   OH227608   1.561   6.650   0.569
 9215TIP3    H127609   1.638   6.593   0.569
 9215TIP3    H227610   1.513   6.625   0.647
 9216TIP3   OH227611   5.601   5.742   1.323
 9216TIP3    H127612   5.666   5.811   1.315
 9216TIP3    H227613   5.564   5.755   1.411
 9217TIP3   OH227614   3.057   6.179   1.475
 9217TIP3    H127615   3.101   6.098   1.499
 9217TIP3    H227616   3.127   6.238   1.448
 9218TIP3   OH227617   0.742   4.547   5.273
 9218TIP3    H127618   0.811   4.584   5.327
 9218TIP3    H227619   0.693   4.622   5.241
 9219TIP3   OH227620   3.081   3.017   2.622
 9219TIP3    H127621   3.165   3.027   2.667
 9219TIP3    H227622   3.034   2.951   2.673
 9220TIP3   OH227623   4.216   2.221   4.798
 9220TIP3    H127624   4.207   2.182   4.884
 9220TIP3    H227625   4.305   2.255   4.795
 9221TIP3   OH227626   4.999   6.441   5.618
 9221TIP3    H127627   5.006   6.498   5.694
 9221TIP3    H227628   5.086   6.403   5.608
 9222TIP3   OH227629   2.002   0.429   5.341
 9222TIP3    H127630   1.994   0.523   5.324
 9222TIP3    H227631   1.919   0.406   5.382
 9223TIP3   OH227632   4.374   4.144   3.426
 9223TIP3    H127633   4.467   4.151   3.446
 9223TIP3    H227634   4.369   4.155   3.331
 9224TIP3   OH227635   2.494   0.221   0.453
 9224TIP3    H127636   2.409   0.200   0.413
 9224TIP3    H227637   2.543   0.139   0.449
 9225TIP3   OH227638   5.250   0.630   4.334
 9225TIP3    H127639   5.218   0.583   4.411
 9225TIP3    H227640   5.200   0.594   4.261
 9226TIP3   OH227641   5.987   2.601   5.889
 9226TIP3    H127642   5.970   2.651   5.809
 9226TIP3    H227643   6.007   2.668   5.955
 9227TIP3   OH227644   7.133   0.360   0.887
 9227TIP3    H127645   7.054   0.356   0.834
 9227TIP3    H227646   7.125   0.286   0.948
 9228TIP3   OH227647   7.039   1.256   0.651
 9228TIP3    H127648   7.133   1.238   0.642
 9228TIP3    H227649   7.030   1.294   0.738
 9229TIP3   OH227650   5.287   5.067   4.367
 9229TIP3    H127651   5.255   5.156   4.355
 9229TIP3    H227652   5.221   5.025   4.421
 9230TIP3   OH227653   4.879   1.165   4.932
 9230TIP3    H127654   4.972   1.172   4.913
 9230TIP3    H227655   4.839   1.134   4.851
 9231TIP3   OH227656   5.841   5.721   5.804
 9231TIP3    H127657   5.907   5.788   5.820
 9231TIP3    H227658   5.880   5.640   5.837
 9232TIP3   OH227659   4.795   5.302   5.127
 9232TIP3    H127660   4.780   5.238   5.058
 9232TIP3    H227661   4.769   5.257   5.208
 9233TIP3   OH227662   0.737   1.877   2.668
 9233TIP3    H127663   0.815   1.933   2.662
 9233TIP3    H227664   0.692   1.906   2.747
 9234TIP3   OH227665   6.143   5.146   2.478
 9234TIP3    H127666   6.210   5.197   2.434
 9234TIP3    H227667   6.104   5.093   2.408
 9235TIP3   OH227668   7.123   3.704   2.514
 9235TIP3    H127669   7.074   3.754   2.449
 9235TIP3    H227670   7.119   3.614   2.482
 9236TIP3   OH227671   0.313   6.482   1.357
 9236TIP3    H127672   0.401   6.518   1.348
 9236TIP3    H227673   0.319   6.420   1.430
 9237TIP3   OH227674   0.412   0.251   4.414
 9237TIP3    H127675   0.377   0.202   4.339
 9237TIP3    H227676   0.496   0.285   4.384
 9238TIP3   OH227677   1.465   0.887   2.129
 9238TIP3    H127678   1.488   0.896   2.222
 9238TIP3    H227679   1.393   0.823   2.129
 9239TIP3   OH227680   4.833   2.325   5.250
 9239TIP3    H127681   4.744   2.334   5.217
 9239TIP3    H227682   4.875   2.263   5.189
 9240TIP3   OH227683   3.269   0.834   1.782
 9240TIP3    H127684   3.341   0.821   1.721
 9240TIP3    H227685   3.228   0.748   1.791
 9241TIP3   OH227686   3.517   0.974   2.664
 9241TIP3    H127687   3.569   0.974   2.744
 9241TIP3    H227688   3.480   1.062   2.659
 9242TIP3   OH227689   7.066   4.535   2.491
 9242TIP3    H127690   7.070   4.532   2.396
 9242TIP3    H227691   6.995   4.596   2.510
 9243TIP3   OH227692   3.747   3.831   2.494
 9243TIP3    H127693   3.654   3.827   2.473
 9243TIP3    H227694   3.768   3.925   2.493
 9244TIP3   OH227695   2.692   0.102   5.478
 9244TIP3    H127696   2.784   0.130   5.477
 9244TIP3    H227697   2.694   0.015   5.517
 9245TIP3   OH227698   2.956   2.425   4.629
 9245TIP3    H127699   2.975   2.403   4.538
 9245TIP3    H227700   2.867   2.459   4.628
 9246TIP3   OH227701   4.394   4.851   3.064
 9246TIP3    H127702   4.409   4.756   3.057
 9246TIP3    H227703   4.437   4.876   3.146
 9247TIP3   OH227704   5.945   0.069   0.641
 9247TIP3    H127705   5.878   0.076   0.573
 9247TIP3    H227706   5.997   0.149   0.632
 9248TIP3   OH227707   5.728   5.469   1.160
 9248TIP3    H127708   5.641   5.501   1.181
 9248TIP3    H227709   5.750   5.410   1.232
 9249TIP3   OH227710   2.934   0.859   4.961
 9249TIP3    H127711   2.934   0.894   4.871
 9249TIP3    H227712   2.983   0.924   5.011
 9250TIP3   OH227713   5.814   3.000   2.263
 9250TIP3    H127714   5.798   2.918   2.310
 9250TIP3    H227715   5.786   3.068   2.324
 9251TIP3   OH227716   2.698   2.621   5.537
 9251TIP3    H127717   2.726   2.531   5.520
 9251TIP3    H227718   2.765   2.675   5.495
 9252TIP3   OH227719   0.142   2.446   0.183
 9252TIP3    H127720   0.144   2.352   0.202
 9252TIP3    H227721   0.153   2.451   0.088
 9253TIP3   OH227722   6.846   3.686   1.937
 9253TIP3    H127723   6.771   3.700   1.879
 9253TIP3    H227724   6.808   3.656   2.020
 9254TIP3   OH227725   6.326   3.387   3.380
 9254TIP3    H127726   6.349   3.412   3.469
 9254TIP3    H227727   6.290   3.466   3.340
 9255TIP3   OH227728   5.493   1.200   3.512
 9255TIP3    H127729   5.398   1.205   3.524
 9255TIP3    H227730   5.506   1.212   3.418
 9256TIP3   OH227731   2.068   5.423   1.118
 9256TIP3    H127732   2.010   5.465   1.181
 9256TIP3    H227733   2.121   5.362   1.169
 9257TIP3   OH227734   6.979   2.423   2.314
 9257TIP3    H127735   6.980   2.357   2.244
 9257TIP3    H227736   7.007   2.504   2.271
 9258TIP3   OH227737   3.050   2.174   0.824
 9258TIP3    H127738   3.091   2.173   0.738
 9258TIP3    H227739   2.962   2.139   0.809
 9259TIP3   OH227740   1.296   0.515   5.774
 9259TIP3    H127741   1.247   0.592   5.802
 9259TIP3    H227742   1.383   0.528   5.812
 9260TIP3   OH227743   1.535   4.382   2.538
 9260TIP3    H127744   1.471   4.382   2.467
 9260TIP3    H227745   1.531   4.293   2.574
 9261TIP3   OH227746   5.009   5.947   5.645
 9261TIP3    H127747   4.994   5.949   5.740
 9261TIP3    H227748   4.948   6.012   5.610
 9262TIP3   OH227749   4.335   3.193   0.716
 9262TIP3    H127750   4.391   3.115   0.718
 9262TIP3    H227751   4.316   3.211   0.808
 9263TIP3   OH227752   3.538   5.689   1.785
 9263TIP3    H127753   3.633   5.682   1.788
 9263TIP3    H227754   3.516   5.758   1.847
 9264TIP3   OH227755   0.536   6.437   5.085
 9264TIP3    H127756   0.588   6.514   5.065
 9264TIP3    H227757   0.525   6.440   5.180
 9265TIP3   OH227758   2.134   5.134   2.255
 9265TIP3    H127759   2.153   5.120   2.162
 9265TIP3    H227760   2.044   5.169   2.256
 9266TIP3   OH227761   3.117   1.905   3.147
 9266TIP3    H127762   3.050   1.966   3.179
 9266TIP3    H227763   3.191   1.960   3.122
 9267TIP3   OH227764   3.922   0.817   0.954
 9267TIP3    H127765   4.004   0.773   0.977
 9267TIP3    H227766   3.869   0.812   1.033
 9268TIP3   OH227767   6.776   6.601   1.603
 9268TIP3    H127768   6.799   6.534   1.668
 9268TIP3    H227769   6.848   6.601   1.540
 9269TIP3   OH227770   6.566   1.826   4.575
 9269TIP3    H127771   6.646   1.879   4.577
 9269TIP3    H227772   6.528   1.836   4.662
 9270TIP3   OH227773   2.580   1.832   3.797
 9270TIP3    H127774   2.620   1.749   3.821
 9270TIP3    H227775   2.568   1.827   3.702
 9271TIP3   OH227776   3.397   3.840   3.651
 9271TIP3    H127777   3.373   3.905   3.585
 9271TIP3    H227778   3.457   3.885   3.709
 9272TIP3   OH227779   2.180   4.789   5.410
 9272TIP3    H127780   2.205   4.700   5.384
 9272TIP3    H227781   2.253   4.819   5.464
 9273TIP3   OH227782   3.045   5.091   5.113
 9273TIP3    H127783   3.087   5.013   5.078
 9273TIP3    H227784   2.966   5.102   5.061
 9274TIP3   OH227785   6.027   3.200   1.168
 9274TIP3    H127786   5.984   3.124   1.129
 9274TIP3    H227787   6.116   3.198   1.135
 9275TIP3   OH227788   3.940   0.262   1.350
 9275TIP3    H127789   3.920   0.198   1.282
 9275TIP3    H227790   4.002   0.322   1.309
 9276TIP3   OH227791   5.292   5.479   3.269
 9276TIP3    H127792   5.263   5.512   3.354
 9276TIP3    H227793   5.348   5.548   3.234
 9277TIP3   OH227794   4.996   0.419   5.341
 9277TIP3    H127795   5.047   0.418   5.422
 9277TIP3    H227796   4.967   0.510   5.332
 9278TIP3   OH227797   6.253   1.824   1.537
 9278TIP3    H127798   6.193   1.862   1.601
 9278TIP3    H227799   6.272   1.896   1.476
 9279TIP3   OH227800   3.184   0.813   2.640
 9279TIP3    H127801   3.265   0.800   2.691
 9279TIP3    H227802   3.172   0.908   2.639
 9280TIP3   OH227803   4.542   5.822   5.490
 9280TIP3    H127804   4.570   5.731   5.481
 9280TIP3    H227805   4.451   5.817   5.517
 9281TIP3   OH227806   3.207   6.400   4.542
 9281TIP3    H127807   3.217   6.426   4.633
 9281TIP3    H227808   3.260   6.322   4.533
 9282TIP3   OH227809   6.096   1.799   4.739
 9282TIP3    H127810   6.169   1.737   4.740
 9282TIP3    H227811   6.037   1.765   4.672
 9283TIP3   OH227812   6.718   0.408   1.736
 9283TIP3    H127813   6.721   0.382   1.828
 9283TIP3    H227814   6.631   0.381   1.706
 9284TIP3   OH227815   6.059   4.261   3.442
 9284TIP3    H127816   6.129   4.299   3.494
 9284TIP3    H227817   6.093   4.259   3.352
 9285TIP3   OH227818   1.609   1.118   2.555
 9285TIP3    H127819   1.617   1.023   2.545
 9285TIP3    H227820   1.517   1.136   2.538
 9286TIP3   OH227821   6.018   1.777   4.136
 9286TIP3    H127822   5.956   1.792   4.207
 9286TIP3    H227823   6.103   1.802   4.172
 9287TIP3   OH227824   5.757   5.739   2.487
 9287TIP3    H127825   5.823   5.670   2.476
 9287TIP3    H227826   5.718   5.748   2.400
 9288TIP3   OH227827   0.889   3.030   1.476
 9288TIP3    H127828   0.936   2.948   1.494
 9288TIP3    H227829   0.797   3.008   1.491
 9289TIP3   OH227830   5.020   1.407   3.110
 9289TIP3    H127831   5.028   1.327   3.162
 9289TIP3    H227832   5.040   1.477   3.172
 9290TIP3   OH227833   2.478   1.237   3.931
 9290TIP3    H127834   2.561   1.262   3.889
 9290TIP3    H227835   2.471   1.143   3.915
 9291TIP3   OH227836   1.877   1.943   3.548
 9291TIP3    H127837   1.956   1.926   3.599
 9291TIP3    H227838   1.899   1.915   3.460
 9292TIP3   OH227839   5.623   0.919   4.491
 9292TIP3    H127840   5.569   0.997   4.474
 9292TIP3    H227841   5.711   0.944   4.464
 9293TIP3   OH227842   3.830   4.045   0.601
 9293TIP3    H127843   3.737   4.021   0.594
 9293TIP3    H227844   3.847   4.049   0.695
 9294TIP3   OH227845   5.974   6.129   4.583
 9294TIP3    H127846   5.954   6.160   4.671
 9294TIP3    H227847   6.037   6.193   4.549
 9295TIP3   OH227848   5.939   4.461   5.688
 9295TIP3    H127849   5.927   4.368   5.709
 9295TIP3    H227850   5.985   4.461   5.605
 9296TIP3   OH227851   1.402   6.565   5.203
 9296TIP3    H127852   1.469   6.632   5.192
 9296TIP3    H227853   1.330   6.593   5.145
 9297TIP3   OH227854   3.399   3.231   4.804
 9297TIP3    H127855   3.420   3.139   4.819
 9297TIP3    H227856   3.436   3.277   4.880
 9298TIP3   OH227857   7.241   1.641   3.590
 9298TIP3    H127858   7.234   1.737   3.591
 9298TIP3    H227859   7.211   1.615   3.677
 9299TIP3   OH227860   5.830   5.625   2.826
 9299TIP3    H127861   5.803   5.715   2.843
 9299TIP3    H227862   5.824   5.582   2.912
 9300TIP3   OH227863   1.428   0.657   3.433
 9300TIP3    H127864   1.350   0.605   3.416
 9300TIP3    H227865   1.413   0.696   3.520
 9301TIP3   OH227866   0.557   1.094   1.807
 9301TIP3    H127867   0.573   1.092   1.712
 9301TIP3    H227868   0.533   1.005   1.829
 9302TIP3   OH227869   4.033   6.199   3.929
 9302TIP3    H127870   4.020   6.141   4.005
 9302TIP3    H227871   3.960   6.261   3.934
 9303TIP3   OH227872   1.718   3.618   5.219
 9303TIP3    H127873   1.666   3.694   5.190
 9303TIP3    H227874   1.656   3.545   5.219
 9304TIP3   OH227875   5.880   1.742   1.372
 9304TIP3    H127876   5.972   1.748   1.343
 9304TIP3    H227877   5.830   1.741   1.290
 9305TIP3   OH227878   2.133   1.691   2.044
 9305TIP3    H127879   2.228   1.678   2.040
 9305TIP3    H227880   2.116   1.762   1.983
 9306TIP3   OH227881   6.546   3.699   3.426
 9306TIP3    H127882   6.514   3.674   3.339
 9306TIP3    H227883   6.570   3.791   3.416
 9307TIP3   OH227884   3.711   3.686   5.675
 9307TIP3    H127885   3.734   3.634   5.752
 9307TIP3    H227886   3.789   3.685   5.620
 9308TIP3   OH227887   4.653   4.010   3.381
 9308TIP3    H127888   4.635   4.064   3.459
 9308TIP3    H227889   4.727   4.053   3.339
 9309TIP3   OH227890   5.849   1.472   2.406
 9309TIP3    H127891   5.896   1.518   2.337
 9309TIP3    H227892   5.793   1.539   2.445
 9310TIP3   OH227893   2.919   3.448   1.388
 9310TIP3    H127894   2.955   3.386   1.452
 9310TIP3    H227895   2.831   3.416   1.370
 9311TIP3   OH227896   4.783   6.507   0.298
 9311TIP3    H127897   4.875   6.493   0.319
 9311TIP3    H227898   4.753   6.423   0.263
 9312TIP3   OH227899   5.869   2.973   4.564
 9312TIP3    H127900   5.777   2.950   4.555
 9312TIP3    H227901   5.916   2.892   4.545
 9313TIP3   OH227902   6.437   0.288   5.696
 9313TIP3    H127903   6.484   0.337   5.764
 9313TIP3    H227904   6.348   0.321   5.701
 9314TIP3   OH227905   6.979   1.004   5.452
 9314TIP3    H127906   6.967   0.911   5.470
 9314TIP3    H227907   6.891   1.035   5.428
 9315TIP3   OH227908   6.176   5.118   4.512
 9315TIP3    H127909   6.146   5.092   4.599
 9315TIP3    H227910   6.229   5.044   4.481
 9316TIP3   OH227911   4.324   6.306   1.645
 9316TIP3    H127912   4.279   6.222   1.658
 9316TIP3    H227913   4.288   6.363   1.712
 9317TIP3   OH227914   5.109   3.690   0.472
 9317TIP3    H127915   5.148   3.615   0.428
 9317TIP3    H227916   5.049   3.727   0.407
 9318TIP3   OH227917   2.466   2.094   5.007
 9318TIP3    H127918   2.416   2.132   5.080
 9318TIP3    H227919   2.449   2.153   4.934
 9319TIP3   OH227920   1.007   3.033   5.659
 9319TIP3    H127921   0.947   3.103   5.630
 9319TIP3    H227922   1.063   3.017   5.583
 9320TIP3   OH227923   5.660   6.635   5.312
 9320TIP3    H127924   5.676   6.712   5.365
 9320TIP3    H227925   5.565   6.624   5.314
 9321TIP3   OH227926   0.130   2.674   5.725
 9321TIP3    H127927   0.168   2.588   5.711
 9321TIP3    H227928   0.173   2.707   5.804
 9322TIP3   OH227929   5.517   5.012   3.353
 9322TIP3    H127930   5.562   5.076   3.298
 9322TIP3    H227931   5.425   5.021   3.329
 9323TIP3   OH227932   2.480   3.735   0.204
 9323TIP3    H127933   2.502   3.656   0.154
 9323TIP3    H227934   2.558   3.790   0.197
 9324TIP3   OH227935   5.005   5.436   4.142
 9324TIP3    H127936   4.974   5.469   4.227
 9324TIP3    H227937   5.044   5.351   4.162
 9325TIP3   OH227938   3.329   4.062   4.645
 9325TIP3    H127939   3.423   4.047   4.644
 9325TIP3    H227940   3.306   4.059   4.738
 9326TIP3   OH227941   0.489   0.998   5.801
 9326TIP3    H127942   0.566   0.969   5.849
 9326TIP3    H227943   0.505   0.970   5.711
 9327TIP3   OH227944   1.855   1.495   4.653
 9327TIP3    H127945   1.875   1.440   4.577
 9327TIP3    H227946   1.918   1.567   4.648
 9328TIP3   OH227947   4.235   0.347   1.716
 9328TIP3    H127948   4.162   0.369   1.658
 9328TIP3    H227949   4.312   0.383   1.672
 9329TIP3   OH227950   3.257   2.552   5.559
 9329TIP3    H127951   3.293   2.515   5.479
 9329TIP3    H227952   3.230   2.641   5.534
 9330TIP3   OH227953   3.351   6.581   2.021
 9330TIP3    H127954   3.353   6.486   2.015
 9330TIP3    H227955   3.267   6.606   1.981
 9331TIP3   OH227956   6.160   0.604   1.339
 9331TIP3    H127957   6.190   0.515   1.322
 9331TIP3    H227958   6.069   0.605   1.307
 9332TIP3   OH227959   1.990   3.597   4.668
 9332TIP3    H127960   1.972   3.572   4.758
 9332TIP3    H227961   2.046   3.674   4.674
 9333TIP3   OH227962   2.974   6.749   3.499
 9333TIP3    H127963   3.009   6.784   3.417
 9333TIP3    H227964   3.025   6.669   3.515
 9334TIP3   OH227965   1.698   2.255   3.041
 9334TIP3    H127966   1.756   2.331   3.037
 9334TIP3    H227967   1.622   2.286   3.090
 9335TIP3   OH227968   1.977   4.428   5.300
 9335TIP3    H127969   2.062   4.394   5.273
 9335TIP3    H227970   1.928   4.351   5.329
 9336TIP3   OH227971   5.694   1.423   5.713
 9336TIP3    H127972   5.654   1.504   5.681
 9336TIP3    H227973   5.764   1.452   5.772
 9337TIP3   OH227974   1.031   1.872   5.106
 9337TIP3    H127975   0.981   1.857   5.187
 9337TIP3    H227976   1.117   1.834   5.123
 9338TIP3   OH227977   3.773   6.720   2.061
 9338TIP3    H127978   3.700   6.730   2.122
 9338TIP3    H227979   3.826   6.799   2.074
 9339TIP3   OH227980   5.452   4.847   5.847
 9339TIP3    H127981   5.369   4.802   5.836
 9339TIP3    H227982   5.513   4.779   5.878
 9340TIP3   OH227983   1.605   4.471   1.874
 9340TIP3    H127984   1.662   4.525   1.931
 9340TIP3    H227985   1.525   4.461   1.925
 9341TIP3   OH227986   5.709   0.656   5.840
 9341TIP3    H127987   5.797   0.617   5.833
 9341TIP3    H227988   5.699   0.705   5.759
 9342TIP3   OH227989   6.745   0.409   4.252
 9342TIP3    H127990   6.766   0.456   4.172
 9342TIP3    H227991   6.655   0.377   4.239
 9343TIP3   OH227992   1.147   0.243   4.033
 9343TIP3    H127993   1.097   0.165   4.008
 9343TIP3    H227994   1.144   0.244   4.128
 9344TIP3   OH227995   3.863   6.096   4.710
 9344TIP3    H127996   3.883   6.171   4.653
 9344TIP3    H227997   3.912   6.113   4.790
 9345TIP3   OH227998   4.597   2.094   2.063
 9345TIP3    H127999   4.687   2.100   2.094
 9345TIP3    H228000   4.552   2.040   2.128
 9346TIP3   OH228001   1.900   4.383   2.649
 9346TIP3    H128002   1.986   4.344   2.634
 9346TIP3    H228003   1.906   4.421   2.737
 9347TIP3   OH228004   1.118   6.179   5.240
 9347TIP3    H128005   1.206   6.159   5.209
 9347TIP3    H228006   1.060   6.139   5.174
 9348TIP3   OH228007   1.885   3.954   3.437
 9348TIP3    H128008   1.880   4.039   3.480
 9348TIP3    H228009   1.850   3.969   3.349
 9349TIP3   OH228010   0.029   2.401   5.839
 9349TIP3    H128011   0.114   2.409   5.883
 9349TIP3    H228012   0.039   2.324   5.782
 9350TIP3   OH228013   1.086   0.513   1.347
 9350TIP3    H128014   1.030   0.446   1.385
 9350TIP3    H228015   1.077   0.588   1.406
 9351TIP3   OH228016   2.844   6.292   0.391
 9351TIP3    H128017   2.897   6.226   0.347
 9351TIP3    H228018   2.868   6.374   0.348
 9352TIP3   OH228019   1.105   1.401   3.026
 9352TIP3    H128020   1.175   1.414   3.090
 9352TIP3    H228021   1.149   1.405   2.942
 9353TIP3   OH228022   5.991   1.617   3.726
 9353TIP3    H128023   6.024   1.589   3.641
 9353TIP3    H228024   5.903   1.580   3.731
 9354TIP3   OH228025   0.891   1.256   0.234
 9354TIP3    H128026   0.930   1.219   0.155
 9354TIP3    H228027   0.966   1.275   0.291
 9355TIP3   OH228028   4.630   0.336   3.641
 9355TIP3    H128029   4.642   0.318   3.734
 9355TIP3    H228030   4.655   0.428   3.631
 9356TIP3   OH228031   3.436   6.313   5.705
 9356TIP3    H128032   3.389   6.300   5.623
 9356TIP3    H228033   3.518   6.354   5.679
 9357TIP3   OH228034   0.118   5.438   4.017
 9357TIP3    H128035   0.147   5.349   3.995
 9357TIP3    H228036   0.028   5.442   3.986
 9358TIP3   OH228037   1.998   2.017   5.019
 9358TIP3    H128038   1.941   1.966   5.078
 9358TIP3    H228039   2.082   1.972   5.023
 9359TIP3   OH228040   5.444   1.189   5.539
 9359TIP3    H128041   5.362   1.231   5.565
 9359TIP3    H228042   5.489   1.172   5.622
 9360TIP3   OH228043   2.799   1.466   3.233
 9360TIP3    H128044   2.814   1.383   3.277
 9360TIP3    H228045   2.886   1.498   3.209
 9361TIP3   OH228046   5.155   0.513   2.266
 9361TIP3    H128047   5.238   0.492   2.310
 9361TIP3    H228048   5.090   0.509   2.336
 9362TIP3   OH228049   0.245   3.250   1.273
 9362TIP3    H128050   0.263   3.197   1.351
 9362TIP3    H228051   0.238   3.340   1.306
 9363TIP3   OH228052   5.665   5.487   3.701
 9363TIP3    H128053   5.603   5.425   3.739
 9363TIP3    H228054   5.708   5.438   3.631
 9364TIP3   OH228055   5.860   5.484   3.055
 9364TIP3    H128056   5.885   5.403   3.011
 9364TIP3    H228057   5.943   5.522   3.085
 9365TIP3   OH228058   4.941   0.139   0.782
 9365TIP3    H128059   4.917   0.073   0.847
 9365TIP3    H228060   4.917   0.222   0.823
 9366TIP3   OH228061   4.875   0.170   1.855
 9366TIP3    H128062   4.970   0.167   1.861
 9366TIP3    H228063   4.849   0.081   1.832
 9367TIP3   OH228064   3.372   1.240   1.790
 9367TIP3    H128065   3.284   1.251   1.827
 9367TIP3    H228066   3.423   1.311   1.829
 9368TIP3   OH228067   6.222   5.107   0.580
 9368TIP3    H128068   6.307   5.073   0.609
 9368TIP3    H228069   6.213   5.190   0.627
 9369TIP3   OH228070   3.629   6.374   0.794
 9369TIP3    H128071   3.557   6.311   0.805
 9369TIP3    H228072   3.585   6.458   0.777
 9370TIP3   OH228073   0.374   1.626   0.295
 9370TIP3    H128074   0.435   1.639   0.367
 9370TIP3    H228075   0.326   1.546   0.319
 9371TIP3   OH228076   2.861   2.152   4.193
 9371TIP3    H128077   2.807   2.072   4.189
 9371TIP3    H228078   2.828   2.199   4.269
 9372TIP3   OH228079   5.756   5.386   0.635
 9372TIP3    H128080   5.688   5.383   0.568
 9372TIP3    H228081   5.714   5.352   0.714
 9373TIP3   OH228082   3.347   2.764   4.702
 9373TIP3    H128083   3.373   2.680   4.665
 9373TIP3    H228084   3.377   2.829   4.637
 9374TIP3   OH228085   4.625   6.110   2.314
 9374TIP3    H128086   4.671   6.078   2.237
 9374TIP3    H228087   4.615   6.033   2.370
 9375TIP3   OH228088   0.534   4.585   5.619
 9375TIP3    H128089   0.524   4.552   5.708
 9375TIP3    H228090   0.624   4.563   5.595
 9376TIP3   OH228091   6.223   0.349   4.722
 9376TIP3    H128092   6.300   0.321   4.672
 9376TIP3    H228093   6.215   0.442   4.705
 9377TIP3   OH228094   3.281   4.815   0.592
 9377TIP3    H128095   3.293   4.899   0.637
 9377TIP3    H228096   3.232   4.838   0.513
 9378TIP3   OH228097   6.199   6.034   1.832
 9378TIP3    H128098   6.210   6.058   1.924
 9378TIP3    H228099   6.229   6.111   1.784
 9379TIP3   OH228100   1.593   0.496   3.233
 9379TIP3    H128101   1.569   0.587   3.216
 9379TIP3    H228102   1.664   0.501   3.297
 9380TIP3   OH228103   6.743   5.097   1.955
 9380TIP3    H128104   6.755   5.011   1.915
 9380TIP3    H228105   6.756   5.159   1.883
 9381TIP3   OH228106   4.498   3.025   3.759
 9381TIP3    H128107   4.437   3.072   3.817
 9381TIP3    H228108   4.450   2.947   3.732
 9382TIP3   OH228109   3.439   1.969   4.408
 9382TIP3    H128110   3.491   2.042   4.372
 9382TIP3    H228111   3.385   2.010   4.475
 9383TIP3   OH228112   6.069   2.248   2.913
 9383TIP3    H128113   6.120   2.282   2.986
 9383TIP3    H228114   6.131   2.241   2.841
 9384TIP3   OH228115   1.877   6.643   4.285
 9384TIP3    H128116   1.832   6.568   4.324
 9384TIP3    H228117   1.874   6.710   4.353
 9385TIP3   OH228118   3.245   3.078   3.820
 9385TIP3    H128119   3.240   3.132   3.741
 9385TIP3    H228120   3.286   2.997   3.792
 9386TIP3   OH228121   2.943   1.512   3.960
 9386TIP3    H128122   2.890   1.441   3.998
 9386TIP3    H228123   3.025   1.469   3.934
 9387TIP3   OH228124   5.792   0.121   3.613
 9387TIP3    H128125   5.738   0.067   3.557
 9387TIP3    H228126   5.754   0.112   3.700
 9388TIP3   OH228127   5.929   6.797   1.906
 9388TIP3    H128128   5.927   6.702   1.918
 9388TIP3    H228129   5.979   6.811   1.826
 9389TIP3   OH228130   3.979   3.221   4.577
 9389TIP3    H128131   3.905   3.280   4.588
 9389TIP3    H228132   3.944   3.134   4.596
 9390TIP3   OH228133   5.982   3.786   2.310
 9390TIP3    H128134   5.890   3.795   2.284
 9390TIP3    H228135   6.019   3.873   2.298
 9391TIP3   OH228136   3.393   2.406   2.801
 9391TIP3    H128137   3.368   2.444   2.717
 9391TIP3    H228138   3.408   2.313   2.781
 9392TIP3   OH228139   0.099   4.083   3.604
 9392TIP3    H128140   0.084   4.101   3.697
 9392TIP3    H228141   0.114   4.169   3.565
 9393TIP3   OH228142   6.176   4.506   1.565
 9393TIP3    H128143   6.143   4.456   1.640
 9393TIP3    H228144   6.162   4.597   1.589
 9394TIP3   OH228145   0.806   2.937   2.371
 9394TIP3    H128146   0.899   2.934   2.392
 9394TIP3    H228147   0.779   2.845   2.370
 9395TIP3   OH228148   1.419   6.648   2.534
 9395TIP3    H128149   1.413   6.717   2.600
 9395TIP3    H228150   1.358   6.581   2.564
 9396TIP3   OH228151   6.385   6.466   5.371
 9396TIP3    H128152   6.293   6.441   5.382
 9396TIP3    H228153   6.414   6.488   5.460
 9397TIP3   OH228154   0.602   1.377   3.373
 9397TIP3    H128155   0.684   1.426   3.369
 9397TIP3    H228156   0.569   1.394   3.462
 9398TIP3   OH228157   2.365   0.978   5.022
 9398TIP3    H128158   2.406   0.981   4.935
 9398TIP3    H228159   2.324   0.892   5.027
 9399TIP3   OH228160   7.092   6.269   4.575
 9399TIP3    H128161   7.058   6.349   4.535
 9399TIP3    H228162   7.090   6.286   4.669
 9400TIP3   OH228163   0.206   6.734   4.572
 9400TIP3    H128164   0.257   6.667   4.526
 9400TIP3    H228165   0.147   6.685   4.629
 9401TIP3   OH228166   4.035   6.561   1.583
 9401TIP3    H128167   3.993   6.476   1.574
 9401TIP3    H228168   4.037   6.597   1.494
 9402TIP3   OH228169   2.529   1.643   4.022
 9402TIP3    H128170   2.579   1.634   3.941
 9402TIP3    H228171   2.438   1.648   3.993
 9403TIP3   OH228172   3.242   0.458   0.700
 9403TIP3    H128173   3.290   0.376   0.690
 9403TIP3    H228174   3.243   0.476   0.794
 9404TIP3   OH228175   0.832   4.895   2.812
 9404TIP3    H128176   0.926   4.915   2.815
 9404TIP3    H228177   0.791   4.977   2.783
 9405TIP3   OH228178   2.147   3.982   2.570
 9405TIP3    H128179   2.139   3.989   2.665
 9405TIP3    H228180   2.232   4.022   2.550
 9406TIP3   OH228181   3.103   1.525   5.062
 9406TIP3    H128182   3.102   1.457   4.995
 9406TIP3    H228183   3.016   1.523   5.100
 9407TIP3   OH228184   0.526   6.211   3.511
 9407TIP3    H128185   0.455   6.184   3.453
 9407TIP3    H228186   0.489   6.203   3.599
 9408TIP3   OH228187   3.107   0.236   5.270
 9408TIP3    H128188   3.068   0.178   5.205
 9408TIP3    H228189   3.037   0.299   5.291
 9409TIP3   OH228190   6.905   2.811   5.757
 9409TIP3    H128191   6.908   2.907   5.760
 9409TIP3    H228192   6.838   2.791   5.691
 9410TIP3   OH228193   1.563   3.913   2.005
 9410TIP3    H128194   1.564   3.829   2.051
 9410TIP3    H228195   1.620   3.900   1.930
 9411TIP3   OH228196   1.346   5.619   2.918
 9411TIP3    H128197   1.441   5.614   2.920
 9411TIP3    H228198   1.318   5.587   3.004
 9412TIP3   OH228199   1.862   2.967   5.445
 9412TIP3    H128200   1.867   2.978   5.540
 9412TIP3    H228201   1.771   2.942   5.429
 9413TIP3   OH228202   1.220   2.463   4.023
 9413TIP3    H128203   1.298   2.489   3.974
 9413TIP3    H228204   1.252   2.398   4.086
 9414TIP3   OH228205  -0.022   4.643   0.986
 9414TIP3    H128206   0.004   4.735   0.993
 9414TIP3    H228207  -0.110   4.646   0.949
 9415TIP3   OH228208   1.720   6.738   2.591
 9415TIP3    H128209   1.686   6.653   2.564
 9415TIP3    H228210   1.774   6.720   2.668
 9416TIP3   OH228211   1.628   3.123   1.068
 9416TIP3    H128212   1.587   3.054   1.016
 9416TIP3    H228213   1.596   3.109   1.157
 9417TIP3   OH228214   1.907   5.629   2.454
 9417TIP3    H128215   1.994   5.649   2.489
 9417TIP3    H228216   1.848   5.686   2.503
 9418TIP3   OH228217   1.183   4.377   4.455
 9418TIP3    H128218   1.231   4.459   4.448
 9418TIP3    H228219   1.251   4.310   4.462
 9419TIP3   OH228220   2.130   3.772   4.389
 9419TIP3    H128221   2.114   3.757   4.483
 9419TIP3    H228222   2.095   3.693   4.347
 9420TIP3   OH228223   0.585   2.708   5.144
 9420TIP3    H128224   0.574   2.662   5.061
 9420TIP3    H228225   0.644   2.781   5.124
 9421TIP3   OH228226   6.902   2.374   3.443
 9421TIP3    H128227   6.890   2.465   3.418
 9421TIP3    H228228   6.819   2.348   3.481
 9422TIP3   OH228229   2.782   3.678   3.703
 9422TIP3    H128230   2.709   3.619   3.686
 9422TIP3    H228231   2.756   3.726   3.781
 9423TIP3   OH228232   5.015   5.501   2.955
 9423TIP3    H128233   4.931   5.456   2.967
 9423TIP3    H228234   4.991   5.590   2.930
 9424TIP3   OH228235   5.450   5.750   2.926
 9424TIP3    H128236   5.400   5.799   2.860
 9424TIP3    H228237   5.485   5.675   2.878
 9425TIP3   OH228238   4.940   1.007   0.710
 9425TIP3    H128239   4.923   1.052   0.628
 9425TIP3    H228240   4.859   0.959   0.728
 9426TIP3   OH228241   4.125   3.724   1.273
 9426TIP3    H128242   4.153   3.791   1.336
 9426TIP3    H228243   4.030   3.721   1.281
 9427TIP3   OH228244   2.855   0.434   0.536
 9427TIP3    H128245   2.899   0.411   0.454
 9427TIP3    H228246   2.916   0.494   0.579
 9428TIP3   OH228247   4.115   3.147   1.740
 9428TIP3    H128248   4.026   3.180   1.752
 9428TIP3    H228249   4.169   3.226   1.729
 9429TIP3   OH228250   0.057   4.100   3.164
 9429TIP3    H128251   0.144   4.133   3.143
 9429TIP3    H228252   0.070   4.042   3.239
 9430TIP3   OH228253   4.906   4.794   4.262
 9430TIP3    H128254   4.917   4.785   4.168
 9430TIP3    H228255   4.880   4.707   4.292
 9431TIP3   OH228256   1.408   0.235   4.013
 9431TIP3    H128257   1.317   0.248   3.985
 9431TIP3    H228258   1.444   0.174   3.949
 9432TIP3   OH228259   4.601   3.293   3.366
 9432TIP3    H128260   4.594   3.374   3.415
 9432TIP3    H228261   4.654   3.236   3.421
 9433TIP3   OH228262   1.153   5.924   2.133
 9433TIP3    H128263   1.216   5.914   2.204
 9433TIP3    H228264   1.153   5.839   2.089
 9434TIP3   OH228265   7.177   5.789   4.836
 9434TIP3    H128266   7.126   5.867   4.857
 9434TIP3    H228267   7.257   5.824   4.797
 9435TIP3   OH228268   1.647   0.837   4.854
 9435TIP3    H128269   1.606   0.759   4.890
 9435TIP3    H228270   1.604   0.910   4.897
 9436TIP3   OH228271   3.703   0.581   0.063
 9436TIP3    H128272   3.731   0.492   0.043
 9436TIP3    H228273   3.771   0.637   0.025
 9437TIP3   OH228274   4.217   5.254   3.015
 9437TIP3    H128275   4.211   5.181   2.953
 9437TIP3    H228276   4.298   5.238   3.063
 9438TIP3   OH228277   4.661   1.723   2.633
 9438TIP3    H128278   4.694   1.640   2.599
 9438TIP3    H228279   4.612   1.699   2.712
 9439TIP3   OH228280   5.635   1.446   3.198
 9439TIP3    H128281   5.560   1.437   3.139
 9439TIP3    H228282   5.622   1.530   3.242
 9440TIP3   OH228283   1.288   1.672   3.411
 9440TIP3    H128284   1.275   1.750   3.357
 9440TIP3    H228285   1.346   1.701   3.482
 9441TIP3   OH228286   6.488   5.611   1.748
 9441TIP3    H128287   6.493   5.518   1.767
 9441TIP3    H228288   6.466   5.651   1.832
 9442TIP3   OH228289   4.161   3.480   5.410
 9442TIP3    H128290   4.223   3.540   5.366
 9442TIP3    H228291   4.174   3.396   5.365
 9443TIP3   OH228292   2.184   5.478   2.130
 9443TIP3    H128293   2.195   5.444   2.218
 9443TIP3    H228294   2.089   5.471   2.114
 9444TIP3   OH228295   2.403   3.118   5.339
 9444TIP3    H128296   2.322   3.068   5.350
 9444TIP3    H228297   2.469   3.052   5.318
 9445TIP3   OH228298   1.133   0.567   0.272
 9445TIP3    H128299   1.178   0.491   0.237
 9445TIP3    H228300   1.123   0.548   0.365
 9446TIP3   OH228301   6.129   2.353   2.046
 9446TIP3    H128302   6.168   2.427   2.000
 9446TIP3    H228303   6.144   2.371   2.139
 9447TIP3   OH228304   7.089   6.117   0.740
 9447TIP3    H128305   7.095   6.042   0.799
 9447TIP3    H228306   7.111   6.080   0.654
 9448TIP3   OH228307   3.281   5.778   5.326
 9448TIP3    H128308   3.221   5.750   5.257
 9448TIP3    H228309   3.299   5.870   5.306
 9449TIP3   OH228310   5.830   3.293   5.458
 9449TIP3    H128311   5.778   3.312   5.380
 9449TIP3    H228312   5.919   3.320   5.434
 9450TIP3   OH228313   4.072   6.206   0.317
 9450TIP3    H128314   4.045   6.296   0.297
 9450TIP3    H228315   3.990   6.162   0.340
 9451TIP3   OH228316   5.773   5.340   1.950
 9451TIP3    H128317   5.864   5.352   1.977
 9451TIP3    H228318   5.744   5.261   1.996
 9452TIP3   OH228319   7.010   6.324   0.567
 9452TIP3    H128320   6.985   6.388   0.501
 9452TIP3    H228321   6.978   6.361   0.650
 9453TIP3   OH228322   6.091   3.057   2.296
 9453TIP3    H128323   6.101   3.145   2.333
 9453TIP3    H228324   5.996   3.045   2.288
 9454TIP3   OH228325   3.010   5.510   4.349
 9454TIP3    H128326   3.019   5.457   4.429
 9454TIP3    H228327   3.002   5.445   4.279
 9455TIP3   OH228328   2.593   4.696   1.315
 9455TIP3    H128329   2.643   4.771   1.346
 9455TIP3    H228330   2.610   4.627   1.380
 9456TIP3   OH228331   2.753   0.028   4.775
 9456TIP3    H128332   2.710   0.018   4.690
 9456TIP3    H228333   2.705  -0.030   4.833
 9457TIP3   OH228334   6.146   1.130   2.175
 9457TIP3    H128335   6.167   1.082   2.095
 9457TIP3    H228336   6.199   1.209   2.170
 9458TIP3   OH228337   6.581   0.269   5.091
 9458TIP3    H128338   6.656   0.284   5.033
 9458TIP3    H228339   6.556   0.357   5.120
 9459TIP3   OH228340   5.152   5.579   3.860
 9459TIP3    H128341   5.140   5.580   3.955
 9459TIP3    H228342   5.203   5.500   3.843
 9460TIP3   OH228343   3.952   2.677   4.959
 9460TIP3    H128344   4.025   2.614   4.959
 9460TIP3    H228345   3.988   2.755   5.001
 9461TIP3   OH228346   6.245   6.622   1.563
 9461TIP3    H128347   6.314   6.673   1.604
 9461TIP3    H228348   6.262   6.532   1.590
 9462TIP3   OH228349   4.367   5.759   1.671
 9462TIP3    H128350   4.373   5.670   1.636
 9462TIP3    H228351   4.426   5.758   1.747
 9463TIP3   OH228352   1.866   3.087   4.782
 9463TIP3    H128353   1.953   3.054   4.806
 9463TIP3    H228354   1.873   3.107   4.689
 9464TIP3   OH228355   2.035   1.130   5.020
 9464TIP3    H128356   2.011   1.220   5.041
 9464TIP3    H228357   2.115   1.115   5.070
 9465TIP3   OH228358   6.003   2.832   3.138
 9465TIP3    H128359   5.982   2.832   3.045
 9465TIP3    H228360   6.004   2.925   3.162
 9466TIP3   OH228361   4.161   0.673   4.582
 9466TIP3    H128362   4.219   0.599   4.596
 9466TIP3    H228363   4.139   0.669   4.489
 9467TIP3   OH228364   1.196   4.082   4.585
 9467TIP3    H128365   1.289   4.105   4.576
 9467TIP3    H228366   1.168   4.064   4.495
 9468TIP3   OH228367   3.091   0.062   3.656
 9468TIP3    H128368   3.171   0.047   3.706
 9468TIP3    H228369   3.076  -0.021   3.611
 9469TIP3   OH228370   5.510   4.644   1.954
 9469TIP3    H128371   5.462   4.639   1.871
 9469TIP3    H228372   5.450   4.609   2.019
 9470TIP3   OH228373   4.839   3.310   2.810
 9470TIP3    H128374   4.832   3.378   2.744
 9470TIP3    H228375   4.748   3.289   2.833
 9471TIP3   OH228376   3.288   6.579   3.117
 9471TIP3    H128377   3.321   6.617   3.036
 9471TIP3    H228378   3.207   6.534   3.091
 9472TIP3   OH228379   1.808   5.341   5.401
 9472TIP3    H128380   1.896   5.323   5.366
 9472TIP3    H228381   1.760   5.260   5.384
 9473TIP3   OH228382   1.252   2.582   4.651
 9473TIP3    H128383   1.171   2.613   4.610
 9473TIP3    H228384   1.319   2.594   4.583
 9474TIP3   OH228385   6.755   6.407   5.754
 9474TIP3    H128386   6.725   6.320   5.779
 9474TIP3    H228387   6.850   6.404   5.762
 9475TIP3   OH228388   4.239   1.779   0.845
 9475TIP3    H128389   4.152   1.740   0.846
 9475TIP3    H228390   4.296   1.710   0.813
 9476TIP3   OH228391   1.286   1.706   5.170
 9476TIP3    H128392   1.277   1.754   5.252
 9476TIP3    H228393   1.275   1.614   5.194
 9477TIP3   OH228394   5.643   4.033   1.677
 9477TIP3    H128395   5.634   4.032   1.773
 9477TIP3    H228396   5.577   3.971   1.647
 9478TIP3   OH228397   2.494   4.581   4.556
 9478TIP3    H128398   2.477   4.616   4.644
 9478TIP3    H228399   2.417   4.607   4.505
 9479TIP3   OH228400   3.789   4.552   1.958
 9479TIP3    H128401   3.797   4.565   1.864
 9479TIP3    H228402   3.791   4.457   1.970
 9480TIP3   OH228403   6.323   0.840   5.745
 9480TIP3    H128404   6.339   0.854   5.652
 9480TIP3    H228405   6.410   0.851   5.786
 9481TIP3   OH228406   0.338   4.812   3.906
 9481TIP3    H128407   0.393   4.884   3.875
 9481TIP3    H228408   0.375   4.734   3.866
 9482TIP3   OH228409   5.214   3.841   1.041
 9482TIP3    H128410   5.213   3.926   1.083
 9482TIP3    H228411   5.124   3.809   1.048
 9483TIP3   OH228412   5.816   0.318   5.712
 9483TIP3    H128413   5.781   0.287   5.795
 9483TIP3    H228414   5.815   0.240   5.655
 9484TIP3   OH228415   4.126   0.588   0.434
 9484TIP3    H128416   4.116   0.493   0.440
 9484TIP3    H228417   4.192   0.601   0.365
 9485TIP3   OH228418   2.314   2.193   4.092
 9485TIP3    H128419   2.317   2.112   4.142
 9485TIP3    H228420   2.221   2.208   4.076
 9486TIP3   OH228421   5.725   0.037   1.724
 9486TIP3    H128422   5.739   0.130   1.707
 9486TIP3    H228423   5.630   0.028   1.731
 9487TIP3   OH228424   4.338   0.972   3.573
 9487TIP3    H128425   4.405   1.013   3.519
 9487TIP3    H228426   4.348   1.013   3.659
 9488TIP3   OH228427   1.565   3.728   1.270
 9488TIP3    H128428   1.487   3.782   1.260
 9488TIP3    H228429   1.595   3.745   1.359
 9489TIP3   OH228430   3.133   4.343   0.862
 9489TIP3    H128431   3.163   4.355   0.772
 9489TIP3    H228432   3.134   4.431   0.900
 9490TIP3   OH228433   0.110   4.714   1.871
 9490TIP3    H128434   0.153   4.634   1.841
 9490TIP3    H228435   0.057   4.742   1.796
 9491TIP3   OH228436   1.294   6.504   5.465
 9491TIP3    H128437   1.240   6.583   5.471
 9491TIP3    H228438   1.312   6.496   5.371
 9492TIP3   OH228439   3.355   0.962   4.786
 9492TIP3    H128440   3.339   1.049   4.823
 9492TIP3    H228441   3.450   0.950   4.793
 9493TIP3   OH228442   0.112   0.855   0.793
 9493TIP3    H128443   0.045   0.904   0.745
 9493TIP3    H228444   0.103   0.765   0.761
 9494TIP3   OH228445   1.075   2.257   2.503
 9494TIP3    H128446   1.147   2.220   2.451
 9494TIP3    H228447   1.027   2.312   2.441
 9495TIP3   OH228448   5.050   1.038   1.190
 9495TIP3    H128449   5.126   1.020   1.245
 9495TIP3    H228450   5.013   0.952   1.170
 9496TIP3   OH228451   0.392   6.622   3.156
 9496TIP3    H128452   0.413   6.662   3.072
 9496TIP3    H228453   0.429   6.683   3.221
 9497TIP3   OH228454   1.719   3.136   2.596
 9497TIP3    H128455   1.652   3.092   2.648
 9497TIP3    H228456   1.676   3.214   2.562
 9498TIP3   OH228457   3.858   0.293   4.990
 9498TIP3    H128458   3.781   0.343   5.017
 9498TIP3    H228459   3.930   0.356   4.992
 9499TIP3   OH228460   2.115   4.366   3.363
 9499TIP3    H128461   2.190   4.332   3.314
 9499TIP3    H228462   2.086   4.443   3.313
 9500TIP3   OH228463   1.722   6.709   2.179
 9500TIP3    H128464   1.723   6.804   2.194
 9500TIP3    H228465   1.716   6.700   2.084
 9501TIP3   OH228466   6.709   1.936   4.872
 9501TIP3    H128467   6.764   1.954   4.796
 9501TIP3    H228468   6.759   1.969   4.947
 9502TIP3   OH228469   1.076   4.475   1.755
 9502TIP3    H128470   1.153   4.518   1.792
 9502TIP3    H228471   1.110   4.414   1.690
 9503TIP3   OH228472   3.132   2.341   2.909
 9503TIP3    H128473   3.084   2.368   2.831
 9503TIP3    H228474   3.164   2.422   2.948
 9504TIP3   OH228475   0.628   3.610   0.644
 9504TIP3    H128476   0.590   3.524   0.625
 9504TIP3    H228477   0.649   3.646   0.558
 9505TIP3   OH228478   1.098   4.684   3.141
 9505TIP3    H128479   1.118   4.600   3.101
 9505TIP3    H228480   1.110   4.748   3.071
 9506TIP3   OH228481   7.027   2.156   5.162
 9506TIP3    H128482   7.093   2.125   5.100
 9506TIP3    H228483   7.067   2.233   5.203
 9507TIP3   OH228484   2.110   6.656   1.354
 9507TIP3    H128485   2.084   6.613   1.273
 9507TIP3    H228486   2.095   6.749   1.337
 9508TIP3   OH228487   5.778   4.640   2.560
 9508TIP3    H128488   5.862   4.605   2.531
 9508TIP3    H228489   5.739   4.570   2.611
 9509TIP3   OH228490   2.077   2.146   1.313
 9509TIP3    H128491   1.989   2.133   1.349
 9509TIP3    H228492   2.081   2.239   1.292
 9510TIP3   OH228493   2.756   0.249   3.767
 9510TIP3    H128494   2.687   0.309   3.797
 9510TIP3    H228495   2.732   0.228   3.677
 9511TIP3   OH228496   3.880   0.356   2.390
 9511TIP3    H128497   3.802   0.361   2.446
 9511TIP3    H228498   3.902   0.263   2.388
 9512TIP3   OH228499   3.125   3.622   1.357
 9512TIP3    H128500   3.220   3.612   1.352
 9512TIP3    H228501   3.093   3.534   1.373
 9513TIP3   OH228502   6.759   5.831   5.428
 9513TIP3    H128503   6.806   5.758   5.387
 9513TIP3    H228504   6.796   5.836   5.517
 9514TIP3   OH228505   1.252   3.053   4.766
 9514TIP3    H128506   1.173   3.000   4.772
 9514TIP3    H228507   1.305   3.025   4.841
 9515TIP3   OH228508   4.300   2.237   1.155
 9515TIP3    H128509   4.362   2.179   1.111
 9515TIP3    H228510   4.245   2.178   1.207
 9516TIP3   OH228511   2.919   0.534   1.088
 9516TIP3    H128512   2.934   0.448   1.049
 9516TIP3    H228513   2.901   0.591   1.014
 9517TIP3   OH228514   3.179   4.395   2.250
 9517TIP3    H128515   3.122   4.472   2.250
 9517TIP3    H228516   3.237   4.408   2.325
 9518TIP3   OH228517   1.999   0.103   3.488
 9518TIP3    H128518   2.017   0.029   3.431
 9518TIP3    H228519   1.916   0.081   3.530
 9519TIP3   OH228520   4.029   1.330   1.517
 9519TIP3    H128521   3.957   1.279   1.481
 9519TIP3    H228522   4.058   1.280   1.593
 9520TIP3   OH228523   5.394   0.295   5.636
 9520TIP3    H128524   5.440   0.341   5.705
 9520TIP3    H228525   5.370   0.211   5.675
 9521TIP3   OH228526   7.170   0.126   3.022
 9521TIP3    H128527   7.127   0.194   3.074
 9521TIP3    H228528   7.238   0.091   3.079
 9522TIP3   OH228529   0.811   1.346   4.848
 9522TIP3    H128530   0.794   1.427   4.800
 9522TIP3    H228531   0.754   1.351   4.925
 9523TIP3   OH228532   3.686   0.763   1.887
 9523TIP3    H128533   3.732   0.742   1.805
 9523TIP3    H228534   3.722   0.700   1.950
 9524TIP3   OH228535   4.196   5.750   1.111
 9524TIP3    H128536   4.228   5.839   1.094
 9524TIP3    H228537   4.141   5.730   1.035
 9525TIP3   OH228538   0.850   0.891   1.149
 9525TIP3    H128539   0.811   0.831   1.212
 9525TIP3    H228540   0.828   0.978   1.181
 9526TIP3   OH228541   3.258   6.037   5.223
 9526TIP3    H128542   3.299   6.062   5.140
 9526TIP3    H228543   3.165   6.028   5.202
 9527TIP3   OH228544   4.291   2.763   2.487
 9527TIP3    H128545   4.350   2.744   2.414
 9527TIP3    H228546   4.348   2.795   2.557
 9528TIP3   OH228547   4.699   5.744   5.721
 9528TIP3    H128548   4.640   5.708   5.787
 9528TIP3    H228549   4.641   5.789   5.659
 9529TIP3   OH228550   1.457   1.050   1.086
 9529TIP3    H128551   1.537   1.095   1.062
 9529TIP3    H228552   1.479   0.957   1.081
 9530TIP3   OH228553   2.943   0.675   3.320
 9530TIP3    H128554   2.884   0.606   3.290
 9530TIP3    H228555   2.987   0.705   3.240
 9531TIP3   OH228556   3.157   5.607   2.967
 9531TIP3    H128557   3.205   5.593   2.886
 9531TIP3    H228558   3.100   5.682   2.949
 9532TIP3   OH228559   3.768   4.612   0.452
 9532TIP3    H128560   3.808   4.690   0.491
 9532TIP3    H228561   3.841   4.553   0.435
 9533TIP3   OH228562   6.239   1.670   0.176
 9533TIP3    H128563   6.304   1.698   0.240
 9533TIP3    H228564   6.184   1.608   0.223
 9534TIP3   OH228565   1.820   6.288   1.783
 9534TIP3    H128566   1.776   6.372   1.771
 9534TIP3    H228567   1.911   6.311   1.799
 9535TIP3   OH228568   3.524   3.799   5.039
 9535TIP3    H128569   3.525   3.710   5.076
 9535TIP3    H228570   3.602   3.840   5.077
 9536TIP3   OH228571   5.339   3.473   1.100
 9536TIP3    H128572   5.264   3.488   1.157
 9536TIP3    H228573   5.414   3.506   1.149
 9537TIP3   OH228574   1.953   6.749   1.876
 9537TIP3    H128575   1.941   6.837   1.842
 9537TIP3    H228576   1.866   6.710   1.872
 9538TIP3   OH228577   4.290   0.783   2.278
 9538TIP3    H128578   4.256   0.835   2.205
 9538TIP3    H228579   4.295   0.694   2.245
 9539TIP3   OH228580   1.675   1.660   4.501
 9539TIP3    H128581   1.709   1.745   4.527
 9539TIP3    H228582   1.715   1.598   4.562
 9540TIP3   OH228583   0.826   4.612   2.789
 9540TIP3    H128584   0.848   4.702   2.814
 9540TIP3    H228585   0.801   4.570   2.872
 9541TIP3   OH228586   3.223   0.712   1.137
 9541TIP3    H128587   3.133   0.734   1.159
 9541TIP3    H228588   3.267   0.797   1.128
 9542TIP3   OH228589   5.196   2.976   4.944
 9542TIP3    H128590   5.214   2.907   5.009
 9542TIP3    H228591   5.173   2.928   4.864
 9543TIP3   OH228592   1.515   3.974   4.280
 9543TIP3    H128593   1.581   3.914   4.314
 9543TIP3    H228594   1.517   4.048   4.341
 9544TIP3   OH228595   3.599   3.131   5.032
 9544TIP3    H128596   3.672   3.187   5.007
 9544TIP3    H228597   3.619   3.046   4.993
 9545TIP3   OH228598   6.510   0.753   3.069
 9545TIP3    H128599   6.445   0.786   3.006
 9545TIP3    H228600   6.541   0.672   3.029
 9546TIP3   OH228601   1.855   5.969   5.652
 9546TIP3    H128602   1.883   6.061   5.655
 9546TIP3    H228603   1.924   5.922   5.699
 9547TIP3   OH228604   7.155   1.740   1.228
 9547TIP3    H128605   7.244   1.741   1.261
 9547TIP3    H228606   7.152   1.664   1.169
 9548TIP3   OH228607   6.554   3.693   5.140
 9548TIP3    H128608   6.475   3.649   5.172
 9548TIP3    H228609   6.549   3.686   5.045
 9549TIP3   OH228610   5.847   3.682   1.265
 9549TIP3    H128611   5.861   3.645   1.352
 9549TIP3    H228612   5.856   3.607   1.206
 9550TIP3   OH228613   0.472   5.924   0.491
 9550TIP3    H128614   0.484   5.860   0.421
 9550TIP3    H228615   0.556   5.970   0.496
 9551TIP3   OH228616   5.791   2.193   4.631
 9551TIP3    H128617   5.870   2.141   4.617
 9551TIP3    H228618   5.751   2.155   4.709
 9552TIP3   OH228619   1.480   0.233   5.544
 9552TIP3    H128620   1.499   0.243   5.637
 9552TIP3    H228621   1.511   0.145   5.523
 9553TIP3   OH228622   1.258   3.795   0.762
 9553TIP3    H128623   1.218   3.815   0.678
 9553TIP3    H228624   1.278   3.701   0.758
 9554TIP3   OH228625   4.145   1.005   4.468
 9554TIP3    H128626   4.156   1.099   4.454
 9554TIP3    H228627   4.197   0.964   4.399
 9555TIP3   OH228628  -0.092   4.795   5.082
 9555TIP3    H128629  -0.036   4.872   5.071
 9555TIP3    H228630  -0.060   4.753   5.161
 9556TIP3   OH228631   3.943   1.044   4.010
 9556TIP3    H128632   3.887   0.969   4.031
 9556TIP3    H228633   3.976   1.073   4.096
 9557TIP3   OH228634   3.908   1.089   4.304
 9557TIP3    H128635   3.938   1.007   4.343
 9557TIP3    H228636   3.822   1.104   4.343
 9558TIP3   OH228637   3.251   4.060   1.788
 9558TIP3    H128638   3.192   4.015   1.727
 9558TIP3    H228639   3.273   3.994   1.854
 9559TIP3   OH228640   2.539   4.862   2.326
 9559TIP3    H128641   2.477   4.798   2.362
 9559TIP3    H228642   2.496   4.947   2.340
 9560TIP3   OH228643   1.589   0.848   0.615
 9560TIP3    H128644   1.560   0.850   0.524
 9560TIP3    H228645   1.515   0.811   0.663
 9561TIP3   OH228646   0.099   4.910   3.775
 9561TIP3    H128647   0.179   4.858   3.780
 9561TIP3    H228648   0.046   4.881   3.849
 9562TIP3   OH228649   5.500   1.854   4.768
 9562TIP3    H128650   5.454   1.855   4.851
 9562TIP3    H228651   5.499   1.945   4.738
 9563TIP3   OH228652   1.508   6.385   3.841
 9563TIP3    H128653   1.580   6.327   3.867
 9563TIP3    H228654   1.455   6.333   3.781
 9564TIP3   OH228655   3.790   4.805   5.192
 9564TIP3    H128656   3.827   4.825   5.106
 9564TIP3    H228657   3.791   4.709   5.196
 9565TIP3   OH228658   4.199   2.654   5.243
 9565TIP3    H128659   4.226   2.701   5.164
 9565TIP3    H228660   4.154   2.720   5.296
 9566TIP3   OH228661   1.952   2.148   4.386
 9566TIP3    H128662   1.973   2.074   4.442
 9566TIP3    H228663   1.879   2.192   4.429
 9567TIP3   OH228664   3.882   6.779   5.721
 9567TIP3    H128665   3.929   6.854   5.684
 9567TIP3    H228666   3.874   6.717   5.649
 9568TIP3   OH228667   0.945   0.644   3.779
 9568TIP3    H128668   0.944   0.717   3.841
 9568TIP3    H228669   0.852   0.629   3.759
 9569TIP3   OH228670   0.578   3.254   1.441
 9569TIP3    H128671   0.569   3.344   1.411
 9569TIP3    H228672   0.618   3.261   1.528
 9570TIP3   OH228673   6.360   3.692   1.774
 9570TIP3    H128674   6.292   3.749   1.809
 9570TIP3    H228675   6.323   3.656   1.693
 9571TIP3   OH228676   5.640   3.871   1.929
 9571TIP3    H128677   5.607   3.786   1.900
 9571TIP3    H228678   5.690   3.852   2.008
 9572TIP3   OH228679   2.907   6.061   1.696
 9572TIP3    H128680   2.962   6.094   1.767
 9572TIP3    H228681   2.918   5.966   1.699
 9573TIP3   OH228682   2.899   6.097   0.127
 9573TIP3    H128683   2.980   6.148   0.133
 9573TIP3    H228684   2.929   6.006   0.131
 9574TIP3   OH228685   6.453   2.029   4.018
 9574TIP3    H128686   6.433   2.111   4.062
 9574TIP3    H228687   6.465   2.053   3.926
 9575TIP3   OH228688   6.909   1.715   5.205
 9575TIP3    H128689   6.862   1.794   5.181
 9575TIP3    H228690   6.994   1.723   5.160
 9576TIP3   OH228691   4.609   3.277   0.916
 9576TIP3    H128692   4.525   3.264   0.959
 9576TIP3    H228693   4.592   3.342   0.848
 9577TIP3   OH228694   3.273   5.806   0.612
 9577TIP3    H128695   3.279   5.711   0.606
 9577TIP3    H228696   3.289   5.825   0.705
 9578TIP3   OH228697   3.244   4.602   0.997
 9578TIP3    H128698   3.155   4.634   1.010
 9578TIP3    H228699   3.276   4.583   1.085
 9579TIP3   OH228700   0.651   5.618   2.019
 9579TIP3    H128701   0.720   5.553   2.016
 9579TIP3    H228702   0.586   5.581   2.079
 9580TIP3   OH228703   2.962   3.447   3.789
 9580TIP3    H128704   2.915   3.524   3.821
 9580TIP3    H228705   2.923   3.427   3.704
 9581TIP3   OH228706   3.876   4.356   3.930
 9581TIP3    H128707   3.919   4.402   3.858
 9581TIP3    H228708   3.878   4.264   3.905
 9582TIP3   OH228709   7.005   5.080   4.100
 9582TIP3    H128710   7.092   5.113   4.118
 9582TIP3    H228711   7.020   5.004   4.043
 9583TIP3   OH228712   1.268   3.043   4.307
 9583TIP3    H128713   1.335   3.106   4.335
 9583TIP3    H228714   1.306   2.958   4.329
 9584TIP3   OH228715   0.995   0.762   2.857
 9584TIP3    H128716   0.910   0.740   2.819
 9584TIP3    H228717   1.027   0.835   2.804
 9585TIP3   OH228718   4.332   3.007   1.860
 9585TIP3    H128719   4.247   3.046   1.838
 9585TIP3    H228720   4.395   3.054   1.806
 9586TIP3   OH228721   5.494   4.696   2.935
 9586TIP3    H128722   5.475   4.604   2.916
 9586TIP3    H228723   5.521   4.733   2.850
 9587TIP3   OH228724   4.128   0.256   0.968
 9587TIP3    H128725   4.217   0.247   1.003
 9587TIP3    H228726   4.108   0.170   0.931
 9588TIP3   OH228727   5.609   6.575   3.116
 9588TIP3    H128728   5.589   6.663   3.082
 9588TIP3    H228729   5.626   6.589   3.209
 9589TIP3   OH228730   2.842   2.330   2.628
 9589TIP3    H128731   2.846   2.306   2.721
 9589TIP3    H228732   2.904   2.402   2.619
 9590TIP3   OH228733   6.612   2.256   5.523
 9590TIP3    H128734   6.590   2.208   5.603
 9590TIP3    H228735   6.580   2.345   5.538
 9591TIP3   OH228736   3.959   3.742   2.644
 9591TIP3    H128737   3.985   3.770   2.732
 9591TIP3    H228738   3.878   3.790   2.626
 9592TIP3   OH228739   6.022   2.110   1.351
 9592TIP3    H128740   6.020   2.104   1.447
 9592TIP3    H228741   6.029   2.019   1.322
 9593TIP3   OH228742   3.143   5.595   3.890
 9593TIP3    H128743   3.201   5.602   3.966
 9593TIP3    H228744   3.139   5.684   3.855
 9594TIP3   OH228745   5.291   2.980   3.773
 9594TIP3    H128746   5.386   2.988   3.764
 9594TIP3    H228747   5.273   3.013   3.862
 9595TIP3   OH228748   1.365   2.194   1.982
 9595TIP3    H128749   1.457   2.180   1.960
 9595TIP3    H228750   1.335   2.111   2.018
 9596TIP3   OH228751   6.647   0.391   0.538
 9596TIP3    H128752   6.729   0.352   0.510
 9596TIP3    H228753   6.662   0.418   0.629
 9597TIP3   OH228754   3.969   2.741   0.600
 9597TIP3    H128755   4.037   2.766   0.536
 9597TIP3    H228756   3.940   2.824   0.638
 9598TIP3   OH228757   5.368   2.304   1.866
 9598TIP3    H128758   5.427   2.373   1.896
 9598TIP3    H228759   5.287   2.349   1.845
 9599TIP3   OH228760   1.122   5.371   1.128
 9599TIP3    H128761   1.113   5.335   1.217
 9599TIP3    H228762   1.150   5.461   1.141
 9600TIP3   OH228763   0.424   5.037   0.230
 9600TIP3    H128764   0.448   5.125   0.204
 9600TIP3    H228765   0.427   5.038   0.325
 9601TIP3   OH228766   3.910   2.980   4.684
 9601TIP3    H128767   3.985   3.017   4.729
 9601TIP3    H228768   3.928   2.887   4.679
 9602TIP3   OH228769   3.000   5.373   3.821
 9602TIP3    H128770   3.015   5.467   3.831
 9602TIP3    H228771   2.982   5.363   3.727
 9603TIP3   OH228772   4.976   1.726   0.548
 9603TIP3    H128773   4.995   1.661   0.616
 9603TIP3    H228774   4.891   1.700   0.513
 9604TIP3   OH228775   5.724   2.198   3.123
 9604TIP3    H128776   5.637   2.235   3.138
 9604TIP3    H228777   5.782   2.274   3.115
 9605TIP3   OH228778   0.430   6.624   4.166
 9605TIP3    H128779   0.487   6.569   4.113
 9605TIP3    H228780   0.474   6.709   4.169
 9606TIP3   OH228781   6.502   2.879   2.864
 9606TIP3    H128782   6.566   2.814   2.892
 9606TIP3    H228783   6.529   2.903   2.775
 9607TIP3   OH228784   5.901   0.420   0.923
 9607TIP3    H128785   5.971   0.431   0.858
 9607TIP3    H228786   5.894   0.506   0.965
 9608TIP3   OH228787   0.849   5.030   5.371
 9608TIP3    H128788   0.790   5.103   5.389
 9608TIP3    H228789   0.936   5.064   5.393
 9609TIP3   OH228790   7.217   1.150   0.059
 9609TIP3    H128791   7.138   1.204   0.064
 9609TIP3    H228792   7.207   1.102  -0.024
 9610TIP3   OH228793   2.469   1.455   2.677
 9610TIP3    H128794   2.546   1.418   2.720
 9610TIP3    H228795   2.442   1.388   2.613
 9611TIP3   OH228796   2.424   5.925   5.348
 9611TIP3    H128797   2.394   5.835   5.351
 9611TIP3    H228798   2.515   5.920   5.320
 9612TIP3   OH228799   6.954   0.917   4.698
 9612TIP3    H128800   7.007   0.975   4.644
 9612TIP3    H228801   6.894   0.874   4.637
 9613TIP3   OH228802   2.394   2.348   1.189
 9613TIP3    H128803   2.472   2.388   1.229
 9613TIP3    H228804   2.324   2.363   1.253
 9614TIP3   OH228805   5.476   4.387   1.136
 9614TIP3    H128806   5.552   4.329   1.143
 9614TIP3    H228807   5.404   4.335   1.173
 9615TIP3   OH228808   5.551   5.692   2.253
 9615TIP3    H128809   5.521   5.710   2.164
 9615TIP3    H228810   5.496   5.618   2.282
 9616TIP3   OH228811   6.163   5.435   1.802
 9616TIP3    H128812   6.251   5.405   1.824
 9616TIP3    H228813   6.106   5.387   1.862
 9617TIP3   OH228814   2.008   5.426   4.646
 9617TIP3    H128815   2.053   5.504   4.677
 9617TIP3    H228816   1.932   5.417   4.704
 9618TIP3   OH228817   0.736   6.029   4.567
 9618TIP3    H128818   0.715   6.020   4.475
 9618TIP3    H228819   0.659   5.997   4.613
 9619TIP3   OH228820   1.546   2.489   1.732
 9619TIP3    H128821   1.524   2.501   1.824
 9619TIP3    H228822   1.469   2.521   1.685
 9620TIP3   OH228823   3.574   1.843   0.196
 9620TIP3    H128824   3.620   1.922   0.169
 9620TIP3    H228825   3.565   1.792   0.115
 9621TIP3   OH228826   5.055   2.556   0.142
 9621TIP3    H128827   5.062   2.586   0.232
 9621TIP3    H228828   5.109   2.477   0.138
 9622TIP3   OH228829   6.531   1.007   4.579
 9622TIP3    H128830   6.568   0.919   4.569
 9622TIP3    H228831   6.436   0.991   4.587
 9623TIP3   OH228832   2.239   0.285   3.367
 9623TIP3    H128833   2.180   0.278   3.442
 9623TIP3    H228834   2.184   0.315   3.295
 9624TIP3   OH228835   3.672   4.040   4.155
 9624TIP3    H128836   3.618   4.047   4.234
 9624TIP3    H228837   3.679   4.130   4.124
 9625TIP3   OH228838   0.850   6.808   4.072
 9625TIP3    H128839   0.829   6.715   4.069
 9625TIP3    H228840   0.946   6.811   4.077
 9626TIP3   OH228841   6.713   4.512   5.372
 9626TIP3    H128842   6.678   4.476   5.453
 9626TIP3    H228843   6.674   4.459   5.303
 9627TIP3   OH228844   2.563   0.163   2.363
 9627TIP3    H128845   2.631   0.185   2.299
 9627TIP3    H228846   2.605   0.101   2.422
 9628TIP3   OH228847   1.724   4.441   3.254
 9628TIP3    H128848   1.736   4.511   3.318
 9628TIP3    H228849   1.630   4.440   3.238
 9629TIP3   OH228850   1.746   1.967   5.157
 9629TIP3    H128851   1.715   1.993   5.071
 9629TIP3    H228852   1.682   1.903   5.188
 9630TIP3   OH228853   6.168   5.892   5.408
 9630TIP3    H128854   6.116   5.835   5.464
 9630TIP3    H228855   6.237   5.836   5.374
 9631TIP3   OH228856   2.015   6.645   3.687
 9631TIP3    H128857   2.063   6.562   3.686
 9631TIP3    H228858   2.004   6.668   3.595
 9632TIP3   OH228859   6.973   1.229   1.508
 9632TIP3    H128860   7.019   1.312   1.517
 9632TIP3    H228861   6.884   1.253   1.481
 9633TIP3   OH228862   2.202   3.661   0.760
 9633TIP3    H128863   2.196   3.752   0.790
 9633TIP3    H228864   2.212   3.669   0.665
 9634TIP3   OH228865   1.980   0.912   0.926
 9634TIP3    H128866   1.955   0.989   0.978
 9634TIP3    H228867   2.042   0.865   0.981
 9635TIP3   OH228868   4.394   1.346   2.592
 9635TIP3    H128869   4.433   1.392   2.517
 9635TIP3    H228870   4.444   1.264   2.598
 9636TIP3   OH228871   7.142   2.768   5.606
 9636TIP3    H128872   7.228   2.755   5.646
 9636TIP3    H228873   7.090   2.809   5.675
 9637TIP3   OH228874   1.646   1.244   4.471
 9637TIP3    H128875   1.717   1.263   4.409
 9637TIP3    H228876   1.602   1.329   4.482
 9638TIP3   OH228877   6.481   5.001   1.267
 9638TIP3    H128878   6.470   5.027   1.176
 9638TIP3    H228879   6.546   5.062   1.302
 9639TIP3   OH228880   2.182   3.376   3.710
 9639TIP3    H128881   2.151   3.431   3.638
 9639TIP3    H228882   2.228   3.304   3.667
 9640TIP3   OH228883   1.532   1.055   3.791
 9640TIP3    H128884   1.487   1.069   3.875
 9640TIP3    H228885   1.509   1.132   3.739
 9641TIP3   OH228886   5.568   2.976   3.797
 9641TIP3    H128887   5.623   3.026   3.736
 9641TIP3    H228888   5.575   2.885   3.767
 9642TIP3   OH228889   6.422   3.552   3.634
 9642TIP3    H128890   6.462   3.610   3.569
 9642TIP3    H228891   6.491   3.488   3.653
 9643TIP3   OH228892   6.105   4.493   0.949
 9643TIP3    H128893   6.025   4.445   0.926
 9643TIP3    H228894   6.174   4.427   0.942
 9644TIP3   OH228895   0.398   3.198   5.658
 9644TIP3    H128896   0.483   3.156   5.663
 9644TIP3    H228897   0.357   3.162   5.580
 9645TIP3   OH228898   4.182   3.766   1.602
 9645TIP3    H128899   4.098   3.802   1.630
 9645TIP3    H228900   4.239   3.841   1.591
 9646TIP3   OH228901   3.155   5.573   4.944
 9646TIP3    H128902   3.106   5.645   4.906
 9646TIP3    H228903   3.245   5.605   4.950
 9647TIP3   OH228904   5.440   1.116   1.778
 9647TIP3    H128905   5.478   1.064   1.707
 9647TIP3    H228906   5.422   1.201   1.738
 9648TIP3   OH228907   0.202   2.190   2.851
 9648TIP3    H128908   0.209   2.236   2.767
 9648TIP3    H228909   0.202   2.259   2.917
 9649TIP3   OH228910   4.096   2.643   3.846
 9649TIP3    H128911   4.099   2.720   3.789
 9649TIP3    H228912   4.079   2.679   3.933
 9650TIP3   OH228913   5.830   3.228   2.465
 9650TIP3    H128914   5.850   3.254   2.554
 9650TIP3    H228915   5.800   3.309   2.423
 9651TIP3   OH228916   4.121   4.203   3.409
 9651TIP3    H128917   4.138   4.297   3.400
 9651TIP3    H228918   4.208   4.163   3.412
 9652TIP3   OH228919   5.418   3.633   3.425
 9652TIP3    H128920   5.485   3.567   3.444
 9652TIP3    H228921   5.374   3.648   3.509
 9653TIP3   OH228922   2.832   5.979   2.258
 9653TIP3    H128923   2.803   6.065   2.228
 9653TIP3    H228924   2.844   5.929   2.178
 9654TIP3   OH228925   4.916   3.078   2.563
 9654TIP3    H128926   4.867   3.009   2.518
 9654TIP3    H228927   4.860   3.155   2.557
 9655TIP3   OH228928   3.587   4.237   2.760
 9655TIP3    H128929   3.589   4.298   2.687
 9655TIP3    H228930   3.567   4.291   2.836
 9656TIP3   OH228931   1.122   0.152   3.197
 9656TIP3    H128932   1.035   0.151   3.237
 9656TIP3    H228933   1.171   0.218   3.246
 9657TIP3   OH228934   3.899   6.661   4.220
 9657TIP3    H128935   3.956   6.731   4.251
 9657TIP3    H228936   3.935   6.582   4.260
 9658TIP3   OH228937   5.508   4.244   5.620
 9658TIP3    H128938   5.491   4.202   5.704
 9658TIP3    H228939   5.562   4.320   5.641
 9659TIP3   OH228940   1.934   0.856   5.029
 9659TIP3    H128941   1.934   0.949   5.053
 9659TIP3    H228942   1.963   0.855   4.938
 9660TIP3   OH228943   0.099   0.764   1.485
 9660TIP3    H128944   0.135   0.788   1.570
 9660TIP3    H228945   0.144   0.682   1.463
 9661TIP3   OH228946   7.189   1.726   5.042
 9661TIP3    H128947   7.194   1.633   5.021
 9661TIP3    H228948   7.280   1.756   5.040
 9662TIP3   OH228949   3.819   3.234   5.313
 9662TIP3    H128950   3.760   3.308   5.295
 9662TIP3    H228951   3.851   3.207   5.227
 9663TIP3   OH228952   0.375   2.336   0.326
 9663TIP3    H128953   0.395   2.259   0.378
 9663TIP3    H228954   0.402   2.410   0.381
 9664TIP3   OH228955   7.081   6.365   4.841
 9664TIP3    H128956   7.132   6.357   4.922
 9664TIP3    H228957   7.014   6.429   4.863
 9665TIP3   OH228958   5.351   3.538   5.244
 9665TIP3    H128959   5.283   3.478   5.214
 9665TIP3    H228960   5.343   3.615   5.188
 9666TIP3   OH228961   6.785   2.836   3.050
 9666TIP3    H128962   6.754   2.919   3.015
 9666TIP3    H228963   6.707   2.795   3.088
 9667TIP3   OH228964   3.104   4.698   0.224
 9667TIP3    H128965   3.109   4.623   0.283
 9667TIP3    H228966   3.011   4.719   0.220
 9668TIP3   OH228967   3.046   3.881   1.651
 9668TIP3    H128968   2.994   3.806   1.678
 9668TIP3    H228969   2.997   3.957   1.683
 9669TIP3   OH228970   2.291   6.131   5.238
 9669TIP3    H128971   2.350   6.068   5.279
 9669TIP3    H228972   2.214   6.080   5.212
 9670TIP3   OH228973   3.997   0.261   3.448
 9670TIP3    H128974   4.064   0.215   3.398
 9670TIP3    H228975   3.915   0.218   3.425
 9671TIP3   OH228976   2.021   0.238   2.048
 9671TIP3    H128977   2.023   0.183   2.126
 9671TIP3    H228978   1.936   0.281   2.050
 9672TIP3   OH228979   3.077   2.879   3.521
 9672TIP3    H128980   3.079   2.785   3.541
 9672TIP3    H228981   3.169   2.903   3.510
 9673TIP3   OH228982   6.306   4.783   3.373
 9673TIP3    H128983   6.241   4.752   3.436
 9673TIP3    H228984   6.278   4.746   3.290
 9674TIP3   OH228985   0.408   0.340   5.335
 9674TIP3    H128986   0.382   0.287   5.260
 9674TIP3    H228987   0.368   0.425   5.319
 9675TIP3   OH228988   4.436   0.502   0.822
 9675TIP3    H128989   4.530   0.516   0.838
 9675TIP3    H228990   4.432   0.466   0.733
 9676TIP3   OH228991   1.646   4.979   0.660
 9676TIP3    H128992   1.583   4.943   0.723
 9676TIP3    H228993   1.609   4.958   0.575
 9677TIP3   OH228994   6.390   1.109   0.361
 9677TIP3    H128995   6.394   1.198   0.397
 9677TIP3    H228996   6.468   1.102   0.306
 9678TIP3   OH228997   5.931   4.670   5.251
 9678TIP3    H128998   5.864   4.685   5.318
 9678TIP3    H228999   5.948   4.757   5.215
 9679TIP3   OH229000   0.201   5.404   5.648
 9679TIP3    H129001   0.241   5.484   5.615
 9679TIP3    H229002   0.116   5.400   5.604
 9680TIP3   OH229003   0.309   1.910   3.349
 9680TIP3    H129004   0.275   1.929   3.262
 9680TIP3    H229005   0.334   1.818   3.346
 9681TIP3   OH229006   2.862   2.455   3.769
 9681TIP3    H129007   2.867   2.380   3.828
 9681TIP3    H229008   2.856   2.417   3.682
 9682TIP3   OH229009   4.505   1.138   1.729
 9682TIP3    H129010   4.431   1.163   1.673
 9682TIP3    H229011   4.500   1.043   1.733
 9683TIP3   OH229012   2.781   3.125   4.660
 9683TIP3    H129013   2.719   3.090   4.597
 9683TIP3    H229014   2.791   3.217   4.636
 9684TIP3   OH229015   2.230   5.567   0.233
 9684TIP3    H129016   2.150   5.602   0.196
 9684TIP3    H229017   2.294   5.638   0.224
 9685TIP3   OH229018   5.667   3.456   4.292
 9685TIP3    H129019   5.628   3.541   4.271
 9685TIP3    H229020   5.602   3.392   4.263
 9686TIP3   OH229021   5.799   1.580   0.446
 9686TIP3    H129022   5.845   1.496   0.445
 9686TIP3    H229023   5.754   1.582   0.530
 9687TIP3   OH229024   4.951   2.436   4.264
 9687TIP3    H129025   5.034   2.468   4.298
 9687TIP3    H229026   4.906   2.400   4.340
 9688TIP3   OH229027   2.970   3.310   5.768
 9688TIP3    H129028   2.924   3.371   5.826
 9688TIP3    H229029   2.990   3.235   5.824
 9689TIP3   OH229030   1.517   1.343   1.677
 9689TIP3    H129031   1.565   1.414   1.719
 9689TIP3    H229032   1.426   1.373   1.675
 9690TIP3   OH229033   1.989   5.868   1.467
 9690TIP3    H129034   1.910   5.833   1.425
 9690TIP3    H229035   1.979   5.963   1.462
 9691TIP3   OH229036   5.517   4.506   4.836
 9691TIP3    H129037   5.445   4.481   4.896
 9691TIP3    H229038   5.564   4.574   4.884
 9692TIP3   OH229039   2.782   0.770   2.138
 9692TIP3    H129040   2.864   0.747   2.094
 9692TIP3    H229041   2.808   0.792   2.228
 9693TIP3   OH229042   7.121   5.918   0.226
 9693TIP3    H129043   7.061   5.920   0.301
 9693TIP3    H229044   7.175   5.996   0.236
 9694TIP3   OH229045   4.932   1.287   4.528
 9694TIP3    H129046   4.861   1.349   4.513
 9694TIP3    H229047   4.890   1.201   4.521
 9695TIP3   OH229048   1.164   0.756   5.873
 9695TIP3    H129049   1.096   0.785   5.813
 9695TIP3    H229050   1.206   0.837   5.903
 9696TIP3   OH229051   3.087   6.344   0.783
 9696TIP3    H129052   3.053   6.402   0.715
 9696TIP3    H229053   3.145   6.283   0.736
 9697TIP3   OH229054   2.180   5.944   2.095
 9697TIP3    H129055   2.206   6.024   2.048
 9697TIP3    H229056   2.086   5.935   2.075
 9698TIP3   OH229057   2.939   5.252   5.432
 9698TIP3    H129058   2.978   5.185   5.488
 9698TIP3    H229059   3.000   5.326   5.436
 9699TIP3   OH229060   7.077   2.681   2.478
 9699TIP3    H129061   7.023   2.690   2.399
 9699TIP3    H229062   7.165   2.664   2.445
 9700TIP3   OH229063   1.787   5.250   3.639
 9700TIP3    H129064   1.770   5.165   3.680
 9700TIP3    H229065   1.755   5.313   3.703
 9701TIP3   OH229066   0.672   1.562   3.982
 9701TIP3    H129067   0.633   1.476   3.974
 9701TIP3    H229068   0.621   1.606   4.051
 9702TIP3   OH229069   3.324   4.456   4.688
 9702TIP3    H129070   3.328   4.448   4.593
 9702TIP3    H229071   3.278   4.376   4.716
 9703TIP3   OH229072   1.344   1.127   4.436
 9703TIP3    H129073   1.408   1.196   4.455
 9703TIP3    H229074   1.259   1.170   4.443
 9704TIP3   OH229075   5.739   3.696   4.473
 9704TIP3    H129076   5.797   3.723   4.401
 9704TIP3    H229077   5.735   3.601   4.466
 9705TIP3   OH229078   2.642   2.801   2.238
 9705TIP3    H129079   2.737   2.811   2.233
 9705TIP3    H229080   2.627   2.708   2.224
 9706TIP3   OH229081   4.273   3.963   4.423
 9706TIP3    H129082   4.359   3.987   4.458
 9706TIP3    H229083   4.265   4.011   4.341
 9707TIP3   OH229084   1.905   4.032   2.073
 9707TIP3    H129085   1.855   4.109   2.046
 9707TIP3    H229086   1.846   3.984   2.131
 9708TIP3   OH229087   3.786   5.760   2.320
 9708TIP3    H129088   3.859   5.764   2.382
 9708TIP3    H229089   3.819   5.804   2.242
 9709TIP3   OH229090   5.044   4.122   2.236
 9709TIP3    H129091   4.966   4.069   2.219
 9709TIP3    H229092   5.023   4.207   2.196
 9710TIP3   OH229093   7.029   5.845   3.299
 9710TIP3    H129094   7.118   5.809   3.300
 9710TIP3    H229095   7.041   5.939   3.285
 9711TIP3   OH229096   1.496   3.818   4.555
 9711TIP3    H129097   1.409   3.783   4.576
 9711TIP3    H229098   1.554   3.742   4.552
 9712TIP3   OH229099   6.331   1.630   5.022
 9712TIP3    H129100   6.373   1.706   4.983
 9712TIP3    H229101   6.399   1.590   5.076
 9713TIP3   OH229102   4.681   3.375   4.121
 9713TIP3    H129103   4.645   3.295   4.083
 9713TIP3    H229104   4.773   3.375   4.095
 9714TIP3   OH229105   0.669   0.468   0.069
 9714TIP3    H129106   0.618   0.398   0.108
 9714TIP3    H229107   0.726   0.498   0.140
 9715TIP3   OH229108   4.010   6.416   1.040
 9715TIP3    H129109   4.041   6.399   1.129
 9715TIP3    H229110   3.931   6.362   1.032
 9716TIP3   OH229111   4.783   4.588   4.816
 9716TIP3    H129112   4.693   4.615   4.798
 9716TIP3    H229113   4.777   4.538   4.897
 9717TIP3   OH229114   1.408   0.907   2.631
 9717TIP3    H129115   1.462   0.828   2.631
 9717TIP3    H229116   1.389   0.924   2.539
 9718TIP3   OH229117   1.614   3.506   3.857
 9718TIP3    H129118   1.590   3.462   3.938
 9718TIP3    H229119   1.588   3.444   3.788
 9719TIP3   OH229120   3.564   6.673   0.290
 9719TIP3    H129121   3.542   6.613   0.219
 9719TIP3    H229122   3.479   6.704   0.322
 9720TIP3   OH229123   3.681   1.063   1.213
 9720TIP3    H129124   3.599   1.015   1.215
 9720TIP3    H229125   3.677   1.116   1.133
 9721TIP3   OH229126   3.451   0.592   3.421
 9721TIP3    H129127   3.439   0.580   3.326
 9721TIP3    H229128   3.364   0.618   3.452
 9722TIP3   OH229129   7.182   4.630   5.386
 9722TIP3    H129130   7.173   4.642   5.481
 9722TIP3    H229131   7.104   4.580   5.361
 9723TIP3   OH229132   2.289   4.502   5.679
 9723TIP3    H129133   2.235   4.550   5.742
 9723TIP3    H229134   2.307   4.566   5.610
 9724TIP3   OH229135   5.442   1.194   1.303
 9724TIP3    H129136   5.392   1.112   1.298
 9724TIP3    H229137   5.489   1.198   1.220
 9725TIP3   OH229138   2.908   2.473   4.942
 9725TIP3    H129139   2.848   2.545   4.961
 9725TIP3    H229140   2.930   2.484   4.850
 9726TIP3   OH229141   3.969   1.786   4.012
 9726TIP3    H129142   4.032   1.854   3.988
 9726TIP3    H229143   4.019   1.705   4.008
 9727TIP3   OH229144   3.355   2.939   4.900
 9727TIP3    H129145   3.356   2.885   4.821
 9727TIP3    H229146   3.445   2.971   4.908
 9728TIP3   OH229147   3.048   1.753   3.937
 9728TIP3    H129148   3.012   1.671   3.972
 9728TIP3    H229149   2.987   1.779   3.868
 9729TIP3   OH229150   4.187   4.534   0.731
 9729TIP3    H129151   4.208   4.500   0.644
 9729TIP3    H229152   4.096   4.564   0.723
 9730TIP3   OH229153   3.389   2.018   3.401
 9730TIP3    H129154   3.362   2.089   3.343
 9730TIP3    H229155   3.308   1.988   3.443
 9731TIP3   OH229156   3.158   3.551   4.930
 9731TIP3    H129157   3.250   3.524   4.941
 9731TIP3    H229158   3.150   3.629   4.985
 9732TIP3   OH229159  -0.001   5.637   3.486
 9732TIP3    H129160   0.092   5.657   3.469
 9732TIP3    H229161  -0.023   5.570   3.421
 9733TIP3   OH229162   1.083   5.164   5.679
 9733TIP3    H129163   1.089   5.076   5.716
 9733TIP3    H229164   1.082   5.149   5.584
 9734TIP3   OH229165   7.013   5.948   5.546
 9734TIP3    H129166   6.954   6.024   5.543
 9734TIP3    H229167   7.002   5.913   5.634
 9735TIP3   OH229168   2.750   2.280   3.965
 9735TIP3    H129169   2.822   2.328   4.004
 9735TIP3    H229170   2.760   2.190   3.998
 9736TIP3   OH229171   3.112   1.628   0.171
 9736TIP3    H129172   3.104   1.569   0.096
 9736TIP3    H229173   3.203   1.619   0.200
 9737TIP3   OH229174   3.062   6.754   2.227
 9737TIP3    H129175   3.118   6.828   2.208
 9737TIP3    H229176   3.047   6.712   2.142
 9738TIP3   OH229177   1.697   5.765   1.543
 9738TIP3    H129178   1.741   5.679   1.548
 9738TIP3    H229179   1.729   5.812   1.620
 9739TIP3   OH229180   5.140   5.866   0.728
 9739TIP3    H129181   5.197   5.937   0.697
 9739TIP3    H229182   5.199   5.792   0.738
 9740TIP3   OH229183   0.067   5.998   3.271
 9740TIP3    H129184   0.019   6.081   3.273
 9740TIP3    H229185   0.159   6.023   3.281
 9741TIP3   OH229186   0.732   2.360   5.642
 9741TIP3    H129187   0.815   2.351   5.689
 9741TIP3    H229188   0.758   2.391   5.555
 9742TIP3   OH229189   2.860   2.706   0.354
 9742TIP3    H129190   2.847   2.686   0.447
 9742TIP3    H229191   2.943   2.663   0.331
 9743TIP3   OH229192   0.544   0.263   2.857
 9743TIP3    H129193   0.471   0.310   2.898
 9743TIP3    H229194   0.524   0.267   2.763
 9744TIP3   OH229195   5.470   1.318   4.302
 9744TIP3    H129196   5.517   1.395   4.271
 9744TIP3    H229197   5.452   1.267   4.223
 9745TIP3   OH229198   0.741   3.028   0.640
 9745TIP3    H129199   0.695   3.091   0.697
 9745TIP3    H229200   0.740   2.947   0.690
 9746TIP3   OH229201   3.409   1.617   5.617
 9746TIP3    H129202   3.472   1.546   5.625
 9746TIP3    H229203   3.331   1.585   5.662
 9747TIP3   OH229204   3.766   1.729   0.396
 9747TIP3    H129205   3.695   1.761   0.340
 9747TIP3    H229206   3.725   1.663   0.451
 9748TIP3   OH229207   2.930   2.982   1.563
 9748TIP3    H129208   3.010   2.948   1.524
 9748TIP3    H229209   2.907   3.058   1.510
 9749TIP3   OH229210   5.189   2.234   1.130
 9749TIP3    H129211   5.135   2.243   1.208
 9749TIP3    H229212   5.222   2.323   1.113
   7.21180   6.79935   5.88840   0.00000   0.00000  -2.40394   0.00000  -2.40394  -3.39967
