Title
44427
    1ASP      N    1   6.261   4.778   3.730 -0.6762 -0.3273 -0.1419
    1ASP    HT1    2   6.329   4.802   3.656 -0.9151  2.6766  0.5411
    1ASP    HT2    3   6.275   4.678   3.751  0.6943 -0.3128 -0.9294
    1ASP    HT3    4   6.292   4.831   3.815  0.9553  1.4205 -1.7885
    1ASP     CA    5   6.115   4.809   3.693  0.1615  0.2023 -0.2746
    1ASP     HA    6   6.093   4.915   3.694  0.5651  0.2771  0.9238
    1ASP     CB    7   6.092   4.726   3.561 -0.4579 -0.1969 -0.4136
    1ASP    HB1    8   5.984   4.741   3.539 -0.1532  0.8013 -1.2426
    1ASP    HB2    9   6.112   4.617   3.568 -1.5247 -0.6223 -3.4364
    1ASP     CG   10   6.181   4.777   3.453  0.4336  0.3899 -0.1296
    1ASP    OD1   11   6.210   4.699   3.362  0.2589 -0.7754  0.3209
    1ASP    OD2   12   6.214   4.896   3.461  0.3125  0.7136  0.2322
    1ASP      C   13   6.018   4.756   3.804 -0.0026 -0.1001 -0.6040
    1ASP      O   14   6.059   4.680   3.891  0.6783 -0.1269  0.5181
    2SER      N   15   5.897   4.815   3.810  0.1929  0.0452  0.9532
    2SER     HN   16   5.869   4.892   3.754 -2.3850 -2.7001 -1.7573
    2SER     CA   17   5.788   4.774   3.902 -0.6528  0.0762  0.6359
    2SER     HA   18   5.832   4.770   4.001 -0.9558 -1.9865  0.7101
    2SER     CB   19   5.665   4.866   3.896 -0.3849  0.2027 -0.1986
    2SER    HB1   20   5.696   4.954   3.957  1.9861 -1.1489  0.6020
    2SER    HB2   21   5.575   4.827   3.947 -1.5963  0.1281 -2.3280
    2SER     OG   22   5.634   4.905   3.762 -0.2667 -0.5343 -0.1654
    2SER    HG1   23   5.576   4.840   3.722  0.3532 -1.3579  0.2561
    2SER      C   24   5.740   4.634   3.883 -0.5405  0.1590 -0.3177
    2SER      O   25   5.729   4.585   3.770  0.7145 -0.1088 -0.5125
    3GLY      N   26   5.696   4.556   3.985  0.5293  0.5406 -0.1584
    3GLY     HN   27   5.709   4.576   4.081  0.2919 -0.2594  0.0485
    3GLY     CA   28   5.635   4.419   3.974 -0.5812  0.3219  1.2351
    3GLY    HA1   29   5.608   4.384   4.073 -1.0739  0.7456  1.2498
    3GLY    HA2   30   5.705   4.358   3.919  0.3859  1.8540  0.7332
    3GLY      C   31   5.503   4.414   3.893 -0.5997 -0.5622  0.8859
    3GLY      O   32   5.439   4.513   3.860 -0.0034 -0.3852  0.0652
    4ASP      N   33   5.460   4.292   3.867 -0.2786 -0.7518  0.4492
    4ASP     HN   34   5.519   4.211   3.875  2.3976  1.1855  0.8397
    4ASP     CA   35   5.333   4.273   3.805  0.4095  0.4221 -0.3415
    4ASP     HA   36   5.324   4.334   3.717 -0.2063 -0.9311 -1.2256
    4ASP     CB   37   5.326   4.133   3.754  0.7495 -0.2533  0.3529
    4ASP    HB1   38   5.317   4.050   3.827 -2.2005 -0.0313  0.2782
    4ASP    HB2   39   5.424   4.106   3.708  0.0416 -1.1097 -0.6702
    4ASP     CG   40   5.213   4.102   3.662 -0.3682 -0.2553 -0.6321
    4ASP    OD1   41   5.168   4.196   3.586  0.5929  0.1016  0.1498
    4ASP    OD2   42   5.172   3.983   3.646 -0.6921  0.4628  0.5551
    4ASP      C   43   5.220   4.310   3.908 -0.5621 -0.4412  0.4741
    4ASP      O   44   5.230   4.275   4.027  0.2709  0.1230  0.2878
    5SER      N   45   5.117   4.379   3.875 -0.2517 -0.0684 -0.3294
    5SER     HN   46   5.104   4.427   3.788 -0.2752  3.2564  1.4380
    5SER     CA   47   5.000   4.385   3.961  0.2181  0.2073  0.1566
    5SER     HA   48   5.017   4.441   4.052  0.8154  2.1849 -1.1304
    5SER     CB   49   4.888   4.459   3.882  0.3136 -0.5326  0.1489
    5SER    HB1   50   4.791   4.478   3.934 -0.3484 -2.7557 -0.2242
    5SER    HB2   51   4.863   4.410   3.786 -2.1467 -2.8480  1.9051
    5SER     OG   52   4.931   4.601   3.859  0.1497 -0.1076 -0.2861
    5SER    HG1   53   4.913   4.645   3.943 -0.5717  1.3477 -1.1771
    5SER      C   54   4.930   4.255   3.992  0.0799 -0.0266  0.0250
    5SER      O   55   4.892   4.181   3.896 -0.0413  0.0471  0.3893
    6GLY      N   56   4.932   4.211   4.121  0.0498 -0.3530  0.2679
    6GLY     HN   57   4.959   4.273   4.195  1.0580  0.4309 -0.7446
    6GLY     CA   58   4.887   4.080   4.162 -0.0120 -0.2536 -0.2723
    6GLY    HA1   59   4.906   4.073   4.268  0.4030  0.8920 -0.2672
    6GLY    HA2   60   4.933   4.000   4.107 -1.8171 -0.4730 -1.5173
    6GLY      C   61   4.735   4.070   4.140  0.5693  0.5395 -0.4946
    6GLY      O   62   4.668   4.153   4.080 -0.3290  0.4336 -0.3440
    7PRO      N   63   4.681   3.959   4.180  0.1184  0.0967  0.1081
    7PRO     CD   64   4.748   3.850   4.242  0.0704 -0.2583 -0.4001
    7PRO    HD1   65   4.782   3.870   4.345  0.9895  0.2287 -0.7892
    7PRO    HD2   66   4.837   3.819   4.183 -0.1290 -0.7890 -0.4203
    7PRO     CA   67   4.534   3.931   4.168  0.1694 -0.8639  0.1265
    7PRO     HA   68   4.508   3.918   4.064  0.7300  3.9759 -0.7713
    7PRO     CB   69   4.510   3.811   4.250 -0.2334  0.0473  0.4203
    7PRO    HB1   70   4.424   3.753   4.211  1.4742 -0.4872 -2.7730
    7PRO    HB2   71   4.486   3.841   4.354 -1.4558  1.4635 -0.2559
    7PRO     CG   72   4.646   3.734   4.259  0.0288 -0.7969  0.2707
    7PRO    HG1   73   4.661   3.675   4.352 -0.0832  1.4345  1.7484
    7PRO    HG2   74   4.661   3.663   4.175 -1.5557  1.3598 -1.9073
    7PRO      C   75   4.442   4.052   4.214 -0.1534  0.2757  0.3918
    7PRO      O   76   4.474   4.108   4.319 -0.0774  0.3758 -0.6256
    8GLY      N   77   4.337   4.088   4.138 -0.4665  0.4604  0.1971
    8GLY     HN   78   4.321   4.044   4.050 -0.8311 -1.3155  1.1213
    8GLY     CA   79   4.243   4.190   4.176 -0.5325  0.0969 -0.3319
    8GLY    HA1   80   4.177   4.200   4.091  0.8590 -0.6436 -1.5249
    8GLY    HA2   81   4.295   4.282   4.198 -0.3485 -0.8873  3.8022
    8GLY      C   82   4.166   4.146   4.301  0.3404  0.6947  0.1511
    8GLY      O   83   4.168   4.033   4.350 -0.0212 -0.0558 -0.1174
    9ASP      N   84   4.086   4.245   4.352 -1.0242  0.2592 -0.2701
    9ASP     HN   85   4.075   4.336   4.313 -0.5028 -0.2793 -1.7297
    9ASP     CA   86   4.002   4.227   4.466  0.4737  0.4721  0.3419
    9ASP     HA   87   4.072   4.188   4.539  2.0593  0.7999 -0.9757
    9ASP     CB   88   3.931   4.362   4.524  0.8716 -0.2710 -0.2679
    9ASP    HB1   89   3.849   4.338   4.595 -0.6529  1.6390 -1.3247
    9ASP    HB2   90   3.887   4.430   4.448  4.4102 -0.2881 -2.4191
    9ASP     CG   91   4.040   4.441   4.593  0.1935  0.4780 -0.7252
    9ASP    OD1   92   4.145   4.388   4.625 -0.1117 -0.4190  0.6221
    9ASP    OD2   93   4.015   4.563   4.615 -0.4664  0.1387  0.2103
    9ASP      C   94   3.885   4.123   4.458  0.4747 -0.4481 -0.6244
    9ASP      O   95   3.833   4.101   4.344  0.1180  0.1622 -0.5617
   10PRO      N   96   3.833   4.049   4.556 -0.5654  0.2389  0.1148
   10PRO     CD   97   3.875   4.051   4.698  0.9317  0.2499 -0.5589
   10PRO    HD1   98   3.876   4.151   4.747  0.0647 -0.0866  0.1438
   10PRO    HD2   99   3.972   3.998   4.713  0.0994 -0.8387  1.0159
   10PRO     CA  100   3.718   3.967   4.536  0.7618 -0.3193 -0.5481
   10PRO     HA  101   3.733   3.895   4.457  0.9207  0.6860 -1.4450
   10PRO     CB  102   3.720   3.880   4.661 -0.2735 -0.6143 -0.7252
   10PRO    HB1  103   3.793   3.798   4.641  1.0820  0.0627  1.2554
   10PRO    HB2  104   3.626   3.828   4.691  1.3650 -3.4559 -0.2980
   10PRO     CG  105   3.774   3.964   4.774  0.4939  0.4460  0.1178
   10PRO    HG1  106   3.694   4.030   4.813 -0.5706 -0.1783 -1.0085
   10PRO    HG2  107   3.804   3.912   4.868 -1.2903  0.9612  0.9907
   10PRO      C  108   3.595   4.051   4.508  0.8065 -0.2800 -0.3521
   10PRO      O  109   3.585   4.161   4.562  0.7464  0.3553  0.4173
   11GLY      N  110   3.498   4.005   4.418 -0.6762  0.2948 -0.0458
   11GLY     HN  111   3.513   3.917   4.372 -1.3065  0.2228 -0.1125
   11GLY     CA  112   3.372   4.075   4.384  0.1763  0.1428 -0.6381
   11GLY    HA1  113   3.319   4.008   4.319  0.7362  0.1180 -1.0709
   11GLY    HA2  114   3.386   4.170   4.335  0.7114  1.3808  1.8021
   11GLY      C  115   3.284   4.106   4.505  1.0100  0.1380  0.0186
   11GLY      O  116   3.287   4.039   4.613 -0.2361 -0.8356  0.3554
   12ASP      N  117   3.202   4.218   4.500 -0.8877  0.7351  0.0670
   12ASP     HN  118   3.207   4.275   4.418 -0.2623  1.4163  0.5798
   12ASP     CA  119   3.096   4.224   4.608 -0.4609 -0.2625  0.5201
   12ASP     HA  120   3.139   4.192   4.703 -0.9505 -1.1660  0.4496
   12ASP     CB  121   3.037   4.372   4.627  0.9444  0.6632 -0.7098
   12ASP    HB1  122   2.955   4.377   4.701  0.7690 -1.5550 -0.7210
   12ASP    HB2  123   2.997   4.408   4.530 -1.7369  0.0461  0.1247
   12ASP     CG  124   3.140   4.470   4.676  0.1024  0.5698 -0.3990
   12ASP    OD1  125   3.235   4.422   4.749 -0.1361 -0.3092  0.7055
   12ASP    OD2  126   3.106   4.593   4.667 -0.8666  0.1360  0.2505
   12ASP      C  127   2.973   4.129   4.571 -0.2366 -0.4305 -0.7475
   12ASP      O  128   2.918   4.138   4.464 -0.1137  0.3344 -0.1927
   13SER      N  129   2.928   4.042   4.667  0.2706 -0.4511  0.1845
   13SER     HN  130   2.978   4.034   4.753 -0.2361 -1.0670  0.4245
   13SER     CA  131   2.815   3.948   4.648  0.2973  0.1767 -0.2560
   13SER     HA  132   2.830   3.902   4.552  1.7021  0.0402  0.0170
   13SER     CB  133   2.801   3.839   4.755 -0.4403  0.8650  0.2826
   13SER    HB1  134   2.890   3.772   4.758  0.7990  2.5038  1.3289
   13SER    HB2  135   2.713   3.776   4.732  0.9167 -1.7250  1.9768
   13SER     OG  136   2.783   3.898   4.889 -0.4027 -0.5129  1.5461
   13SER    HG1  137   2.863   3.951   4.898 -0.0576 -0.5635 -0.9738
   13SER      C  138   2.684   4.020   4.638 -0.5293 -0.4649 -0.0101
   13SER      O  139   2.658   4.114   4.712 -0.2323 -0.1343  0.0971
   14GLY      N  140   2.589   3.974   4.550 -0.0185  0.1509 -0.1145
   14GLY     HN  141   2.588   3.889   4.497  0.9652 -1.0616  1.7692
   14GLY     CA  142   2.465   4.044   4.541 -0.0259  0.4818  0.2273
   14GLY    HA1  143   2.396   3.989   4.478  0.0494  0.8217 -0.1550
   14GLY    HA2  144   2.495   4.132   4.485  3.0951 -1.7015 -1.6884
   14GLY      C  145   2.380   4.077   4.665  0.4439  0.1064 -0.2429
   14GLY      O  146   2.378   4.005   4.764 -0.6889  0.0103 -0.0734
   15SER      N  147   2.308   4.191   4.649  0.2025 -0.1670 -0.2133
   15SER     HN  148   2.325   4.249   4.569  0.8291 -2.0710 -1.5004
   15SER     CA  149   2.207   4.235   4.743  0.0685 -0.2433  0.3784
   15SER     HA  150   2.245   4.200   4.838  3.3234 -0.1345 -0.8123
   15SER     CB  151   2.203   4.392   4.735 -0.7475  0.1982  0.0320
   15SER    HB1  152   2.309   4.427   4.729 -0.0171 -1.8668  0.2339
   15SER    HB2  153   2.156   4.438   4.824  0.6357 -0.4627  1.1297
   15SER     OG  154   2.140   4.445   4.614 -0.5047  0.5861 -0.3641
   15SER    HG1  155   2.055   4.402   4.606  0.5342 -1.3416 -1.4531
   15SER      C  156   2.074   4.174   4.724  0.0954 -0.0043  0.6933
   15SER    OT1  157   2.008   4.139   4.820  0.2343 -0.4440  0.7280
   15SER    OT2  158   2.033   4.157   4.601  0.4730 -0.2974 -0.6780
   16SOD    SOD  159   0.346   2.340   2.676  0.2007 -0.0484 -0.2054
   17SOD    SOD  160   6.166   6.021   6.113  0.2681  0.0730 -0.3319
   18SOD    SOD  161   0.393   7.710   2.072 -0.3819 -0.5443 -0.0304
   19SOD    SOD  162   1.970   0.869   4.191 -0.3976 -0.0564 -0.9937
   20SOD    SOD  163   2.612   0.992   3.387 -0.3982 -0.3426 -0.1074
   21SOD    SOD  164   0.680   7.799   3.612 -0.0846  0.0836  0.0009
   22SOD    SOD  165   4.835   3.090   5.618 -0.1403 -0.1470  0.0068
   23SOD    SOD  166   2.649   2.350   1.376  0.2654 -0.4240  0.3745
   24SOD    SOD  167   2.236   6.725   0.343  0.1848 -0.4529  0.4100
   25SOD    SOD  168   6.674   2.064   3.749 -0.6550  0.0038  0.1212
   26SOD    SOD  169   3.631   2.851   1.159  0.1681 -0.5398  0.1747
   27SOD    SOD  170   5.688   6.715   6.194 -0.3518 -0.0011  0.2172
   28SOD    SOD  171   3.576   7.562   5.803  0.1666 -0.6519  0.3235
   29SOD    SOD  172   2.194   2.871   1.786 -0.3757 -0.0381  0.0928
   30SOD    SOD  173   0.045   4.719   5.014  0.3944 -0.5687 -0.2871
   31SOD    SOD  174   5.643   6.594   2.715  0.2677  0.5363  0.2567
   32SOD    SOD  175   0.368   3.878   5.713 -0.3383  0.0672  0.3507
   33SOD    SOD  176   5.219   1.896   4.301  0.2245  0.0511 -0.3423
   34SOD    SOD  177   8.157   4.503   3.027  0.1692 -0.1579 -0.1987
   35SOD    SOD  178   4.703   1.768   2.124 -0.0254  0.6285 -0.8342
   36SOD    SOD  179   5.810   6.361   5.203 -0.3936 -0.2351 -0.1387
   37SOD    SOD  180   2.006   1.630   6.325  0.0579  0.1305 -0.0262
   38SOD    SOD  181   8.167   0.555   1.557 -0.1038 -0.0628  0.4255
   39SOD    SOD  182   7.125   7.392   4.118  0.5183 -0.1078 -0.7015
   40SOD    SOD  183   6.743   5.159   0.275 -0.0716 -0.1695  0.1790
   41SOD    SOD  184   6.470   5.604   3.919  0.4144  0.2086  0.1142
   42SOD    SOD  185   4.400   3.482   5.192  0.3629 -0.1315  0.5370
   43SOD    SOD  186   3.036   4.919   3.467  0.0774  0.3257  0.1179
   44SOD    SOD  187   6.944   3.057   3.033 -0.1787  0.2620 -0.0814
   45SOD    SOD  188   5.668   7.372   1.757 -0.1925  0.2102 -0.1344
   46SOD    SOD  189   4.307   2.670   4.573  0.1239 -0.5940 -0.4004
   47SOD    SOD  190   3.384   5.698   5.987 -0.2372 -0.1509 -0.4997
   48SOD    SOD  191   3.904   2.770   3.049  0.1289 -0.2534  0.3455
   49SOD    SOD  192   5.788   6.970   5.406 -0.0291  0.0857  0.1074
   50SOD    SOD  193   4.770   4.106   6.922  0.1041 -0.1912  0.2721
   51SOD    SOD  194   2.294   4.778   5.597  0.3944 -0.2918  0.4726
   52SOD    SOD  195   3.032   2.308   3.589  0.3177  0.0911  0.2982
   53SOD    SOD  196   3.081   6.798   6.759 -0.3225  0.4857 -0.3593
   54SOD    SOD  197   5.027   1.830   5.397  0.1927 -0.8490 -0.1389
   55SOD    SOD  198   5.642   2.353   2.571  0.1560 -0.6915  0.2267
   56SOD    SOD  199   7.923   5.137   2.272  0.6144  0.4099 -0.6411
   57SOD    SOD  200   0.088   4.936   4.470 -0.2057 -0.2142 -0.1021
   58SOD    SOD  201   2.200   3.636   1.584 -0.2691  0.0387  0.2272
   59SOD    SOD  202   7.915   4.867   0.722  0.0485 -0.1232  0.1893
   60SOD    SOD  203   5.208   0.994   1.133 -0.0355  0.0873  0.5136
   61SOD    SOD  204   7.275   1.530   5.648 -0.9110  0.3433  0.2877
   62CLA    CLA  205   1.271   2.377   2.377 -0.0466  0.0355 -0.4946
   63CLA    CLA  206   7.936   5.314   1.724 -0.1277  0.1553  0.1753
   64CLA    CLA  207   5.965   0.079   6.366 -0.2867 -0.3208  0.1710
   65CLA    CLA  208   7.768   2.382   2.422  0.4886 -0.0703 -0.0478
   66CLA    CLA  209   1.469   1.824   1.439  0.1716 -0.0319  0.0536
   67CLA    CLA  210   6.696   0.978   5.874  0.1818  0.2035 -0.0143
   68CLA    CLA  211   5.372   3.256   5.969  0.0078 -0.3724 -0.1818
   69CLA    CLA  212   1.306   0.316   1.401  0.2019 -0.1754 -0.0772
   70CLA    CLA  213   7.020   7.042   3.986 -0.1935  0.1201  0.1681
   71CLA    CLA  214   0.352   2.366   0.969  0.4172 -0.2094 -0.0963
   72CLA    CLA  215   6.563   7.103   4.447 -0.1843  0.2048 -0.0756
   73CLA    CLA  216   3.832   0.886   4.157  0.1677  0.0073 -0.1283
   74CLA    CLA  217   2.376   1.658   4.164 -0.0433 -0.0380  0.1099
   75CLA    CLA  218   3.401   5.164   0.888 -0.2467  0.2383  0.2958
   76CLA    CLA  219   2.380   4.867   0.777 -0.7237  0.0284 -0.1326
   77CLA    CLA  220   4.477   3.827   2.384 -0.3891  0.1493  0.0466
   78CLA    CLA  221   2.684   3.598   4.064  0.1007  0.4501 -0.2002
   79CLA    CLA  222   6.431   1.763   1.477  0.2582  0.1984  0.0176
   80CLA    CLA  223   4.246   0.292   2.561 -0.3372 -0.0409 -0.0560
   81CLA    CLA  224   2.561   2.492   0.236 -0.1684 -0.1452 -0.2237
   82CLA    CLA  225   5.832   4.635   4.266  0.0899  0.1907 -0.0482
   83CLA    CLA  226   2.998   2.780   0.536 -0.1702  0.1543 -0.1168
   84CLA    CLA  227   0.656   6.157   0.789 -0.3184 -0.3640 -0.4223
   85CLA    CLA  228   8.132   5.021   2.125  0.0374  0.5149 -0.0535
   86CLA    CLA  229   1.810   3.610   1.075 -0.1879 -0.5367 -0.4886
   87CLA    CLA  230   5.073   7.764   2.238  0.0207 -0.2144 -0.3091
   88CLA    CLA  231   3.578   0.420   4.067  0.4594  0.1133 -0.0416
   89CLA    CLA  232   7.012   5.153   0.367 -0.1569  0.0059 -0.6717
   90CLA    CLA  233   5.913   3.444   4.973  0.1298 -0.3534 -0.0737
   91CLA    CLA  234   0.851   3.023   2.076  0.0476 -0.0091 -0.3756
   92CLA    CLA  235   2.186   0.453   3.293 -0.1157 -0.5672  0.4484
   93CLA    CLA  236   3.022   2.815   4.985 -0.0440 -0.4414  0.2582
   94CLA    CLA  237   5.712   0.283   2.652  0.0268  0.0897  0.0941
   95CLA    CLA  238   1.465   4.436   5.086 -0.4953  0.0920  0.0071
   96CLA    CLA  239   4.783   4.058   6.657  0.0966  0.4287 -0.0763
   97CLA    CLA  240   7.487   3.894   4.251 -0.1193 -0.2093 -0.2255
   98CLA    CLA  241   5.276   2.781   2.827 -0.0714 -0.1230  0.0350
   99CLA    CLA  242   5.494   6.790   4.805 -0.1417  0.5832  0.0702
  100CLA    CLA  243   6.109   1.226   0.304  0.0397  0.3979 -0.1118
  101CLA    CLA  244   7.280   1.665   0.871 -0.5189  0.0643 -0.1340
  102CLA    CLA  245   8.152   7.956   1.934  0.4665  0.2593  0.1278
  103CLA    CLA  246   4.395   0.944   3.397 -0.2476  0.3738 -0.0718
  104TIP3   OH2  247   2.501   0.404   1.803  0.1373 -0.4969 -0.0588
  104TIP3    H1  248   2.462   0.466   1.865 -1.8916 -0.4409 -1.3396
  104TIP3    H2  249   2.441   0.329   1.805  2.8287 -2.6831  1.8594
  105TIP3   OH2  250   0.252   6.428   2.267 -0.4048  0.4862  0.1713
  105TIP3    H1  251   0.197   6.350   2.262 -0.0370  0.3007 -1.2965
  105TIP3    H2  252   0.328   6.402   2.319  0.1512 -0.4219 -1.0668
  106TIP3   OH2  253   8.441   7.115   1.008 -0.1565 -1.0829  0.3273
  106TIP3    H1  254   8.378   7.092   1.076  0.4184  2.2012  2.0547
  106TIP3    H2  255   8.527   7.095   1.046  0.1165 -0.2735  0.1416
  107TIP3   OH2  256   1.163   0.215   0.739  0.1612  0.4321 -0.0421
  107TIP3    H1  257   1.126   0.242   0.823  0.0726  2.0900 -0.5958
  107TIP3    H2  258   1.174   0.120   0.747 -1.2368  0.3656  1.2834
  108TIP3   OH2  259   2.735   1.027   4.135 -0.6295  0.5296  0.6946
  108TIP3    H1  260   2.720   0.996   4.046  2.1924  1.2659 -0.0767
  108TIP3    H2  261   2.746   1.122   4.126  1.1523  0.4310  1.5959
  109TIP3   OH2  262   2.308   1.064   3.020 -0.2110  0.2508  0.3325
  109TIP3    H1  263   2.255   1.011   2.960 -0.3016  2.2291 -1.4109
  109TIP3    H2  264   2.246   1.094   3.087 -0.7197  0.3058 -0.1569
  110TIP3   OH2  265   0.287   0.544   0.169 -0.4881  0.3487  0.7234
  110TIP3    H1  266   0.309   0.630   0.132  1.7197 -1.0370 -1.2948
  110TIP3    H2  267   0.261   0.492   0.094 -2.0747 -0.6983  1.9797
  111TIP3   OH2  268   8.287   6.633   2.644 -0.2922  0.3705 -0.0909
  111TIP3    H1  269   8.196   6.603   2.636 -0.6604  1.3697  0.2509
  111TIP3    H2  270   8.317   6.645   2.554 -0.4756 -0.0205 -0.2059
  112TIP3   OH2  271   3.503   1.983   2.887 -0.5747 -0.6750 -0.1093
  112TIP3    H1  272   3.574   2.047   2.885 -1.0771 -0.0908  0.6585
  112TIP3    H2  273   3.547   1.899   2.894  0.0414 -0.2877  0.7737
  113TIP3   OH2  274   4.451   0.954   1.024 -0.3508  0.5657 -0.2524
  113TIP3    H1  275   4.376   0.962   0.965  0.7949  0.2836 -1.7787
  113TIP3    H2  276   4.415   0.971   1.111 -2.2689 -0.0262 -0.9080
  114TIP3   OH2  277   5.557   1.099   3.052  0.2492 -0.3972  0.3735
  114TIP3    H1  278   5.468   1.129   3.032 -0.1033  0.8390  3.5586
  114TIP3    H2  279   5.551   1.004   3.049 -1.4099 -0.3578  1.3611
  115TIP3   OH2  280   5.665   0.889   0.324 -0.2968  0.3053 -0.0442
  115TIP3    H1  281   5.588   0.894   0.268 -0.5902  2.0351  0.4974
  115TIP3    H2  282   5.709   0.973   0.313 -0.2454  0.5914  2.1392
  116TIP3   OH2  283   4.196   0.098   0.251  0.1137 -0.1442 -0.1506
  116TIP3    H1  284   4.178   0.023   0.308  2.5336 -1.0352 -0.4886
  116TIP3    H2  285   4.143   0.082   0.173 -3.6842  1.3845  1.9967
  117TIP3   OH2  286   1.597   5.622   0.984  0.3399  0.1113  0.0586
  117TIP3    H1  287   1.620   5.689   0.920  0.8639 -0.5762 -0.4756
  117TIP3    H2  288   1.504   5.605   0.967  0.4781 -0.0790 -0.5262
  118TIP3   OH2  289   2.561   0.344   1.297 -0.3116  0.2306 -0.4302
  118TIP3    H1  290   2.623   0.306   1.359 -0.8388 -0.4305 -0.3065
  118TIP3    H2  291   2.601   0.428   1.272 -0.0528  0.4584  0.7213
  119TIP3   OH2  292   3.035   1.386   1.925  0.2055  0.1495 -0.7074
  119TIP3    H1  293   3.051   1.291   1.926 -2.0847 -0.2503 -0.3976
  119TIP3    H2  294   3.015   1.408   2.016 -0.3779  0.7482 -0.9798
  120TIP3   OH2  295   0.523   7.059   0.704 -0.4781 -0.1050 -0.1615
  120TIP3    H1  296   0.484   7.014   0.779  0.5479 -0.6707  0.0430
  120TIP3    H2  297   0.524   6.993   0.634 -0.1811  0.0016 -0.2578
  121TIP3   OH2  298   6.915   2.126   1.425 -0.2457 -0.6524 -0.3863
  121TIP3    H1  299   6.831   2.081   1.414  0.7381 -2.5736 -0.1987
  121TIP3    H2  300   6.927   2.131   1.520  0.2958 -1.2234 -0.4245
  122TIP3   OH2  301   5.995   2.664   2.481  0.7446 -0.8254 -0.3134
  122TIP3    H1  302   6.031   2.751   2.497 -2.1511  0.2011  0.9038
  122TIP3    H2  303   5.969   2.632   2.567 -0.9586 -1.6489 -1.1168
  123TIP3   OH2  304   5.017   0.857   1.128  0.0407 -0.4249 -0.7066
  123TIP3    H1  305   4.951   0.871   1.195 -0.2182  3.0215 -1.6037
  123TIP3    H2  306   4.983   0.783   1.077 -2.1980  0.0915 -0.0322
  124TIP3   OH2  307   0.106   7.380   0.725 -0.0703 -0.5215  0.1005
  124TIP3    H1  308   0.073   7.352   0.640 -1.5201 -0.4281  0.6058
  124TIP3    H2  309   0.032   7.366   0.785  1.1440 -1.2174  1.4707
  125TIP3   OH2  310   1.427   1.288   0.256 -0.4345 -0.6467 -0.5365
  125TIP3    H1  311   1.369   1.362   0.274  0.9225  0.1982  0.3503
  125TIP3    H2  312   1.386   1.244   0.181 -1.4161  0.7988 -0.8661
  126TIP3   OH2  313   1.955   6.256   3.556 -0.2426  0.0555 -0.4601
  126TIP3    H1  314   1.941   6.318   3.627  1.3644  0.3838 -0.4089
  126TIP3    H2  315   2.029   6.291   3.507 -1.8241  0.2657 -2.7965
  127TIP3   OH2  316   1.783   7.651   2.359  0.2300 -0.1563 -0.2171
  127TIP3    H1  317   1.723   7.582   2.333  0.5698 -0.2096 -0.8923
  127TIP3    H2  318   1.780   7.653   2.454 -1.5602  0.4744 -0.2761
  128TIP3   OH2  319   2.253   5.890   2.219 -0.8521 -0.2469  0.1145
  128TIP3    H1  320   2.326   5.933   2.174 -0.6928 -0.3443  0.2810
  128TIP3    H2  321   2.293   5.842   2.291 -1.1455  0.2268  0.6010
  129TIP3   OH2  322   6.183   0.096   2.368  0.2196  0.2729  0.1475
  129TIP3    H1  323   6.176   0.166   2.432  0.2685 -0.7575  1.3124
  129TIP3    H2  324   6.227   0.025   2.416  0.5208 -0.4014 -1.1214
  130TIP3   OH2  325   4.003   0.638   2.210 -0.1246 -0.4931  0.7148
  130TIP3    H1  326   3.981   0.689   2.288 -1.6821 -0.6726  0.4043
  130TIP3    H2  327   4.051   0.562   2.244  0.0612 -0.0708  1.3994
  131TIP3   OH2  328   6.389   3.930   3.458 -0.0963 -0.5209 -0.0485
  131TIP3    H1  329   6.430   4.016   3.456 -0.5157 -0.3029  0.5484
  131TIP3    H2  330   6.417   3.892   3.541  0.6628 -1.2460 -0.6374
  132TIP3   OH2  331   3.547   0.185   1.335 -0.1440 -0.0683 -0.0411
  132TIP3    H1  332   3.499   0.242   1.275  0.7608  0.2843 -0.4440
  132TIP3    H2  333   3.627   0.233   1.355 -0.1699 -0.4430  0.9972
  133TIP3   OH2  334   1.128   6.921   2.891 -0.6126  0.1675 -0.3130
  133TIP3    H1  335   1.053   6.907   2.833 -1.4411 -0.3187  0.8355
  133TIP3    H2  336   1.098   6.889   2.976  0.6457  0.6853  0.3393
  134TIP3   OH2  337   0.565   6.622   0.088 -0.4133 -0.6030 -0.0925
  134TIP3    H1  338   0.516   6.585   0.015 -0.8955  1.0216 -0.6143
  134TIP3    H2  339   0.539   6.714   0.090  0.2371 -0.4381  1.5998
  135TIP3   OH2  340   1.999   7.913   0.239 -0.4591 -0.1088  0.6720
  135TIP3    H1  341   1.908   7.886   0.248 -0.5329  0.5274  1.9446
  135TIP3    H2  342   1.999   8.006   0.263  0.5018 -0.0723  0.5650
  136TIP3   OH2  343   2.909   7.260   0.189  0.3659  0.0185  0.0440
  136TIP3    H1  344   3.003   7.265   0.204  0.1638 -0.7853  1.7473
  136TIP3    H2  345   2.873   7.336   0.235  0.3721  1.7163 -2.6561
  137TIP3   OH2  346   4.337   0.477   1.428 -0.0368 -0.6897  0.0773
  137TIP3    H1  347   4.282   0.523   1.365  2.5339 -0.0714 -1.7794
  137TIP3    H2  348   4.366   0.545   1.488  0.2149 -0.6857 -0.0500
  138TIP3   OH2  349   2.876   7.692   4.541  0.0873 -0.3598 -0.1049
  138TIP3    H1  350   2.849   7.668   4.630 -0.5530  0.6497 -0.0266
  138TIP3    H2  351   2.864   7.611   4.490  1.0597 -1.1193  0.8534
  139TIP3   OH2  352   6.341   5.302   6.719  0.4323 -0.4389 -0.2200
  139TIP3    H1  353   6.406   5.362   6.754  2.2440 -0.7292 -2.9094
  139TIP3    H2  354   6.360   5.218   6.761  0.1553  0.0423  0.8794
  140TIP3   OH2  355   4.897   7.512   1.122 -0.1529 -0.5548 -0.1959
  140TIP3    H1  356   4.811   7.550   1.106  0.3460  0.7441  0.1910
  140TIP3    H2  357   4.940   7.514   1.036 -0.5290 -1.3070 -0.4137
  141TIP3   OH2  358   3.893   7.869   0.813 -0.3277 -0.2162 -0.1723
  141TIP3    H1  359   3.798   7.867   0.807 -0.3053 -1.5839 -0.1631
  141TIP3    H2  360   3.917   7.782   0.844  0.8120  0.7027  1.5861
  142TIP3   OH2  361   0.748   7.316   2.118 -0.2792 -0.5923  0.2216
  142TIP3    H1  362   0.775   7.228   2.146  1.1294 -0.1141  0.4433
  142TIP3    H2  363   0.791   7.375   2.181  1.6314  0.4179 -1.9550
  143TIP3   OH2  364   3.020   0.678   0.730  0.5593  0.0559 -0.2376
  143TIP3    H1  365   2.931   0.655   0.756  1.5584 -1.7975  1.7297
  143TIP3    H2  366   3.040   0.620   0.657  0.8555 -1.0087  0.6698
  144TIP3   OH2  367   5.085   1.206   1.229 -0.1602 -0.2020  0.0800
  144TIP3    H1  368   5.075   1.183   1.321  1.4417 -0.5966  0.1650
  144TIP3    H2  369   5.128   1.291   1.230 -1.7652  0.6386 -0.2994
  145TIP3   OH2  370   7.206   0.598   1.284  0.0691  0.1280  0.4525
  145TIP3    H1  371   7.213   0.559   1.197  0.2569  1.4809 -0.1565
  145TIP3    H2  372   7.115   0.583   1.309 -0.4370  1.1968 -0.6951
  146TIP3   OH2  373   8.241   5.329   6.653 -0.3868 -0.3744  0.4093
  146TIP3    H1  374   8.337   5.330   6.662 -0.5816  0.4023  2.5604
  146TIP3    H2  375   8.211   5.271   6.722 -1.4695 -0.8196 -0.4284
  147TIP3   OH2  376   1.406   7.395   2.670  0.5172 -0.6592  0.1941
  147TIP3    H1  377   1.475   7.456   2.643 -0.6261  0.9111  0.7483
  147TIP3    H2  378   1.343   7.397   2.599 -0.7743  0.7871  1.3486
  148TIP3   OH2  379   4.294   1.645   3.316  0.0345 -0.3660 -0.7526
  148TIP3    H1  380   4.214   1.673   3.362 -0.3804 -0.2153 -1.5592
  148TIP3    H2  381   4.339   1.589   3.380 -0.9840 -0.8901 -0.4749
  149TIP3   OH2  382   3.456   6.628   3.118 -0.1351 -0.3068  0.7039
  149TIP3    H1  383   3.485   6.716   3.094  0.9230 -0.0781  2.6894
  149TIP3    H2  384   3.511   6.569   3.066 -0.5497  0.1879 -0.3034
  150TIP3   OH2  385   2.034   0.287   2.063 -0.2625  0.0573 -0.3667
  150TIP3    H1  386   2.039   0.271   2.158 -3.6921  0.4495 -0.0463
  150TIP3    H2  387   2.088   0.364   2.049  0.7557 -0.3596  1.1929
  151TIP3   OH2  388   8.010   7.219   0.927  0.2169  0.0250 -0.1516
  151TIP3    H1  389   7.998   7.239   0.834 -0.1611 -1.3543 -0.4134
  151TIP3    H2  390   7.938   7.264   0.971  0.4450  0.7491 -0.5185
  152TIP3   OH2  391   5.686   1.913   2.728  0.7700 -0.0539 -0.2638
  152TIP3    H1  392   5.748   1.840   2.725 -0.0446 -0.7540 -0.1703
  152TIP3    H2  393   5.604   1.874   2.757  0.4763  1.0106  0.3650
  153TIP3   OH2  394   3.706   2.338   1.944 -1.0379  0.0604 -0.3072
  153TIP3    H1  395   3.713   2.250   1.907  1.0950  0.1918 -0.2923
  153TIP3    H2  396   3.613   2.356   1.945 -1.5392 -2.3210 -0.0589
  154TIP3   OH2  397   3.749   0.197   0.515  0.3757  0.0087  0.7116
  154TIP3    H1  398   3.692   0.239   0.579 -1.0151 -1.1613  0.2717
  154TIP3    H2  399   3.690   0.167   0.446  1.2668 -2.9351  1.1677
  155TIP3   OH2  400   5.214   0.980   3.249 -0.0387 -0.1917 -0.6183
  155TIP3    H1  401   5.292   0.980   3.304  1.2449 -0.1624 -2.3770
  155TIP3    H2  402   5.170   0.897   3.267  0.2001 -0.0442  0.6507
  156TIP3   OH2  403   3.669   1.753   2.935  0.4767  0.4500 -0.3057
  156TIP3    H1  404   3.684   1.812   3.009  0.8574 -0.4051  0.3021
  156TIP3    H2  405   3.745   1.765   2.878  2.0777 -1.6869  1.3123
  157TIP3   OH2  406   0.118   7.390   1.088  0.2154 -0.1560 -0.3548
  157TIP3    H1  407   0.034   7.401   1.042  0.3734 -1.4969 -0.9741
  157TIP3    H2  408   0.096   7.338   1.165  0.5711 -0.9419 -0.7878
  158TIP3   OH2  409   0.145   3.513   6.475 -0.2080  0.1673 -0.3785
  158TIP3    H1  410   0.118   3.598   6.511 -0.8479 -0.0000 -0.4668
  158TIP3    H2  411   0.169   3.532   6.384  1.1851  0.5476  0.0577
  159TIP3   OH2  412   2.845   2.596   2.029 -0.0428 -0.1544  0.7935
  159TIP3    H1  413   2.852   2.662   2.099  0.4769  1.3641 -0.6558
  159TIP3    H2  414   2.934   2.588   1.995 -0.0738 -1.7421  1.0607
  160TIP3   OH2  415   0.024   7.951   2.225 -0.0491 -0.4847  0.7989
  160TIP3    H1  416   0.006   8.040   2.254  1.1900  0.3387 -0.8394
  160TIP3    H2  417   0.040   7.902   2.305 -1.1982  0.6598  1.7395
  161TIP3   OH2  418   3.963   0.309   0.340  0.5534 -0.6344 -0.5113
  161TIP3    H1  419   3.983   0.226   0.299 -0.6378 -0.7828 -0.8323
  161TIP3    H2  420   3.919   0.285   0.422  2.2982 -0.3369  0.5281
  162TIP3   OH2  421   3.091   1.015   1.690 -0.3690 -0.0275 -0.3658
  162TIP3    H1  422   3.159   1.080   1.670 -1.5621  0.7088 -2.2619
  162TIP3    H2  423   3.061   1.038   1.778  2.1810 -0.6996  0.7099
  163TIP3   OH2  424   4.402   0.415   2.171  0.1179 -0.2210  0.0906
  163TIP3    H1  425   4.410   0.403   2.266 -1.3622  1.1084  0.4035
  163TIP3    H2  426   4.319   0.461   2.160  1.7346  2.3896 -1.6293
  164TIP3   OH2  427   1.776   7.986   2.424 -0.4402 -0.0001  0.6085
  164TIP3    H1  428   1.682   7.968   2.419 -0.8130  1.2045  2.8303
  164TIP3    H2  429   1.800   7.964   2.514  0.9860  1.6769  0.6688
  165TIP3   OH2  430   5.394   1.918   4.102  0.1485 -1.0543 -0.0976
  165TIP3    H1  431   5.459   1.978   4.138 -0.2801  0.8999 -2.4428
  165TIP3    H2  432   5.429   1.894   4.016 -0.6137 -2.6489  0.0264
  166TIP3   OH2  433   0.279   7.809   1.417 -0.1994 -0.0639 -0.1073
  166TIP3    H1  434   0.292   7.759   1.337 -1.1707 -1.9065  0.8534
  166TIP3    H2  435   0.355   7.787   1.471  0.1531  0.7164 -0.2785
  167TIP3   OH2  436   1.871   6.541   0.566  0.0956 -0.5222  0.1124
  167TIP3    H1  437   1.784   6.542   0.527  0.6602  0.1079 -1.1457
  167TIP3    H2  438   1.871   6.616   0.625 -1.0616 -1.9937  2.0593
  168TIP3   OH2  439   0.790   7.093   6.495  0.0719  0.4084  0.2981
  168TIP3    H1  440   0.773   7.000   6.510 -0.2039  0.1674 -1.3192
  168TIP3    H2  441   0.805   7.130   6.582  2.0201 -1.5030  0.8261
  169TIP3   OH2  442   4.434   7.926   2.800 -0.1451 -0.1389 -0.4924
  169TIP3    H1  443   4.478   7.947   2.718  0.1591 -1.0775 -0.5796
  169TIP3    H2  444   4.365   7.864   2.776  1.0579 -1.7976  0.1571
  170TIP3   OH2  445   6.252   0.642   3.345  0.5529 -0.1922 -0.0024
  170TIP3    H1  446   6.213   0.562   3.308 -0.4748 -0.1528  0.9588
  170TIP3    H2  447   6.187   0.710   3.329  1.4692  0.4907 -0.9059
  171TIP3   OH2  448   4.002   1.332   0.833  0.0582  0.3908 -0.1484
  171TIP3    H1  449   3.989   1.254   0.888 -1.3095  0.3691 -0.4789
  171TIP3    H2  450   3.974   1.304   0.746  0.2445  1.0459 -0.4175
  172TIP3   OH2  451   7.495   0.320   2.212 -0.3925  0.5585 -0.1402
  172TIP3    H1  452   7.487   0.237   2.164  1.4208  0.2148  0.1279
  172TIP3    H2  453   7.409   0.332   2.252 -1.8680  0.6463 -3.1228
  173TIP3   OH2  454   2.383   7.030   0.442 -0.0669 -0.3009 -0.3124
  173TIP3    H1  455   2.464   7.009   0.395  1.1029 -0.0298  1.5554
  173TIP3    H2  456   2.396   7.119   0.474 -0.8986 -0.4354  0.4248
  174TIP3   OH2  457   0.407   7.910   2.205  0.1106  0.8393  0.2836
  174TIP3    H1  458   0.367   7.897   2.291 -1.8418  1.3662 -0.5135
  174TIP3    H2  459   0.465   7.986   2.216  0.6439  0.2814  1.3679
  175TIP3   OH2  460   2.512   7.724   1.016  0.3463 -0.2386 -0.1887
  175TIP3    H1  461   2.492   7.701   1.106 -0.7770 -0.6608 -0.5368
  175TIP3    H2  462   2.600   7.688   1.001  1.9877  2.7595  1.7400
  176TIP3   OH2  463   0.811   7.753   1.005 -0.2471 -0.6697  0.7156
  176TIP3    H1  464   0.739   7.792   1.054 -0.5603  1.0955 -1.0594
  176TIP3    H2  465   0.773   7.731   0.920  0.6267 -2.3554  0.7350
  177TIP3   OH2  466   1.106   7.294   2.918 -0.1087  0.0887  0.0502
  177TIP3    H1  467   1.031   7.353   2.915 -1.3745 -1.3458  2.4481
  177TIP3    H2  468   1.102   7.254   3.005  3.4095 -0.0655  0.2254
  178TIP3   OH2  469   3.860   0.129   1.191 -0.2008 -0.5204 -0.2162
  178TIP3    H1  470   3.954   0.112   1.190 -0.1516 -0.2026 -1.1420
  178TIP3    H2  471   3.821   0.044   1.210  0.3271 -0.3873  1.5836
  179TIP3   OH2  472   5.318   1.508   2.620  0.0610  0.0981  0.6192
  179TIP3    H1  473   5.299   1.424   2.579  0.5848 -0.5245  1.6081
  179TIP3    H2  474   5.328   1.569   2.548  1.6886 -1.1179 -0.2249
  180TIP3   OH2  475   5.056   0.992   1.938  0.3946  0.0145 -0.6453
  180TIP3    H1  476   5.065   0.898   1.928 -1.2815 -0.0340 -1.9060
  180TIP3    H2  477   5.140   1.028   1.909  2.4135 -1.2459  3.3096
  181TIP3   OH2  478   3.994   0.370   1.316  0.1849 -0.6109  0.0774
  181TIP3    H1  479   4.028   0.459   1.310  0.4990 -0.7482 -0.1728
  181TIP3    H2  480   4.070   0.314   1.301 -0.2692 -0.9218 -1.1540
  182TIP3   OH2  481   4.714   0.416   1.079 -0.2559 -0.1466  0.1235
  182TIP3    H1  482   4.754   0.438   1.164  0.3497  0.8482 -0.4102
  182TIP3    H2  483   4.621   0.405   1.099  0.0352 -0.9715  1.1051
  183TIP3   OH2  484   0.171   7.254   2.028 -0.7739 -0.3621 -0.1127
  183TIP3    H1  485   0.125   7.220   2.105  1.4490 -1.5440  0.7139
  183TIP3    H2  486   0.251   7.293   2.062 -0.0452 -0.3655 -1.7668
  184TIP3   OH2  487   3.035   0.296   1.441 -0.2169  0.2223 -0.5647
  184TIP3    H1  488   3.123   0.332   1.454 -0.4643  0.2341  1.1126
  184TIP3    H2  489   3.030   0.222   1.501 -0.7254 -0.9225 -1.9666
  185TIP3   OH2  490   6.387   0.124   0.137 -0.3503 -0.6849  0.0974
  185TIP3    H1  491   6.328   0.058   0.174  0.2155 -0.9813  0.4808
  185TIP3    H2  492   6.428   0.080   0.062  0.0737 -0.7889  0.3914
  186TIP3   OH2  493   4.683   1.938   0.151 -0.1397  0.4474 -0.3367
  186TIP3    H1  494   4.602   1.973   0.188 -0.4818 -0.6646 -0.0038
  186TIP3    H2  495   4.753   1.987   0.195 -0.5041 -1.3056  2.3754
  187TIP3   OH2  496   3.966   8.035   4.170  0.2915 -0.2328 -0.5386
  187TIP3    H1  497   4.056   8.014   4.191  0.3583 -0.4470 -1.0212
  187TIP3    H2  498   3.919   7.952   4.176  0.1017 -0.1035 -0.1784
  188TIP3   OH2  499   4.938   2.045   0.257  0.0204 -0.0383  0.0614
  188TIP3    H1  500   4.978   1.964   0.289  1.6556  0.0719 -1.5455
  188TIP3    H2  501   5.005   2.082   0.199 -2.5829 -0.0335 -3.0569
  189TIP3   OH2  502   6.416   0.921   2.334  0.0571  0.1005  0.1606
  189TIP3    H1  503   6.452   0.938   2.247  0.5854 -1.6530  0.0076
  189TIP3    H2  504   6.484   0.949   2.394 -0.1812  1.0225  0.0094
  190TIP3   OH2  505   0.599   5.943   6.657  0.0397 -0.5376 -0.5812
  190TIP3    H1  506   0.637   6.010   6.601 -0.6387 -0.5589 -1.0704
  190TIP3    H2  507   0.507   5.940   6.632  0.3454 -2.6462 -1.5852
  191TIP3   OH2  508   0.419   7.597   2.829 -0.5352 -0.2353  0.1196
  191TIP3    H1  509   0.465   7.657   2.770 -1.9501 -0.7028 -1.4860
  191TIP3    H2  510   0.431   7.635   2.915 -0.8384  1.9997 -0.7943
  192TIP3   OH2  511   6.296   0.142   1.201  0.1053 -0.0404 -0.3879
  192TIP3    H1  512   6.387   0.127   1.176  0.5753 -0.2794  1.3817
  192TIP3    H2  513   6.286   0.237   1.202  0.2558 -0.0198 -0.8587
  193TIP3   OH2  514   7.503   1.135   1.774  0.1631 -0.1004 -0.4600
  193TIP3    H1  515   7.551   1.054   1.756 -3.0989 -2.2566 -0.0447
  193TIP3    H2  516   7.507   1.184   1.691  0.5606 -1.5840 -1.3483
  194TIP3   OH2  517   5.597   0.535   2.832  0.4476 -0.6331  0.0129
  194TIP3    H1  518   5.609   0.470   2.763  0.0276 -1.0506  0.3323
  194TIP3    H2  519   5.593   0.484   2.913  2.9550  0.0049  0.5673
  195TIP3   OH2  520   6.042   1.418   0.586  0.3645  0.4844 -0.0013
  195TIP3    H1  521   6.088   1.370   0.517 -1.3898 -0.3570 -0.6297
  195TIP3    H2  522   6.047   1.510   0.560  0.7494  0.2845 -0.6234
  196TIP3   OH2  523   3.821   6.490   1.425  0.3715 -0.2963  0.1080
  196TIP3    H1  524   3.862   6.433   1.360  1.1775 -0.3096  0.6235
  196TIP3    H2  525   3.893   6.520   1.479 -0.2800 -0.1718  0.9167
  197TIP3   OH2  526   5.896   0.971   0.881 -0.2080  0.5325  0.6427
  197TIP3    H1  527   5.869   0.881   0.865 -0.1229  0.2843  1.8722
  197TIP3    H2  528   5.945   0.996   0.802 -2.9459  0.5815 -1.1237
  198TIP3   OH2  529   6.913   0.309   0.100  0.0508 -0.1640 -0.5853
  198TIP3    H1  530   6.832   0.258   0.103 -0.3616  0.3827 -2.0043
  198TIP3    H2  531   6.890   0.389   0.052  1.5052 -0.1329 -1.2648
  199TIP3   OH2  532   5.311   1.899   0.546  0.0972  0.3558  0.1521
  199TIP3    H1  533   5.348   1.921   0.460 -0.3865 -1.2842 -0.4945
  199TIP3    H2  534   5.238   1.959   0.557  0.4037  0.8372 -0.4032
  200TIP3   OH2  535   3.374   7.715   2.360  0.0650 -0.6000  0.0337
  200TIP3    H1  536   3.431   7.744   2.289  0.0816 -0.5521  0.0660
  200TIP3    H2  537   3.433   7.687   2.430  0.0920  1.6958  0.9928
  201TIP3   OH2  538   4.804   2.112   2.523  0.2985  0.4783 -0.0267
  201TIP3    H1  539   4.803   2.025   2.563  0.2549  0.5617  0.1568
  201TIP3    H2  540   4.717   2.148   2.542  0.2824  0.5224 -0.1870
  202TIP3   OH2  541   8.314   0.631   1.392 -0.0645 -0.1002 -0.2564
  202TIP3    H1  542   8.395   0.590   1.362 -0.3122 -0.2793 -0.6862
  202TIP3    H2  543   8.273   0.665   1.312  0.4731  1.6014  0.1642
  203TIP3   OH2  544   5.400   1.333   0.068  0.2020 -0.2490 -0.5932
  203TIP3    H1  545   5.482   1.350   0.113  0.3824 -0.4114 -0.8631
  203TIP3    H2  546   5.354   1.271   0.124 -0.3878  0.9745  0.3169
  204TIP3   OH2  547   7.746   1.614   3.526 -0.0640 -0.3892  0.2734
  204TIP3    H1  548   7.794   1.674   3.469 -1.3213 -0.1084 -0.5225
  204TIP3    H2  549   7.669   1.590   3.475 -1.0425 -0.4033  1.7270
  205TIP3   OH2  550   2.296   6.705   1.150 -0.1977  0.3749  0.8471
  205TIP3    H1  551   2.261   6.755   1.076 -1.0529 -1.0677  0.2464
  205TIP3    H2  552   2.390   6.701   1.133 -0.6669 -1.9977 -1.4911
  206TIP3   OH2  553   6.106   6.139   6.753 -0.1014 -0.2916  0.1128
  206TIP3    H1  554   6.187   6.127   6.802 -0.2242  0.6967  0.5742
  206TIP3    H2  555   6.040   6.156   6.820 -0.5759 -0.4859 -0.3010
  207TIP3   OH2  556   4.370   6.821   1.054  0.8017 -0.0222 -0.2644
  207TIP3    H1  557   4.460   6.854   1.051  1.2884 -1.3434 -0.3333
  207TIP3    H2  558   4.321   6.891   1.097  1.5981  1.2788 -1.4222
  208TIP3   OH2  559   1.718   3.218   5.862 -0.6257 -0.0707  0.2390
  208TIP3    H1  560   1.627   3.214   5.831 -1.0203  1.2026  1.1650
  208TIP3    H2  561   1.749   3.128   5.858 -1.6331 -0.3746 -0.9730
  209TIP3   OH2  562   5.979   0.482   0.146  0.0124  0.3477  0.1200
  209TIP3    H1  563   6.049   0.441   0.197  1.0861  0.5285 -1.1853
  209TIP3    H2  564   5.902   0.429   0.164  1.2868 -2.0332 -1.2230
  210TIP3   OH2  565   7.421   2.197   1.578  0.2671  0.2622 -0.1388
  210TIP3    H1  566   7.450   2.126   1.635 -0.0089 -0.3624 -0.7679
  210TIP3    H2  567   7.437   2.165   1.489 -1.4728  0.2691 -0.4755
  211TIP3   OH2  568   1.342   6.316   6.934  0.2157 -0.1439  0.4404
  211TIP3    H1  569   1.253   6.352   6.945  1.4353  2.6831  1.6885
  211TIP3    H2  570   1.360   6.324   6.841  0.6738  3.1777  0.7643
  212TIP3   OH2  571   6.907   0.425   0.979 -0.2961 -0.2847 -0.4622
  212TIP3    H1  572   6.853   0.397   1.053  1.4411  1.3407  1.4951
  212TIP3    H2  573   6.910   0.349   0.921  0.3892 -2.5089  2.3658
  213TIP3   OH2  574   8.346   5.434   6.295  0.1688  0.5128  0.0218
  213TIP3    H1  575   8.364   5.398   6.209  3.1747  0.5914  0.5740
  213TIP3    H2  576   8.368   5.527   6.288  0.7720  0.4523  0.9505
  214TIP3   OH2  577   2.399   4.651   5.414  0.3333 -0.0573 -0.1496
  214TIP3    H1  578   2.407   4.617   5.325  0.9157  0.8372 -0.4397
  214TIP3    H2  579   2.425   4.578   5.470  0.1893 -0.5474 -0.7143
  215TIP3   OH2  580   7.687   0.433   0.816  0.1372 -0.5535 -0.3082
  215TIP3    H1  581   7.764   0.376   0.806 -0.3533 -1.4515  0.9183
  215TIP3    H2  582   7.672   0.468   0.728 -1.2203 -4.4781 -1.7623
  216TIP3   OH2  583   0.423   3.539   2.786 -0.0800  0.3140  0.4255
  216TIP3    H1  584   0.512   3.571   2.799 -0.0340  1.5020 -2.5195
  216TIP3    H2  585   0.413   3.468   2.851  2.1526  1.7289  2.3892
  217TIP3   OH2  586   2.976   0.625   2.096  0.3918 -0.6186 -0.5211
  217TIP3    H1  587   2.897   0.577   2.120  0.1152  0.4838  0.8142
  217TIP3    H2  588   3.019   0.569   2.032 -1.4713 -1.2328 -1.2689
  218TIP3   OH2  589   1.516   2.234   1.740  0.1858 -0.1487  0.1053
  218TIP3    H1  590   1.553   2.222   1.827 -0.0640  3.7070  0.8333
  218TIP3    H2  591   1.587   2.274   1.689 -1.0571  1.8649 -0.1182
  219TIP3   OH2  592   2.101   2.297   0.775  0.5778 -0.5585  0.1370
  219TIP3    H1  593   2.138   2.325   0.692 -2.4482 -0.1569 -1.1238
  219TIP3    H2  594   2.101   2.201   0.771  1.8760 -0.5876  0.3818
  220TIP3   OH2  595   1.229   1.038   0.909  0.1188 -0.1808 -0.8953
  220TIP3    H1  596   1.260   1.110   0.964  2.1276 -1.6240 -0.0749
  220TIP3    H2  597   1.188   0.977   0.969  1.5419 -1.3536 -1.0811
  221TIP3   OH2  598   4.357   1.073   1.248 -0.1829  0.0459 -0.1943
  221TIP3    H1  599   4.278   1.064   1.301 -0.6740 -1.6177 -1.1623
  221TIP3    H2  600   4.399   1.153   1.280 -0.6134 -0.7339  2.5005
  222TIP3   OH2  601   2.987   7.463   6.925 -0.1444 -0.1067 -0.2456
  222TIP3    H1  602   2.931   7.537   6.949 -1.4057 -0.9931 -0.3741
  222TIP3    H2  603   3.066   7.503   6.888  0.1927  1.2085  1.8058
  223TIP3   OH2  604   3.346   2.669   4.247 -0.4726 -0.4663 -0.0237
  223TIP3    H1  605   3.426   2.638   4.290 -1.2602 -1.2923  0.8607
  223TIP3    H2  606   3.303   2.724   4.313  0.1821  1.3478 -1.0723
  224TIP3   OH2  607   0.127   1.152   0.301 -0.5284 -0.6809  0.1328
  224TIP3    H1  608   0.198   1.192   0.251 -1.5501 -1.7055 -2.2035
  224TIP3    H2  609   0.169   1.121   0.382  0.8235  2.4237  0.6900
  225TIP3   OH2  610   1.746   1.204   0.707 -0.1115  0.6224  0.4635
  225TIP3    H1  611   1.738   1.144   0.781  0.6851  0.7530  0.6524
  225TIP3    H2  612   1.792   1.281   0.742 -0.0275  0.8258 -0.0799
  226TIP3   OH2  613   3.172   1.466   2.883  0.7307  0.5365 -0.3428
  226TIP3    H1  614   3.189   1.427   2.969  1.0118 -1.6303 -1.3524
  226TIP3    H2  615   3.250   1.444   2.832 -0.5557 -0.4177 -1.9106
  227TIP3   OH2  616   7.295   7.828   0.878 -0.2890  0.0717  0.0073
  227TIP3    H1  617   7.334   7.916   0.874  1.2799 -0.6367 -1.0195
  227TIP3    H2  618   7.201   7.843   0.883  0.0355  1.8291  1.1926
  228TIP3   OH2  619   0.383   2.755   1.852 -0.1092 -0.3932 -0.2907
  228TIP3    H1  620   0.390   2.848   1.872  0.6848 -0.1421 -1.6442
  228TIP3    H2  621   0.345   2.716   1.931 -0.7501  1.1145  0.1640
  229TIP3   OH2  622   2.636   3.208   2.480 -0.6025 -0.0226 -0.1806
  229TIP3    H1  623   2.699   3.244   2.541 -0.7527  1.8850 -1.1059
  229TIP3    H2  624   2.570   3.277   2.470 -1.3001 -0.8448 -1.4222
  230TIP3   OH2  625   1.097   2.746   1.087  0.0379  0.0987  0.5058
  230TIP3    H1  626   1.172   2.690   1.108 -0.4554 -0.4601  0.7938
  230TIP3    H2  627   1.089   2.740   0.992  0.9930  0.9827  0.3594
  231TIP3   OH2  628   2.649   0.874   2.383 -0.4843 -0.0280  0.0731
  231TIP3    H1  629   2.686   0.787   2.370  1.0473  0.4966  0.7549
  231TIP3    H2  630   2.673   0.923   2.305 -0.6330  0.0229  0.0583
  232TIP3   OH2  631   1.266   0.909   3.391 -0.1460 -0.1895 -0.0194
  232TIP3    H1  632   1.196   0.866   3.441 -0.4413  0.5871  0.2422
  232TIP3    H2  633   1.223   0.942   3.313 -0.1695  0.7171  0.3773
  233TIP3   OH2  634   2.295   0.010   3.267 -0.1724 -0.2531  0.6262
  233TIP3    H1  635   2.301  -0.075   3.310  2.0642 -0.3742  0.1670
  233TIP3    H2  636   2.351   0.067   3.320 -0.0371  0.4156 -0.2279
  234TIP3   OH2  637   0.483   0.480   1.253 -0.5378 -0.5152  0.4424
  234TIP3    H1  638   0.532   0.398   1.262  0.1146  0.0338  2.1789
  234TIP3    H2  639   0.550   0.549   1.265 -0.7171  0.3164 -2.8839
  235TIP3   OH2  640   4.998   2.874   2.756  0.7873  0.1417 -0.3657
  235TIP3    H1  641   5.083   2.841   2.785  1.0832 -0.3216 -1.7187
  235TIP3    H2  642   4.945   2.795   2.745  1.1593  0.1789 -2.5580
  236TIP3   OH2  643   1.530   3.644   1.439 -0.7794 -0.2889  0.6613
  236TIP3    H1  644   1.519   3.697   1.360  2.7551 -0.5314 -0.0805
  236TIP3    H2  645   1.524   3.553   1.408  0.9606 -0.3900  0.5593
  237TIP3   OH2  646   3.112   2.649   1.990  0.6925 -0.6886  0.4321
  237TIP3    H1  647   3.176   2.578   1.995  2.2249  0.3898 -2.5935
  237TIP3    H2  648   3.123   2.697   2.072  2.7361 -1.4093  0.6084
  238TIP3   OH2  649   2.967   2.406   0.091 -0.4837  0.4609  1.0291
  238TIP3    H1  650   2.968   2.471   0.162 -0.7824  0.2735  1.2022
  238TIP3    H2  651   2.935   2.326   0.132  0.0239  0.1642  0.8468
  239TIP3   OH2  652   1.618   1.724   3.125 -0.1294 -0.4974  0.5363
  239TIP3    H1  653   1.633   1.717   3.031 -0.4619 -1.0027  0.5180
  239TIP3    H2  654   1.523   1.711   3.135 -0.3646  1.2559  0.7734
  240TIP3   OH2  655   2.285   3.224   2.458 -0.1949 -0.2131  0.1668
  240TIP3    H1  656   2.299   3.175   2.539 -0.6887  1.4657  1.3165
  240TIP3    H2  657   2.352   3.293   2.459  0.2499 -0.6047 -1.2196
  241TIP3   OH2  658   3.831   1.682   3.348 -0.0363  0.1873 -0.1153
  241TIP3    H1  659   3.841   1.639   3.263  1.9650 -1.0322  0.6896
  241TIP3    H2  660   3.755   1.639   3.388  0.8568 -1.4014 -0.0632
  242TIP3   OH2  661   3.912   2.521   1.849  0.4582 -0.5636 -0.0580
  242TIP3    H1  662   3.849   2.461   1.888  2.2112 -0.6467  2.7583
  242TIP3    H2  663   3.942   2.476   1.770 -0.7057 -1.9048  0.2509
  243TIP3   OH2  664   0.973   2.853   0.823 -0.3120  0.1784  0.5367
  243TIP3    H1  665   0.953   2.818   0.736 -1.1238 -0.0411  0.8092
  243TIP3    H2  666   0.907   2.815   0.880 -0.2856  0.9748  1.1053
  244TIP3   OH2  667   7.334   1.487   2.445  0.1646 -0.2589  0.6883
  244TIP3    H1  668   7.258   1.442   2.481 -2.5096  1.3973 -2.6173
  244TIP3    H2  669   7.347   1.563   2.501 -0.7522 -0.4609  1.1791
  245TIP3   OH2  670   2.387   0.578   2.009 -0.5586 -0.5718 -0.6472
  245TIP3    H1  671   2.339   0.496   2.018 -1.6855  0.0062 -1.2251
  245TIP3    H2  672   2.320   0.646   2.019  0.4056  0.2813  0.1049
  246TIP3   OH2  673   0.921   1.439   0.807 -0.1950 -0.2267  0.1812
  246TIP3    H1  674   0.988   1.407   0.746 -1.0441 -1.2417 -0.2341
  246TIP3    H2  675   0.879   1.511   0.761  2.9003  2.7656  1.8062
  247TIP3   OH2  676   3.905   1.543   2.784  0.4562  0.4275  0.2700
  247TIP3    H1  677   4.000   1.555   2.781  0.3734  1.0037 -0.1588
  247TIP3    H2  678   3.870   1.631   2.773 -0.1282  0.2136  0.4364
  248TIP3   OH2  679   2.090   2.535   0.910  0.3693 -0.3518 -0.1367
  248TIP3    H1  680   2.085   2.589   0.831 -1.0104 -0.7912 -0.3715
  248TIP3    H2  681   2.081   2.445   0.877 -0.2241 -0.5362  0.5088
  249TIP3   OH2  682   2.025   2.307   3.141 -0.2302  0.0497 -0.3400
  249TIP3    H1  683   2.068   2.287   3.225 -2.4248 -1.3238  0.5014
  249TIP3    H2  684   1.934   2.323   3.165 -0.7777  0.0920 -2.4309
  250TIP3   OH2  685   1.679   2.871   1.138 -0.3932 -0.6622 -0.0577
  250TIP3    H1  686   1.640   2.785   1.124 -0.7300 -0.9091  2.2665
  250TIP3    H2  687   1.616   2.918   1.193  0.1656  0.7909 -0.6248
  251TIP3   OH2  688   6.110   3.607   1.892  0.5266  0.0993 -0.1364
  251TIP3    H1  689   6.110   3.548   1.967  0.1785  0.5347  0.2096
  251TIP3    H2  690   6.021   3.601   1.857  0.2411  1.0606  0.4117
  252TIP3   OH2  691   0.300   2.295   1.362  0.2306  0.8193 -0.0028
  252TIP3    H1  692   0.250   2.327   1.287 -1.1492  0.6675  0.8256
  252TIP3    H2  693   0.260   2.338   1.437  0.2565 -0.5866  0.8354
  253TIP3   OH2  694   0.568   3.150   2.508  0.6173 -0.2269 -0.3606
  253TIP3    H1  695   0.561   3.246   2.510 -0.1285 -0.2505  3.8076
  253TIP3    H2  696   0.483   3.120   2.478 -0.0887  0.4142  0.9479
  254TIP3   OH2  697   3.717   0.878   0.847  0.6365 -0.4130  0.5644
  254TIP3    H1  698   3.752   0.789   0.839 -1.0848 -1.1343  0.8795
  254TIP3    H2  699   3.677   0.896   0.762 -0.6919 -0.6706  1.1344
  255TIP3   OH2  700   3.403   2.730   1.093  0.0924  0.3238 -0.0010
  255TIP3    H1  701   3.386   2.645   1.052  1.8159 -0.0064 -0.0710
  255TIP3    H2  702   3.354   2.792   1.039 -2.4614 -0.7542  0.9575
  256TIP3   OH2  703   0.323   1.735   2.222  0.1330  0.1920 -0.0410
  256TIP3    H1  704   0.275   1.668   2.174 -1.0756  1.2744 -0.3896
  256TIP3    H2  705   0.414   1.727   2.192  0.0193 -1.3667  0.0348
  257TIP3   OH2  706   1.510   6.840   3.060 -0.2500 -0.3216  0.1423
  257TIP3    H1  707   1.573   6.851   2.989 -2.1766 -0.2388 -1.6014
  257TIP3    H2  708   1.467   6.925   3.067 -0.9266 -0.6964  0.5526
  258TIP3   OH2  709   2.552   2.724   2.800 -0.0515  0.6674  0.6158
  258TIP3    H1  710   2.622   2.668   2.767 -1.2820 -0.7836  0.4060
  258TIP3    H2  711   2.560   2.805   2.750  2.0111  0.8701  1.2153
  259TIP3   OH2  712   1.540   2.324   3.332 -0.3143 -0.0645  0.0573
  259TIP3    H1  713   1.484   2.270   3.389 -0.4062  0.2384  0.2556
  259TIP3    H2  714   1.479   2.386   3.291  0.0292  1.0345  1.1613
  260TIP3   OH2  715   4.312   6.679   6.952 -1.1024  0.5378 -0.0760
  260TIP3    H1  716   4.237   6.729   6.921  0.0929  0.5850 -2.9634
  260TIP3    H2  717   4.317   6.603   6.894 -0.1423 -0.5451  1.3817
  261TIP3   OH2  718   0.416   3.257   2.149  0.5057  0.3604 -0.2576
  261TIP3    H1  719   0.471   3.210   2.087 -0.1382 -3.1224  1.7158
  261TIP3    H2  720   0.477   3.307   2.203  1.4980 -0.9742 -0.1358
  262TIP3   OH2  721   0.544   2.315   1.514  0.0352 -0.1676  0.1788
  262TIP3    H1  722   0.468   2.304   1.457  0.5584  1.0993 -0.7810
  262TIP3    H2  723   0.617   2.278   1.465  0.5019  1.0105 -0.0388
  263TIP3   OH2  724   1.952   0.664   1.003 -0.8549  0.3756 -0.3321
  263TIP3    H1  725   1.985   0.614   0.929  0.5357  1.8681 -0.7570
  263TIP3    H2  726   1.947   0.601   1.075  1.2543 -0.3189 -0.7442
  264TIP3   OH2  727   1.896   4.739   2.976  0.3804 -0.3209 -0.0914
  264TIP3    H1  728   1.804   4.727   3.001  0.1789  0.9619 -0.1840
  264TIP3    H2  729   1.893   4.787   2.894  1.1415  0.2995  0.2338
  265TIP3   OH2  730   2.117   0.894   1.025 -0.0532  0.1185  0.2802
  265TIP3    H1  731   2.138   0.920   1.115  0.6020 -0.5692  0.3337
  265TIP3    H2  732   2.034   0.847   1.032  0.0563 -0.0394  0.5431
  266TIP3   OH2  733   1.274   1.995   1.233  0.0630  0.0308 -0.2469
  266TIP3    H1  734   1.187   1.956   1.235 -0.1425  0.3876 -1.6636
  266TIP3    H2  735   1.331   1.932   1.277 -0.7825 -0.5256  0.0433
  267TIP3   OH2  736   6.251   2.805   2.561 -0.0323 -0.8488  0.1177
  267TIP3    H1  737   6.217   2.743   2.497 -2.1581 -1.1063  1.4754
  267TIP3    H2  738   6.197   2.883   2.549  1.5950  0.2283 -0.4893
  268TIP3   OH2  739   0.596   2.128   2.039  0.1750  0.5885  0.5089
  268TIP3    H1  740   0.518   2.080   2.065 -1.5354  1.7928 -2.1249
  268TIP3    H2  741   0.600   2.202   2.100 -0.4495  0.2349  0.9832
  269TIP3   OH2  742   3.910   1.965   2.118 -0.2298 -0.6515  0.3609
  269TIP3    H1  743   3.948   1.966   2.205  0.5733  0.4929  0.0190
  269TIP3    H2  744   3.966   1.907   2.067  0.4385  0.1663  0.1401
  270TIP3   OH2  745   3.048   0.834   3.693  0.1446  0.0918 -0.0776
  270TIP3    H1  746   3.002   0.870   3.769  0.0558 -1.5774  0.6677
  270TIP3    H2  747   3.119   0.782   3.730  0.4158 -0.3132 -1.1501
  271TIP3   OH2  748   1.877   1.379   1.667 -0.1047 -0.1167 -0.4294
  271TIP3    H1  749   1.901   1.422   1.749 -1.8253 -0.2536  0.1638
  271TIP3    H2  750   1.782   1.370   1.671 -0.1144 -0.9916 -2.0192
  272TIP3   OH2  751   2.012   1.110   3.715 -0.2595  0.1988  0.1974
  272TIP3    H1  752   2.011   1.043   3.647 -0.0845 -1.6040  1.9260
  272TIP3    H2  753   1.923   1.145   3.716 -0.5512 -0.5216 -0.2326
  273TIP3   OH2  754   5.268   1.272   0.620  0.1911 -0.1101 -0.3472
  273TIP3    H1  755   5.316   1.354   0.624  0.0864 -0.0935  0.9306
  273TIP3    H2  756   5.324   1.209   0.667 -1.0618 -0.0581  1.2746
  274TIP3   OH2  757   0.078   1.244   1.233 -0.2907 -0.5194  0.1679
  274TIP3    H1  758   0.042   1.185   1.300  0.8345 -0.6780  0.6469
  274TIP3    H2  759   0.100   1.186   1.160  1.3383 -0.7711  0.8579
  275TIP3   OH2  760   2.584   1.870   1.317 -0.2251 -0.0017 -0.3026
  275TIP3    H1  761   2.617   1.904   1.234 -0.1479  3.1766  0.9494
  275TIP3    H2  762   2.638   1.914   1.383 -2.9856  0.7023  1.5670
  276TIP3   OH2  763   3.374   2.285   2.734  0.0019  0.5179 -0.3945
  276TIP3    H1  764   3.333   2.225   2.796  2.5034 -1.1526 -0.2709
  276TIP3    H2  765   3.468   2.273   2.748  0.5825  1.9576 -2.7928
  277TIP3   OH2  766   2.791   5.308   3.894 -0.2275  0.5634 -0.9626
  277TIP3    H1  767   2.830   5.326   3.980 -0.2782  0.1249 -0.8492
  277TIP3    H2  768   2.856   5.254   3.849 -0.1803  0.8292 -1.2201
  278TIP3   OH2  769   5.522   5.551   6.734  0.0757 -0.1106  0.7442
  278TIP3    H1  770   5.540   5.548   6.640 -2.7415  1.7095  0.0590
  278TIP3    H2  771   5.468   5.474   6.750 -0.6726  0.3546  0.5286
  279TIP3   OH2  772   2.104   2.654   0.641  0.3302  0.8460 -0.4302
  279TIP3    H1  773   2.016   2.691   0.627 -0.0318 -0.4578 -1.6595
  279TIP3    H2  774   2.152   2.675   0.561 -0.2123 -2.2198 -1.6275
  280TIP3   OH2  775   3.049  -0.009   3.038  0.4171  0.2189  0.1565
  280TIP3    H1  776   3.051   0.083   3.011  1.1068 -0.3794 -1.9254
  280TIP3    H2  777   2.996  -0.052   2.971 -0.8361 -0.7256  1.7335
  281TIP3   OH2  778   0.522   3.572   3.137 -0.0597 -0.6218 -0.2924
  281TIP3    H1  779   0.512   3.664   3.115 -2.2297 -0.5797  0.6895
  281TIP3    H2  780   0.473   3.525   3.069 -0.6812 -0.9074  0.3368
  282TIP3   OH2  781   3.419   3.495   0.915 -0.1535  0.0715  0.3364
  282TIP3    H1  782   3.467   3.540   0.985 -1.1083  0.7764  0.5491
  282TIP3    H2  783   3.336   3.543   0.908 -0.6089 -0.8054 -0.3872
  283TIP3   OH2  784   0.846   2.556   1.891  0.0389  0.3100 -0.4715
  283TIP3    H1  785   0.774   2.502   1.925  0.0660 -0.0879 -1.0386
  283TIP3    H2  786   0.804   2.622   1.836 -0.0116  1.0088  0.3963
  284TIP3   OH2  787   3.917   3.224   2.577  0.0061  0.1796 -0.5185
  284TIP3    H1  788   3.986   3.272   2.530  0.5327  1.0845  1.1445
  284TIP3    H2  789   3.838   3.276   2.563 -0.0242 -0.0376 -1.1575
  285TIP3   OH2  790   3.436   3.225   2.149  0.5463 -0.4814 -0.3016
  285TIP3    H1  791   3.368   3.290   2.166 -1.6892 -1.9060 -3.2057
  285TIP3    H2  792   3.517   3.276   2.145 -0.8267  1.8075 -0.2902
  286TIP3   OH2  793   1.580   7.366   1.051 -0.0217  0.0097  0.0620
  286TIP3    H1  794   1.590   7.375   1.145  2.1034 -2.0799  0.0904
  286TIP3    H2  795   1.575   7.456   1.019  2.1562  0.8408  1.9085
  287TIP3   OH2  796   6.908   7.847   1.340  0.1883 -0.0665 -0.0406
  287TIP3    H1  797   6.885   7.819   1.251 -0.3931 -1.0551  0.4143
  287TIP3    H2  798   6.861   7.930   1.352 -1.3166 -0.9178  0.0456
  288TIP3   OH2  799   4.458   2.098   1.820 -0.1923 -0.3421 -0.4919
  288TIP3    H1  800   4.484   2.146   1.742  1.5128  0.7558  0.7071
  288TIP3    H2  801   4.396   2.033   1.789 -1.0223  1.3431 -2.4521
  289TIP3   OH2  802   4.118   1.303   0.037  0.0290  0.3117 -0.3132
  289TIP3    H1  803   4.213   1.298   0.032  0.0562  0.6768 -0.1271
  289TIP3    H2  804   4.096   1.387  -0.004 -0.2826 -0.2267 -1.2802
  290TIP3   OH2  805   2.512   2.200   1.482  0.5062  0.3062 -0.0553
  290TIP3    H1  806   2.535   2.151   1.561 -0.0076 -1.6017 -1.0607
  290TIP3    H2  807   2.432   2.158   1.450  0.0071  1.8594 -0.9175
  291TIP3   OH2  808   6.651   4.373   6.800  0.3531 -0.2441 -0.4795
  291TIP3    H1  809   6.729   4.395   6.749  2.2513 -1.4605  1.7960
  291TIP3    H2  810   6.618   4.292   6.760  1.7383 -1.1030  0.0829
  292TIP3   OH2  811   6.417   6.860   6.349 -0.3094  0.1899  0.1002
  292TIP3    H1  812   6.419   6.952   6.323  0.3380  0.1646  0.0435
  292TIP3    H2  813   6.386   6.862   6.440  0.6800  0.5480  0.4351
  293TIP3   OH2  814   4.576   6.159   6.410 -0.3074 -0.0976  0.2458
  293TIP3    H1  815   4.644   6.093   6.429 -0.0445  0.3944  1.0589
  293TIP3    H2  816   4.617   6.219   6.349  0.1519  0.4545  1.0876
  294TIP3   OH2  817   4.242   0.821   0.304 -0.0798 -0.4220  0.2298
  294TIP3    H1  818   4.218   0.882   0.235  1.3303  0.3735  0.4278
  294TIP3    H2  819   4.288   0.874   0.369  0.0386 -1.4604  1.0169
  295TIP3   OH2  820   5.563   2.209   2.042 -0.2189 -0.0829 -0.4137
  295TIP3    H1  821   5.472   2.183   2.034 -0.8218  1.8614 -0.2083
  295TIP3    H2  822   5.568   2.292   1.995  0.8161  1.1818  1.8508
  296TIP3   OH2  823   0.394   2.881   2.141 -0.0070  0.3441 -0.4615
  296TIP3    H1  824   0.470   2.934   2.117  0.9447 -0.2990  1.0745
  296TIP3    H2  825   0.332   2.895   2.070  0.4623  3.0318 -0.3896
  297TIP3   OH2  826   3.852   2.908   0.159  0.1774  0.0783 -0.6943
  297TIP3    H1  827   3.814   2.832   0.204 -1.1463 -0.1110 -2.0917
  297TIP3    H2  828   3.788   2.930   0.091  2.0623  0.4712 -2.3744
  298TIP3   OH2  829   3.794   2.420   2.222 -0.4132 -0.2364 -0.0354
  298TIP3    H1  830   3.799   2.510   2.255 -0.2526  0.1244 -1.0026
  298TIP3    H2  831   3.745   2.428   2.140  0.3205 -0.9104 -0.5446
  299TIP3   OH2  832   5.893   1.303   0.789  0.0171 -0.2648  0.0805
  299TIP3    H1  833   5.852   1.371   0.842 -2.1728 -0.9251 -0.7293
  299TIP3    H2  834   5.953   1.351   0.731  1.9494  0.5218  2.6296
  300TIP3   OH2  835   4.176   6.180   5.683  0.0737  0.0381 -0.2719
  300TIP3    H1  836   4.214   6.227   5.756 -0.4742 -0.9233  0.6537
  300TIP3    H2  837   4.163   6.091   5.716  2.2539 -1.1204 -2.3555
  301TIP3   OH2  838   3.454   3.287   0.296 -0.5422  0.7722  0.1916
  301TIP3    H1  839   3.538   3.250   0.325 -0.9452 -0.5557 -0.2994
  301TIP3    H2  840   3.390   3.218   0.314 -1.4098  1.4696 -0.1785
  302TIP3   OH2  841   6.100   1.576   4.053  0.0922 -0.0522 -0.1147
  302TIP3    H1  842   6.027   1.525   4.019 -0.5667 -0.0002  1.1890
  302TIP3    H2  843   6.145   1.609   3.975 -1.7157  0.5457 -0.9264
  303TIP3   OH2  844   1.143   1.144   2.737  0.3386  0.0326 -0.1707
  303TIP3    H1  845   1.214   1.083   2.715  0.8515  0.5126  0.1175
  303TIP3    H2  846   1.070   1.088   2.763  1.1194 -0.4473  1.0580
  304TIP3   OH2  847   5.195   2.263   1.195 -0.1253  0.5575 -0.2601
  304TIP3    H1  848   5.254   2.308   1.256 -1.3329  3.0674 -0.8912
  304TIP3    H2  849   5.248   2.250   1.116  0.1112  1.2595 -0.2199
  305TIP3   OH2  850   7.967   4.700   6.597  0.3287 -0.3168  0.3175
  305TIP3    H1  851   7.940   4.757   6.525  1.4996 -1.4271 -1.0345
  305TIP3    H2  852   8.032   4.751   6.646  0.2251  0.0821  0.0424
  306TIP3   OH2  853   7.662   3.301   6.822  0.1831  0.2738  0.1312
  306TIP3    H1  854   7.584   3.263   6.862  0.4768 -0.0894  0.3612
  306TIP3    H2  855   7.643   3.395   6.817 -0.1857  0.2132  0.3767
  307TIP3   OH2  856   7.791   0.104   1.832 -0.2372  0.2451 -0.5494
  307TIP3    H1  857   7.773   0.193   1.862 -0.2889  0.6695 -1.8033
  307TIP3    H2  858   7.711   0.078   1.785 -1.6785 -1.8361  2.8377
  308TIP3   OH2  859   3.652   2.134   1.601 -0.2192 -0.1611 -0.3692
  308TIP3    H1  860   3.614   2.220   1.587  2.7014  1.2562 -0.0026
  308TIP3    H2  861   3.639   2.088   1.518 -0.7617  1.0456 -0.9583
  309TIP3   OH2  862   6.743   0.939   1.348  0.3536  0.3160  0.1747
  309TIP3    H1  863   6.751   0.970   1.439  2.3309  0.8332 -0.1522
  309TIP3    H2  864   6.709   0.850   1.356 -2.9507  1.5786  1.2420
  310TIP3   OH2  865   5.829   0.728   2.363 -0.7727  0.3363 -0.6433
  310TIP3    H1  866   5.886   0.775   2.424  3.0171 -1.0583 -2.9522
  310TIP3    H2  867   5.840   0.773   2.279 -2.9290 -0.1322 -1.2171
  311TIP3   OH2  868   0.418   0.232   0.751  0.1132 -0.6339  0.5768
  311TIP3    H1  869   0.348   0.291   0.722  0.4341  0.0941  1.2638
  311TIP3    H2  870   0.474   0.221   0.675  1.1989  1.6169  1.0166
  312TIP3   OH2  871   4.736   6.238   5.782  0.0400 -0.2192 -0.1758
  312TIP3    H1  872   4.819   6.201   5.749  0.1756  0.2253 -0.3423
  312TIP3    H2  873   4.677   6.163   5.787  0.4407 -0.5339 -0.1016
  313TIP3   OH2  874   7.632   7.680   0.096  0.1810  0.4393  0.4572
  313TIP3    H1  875   7.579   7.619   0.046  0.1459  1.7729 -1.1832
  313TIP3    H2  876   7.569   7.738   0.138  0.2923  1.1411 -0.3400
  314TIP3   OH2  877   4.618   3.095   1.965 -0.2734 -0.0006  0.1018
  314TIP3    H1  878   4.706   3.079   1.928 -1.3313 -0.0657 -2.4853
  314TIP3    H2  879   4.624   3.181   2.005  1.7092 -1.1077  2.3387
  315TIP3   OH2  880   6.113   2.721   1.320 -0.5536  0.2962  0.2870
  315TIP3    H1  881   6.149   2.810   1.325  1.2725 -0.3108 -1.1056
  315TIP3    H2  882   6.109   2.692   1.410 -0.3949  1.5124  0.7017
  316TIP3   OH2  883   6.793   2.112   2.035  0.2625 -0.7833 -0.4814
  316TIP3    H1  884   6.793   2.176   1.964  0.7799  0.7339  0.8560
  316TIP3    H2  885   6.700   2.095   2.052  0.1356 -0.8715 -1.2683
  317TIP3   OH2  886   4.754   2.057   0.878  0.0080 -0.5486  0.3868
  317TIP3    H1  887   4.670   2.063   0.833  0.1783 -1.5113 -0.0603
  317TIP3    H2  888   4.816   2.033   0.809  0.2893 -1.9137  1.1031
  318TIP3   OH2  889   5.275   1.338   1.559  0.1992 -0.2310  0.0994
  318TIP3    H1  890   5.247   1.428   1.544  0.4521 -0.1313  0.2269
  318TIP3    H2  891   5.371   1.341   1.554  0.1688 -0.6575 -0.8052
  319TIP3   OH2  892   2.729   0.658   0.434  0.0246  0.4294  0.5982
  319TIP3    H1  893   2.782   0.593   0.388  0.7160  1.1217  0.3891
  319TIP3    H2  894   2.738   0.635   0.526 -1.2416 -0.8735  0.4106
  320TIP3   OH2  895   2.850   8.010   2.092 -0.1111  0.1111  0.2527
  320TIP3    H1  896   2.939   8.046   2.087 -0.4536  1.2711  2.1512
  320TIP3    H2  897   2.844   7.972   2.179 -0.2150 -3.5018 -1.2672
  321TIP3   OH2  898   2.989   2.775   0.837  0.1540 -0.4013 -0.1922
  321TIP3    H1  899   3.004   2.768   0.743  2.7268 -0.0397  0.1590
  321TIP3    H2  900   2.927   2.848   0.847  2.8200  2.1284 -1.3999
  322TIP3   OH2  901   5.997   2.539   0.674 -0.0667  0.7427  0.6540
  322TIP3    H1  902   6.025   2.477   0.740 -1.7373 -3.2676 -2.1964
  322TIP3    H2  903   6.074   2.550   0.618 -0.8294 -1.8107 -0.9820
  323TIP3   OH2  904   6.013   1.215   1.346 -0.0118  0.3766  0.0032
  323TIP3    H1  905   6.094   1.164   1.348 -1.0002 -1.3523 -1.5118
  323TIP3    H2  906   6.014   1.267   1.426  2.5396  0.3012  0.0364
  324TIP3   OH2  907   4.696   0.591   0.109  0.2288  0.3778  0.0185
  324TIP3    H1  908   4.607   0.592   0.142  0.1291 -0.8326 -0.1884
  324TIP3    H2  909   4.703   0.509   0.060  1.9557 -0.3735  1.4441
  325TIP3   OH2  910   2.169   7.710   1.707 -0.0767 -0.6270  0.1460
  325TIP3    H1  911   2.078   7.739   1.702  0.0029 -0.3670  0.1966
  325TIP3    H2  912   2.187   7.703   1.801 -0.2311 -1.2702  0.1289
  326TIP3   OH2  913   3.893   3.459   0.640  0.1413  0.4094 -1.0365
  326TIP3    H1  914   3.951   3.383   0.640 -0.9950 -0.4833 -2.4108
  326TIP3    H2  915   3.942   3.527   0.687  0.6556 -1.5489  1.3644
  327TIP3   OH2  916   5.201   0.771   0.758 -0.6164  0.2780 -0.2599
  327TIP3    H1  917   5.128   0.833   0.758 -0.0928  0.9007 -1.3192
  327TIP3    H2  918   5.237   0.776   0.670  1.6693  1.1306  0.6880
  328TIP3   OH2  919   6.976   5.010   6.366  0.0767  0.0795  0.4665
  328TIP3    H1  920   6.933   5.096   6.365 -0.4576 -0.1659 -2.6514
  328TIP3    H2  921   6.964   4.978   6.456 -3.2651  1.5243  0.5964
  329TIP3   OH2  922   2.906   1.636   1.816 -0.0085  0.0625  0.0258
  329TIP3    H1  923   2.888   1.646   1.910  2.8423 -0.5254  0.7060
  329TIP3    H2  924   2.960   1.556   1.811 -1.9053 -1.1398 -2.3839
  330TIP3   OH2  925   3.374   3.680   2.158  0.2147  0.1097 -0.4580
  330TIP3    H1  926   3.323   3.625   2.217  0.1545 -0.3559 -0.9344
  330TIP3    H2  927   3.438   3.620   2.119  0.9399  0.6340 -0.0774
  331TIP3   OH2  928   1.520   1.534   1.571  0.6414  0.1687 -0.1045
  331TIP3    H1  929   1.520   1.620   1.530 -0.5924  1.1349  1.8369
  331TIP3    H2  930   1.513   1.472   1.498 -1.0502  1.8116 -1.3659
  332TIP3   OH2  931   1.096   2.150   0.871 -0.0001 -0.0727 -0.2270
  332TIP3    H1  932   1.027   2.084   0.875 -2.5319  2.5253  1.2766
  332TIP3    H2  933   1.049   2.232   0.851  2.7805  1.6140 -0.0745
  333TIP3   OH2  934   3.364   0.415   2.086 -0.0337  0.1658  0.0284
  333TIP3    H1  935   3.280   0.404   2.041  0.0340 -0.9448  0.1421
  333TIP3    H2  936   3.390   0.326   2.110  0.6968  0.5956  0.8802
  334TIP3   OH2  937   8.019   5.966   6.497 -0.3917  0.0162 -0.2237
  334TIP3    H1  938   7.995   5.874   6.490  2.8143 -0.7879 -1.5883
  334TIP3    H2  939   8.005   5.988   6.589  0.4848 -2.3309  0.4954
  335TIP3   OH2  940   5.296   3.001   0.992  0.0433 -0.2512 -0.5892
  335TIP3    H1  941   5.364   2.992   0.926  2.0521 -2.5226  1.7049
  335TIP3    H2  942   5.241   2.924   0.981  1.0546 -1.2421  1.0680
  336TIP3   OH2  943   6.384   1.594   2.567 -0.4935  0.6264  0.0121
  336TIP3    H1  944   6.363   1.624   2.479  2.1751 -1.4237 -1.4186
  336TIP3    H2  945   6.310   1.538   2.592 -1.3841  1.4268 -0.8112
  337TIP3   OH2  946   5.565   0.660   2.272 -0.7691  0.4232 -0.0295
  337TIP3    H1  947   5.640   0.715   2.297 -0.1757  0.2133 -1.2930
  337TIP3    H2  948   5.563   0.592   2.339 -0.0665  0.6470  0.2346
  338TIP3   OH2  949   4.138   2.930   2.388 -0.2298  0.4751 -0.0670
  338TIP3    H1  950   4.201   2.879   2.440 -0.6127  1.1595  1.0863
  338TIP3    H2  951   4.192   2.995   2.344 -0.0130  0.4611  0.1728
  339TIP3   OH2  952   3.323   0.692   0.212  0.7170  0.3920 -0.1402
  339TIP3    H1  953   3.329   0.655   0.300 -1.1005 -1.1983 -0.6546
  339TIP3    H2  954   3.414   0.696   0.181  1.2520 -0.2085  1.3168
  340TIP3   OH2  955   5.639   2.605   3.928 -0.4898 -0.4632  0.3542
  340TIP3    H1  956   5.635   2.684   3.982 -1.8738 -1.0487  1.1550
  340TIP3    H2  957   5.621   2.636   3.839 -2.7416 -0.0566  0.9031
  341TIP3   OH2  958   1.627   0.149   1.683 -0.1576 -0.5174 -0.0860
  341TIP3    H1  959   1.700   0.204   1.714 -0.7291 -0.5897  1.4573
  341TIP3    H2  960   1.548   0.199   1.707 -0.6698 -1.7704  0.9097
  342TIP3   OH2  961   0.725   7.790   0.420 -0.3517 -0.5400 -0.5403
  342TIP3    H1  962   0.733   7.732   0.344  1.1285 -0.1777 -0.6681
  342TIP3    H2  963   0.645   7.761   0.464 -0.0465 -2.1532 -1.0404
  343TIP3   OH2  964   8.031   7.323   3.658  0.3650 -0.0623 -0.0370
  343TIP3    H1  965   8.024   7.273   3.739  0.2598  0.0140  0.0007
  343TIP3    H2  966   7.946   7.365   3.647  0.2392 -0.4139 -0.4111
  344TIP3   OH2  967   3.281   1.504   1.838 -0.2941 -0.3362  0.2370
  344TIP3    H1  968   3.206   1.451   1.814 -1.5026  1.3406  0.2427
  344TIP3    H2  969   3.331   1.514   1.757 -0.3301 -1.0417  0.1298
  345TIP3   OH2  970   4.186   1.755   2.523 -0.8540 -0.4596 -0.6250
  345TIP3    H1  971   4.160   1.674   2.480 -0.5098  0.5475 -2.7902
  345TIP3    H2  972   4.271   1.735   2.562 -1.3300 -1.4901 -0.1027
  346TIP3   OH2  973   5.408   0.606   1.521 -0.1350 -0.1176 -0.0848
  346TIP3    H1  974   5.327   0.592   1.472 -0.2302  0.6848 -0.1646
  346TIP3    H2  975   5.383   0.664   1.593  0.1870 -0.5711  0.3989
  347TIP3   OH2  976   1.975   1.622   0.962 -0.4238 -0.0393 -0.6495
  347TIP3    H1  977   2.026   1.670   1.027 -0.1416 -0.6647 -0.4062
  347TIP3    H2  978   2.038   1.564   0.920 -0.9470 -0.8982 -0.2761
  348TIP3   OH2  979   7.909   5.256   5.930 -0.0539  0.1367 -0.3506
  348TIP3    H1  980   7.862   5.203   5.994  0.6425  0.0748  0.1093
  348TIP3    H2  981   7.987   5.287   5.976  0.8600 -0.5639 -1.4009
  349TIP3   OH2  982   4.649   1.255   2.195 -0.0872 -0.9765  0.0026
  349TIP3    H1  983   4.590   1.199   2.145 -1.5793  1.2466 -0.7931
  349TIP3    H2  984   4.733   1.210   2.192 -1.3657 -3.3932 -0.2047
  350TIP3   OH2  985   6.927   5.569   6.822 -0.4048  0.2248 -0.8575
  350TIP3    H1  986   7.011   5.590   6.861 -1.4381 -0.0266  1.6274
  350TIP3    H2  987   6.874   5.648   6.834 -1.2947 -0.4630 -0.1166
  351TIP3   OH2  988   4.328   1.892   1.067  0.8041 -0.1485  0.1735
  351TIP3    H1  989   4.254   1.907   1.126  1.1775  2.7815 -0.0078
  351TIP3    H2  990   4.332   1.797   1.056 -2.9165 -0.3810  0.2399
  352TIP3   OH2  991   4.883   1.950   2.029  0.3391 -0.5114 -0.7731
  352TIP3    H1  992   4.831   1.989   1.959 -0.8595 -1.8253 -0.6462
  352TIP3    H2  993   4.966   1.928   1.989  0.8900  1.7189 -0.9605
  353TIP3   OH2  994   1.370   7.860   0.334  0.2585  0.3244 -0.0011
  353TIP3    H1  995   1.338   7.819   0.254  0.9092  0.3758 -0.2910
  353TIP3    H2  996   1.387   7.786   0.393  0.5367  0.2320 -0.1940
  354TIP3   OH2  997   3.262   0.019   0.669 -0.1723  0.4315  0.3398
  354TIP3    H1  998   3.219   0.103   0.654 -0.7713  0.1530  0.4997
  354TIP3    H2  999   3.291   0.023   0.759 -0.4080  0.3760  0.4192
  355TIP3   OH2 1000   5.581   2.011   0.569  0.3603  0.0751  0.4216
  355TIP3    H1 1001   5.492   1.978   0.582  0.3157  0.1878  0.4077
  355TIP3    H2 1002   5.597   2.066   0.646  0.0157  0.9203 -0.1093
  356TIP3   OH2 1003   6.664   3.454   6.711  0.2096 -0.5448 -0.2759
  356TIP3    H1 1004   6.648   3.373   6.759 -0.8283  0.3175  0.8674
  356TIP3    H2 1005   6.755   3.446   6.680 -0.0818 -2.3952 -0.7152
  357TIP3   OH2 1006   6.829   5.718   6.164  0.0219 -0.3147 -0.1055
  357TIP3    H1 1007   6.846   5.758   6.079  0.8250  0.0795  0.2357
  357TIP3    H2 1008   6.866   5.780   6.228  1.8851 -1.8960  0.4032
  358TIP3   OH2 1009   5.184   2.196   2.504 -0.2353  0.0999  0.0892
  358TIP3    H1 1010   5.277   2.193   2.482 -0.5183 -0.8036 -1.0703
  358TIP3    H2 1011   5.140   2.179   2.421 -1.4736  1.7498  0.3824
  359TIP3   OH2 1012   1.304   4.702   5.207  0.1786  0.2707  0.1746
  359TIP3    H1 1013   1.286   4.654   5.288 -2.0796 -0.7497 -0.8873
  359TIP3    H2 1014   1.346   4.637   5.150 -0.0824  0.4246 -0.1905
  360TIP3   OH2 1015   2.213   1.566   2.020  0.2346  0.2869  0.1542
  360TIP3    H1 1016   2.143   1.551   2.084 -0.0865 -0.0884 -0.2862
  360TIP3    H2 1017   2.293   1.552   2.070 -0.0304 -1.3935  0.1462
  361TIP3   OH2 1018   5.713   2.538   0.610  0.0925 -0.1679  0.2376
  361TIP3    H1 1019   5.787   2.523   0.668 -1.1280 -0.7163  1.6577
  361TIP3    H2 1020   5.704   2.456   0.561  1.0509  0.2577 -0.6963
  362TIP3   OH2 1021   4.287   7.599   1.977  0.1514 -0.1690 -0.0303
  362TIP3    H1 1022   4.340   7.520   1.972  0.5558  0.0753  0.3570
  362TIP3    H2 1023   4.214   7.583   1.918  1.0139 -0.2435 -1.0917
  363TIP3   OH2 1024   4.483   0.387   0.250 -0.1218 -0.2186  0.4535
  363TIP3    H1 1025   4.415   0.371   0.315 -0.3267  0.1747  0.3376
  363TIP3    H2 1026   4.435   0.401   0.168 -0.0074  1.8045  0.7073
  364TIP3   OH2 1027   6.443   4.256   1.435 -0.2262 -0.4554  0.2028
  364TIP3    H1 1028   6.456   4.163   1.419 -2.9686 -0.6434 -1.1912
  364TIP3    H2 1029   6.480   4.299   1.358 -1.4056 -0.5559 -0.4198
  365TIP3   OH2 1030   5.669   1.710   1.167  0.5365  0.0914  0.2067
  365TIP3    H1 1031   5.741   1.691   1.227 -1.3805 -1.8346  1.9729
  365TIP3    H2 1032   5.590   1.683   1.214 -1.2978  1.3358 -2.0236
  366TIP3   OH2 1033   5.224   2.168   0.828 -0.0267  0.2299 -0.4406
  366TIP3    H1 1034   5.182   2.142   0.746  1.6796  0.2936 -1.3472
  366TIP3    H2 1035   5.304   2.212   0.801 -0.4553  2.0583  1.2318
  367TIP3   OH2 1036   6.266   1.111   1.432 -0.3744 -0.2763 -0.3413
  367TIP3    H1 1037   6.341   1.076   1.479  0.1689 -1.2807 -1.9093
  367TIP3    H2 1038   6.300   1.188   1.386 -1.5779  2.4709  3.1476
  368TIP3   OH2 1039   3.529   2.367   2.513  0.2053 -0.2403  0.0342
  368TIP3    H1 1040   3.460   2.344   2.574 -0.0766 -0.0462 -0.2064
  368TIP3    H2 1041   3.580   2.287   2.503 -0.6005 -0.6908 -0.5861
  369TIP3   OH2 1042   1.207   5.779   6.262  0.6615  0.0786  0.8438
  369TIP3    H1 1043   1.116   5.749   6.254  0.7241 -0.2615  1.3752
  369TIP3    H2 1044   1.256   5.719   6.206  0.7562 -0.6733  1.7287
  370TIP3   OH2 1045   3.437   2.808   0.269 -0.4299 -0.1042 -0.2740
  370TIP3    H1 1046   3.479   2.761   0.341 -0.9932 -0.1337  0.0404
  370TIP3    H2 1047   3.508   2.826   0.208  0.6428  2.5532  1.6486
  371TIP3   OH2 1048   1.606   7.931   0.484 -0.2955 -0.3589  0.2043
  371TIP3    H1 1049   1.528   7.924   0.430 -0.1946  2.2455 -0.3373
  371TIP3    H2 1050   1.595   8.013   0.532  1.0110 -1.1403  1.9135
  372TIP3   OH2 1051   4.433   1.025   0.059 -0.3236 -0.0262 -0.5565
  372TIP3    H1 1052   4.473   0.949   0.017  0.5969  0.8057 -1.2018
  372TIP3    H2 1053   4.339   1.008   0.054 -0.0762 -2.5276  1.9530
  373TIP3   OH2 1054   4.994   6.117   6.618 -0.1421 -0.3203 -0.2105
  373TIP3    H1 1055   4.954   6.056   6.680 -0.6264  0.1652 -0.0312
  373TIP3    H2 1056   4.965   6.204   6.648 -0.3263 -0.0776 -1.0722
  374TIP3   OH2 1057   1.867   0.513   1.710 -0.2914 -0.2031  0.3104
  374TIP3    H1 1058   1.945   0.570   1.715 -0.6894  0.3132  0.6661
  374TIP3    H2 1059   1.796   0.567   1.745 -0.1501 -1.8924  3.2996
  375TIP3   OH2 1060   4.892   1.944   0.678 -0.1192  0.2223  0.1661
  375TIP3    H1 1061   4.834   1.891   0.623 -0.8646 -0.8259  1.9012
  375TIP3    H2 1062   4.973   1.892   0.683 -0.0690  0.2929  0.0834
  376TIP3   OH2 1063   6.644   5.685   6.503  0.0127 -0.0627 -0.1043
  376TIP3    H1 1064   6.579   5.644   6.446 -0.8069 -0.2831  0.9659
  376TIP3    H2 1065   6.594   5.745   6.558  0.8583  0.5149  0.0574
  377TIP3   OH2 1066   6.262   5.716   6.831 -0.4449 -0.2721 -1.0122
  377TIP3    H1 1067   6.217   5.643   6.788 -0.5822 -2.0315  1.9924
  377TIP3    H2 1068   6.192   5.766   6.873 -0.1310  0.4295 -1.3089
  378TIP3   OH2 1069   7.153   1.722   2.736  0.0733 -0.0833  0.1879
  378TIP3    H1 1070   7.171   1.785   2.805 -1.6065 -0.2308  0.7833
  378TIP3    H2 1071   7.218   1.741   2.668  0.1323  1.6957  0.7286
  379TIP3   OH2 1072   0.879   7.109   0.974  0.2161  0.6909 -0.1732
  379TIP3    H1 1073   0.854   7.026   1.015  2.7164 -0.3857 -0.7625
  379TIP3    H2 1074   0.962   7.133   1.015  0.2202  2.2116 -0.9990
  380TIP3   OH2 1075   6.018   4.822   6.351 -0.6502  0.1544 -0.0249
  380TIP3    H1 1076   6.086   4.799   6.414 -0.0892  1.7698 -0.0129
  380TIP3    H2 1077   5.939   4.833   6.405 -0.6819 -0.6410  0.1004
  381TIP3   OH2 1078   4.112   1.009   0.515  0.0527 -0.6564 -0.1853
  381TIP3    H1 1079   4.018   1.005   0.497 -0.3068  1.1242  1.1155
  381TIP3    H2 1080   4.145   1.078   0.457 -0.2527  1.7229  2.3612
  382TIP3   OH2 1081   3.038   2.578   1.711 -0.2114 -0.4329 -0.2350
  382TIP3    H1 1082   3.095   2.583   1.788  0.2802 -0.2456 -0.6083
  382TIP3    H2 1083   3.036   2.667   1.676  1.5567 -0.9882 -1.8535
  383TIP3   OH2 1084   8.126   7.354   1.143  0.4686  0.0931  0.0359
  383TIP3    H1 1085   8.126   7.298   1.065  0.0867  0.3646 -0.1614
  383TIP3    H2 1086   8.087   7.300   1.211  0.8194 -0.1531  0.0445
  384TIP3   OH2 1087   4.924   1.729   1.534  0.1669 -0.4652  0.1738
  384TIP3    H1 1088   4.893   1.759   1.619 -0.3522 -0.5581  0.0194
  384TIP3    H2 1089   4.902   1.800   1.473  2.4138  0.5019  0.4694
  385TIP3   OH2 1090   7.067   1.598   1.111 -0.2685 -0.4820  0.2629
  385TIP3    H1 1091   7.091   1.516   1.154  1.1798 -0.4374 -0.4325
  385TIP3    H2 1092   7.113   1.596   1.027 -1.3144  0.4258 -0.3604
  386TIP3   OH2 1093   6.308   2.353   1.915 -0.0251  0.0456 -0.3839
  386TIP3    H1 1094   6.371   2.332   1.846  0.1148 -0.6924 -0.0296
  386TIP3    H2 1095   6.303   2.449   1.914 -0.6438  0.0096 -1.9610
  387TIP3   OH2 1096   6.562   0.731   0.127  0.3393 -0.0275 -0.2324
  387TIP3    H1 1097   6.578   0.684   0.210  0.4263  0.9020  0.2792
  387TIP3    H2 1098   6.539   0.662   0.065 -0.7866 -0.6356  0.8297
  388TIP3   OH2 1099   2.693   3.692   2.530 -0.1155  0.7416  0.4001
  388TIP3    H1 1100   2.625   3.760   2.526 -0.0515  0.7400 -1.0167
  388TIP3    H2 1101   2.647   3.612   2.506  0.7622  1.0495 -2.4810
  389TIP3   OH2 1102   2.863   3.927   0.500 -0.6236 -0.3526  0.0879
  389TIP3    H1 1103   2.809   3.853   0.527 -0.4410 -0.7870 -0.7440
  389TIP3    H2 1104   2.915   3.894   0.427 -0.8380  0.7150 -0.5573
  390TIP3   OH2 1105   2.799   2.918   1.017  0.0090  0.0985 -0.4702
  390TIP3    H1 1106   2.774   3.010   1.017  0.6522  0.2825 -0.0512
  390TIP3    H2 1107   2.846   2.907   1.100  2.4124  0.0832 -1.7959
  391TIP3   OH2 1108   5.398   1.814   2.804  0.1556  0.2244  0.1951
  391TIP3    H1 1109   5.325   1.813   2.867  0.0043  3.6947  0.2253
  391TIP3    H2 1110   5.358   1.794   2.720 -0.6508  0.8659  0.4151
  392TIP3   OH2 1111   5.156   4.591   5.247 -0.2740  0.2347 -0.2512
  392TIP3    H1 1112   5.148   4.661   5.182  2.4794  0.7649 -0.0652
  392TIP3    H2 1113   5.093   4.525   5.218 -0.0418  1.0502 -2.7271
  393TIP3   OH2 1114   4.234   2.522   2.512 -0.1477 -0.1934 -0.4636
  393TIP3    H1 1115   4.313   2.556   2.470 -1.0451  1.2338 -1.0674
  393TIP3    H2 1116   4.175   2.502   2.439 -0.3655 -1.1940 -0.0202
  394TIP3   OH2 1117   6.273   5.822   6.067  0.0260  0.3079 -0.2980
  394TIP3    H1 1118   6.355   5.821   6.017  0.2901  1.0330  0.1125
  394TIP3    H2 1119   6.218   5.756   6.024  1.2497 -1.0390  0.1600
  395TIP3   OH2 1120   3.832   0.709   1.312  0.5170 -0.4657 -0.0487
  395TIP3    H1 1121   3.898   0.708   1.243  0.3563  0.1729 -0.2150
  395TIP3    H2 1122   3.776   0.635   1.293 -0.7098  0.8561 -1.7591
  396TIP3   OH2 1123   6.680   2.079   2.897  0.2723  0.5627 -0.6631
  396TIP3    H1 1124   6.632   2.133   2.834  1.6695  0.1847 -2.0787
  396TIP3    H2 1125   6.656   1.989   2.874 -0.1464  0.4684  0.1240
  397TIP3   OH2 1126   8.463   5.998   6.246  0.3568  0.2906 -0.1134
  397TIP3    H1 1127   8.450   6.068   6.181 -0.2291  0.6627  0.3924
  397TIP3    H2 1128   8.505   6.042   6.320  2.3312 -0.4286 -0.7916
  398TIP3   OH2 1129   7.333   5.085   5.792 -0.0551  0.1486  0.6220
  398TIP3    H1 1130   7.340   4.993   5.769  2.2503  0.5366 -0.3523
  398TIP3    H2 1131   7.364   5.089   5.883 -0.4786 -0.0862  0.7763
  399TIP3   OH2 1132   7.106   5.618   6.600 -0.0415 -0.2485 -0.3713
  399TIP3    H1 1133   7.054   5.565   6.660  1.0755  0.4077  1.2159
  399TIP3    H2 1134   7.042   5.674   6.556 -0.9871 -1.4609 -0.5608
  400TIP3   OH2 1135   4.722   0.322   0.011 -0.3989 -0.2488 -0.2801
  400TIP3    H1 1136   4.734   0.268   0.089 -0.4038  0.3660  0.1499
  400TIP3    H2 1137   4.642   0.289  -0.029  0.9867 -2.3355 -1.4858
  401TIP3   OH2 1138   7.556   5.702   6.594 -0.1645  0.0014  0.4416
  401TIP3    H1 1139   7.471   5.725   6.556 -0.3046  1.7140  1.7188
  401TIP3    H2 1140   7.618   5.761   6.551  0.4732 -1.5917 -0.8571
  402TIP3   OH2 1141   5.714   1.955   0.350  0.5013  0.5002 -0.1699
  402TIP3    H1 1142   5.648   1.964   0.418  1.0113 -0.0280  0.3923
  402TIP3    H2 1143   5.701   2.032   0.294 -0.3428  0.5905  0.1504
  403TIP3   OH2 1144   5.319   1.776   2.530 -0.0389 -0.3505 -0.0089
  403TIP3    H1 1145   5.353   1.843   2.470 -1.3666  0.7991  0.4900
  403TIP3    H2 1146   5.236   1.750   2.491 -0.3338 -0.4674  0.6990
  404TIP3   OH2 1147   4.785   1.176   1.526 -0.2099  0.0851 -0.4814
  404TIP3    H1 1148   4.799   1.265   1.559 -0.5878 -0.2625  0.6465
  404TIP3    H2 1149   4.872   1.139   1.518 -0.1119  0.1202  0.3214
  405TIP3   OH2 1150   4.408   0.651   0.119  0.2636 -0.2385 -0.2262
  405TIP3    H1 1151   4.399   0.689   0.206  0.7949  0.0811 -0.3076
  405TIP3    H2 1152   4.321   0.615   0.099  0.4237 -1.2255  0.8530
  406TIP3   OH2 1153   6.165   2.426   2.355  0.0681  0.1286 -0.2660
  406TIP3    H1 1154   6.140   2.335   2.336  0.5357 -0.1555  0.4294
  406TIP3    H2 1155   6.087   2.465   2.393  0.2955 -0.4058  0.7697
  407TIP3   OH2 1156   6.604   1.383   1.082  0.6359 -0.4227  0.2617
  407TIP3    H1 1157   6.574   1.337   1.004 -1.6955  1.5616 -0.0841
  407TIP3    H2 1158   6.695   1.405   1.064  1.0885 -2.8366 -0.5093
  408TIP3   OH2 1159   7.744   5.162   6.853 -0.6260 -0.5180 -0.5067
  408TIP3    H1 1160   7.816   5.103   6.829  0.3332  0.0674  0.8762
  408TIP3    H2 1161   7.772   5.248   6.819 -0.8601 -0.3685 -0.3168
  409TIP3   OH2 1162   4.099   1.107   1.398 -0.2666 -0.1365 -0.4494
  409TIP3    H1 1163   4.058   1.185   1.436  3.0458  1.5047 -0.0623
  409TIP3    H2 1164   4.026   1.046   1.387 -2.5748  2.0693  1.5483
  410TIP3   OH2 1165   5.519   2.371   0.984  0.3418  0.2981 -0.1243
  410TIP3    H1 1166   5.592   2.400   1.039  0.5651 -0.5998  0.0674
  410TIP3    H2 1167   5.488   2.291   1.026 -0.1995  0.2027 -0.6952
  411TIP3   OH2 1168   4.491   0.256   1.144  0.0932 -0.0078 -0.4969
  411TIP3    H1 1169   4.466   0.181   1.091  0.3046 -0.0414 -0.5497
  411TIP3    H2 1170   4.584   0.243   1.162 -0.3800 -0.8939  1.3531
  412TIP3   OH2 1171   5.020   0.742   3.258  0.0717 -0.8787 -0.2750
  412TIP3    H1 1172   5.040   0.699   3.341 -1.4874 -2.0944 -0.5111
  412TIP3    H2 1173   4.960   0.683   3.214  2.0366 -0.9877 -2.9569
  413TIP3   OH2 1174   3.539   2.403   1.580 -0.0075 -0.2548  0.3752
  413TIP3    H1 1175   3.480   2.441   1.515  1.1339 -0.3891 -0.7528
  413TIP3    H2 1176   3.518   2.450   1.661  0.7950  2.2390 -0.7963
  414TIP3   OH2 1177   4.118   1.057   2.247  0.0614  0.3266  0.1238
  414TIP3    H1 1178   4.050   1.004   2.289  0.2852 -0.6741 -0.7424
  414TIP3    H2 1179   4.117   1.028   2.155  0.2806  1.7393 -0.3404
  415TIP3   OH2 1180   5.953   1.243   1.040 -0.7358  0.0306  0.0418
  415TIP3    H1 1181   5.909   1.191   1.107 -0.3328  0.5373  0.7156
  415TIP3    H2 1182   5.914   1.215   0.958 -2.5129  0.6602  0.6457
  416TIP3   OH2 1183   5.107   4.752   5.024  0.2533 -0.4210  0.1923
  416TIP3    H1 1184   5.126   4.842   5.051  2.6567 -0.7180 -0.4408
  416TIP3    H2 1185   5.019   4.757   4.985  1.4335  2.2356 -2.3240
  417TIP3   OH2 1186   3.803   0.179   1.467  0.4530 -0.1670 -0.0925
  417TIP3    H1 1187   3.768   0.090   1.476 -3.8641  1.3361 -0.6976
  417TIP3    H2 1188   3.844   0.180   1.381  0.7262 -1.6387  0.0137
  418TIP3   OH2 1189   6.581   6.197   6.548  0.4004 -0.3406 -0.5191
  418TIP3    H1 1190   6.613   6.240   6.628  0.0457 -1.4221  0.2240
  418TIP3    H2 1191   6.640   6.228   6.479 -0.2307  1.8075 -0.1344
  419TIP3   OH2 1192   0.518   5.839   6.941  0.4449 -0.5550  0.4432
  419TIP3    H1 1193   0.459   5.862   6.869  0.5751  0.2450  0.5964
  419TIP3    H2 1194   0.604   5.869   6.912  0.4146  0.2130  1.1469
  420TIP3   OH2 1195   6.085   3.011   0.560 -0.2302  0.4361  0.1756
  420TIP3    H1 1196   6.047   2.928   0.532  0.4561  0.6751 -1.5425
  420TIP3    H2 1197   6.029   3.078   0.519 -0.8781  0.8296  1.6787
  421TIP3   OH2 1198   4.409   1.340   0.058  0.1426  0.0904  0.0876
  421TIP3    H1 1199   4.487   1.351   0.004 -0.0065 -1.3175 -0.4370
  421TIP3    H2 1200   4.436   1.281   0.128 -0.5937 -0.8193 -0.3929
  422TIP3   OH2 1201   7.870   3.894   6.622 -0.1599 -0.1809  0.6311
  422TIP3    H1 1202   7.954   3.853   6.600 -0.2513 -0.5690  1.0119
  422TIP3    H2 1203   7.805   3.826   6.603 -0.3949  0.1314  0.3014
  423TIP3   OH2 1204   6.279   2.274   0.624  0.7172  0.0163 -0.0656
  423TIP3    H1 1205   6.200   2.243   0.669  1.3562 -1.2021  0.2447
  423TIP3    H2 1206   6.331   2.315   0.692  1.1969 -0.8627  0.1022
  424TIP3   OH2 1207   1.120   7.731   0.536  0.0653  0.0407 -0.2647
  424TIP3    H1 1208   1.094   7.812   0.492 -0.6564 -1.3174 -2.4173
  424TIP3    H2 1209   1.059   7.665   0.504  2.9904 -2.1731 -1.6004
  425TIP3   OH2 1210   3.425   2.096   0.409 -0.8748 -0.5226  0.3379
  425TIP3    H1 1211   3.359   2.157   0.443 -0.0800  0.6643 -0.2454
  425TIP3    H2 1212   3.428   2.113   0.315  0.8733  0.0275  0.4770
  426TIP3   OH2 1213   0.708   6.839   6.573  0.3392  0.0392 -0.3025
  426TIP3    H1 1214   0.673   6.784   6.503  0.4494  0.0518 -0.3676
  426TIP3    H2 1215   0.729   6.778   6.643 -2.1013  0.2814  0.6827
  427TIP3   OH2 1216   3.776   0.128   2.001  0.1052  0.2822 -0.9859
  427TIP3    H1 1217   3.814   0.098   1.918  1.8557  0.4212 -0.2491
  427TIP3    H2 1218   3.766   0.222   1.990 -0.1335  0.2325 -1.2126
  428TIP3   OH2 1219   7.809   0.952   1.428  0.9198  0.1966  0.0274
  428TIP3    H1 1220   7.729   0.900   1.419  0.7078  0.7496 -1.4290
  428TIP3    H2 1221   7.779   1.039   1.455  1.2379 -0.2639  1.9624
  429TIP3   OH2 1222   5.743   0.589   1.767 -0.0968  0.1392 -0.3013
  429TIP3    H1 1223   5.681   0.540   1.714 -1.6999  2.1731 -0.3716
  429TIP3    H2 1224   5.707   0.584   1.856 -0.5426  1.5681 -0.3925
  430TIP3   OH2 1225   0.118   4.583   6.462  0.1681  0.5689  0.6662
  430TIP3    H1 1226   0.065   4.659   6.484  0.1088  0.8190 -0.3084
  430TIP3    H2 1227   0.133   4.539   6.545 -2.2892  0.0266  0.8435
  431TIP3   OH2 1228   2.550   1.379   3.167  0.1731  0.2342  0.2743
  431TIP3    H1 1229   2.592   1.465   3.160  3.3578 -1.1822  0.7936
  431TIP3    H2 1230   2.548   1.346   3.077  0.9587 -0.0236  0.3459
  432TIP3   OH2 1231   6.100   2.105   2.407  0.1271 -0.3946 -0.0050
  432TIP3    H1 1232   6.096   2.110   2.502  0.3451 -2.0405  0.1088
  432TIP3    H2 1233   6.015   2.069   2.381 -0.5247  1.5199 -0.5547
  433TIP3   OH2 1234   4.361   1.610   1.057  0.0991 -0.5530 -0.1608
  433TIP3    H1 1235   4.392   1.534   1.106  1.0003  0.3775  0.7519
  433TIP3    H2 1236   4.431   1.628   0.994 -0.0539 -0.3965 -0.2854
  434TIP3   OH2 1237   5.856   0.984   1.495  0.1543 -0.2573  0.5899
  434TIP3    H1 1238   5.834   0.980   1.402  0.2532  0.9656  0.5125
  434TIP3    H2 1239   5.939   0.937   1.502  1.5681  2.0714 -0.3884
  435TIP3   OH2 1240   3.898   0.192   1.726  0.7049 -0.1036 -0.4264
  435TIP3    H1 1241   3.979   0.232   1.694 -0.6673  3.5200  0.4226
  435TIP3    H2 1242   3.844   0.180   1.647  0.3147  1.6822 -0.4363
  436TIP3   OH2 1243   1.783   0.429   2.417  0.7170  0.0447 -0.0775
  436TIP3    H1 1244   1.812   0.519   2.434  0.3402  0.0579  0.5049
  436TIP3    H2 1245   1.711   0.415   2.478 -1.4404  0.4690 -2.4514
  437TIP3   OH2 1246   0.361   0.551   1.008  0.7434  0.1460 -0.2737
  437TIP3    H1 1247   0.425   0.521   1.073  1.0373  2.1475  0.4150
  437TIP3    H2 1248   0.385   0.505   0.928  2.0032 -0.3977  0.3891
  438TIP3   OH2 1249   4.833   0.333   1.303 -0.1040  0.2606  0.4384
  438TIP3    H1 1250   4.836   0.407   1.364 -1.3674  0.2067  0.5634
  438TIP3    H2 1251   4.784   0.265   1.349 -2.1596  0.6540 -1.0988
  439TIP3   OH2 1252   0.737   7.982   0.077 -0.6392  0.2392  0.0320
  439TIP3    H1 1253   0.659   8.026   0.042 -1.1312 -1.4374 -1.0393
  439TIP3    H2 1254   0.803   7.991   0.009 -0.5638 -0.1731  0.0488
  440TIP3   OH2 1255   5.687   1.135   0.964 -0.3406 -0.4698 -0.1436
  440TIP3    H1 1256   5.739   1.101   0.891 -4.0702 -0.4286 -2.9827
  440TIP3    H2 1257   5.654   1.057   1.008  1.3202 -0.4901  1.1047
  441TIP3   OH2 1258   3.694   2.921   3.896 -0.5156  0.3221 -0.2065
  441TIP3    H1 1259   3.617   2.977   3.909 -1.4615 -0.5755 -1.7242
  441TIP3    H2 1260   3.764   2.964   3.945 -1.5669  2.0718 -0.1898
  442TIP3   OH2 1261   4.958   3.046   1.774  0.4632 -0.3533  0.1853
  442TIP3    H1 1262   4.917   2.968   1.811  1.1671 -1.2047 -0.7913
  442TIP3    H2 1263   5.029   3.012   1.719  1.2321  1.0046  0.3157
  443TIP3   OH2 1264   5.456   5.819   2.907  1.1450 -0.0142  0.1622
  443TIP3    H1 1265   5.463   5.777   2.993  2.5879  0.0930  0.1091
  443TIP3    H2 1266   5.503   5.760   2.848  2.2007  1.0819 -0.1140
  444TIP3   OH2 1267   5.992   2.536   2.747  0.2860 -0.4078  0.4357
  444TIP3    H1 1268   6.076   2.526   2.791  1.0647  0.0449 -0.9078
  444TIP3    H2 1269   5.957   2.618   2.782  0.8791 -0.0731  0.2592
  445TIP3   OH2 1270   5.473   0.368   1.057  0.3880  0.1764  0.0939
  445TIP3    H1 1271   5.430   0.299   1.007 -1.1061  0.7252  0.5921
  445TIP3    H2 1272   5.459   0.343   1.149 -0.1221  1.0956  0.2760
  446TIP3   OH2 1273   6.919   5.971   6.700 -0.2012 -0.3588 -0.6664
  446TIP3    H1 1274   6.898   6.063   6.713 -0.7434 -0.7130  1.0129
  446TIP3    H2 1275   7.004   5.959   6.743  0.6418 -0.3115 -2.2444
  447TIP3   OH2 1276   4.865   0.618   0.970 -0.1123  0.0770  0.5001
  447TIP3    H1 1277   4.803   0.691   0.965 -1.6014 -1.1087  1.3423
  447TIP3    H2 1278   4.811   0.542   0.989  1.6129 -0.9893  1.2551
  448TIP3   OH2 1279   0.870   4.032   5.981 -0.0863 -0.2523 -0.4641
  448TIP3    H1 1280   0.872   3.939   5.957 -0.6826 -0.0604 -1.2857
  448TIP3    H2 1281   0.802   4.037   6.049  1.1954 -0.7006  0.8691
  449TIP3   OH2 1282   5.017   1.464   2.069  0.4574  0.4674 -0.4553
  449TIP3    H1 1283   5.088   1.527   2.057  1.4537 -0.6143 -0.4498
  449TIP3    H2 1284   4.999   1.432   1.980  0.0812  0.6275 -0.4367
  450TIP3   OH2 1285   4.858   3.507   1.554 -0.1847  0.1413  0.2023
  450TIP3    H1 1286   4.945   3.467   1.562 -1.6430 -3.0374  0.8497
  450TIP3    H2 1287   4.852   3.532   1.462  0.2092 -2.6324 -0.6279
  451TIP3   OH2 1288   3.628   2.437   0.083 -0.1254 -0.0677  0.0071
  451TIP3    H1 1289   3.694   2.488   0.129 -0.4919  1.0461 -0.6884
  451TIP3    H2 1290   3.598   2.373   0.147 -0.1169  1.0075  1.1032
  452TIP3   OH2 1291   3.945   2.836   0.896  0.2637 -0.3667 -0.7424
  452TIP3    H1 1292   3.966   2.927   0.914  0.1255 -0.3956 -0.4379
  452TIP3    H2 1293   3.896   2.839   0.813 -1.0095 -0.0178  0.0156
  453TIP3   OH2 1294   3.654   2.223   0.625  0.0667  0.5156  0.1225
  453TIP3    H1 1295   3.631   2.142   0.671  2.2260 -0.0284  0.2849
  453TIP3    H2 1296   3.749   2.231   0.637 -0.2028  3.3858  0.6073
  454TIP3   OH2 1297   5.002   0.259   0.965  0.0097 -0.0189 -0.1659
  454TIP3    H1 1298   5.048   0.337   0.933  1.2177  0.3367  2.3175
  454TIP3    H2 1299   4.918   0.293   0.996 -0.7193 -0.2023 -1.8704
  455TIP3   OH2 1300   2.540   7.594   0.726 -0.2258 -0.4393  0.2581
  455TIP3    H1 1301   2.533   7.652   0.802  0.7803 -0.5415  0.4357
  455TIP3    H2 1302   2.567   7.651   0.654 -0.6047 -0.4470  0.1066
  456TIP3   OH2 1303   7.315   0.103   1.742  0.4281  0.0123 -0.0009
  456TIP3    H1 1304   7.280   0.094   1.653 -0.4689  0.2855  0.3173
  456TIP3    H2 1305   7.383   0.036   1.748  0.3532 -0.1464 -0.8221
  457TIP3   OH2 1306   2.432   0.553   0.573  0.4197 -0.2020  0.4098
  457TIP3    H1 1307   2.401   0.551   0.663  2.3012 -0.4546  1.0853
  457TIP3    H2 1308   2.389   0.478   0.531  0.0815 -0.5047  1.2879
  458TIP3   OH2 1309   3.585   7.971   3.415 -0.2394 -0.0557 -0.5969
  458TIP3    H1 1310   3.625   8.057   3.423  0.8791 -0.6048 -0.1500
  458TIP3    H2 1311   3.659   7.910   3.412 -1.0375 -1.2411  2.1324
  459TIP3   OH2 1312   4.879   0.282   0.630  0.1902 -0.6264  0.0593
  459TIP3    H1 1313   4.917   0.244   0.551 -0.3500 -0.8401 -0.0975
  459TIP3    H2 1314   4.911   0.227   0.701  0.1548 -0.8155 -0.0735
  460TIP3   OH2 1315   3.568   1.527   0.194 -0.2781 -0.3005  0.6780
  460TIP3    H1 1316   3.536   1.575   0.270  0.3175  2.1318 -0.5626
  460TIP3    H2 1317   3.493   1.524   0.134  0.3254  1.1124 -0.1836
  461TIP3   OH2 1318   6.550   4.084   1.088  0.0935 -0.1963 -0.0277
  461TIP3    H1 1319   6.501   4.066   1.168 -0.1949  1.4634  0.1816
  461TIP3    H2 1320   6.529   4.175   1.067  2.1524  0.1550 -0.6005
  462TIP3   OH2 1321   2.860   1.808   2.681 -0.4096  0.1816 -0.1524
  462TIP3    H1 1322   2.802   1.779   2.611  0.7202 -1.5149 -0.3974
  462TIP3    H2 1323   2.893   1.728   2.721  0.9389  1.1204  0.6953
  463TIP3   OH2 1324   1.326   0.908   1.897 -0.1714 -0.6349 -0.1474
  463TIP3    H1 1325   1.258   0.976   1.895  0.4553 -0.0113 -0.8052
  463TIP3    H2 1326   1.283   0.830   1.861 -0.6874 -0.3858 -0.0726
  464TIP3   OH2 1327   3.987   7.770   3.612  0.1473 -0.0706 -0.0732
  464TIP3    H1 1328   3.970   7.817   3.694  1.4431 -0.3260  0.3558
  464TIP3    H2 1329   3.991   7.678   3.638 -0.7839 -0.2812 -0.6522
  465TIP3   OH2 1330   7.737   4.682   5.537 -0.0454  0.1338 -0.0513
  465TIP3    H1 1331   7.730   4.596   5.579 -1.5700  0.2909  0.0210
  465TIP3    H2 1332   7.753   4.662   5.445  0.3368 -0.2113  0.0829
  466TIP3   OH2 1333   7.466   2.552   0.300  0.1169 -0.2113 -0.1096
  466TIP3    H1 1334   7.412   2.623   0.334  1.0418  0.9833 -1.1058
  466TIP3    H2 1335   7.407   2.476   0.295 -1.8319  1.3960 -2.4629
  467TIP3   OH2 1336   0.381   4.669   6.394  0.4414 -0.0690 -0.1076
  467TIP3    H1 1337   0.418   4.716   6.468  0.6851 -0.6378  0.1308
  467TIP3    H2 1338   0.365   4.580   6.426 -0.7444  0.0516 -0.3257
  468TIP3   OH2 1339   0.495   4.431   6.569  0.5616  0.1479  0.2243
  468TIP3    H1 1340   0.487   4.464   6.658 -1.8354  0.1381  0.0426
  468TIP3    H2 1341   0.459   4.343   6.572 -1.4209  0.8876 -1.1515
  469TIP3   OH2 1342   6.105   1.659   0.522 -0.5079  0.1301 -0.1052
  469TIP3    H1 1343   6.119   1.677   0.430 -1.0351  1.5321  0.0771
  469TIP3    H2 1344   6.049   1.730   0.553 -0.8006 -0.6179  1.1674
  470TIP3   OH2 1345   6.097   4.440   6.703 -0.3555 -0.0345  0.2443
  470TIP3    H1 1346   6.040   4.490   6.644  2.2397  2.0057 -0.6348
  470TIP3    H2 1347   6.109   4.356   6.659 -0.1407  0.6909 -1.0971
  471TIP3   OH2 1348   7.210   5.319   4.962 -0.3365 -0.5336 -0.2030
  471TIP3    H1 1349   7.257   5.296   5.042  0.0070  0.5312 -0.0891
  471TIP3    H2 1350   7.155   5.393   4.987  0.4368  0.3823 -1.1530
  472TIP3   OH2 1351   2.280   3.897   6.511  0.4501  0.1718  0.3886
  472TIP3    H1 1352   2.332   3.821   6.486  0.9145  1.1381 -1.7509
  472TIP3    H2 1353   2.342   3.957   6.551  0.4394  0.1342  0.4602
  473TIP3   OH2 1354   5.670   0.608   1.440 -0.4619 -0.2544  0.4942
  473TIP3    H1 1355   5.583   0.632   1.472 -0.2858  0.2175  0.6274
  473TIP3    H2 1356   5.724   0.685   1.459  0.3652 -1.1507  1.8958
  474TIP3   OH2 1357   7.547   1.847   3.090 -0.8277  0.2821  0.0776
  474TIP3    H1 1358   7.619   1.908   3.077  0.1822 -0.7338  0.8111
  474TIP3    H2 1359   7.474   1.901   3.119 -0.0529  1.1749  0.3798
  475TIP3   OH2 1360   1.655   6.454   6.699  0.0523  0.4329 -0.0050
  475TIP3    H1 1361   1.563   6.431   6.688 -0.1923  2.5252 -3.0566
  475TIP3    H2 1362   1.702   6.396   6.639  0.1586  2.7257 -2.2152
  476TIP3   OH2 1363   5.207   1.558   0.235  0.0481 -0.6391  0.1424
  476TIP3    H1 1364   5.132   1.590   0.285  0.9839 -0.4949  1.5196
  476TIP3    H2 1365   5.225   1.471   0.272 -0.0515 -1.0758 -0.8464
  477TIP3   OH2 1366   6.118   0.440   0.873 -0.1826 -0.0594  0.2289
  477TIP3    H1 1367   6.041   0.461   0.820  0.3671  0.4662 -0.3526
  477TIP3    H2 1368   6.185   0.502   0.845 -0.2244  0.9852  2.3045
  478TIP3   OH2 1369   2.137   5.630   5.786  0.6208 -0.4464 -0.4030
  478TIP3    H1 1370   2.113   5.548   5.829  1.1429 -0.4075 -0.0291
  478TIP3    H2 1371   2.054   5.676   5.774  0.3321 -1.0008 -0.5567
  479TIP3   OH2 1372   7.473   1.278   1.506  0.2759  0.1539  0.2848
  479TIP3    H1 1373   7.383   1.251   1.522  0.4266 -1.1427 -0.9458
  479TIP3    H2 1374   7.465   1.364   1.465 -0.4581 -0.3252 -0.6081
  480TIP3   OH2 1375   5.494   1.534   0.981 -0.2394 -0.6450 -0.1765
  480TIP3    H1 1376   5.448   1.614   1.006  0.8999  0.0657 -0.3440
  480TIP3    H2 1377   5.507   1.488   1.064  1.9026  0.8467  0.3567
  481TIP3   OH2 1378   6.607   1.959   0.127  0.9951 -0.4129  0.5241
  481TIP3    H1 1379   6.639   1.976   0.039  0.3931 -0.2372  0.3315
  481TIP3    H2 1380   6.607   1.864   0.135  1.2918 -0.4198  0.4198
  482TIP3   OH2 1381   4.480   1.294   0.383 -0.0791 -0.0472 -0.0639
  482TIP3    H1 1382   4.503   1.267   0.472 -1.1095 -3.1186 -0.6500
  482TIP3    H2 1383   4.389   1.322   0.390  0.6064  2.1500  0.3006
  483TIP3   OH2 1384   8.296   5.046   5.531  0.0479 -0.4105  0.0323
  483TIP3    H1 1385   8.213   5.086   5.506  0.5374  0.2064 -0.6160
  483TIP3    H2 1386   8.337   5.023   5.448  1.4418  1.1487  0.2671
  484TIP3   OH2 1387   6.083   1.819   2.704 -0.3165 -0.5768 -0.3422
  484TIP3    H1 1388   6.124   1.823   2.790  2.0376  2.0930 -1.5277
  484TIP3    H2 1389   5.992   1.794   2.722  0.0395  0.2410  2.9248
  485TIP3   OH2 1390   6.029   0.077   1.259 -0.4135 -1.2929  0.8207
  485TIP3    H1 1391   6.121   0.103   1.256 -0.7901  0.0726  0.7360
  485TIP3    H2 1392   6.018   0.039   1.346  0.2074 -1.3713  0.8684
  486TIP3   OH2 1393   2.716   5.396   6.345  0.0235 -0.1516  0.0416
  486TIP3    H1 1394   2.661   5.473   6.327 -0.3676 -0.4332  0.0302
  486TIP3    H2 1395   2.696   5.336   6.274  1.8242  0.5370 -1.0600
  487TIP3   OH2 1396   0.216   1.468   1.113  0.1896 -0.6879  0.3310
  487TIP3    H1 1397   0.181   1.476   1.024  0.4820 -0.5698  0.2280
  487TIP3    H2 1398   0.169   1.393   1.150 -0.2069 -0.5009  0.2083
  488TIP3   OH2 1399   0.342   5.838   5.620 -0.2779 -0.4378 -0.2450
  488TIP3    H1 1400   0.307   5.906   5.678  4.0827  0.6840  1.2709
  488TIP3    H2 1401   0.357   5.882   5.537 -0.9313 -0.5141 -0.4052
  489TIP3   OH2 1402   0.474   4.749   6.635 -0.0155  0.4093 -0.0427
  489TIP3    H1 1403   0.409   4.700   6.684 -1.5697 -0.0832 -2.5202
  489TIP3    H2 1404   0.524   4.797   6.702 -0.9389 -1.5595  2.1022
  490TIP3   OH2 1405   6.969   0.228   0.809  0.0552 -0.3559 -0.0650
  490TIP3    H1 1406   7.055   0.192   0.789 -0.4110 -0.6871 -1.5204
  490TIP3    H2 1407   6.919   0.216   0.729 -0.6725  1.8621  0.0148
  491TIP3   OH2 1408   1.249   5.242   6.609  0.1559  0.4241  0.0376
  491TIP3    H1 1409   1.280   5.182   6.541  0.7571  0.0257  0.6542
  491TIP3    H2 1410   1.251   5.190   6.690 -1.5193  0.5812  0.2112
  492TIP3   OH2 1411   2.330   6.013   6.021 -0.3344  0.7881 -0.1222
  492TIP3    H1 1412   2.259   6.076   6.032 -0.9736  0.2085 -0.8918
  492TIP3    H2 1413   2.394   6.060   5.967 -0.4534  1.0610 -0.0258
  493TIP3   OH2 1414   1.830   4.953   5.908  0.0466 -0.0012  0.1938
  493TIP3    H1 1415   1.905   5.002   5.940  0.2409 -0.0198 -0.2264
  493TIP3    H2 1416   1.771   5.019   5.872 -0.9018  0.1757  2.0286
  494TIP3   OH2 1417   6.315   1.867   0.892  0.0249 -0.2024 -0.1508
  494TIP3    H1 1418   6.344   1.778   0.913 -2.3162 -0.9574 -0.0018
  494TIP3    H2 1419   6.311   1.912   0.977  3.1745  0.7092 -0.4205
  495TIP3   OH2 1420   2.937   4.266   6.042  0.3613 -0.1872  0.0563
  495TIP3    H1 1421   2.848   4.240   6.017 -0.3051  2.9608 -1.0899
  495TIP3    H2 1422   2.988   4.257   5.962  0.7547 -0.6361  0.3584
  496TIP3   OH2 1423   4.608   1.377   1.804  0.4759  0.6746 -0.0864
  496TIP3    H1 1424   4.681   1.404   1.748 -1.2613  1.6935 -1.9388
  496TIP3    H2 1425   4.601   1.445   1.870  1.4225  0.3669  0.3499
  497TIP3   OH2 1426   6.906   3.988   1.713 -0.1753 -0.9195 -0.4220
  497TIP3    H1 1427   6.902   3.893   1.702 -1.3072 -1.0160  0.6893
  497TIP3    H2 1428   6.957   4.000   1.793 -2.2422 -0.7117  0.9024
  498TIP3   OH2 1429   5.855   1.574   3.444  0.2453 -0.0877 -0.8593
  498TIP3    H1 1430   5.790   1.597   3.511  0.7092 -1.0188 -0.0869
  498TIP3    H2 1431   5.923   1.641   3.454  0.5224 -0.4766 -0.1022
  499TIP3   OH2 1432   6.839   3.100   1.935 -0.0026  0.8583  0.0947
  499TIP3    H1 1433   6.915   3.075   1.989 -0.3804  0.6344  0.5241
  499TIP3    H2 1434   6.877   3.131   1.853  0.6842  2.9251  1.1498
  500TIP3   OH2 1435   6.792   1.819   1.592 -0.2289  0.2589  0.0438
  500TIP3    H1 1436   6.792   1.865   1.509  0.1332  0.6756  0.2719
  500TIP3    H2 1437   6.833   1.880   1.654  0.7956 -0.5784  0.2218
  501TIP3   OH2 1438   8.294   6.020   6.858  0.0217 -0.4516 -0.7626
  501TIP3    H1 1439   8.307   6.114   6.842  0.6278 -0.2168  1.0720
  501TIP3    H2 1440   8.370   5.978   6.817 -0.4919 -0.2087 -2.0077
  502TIP3   OH2 1441   4.104   3.733   1.041  0.0611  0.3808  0.4274
  502TIP3    H1 1442   4.082   3.710   1.131 -0.4375  1.2289  0.5316
  502TIP3    H2 1443   4.198   3.751   1.044 -0.2043  1.7160  1.0739
  503TIP3   OH2 1444   7.458   1.998   3.505 -0.1360 -0.6337  0.2374
  503TIP3    H1 1445   7.439   1.912   3.544 -2.5453 -0.1602  0.2065
  503TIP3    H2 1446   7.375   2.045   3.511  0.6355  0.9963 -1.5557
  504TIP3   OH2 1447   1.754   6.784   6.046  0.5602  0.5126 -0.4831
  504TIP3    H1 1448   1.702   6.708   6.071  1.5477 -0.2883 -0.8588
  504TIP3    H2 1449   1.708   6.858   6.085 -1.2914 -0.1026 -1.4544
  505TIP3   OH2 1450   5.841   1.613   1.365  0.1165  0.3155 -0.1354
  505TIP3    H1 1451   5.814   1.529   1.401 -1.5043 -0.4847 -3.0625
  505TIP3    H2 1452   5.918   1.593   1.312 -0.0889  0.6992 -0.5857
  506TIP3   OH2 1453   0.190   2.911   1.145  0.4111 -0.0730  0.3896
  506TIP3    H1 1454   0.251   2.856   1.096 -0.2644 -0.0922 -0.4557
  506TIP3    H2 1455   0.192   2.876   1.234  0.3539 -1.1622 -0.0241
  507TIP3   OH2 1456   4.593   5.499   1.806  0.1423 -0.3536 -0.0196
  507TIP3    H1 1457   4.611   5.555   1.731  1.8006 -1.9955 -0.9067
  507TIP3    H2 1458   4.566   5.558   1.875  1.0603  1.4421 -1.1673
  508TIP3   OH2 1459   6.003   0.905   2.785  0.4651  0.1317  0.4974
  508TIP3    H1 1460   6.005   0.914   2.881  0.2771 -0.6125  0.5791
  508TIP3    H2 1461   5.973   0.815   2.771  0.1470  0.3611 -0.2709
  509TIP3   OH2 1462   0.673   4.432   5.502 -0.1885  0.0898 -0.2074
  509TIP3    H1 1463   0.694   4.473   5.418  0.7515  2.5258  1.1701
  509TIP3    H2 1464   0.591   4.474   5.529  0.0763  0.0974  0.5925
  510TIP3   OH2 1465   2.199   7.243   1.231  0.3038 -0.2146  0.4246
  510TIP3    H1 1466   2.224   7.231   1.323  1.8583 -0.5233 -0.0378
  510TIP3    H2 1467   2.254   7.183   1.182 -1.5763 -1.1598 -0.6038
  511TIP3   OH2 1468   6.452   0.617   2.265 -0.1542  0.0643 -0.1069
  511TIP3    H1 1469   6.405   0.698   2.285 -1.8353 -0.8700 -0.1928
  511TIP3    H2 1470   6.484   0.629   2.176  0.5703  1.0711  0.2803
  512TIP3   OH2 1471   6.547   0.822   1.662  0.0657 -0.1745 -0.2032
  512TIP3    H1 1472   6.534   0.915   1.642  1.4596  0.4183  1.4886
  512TIP3    H2 1473   6.642   0.813   1.671  0.2139 -2.3959 -3.2040
  513TIP3   OH2 1474   5.203   0.987   0.242 -0.3527 -0.3895 -0.2312
  513TIP3    H1 1475   5.135   1.003   0.176 -1.6175 -0.0087  1.1562
  513TIP3    H2 1476   5.169   0.916   0.295 -0.5975  1.1472  1.7283
  514TIP3   OH2 1477   3.463   0.520   0.769 -0.6794  0.0828 -0.2388
  514TIP3    H1 1478   3.375   0.514   0.807 -0.3604 -1.1688  0.3465
  514TIP3    H2 1479   3.490   0.610   0.785 -1.4576  0.1938  0.4882
  515TIP3   OH2 1480   0.880   2.209   6.793 -0.4727 -0.4451  0.7616
  515TIP3    H1 1481   0.879   2.258   6.875 -2.1674 -1.4055  1.3429
  515TIP3    H2 1482   0.799   2.158   6.795 -0.8818  0.0271 -1.8150
  516TIP3   OH2 1483   5.909   1.196   3.703  0.0054  0.0087  0.0119
  516TIP3    H1 1484   5.988   1.244   3.675 -0.3908 -0.2100 -1.5416
  516TIP3    H2 1485   5.838   1.234   3.651 -0.9455  0.2855  1.4871
  517TIP3   OH2 1486   5.304   0.821   1.017  0.6987 -0.6066  0.1453
  517TIP3    H1 1487   5.310   0.730   1.046  0.2358 -0.7803 -0.2905
  517TIP3    H2 1488   5.298   0.816   0.922  0.4646 -0.1306  0.1299
  518TIP3   OH2 1489   5.857   1.935   2.322 -0.1321 -0.0075  0.4923
  518TIP3    H1 1490   5.778   1.914   2.372  0.5050 -0.4734  1.3002
  518TIP3    H2 1491   5.901   1.851   2.311  0.5360  0.3384  0.5175
  519TIP3   OH2 1492   3.385   0.882   6.696 -0.1609 -0.3495  0.3305
  519TIP3    H1 1493   3.459   0.824   6.675 -0.2064 -0.7076  1.1400
  519TIP3    H2 1494   3.390   0.952   6.630  0.9979 -0.2824  0.4764
  520TIP3   OH2 1495   5.151   0.913   1.613  0.4572 -0.1286 -0.0187
  520TIP3    H1 1496   5.242   0.921   1.640 -0.2748 -0.5365  2.6881
  520TIP3    H2 1497   5.129   0.821   1.631 -1.1610  0.5621  1.6440
  521TIP3   OH2 1498   0.513   2.568   5.013  0.7040 -0.1631  0.1247
  521TIP3    H1 1499   0.470   2.638   4.963 -1.0624 -0.0291  1.7242
  521TIP3    H2 1500   0.549   2.613   5.090  1.0691 -0.7508  0.3019
  522TIP3   OH2 1501   7.223   3.282   6.566 -0.7275  0.1032 -0.4145
  522TIP3    H1 1502   7.297   3.228   6.595 -0.4267  0.0884 -1.2055
  522TIP3    H2 1503   7.185   3.316   6.647 -0.2354 -0.3969  0.0271
  523TIP3   OH2 1504   6.239   2.542   0.545  0.8439 -0.2096 -0.3926
  523TIP3    H1 1505   6.279   2.456   0.554  1.2172 -0.0458 -0.4553
  523TIP3    H2 1506   6.251   2.565   0.453  1.2005  0.1255 -0.2659
  524TIP3   OH2 1507   4.290   7.954   0.202 -0.4007 -0.3794 -0.0246
  524TIP3    H1 1508   4.227   7.884   0.215 -0.4908 -0.1682  0.6647
  524TIP3    H2 1509   4.328   7.970   0.288  1.0177 -0.9047 -0.5302
  525TIP3   OH2 1510   7.081   0.978   0.842  0.3897  0.2835  0.0985
  525TIP3    H1 1511   7.000   0.992   0.792  0.4115  0.4698  0.1162
  525TIP3    H2 1512   7.058   0.909   0.904  0.4606 -0.1806 -0.3915
  526TIP3   OH2 1513   6.989   4.719   6.478  0.4579  0.2727  0.4439
  526TIP3    H1 1514   7.047   4.650   6.447  0.2629 -0.6661  2.1395
  526TIP3    H2 1515   6.934   4.739   6.402  1.7508 -0.1190 -0.6126
  527TIP3   OH2 1516   4.687   2.768   1.623  0.4541 -0.6942 -0.4535
  527TIP3    H1 1517   4.760   2.764   1.685 -0.0271  1.6717  0.3127
  527TIP3    H2 1518   4.711   2.838   1.562 -1.2108  0.1822 -0.1324
  528TIP3   OH2 1519   3.853   7.474   1.679  0.6739 -0.8129  0.0988
  528TIP3    H1 1520   3.861   7.411   1.608 -1.2613 -0.5720 -0.3418
  528TIP3    H2 1521   3.760   7.474   1.702  1.0238  0.2138  1.6236
  529TIP3   OH2 1522   6.493   2.502   1.263  0.6207  0.3957  0.4539
  529TIP3    H1 1523   6.422   2.486   1.325  1.6036  0.7423  1.6706
  529TIP3    H2 1524   6.482   2.433   1.197 -0.0341 -0.3609  1.3401
  530TIP3   OH2 1525   2.223   8.029   0.603  0.3418 -0.0486 -0.0348
  530TIP3    H1 1526   2.176   8.018   0.520 -0.0185 -1.2144  0.3202
  530TIP3    H2 1527   2.172   7.979   0.666  0.4713  1.0582  0.9538
  531TIP3   OH2 1528   6.061   4.517   1.265 -0.0074  0.3208 -0.1924
  531TIP3    H1 1529   5.980   4.504   1.217 -0.0448  0.9993 -0.3276
  531TIP3    H2 1530   6.113   4.439   1.247 -0.7019 -0.1946  0.0382
  532TIP3   OH2 1531   3.428   3.409   1.255 -0.2235  0.2091  0.1111
  532TIP3    H1 1532   3.469   3.479   1.205 -1.0844  0.7447  0.1465
  532TIP3    H2 1533   3.489   3.336   1.249 -0.3777  0.2211 -1.8465
  533TIP3   OH2 1534   0.965   5.731   6.480  0.5881 -0.2433  0.1344
  533TIP3    H1 1535   0.929   5.707   6.565  1.2874 -0.1668  0.4589
  533TIP3    H2 1536   1.040   5.673   6.468  1.0879  0.4069  0.0227
  534TIP3   OH2 1537   7.930   3.666   5.174 -0.1737 -0.3814 -0.2746
  534TIP3    H1 1538   7.860   3.654   5.109 -0.2470 -0.0342 -0.2564
  534TIP3    H2 1539   7.997   3.602   5.148 -0.7638 -1.1598  0.0800
  535TIP3   OH2 1540   7.677   1.969   0.997 -0.3092 -0.0508  0.0947
  535TIP3    H1 1541   7.619   1.949   0.924  1.2997 -0.8680 -0.9819
  535TIP3    H2 1542   7.701   1.884   1.033  1.2409  0.1928 -0.3014
  536TIP3   OH2 1543   6.115   2.130   1.667 -0.2262  0.3911  0.2842
  536TIP3    H1 1544   6.131   2.062   1.603 -0.1204  0.7946 -0.1192
  536TIP3    H2 1545   6.111   2.084   1.751  0.6051 -0.0175  0.1070
  537TIP3   OH2 1546   5.632   1.932   1.004 -0.1558  0.1620 -0.2600
  537TIP3    H1 1547   5.663   1.857   1.054  0.1844  0.3969 -0.1190
  537TIP3    H2 1548   5.693   1.941   0.932 -0.1186  0.3816 -0.2038
  538TIP3   OH2 1549   6.589   0.795   0.668 -0.3016  0.0481 -0.0398
  538TIP3    H1 1550   6.519   0.789   0.733 -1.8169 -0.8719 -1.7072
  538TIP3    H2 1551   6.665   0.755   0.712 -1.8598 -2.5742  0.4373
  539TIP3   OH2 1552   7.327   4.593   0.444  0.2066  0.6677 -0.1656
  539TIP3    H1 1553   7.317   4.689   0.440  1.3490  0.7082 -3.6192
  539TIP3    H2 1554   7.238   4.560   0.435 -0.2936  1.4099  1.9010
  540TIP3   OH2 1555   3.110   7.931   1.064  0.4207 -0.3943 -0.5820
  540TIP3    H1 1556   3.050   7.872   1.109  0.7401 -0.4870 -0.2784
  540TIP3    H2 1557   3.135   7.995   1.131 -0.5932  0.5935 -1.1374
  541TIP3   OH2 1558   5.356   1.165   1.067 -0.0973  0.3761  0.3146
  541TIP3    H1 1559   5.348   1.224   0.992 -0.4819 -2.8168 -2.2444
  541TIP3    H2 1560   5.439   1.191   1.108  0.6820  1.4799 -1.8552
  542TIP3   OH2 1561   7.943   1.110   1.888  0.0923 -0.2903  0.2973
  542TIP3    H1 1562   7.890   1.178   1.931 -0.8712 -0.7232 -0.1834
  542TIP3    H2 1563   7.969   1.149   1.805  1.1252  0.1803  0.8320
  543TIP3   OH2 1564   2.242   6.797   6.867 -0.1355 -0.6921 -0.0606
  543TIP3    H1 1565   2.332   6.826   6.882 -0.1549 -1.7567  2.4829
  543TIP3    H2 1566   2.190   6.850   6.928 -1.1284 -0.5579 -1.0243
  544TIP3   OH2 1567   7.618   5.271   6.486  0.4804 -0.5855  0.8116
  544TIP3    H1 1568   7.536   5.309   6.516  0.2524 -1.2829  1.0837
  544TIP3    H2 1569   7.684   5.306   6.545  0.3309 -0.2706  0.7902
  545TIP3   OH2 1570   7.070   2.250   1.004  0.1520  0.4432  0.0151
  545TIP3    H1 1571   7.070   2.223   1.096 -1.6229 -0.0757 -0.1078
  545TIP3    H2 1572   7.011   2.325   1.002 -0.3938 -0.0064 -0.8236
  546TIP3   OH2 1573   6.822   2.275   1.817 -0.3941 -0.1921 -0.2174
  546TIP3    H1 1574   6.896   2.335   1.827 -0.9183  0.0972  2.0704
  546TIP3    H2 1575   6.758   2.324   1.766  0.2571  0.2156 -0.6458
  547TIP3   OH2 1576   7.542   0.825   1.463  0.7603 -0.0933 -0.5384
  547TIP3    H1 1577   7.515   0.840   1.554 -0.9904 -2.5145 -0.6034
  547TIP3    H2 1578   7.463   0.840   1.412  1.0285 -1.4261 -1.3710
  548TIP3   OH2 1579   8.498   5.465   5.456 -0.0116 -0.5299  0.6166
  548TIP3    H1 1580   8.429   5.432   5.514 -1.1500  1.1226  0.2727
  548TIP3    H2 1581   8.548   5.526   5.511  1.1712 -1.7188  0.8600
  549TIP3   OH2 1582   2.647   7.249   0.757  0.1898  0.3166  0.0590
  549TIP3    H1 1583   2.639   7.300   0.838  0.9297  0.6804 -0.0967
  549TIP3    H2 1584   2.636   7.158   0.785  0.3898  0.4455  0.5642
  550TIP3   OH2 1585   6.752   1.071   0.374 -0.1206 -0.0009 -0.3582
  550TIP3    H1 1586   6.716   1.112   0.453  0.5850  0.7255 -0.4082
  550TIP3    H2 1587   6.787   0.987   0.405 -0.5729 -0.0797 -0.0480
  551TIP3   OH2 1588   7.139   1.331   0.918  0.2245 -0.1797  0.2775
  551TIP3    H1 1589   7.105   1.335   0.829  0.2675 -1.0457  0.2145
  551TIP3    H2 1590   7.228   1.364   0.911  0.7060 -1.5337 -0.2635
  552TIP3   OH2 1591   6.273   2.453   1.429 -1.0641  0.1048  0.5291
  552TIP3    H1 1592   6.200   2.466   1.369 -1.5768 -1.4062  0.8267
  552TIP3    H2 1593   6.292   2.360   1.425  0.7501  0.4572  0.5766
  553TIP3   OH2 1594   1.044   3.213   5.748 -0.0623 -0.9750  0.1962
  553TIP3    H1 1595   1.061   3.120   5.764 -1.6048 -1.5426 -1.2979
  553TIP3    H2 1596   0.986   3.214   5.672  1.5731  1.3191 -1.0633
  554TIP3   OH2 1597   6.034   1.721   0.950 -0.4711 -0.1749 -0.1609
  554TIP3    H1 1598   6.104   1.784   0.970 -0.4358 -0.5895  1.0603
  554TIP3    H2 1599   6.077   1.636   0.956 -0.3983 -0.3139 -2.3139
  555TIP3   OH2 1600   5.427   1.908   2.320 -0.0030 -0.4852 -0.0372
  555TIP3    H1 1601   5.351   1.958   2.291  0.3669  0.7952  1.1418
  555TIP3    H2 1602   5.496   1.931   2.258  0.0581  0.1726  0.2720
  556TIP3   OH2 1603   5.753   1.679   0.232  0.3608  0.6597 -0.6015
  556TIP3    H1 1604   5.769   1.771   0.252  1.5425  0.0179  1.4925
  556TIP3    H2 1605   5.703   1.646   0.307 -2.0228  0.1227 -2.3706
  557TIP3   OH2 1606   4.756   3.207   1.678  0.1417  0.2309 -0.4898
  557TIP3    H1 1607   4.748   3.278   1.741 -1.2436 -2.0526  2.0262
  557TIP3    H2 1608   4.825   3.151   1.713 -0.7690 -1.1537 -0.8412
  558TIP3   OH2 1609   6.132   2.714   1.582 -0.0008  0.3277  0.3999
  558TIP3    H1 1610   6.198   2.769   1.624  0.9392 -0.7077  0.2962
  558TIP3    H2 1611   6.094   2.664   1.654 -0.6801  0.9217  0.4592
  559TIP3   OH2 1612   5.975   0.441   2.690 -0.1124  0.2714  0.0088
  559TIP3    H1 1613   6.044   0.375   2.677 -0.4109  0.1697 -1.1117
  559TIP3    H2 1614   5.899   0.404   2.645 -0.1159  1.6507 -1.1475
  560TIP3   OH2 1615   4.642   2.964   1.427 -0.0376  0.1845 -0.9826
  560TIP3    H1 1616   4.665   3.050   1.391 -0.2382  0.0968 -1.3265
  560TIP3    H2 1617   4.549   2.954   1.407  0.5037 -1.1049 -3.0023
  561TIP3   OH2 1618   8.082   0.650   2.045 -0.4490  0.7026 -0.1313
  561TIP3    H1 1619   8.091   0.708   2.121 -0.6611  0.4013  0.1274
  561TIP3    H2 1620   8.024   0.698   1.985 -1.5038  0.3073  0.5430
  562TIP3   OH2 1621   5.977   2.314   3.880  0.7556 -0.8440  0.0235
  562TIP3    H1 1622   6.067   2.286   3.898  0.7198  0.2519  2.0834
  562TIP3    H2 1623   5.944   2.344   3.965 -0.9195  0.5025 -1.0680
  563TIP3   OH2 1624   0.932   7.525   0.483 -0.7829 -0.1310  0.5467
  563TIP3    H1 1625   0.843   7.517   0.450 -1.1043  0.7407  1.1975
  563TIP3    H2 1626   0.943   7.450   0.541 -1.8190  0.8955  2.1033
  564TIP3   OH2 1627   7.531   3.226   1.227 -0.1721 -0.4360 -0.4488
  564TIP3    H1 1628   7.596   3.280   1.181 -0.0064  0.2566  0.5858
  564TIP3    H2 1629   7.469   3.290   1.263  0.7309 -0.8577  1.8823
  565TIP3   OH2 1630   7.489   0.082   2.066  0.1802 -0.2849 -0.3917
  565TIP3    H1 1631   7.529   0.019   2.126  1.1039 -1.6867 -2.4368
  565TIP3    H2 1632   7.407   0.041   2.039 -0.5788  0.6575  0.4068
  566TIP3   OH2 1633   6.679   1.186   0.615 -0.1554 -0.2991  0.8397
  566TIP3    H1 1634   6.651   1.278   0.613 -0.6676 -0.4665 -1.7532
  566TIP3    H2 1635   6.601   1.137   0.589  0.3381 -1.4206  1.4593
  567TIP3   OH2 1636   5.435   2.748   3.580  0.1163  0.0009  0.4758
  567TIP3    H1 1637   5.420   2.824   3.636  1.0588  0.6808 -0.1793
  567TIP3    H2 1638   5.501   2.696   3.626  0.3731  0.2049  0.3420
  568TIP3   OH2 1639   7.011   0.753   0.988  0.4313  0.0906  0.2434
  568TIP3    H1 1640   7.076   0.686   1.010 -0.0326 -0.2953  0.4489
  568TIP3    H2 1641   6.951   0.709   0.927  1.8947  1.2417 -2.1349
  569TIP3   OH2 1642   7.899   3.254   6.360 -0.5224 -0.4827  0.6342
  569TIP3    H1 1643   7.968   3.202   6.399  1.6268  1.3732 -0.5444
  569TIP3    H2 1644   7.848   3.287   6.434  0.5149 -0.9886  1.5773
  570TIP3   OH2 1645   6.508   3.380   1.034  0.0779  0.1208  0.1293
  570TIP3    H1 1646   6.423   3.372   1.077 -0.5278 -2.2871 -1.4631
  570TIP3    H2 1647   6.563   3.313   1.076  0.7431  0.6242  0.0766
  571TIP3   OH2 1648   3.914   7.663   2.081 -0.3105  0.0535  0.0749
  571TIP3    H1 1649   3.978   7.619   2.138  2.6265  0.7576 -2.5367
  571TIP3    H2 1650   3.904   7.750   2.120  1.7734  0.5735 -0.4807
  572TIP3   OH2 1651   5.422   0.929   1.672 -0.1680 -0.1810  0.2613
  572TIP3    H1 1652   5.441   1.021   1.685  0.5366 -0.0939 -1.3629
  572TIP3    H2 1653   5.507   0.885   1.681 -0.4643 -0.6615  0.8016
  573TIP3   OH2 1654   7.478   0.124   1.152 -0.2846 -0.1139 -0.0403
  573TIP3    H1 1655   7.396   0.082   1.124 -0.1403 -0.2710 -0.2342
  573TIP3    H2 1656   7.487   0.199   1.093 -0.7221  0.3931  0.5368
  574TIP3   OH2 1657   0.275   1.847   1.490 -0.3140  0.8793  0.0840
  574TIP3    H1 1658   0.330   1.793   1.433 -0.0294  0.3949  0.8105
  574TIP3    H2 1659   0.330   1.865   1.566 -1.6802 -0.9153  1.5250
  575TIP3   OH2 1660   8.056   1.853   5.473 -0.6434  0.0036  0.1829
  575TIP3    H1 1661   8.001   1.824   5.400  0.2123  2.7140 -1.6126
  575TIP3    H2 1662   8.022   1.940   5.495  0.0236 -0.1973  2.1090
  576TIP3   OH2 1663   6.114   3.976   3.724 -0.0732  0.0009  0.4538
  576TIP3    H1 1664   6.138   4.036   3.653 -1.2015  0.4412  0.4390
  576TIP3    H2 1665   6.096   4.032   3.799 -2.4393 -0.2095  0.0657
  577TIP3   OH2 1666   6.785   1.710   3.111  0.4986  0.3170  0.1566
  577TIP3    H1 1667   6.714   1.650   3.132  0.7266 -0.1392 -0.3585
  577TIP3    H2 1668   6.777   1.725   3.016  2.6255 -1.7716 -0.4065
  578TIP3   OH2 1669   4.201   7.760   0.505 -0.2066  0.3445 -1.2385
  578TIP3    H1 1670   4.127   7.818   0.521  0.2919  0.6922 -0.1685
  578TIP3    H2 1671   4.274   7.818   0.486  0.3585  0.0708  0.1159
  579TIP3   OH2 1672   8.185   3.827   5.575 -0.1046 -0.0598 -0.7925
  579TIP3    H1 1673   8.162   3.907   5.622  0.3137 -1.3060  1.5981
  579TIP3    H2 1674   8.108   3.771   5.581  0.8681 -1.2788  0.7721
  580TIP3   OH2 1675   5.366   0.209   0.215 -0.3386  0.0571  0.7421
  580TIP3    H1 1676   5.296   0.186   0.276 -1.1786  0.5526 -0.0390
  580TIP3    H2 1677   5.322   0.222   0.131  0.8821 -1.2390 -0.1225
  581TIP3   OH2 1678   6.277   2.815   0.856 -0.0051 -0.2746 -0.3986
  581TIP3    H1 1679   6.299   2.742   0.799 -1.5261 -0.1465 -1.1793
  581TIP3    H2 1680   6.251   2.774   0.939  1.7659 -0.4777  0.0824
  582TIP3   OH2 1681   5.732   0.807   0.056 -0.1878 -0.6714  0.0164
  582TIP3    H1 1682   5.741   0.831   0.149  0.9396 -1.4093  0.1052
  582TIP3    H2 1683   5.706   0.715   0.058  1.2698 -1.0973 -0.4206
  583TIP3   OH2 1684   8.372   5.516   5.906 -0.3531  0.0881 -0.1805
  583TIP3    H1 1685   8.429   5.457   5.955  0.9411 -0.2114 -1.9762
  583TIP3    H2 1686   8.313   5.553   5.971  1.3646 -0.2384  1.5970
  584TIP3   OH2 1687   6.805   2.151   2.509 -0.0396  0.5059 -0.5012
  584TIP3    H1 1688   6.727   2.171   2.562  0.4602 -0.9691  0.8257
  584TIP3    H2 1689   6.774   2.091   2.441 -0.1795  0.3700 -0.3183
  585TIP3   OH2 1690   6.796   2.844   0.742 -0.5569 -0.6352  0.3660
  585TIP3    H1 1691   6.864   2.909   0.758  0.8426 -2.1142  0.5319
  585TIP3    H2 1692   6.731   2.889   0.688 -0.1809  1.2362  1.4521
  586TIP3   OH2 1693   6.210   0.812   0.669  0.2194  0.0748 -0.0858
  586TIP3    H1 1694   6.124   0.854   0.678 -0.0498 -0.0432 -1.9770
  586TIP3    H2 1695   6.243   0.841   0.585  2.0440  0.0798  0.6114
  587TIP3   OH2 1696   5.351   1.891   1.270  0.0317  0.0690 -0.1754
  587TIP3    H1 1697   5.314   1.960   1.324 -0.9000 -0.5406 -0.0356
  587TIP3    H2 1698   5.377   1.823   1.332 -1.3136 -0.7593 -0.5122
  588TIP3   OH2 1699   0.054   3.532   0.988  0.5027  0.9807  0.3356
  588TIP3    H1 1700  -0.002   3.604   0.960  1.1823  1.4824  0.2744
  588TIP3    H2 1701   0.093   3.498   0.907 -0.5649 -0.0854  0.2534
  589TIP3   OH2 1702   8.326   0.422   1.658 -0.0140 -0.1115 -0.1374
  589TIP3    H1 1703   8.319   0.392   1.749 -2.0992 -0.2621 -0.3247
  589TIP3    H2 1704   8.421   0.427   1.642  0.3821  0.6099  2.2519
  590TIP3   OH2 1705   0.432   1.784   0.121 -0.0243  0.0714  0.1434
  590TIP3    H1 1706   0.410   1.789   0.028  0.7749  0.7983 -0.0092
  590TIP3    H2 1707   0.421   1.873   0.153  0.3058 -0.0562  0.6130
  591TIP3   OH2 1708   4.724   2.612   1.157  0.3550 -0.0615  0.1058
  591TIP3    H1 1709   4.748   2.579   1.071  1.2187  1.0504 -0.0941
  591TIP3    H2 1710   4.808   2.627   1.201 -0.0810 -3.1596  2.1427
  592TIP3   OH2 1711   5.969   0.407   1.624  0.2473  0.5274 -0.2503
  592TIP3    H1 1712   5.890   0.356   1.605  0.5260  0.1856 -0.5089
  592TIP3    H2 1713   5.965   0.424   1.718 -0.2859  0.7678 -0.3161
  593TIP3   OH2 1714   2.422   4.644   6.752  0.0613 -0.0486 -0.2623
  593TIP3    H1 1715   2.475   4.565   6.741 -0.1363 -0.3256  0.6878
  593TIP3    H2 1716   2.387   4.662   6.665 -0.0114 -1.0929 -0.4553
  594TIP3   OH2 1717   3.488   7.431   0.668  0.7695  0.1761  0.1975
  594TIP3    H1 1718   3.543   7.507   0.651 -1.1125  1.0703 -2.2283
  594TIP3    H2 1719   3.499   7.376   0.590 -0.1963 -0.6119  0.6071
  595TIP3   OH2 1720   4.716   3.654   1.738  0.0290 -0.2267 -0.1618
  595TIP3    H1 1721   4.705   3.730   1.681  0.6931 -0.8551 -1.1424
  595TIP3    H2 1722   4.776   3.597   1.691 -1.1755 -1.7812  0.1411
  596TIP3   OH2 1723   7.983   1.839   1.252 -0.0360 -0.0167  0.1507
  596TIP3    H1 1724   8.017   1.750   1.256  1.3051  0.5161  0.6135
  596TIP3    H2 1725   8.017   1.874   1.170  0.2608  0.4059  0.4532
  597TIP3   OH2 1726   1.579   7.112   2.719 -0.5538  0.2553 -0.2899
  597TIP3    H1 1727   1.617   7.050   2.657 -0.1293  0.8613 -0.6354
  597TIP3    H2 1728   1.500   7.068   2.752  0.5716 -1.1021  0.6190
  598TIP3   OH2 1729   0.418   5.223   5.926 -0.1882 -0.1091 -0.0785
  598TIP3    H1 1730   0.498   5.274   5.929 -0.3832  0.2170 -0.4661
  598TIP3    H2 1731   0.419   5.173   6.008 -0.2000  0.8160  0.4947
  599TIP3   OH2 1732   8.477   0.887   1.821 -0.4144  0.2678 -0.1187
  599TIP3    H1 1733   8.524   0.804   1.812  0.6914  0.6944  1.5862
  599TIP3    H2 1734   8.415   0.871   1.893 -2.0534  0.1055 -1.5218
  600TIP3   OH2 1735   6.078   1.725   0.266 -0.8092 -1.0749  0.2320
  600TIP3    H1 1736   6.139   1.744   0.195 -0.9048 -0.0364  0.4079
  600TIP3    H2 1737   5.999   1.693   0.223 -1.1613  0.3370 -0.1996
  601TIP3   OH2 1738   7.390   2.266   0.264 -0.6051  0.4418  0.9281
  601TIP3    H1 1739   7.330   2.258   0.338 -1.0545 -0.7562  0.4376
  601TIP3    H2 1740   7.374   2.188   0.210  2.5416 -0.7576  1.6192
  602TIP3   OH2 1741   6.889   2.419   1.428  0.1054 -0.2843  0.2872
  602TIP3    H1 1742   6.845   2.418   1.343 -0.1755 -1.0671  0.4369
  602TIP3    H2 1743   6.825   2.383   1.489  0.6230 -0.5550  0.6729
  603TIP3   OH2 1744   5.070   3.462   1.987 -0.5588  0.0633  0.0676
  603TIP3    H1 1745   5.153   3.508   1.974  0.5774 -2.0806 -0.5862
  603TIP3    H2 1746   5.004   3.531   1.988  1.2990  1.8965  1.3912
  604TIP3   OH2 1747   7.632   1.606   1.897 -0.0408  0.1991 -0.5129
  604TIP3    H1 1748   7.701   1.570   1.841 -0.6787 -1.4366 -0.2675
  604TIP3    H2 1749   7.565   1.538   1.901 -0.7965  0.9812  0.8399
  605TIP3   OH2 1750   7.897   5.514   4.344 -0.0088 -0.8058  0.2494
  605TIP3    H1 1751   7.915   5.472   4.428  2.1563 -1.8262 -0.6843
  605TIP3    H2 1752   7.836   5.455   4.300  1.1219 -1.7552 -0.0621
  606TIP3   OH2 1753   6.853   3.710   0.029 -0.4322 -0.7606  0.1515
  606TIP3    H1 1754   6.894   3.796   0.022 -1.3654 -0.2681  0.5322
  606TIP3    H2 1755   6.862   3.688   0.122 -1.3679 -0.4555  0.3285
  607TIP3   OH2 1756   7.501   4.342   1.916  0.2245  0.4389  0.2235
  607TIP3    H1 1757   7.517   4.261   1.964 -1.1058 -0.5070 -0.9099
  607TIP3    H2 1758   7.489   4.408   1.984  0.0196 -0.5672  1.1764
  608TIP3   OH2 1759   1.416   5.468   6.383 -0.5910 -0.4444 -0.1735
  608TIP3    H1 1760   1.457   5.545   6.421  0.7515 -1.6924  0.9579
  608TIP3    H2 1761   1.488   5.407   6.368 -1.3670 -0.7900 -2.7866
  609TIP3   OH2 1762   6.632   5.049   4.767  0.3006  0.6059  0.3199
  609TIP3    H1 1763   6.557   5.089   4.811  0.8022  0.9234  0.8842
  609TIP3    H2 1764   6.703   5.054   4.830  0.4906 -0.7885  0.2324
  610TIP3   OH2 1765   0.830   5.962   6.426 -0.4830 -0.0039  0.2435
  610TIP3    H1 1766   0.866   5.874   6.440 -0.6238 -0.2433 -0.8833
  610TIP3    H2 1767   0.895   6.021   6.464  0.2649 -0.5235 -0.2190
  611TIP3   OH2 1768   8.142   1.909   1.047  0.2408  0.4649 -0.3143
  611TIP3    H1 1769   8.220   1.955   1.078  0.6854 -1.0836  0.8852
  611TIP3    H2 1770   8.172   1.856   0.973  0.1971  0.3397 -0.2427
  612TIP3   OH2 1771   2.568   5.888   6.345  1.0388 -0.0850  0.2716
  612TIP3    H1 1772   2.554   5.960   6.406  0.1423 -1.4816  1.7244
  612TIP3    H2 1773   2.629   5.830   6.389  3.8817  1.0489 -1.9872
  613TIP3   OH2 1774   0.695   6.936   6.890  0.2882  0.2262  0.3460
  613TIP3    H1 1775   0.779   6.902   6.921  0.9772  0.4381 -1.2434
  613TIP3    H2 1776   0.714   7.026   6.864  0.0393 -0.3465 -1.8971
  614TIP3   OH2 1777   5.684   0.539   3.582 -0.2100  0.0714 -0.2047
  614TIP3    H1 1778   5.606   0.504   3.538  0.0489  0.9773 -1.3912
  614TIP3    H2 1779   5.758   0.506   3.530  0.0902  1.3327 -0.5825
  615TIP3   OH2 1780   3.801   2.522   0.734  0.0494  0.3395 -1.1085
  615TIP3    H1 1781   3.848   2.521   0.817  1.0634  1.9213 -1.6394
  615TIP3    H2 1782   3.713   2.490   0.756  0.2574  0.8736  0.5837
  616TIP3   OH2 1783   7.731   0.942   2.894  0.2915 -0.0702  0.7243
  616TIP3    H1 1784   7.674   1.018   2.885  0.6944  0.1696  0.2172
  616TIP3    H2 1785   7.817   0.973   2.868  0.4910 -0.6566  0.6820
  617TIP3   OH2 1786   6.193   2.501   3.208  0.0405 -0.0824  0.3179
  617TIP3    H1 1787   6.164   2.535   3.293  0.0936 -1.0532  0.7382
  617TIP3    H2 1788   6.138   2.424   3.194  1.6481 -1.2883  0.5881
  618TIP3   OH2 1789   2.774   6.260   6.280 -0.5244 -0.4963  0.2961
  618TIP3    H1 1790   2.868   6.252   6.264 -0.3896  1.2164  0.0611
  618TIP3    H2 1791   2.734   6.240   6.195 -0.3340 -0.6160  0.2331
  619TIP3   OH2 1792   7.126   2.191   1.676  0.3019 -0.5725 -0.0232
  619TIP3    H1 1793   7.197   2.128   1.664 -0.0649 -0.6544 -1.9413
  619TIP3    H2 1794   7.143   2.258   1.610 -1.8551 -1.0212 -1.0684
  620TIP3   OH2 1795   1.102   3.811   1.527  0.4700  0.2257 -0.2102
  620TIP3    H1 1796   1.103   3.887   1.468  0.1980  0.4369  0.0501
  620TIP3    H2 1797   1.181   3.822   1.580 -0.6694  1.5010  1.2753
  621TIP3   OH2 1798   7.027   3.844   0.483  0.4220 -0.1932  0.5090
  621TIP3    H1 1799   7.100   3.825   0.425  0.6035 -0.7269  0.9095
  621TIP3    H2 1800   7.067   3.881   0.561  0.3418 -1.3300  1.0924
  622TIP3   OH2 1801   1.390   6.925   6.892 -0.4094 -0.6019 -0.6775
  622TIP3    H1 1802   1.414   6.833   6.882 -0.6424 -0.3927 -3.5433
  622TIP3    H2 1803   1.461   6.973   6.850 -0.8083  0.5053 -0.1133
  623TIP3   OH2 1804   8.265   3.153   1.629 -0.1247  0.2266  0.2158
  623TIP3    H1 1805   8.283   3.185   1.541 -1.5592 -0.7892 -0.4734
  623TIP3    H2 1806   8.314   3.212   1.687 -0.3453  1.8118 -1.1699
  624TIP3   OH2 1807   5.405   3.375   0.824  0.3813 -0.4925 -0.2122
  624TIP3    H1 1808   5.475   3.440   0.811  0.2732 -0.1622  0.8928
  624TIP3    H2 1809   5.452   3.292   0.829  0.6385 -0.3477 -0.1642
  625TIP3   OH2 1810   3.665   6.802   2.083 -0.0796  0.3395 -0.0626
  625TIP3    H1 1811   3.594   6.762   2.133  0.9858 -0.7128  0.6382
  625TIP3    H2 1812   3.705   6.864   2.144  0.6252 -0.2565  0.0902
  626TIP3   OH2 1813   0.590   5.790   6.100  0.3603 -0.1247 -0.2437
  626TIP3    H1 1814   0.576   5.874   6.058 -1.0481  0.5269  1.4748
  626TIP3    H2 1815   0.533   5.729   6.052  0.0992  0.2421 -0.3978
  627TIP3   OH2 1816   6.974   3.094   0.366  0.3202  0.4436  0.5968
  627TIP3    H1 1817   7.036   3.068   0.434  1.5281  0.7996 -0.3402
  627TIP3    H2 1818   6.985   3.189   0.359  1.4129  0.2035 -1.2248
  628TIP3   OH2 1819   0.005   3.211   0.053 -0.1915  0.1180  0.4317
  628TIP3    H1 1820   0.034   3.302   0.040  1.3764 -0.2736  1.0463
  628TIP3    H2 1821   0.079   3.169   0.098 -1.0486 -1.3748  0.4631
  629TIP3   OH2 1822   0.934   5.078   6.429  0.1537 -0.0969 -0.2344
  629TIP3    H1 1823   0.940   5.168   6.461  0.1427 -0.1705 -0.0263
  629TIP3    H2 1824   0.858   5.079   6.371 -1.4900 -0.6062  1.8639
  630TIP3   OH2 1825   1.033   7.972   6.410 -0.6256  0.1807 -0.1321
  630TIP3    H1 1826   1.080   8.021   6.478  0.7953 -0.0241 -0.9392
  630TIP3    H2 1827   1.022   8.035   6.338  0.9896 -0.5802 -1.0745
  631TIP3   OH2 1828   1.640   7.960   6.623  0.1819 -0.3071 -0.0877
  631TIP3    H1 1829   1.552   7.939   6.653  0.4983 -1.0406  0.3498
  631TIP3    H2 1830   1.684   7.995   6.701  0.4396 -0.4524 -0.1680
  632TIP3   OH2 1831   8.009   3.933   1.209 -0.2030 -0.3444 -0.8511
  632TIP3    H1 1832   8.103   3.944   1.193  0.2600 -1.4756  1.0068
  632TIP3    H2 1833   7.967   3.984   1.139  1.7804  2.9241  0.2351
  633TIP3   OH2 1834   0.190   2.092   1.990  0.1599  0.1685 -0.6259
  633TIP3    H1 1835   0.212   2.033   1.918  1.5840  1.0877 -0.9796
  633TIP3    H2 1836   0.117   2.144   1.956  1.0285  0.8157 -1.5677
  634TIP3   OH2 1837   0.697   6.409   6.615 -0.4137 -0.1956  0.2264
  634TIP3    H1 1838   0.629   6.403   6.548  1.8932 -1.5207 -2.0787
  634TIP3    H2 1839   0.697   6.324   6.658 -0.1851 -0.2366  0.1511
  635TIP3   OH2 1840   6.236   2.672   1.932  0.3186  0.5703 -0.1823
  635TIP3    H1 1841   6.147   2.704   1.945  0.6161  0.8013  1.3911
  635TIP3    H2 1842   6.291   2.736   1.978  1.2013 -0.2105 -0.1433
  636TIP3   OH2 1843   6.955   1.630   0.450  0.2950 -0.4246 -0.2925
  636TIP3    H1 1844   6.987   1.543   0.426  2.1823 -0.0064  0.6684
  636TIP3    H2 1845   7.017   1.691   0.410 -0.7140  0.4789 -0.5157
  637TIP3   OH2 1846   8.270   4.887   5.984  0.1761 -0.6006 -0.4663
  637TIP3    H1 1847   8.314   4.809   6.016 -1.4800 -1.3643 -0.0428
  637TIP3    H2 1848   8.211   4.856   5.916 -0.3737  0.2905 -0.4125
  638TIP3   OH2 1849   8.009   1.508   2.058  0.0550  0.5373  0.3215
  638TIP3    H1 1850   7.928   1.553   2.083 -0.2008  0.1848  0.1365
  638TIP3    H2 1851   8.053   1.568   1.998 -0.5173  0.3407 -0.3016
  639TIP3   OH2 1852   7.891   2.367   1.582  0.0738 -0.4799  0.1427
  639TIP3    H1 1853   7.888   2.439   1.645  0.2413 -1.0232  0.7747
  639TIP3    H2 1854   7.984   2.348   1.571 -0.0225 -1.6752  1.2283
  640TIP3   OH2 1855   4.568   7.649   1.295  0.4734  0.4053  0.2888
  640TIP3    H1 1856   4.599   7.622   1.208 -0.9359  1.9298 -0.7313
  640TIP3    H2 1857   4.588   7.743   1.299  1.6614  0.0941  2.1361
  641TIP3   OH2 1858   7.750   2.203   1.145 -0.1390  0.1452  0.0186
  641TIP3    H1 1859   7.828   2.233   1.098 -0.2478  0.0177 -0.2405
  641TIP3    H2 1860   7.728   2.119   1.104  0.8316 -0.8488  1.4769
  642TIP3   OH2 1861   7.330   1.093   0.882 -0.0616  0.7686 -0.0371
  642TIP3    H1 1862   7.249   1.060   0.842 -0.0450  1.2580 -0.4733
  642TIP3    H2 1863   7.318   1.188   0.885  0.6332  0.8641 -0.3972
  643TIP3   OH2 1864   0.767   5.805   5.526 -0.2793  0.3642 -0.1851
  643TIP3    H1 1865   0.839   5.851   5.569 -0.2504 -0.7905  1.0323
  643TIP3    H2 1866   0.692   5.818   5.583 -0.2352 -1.1978  0.2542
  644TIP3   OH2 1867   1.339   4.761   6.433 -0.6269 -0.0448 -0.2752
  644TIP3    H1 1868   1.364   4.732   6.521  0.1199  0.6328 -0.2622
  644TIP3    H2 1869   1.273   4.698   6.405  0.6281 -1.4929 -0.0506
  645TIP3   OH2 1870   6.223   4.006   0.783 -0.4804 -0.3133  0.2127
  645TIP3    H1 1871   6.285   3.932   0.783 -1.8182 -1.4870 -2.2251
  645TIP3    H2 1872   6.279   4.083   0.783  0.9579 -1.2966  1.9787
  646TIP3   OH2 1873   0.114   1.301   3.430  0.5323 -0.8748  0.5333
  646TIP3    H1 1874   0.055   1.291   3.504 -1.5837  1.3484 -0.7926
  646TIP3    H2 1875   0.083   1.237   3.366  1.2273 -1.5344  0.8492
  647TIP3   OH2 1876   1.467   7.000   6.473  0.0220  0.6121  0.5657
  647TIP3    H1 1877   1.542   7.012   6.531  0.1505 -0.4575  0.6156
  647TIP3    H2 1878   1.416   7.081   6.482 -0.2702  0.2182  2.6034
  648TIP3   OH2 1879   6.795   2.450   0.080  1.0028  0.6276  0.0314
  648TIP3    H1 1880   6.760   2.524   0.032  1.2288  0.5345 -0.2819
  648TIP3    H2 1881   6.802   2.480   0.170 -1.0924  0.2191  0.3441
  649TIP3   OH2 1882   7.275   3.782   1.139  0.4889 -0.3404 -0.1839
  649TIP3    H1 1883   7.240   3.832   1.066  0.8220 -0.2639 -0.2932
  649TIP3    H2 1884   7.300   3.698   1.100  1.0976 -0.1305 -0.2531
  650TIP3   OH2 1885   7.551   4.843   0.173 -0.5067  0.3325  0.4361
  650TIP3    H1 1886   7.584   4.830   0.262 -0.4459  1.2353  0.5509
  650TIP3    H2 1887   7.483   4.910   0.183  0.3580  1.3479 -0.3733
  651TIP3   OH2 1888   1.310   6.024   6.212 -0.9596  0.3455 -0.0704
  651TIP3    H1 1889   1.235   6.079   6.193 -2.3938 -1.6954 -0.5250
  651TIP3    H2 1890   1.272   5.938   6.232  1.1952 -0.4782  0.6511
  652TIP3   OH2 1891   5.711   4.943   1.271  0.3753 -0.2573 -0.2497
  652TIP3    H1 1892   5.700   4.863   1.324  1.1026  0.5450  1.1404
  652TIP3    H2 1893   5.622   4.967   1.246 -0.2460  0.6335  2.5796
  653TIP3   OH2 1894   5.766   3.488   1.611 -0.4754 -0.2696  0.5522
  653TIP3    H1 1895   5.680   3.520   1.583 -0.2553 -0.5884 -0.5170
  653TIP3    H2 1896   5.757   3.393   1.615  1.2631 -0.8466 -4.8678
  654TIP3   OH2 1897   0.661   7.260   4.762 -0.2415  0.9735 -0.1752
  654TIP3    H1 1898   0.666   7.227   4.851 -0.8141 -0.1557 -0.5501
  654TIP3    H2 1899   0.568   7.258   4.741  0.0474 -0.5554 -1.4425
  655TIP3   OH2 1900   1.271   5.217   2.584  0.1247 -0.0198 -0.0079
  655TIP3    H1 1901   1.197   5.242   2.639  0.2974 -1.5252  0.9554
  655TIP3    H2 1902   1.347   5.220   2.643  0.6127  0.1895 -0.6387
  656TIP3   OH2 1903   7.510   3.259   1.585 -0.1011  0.3478 -0.6967
  656TIP3    H1 1904   7.536   3.196   1.518  0.2160 -0.0756 -0.1784
  656TIP3    H2 1905   7.575   3.328   1.580  1.1053 -0.6657  0.5353
  657TIP3   OH2 1906   4.079   7.080   6.740  0.1114  0.3912 -0.4006
  657TIP3    H1 1907   4.117   7.124   6.815 -0.5423 -1.0263  0.7938
  657TIP3    H2 1908   4.148   7.081   6.674  1.5323 -0.3949  1.0328
  658TIP3   OH2 1909   7.779   3.182   2.532 -0.4444 -0.1006  0.5237
  658TIP3    H1 1910   7.753   3.090   2.532  1.6887 -0.7265 -0.5172
  658TIP3    H2 1911   7.858   3.184   2.586  0.7203  0.7434 -1.1755
  659TIP3   OH2 1912   7.606   3.895   1.823 -0.2997  0.5819  0.0817
  659TIP3    H1 1913   7.642   3.806   1.813  2.0071  1.4206  0.5621
  659TIP3    H2 1914   7.525   3.894   1.772  1.1827 -0.9753 -2.3433
  660TIP3   OH2 1915   1.622   2.750   1.551 -0.0095  1.0608  0.5063
  660TIP3    H1 1916   1.566   2.682   1.589  1.0796  0.3676  0.8968
  660TIP3    H2 1917   1.562   2.805   1.501 -1.1765  0.8585  1.6442
  661TIP3   OH2 1918   0.230   2.690   1.648  0.4569 -0.0990  0.4098
  661TIP3    H1 1919   0.166   2.659   1.712  0.2679 -3.8239 -1.4957
  661TIP3    H2 1920   0.310   2.705   1.699 -0.4200 -0.5007  1.9282
  662TIP3   OH2 1921   8.165   2.672   0.388  0.3349 -0.1770 -0.5934
  662TIP3    H1 1922   8.090   2.615   0.369  0.2739 -0.8663  1.5187
  662TIP3    H2 1923   8.230   2.649   0.322 -0.2266 -1.7193 -0.6391
  663TIP3   OH2 1924   7.252   2.015   0.217 -0.3626  0.5382 -0.8216
  663TIP3    H1 1925   7.292   2.003   0.131 -0.3301  1.2888 -0.9195
  663TIP3    H2 1926   7.162   2.041   0.199 -0.4934  0.2181 -0.6251
  664TIP3   OH2 1927   0.196   3.209   2.912  0.5348 -0.2733 -0.6029
  664TIP3    H1 1928   0.200   3.185   2.819 -1.2966  0.7467 -0.9568
  664TIP3    H2 1929   0.148   3.291   2.913  0.2269 -0.4672  1.3089
  665TIP3   OH2 1930   1.372   4.200   0.251  0.0530  0.0126 -0.0403
  665TIP3    H1 1931   1.304   4.235   0.193 -0.4743 -1.9272 -0.6525
  665TIP3    H2 1932   1.323   4.151   0.318  0.7131  1.3042  1.4292
  666TIP3   OH2 1933   1.755   5.816   2.787  0.2761 -0.3374 -0.5928
  666TIP3    H1 1934   1.701   5.825   2.866 -0.0440 -2.4840 -0.5246
  666TIP3    H2 1935   1.845   5.825   2.818  0.1302 -0.7678 -0.0328
  667TIP3   OH2 1936   8.379   5.434   2.475  0.3228  0.2731  0.3516
  667TIP3    H1 1937   8.425   5.388   2.405  2.0108  0.3366  1.4118
  667TIP3    H2 1938   8.335   5.365   2.524 -0.0535  0.1383 -0.1617
  668TIP3   OH2 1939   2.690   7.066   6.787 -0.1398 -0.0253 -0.1971
  668TIP3    H1 1940   2.708   7.122   6.712 -1.6440  0.4869 -0.1870
  668TIP3    H2 1941   2.733   7.109   6.861  2.3696 -1.1429 -0.9294
  669TIP3   OH2 1942   8.216   5.076   1.324  0.6882 -0.8325 -0.0450
  669TIP3    H1 1943   8.188   4.991   1.290  1.8872 -1.6886  1.0938
  669TIP3    H2 1944   8.212   5.066   1.419 -0.4480  0.8238  0.1097
  670TIP3   OH2 1945   7.446   4.151   2.614 -0.1661  0.1259 -0.3108
  670TIP3    H1 1946   7.425   4.102   2.534 -0.9391  2.2102 -1.4556
  670TIP3    H2 1947   7.403   4.103   2.684 -0.7237 -0.9319 -1.3605
  671TIP3   OH2 1948   3.234   5.161   6.864  0.2684 -0.0720 -0.3438
  671TIP3    H1 1949   3.171   5.119   6.805  0.3641 -0.8968  0.1372
  671TIP3    H2 1950   3.285   5.219   6.807 -2.6083  2.6062 -0.3251
  672TIP3   OH2 1951   8.252   2.991   3.127 -0.0784  0.2672 -0.4826
  672TIP3    H1 1952   8.199   2.913   3.141 -1.3013  0.9994 -1.0025
  672TIP3    H2 1953   8.307   2.969   3.052 -0.6054 -0.0012 -0.7944
  673TIP3   OH2 1954   7.002   3.114   3.257 -0.1237 -0.3896 -0.0900
  673TIP3    H1 1955   6.960   3.176   3.318 -0.4896 -0.7250  0.0013
  673TIP3    H2 1956   7.095   3.125   3.272 -0.1793  0.3047 -0.2278
  674TIP3   OH2 1957   0.140   1.808   2.602 -0.1500 -0.1696 -0.2528
  674TIP3    H1 1958   0.070   1.756   2.642 -0.2189 -0.3731 -0.6326
  674TIP3    H2 1959   0.096   1.883   2.564 -0.2061 -0.4699 -0.7858
  675TIP3   OH2 1960   2.698   1.995   1.104  0.1031 -0.6911 -0.0633
  675TIP3    H1 1961   2.784   1.986   1.062  0.0002  2.0374 -0.9087
  675TIP3    H2 1962   2.637   2.009   1.032 -0.1406  3.6578  0.8449
  676TIP3   OH2 1963   8.130   3.719   2.639 -0.4481  0.6967  0.3515
  676TIP3    H1 1964   8.067   3.773   2.686 -1.0604 -1.4211  2.0908
  676TIP3    H2 1965   8.085   3.695   2.558 -1.6879 -0.2823  1.2976
  677TIP3   OH2 1966   0.634   3.245   1.580 -0.1237  0.9251 -0.1496
  677TIP3    H1 1967   0.696   3.304   1.536  0.3973 -2.1821 -3.7726
  677TIP3    H2 1968   0.558   3.241   1.522 -1.7157  0.8835  1.8827
  678TIP3   OH2 1969   7.011   1.448   2.929  0.0345  0.2013 -0.1797
  678TIP3    H1 1970   7.101   1.473   2.911  1.0254 -2.3427  0.9741
  678TIP3    H2 1971   7.006   1.442   3.025 -1.5701  1.0616 -0.1942
  679TIP3   OH2 1972   7.512   1.704   2.348 -0.3467  0.2206  0.2497
  679TIP3    H1 1973   7.440   1.680   2.290  0.5649  1.0050 -1.2354
  679TIP3    H2 1974   7.549   1.784   2.309  0.7720  0.3193  1.4754
  680TIP3   OH2 1975   8.330   4.217   0.638 -0.3390 -0.4162 -0.0039
  680TIP3    H1 1976   8.290   4.137   0.672 -1.7140  0.2020 -0.1298
  680TIP3    H2 1977   8.337   4.275   0.714  1.2512 -0.8706  0.2194
  681TIP3   OH2 1978   0.596   4.686   2.449  0.1378  0.3989  0.0055
  681TIP3    H1 1979   0.537   4.761   2.458 -1.4802 -0.4593 -2.6676
  681TIP3    H2 1980   0.645   4.704   2.369  3.4987  1.0253  2.1186
  682TIP3   OH2 1981   0.578   4.692   2.927 -0.4532 -0.1607  0.1545
  682TIP3    H1 1982   0.544   4.777   2.955 -0.6144  0.1713 -0.9992
  682TIP3    H2 1983   0.627   4.712   2.847 -2.4541 -1.4849 -1.4309
  683TIP3   OH2 1984   0.028   2.227   1.701 -0.2381 -0.2481  0.1466
  683TIP3    H1 1985   0.022   2.277   1.782  2.5977 -0.0231  0.2622
  683TIP3    H2 1986   0.057   2.291   1.636  1.1730 -1.2116 -0.2054
  684TIP3   OH2 1987   0.102   3.931   1.527  0.2576  0.0759  0.1976
  684TIP3    H1 1988   0.151   3.855   1.558 -1.1255 -1.1632 -0.5724
  684TIP3    H2 1989   0.036   3.945   1.594  0.7287  0.8090  0.5044
  685TIP3   OH2 1990   1.439   1.932   2.376 -0.5938  0.0040  0.2415
  685TIP3    H1 1991   1.347   1.931   2.350 -0.6984 -0.7562  0.6386
  685TIP3    H2 1992   1.485   1.887   2.305 -0.7891 -1.4402  1.0310
  686TIP3   OH2 1993   1.576   0.788   0.258 -0.0693 -0.0295 -0.3789
  686TIP3    H1 1994   1.538   0.833   0.334  0.4829  0.7803 -0.5802
  686TIP3    H2 1995   1.632   0.853   0.217  0.1361 -0.6676 -1.1221
  687TIP3   OH2 1996   1.393   2.753   1.363 -0.2910 -0.0689  0.1548
  687TIP3    H1 1997   1.311   2.716   1.333  0.0809  0.7344 -1.9370
  687TIP3    H2 1998   1.396   2.840   1.323 -0.1768  1.4258  3.2496
  688TIP3   OH2 1999   1.952   2.960   2.220  0.0082  0.0856  0.2223
  688TIP3    H1 2000   1.931   3.019   2.148 -0.5902 -0.0648  0.2726
  688TIP3    H2 2001   1.879   2.968   2.280  0.8690  0.7887  1.1911
  689TIP3   OH2 2002   1.075   2.914   2.268  0.1057  0.0249 -0.1854
  689TIP3    H1 2003   1.066   2.820   2.280  0.3468  0.1563  1.1075
  689TIP3    H2 2004   0.992   2.941   2.230  0.0328 -0.7108 -0.5580
  690TIP3   OH2 2005   6.719   3.469   2.890 -0.1646 -0.5500 -0.2589
  690TIP3    H1 2006   6.786   3.532   2.916 -0.5254 -0.5235  0.5922
  690TIP3    H2 2007   6.640   3.521   2.878  0.1892 -0.4089 -2.3089
  691TIP3   OH2 2008   0.959   2.332   2.180 -0.0135 -0.0453  0.1362
  691TIP3    H1 2009   1.052   2.317   2.197  0.1708 -0.1785 -0.9481
  691TIP3    H2 2010   0.934   2.260   2.122 -0.3496  1.0062 -1.0449
  692TIP3   OH2 2011   7.732   3.383   1.136 -0.2985  0.4187 -0.0373
  692TIP3    H1 2012   7.824   3.357   1.131 -0.3225  0.5359 -1.3378
  692TIP3    H2 2013   7.735   3.479   1.138 -0.3888  0.4219 -0.0710
  693TIP3   OH2 2014   7.217   4.953   1.934 -0.2737  0.4136 -0.3962
  693TIP3    H1 2015   7.154   4.898   1.888 -0.9605  2.0611 -1.4614
  693TIP3    H2 2016   7.166   4.996   2.003 -0.1950  1.2999 -0.8872
  694TIP3   OH2 2017   7.754   1.685   5.685 -0.4369  0.0871 -0.8129
  694TIP3    H1 2018   7.836   1.729   5.660  0.4431 -1.7655 -1.2898
  694TIP3    H2 2019   7.741   1.709   5.777  0.4724  0.6714 -0.8333
  695TIP3   OH2 2020   2.036   5.998   2.073  0.5695 -0.0862  0.5491
  695TIP3    H1 2021   2.104   5.972   2.136  2.5389 -0.2304 -1.5948
  695TIP3    H2 2022   2.042   5.932   2.004 -1.3427  0.2895  0.0011
  696TIP3   OH2 2023   3.325   7.043   5.930  0.0333 -0.1322 -0.4604
  696TIP3    H1 2024   3.299   7.004   6.013 -0.2505 -1.2302 -1.0625
  696TIP3    H2 2025   3.242   7.060   5.884  0.0318  2.9227  0.5580
  697TIP3   OH2 2026   0.352   0.820   6.597 -0.3519  0.2107 -0.3228
  697TIP3    H1 2027   0.427   0.763   6.612 -0.8907 -0.3213  0.3680
  697TIP3    H2 2028   0.369   0.862   6.513  1.2099  0.8459  0.2938
  698TIP3   OH2 2029   7.730   1.948   1.821  0.5002 -0.3667 -0.3837
  698TIP3    H1 2030   7.816   1.966   1.860 -0.6844  1.6188  1.4537
  698TIP3    H2 2031   7.669   2.001   1.872 -1.6568 -0.6577 -2.5453
  699TIP3   OH2 2032   2.437   3.685   0.765 -0.1853 -0.2244 -0.1629
  699TIP3    H1 2033   2.368   3.678   0.700 -0.3605  1.9604 -0.2513
  699TIP3    H2 2034   2.470   3.774   0.756 -0.1142  0.0896  2.6271
  700TIP3   OH2 2035  -0.009   2.352   1.982  0.0992  0.7554  0.2552
  700TIP3    H1 2036   0.054   2.422   1.998 -0.0919  0.9310  0.2466
  700TIP3    H2 2037  -0.044   2.330   2.069  0.3497  0.4920  0.2882
  701TIP3   OH2 2038   7.770   1.618   6.489 -0.4870  0.1819 -0.8013
  701TIP3    H1 2039   7.687   1.571   6.496 -0.6634  0.4491 -1.0989
  701TIP3    H2 2040   7.834   1.560   6.531 -1.0361  0.5310  0.5384
  702TIP3   OH2 2041   3.846   3.209   2.074 -0.4442  0.0011  0.2427
  702TIP3    H1 2042   3.788   3.173   2.141  0.3114 -1.3329  0.1946
  702TIP3    H2 2043   3.899   3.274   2.121  0.4745 -1.3325  1.0698
  703TIP3   OH2 2044   0.946   4.033   2.382 -0.0701 -0.0890 -0.6356
  703TIP3    H1 2045   0.962   4.021   2.476 -1.3543  0.2616 -0.3504
  703TIP3    H2 2046   1.032   4.045   2.343  0.2069  4.6378  1.1889
  704TIP3   OH2 2047   2.846   7.990   6.779 -0.5938 -0.4102  0.0956
  704TIP3    H1 2048   2.874   7.927   6.713 -2.0820  0.6480 -1.5905
  704TIP3    H2 2049   2.753   8.004   6.761 -0.7049  0.9046  1.5826
  705TIP3   OH2 2050   1.790   4.265   2.033 -0.4251  0.3841 -0.0892
  705TIP3    H1 2051   1.866   4.266   2.091 -1.0993 -3.1145  0.9813
  705TIP3    H2 2052   1.826   4.282   1.946  1.6742 -1.3565  0.3758
  706TIP3   OH2 2053   2.186   2.537   1.290 -0.1552  0.1308 -0.5374
  706TIP3    H1 2054   2.146   2.481   1.224  0.9700 -3.0872  1.4240
  706TIP3    H2 2055   2.136   2.520   1.369  0.3784  1.7404  0.1784
  707TIP3   OH2 2056   8.049   3.861   1.890 -0.6422  0.0740  0.0885
  707TIP3    H1 2057   8.044   3.860   1.986 -0.0854 -0.5207  0.1225
  707TIP3    H2 2058   7.992   3.932   1.863 -2.5956 -1.2048  0.7535
  708TIP3   OH2 2059   2.356   2.442   0.984 -0.0744 -0.2755  0.6634
  708TIP3    H1 2060   2.301   2.472   0.912  1.2864  0.9462  0.1071
  708TIP3    H2 2061   2.334   2.350   0.995  0.6241 -0.8243 -2.1711
  709TIP3   OH2 2062   1.354   2.383   1.942 -0.1463 -0.4579  0.8879
  709TIP3    H1 2063   1.376   2.352   1.854  0.2423 -1.8780  1.4729
  709TIP3    H2 2064   1.263   2.413   1.934  0.6713  1.7608 -0.5811
  710TIP3   OH2 2065   7.618   0.990   6.414  0.4356  0.2108  0.1417
  710TIP3    H1 2066   7.526   0.986   6.388  0.8356  1.0414 -1.4088
  710TIP3    H2 2067   7.650   1.074   6.382  1.5159  0.3367  1.4649
  711TIP3   OH2 2068   0.639   2.053   2.823  0.5859  0.4364  0.2593
  711TIP3    H1 2069   0.645   2.032   2.730  0.9571  0.2216  0.3304
  711TIP3    H2 2070   0.563   2.110   2.830  1.1533  1.2846 -0.3259
  712TIP3   OH2 2071   3.948   3.192   2.853  0.0095 -0.2910  0.3492
  712TIP3    H1 2072   3.954   3.236   2.768 -0.7304 -1.7736 -0.5060
  712TIP3    H2 2073   4.033   3.149   2.864 -0.0438 -0.4491  0.1513
  713TIP3   OH2 2074   1.709   5.388   1.102  0.3048 -0.3274  0.1083
  713TIP3    H1 2075   1.687   5.479   1.084 -0.8022 -0.2977  1.4650
  713TIP3    H2 2076   1.781   5.393   1.166 -0.1099 -0.3955  0.5836
  714TIP3   OH2 2077   5.069   5.717   5.324 -0.0712 -0.4231  0.5379
  714TIP3    H1 2078   5.111   5.640   5.284 -1.5703 -0.2215 -1.5086
  714TIP3    H2 2079   4.981   5.687   5.344 -0.1843  0.3330  1.1732
  715TIP3   OH2 2080   2.595   1.262   1.989 -0.1056 -0.1581 -0.2766
  715TIP3    H1 2081   2.650   1.221   1.922 -0.1373 -0.3647 -0.1787
  715TIP3    H2 2082   2.597   1.355   1.969  0.5929 -0.1237 -0.0487
  716TIP3   OH2 2083   0.178   2.580   0.736 -0.1664 -0.0047 -0.0961
  716TIP3    H1 2084   0.085   2.569   0.718  0.3356 -1.3379 -1.9749
  716TIP3    H2 2085   0.183   2.589   0.832 -2.0909 -1.1429  0.1397
  717TIP3   OH2 2086   2.618   2.464   0.905  0.0121  0.6472  0.2421
  717TIP3    H1 2087   2.646   2.554   0.888  0.2346  0.6826  0.7906
  717TIP3    H2 2088   2.523   2.467   0.897  0.1673  0.4113 -2.1609
  718TIP3   OH2 2089   4.898   3.565   1.273 -0.0571  0.1915 -0.0191
  718TIP3    H1 2090   4.960   3.636   1.292  0.9864 -1.2172  2.0104
  718TIP3    H2 2091   4.922   3.534   1.186 -0.1147  1.8774 -0.6581
  719TIP3   OH2 2092   0.817   0.470   6.753 -0.2065  0.8203  0.0344
  719TIP3    H1 2093   0.876   0.433   6.819 -0.1183  0.1588 -0.4088
  719TIP3    H2 2094   0.875   0.498   6.682 -0.3972  0.3256 -0.3275
  720TIP3   OH2 2095   5.889   7.848   0.975 -0.6515 -0.2230 -0.1900
  720TIP3    H1 2096   5.839   7.927   0.997 -0.4030  0.0415 -0.5800
  720TIP3    H2 2097   5.824   7.788   0.939 -0.9342 -0.3918  0.5882
  721TIP3   OH2 2098   1.835   2.973   3.417  0.0141 -0.1015 -0.0403
  721TIP3    H1 2099   1.923   2.940   3.432  0.1316  0.3634  0.3117
  721TIP3    H2 2100   1.812   3.019   3.498 -1.3313 -1.9242  0.6644
  722TIP3   OH2 2101   1.452   5.193   1.573  0.0861 -0.0248 -0.1891
  722TIP3    H1 2102   1.531   5.193   1.626  0.6248  0.4605 -0.9896
  722TIP3    H2 2103   1.431   5.101   1.561  0.4632 -0.1487  0.1116
  723TIP3   OH2 2104   1.721   3.121   3.664 -0.0484 -0.0464 -0.4178
  723TIP3    H1 2105   1.717   3.080   3.750  1.8232  2.0282  0.7191
  723TIP3    H2 2106   1.629   3.131   3.638 -0.6009 -1.9045  0.7118
  724TIP3   OH2 2107   1.456   2.122   1.090 -0.1204  0.3330  0.0521
  724TIP3    H1 2108   1.389   2.081   1.144  0.3925  0.7360  1.0101
  724TIP3    H2 2109   1.457   2.071   1.009  0.3192 -1.3714  1.1159
  725TIP3   OH2 2110   2.497   3.829   1.852  0.1568  0.3709  0.2239
  725TIP3    H1 2111   2.520   3.896   1.917  0.6607  1.6806 -1.2935
  725TIP3    H2 2112   2.536   3.860   1.770  0.2030 -1.6719 -0.5487
  726TIP3   OH2 2113   4.323   5.763   0.476 -0.2110 -0.7942  0.1669
  726TIP3    H1 2114   4.282   5.828   0.418  2.0125 -0.6781 -1.3606
  726TIP3    H2 2115   4.331   5.684   0.422  1.4327 -0.8490  0.4470
  727TIP3   OH2 2116   1.704   2.587   3.812  0.1199  0.4073 -0.6036
  727TIP3    H1 2117   1.755   2.509   3.788 -1.3800 -0.6604 -0.3674
  727TIP3    H2 2118   1.650   2.606   3.735 -0.2424  0.6289 -0.2964
  728TIP3   OH2 2119   3.027   4.891   0.162  0.2167  0.3536  0.3967
  728TIP3    H1 2120   2.944   4.855   0.190  0.5007 -0.9417 -0.3498
  728TIP3    H2 2121   3.081   4.814   0.141  0.8698  1.1929 -1.1566
  729TIP3   OH2 2122   8.429   2.832   0.253  0.0246  0.2404  0.3598
  729TIP3    H1 2123   8.410   2.740   0.235 -0.8952  0.0934  1.8897
  729TIP3    H2 2124   8.502   2.830   0.315  0.2433  0.5450  0.1111
  730TIP3   OH2 2125   4.857   3.136   1.207  0.1375  0.5891 -0.7650
  730TIP3    H1 2126   4.804   3.101   1.136 -0.5027 -1.1539  0.5497
  730TIP3    H2 2127   4.796   3.189   1.258  0.3207  0.8422 -0.8054
  731TIP3   OH2 2128   2.505   5.643   1.967  0.5026 -0.0317  0.2745
  731TIP3    H1 2129   2.571   5.712   1.980  0.1809  0.4203 -0.4194
  731TIP3    H2 2130   2.482   5.650   1.874  1.3262 -1.8638 -0.0705
  732TIP3   OH2 2131   3.507   6.270   2.190 -0.3217  0.2165  0.1725
  732TIP3    H1 2132   3.421   6.297   2.157  0.2116  0.8047 -0.7707
  732TIP3    H2 2133   3.526   6.330   2.262 -0.6323  0.1794  0.2856
  733TIP3   OH2 2134   0.380   3.232   0.822  0.2280  0.3385  0.3407
  733TIP3    H1 2135   0.399   3.152   0.774 -0.1709  0.7691 -0.5397
  733TIP3    H2 2136   0.299   3.213   0.869 -0.6948  0.7242 -1.0550
  734TIP3   OH2 2137   6.497   3.614   2.138  0.5328 -0.0742 -0.1285
  734TIP3    H1 2138   6.562   3.571   2.193  1.8120  1.6693 -0.2356
  734TIP3    H2 2139   6.413   3.591   2.177  1.1929 -2.2750  0.0789
  735TIP3   OH2 2140   4.662   7.454   6.446 -0.1245 -0.1478  0.2138
  735TIP3    H1 2141   4.615   7.536   6.432  0.9457  0.6050  0.9796
  735TIP3    H2 2142   4.725   7.449   6.374 -0.9370 -0.8500 -0.4587
  736TIP3   OH2 2143   1.003   6.266  -0.014  0.4655  0.0185  0.1062
  736TIP3    H1 2144   1.025   6.173  -0.016 -1.9074 -0.5361 -1.3898
  736TIP3    H2 2145   0.974   6.282   0.077 -1.5024 -1.3139 -0.2524
  737TIP3   OH2 2146   3.986   3.139   1.848  0.7888  0.2961  0.4951
  737TIP3    H1 2147   3.939   3.185   1.917 -0.9602 -0.5384 -0.1112
  737TIP3    H2 2148   4.064   3.104   1.891  0.0836  0.3892  1.8794
  738TIP3   OH2 2149   0.449   1.742   1.921 -0.3832 -0.2410  0.1942
  738TIP3    H1 2150   0.449   1.655   1.881  0.6131  0.0621 -0.5003
  738TIP3    H2 2151   0.504   1.733   1.999 -0.6428 -0.3473  0.3623
  739TIP3   OH2 2152   7.324   1.946   2.822 -0.3805  0.0860  0.0882
  739TIP3    H1 2153   7.404   1.931   2.771 -0.6396 -0.8660 -0.0611
  739TIP3    H2 2154   7.264   1.987   2.760 -1.0153 -1.9276 -0.6719
  740TIP3   OH2 2155   1.793   3.239   0.283  0.1065 -0.2120 -0.1152
  740TIP3    H1 2156   1.738   3.177   0.235  1.7069  0.2705 -2.6228
  740TIP3    H2 2157   1.882   3.219   0.256  0.9760  0.6909  1.9712
  741TIP3   OH2 2158   0.866   2.150   1.996  0.1613  0.5406  0.1038
  741TIP3    H1 2159   0.777   2.119   2.014  0.8790 -1.0588  1.0654
  741TIP3    H2 2160   0.875   2.147   1.901  0.4035 -2.9399  0.1722
  742TIP3   OH2 2161   7.389   3.503   0.714  0.1610  0.1720 -0.0183
  742TIP3    H1 2162   7.449   3.555   0.661  2.1383 -0.9728  1.0239
  742TIP3    H2 2163   7.304   3.514   0.673  1.1641  1.5301 -1.7655
  743TIP3   OH2 2164   3.542   4.733   2.464 -0.2940  0.4930  0.2062
  743TIP3    H1 2165   3.460   4.758   2.508 -0.2858  2.4351 -0.8118
  743TIP3    H2 2166   3.603   4.804   2.485  1.0119 -0.7271  0.5950
  744TIP3   OH2 2167   8.246   1.435   2.168  0.4481 -0.5879  1.1626
  744TIP3    H1 2168   8.277   1.519   2.134 -0.6040 -0.4157  0.6232
  744TIP3    H2 2169   8.170   1.414   2.114  0.4110 -1.6499  1.6214
  745TIP3   OH2 2170   1.187   4.195   2.185  0.1666  0.4239 -0.2277
  745TIP3    H1 2171   1.205   4.125   2.249 -1.6935  0.9974  0.9677
  745TIP3    H2 2172   1.219   4.160   2.102  1.2069 -0.9862  0.7410
  746TIP3   OH2 2173   1.543   2.712   0.443 -0.1451 -0.1340 -0.3333
  746TIP3    H1 2174   1.590   2.633   0.469  2.8077  1.0259 -1.8579
  746TIP3    H2 2175   1.571   2.778   0.507 -1.1753  0.1126 -0.1368
  747TIP3   OH2 2176   2.018   3.355   2.861  0.2481  0.2585 -0.1281
  747TIP3    H1 2177   1.975   3.382   2.942  1.2265  1.3401  0.0404
  747TIP3    H2 2178   2.074   3.281   2.887  1.9833  1.7835  0.5769
  748TIP3   OH2 2179   0.611   6.618   0.431 -0.5455  0.0854  0.4452
  748TIP3    H1 2180   0.660   6.558   0.488 -0.4420  1.0463  1.3863
  748TIP3    H2 2181   0.643   6.599   0.343  1.6250  0.7627  1.0527
  749TIP3   OH2 2182   1.159   2.637   2.585  0.2227  0.3684  0.0525
  749TIP3    H1 2183   1.198   2.551   2.603  1.9041  0.7902 -1.4832
  749TIP3    H2 2184   1.151   2.640   2.490 -1.5529  1.1918  0.2050
  750TIP3   OH2 2185   4.292   6.684   5.762  0.3383 -0.5297 -0.0838
  750TIP3    H1 2186   4.208   6.726   5.778  0.9516  0.7454 -0.1702
  750TIP3    H2 2187   4.345   6.705   5.839  0.3729 -1.8659  0.2708
  751TIP3   OH2 2188   3.796   2.270   2.716 -0.1144  0.0924 -0.3000
  751TIP3    H1 2189   3.772   2.200   2.655 -4.5597  0.6797  0.6243
  751TIP3    H2 2190   3.816   2.345   2.660  1.8532 -1.0521 -1.1870
  752TIP3   OH2 2191   1.401   1.769   0.202 -0.5982  0.3508 -0.1920
  752TIP3    H1 2192   1.456   1.835   0.244  0.6279 -0.7948  0.0280
  752TIP3    H2 2193   1.460   1.720   0.145 -1.2584 -1.2235  0.4294
  753TIP3   OH2 2194   2.156   4.190   0.363 -0.3399  0.2839  0.1171
  753TIP3    H1 2195   2.138   4.262   0.424  0.1979  0.5829 -0.0794
  753TIP3    H2 2196   2.174   4.232   0.280  0.3412 -0.0615  0.0886
  754TIP3   OH2 2197   0.012   2.958   1.746  0.1155 -0.3988 -0.0613
  754TIP3    H1 2198   0.073   2.926   1.813 -0.7142  2.7772  2.3038
  754TIP3    H2 2199  -0.072   2.964   1.791 -0.7320  0.6636 -1.7395
  755TIP3   OH2 2200   0.115   2.355   2.681  0.2943  0.3553  0.5995
  755TIP3    H1 2201   0.047   2.396   2.735 -1.6081 -0.6462 -0.9612
  755TIP3    H2 2202   0.075   2.274   2.649  1.8558  0.2460 -1.1881
  756TIP3   OH2 2203   1.980   3.645   2.280 -0.6402  0.3750  0.7108
  756TIP3    H1 2204   2.013   3.617   2.195 -0.4041  0.1981  0.8616
  756TIP3    H2 2205   1.991   3.740   2.280  1.4447  0.1584  1.4313
  757TIP3   OH2 2206   2.061   3.827   1.554  0.2549 -0.6246 -0.0369
  757TIP3    H1 2207   1.996   3.846   1.486  0.9002  0.5839 -0.3447
  757TIP3    H2 2208   2.046   3.893   1.621  0.1360 -1.3273  0.6265
  758TIP3   OH2 2209   4.851   6.322   6.736  0.0340  0.2138 -0.0607
  758TIP3    H1 2210   4.884   6.334   6.825  0.2924 -0.5912 -0.0504
  758TIP3    H2 2211   4.826   6.411   6.708  0.9946  0.6374  0.3968
  759TIP3   OH2 2212   1.418   3.120   3.268  0.7261  0.2002  0.2216
  759TIP3    H1 2213   1.491   3.150   3.213  1.0946  0.2871  0.7609
  759TIP3    H2 2214   1.356   3.193   3.266 -0.0048 -0.4283 -1.4015
  760TIP3   OH2 2215   0.127   3.720   1.876  0.2013 -0.0593  0.3705
  760TIP3    H1 2216   0.070   3.796   1.877 -0.6331 -0.6644 -0.5750
  760TIP3    H2 2217   0.153   3.708   1.968 -0.0490  1.0674  0.5896
  761TIP3   OH2 2218   4.227   3.066   2.893  0.4612  0.4922  0.7674
  761TIP3    H1 2219   4.297   3.064   2.828  1.7746 -2.6233  2.1982
  761TIP3    H2 2220   4.251   3.138   2.952  2.0433 -0.0265  0.7761
  762TIP3   OH2 2221   8.373   2.186   0.170  0.1295  0.4126 -0.1501
  762TIP3    H1 2222   8.430   2.142   0.233 -0.2261 -0.6219 -0.5352
  762TIP3    H2 2223   8.425   2.259   0.138  1.1882 -0.4198 -0.3737
  763TIP3   OH2 2224   0.754   4.453   1.834 -1.3042 -0.2756  0.3479
  763TIP3    H1 2225   0.741   4.458   1.739  1.7967  0.5832 -0.0527
  763TIP3    H2 2226   0.736   4.361   1.855 -4.4373  0.0241 -0.6186
  764TIP3   OH2 2227   1.581   3.443   3.319 -0.2258  0.2901 -0.2644
  764TIP3    H1 2228   1.602   3.445   3.225 -2.1326 -1.4285 -0.7729
  764TIP3    H2 2229   1.487   3.459   3.322 -0.0832  0.9094  1.4346
  765TIP3   OH2 2230   1.971   4.313   1.807  0.0640  0.2375  0.3716
  765TIP3    H1 2231   1.908   4.352   1.747 -0.2830 -1.6386 -0.5202
  765TIP3    H2 2232   2.040   4.379   1.815 -1.6352  2.0156  0.8120
  766TIP3   OH2 2233   2.458   2.654   1.633  0.6950 -0.1381 -0.2945
  766TIP3    H1 2234   2.533   2.713   1.639  0.1636  0.4974  0.2790
  766TIP3    H2 2235   2.417   2.676   1.550  0.9468 -0.2399 -0.4450
  767TIP3   OH2 2236   0.052   4.626   2.266  0.2652 -0.5527 -0.2252
  767TIP3    H1 2237  -0.018   4.630   2.331  1.0915  1.0491  0.5845
  767TIP3    H2 2238   0.030   4.696   2.204  0.6706 -0.6263 -0.4536
  768TIP3   OH2 2239   1.206   4.971   2.865 -0.5178  0.0972 -0.4597
  768TIP3    H1 2240   1.169   5.015   2.941  0.4906  2.4702 -1.2907
  768TIP3    H2 2241   1.239   4.887   2.899 -0.3642  0.9893  1.6464
  769TIP3   OH2 2242   2.673   3.008   2.029  0.0798  1.2352 -0.1260
  769TIP3    H1 2243   2.720   3.075   2.079 -0.1881  2.6614 -1.7302
  769TIP3    H2 2244   2.641   3.054   1.952 -1.5927 -0.3691 -0.4216
  770TIP3   OH2 2245   1.579   3.051   0.940  0.1388  0.0381  0.3072
  770TIP3    H1 2246   1.629   3.006   1.008  0.3339 -1.6086 -0.8787
  770TIP3    H2 2247   1.538   2.980   0.891 -0.4785  1.2317 -0.9144
  771TIP3   OH2 2248   5.226   6.400   6.874 -0.0783 -0.5632  0.1602
  771TIP3    H1 2249   5.281   6.340   6.924  2.7464  1.6980 -0.1364
  771TIP3    H2 2250   5.249   6.383   6.782 -0.6592 -0.3313 -0.0316
  772TIP3   OH2 2251   1.507   1.563   2.399 -0.4424  0.1164  0.0912
  772TIP3    H1 2252   1.470   1.533   2.316 -0.9407  1.0956 -0.0384
  772TIP3    H2 2253   1.531   1.654   2.384 -1.9473  0.7651  1.4868
  773TIP3   OH2 2254   4.817   4.126   1.385 -0.0242  0.3226 -0.0630
  773TIP3    H1 2255   4.911   4.113   1.376  0.1828  1.5727  0.2714
  773TIP3    H2 2256   4.803   4.218   1.366 -1.1076  0.2800  0.4682
  774TIP3   OH2 2257   1.288   3.498   1.112  0.4516 -0.3734 -0.3887
  774TIP3    H1 2258   1.281   3.420   1.056  0.5946  0.1683 -1.1722
  774TIP3    H2 2259   1.364   3.480   1.167 -0.8623 -1.7647  1.0143
  775TIP3   OH2 2260   5.187   5.059   6.156 -0.3676 -0.6713  0.2887
  775TIP3    H1 2261   5.138   5.141   6.166 -2.4177 -1.6306 -1.5586
  775TIP3    H2 2262   5.235   5.050   6.238 -1.7044  1.3427  1.3425
  776TIP3   OH2 2263   2.241   5.650   1.750 -0.2450 -0.0255 -0.4713
  776TIP3    H1 2264   2.174   5.704   1.708  0.7278  0.9632 -0.7720
  776TIP3    H2 2265   2.258   5.694   1.833 -0.5848 -0.7653 -0.0032
  777TIP3   OH2 2266   1.061   4.115   1.044  0.4311  0.0825  0.2944
  777TIP3    H1 2267   1.072   4.080   1.132  1.0807 -2.2813 -0.6960
  777TIP3    H2 2268   0.972   4.091   1.019 -0.3378  2.2024  0.9116
  778TIP3   OH2 2269   3.512   2.664   0.495  0.2344 -1.1911 -0.3839
  778TIP3    H1 2270   3.541   2.593   0.553 -1.1967 -2.5133 -1.2437
  778TIP3    H2 2271   3.436   2.702   0.539  0.8390 -0.3519 -0.0534
  779TIP3   OH2 2272   7.991   4.692   2.415 -0.1882  0.2571 -0.4377
  779TIP3    H1 2273   8.073   4.739   2.402  0.7312 -0.7854  1.3460
  779TIP3    H2 2274   7.944   4.744   2.480  0.9117 -1.2995  1.6798
  780TIP3   OH2 2275   0.551   4.625   1.924  0.3211  0.0887 -0.1666
  780TIP3    H1 2276   0.602   4.703   1.901  0.4423 -0.7747 -3.1118
  780TIP3    H2 2277   0.609   4.552   1.902 -1.0414 -0.8585 -0.6402
  781TIP3   OH2 2278   1.628   4.628   1.227  0.5603 -0.0228 -0.1078
  781TIP3    H1 2279   1.635   4.718   1.197 -1.6425  0.5276  0.9308
  781TIP3    H2 2280   1.599   4.579   1.150  1.5278  0.1951 -0.6117
  782TIP3   OH2 2281   2.591   4.759   1.404  0.5712  0.1634  0.1751
  782TIP3    H1 2282   2.503   4.731   1.378  0.8300  0.5291 -1.1593
  782TIP3    H2 2283   2.582   4.787   1.495 -0.5425 -0.4746  0.2682
  783TIP3   OH2 2284   1.724   2.879   1.793  0.6441  0.5992  0.0928
  783TIP3    H1 2285   1.682   2.848   1.713 -0.0084 -1.0584  1.0472
  783TIP3    H2 2286   1.658   2.868   1.861  1.2053  1.9466  0.8797
  784TIP3   OH2 2287   3.242   2.507   0.610  0.1627 -0.0389 -0.0931
  784TIP3    H1 2288   3.146   2.501   0.612  0.1843 -0.4050 -0.0618
  784TIP3    H2 2289   3.260   2.596   0.579 -0.1900 -0.3086 -1.1132
  785TIP3   OH2 2290   2.882   5.908   1.587 -1.0520  0.1630 -0.4083
  785TIP3    H1 2291   2.855   5.842   1.650 -1.0297 -1.3033 -1.9082
  785TIP3    H2 2292   2.849   5.876   1.503 -0.0586  1.4976 -1.3294
  786TIP3   OH2 2293   1.186   4.369   1.919  0.3157  0.1639  0.4278
  786TIP3    H1 2294   1.175   4.447   1.864  0.2488 -0.9264 -1.1589
  786TIP3    H2 2295   1.140   4.390   2.000  0.1256  1.6939 -0.0558
  787TIP3   OH2 2296   3.529   7.827   6.582  0.1249  0.6580  0.2156
  787TIP3    H1 2297   3.459   7.762   6.581  0.8434 -0.2488  2.7731
  787TIP3    H2 2298   3.485   7.910   6.601 -0.5821  0.5977 -1.1601
  788TIP3   OH2 2299   1.836   3.240   3.312 -0.7234 -0.1840 -0.4964
  788TIP3    H1 2300   1.750   3.279   3.324 -0.8189 -0.2344 -0.9835
  788TIP3    H2 2301   1.819   3.146   3.302 -0.3124 -0.6672  2.7775
  789TIP3   OH2 2302   2.388   5.740   0.951 -0.9941  0.4337 -0.0695
  789TIP3    H1 2303   2.310   5.760   1.003 -1.1252  1.6030 -0.6863
  789TIP3    H2 2304   2.354   5.728   0.862 -0.7260 -1.1483  0.0238
  790TIP3   OH2 2305   3.746   2.593   1.509 -0.1270 -0.1561  0.4779
  790TIP3    H1 2306   3.696   2.516   1.537 -1.1322  0.5018  0.5339
  790TIP3    H2 2307   3.833   2.580   1.546 -0.4681 -0.9651  1.0112
  791TIP3   OH2 2308   7.732   3.334   1.806 -0.0622  0.7862 -0.0690
  791TIP3    H1 2309   7.742   3.248   1.767 -1.0268  0.7627 -0.2809
  791TIP3    H2 2310   7.662   3.323   1.870  0.9927  1.0033  1.1307
  792TIP3   OH2 2311   2.917   3.373   1.250 -0.1098  0.5385 -0.1529
  792TIP3    H1 2312   3.010   3.354   1.264 -0.5601 -1.5342  0.1837
  792TIP3    H2 2313   2.911   3.394   1.157  0.6863  0.5855 -0.1958
  793TIP3   OH2 2314   4.028   3.932   0.647  0.2581 -0.4780 -0.5525
  793TIP3    H1 2315   4.073   3.988   0.710  0.3682 -0.0846 -0.9774
  793TIP3    H2 2316   4.000   3.992   0.578 -1.0697 -0.6833 -0.2141
  794TIP3   OH2 2317   1.593   4.385   2.769 -0.1769  0.0250 -0.2306
  794TIP3    H1 2318   1.547   4.315   2.815  0.6368 -1.3822 -1.5211
  794TIP3    H2 2319   1.523   4.442   2.736 -0.8422 -0.1219  0.9034
  795TIP3   OH2 2320   2.557   2.585   0.534 -0.1394 -0.4352  0.1414
  795TIP3    H1 2321   2.573   2.550   0.446  0.7628 -0.4135  0.3006
  795TIP3    H2 2322   2.590   2.675   0.530 -0.0356 -0.4581  0.5337
  796TIP3   OH2 2323   4.459   2.213   2.362 -0.3572  1.1858  0.1044
  796TIP3    H1 2324   4.381   2.217   2.307 -0.5752  2.2935  0.4948
  796TIP3    H2 2325   4.448   2.132   2.413 -0.1846  0.1897 -1.4126
  797TIP3   OH2 2326   4.286   2.428   0.631  0.2917 -0.2353 -0.1640
  797TIP3    H1 2327   4.285   2.512   0.678  0.3271  0.0600 -0.6832
  797TIP3    H2 2328   4.195   2.415   0.603  0.2519 -0.4590  0.0807
  798TIP3   OH2 2329   3.392   4.357   0.301  0.6560  0.4362  0.0378
  798TIP3    H1 2330   3.400   4.272   0.344  2.4451 -0.1903 -1.4969
  798TIP3    H2 2331   3.308   4.352   0.254  0.4110 -0.2035  0.5282
  799TIP3   OH2 2332   0.671   4.172   1.725  0.1874 -0.0831 -0.0311
  799TIP3    H1 2333   0.737   4.133   1.783 -0.4409 -0.5250  0.3924
  799TIP3    H2 2334   0.637   4.099   1.674 -0.9850 -0.1108  0.7572
  800TIP3   OH2 2335   0.349   2.531   2.828 -0.4896 -0.3492 -0.6357
  800TIP3    H1 2336   0.385   2.517   2.915  2.6094  0.9445 -1.6736
  800TIP3    H2 2337   0.282   2.599   2.839  0.9828  0.9227  0.4670
  801TIP3   OH2 2338   3.390   1.113   0.700  0.2516 -0.0466 -0.7099
  801TIP3    H1 2339   3.396   1.100   0.795 -0.1372 -1.1662 -0.8384
  801TIP3    H2 2340   3.457   1.178   0.681 -1.3545  2.1077  0.6973
  802TIP3   OH2 2341   0.974   6.407   1.690 -0.5517  0.0732  0.0926
  802TIP3    H1 2342   1.022   6.435   1.612  1.3242  0.2458  1.2817
  802TIP3    H2 2343   0.895   6.460   1.690  0.5723  1.7979 -0.4276
  803TIP3   OH2 2344   2.016   5.301   0.959  0.2009  0.2421  0.3288
  803TIP3    H1 2345   1.932   5.324   0.917 -0.0299  0.1749  0.7518
  803TIP3    H2 2346   2.045   5.223   0.911  0.5588  0.9034 -0.5370
  804TIP3   OH2 2347   2.260   4.935   3.160 -0.3208  0.2222  0.2544
  804TIP3    H1 2348   2.230   4.965   3.245  1.1834  0.1778  0.7994
  804TIP3    H2 2349   2.240   4.841   3.159  0.2465  0.1001  0.7995
  805TIP3   OH2 2350   3.814   3.565   3.935 -0.2666  0.0243  0.3177
  805TIP3    H1 2351   3.791   3.655   3.957  0.0431  0.3880 -0.8011
  805TIP3    H2 2352   3.744   3.535   3.877 -0.7914 -0.7373  1.3200
  806TIP3   OH2 2353   3.248   1.848   0.070 -0.2367  0.3422  0.3181
  806TIP3    H1 2354   3.263   1.807   0.155  2.2189  1.7380  0.5921
  806TIP3    H2 2355   3.205   1.931   0.090  2.5389  1.7927  0.4115
  807TIP3   OH2 2356   3.109   2.062   0.232  0.4325  0.4098  0.0089
  807TIP3    H1 2357   3.040   2.007   0.271  0.5262 -0.0591 -0.4749
  807TIP3    H2 2358   3.126   2.129   0.298 -0.0966  0.1987  0.3675
  808TIP3   OH2 2359   3.743   7.872   6.870  0.2380  0.2756 -0.0507
  808TIP3    H1 2360   3.743   7.776   6.878 -1.1484  0.4140  1.9716
  808TIP3    H2 2361   3.652   7.895   6.853  1.0219  1.0720 -3.5113
  809TIP3   OH2 2362   2.299   3.203   0.617  0.4242  0.3436  0.2275
  809TIP3    H1 2363   2.389   3.235   0.616  0.6930 -0.4106 -0.1606
  809TIP3    H2 2364   2.278   3.188   0.525 -0.3250  1.1412  0.2646
  810TIP3   OH2 2365   6.586   6.551   6.331 -0.2225  0.9149  0.5274
  810TIP3    H1 2366   6.673   6.591   6.335  0.1616  0.0942  0.5295
  810TIP3    H2 2367   6.526   6.625   6.318  0.5112  1.4465  0.1089
  811TIP3   OH2 2368   5.750   5.694   5.578  0.0525  0.2651 -0.6955
  811TIP3    H1 2369   5.796   5.694   5.494 -1.7238 -0.4220 -1.7132
  811TIP3    H2 2370   5.658   5.683   5.555 -0.3144 -1.7514  1.4070
  812TIP3   OH2 2371   1.402   3.606   3.099 -0.3980 -0.0477 -0.3370
  812TIP3    H1 2372   1.462   3.541   3.064 -1.3932 -0.6246 -0.9962
  812TIP3    H2 2373   1.316   3.580   3.066 -1.0414  0.6564  0.7356
  813TIP3   OH2 2374   3.043   2.544   0.974  0.7852  0.4513 -0.2273
  813TIP3    H1 2375   3.002   2.628   0.955  1.8137  1.0873  0.3417
  813TIP3    H2 2376   3.109   2.563   1.041  1.0795 -0.7909 -0.1388
  814TIP3   OH2 2377   4.992   6.628   4.992 -0.3415 -0.4005  0.4750
  814TIP3    H1 2378   4.966   6.633   4.900  0.7013 -0.3315  0.1791
  814TIP3    H2 2379   5.053   6.555   4.996 -2.0951 -1.8814  1.5427
  815TIP3   OH2 2380   2.256   4.067   2.548 -0.2817 -0.7461 -0.4463
  815TIP3    H1 2381   2.243   4.142   2.606  3.1389  0.6745 -1.3472
  815TIP3    H2 2382   2.258   3.992   2.607 -1.6307  0.1073  0.7175
  816TIP3   OH2 2383   3.452   4.854   2.103 -0.2906  0.4457 -0.2905
  816TIP3    H1 2384   3.446   4.828   2.011  0.5786 -0.7112 -0.0326
  816TIP3    H2 2385   3.371   4.821   2.143 -0.6023  0.8259 -0.6083
  817TIP3   OH2 2386   0.882   2.023   1.164  0.1163 -0.2633  0.6749
  817TIP3    H1 2387   0.876   2.053   1.073 -0.1576 -0.1827  0.7205
  817TIP3    H2 2388   0.805   1.968   1.176  1.0282 -1.6444  0.3434
  818TIP3   OH2 2389   3.533   1.232   1.098  0.3898 -0.2704  0.4304
  818TIP3    H1 2390   3.439   1.214   1.103  0.4390 -1.1323 -1.1354
  818TIP3    H2 2391   3.558   1.201   1.011  2.2614 -0.6845  1.0896
  819TIP3   OH2 2392  -0.007   3.036   0.683 -0.4923 -0.0073 -0.0947
  819TIP3    H1 2393  -0.065   3.004   0.614 -0.4047  3.2060 -1.7351
  819TIP3    H2 2394   0.080   3.005   0.658 -0.8941 -1.4506  0.2480
  820TIP3   OH2 2395   2.145   1.301   1.105  0.0356  0.0664  0.4506
  820TIP3    H1 2396   2.192   1.265   1.181  0.8215  1.0369  0.4302
  820TIP3    H2 2397   2.067   1.341   1.142  0.3911  0.4922  0.7535
  821TIP3   OH2 2398   2.918   4.039   2.404 -0.0671 -0.1026  0.1303
  821TIP3    H1 2399   2.889   4.102   2.470 -1.8162 -0.7032 -0.0351
  821TIP3    H2 2400   3.010   4.059   2.390  0.6914 -0.7909  3.6877
  822TIP3   OH2 2401   1.595   3.439   2.376  0.1510 -0.3877  0.2431
  822TIP3    H1 2402   1.610   3.528   2.410  0.0379 -0.2695 -0.0136
  822TIP3    H2 2403   1.513   3.412   2.416  0.5880 -0.6888  0.9500
  823TIP3   OH2 2404   2.896   3.619   2.694 -0.1822 -0.2152 -0.1664
  823TIP3    H1 2405   2.808   3.645   2.666 -0.1013  0.9444  0.6413
  823TIP3    H2 2406   2.954   3.684   2.656  0.3528 -1.0179 -0.7514
  824TIP3   OH2 2407   3.801   3.555   1.583 -0.2911 -0.4475 -0.0842
  824TIP3    H1 2408   3.710   3.585   1.575 -0.2326 -0.1809  0.2436
  824TIP3    H2 2409   3.828   3.584   1.670  0.6234  0.8529 -0.8012
  825TIP3   OH2 2410   1.306   3.764   2.703 -0.2246 -0.3228  0.0174
  825TIP3    H1 2411   1.244   3.836   2.720 -1.2190 -0.9270 -1.0041
  825TIP3    H2 2412   1.363   3.763   2.780  1.0262  2.7897 -0.7869
  826TIP3   OH2 2413   2.244   3.827   2.153  0.5042  0.1226 -0.0995
  826TIP3    H1 2414   2.334   3.829   2.185  0.6448 -1.1357 -0.4082
  826TIP3    H2 2415   2.248   3.868   2.066  0.9851 -1.0113 -0.6132
  827TIP3   OH2 2416   7.960   3.141   2.314 -0.1946  0.1613  0.0394
  827TIP3    H1 2417   8.038   3.195   2.322  1.4298 -1.8552 -1.5516
  827TIP3    H2 2418   7.888   3.199   2.337  1.7464  2.0986  1.4065
  828TIP3   OH2 2419   1.499   5.535   3.442  0.1028  0.0962  0.0908
  828TIP3    H1 2420   1.523   5.626   3.429 -0.1318  0.7492  3.9079
  828TIP3    H2 2421   1.568   5.499   3.496 -0.6658 -1.5578  0.0139
  829TIP3   OH2 2422   3.234   3.723   1.912 -0.5506 -0.1756 -0.3073
  829TIP3    H1 2423   3.173   3.653   1.936  2.4271 -2.6257  0.4630
  829TIP3    H2 2424   3.283   3.740   1.993 -0.7379  2.3167 -0.6940
  830TIP3   OH2 2425   0.798   3.834   1.477 -0.8898 -0.1600  0.1283
  830TIP3    H1 2426   0.724   3.895   1.469  0.2379  1.3366  0.7776
  830TIP3    H2 2427   0.797   3.808   1.569  1.7672  3.0568  1.1881
  831TIP3   OH2 2428   7.670   1.571   5.953  0.9214 -0.6680 -0.3301
  831TIP3    H1 2429   7.662   1.654   6.000  0.1051  0.2132 -1.9758
  831TIP3    H2 2430   7.709   1.511   6.016  2.4008  1.2148  0.6161
  832TIP3   OH2 2431   0.184   2.798   1.383 -0.3533  0.1035  0.3406
  832TIP3    H1 2432   0.098   2.809   1.423 -0.8980 -1.3310 -0.4093
  832TIP3    H2 2433   0.228   2.733   1.437  0.5136  1.3148  1.1076
  833TIP3   OH2 2434   8.080   2.865   0.202  0.0136 -0.3464  0.2039
  833TIP3    H1 2435   8.131   2.801   0.252 -0.2527 -1.4750 -0.9377
  833TIP3    H2 2436   7.996   2.869   0.247 -0.1688 -1.2436 -0.0386
  834TIP3   OH2 2437   2.041   3.254   2.158 -0.1768 -0.2612 -0.4480
  834TIP3    H1 2438   2.078   3.341   2.144  0.7474 -0.7690 -1.1240
  834TIP3    H2 2439   1.980   3.266   2.231  0.9382  0.6723  0.3424
  835TIP3   OH2 2440   2.864   2.839   1.302 -0.1216 -0.0750 -0.2866
  835TIP3    H1 2441   2.778   2.862   1.339  0.2710 -1.0428  1.3158
  835TIP3    H2 2442   2.898   2.772   1.362  2.2832  1.1719 -0.1828
  836TIP3   OH2 2443   1.907   2.826   1.287  0.2139 -0.5907  0.1598
  836TIP3    H1 2444   1.834   2.870   1.243  1.2384  0.8679 -0.1149
  836TIP3    H2 2445   1.964   2.797   1.216  1.1295  0.4753  0.4385
  837TIP3   OH2 2446   4.129   2.017   0.676  0.1549  0.1983  0.2489
  837TIP3    H1 2447   4.219   1.989   0.659  1.3698  3.0581  1.6644
  837TIP3    H2 2448   4.112   1.991   0.767 -0.2303  0.2463  0.1942
  838TIP3   OH2 2449   2.026   2.921   0.843 -0.5855 -0.0709 -0.2439
  838TIP3    H1 2450   2.031   2.866   0.921 -0.3911  0.6186  0.2330
  838TIP3    H2 2451   2.060   3.006   0.871 -0.5661  0.1965 -1.0658
  839TIP3   OH2 2452   1.235   3.646   0.643 -0.5460  0.0811 -0.4277
  839TIP3    H1 2453   1.210   3.554   0.651  0.8680 -0.3602 -0.8496
  839TIP3    H2 2454   1.286   3.664   0.721 -2.1713  0.9878  0.4573
  840TIP3   OH2 2455   2.290   4.616   0.958 -0.6325 -0.1043 -0.1507
  840TIP3    H1 2456   2.333   4.666   1.027  0.0391 -2.6309  1.3078
  840TIP3    H2 2457   2.308   4.665   0.878  1.4077  1.0887  1.0029
  841TIP3   OH2 2458   7.079   4.463   3.620 -0.3018 -0.9722  0.1020
  841TIP3    H1 2459   7.053   4.531   3.558  0.3905 -1.9269 -1.2793
  841TIP3    H2 2460   7.172   4.479   3.636 -0.8147  0.1668  2.0815
  842TIP3   OH2 2461   6.799   2.683   2.614 -0.5965  0.4870 -0.3480
  842TIP3    H1 2462   6.792   2.598   2.572 -0.0004  0.8501 -1.1859
  842TIP3    H2 2463   6.713   2.723   2.604 -1.2376 -0.4826  1.0759
  843TIP3   OH2 2464   4.042   3.430   1.472  0.4937 -0.4840  0.1984
  843TIP3    H1 2465   4.033   3.338   1.498  0.7649 -0.3709  0.6946
  843TIP3    H2 2466   3.961   3.471   1.499  0.6491 -0.4331  0.5905
  844TIP3   OH2 2467   2.140   4.902   3.647 -0.7717  0.0897  0.0362
  844TIP3    H1 2468   2.208   4.879   3.709 -1.2050 -3.0052 -0.5174
  844TIP3    H2 2469   2.058   4.874   3.689 -1.1996 -0.7469 -1.3090
  845TIP3   OH2 2470   3.997   1.973   0.244  0.4781  0.2263  0.1896
  845TIP3    H1 2471   4.067   2.024   0.287  1.3325 -0.7178 -0.0641
  845TIP3    H2 2472   4.041   1.894   0.213 -0.7923 -0.5384  0.3295
  846TIP3   OH2 2473   4.841   8.007   6.907  0.3082  0.0840 -0.4751
  846TIP3    H1 2474   4.854   7.995   6.813 -1.4211 -0.5196 -0.6540
  846TIP3    H2 2475   4.814   7.921   6.940 -1.2568  0.7865  0.1649
  847TIP3   OH2 2476   2.640   2.750   0.866 -0.2073 -0.2649 -0.5844
  847TIP3    H1 2477   2.693   2.817   0.911 -2.4405  0.9649  0.2963
  847TIP3    H2 2478   2.637   2.779   0.775 -2.0646  1.4809 -0.0062
  848TIP3   OH2 2479   4.723   2.059   2.893  0.7609  0.1248  0.1467
  848TIP3    H1 2480   4.751   1.969   2.881 -2.4780 -1.3029  2.5380
  848TIP3    H2 2481   4.721   2.071   2.988 -0.5607  2.1253 -0.1006
  849TIP3   OH2 2482   1.137   3.940   3.185 -0.5187  0.2646 -0.4444
  849TIP3    H1 2483   1.118   3.918   3.094  1.9952 -0.3754 -0.8630
  849TIP3    H2 2484   1.107   3.865   3.236  1.5205 -1.0885 -1.1611
  850TIP3   OH2 2485   3.760   1.369   1.201  0.3216 -0.5741 -0.0817
  850TIP3    H1 2486   3.679   1.340   1.160  0.4525  1.7356 -2.1123
  850TIP3    H2 2487   3.829   1.319   1.158  0.2120 -0.2647 -0.6244
  851TIP3   OH2 2488   1.376   3.788   0.461 -0.0255 -0.3652 -0.1693
  851TIP3    H1 2489   1.323   3.736   0.522 -0.0987  0.7672  0.7483
  851TIP3    H2 2490   1.455   3.810   0.510  0.5708 -0.6658 -0.9826
  852TIP3   OH2 2491   3.043   5.348   0.269  0.3191  0.1004 -0.2573
  852TIP3    H1 2492   3.102   5.352   0.194  1.6355  0.7398  0.7886
  852TIP3    H2 2493   3.058   5.261   0.306  1.4690  0.6889  0.6825
  853TIP3   OH2 2494   1.309   3.854   0.206  0.4471  0.1573  0.2978
  853TIP3    H1 2495   1.255   3.930   0.231  0.8833  0.8698 -0.8671
  853TIP3    H2 2496   1.345   3.822   0.289  1.5798  2.2427  0.6662
  854TIP3   OH2 2497   4.660   3.414   2.008 -0.4647 -0.0628  0.4045
  854TIP3    H1 2498   4.649   3.453   2.095  0.3858  2.1576 -0.4639
  854TIP3    H2 2499   4.703   3.481   1.956  0.5043 -1.9505 -1.3189
  855TIP3   OH2 2500   5.079   2.322   2.703  0.5599  0.5702 -0.0606
  855TIP3    H1 2501   5.048   2.392   2.645 -0.6301  0.7947  0.8429
  855TIP3    H2 2502   5.106   2.252   2.643 -1.8330  0.3019 -0.8807
  856TIP3   OH2 2503   4.933   6.765   6.736  0.1534 -0.2058 -0.6678
  856TIP3    H1 2504   4.839   6.749   6.745  0.2902 -0.3225  0.5611
  856TIP3    H2 2505   4.968   6.683   6.702 -0.5629  0.6954 -3.8065
  857TIP3   OH2 2506   4.410   1.790   2.852 -0.0237 -0.2529  0.1806
  857TIP3    H1 2507   4.470   1.740   2.908 -1.3328 -0.9514  0.9910
  857TIP3    H2 2508   4.360   1.845   2.913 -2.5899 -2.2001 -0.0858
  858TIP3   OH2 2509   2.181   4.058   1.382  0.5424  0.5275 -0.3819
  858TIP3    H1 2510   2.110   4.118   1.402  2.1193  1.8167  1.4769
  858TIP3    H2 2511   2.170   3.985   1.443  1.0378  0.9161  0.1755
  859TIP3   OH2 2512   6.795   2.024   1.169  0.1761  0.0789 -0.0130
  859TIP3    H1 2513   6.844   1.971   1.107 -3.0021 -1.6870 -1.1316
  859TIP3    H2 2514   6.798   1.975   1.251  0.6044  0.1771  0.0308
  860TIP3   OH2 2515   3.474   1.066   0.199  0.5917 -0.8954  0.5892
  860TIP3    H1 2516   3.512   1.135   0.253 -1.4909  0.2720  0.6422
  860TIP3    H2 2517   3.548   1.015   0.169  2.1136  0.8311  1.3190
  861TIP3   OH2 2518   2.628   3.332   0.401  0.0657  0.6343 -0.2066
  861TIP3    H1 2519   2.666   3.405   0.449 -0.4963 -0.0404  1.3296
  861TIP3    H2 2520   2.695   3.264   0.403 -0.8424 -0.2433  1.7393
  862TIP3   OH2 2521   1.890   2.698   1.539 -0.1616 -0.1865  0.3617
  862TIP3    H1 2522   1.798   2.716   1.554 -0.3120 -0.9692  0.3732
  862TIP3    H2 2523   1.903   2.713   1.445 -0.6546 -1.6339  0.0560
  863TIP3   OH2 2524   4.442   7.552   6.218 -0.2087  0.2685 -0.4643
  863TIP3    H1 2525   4.496   7.550   6.139 -0.6199 -0.2989 -0.7380
  863TIP3    H2 2526   4.488   7.611   6.278 -0.4114  1.4741 -1.4862
  864TIP3   OH2 2527   5.850   2.151   0.160 -0.1774 -0.3788 -0.2980
  864TIP3    H1 2528   5.885   2.094   0.092 -0.6847  0.3361 -1.1639
  864TIP3    H2 2529   5.895   2.123   0.240 -1.8427 -3.2974 -0.3091
  865TIP3   OH2 2530   2.880   3.387   0.987  0.0316 -0.0212 -0.5085
  865TIP3    H1 2531   2.819   3.449   0.945 -1.5892 -0.4644  1.1484
  865TIP3    H2 2532   2.839   3.302   0.976  0.2970 -0.3120  0.7206
  866TIP3   OH2 2533   4.313   2.495   1.320  0.0648  0.1453  0.2853
  866TIP3    H1 2534   4.387   2.546   1.353 -0.3761  1.1210 -0.2144
  866TIP3    H2 2535   4.316   2.506   1.225  0.0901 -0.9474  0.1546
  867TIP3   OH2 2536   1.977   1.692   1.906  0.3458  0.6350 -0.4331
  867TIP3    H1 2537   1.996   1.780   1.939  0.4530  0.6790 -0.6104
  867TIP3    H2 2538   2.062   1.649   1.901  0.4527  0.9690 -1.6088
  868TIP3   OH2 2539   4.445   4.744   2.252 -0.3345 -0.2587  0.4335
  868TIP3    H1 2540   4.437   4.837   2.229 -0.4986 -0.3419  0.1470
  868TIP3    H2 2541   4.356   4.710   2.244 -0.0151 -0.8022 -1.0156
  869TIP3   OH2 2542   7.313   5.708   6.454 -0.0455 -0.0817 -0.0863
  869TIP3    H1 2543   7.243   5.686   6.515 -1.1344 -0.0229 -1.3016
  869TIP3    H2 2544   7.269   5.749   6.380  1.2194 -0.4941 -1.0859
  870TIP3   OH2 2545   5.475   2.834   1.403  0.4754  0.3062 -0.3432
  870TIP3    H1 2546   5.395   2.875   1.370 -0.5371 -0.3028  1.3450
  870TIP3    H2 2547   5.493   2.879   1.486  1.2153 -0.3877 -0.1202
  871TIP3   OH2 2548   3.941   1.862   0.515 -0.0782 -0.0539  0.5372
  871TIP3    H1 2549   3.857   1.870   0.471  1.0677  0.0287 -1.7116
  871TIP3    H2 2550   3.995   1.932   0.477  1.4684 -1.0538  0.8495
  872TIP3   OH2 2551   5.416   1.716   0.234 -0.5028 -0.1969  0.0920
  872TIP3    H1 2552   5.337   1.662   0.230 -1.0568  0.6912 -1.2679
  872TIP3    H2 2553   5.482   1.658   0.273 -1.3955 -1.4683 -0.2437
  873TIP3   OH2 2554   4.709   3.065   3.275 -0.1553 -0.7475 -0.2988
  873TIP3    H1 2555   4.694   3.095   3.365  0.4864 -1.8949  0.2036
  873TIP3    H2 2556   4.786   3.114   3.245 -0.7425  0.0953 -0.4562
  874TIP3   OH2 2557   2.789   2.891   0.360  0.1306  0.1613 -0.3261
  874TIP3    H1 2558   2.841   2.855   0.432 -0.7470 -0.4259  0.0203
  874TIP3    H2 2559   2.792   2.823   0.292 -0.2899  0.0723 -0.2555
  875TIP3   OH2 2560   3.876   3.998   1.774  0.0192  1.2816  0.3702
  875TIP3    H1 2561   3.845   3.951   1.696 -0.8723  2.4680 -0.0223
  875TIP3    H2 2562   3.833   3.955   1.847  1.0520 -0.0018  0.2399
  876TIP3   OH2 2563   7.357   5.496   4.813  0.0911 -0.7195 -0.6240
  876TIP3    H1 2564   7.386   5.489   4.904  0.4953 -0.5160 -0.7339
  876TIP3    H2 2565   7.270   5.457   4.812 -0.4585  0.4825  0.1127
  877TIP3   OH2 2566   6.378   5.835   6.611 -0.9230 -0.3717 -0.0648
  877TIP3    H1 2567   6.302   5.814   6.665  0.0167 -1.4051  0.9053
  877TIP3    H2 2568   6.368   5.781   6.532 -1.7926  0.3915 -0.4776
  878TIP3   OH2 2569   3.802   5.171   1.301 -0.0248  0.1282 -0.2579
  878TIP3    H1 2570   3.714   5.171   1.263 -0.3083  0.6624  0.3834
  878TIP3    H2 2571   3.794   5.225   1.380  0.3134 -1.8370  1.1417
  879TIP3   OH2 2572   2.705   5.254   1.582  0.1133  0.3204 -0.0362
  879TIP3    H1 2573   2.694   5.167   1.623 -0.1568  0.2082 -0.3464
  879TIP3    H2 2574   2.701   5.237   1.488  1.4663  0.4769 -0.1318
  880TIP3   OH2 2575   2.166   5.165   0.104  0.6963  0.0719 -0.1395
  880TIP3    H1 2576   2.259   5.166   0.084  0.3715 -0.5931 -1.7817
  880TIP3    H2 2577   2.136   5.255   0.088  0.8379  0.0193 -0.6946
  881TIP3   OH2 2578   3.176   4.268   1.830  0.1957  1.0180  0.1457
  881TIP3    H1 2579   3.109   4.255   1.897  0.6414 -1.7819  0.0753
  881TIP3    H2 2580   3.132   4.249   1.747  0.7142  0.5247 -0.0166
  882TIP3   OH2 2581   3.146   4.876   1.809  0.6356 -0.3923  0.0241
  882TIP3    H1 2582   3.228   4.827   1.823  0.3383 -0.8189  0.2687
  882TIP3    H2 2583   3.094   4.820   1.751 -0.1454 -0.8664  1.1611
  883TIP3   OH2 2584   2.635   5.272   2.688  0.1955 -0.0665 -0.5597
  883TIP3    H1 2585   2.567   5.324   2.646 -0.5264 -0.1127  0.5110
  883TIP3    H2 2586   2.588   5.197   2.725  0.6417  0.4570  1.1191
  884TIP3   OH2 2587   5.283   2.299   2.124 -0.7320 -0.4410  0.5952
  884TIP3    H1 2588   5.244   2.323   2.040 -3.2747 -5.3844  0.1878
  884TIP3    H2 2589   5.267   2.376   2.180 -1.5699  1.8011 -2.5780
  885TIP3   OH2 2590   3.720   4.026   1.159 -0.2229 -0.0610 -0.1234
  885TIP3    H1 2591   3.766   4.109   1.146 -0.1346 -0.2962 -1.4274
  885TIP3    H2 2592   3.761   3.967   1.095 -2.3666 -0.2693 -1.3249
  886TIP3   OH2 2593   3.345   5.697   0.442 -0.4734  0.5088  0.6890
  886TIP3    H1 2594   3.269   5.642   0.460 -0.5796  1.0734  1.9752
  886TIP3    H2 2595   3.415   5.660   0.497  0.4849 -0.6251 -1.2076
  887TIP3   OH2 2596   2.278   4.072   0.571 -0.4129  0.8124 -0.2909
  887TIP3    H1 2597   2.350   4.126   0.603  0.6969  0.0402 -1.4125
  887TIP3    H2 2598   2.251   4.114   0.489 -0.1970  0.2404 -0.6638
  888TIP3   OH2 2599   4.405   1.698   0.376 -0.0092  0.1434 -0.7127
  888TIP3    H1 2600   4.328   1.699   0.433  1.0260 -0.7316  0.7234
  888TIP3    H2 2601   4.440   1.787   0.381  0.4279 -0.0909  0.5208
  889TIP3   OH2 2602   3.908   6.884   6.868  0.2306 -0.0029 -0.0578
  889TIP3    H1 2603   3.962   6.943   6.816  1.0584 -0.5262  0.2041
  889TIP3    H2 2604   3.942   6.797   6.848  1.1653 -0.1510  2.0592
  890TIP3   OH2 2605   5.298   7.054   6.927  0.5027  0.3743 -0.1754
  890TIP3    H1 2606   5.261   6.997   6.994  0.7423  0.3470 -0.0639
  890TIP3    H2 2607   5.262   7.022   6.844  1.3983 -0.5586 -0.2147
  891TIP3   OH2 2608   5.308   3.787   1.239  0.0187  0.3323  0.0545
  891TIP3    H1 2609   5.338   3.706   1.199  0.0218  0.2427  0.2402
  891TIP3    H2 2610   5.234   3.761   1.294  0.8737  0.2533  1.1790
  892TIP3   OH2 2611   3.200   2.164   1.147 -0.3007  0.4334  0.2129
  892TIP3    H1 2612   3.204   2.169   1.243 -1.0530  0.8644  0.2298
  892TIP3    H2 2613   3.156   2.081   1.130  2.0102 -0.8197  0.1782
  893TIP3   OH2 2614   8.460   1.392   5.662  0.0557  0.1386  0.0968
  893TIP3    H1 2615   8.365   1.404   5.652  0.0307 -0.3360 -0.2182
  893TIP3    H2 2616   8.478   1.422   5.751 -0.0034  2.6192 -0.6668
  894TIP3   OH2 2617   4.280   7.221   6.599 -0.0287 -0.2914 -0.2295
  894TIP3    H1 2618   4.224   7.299   6.593  0.1931 -0.1349 -0.2898
  894TIP3    H2 2619   4.322   7.215   6.513  0.3232 -0.1947 -0.0693
  895TIP3   OH2 2620   3.045   3.240   0.806  0.5880 -0.2664  0.5703
  895TIP3    H1 2621   3.008   3.327   0.819 -0.8005 -0.7849  0.1068
  895TIP3    H2 2622   3.049   3.202   0.894 -0.3586 -0.3629  0.5685
  896TIP3   OH2 2623   2.480   4.948   1.896 -0.0761 -1.0599  0.3777
  896TIP3    H1 2624   2.496   4.931   1.803 -2.2725 -1.1475 -0.0075
  896TIP3    H2 2625   2.514   4.870   1.941  0.2629 -1.3772 -0.4173
  897TIP3   OH2 2626   3.602   4.519   2.312 -0.1088  0.1583 -0.4190
  897TIP3    H1 2627   3.641   4.548   2.230  0.4069 -0.6338 -0.4618
  897TIP3    H2 2628   3.562   4.598   2.349  0.8312  0.8056 -0.7682
  898TIP3   OH2 2629   2.865   0.381   1.943  0.2474  0.0178 -0.7606
  898TIP3    H1 2630   2.826   0.293   1.938  0.9239 -0.1900 -2.5696
  898TIP3    H2 2631   2.837   0.425   1.864  0.7618  1.0948 -0.3541
  899TIP3   OH2 2632   3.188   2.572   1.190 -0.7092  0.4353 -0.1305
  899TIP3    H1 2633   3.189   2.668   1.190  0.3746  0.4282 -0.8524
  899TIP3    H2 2634   3.138   2.549   1.269 -0.0158  1.5864  0.6632
  900TIP3   OH2 2635   6.269   1.126   1.763 -0.1912 -0.1680 -0.5042
  900TIP3    H1 2636   6.312   1.194   1.815  1.0561 -1.2915 -0.0151
  900TIP3    H2 2637   6.340   1.091   1.708 -1.1921  0.0777 -1.9752
  901TIP3   OH2 2638   7.274   1.569   0.068 -0.1263  0.1957 -0.6322
  901TIP3    H1 2639   7.247   1.643   0.014 -0.0755  0.5159 -0.2224
  901TIP3    H2 2640   7.364   1.590   0.094 -0.4890  0.5414  0.4086
  902TIP3   OH2 2641   2.477   0.806   0.470  0.2695  0.4199  1.1130
  902TIP3    H1 2642   2.566   0.825   0.441  0.5539 -0.5060  1.3644
  902TIP3    H2 2643   2.487   0.735   0.534 -0.7946 -0.7274  0.0345
  903TIP3   OH2 2644   3.910   3.899   2.252 -0.5623  0.6901  0.2712
  903TIP3    H1 2645   3.892   3.871   2.342  1.1937 -2.5430 -0.3041
  903TIP3    H2 2646   4.005   3.901   2.246 -0.6503 -0.6347 -1.9524
  904TIP3   OH2 2647   5.078   0.555   0.564 -0.1851 -0.2478 -0.1705
  904TIP3    H1 2648   5.076   0.484   0.628 -0.1230  0.9339  1.1884
  904TIP3    H2 2649   4.998   0.604   0.580  0.0969  0.3751 -0.6351
  905TIP3   OH2 2650   6.067   7.287   6.376  0.1967  0.5817  0.0405
  905TIP3    H1 2651   5.999   7.351   6.353 -1.0517 -0.3302  1.1150
  905TIP3    H2 2652   6.120   7.332   6.442 -1.9254 -0.1825  2.3393
  906TIP3   OH2 2653   4.997   1.803   0.371  0.3372  0.4850  0.7141
  906TIP3    H1 2654   4.912   1.765   0.394  0.8612 -1.6549 -0.7215
  906TIP3    H2 2655   5.053   1.783   0.446  1.3974 -4.3621 -1.1804
  907TIP3   OH2 2656   6.187   7.931   6.293  0.5071  0.2432  0.4948
  907TIP3    H1 2657   6.274   7.958   6.323  0.6793  0.7575 -0.4391
  907TIP3    H2 2658   6.174   7.844   6.331  1.6206 -0.0240  0.2812
  908TIP3   OH2 2659   3.655   2.596   1.152 -0.4548 -0.2082 -1.1607
  908TIP3    H1 2660   3.595   2.545   1.098 -2.6073 -0.2235  1.1787
  908TIP3    H2 2661   3.708   2.531   1.198 -2.4779 -0.3703  1.0126
  909TIP3   OH2 2662   3.872   1.216   0.626 -0.3670 -0.2017 -0.2267
  909TIP3    H1 2663   3.780   1.236   0.645 -0.3655  0.1366 -0.5688
  909TIP3    H2 2664   3.869   1.153   0.554 -0.2684  2.5230 -2.6929
  910TIP3   OH2 2665   5.858   7.741   6.834  0.0649  0.2941  0.3235
  910TIP3    H1 2666   5.913   7.802   6.787  0.9416  0.3640  1.4181
  910TIP3    H2 2667   5.919   7.680   6.876 -0.8087 -1.6458 -1.1439
  911TIP3   OH2 2668   0.076   7.445   0.448  0.2411  1.0217  0.0436
  911TIP3    H1 2669   0.007   7.493   0.493  1.0193  0.9870  1.2991
  911TIP3    H2 2670   0.135   7.512   0.414 -1.3350  1.1373 -2.6289
  912TIP3   OH2 2671   3.012   2.561   1.407  0.1338 -0.4158 -0.3565
  912TIP3    H1 2672   2.931   2.541   1.455  0.5106 -0.9686  0.0610
  912TIP3    H2 2673   3.082   2.536   1.468  0.6243  1.5080 -0.1010
  913TIP3   OH2 2674   5.134   2.361   1.890  0.2813 -0.3972 -0.3889
  913TIP3    H1 2675   5.089   2.352   1.806  3.9178 -0.0199 -2.4897
  913TIP3    H2 2676   5.064   2.375   1.953 -2.7113 -2.9245 -3.0000
  914TIP3   OH2 2677   6.014   5.989   6.545 -0.1856  0.0362 -0.0790
  914TIP3    H1 2678   6.031   5.897   6.565  0.7270  0.1737 -0.1856
  914TIP3    H2 2679   6.030   6.034   6.628 -3.0893 -0.1837  0.6333
  915TIP3   OH2 2680   3.639   2.857   2.528 -0.3397 -0.4642 -0.1507
  915TIP3    H1 2681   3.609   2.784   2.473  0.0133 -1.0926  0.4854
  915TIP3    H2 2682   3.731   2.869   2.504  0.4765 -2.2650  1.9326
  916TIP3   OH2 2683   4.693   2.087   3.155 -0.2601  0.1913 -0.2859
  916TIP3    H1 2684   4.756   2.043   3.213 -0.9179  0.4004  0.6008
  916TIP3    H2 2685   4.627   2.020   3.137 -0.3224  0.2802 -0.3849
  917TIP3   OH2 2686   2.556   3.264   0.711  0.1865 -0.2269 -0.4379
  917TIP3    H1 2687   2.631   3.218   0.674 -0.6706  0.5573 -3.2534
  917TIP3    H2 2688   2.562   3.353   0.678 -0.9546  0.3577  0.8456
  918TIP3   OH2 2689   7.062   2.750   1.493 -0.0524 -0.9142 -0.5091
  918TIP3    H1 2690   7.027   2.731   1.406 -0.1175 -1.3099 -0.3992
  918TIP3    H2 2691   7.139   2.694   1.500  0.0458 -0.7622 -0.3744
  919TIP3   OH2 2692   2.291   3.958   3.748  0.4404 -0.0384 -0.3495
  919TIP3    H1 2693   2.322   3.934   3.836 -1.2602  0.2819  0.3522
  919TIP3    H2 2694   2.237   4.035   3.762 -1.1586 -0.9300 -1.4560
  920TIP3   OH2 2695   3.222   2.333   0.949 -0.3874 -0.1114  0.5197
  920TIP3    H1 2696   3.209   2.269   1.020 -0.0443 -1.5367 -0.6830
  920TIP3    H2 2697   3.147   2.392   0.957 -1.3985 -1.4055  0.8782
  921TIP3   OH2 2698   3.278   5.051   4.103 -0.2035 -0.5460 -0.1794
  921TIP3    H1 2699   3.184   5.063   4.113 -0.3276 -1.3412 -0.4074
  921TIP3    H2 2700   3.302   4.987   4.169  0.0796 -0.7969 -0.5245
  922TIP3   OH2 2701   4.014   2.749   1.964 -0.3287 -0.2313  0.1083
  922TIP3    H1 2702   3.979   2.680   1.909  1.5717 -1.9995  1.0694
  922TIP3    H2 2703   4.091   2.781   1.917 -0.0532 -0.1470  0.6110
  923TIP3   OH2 2704   3.868   1.006   0.428  0.0446 -0.4496 -0.2669
  923TIP3    H1 2705   3.854   1.004   0.333 -1.0653  1.2595 -0.1738
  923TIP3    H2 2706   3.796   0.954   0.464  0.0900 -0.5620 -0.3395
  924TIP3   OH2 2707   3.587   3.660   1.938  0.1131  0.3541 -0.0025
  924TIP3    H1 2708   3.683   3.664   1.931  0.2979 -0.1051  2.0444
  924TIP3    H2 2709   3.561   3.750   1.959  0.2580  0.1255  1.1760
  925TIP3   OH2 2710   6.646   6.268   6.278  0.5309  0.2102 -0.1151
  925TIP3    H1 2711   6.628   6.352   6.321  1.8116  0.6235 -0.3783
  925TIP3    H2 2712   6.646   6.289   6.184 -2.2622 -0.6886 -0.3650
  926TIP3   OH2 2713   5.501   6.154   6.717  0.2228 -0.1159  0.5775
  926TIP3    H1 2714   5.510   6.195   6.803 -2.5842  1.4144  0.2052
  926TIP3    H2 2715   5.436   6.085   6.731  1.6780 -1.6091  0.2109
  927TIP3   OH2 2716   2.944   2.893   0.076 -0.0585  0.2125  0.3458
  927TIP3    H1 2717   2.957   2.876  -0.017  1.0481  0.4573  0.4500
  927TIP3    H2 2718   2.887   2.822   0.106  0.0813 -0.2077 -0.3800
  928TIP3   OH2 2719   1.906   3.114   2.761  0.1736  0.8544  0.1529
  928TIP3    H1 2720   1.916   3.191   2.818  0.8885  0.5703  0.4186
  928TIP3    H2 2721   1.944   3.141   2.678  0.0199  0.9389  0.1099
  929TIP3   OH2 2722   3.041   6.656   5.344 -0.2132  0.2849  0.4457
  929TIP3    H1 2723   3.136   6.654   5.358  0.0611 -0.0266 -1.3796
  929TIP3    H2 2724   3.011   6.569   5.372  0.1082  0.1853  0.4841
  930TIP3   OH2 2725   5.004   2.552   2.321  0.3310 -0.2011  0.0580
  930TIP3    H1 2726   5.085   2.503   2.330  0.3888  0.1994  1.9961
  930TIP3    H2 2727   5.022   2.617   2.253  1.8397  0.2852  0.9020
  931TIP3   OH2 2728   5.286   5.130   2.551  0.3566 -0.6050 -0.5281
  931TIP3    H1 2729   5.335   5.071   2.494  0.9748 -0.3807 -0.2335
  931TIP3    H2 2730   5.314   5.107   2.639 -0.4900 -0.8503 -0.3239
  932TIP3   OH2 2731   3.100   1.511   1.550  0.1898 -0.3753 -0.0831
  932TIP3    H1 2732   3.162   1.583   1.558 -3.2536  2.4947  2.4365
  932TIP3    H2 2733   3.074   1.511   1.458 -1.4841  3.1923  0.3085
  933TIP3   OH2 2734   6.850   6.198   6.824 -1.1037  0.3893 -0.0511
  933TIP3    H1 2735   6.801   6.203   6.905 -1.2215  2.0412 -0.2072
  933TIP3    H2 2736   6.881   6.287   6.808  1.5849 -0.4952 -0.1888
  934TIP3   OH2 2737   4.564   5.083   2.210  0.7159  0.6745 -0.2865
  934TIP3    H1 2738   4.548   5.158   2.267 -1.4170 -0.0048  0.0261
  934TIP3    H2 2739   4.627   5.030   2.258  0.0360  0.8303  0.7817
  935TIP3   OH2 2740   7.329   0.453   6.104  0.3159 -0.1202  0.0705
  935TIP3    H1 2741   7.251   0.398   6.096 -0.1087  0.3128  1.1008
  935TIP3    H2 2742   7.304   0.536   6.065  0.8461 -0.5443 -1.1786
  936TIP3   OH2 2743   3.510   2.464   0.698 -0.2583 -0.0354 -0.0042
  936TIP3    H1 2744   3.527   2.393   0.636  1.1394 -0.4585  0.8252
  936TIP3    H2 2745   3.417   2.484   0.687 -0.2085 -0.6391 -1.6594
  937TIP3   OH2 2746   2.356   1.926   3.493 -0.2245  0.1203 -0.0304
  937TIP3    H1 2747   2.278   1.887   3.452  0.2160 -0.4195 -0.3506
  937TIP3    H2 2748   2.343   1.910   3.587  0.2242 -1.3055 -0.1991
  938TIP3   OH2 2749   2.284   2.913   0.638  0.3486  0.3260 -0.7853
  938TIP3    H1 2750   2.248   3.002   0.639  1.3801  0.7586 -0.7577
  938TIP3    H2 2751   2.216   2.859   0.677  0.8907  1.5733  1.9899
  939TIP3   OH2 2752   0.690   0.240   6.647 -0.2203 -0.6511  0.5168
  939TIP3    H1 2753   0.723   0.273   6.731 -2.2805  2.1305  0.3040
  939TIP3    H2 2754   0.614   0.186   6.671  0.4169 -1.5509  0.5477
  940TIP3   OH2 2755   3.403   4.244   2.067 -0.1502 -0.5265 -0.8259
  940TIP3    H1 2756   3.423   4.337   2.072  1.2126 -0.8020 -0.8642
  940TIP3    H2 2757   3.320   4.239   2.020 -2.6803  0.9483  3.2273
  941TIP3   OH2 2758   0.084   1.701   5.070  0.1195  0.1505  0.0967
  941TIP3    H1 2759   0.053   1.657   5.150  2.2968 -0.2492  0.7677
  941TIP3    H2 2760   0.018   1.681   5.004  0.2712 -2.8948  0.7978
  942TIP3   OH2 2761   3.322   3.509   2.624  0.3209  0.5768  0.2628
  942TIP3    H1 2762   3.361   3.422   2.623 -0.4325  0.1741 -3.7487
  942TIP3    H2 2763   3.396   3.569   2.633  0.9397 -0.3852  1.9460
  943TIP3   OH2 2764   4.235   4.414   0.433 -0.1931 -0.0191 -0.7713
  943TIP3    H1 2765   4.259   4.377   0.348 -1.6233  0.7772 -1.5305
  943TIP3    H2 2766   4.141   4.430   0.428 -0.6929 -1.7957  1.6880
  944TIP3   OH2 2767   0.387   0.836   6.271 -0.8328  0.0215 -0.1148
  944TIP3    H1 2768   0.467   0.795   6.238 -1.0901 -0.8975  0.3813
  944TIP3    H2 2769   0.340   0.864   6.192  0.2414  1.0859 -0.3865
  945TIP3   OH2 2770   4.181   3.116   3.256  0.2209 -0.6258 -0.2951
  945TIP3    H1 2771   4.274   3.095   3.247  0.4211 -0.0521  0.4093
  945TIP3    H2 2772   4.166   3.119   3.351 -0.9363 -2.5490 -0.3945
  946TIP3   OH2 2773   6.161   8.011   4.664 -0.1523 -0.2264  0.5654
  946TIP3    H1 2774   6.220   7.938   4.645  0.4309  0.4923 -0.4476
  946TIP3    H2 2775   6.207   8.089   4.632 -1.1492  0.4853  0.8077
  947TIP3   OH2 2776   3.566   5.476   0.897  0.1876 -0.0175  0.4312
  947TIP3    H1 2777   3.526   5.390   0.886  0.3668  0.1843 -2.1057
  947TIP3    H2 2778   3.653   5.468   0.858  0.5058  1.0751  0.8788
  948TIP3   OH2 2779   1.243   0.686   6.410 -0.0273 -0.5303 -0.7132
  948TIP3    H1 2780   1.301   0.700   6.485 -0.1136  0.1905 -0.7822
  948TIP3    H2 2781   1.156   0.675   6.449 -0.0467 -0.3196 -0.6976
  949TIP3   OH2 2782   0.654   0.965   4.392  0.0736  0.0165 -0.4793
  949TIP3    H1 2783   0.665   0.976   4.486  0.1081  1.5300 -0.6508
  949TIP3    H2 2784   0.682   0.874   4.375  2.1856  0.4183  0.6517
  950TIP3   OH2 2785   1.075   2.622   2.317  0.0064 -0.2759 -0.4150
  950TIP3    H1 2786   1.036   2.635   2.231 -1.1915  1.7153  0.3884
  950TIP3    H2 2787   1.081   2.527   2.327  1.4894 -0.5113 -3.2534
  951TIP3   OH2 2788   5.439   3.111   4.239  0.2792  0.5490 -0.0237
  951TIP3    H1 2789   5.435   3.025   4.197  1.9316  0.5714 -0.2610
  951TIP3    H2 2790   5.404   3.096   4.327  1.1323 -0.5049  0.1461
  952TIP3   OH2 2791   4.482   4.360   2.058 -0.3272  0.4528  0.4521
  952TIP3    H1 2792   4.572   4.375   2.028 -0.6002  0.6939 -0.2560
  952TIP3    H2 2793   4.488   4.279   2.109  0.3809  0.7372  0.8351
  953TIP3   OH2 2794   0.116   0.036   6.830  0.2396  0.2533 -0.3162
  953TIP3    H1 2795   0.171  -0.040   6.810 -0.2436  0.3796 -2.2700
  953TIP3    H2 2796   0.172   0.094   6.881  0.7969 -1.1581  0.7040
  954TIP3   OH2 2797   7.430   5.171   6.059 -0.4399  0.2414 -0.4211
  954TIP3    H1 2798   7.471   5.249   6.097 -0.8449  0.0098  0.4928
  954TIP3    H2 2799   7.380   5.132   6.130  0.2778 -1.2255 -0.6841
  955TIP3   OH2 2800   2.825   4.348   3.901 -0.6292 -0.0395  0.2469
  955TIP3    H1 2801   2.803   4.260   3.870  2.3295 -0.6089 -0.3567
  955TIP3    H2 2802   2.781   4.406   3.838 -0.3548 -1.1159 -0.9680
  956TIP3   OH2 2803   1.684   2.043   0.572 -0.2100 -0.4147 -0.8035
  956TIP3    H1 2804   1.649   2.119   0.526  1.5869 -0.0194 -1.5610
  956TIP3    H2 2805   1.718   2.079   0.654 -0.8769 -0.6829 -0.4014
  957TIP3   OH2 2806   4.858   7.569   6.314  0.6469  0.2968  0.1014
  957TIP3    H1 2807   4.877   7.661   6.299  1.5845  0.1720  0.5008
  957TIP3    H2 2808   4.933   7.537   6.365 -0.1234 -0.4513  0.7793
  958TIP3   OH2 2809   4.858   7.057   6.356  0.2232 -0.0012 -0.3292
  958TIP3    H1 2810   4.938   7.045   6.305 -0.1809  0.3265 -1.0507
  958TIP3    H2 2811   4.789   7.021   6.301 -0.1758  0.0977  0.1080
  959TIP3   OH2 2812   5.329   2.003   1.532  0.4613  0.7294 -0.1368
  959TIP3    H1 2813   5.412   1.993   1.580  0.2988  0.3417  0.0663
  959TIP3    H2 2814   5.265   2.027   1.599  0.0870 -0.4965 -0.0423
  960TIP3   OH2 2815   5.988   6.550   6.880 -0.0853  0.2947  0.1376
  960TIP3    H1 2816   5.935   6.481   6.918  1.4444 -0.3811  1.1175
  960TIP3    H2 2817   5.978   6.624   6.940 -2.2510  1.1880 -1.2641
  961TIP3   OH2 2818   3.962   4.961   0.656  0.0715 -0.3876  0.4791
  961TIP3    H1 2819   3.896   4.894   0.674 -0.5369  0.4079  1.2788
  961TIP3    H2 2820   4.005   4.932   0.576 -1.1824 -0.9647  0.0029
  962TIP3   OH2 2821   1.353   1.268   5.746  0.5578 -0.2398 -0.1223
  962TIP3    H1 2822   1.287   1.262   5.816  0.5222 -0.5943 -0.1834
  962TIP3    H2 2823   1.430   1.225   5.782  1.5455  2.2625  0.8443
  963TIP3   OH2 2824   5.397   2.696   1.697 -0.3147  0.4822  0.0185
  963TIP3    H1 2825   5.463   2.646   1.747 -0.3755  1.2747  0.9071
  963TIP3    H2 2826   5.437   2.782   1.685 -0.2927  0.2851 -1.3403
  964TIP3   OH2 2827   1.899   1.906   0.201  0.4591 -0.5486 -0.1507
  964TIP3    H1 2828   1.923   1.998   0.207 -0.7525 -0.3522  1.9348
  964TIP3    H2 2829   1.868   1.895   0.111  1.2745  0.9045 -0.6186
  965TIP3   OH2 2830   1.321   4.651   1.366 -0.0103 -0.1110 -0.0091
  965TIP3    H1 2831   1.346   4.736   1.403  0.6324  0.0844 -0.8567
  965TIP3    H2 2832   1.353   4.655   1.276  2.6602 -2.3879  0.7703
  966TIP3   OH2 2833   3.281   4.037   2.786  0.2246 -0.0010 -0.9582
  966TIP3    H1 2834   3.254   3.981   2.713  0.1882  0.5863 -1.4012
  966TIP3    H2 2835   3.364   4.075   2.758  0.9409 -0.8871 -0.0859
  967TIP3   OH2 2836   4.042   1.934   0.955  0.0773 -0.2525  0.0075
  967TIP3    H1 2837   3.972   1.910   0.895 -1.4436  0.8179  1.2974
  967TIP3    H2 2838   4.023   1.884   1.035  2.1223 -1.7353 -0.3778
  968TIP3   OH2 2839   2.951   4.860   1.076  0.0555 -0.8373  0.0451
  968TIP3    H1 2840   3.015   4.919   1.035 -0.7270  1.2493  1.7182
  968TIP3    H2 2841   2.866   4.891   1.045 -0.3014 -1.9585 -0.1249
  969TIP3   OH2 2842   5.062   4.345   2.230 -0.1953 -0.1979  0.1864
  969TIP3    H1 2843   5.084   4.417   2.171 -1.7228  0.8111  0.8298
  969TIP3    H2 2844   4.983   4.307   2.192 -1.4472  0.7436  1.8219
  970TIP3   OH2 2845   5.044   7.977   6.654  0.1098  0.7394  0.6066
  970TIP3    H1 2846   5.039   7.883   6.639  1.6794  0.7134  0.1382
  970TIP3    H2 2847   5.137   7.994   6.671  0.0272  2.3402 -0.3674
  971TIP3   OH2 2848   8.419   0.341   6.358  0.5894 -0.4441 -0.0811
  971TIP3    H1 2849   8.512   0.318   6.365  1.0434  1.4565  0.4590
  971TIP3    H2 2850   8.418   0.437   6.362 -1.2488 -0.3541 -1.7778
  972TIP3   OH2 2851   3.404   3.216   0.983  0.5723 -0.9159 -0.3422
  972TIP3    H1 2852   3.412   3.311   0.971 -0.5039 -0.7349  0.3230
  972TIP3    H2 2853   3.421   3.180   0.896 -1.7180  0.0556 -1.2165
  973TIP3   OH2 2854   8.161   0.051   5.078 -0.3876  0.5951 -0.0840
  973TIP3    H1 2855   8.208   0.098   5.146 -1.2224 -0.1172  1.0162
  973TIP3    H2 2856   8.122   0.119   5.023 -0.9195  1.1837  1.0151
  974TIP3   OH2 2857   3.784   0.628   0.816 -0.2391  0.0696  0.7756
  974TIP3    H1 2858   3.746   0.562   0.874  0.6506 -1.6040 -0.5240
  974TIP3    H2 2859   3.831   0.578   0.749 -0.3537  1.9962 -0.7904
  975TIP3   OH2 2860   1.965   5.681   0.510  0.3253  0.4373 -0.0898
  975TIP3    H1 2861   1.896   5.657   0.449  0.0650 -0.5682  0.5877
  975TIP3    H2 2862   1.979   5.602   0.563 -0.6815  1.7963  2.2935
  976TIP3   OH2 2863   3.627   3.100   1.908  0.0119 -0.2607 -0.6398
  976TIP3    H1 2864   3.697   3.150   1.949  0.3186 -0.2995 -1.1129
  976TIP3    H2 2865   3.560   3.091   1.976  1.0738 -1.4478  0.2841
  977TIP3   OH2 2866   3.515   3.943   0.923  0.1690 -0.4087 -0.2481
  977TIP3    H1 2867   3.485   3.937   1.014  1.5765  2.2180  0.4426
  977TIP3    H2 2868   3.436   3.965   0.873  0.2210  2.8129  1.0281
  978TIP3   OH2 2869   3.939   1.333   1.423 -0.1619 -0.5978  0.0387
  978TIP3    H1 2870   3.879   1.368   1.357 -0.8793  1.2912  1.6399
  978TIP3    H2 2871   3.882   1.313   1.498  0.6625 -2.5413  0.1669
  979TIP3   OH2 2872   6.029   7.936   6.699 -0.4595  0.1178 -0.2188
  979TIP3    H1 2873   6.115   7.893   6.701 -0.0116  0.9870 -0.5768
  979TIP3    H2 2874   6.049   8.029   6.686 -1.3952  0.5157  1.1137
  980TIP3   OH2 2875   1.232   1.479   0.545 -0.0947 -0.2730 -0.2191
  980TIP3    H1 2876   1.252   1.387   0.558 -1.3615 -0.6162 -0.6761
  980TIP3    H2 2877   1.267   1.523   0.624  2.3668 -0.8385 -0.9437
  981TIP3   OH2 2878   2.759   2.530   1.496 -0.0299  0.2970  0.3401
  981TIP3    H1 2879   2.768   2.498   1.586  0.7428  0.5502  0.3613
  981TIP3    H2 2880   2.769   2.625   1.504  1.0444  0.2349 -0.1235
  982TIP3   OH2 2881   3.515   3.502   3.025  0.4836 -0.0318 -0.1138
  982TIP3    H1 2882   3.520   3.414   3.062 -1.6471 -0.9803 -1.9607
  982TIP3    H2 2883   3.485   3.557   3.097  2.3090 -0.6858  1.1917
  983TIP3   OH2 2884   4.045   3.812   3.083  0.0510 -0.3069  0.0750
  983TIP3    H1 2885   4.036   3.850   2.996 -0.0884 -0.3798  0.0569
  983TIP3    H2 2886   4.049   3.717   3.068  4.0074 -0.1776 -0.1768
  984TIP3   OH2 2887   6.337   3.489   1.719  0.1733  0.0961 -0.3436
  984TIP3    H1 2888   6.412   3.541   1.749  0.4635 -0.9035  0.6733
  984TIP3    H2 2889   6.265   3.515   1.776 -0.4097  1.4312 -1.6480
  985TIP3   OH2 2890   2.762   1.390   1.299 -0.4681  0.2551  0.5755
  985TIP3    H1 2891   2.852   1.386   1.330  0.8480  0.6647 -2.9133
  985TIP3    H2 2892   2.740   1.483   1.301  0.8548  0.7136 -2.7791
  986TIP3   OH2 2893   3.705   2.271   3.433 -0.1966  0.0323  0.1135
  986TIP3    H1 2894   3.786   2.228   3.404 -0.9044 -2.0070  1.0582
  986TIP3    H2 2895   3.657   2.288   3.352  0.2841 -0.5837 -0.3112
  987TIP3   OH2 2896   5.655   1.322   3.830  0.4188 -0.1486  0.0592
  987TIP3    H1 2897   5.641   1.228   3.836  0.6449 -0.2035 -0.2491
  987TIP3    H2 2898   5.654   1.341   3.736  0.8367  0.0827  0.0951
  988TIP3   OH2 2899   4.617   2.721   3.546 -0.1373  0.1557 -0.5002
  988TIP3    H1 2900   4.642   2.684   3.462 -0.5365 -0.6149 -0.2899
  988TIP3    H2 2901   4.671   2.799   3.556 -0.3982  0.4886 -1.6651
  989TIP3   OH2 2902   4.626   5.715   6.361 -0.2433 -0.9204 -0.2219
  989TIP3    H1 2903   4.600   5.807   6.365  0.2627 -0.7237 -1.2089
  989TIP3    H2 2904   4.678   5.702   6.440 -0.4870 -0.4186  0.0304
  990TIP3   OH2 2905   7.829   0.467   2.851 -0.4821  0.1731 -0.4093
  990TIP3    H1 2906   7.770   0.540   2.828  0.0445  1.5604  2.4936
  990TIP3    H2 2907   7.798   0.437   2.936  0.5966 -1.6928 -0.6526
  991TIP3   OH2 2908   4.371   1.591   4.057  0.3040  0.4769 -0.5428
  991TIP3    H1 2909   4.373   1.511   4.108 -0.4994 -0.5349 -2.0720
  991TIP3    H2 2910   4.278   1.616   4.053  0.4862  1.1888 -0.5285
  992TIP3   OH2 2911   0.111   0.610   5.515  0.3927 -0.2541  0.5443
  992TIP3    H1 2912   0.196   0.580   5.484  1.4842  1.7528  1.5031
  992TIP3    H2 2913   0.126   0.635   5.606 -1.2819 -0.0610  0.7859
  993TIP3   OH2 2914   2.083   2.151   0.180 -0.4107 -0.4904  0.5783
  993TIP3    H1 2915   2.147   2.211   0.219 -1.7916  0.3241  1.6382
  993TIP3    H2 2916   2.039   2.204   0.113 -1.0190 -0.5848  0.8992
  994TIP3   OH2 2917   5.798   7.569   5.955  0.0894  0.0987  0.0755
  994TIP3    H1 2918   5.742   7.640   5.987 -0.1914 -0.0042 -0.1897
  994TIP3    H2 2919   5.883   7.610   5.943 -0.8113  1.1617 -3.0819
  995TIP3   OH2 2920   7.071   1.011   6.750 -0.5151 -0.2777 -0.0482
  995TIP3    H1 2921   7.033   1.045   6.669 -0.4732 -0.6208 -0.2132
  995TIP3    H2 2922   6.996   0.991   6.806 -0.5258  0.8150  0.3569
  996TIP3   OH2 2923   0.902   0.766   5.741 -0.0754 -0.4166 -0.2460
  996TIP3    H1 2924   0.972   0.760   5.806 -0.4070  1.9204  0.3938
  996TIP3    H2 2925   0.848   0.689   5.756  3.3118 -3.2140 -1.9381
  997TIP3   OH2 2926   2.391   5.973   0.573 -0.4748 -0.0262 -0.4616
  997TIP3    H1 2927   2.348   6.042   0.522  0.2381  0.1613 -0.8261
  997TIP3    H2 2928   2.348   5.892   0.545  0.5336 -0.0318 -2.0681
  998TIP3   OH2 2929   4.016   5.003   2.573 -0.0555  0.1178  0.0689
  998TIP3    H1 2930   4.005   5.097   2.586 -0.0320  0.3143 -1.2620
  998TIP3    H2 2931   4.031   4.993   2.479  0.2183 -1.1916  0.2352
  999TIP3   OH2 2932   0.691   3.813   6.740  0.6975  0.0082 -0.5307
  999TIP3    H1 2933   0.675   3.778   6.828  0.8961 -0.4825 -0.6907
  999TIP3    H2 2934   0.628   3.768   6.684  0.1804  0.7478 -0.5405
 1000TIP3   OH2 2935   3.981   4.327   2.350 -0.5866  0.0330 -0.0053
 1000TIP3    H1 2936   4.021   4.270   2.284 -0.8685  0.4762 -0.5591
 1000TIP3    H2 2937   3.915   4.273   2.392  0.8526 -0.8397  1.1870
 1001TIP3   OH2 2938   7.175   4.473   6.360 -0.1882  0.6805 -0.6020
 1001TIP3    H1 2939   7.228   4.489   6.282  0.8887  3.3546  0.6025
 1001TIP3    H2 2940   7.224   4.408   6.410 -0.2514 -0.1036 -1.5660
 1002TIP3   OH2 2941   1.986   3.767   0.171  0.7721  0.0249  0.0708
 1002TIP3    H1 2942   1.954   3.677   0.160 -0.3605  0.2841  1.0802
 1002TIP3    H2 2943   1.911   3.815   0.205  1.4854  1.2741 -0.0842
 1003TIP3   OH2 2944   6.508   3.703   6.197 -0.1676 -0.3296  0.4005
 1003TIP3    H1 2945   6.431   3.655   6.164 -0.9024 -0.1874  1.8466
 1003TIP3    H2 2946   6.575   3.636   6.205  0.0920 -0.3292 -1.5403
 1004TIP3   OH2 2947   3.913   2.595   1.016 -0.2600 -0.1589  0.1245
 1004TIP3    H1 2948   3.898   2.681   0.976  1.5584  0.8865  1.5954
 1004TIP3    H2 2949   3.887   2.608   1.108 -0.2777 -1.2844  0.2813
 1005TIP3   OH2 2950   4.849   2.032   1.470 -0.5926  0.4028  0.0130
 1005TIP3    H1 2951   4.756   2.045   1.454 -0.2490  2.1849 -0.6550
 1005TIP3    H2 2952   4.892   2.096   1.414  1.1454 -1.8432 -1.3150
 1006TIP3   OH2 2953   2.619   3.914   1.622 -0.9587  0.5292  0.2038
 1006TIP3    H1 2954   2.708   3.883   1.636 -1.3752 -0.6673  0.3094
 1006TIP3    H2 2955   2.626   4.009   1.617  0.3059  0.4401  0.2940
 1007TIP3   OH2 2956   4.178   2.872   1.198 -0.0762 -0.3032  0.3570
 1007TIP3    H1 2957   4.129   2.950   1.224 -2.7314 -0.9359 -2.4716
 1007TIP3    H2 2958   4.127   2.799   1.231 -0.6051 -0.9542 -1.8420
 1008TIP3   OH2 2959   5.382   2.470   1.238  0.0038  0.2922 -0.0621
 1008TIP3    H1 2960   5.453   2.533   1.254  0.6766 -0.3880 -0.3303
 1008TIP3    H2 2961   5.382   2.414   1.316 -0.1065  0.1671 -0.1525
 1009TIP3   OH2 2962   5.700   1.437   0.617 -0.2463  0.2908  0.3804
 1009TIP3    H1 2963   5.768   1.440   0.684  1.5673 -0.9569 -1.3541
 1009TIP3    H2 2964   5.656   1.354   0.631  1.3689 -0.8478 -1.1111
 1010TIP3   OH2 2965   1.075   5.842   5.454 -0.0250  0.5446  0.1081
 1010TIP3    H1 2966   1.077   5.923   5.506 -1.1165  1.5412 -1.3919
 1010TIP3    H2 2967   1.022   5.863   5.378  1.1457 -1.0680 -1.1888
 1011TIP3   OH2 2968   1.066   3.543   1.610 -0.1501 -0.0947 -0.0268
 1011TIP3    H1 2969   1.148   3.525   1.657  0.7089  0.2381 -1.3738
 1011TIP3    H2 2970   1.076   3.632   1.577 -0.2241 -0.7476 -1.8649
 1012TIP3   OH2 2971   3.629   0.439   0.334 -0.3474 -0.2950  0.2756
 1012TIP3    H1 2972   3.565   0.377   0.298 -0.9939 -0.2353  1.2994
 1012TIP3    H2 2973   3.665   0.394   0.411 -0.2113  0.2607  0.5356
 1013TIP3   OH2 2974   6.045   2.531   3.506 -0.2969  0.3984 -0.1389
 1013TIP3    H1 2975   6.001   2.545   3.589  1.3536 -1.2978  1.0454
 1013TIP3    H2 2976   6.122   2.479   3.527  0.3473  0.2334 -2.6730
 1014TIP3   OH2 2977   3.772   2.215   1.277  0.0276 -0.4181  0.3772
 1014TIP3    H1 2978   3.809   2.128   1.261  0.6883  0.2621 -1.9600
 1014TIP3    H2 2979   3.678   2.204   1.259  0.4486 -0.1589 -2.1919
 1015TIP3   OH2 2980   6.189   5.756   5.428  0.5536 -0.2713 -0.0397
 1015TIP3    H1 2981   6.123   5.825   5.429 -0.1597 -0.9483  1.3901
 1015TIP3    H2 2982   6.270   5.800   5.454  0.0362 -0.0414  1.1948
 1016TIP3   OH2 2983   6.006   7.275   6.695 -0.2261 -0.0146 -0.3893
 1016TIP3    H1 2984   5.912   7.292   6.705 -0.1240  0.2282  0.2107
 1016TIP3    H2 2985   6.032   7.237   6.779 -0.1425 -1.7490 -1.1838
 1017TIP3   OH2 2986   8.018   6.022   6.784 -0.4002  0.6023  0.4587
 1017TIP3    H1 2987   7.968   6.086   6.834 -0.5208  1.0237 -0.1984
 1017TIP3    H2 2988   8.098   6.009   6.835 -1.2620 -0.2402  1.6274
 1018TIP3   OH2 2989   7.201   5.975   5.592 -0.2588 -0.1806  0.7757
 1018TIP3    H1 2990   7.278   5.950   5.644 -0.5787 -1.8019  0.5203
 1018TIP3    H2 2991   7.230   6.050   5.540  1.5793 -1.5591 -0.2762
 1019TIP3   OH2 2992   2.686   1.900   0.132 -0.4007 -0.0640 -0.0208
 1019TIP3    H1 2993   2.716   1.839   0.065 -2.6110  0.5718 -1.6274
 1019TIP3    H2 2994   2.626   1.849   0.187  0.0616 -0.1197  0.4363
 1020TIP3   OH2 2995   4.569   4.109   2.179 -0.5994 -0.6712  0.0251
 1020TIP3    H1 2996   4.549   4.049   2.252  0.3708 -0.2230  0.6724
 1020TIP3    H2 2997   4.642   4.161   2.211  0.3840 -1.0279 -1.5945
 1021TIP3   OH2 2998   3.139   2.265   1.846  0.0731  0.1315 -0.4094
 1021TIP3    H1 2999   3.063   2.242   1.900 -0.8903 -1.5383 -2.4008
 1021TIP3    H2 3000   3.209   2.280   1.909 -1.6798  0.8426  1.4244
 1022TIP3   OH2 3001   1.254   1.537   0.281  0.4747 -0.1509 -0.0840
 1022TIP3    H1 3002   1.246   1.525   0.375 -0.8886 -1.3104 -0.3348
 1022TIP3    H2 3003   1.291   1.625   0.271  0.8975 -0.1372  1.5266
 1023TIP3   OH2 3004   4.685   4.224   2.615 -0.6074 -0.2169  0.6117
 1023TIP3    H1 3005   4.643   4.304   2.646 -1.7520 -0.4202 -0.3758
 1023TIP3    H2 3006   4.777   4.249   2.604 -1.1930  1.4057 -1.0280
 1024TIP3   OH2 3007   3.116   3.989   0.327  0.3167  0.2992 -0.3419
 1024TIP3    H1 3008   3.072   4.069   0.356 -0.1316 -0.4247  1.0841
 1024TIP3    H2 3009   3.044   3.929   0.306  0.5441 -1.1118  2.6241
 1025TIP3   OH2 3010   3.653   3.249   2.870  0.0874 -0.2659  0.0817
 1025TIP3    H1 3011   3.607   3.229   2.952 -1.7952  2.5852 -0.1925
 1025TIP3    H2 3012   3.741   3.214   2.883 -0.4942 -0.8736  2.8757
 1026TIP3   OH2 3013   4.582   1.859   1.184  0.0120  0.5520  0.4049
 1026TIP3    H1 3014   4.606   1.827   1.097 -1.8202 -3.2028  1.1806
 1026TIP3    H2 3015   4.487   1.868   1.180 -0.1207 -0.0480  2.1629
 1027TIP3   OH2 3016   8.313   2.200   6.741  0.0183 -0.5169 -0.0604
 1027TIP3    H1 3017   8.335   2.272   6.799 -0.2607  1.0600 -1.8627
 1027TIP3    H2 3018   8.229   2.226   6.701  0.7156 -1.0596 -1.9333
 1028TIP3   OH2 3019   0.279   5.334   0.395  0.0616  0.0324 -0.1538
 1028TIP3    H1 3020   0.360   5.302   0.354 -1.2159 -2.6446 -0.7039
 1028TIP3    H2 3021   0.237   5.386   0.327 -0.0692 -1.0193 -0.8984
 1029TIP3   OH2 3022   7.381   1.077   5.752 -0.1947  0.1357 -0.0238
 1029TIP3    H1 3023   7.291   1.081   5.784 -0.2514 -2.8299  0.3307
 1029TIP3    H2 3024   7.372   1.055   5.659  0.1638 -3.1925  0.6705
 1030TIP3   OH2 3025   1.308   2.200   2.147  0.3288 -0.3345 -0.1863
 1030TIP3    H1 3026   1.308   2.243   2.233 -0.9456 -1.3257  0.3161
 1030TIP3    H2 3027   1.303   2.273   2.084  1.2335  0.3928  0.5591
 1031TIP3   OH2 3028   4.724   4.121   1.640 -0.4730  0.1387 -0.4135
 1031TIP3    H1 3029   4.750   4.103   1.550 -0.2491 -1.0781 -0.1245
 1031TIP3    H2 3030   4.772   4.200   1.664 -2.1013  1.6369 -2.0119
 1032TIP3   OH2 3031   4.019   2.313   0.875  0.1005 -0.0156 -0.3902
 1032TIP3    H1 3032   4.091   2.264   0.915  1.2579  1.6999 -0.3003
 1032TIP3    H2 3033   3.998   2.381   0.940  0.0314  0.9787 -1.4273
 1033TIP3   OH2 3034   3.482   6.875   6.363 -0.3392 -0.1354  0.2789
 1033TIP3    H1 3035   3.537   6.953   6.355 -2.0909  1.0273 -1.1375
 1033TIP3    H2 3036   3.434   6.888   6.445 -0.6993  0.3578 -0.0018
 1034TIP3   OH2 3037   3.681   4.378   1.642  0.2496 -0.1120 -0.7285
 1034TIP3    H1 3038   3.601   4.339   1.675  0.7299  0.6368  1.4399
 1034TIP3    H2 3039   3.750   4.346   1.701  1.6362 -1.1403 -2.8373
 1035TIP3   OH2 3040   6.644   2.328   0.543 -0.4136  0.0276  0.0087
 1035TIP3    H1 3041   6.581   2.369   0.603  0.2436  0.5242  0.3565
 1035TIP3    H2 3042   6.652   2.238   0.576 -1.7682 -0.3723 -0.6939
 1036TIP3   OH2 3043   4.912   1.939   1.722  0.2589  0.1289 -0.6194
 1036TIP3    H1 3044   4.993   1.986   1.741 -0.1489  0.4523  0.3071
 1036TIP3    H2 3045   4.890   1.965   1.632  1.4666 -0.3867 -1.0761
 1037TIP3   OH2 3046   7.422   5.716   6.844 -0.2873 -0.0968 -0.1817
 1037TIP3    H1 3047   7.494   5.716   6.906  0.4279 -0.9877 -1.0026
 1037TIP3    H2 3048   7.463   5.703   6.759 -1.0798  2.7184 -1.0682
 1038TIP3   OH2 3049   3.088   2.969   0.322 -0.1594 -0.0692  0.5844
 1038TIP3    H1 3050   3.013   2.957   0.265  2.4202 -0.3094 -2.9102
 1038TIP3    H2 3051   3.073   2.907   0.394 -2.6025 -1.1263 -0.7654
 1039TIP3   OH2 3052   6.474   0.410   6.967  0.1195 -0.2955  0.1479
 1039TIP3    H1 3053   6.424   0.464   6.907 -0.3950 -0.2589  0.6016
 1039TIP3    H2 3054   6.561   0.402   6.927  0.0322  0.4133 -0.1854
 1040TIP3   OH2 3055   7.366   3.923   6.708  0.0164 -0.9233  0.0815
 1040TIP3    H1 3056   7.322   3.842   6.734 -1.0648 -0.3290  0.1345
 1040TIP3    H2 3057   7.305   3.966   6.649 -1.2919  1.8614  3.2959
 1041TIP3   OH2 3058   3.718   2.679   2.981  0.2112  0.0369  0.6511
 1041TIP3    H1 3059   3.638   2.727   3.004 -0.5735 -0.9611  0.0667
 1041TIP3    H2 3060   3.695   2.633   2.900  1.8568  0.8731 -0.3062
 1042TIP3   OH2 3061   6.482   5.515   5.891 -0.3205  0.8080  0.4367
 1042TIP3    H1 3062   6.478   5.604   5.855 -1.4938  0.1350 -1.1569
 1042TIP3    H2 3063   6.394   5.500   5.927 -0.7196 -0.3839 -0.9989
 1043TIP3   OH2 3064   4.694   7.031   6.826 -0.0334 -0.4619 -0.0885
 1043TIP3    H1 3065   4.624   7.080   6.869 -0.0767  0.0432 -0.7266
 1043TIP3    H2 3066   4.712   7.080   6.746  0.4678 -1.0578 -0.3453
 1044TIP3   OH2 3067   5.994   6.845   6.781  0.2763 -0.0808 -0.0219
 1044TIP3    H1 3068   6.028   6.934   6.770  0.5875 -0.1496  0.3717
 1044TIP3    H2 3069   6.051   6.806   6.847 -1.0527  0.0784  1.2616
 1045TIP3   OH2 3070   3.839   4.048   5.298  0.2402  0.7152  0.3347
 1045TIP3    H1 3071   3.889   4.105   5.356  1.3201 -0.5431  0.6700
 1045TIP3    H2 3072   3.821   4.102   5.221 -0.4499  2.1159  1.4527
 1046TIP3   OH2 3073   3.657   0.850   0.582 -0.4850 -0.3169 -0.0118
 1046TIP3    H1 3074   3.691   0.779   0.527 -0.8115 -0.4285 -0.0728
 1046TIP3    H2 3075   3.562   0.844   0.572 -0.5773 -0.6929  1.0152
 1047TIP3   OH2 3076   2.549   4.528   0.618  0.1166  0.3774 -1.1111
 1047TIP3    H1 3077   2.573   4.562   0.704 -1.7239  0.2438 -0.5005
 1047TIP3    H2 3078   2.632   4.514   0.572  1.3900 -3.0113  1.9677
 1048TIP3   OH2 3079   1.127   0.770   0.317 -0.1566  0.3051  0.4727
 1048TIP3    H1 3080   1.098   0.817   0.396 -0.9885  0.2187  0.2226
 1048TIP3    H2 3081   1.184   0.832   0.272  0.6050  0.2253  1.3267
 1049TIP3   OH2 3082   4.287   3.875   1.420 -0.2999 -0.0864  0.1447
 1049TIP3    H1 3083   4.337   3.794   1.427 -1.4469 -0.7169  1.3025
 1049TIP3    H2 3084   4.195   3.847   1.419 -0.6822  1.1491 -0.2065
 1050TIP3   OH2 3085   0.521   1.171   6.065 -0.3911  0.5238 -0.7926
 1050TIP3    H1 3086   0.536   1.148   5.974  0.5760  0.3192 -0.5849
 1050TIP3    H2 3087   0.450   1.112   6.093 -1.2966  1.1981 -1.6504
 1051TIP3   OH2 3088   6.950   0.805   0.009 -0.3068  0.1777 -0.4561
 1051TIP3    H1 3089   6.865   0.844   0.029 -0.9313  0.0957 -2.8316
 1051TIP3    H2 3090   7.008   0.836   0.079 -1.8707  1.6355  0.2260
 1052TIP3   OH2 3091   5.293   2.547   2.273 -0.2555  0.3314  0.3602
 1052TIP3    H1 3092   5.326   2.627   2.232 -1.3414  1.1353  0.9991
 1052TIP3    H2 3093   5.305   2.562   2.367 -0.1607 -0.4015  0.4688
 1053TIP3   OH2 3094   5.705   2.513   2.200  0.3289  0.1104 -0.1733
 1053TIP3    H1 3095   5.707   2.419   2.216  1.9663  0.0726 -0.4962
 1053TIP3    H2 3096   5.728   2.522   2.108 -0.9191  0.7773 -0.4299
 1054TIP3   OH2 3097   3.506   3.050   1.177 -0.0929 -0.3751 -0.1956
 1054TIP3    H1 3098   3.458   3.097   1.109 -1.9048  1.2221  2.1236
 1054TIP3    H2 3099   3.571   3.113   1.209 -1.5831  0.1375  1.9400
 1055TIP3   OH2 3100   7.352   4.202   0.346 -0.1283  0.7931  0.6669
 1055TIP3    H1 3101   7.432   4.179   0.395 -1.2313  0.0078  2.1433
 1055TIP3    H2 3102   7.315   4.275   0.396 -2.0689 -0.9969  1.9252
 1056TIP3   OH2 3103   3.646   1.923   0.492  0.1445 -0.3670  0.1628
 1056TIP3    H1 3104   3.658   1.988   0.561 -1.2808  0.1109 -0.0159
 1056TIP3    H2 3105   3.602   1.970   0.422  1.0719 -0.9938 -0.8508
 1057TIP3   OH2 3106   5.524   4.128   1.369  0.5569  0.2787  0.1359
 1057TIP3    H1 3107   5.564   4.083   1.294 -0.3044  0.6663 -0.5607
 1057TIP3    H2 3108   5.432   4.104   1.365  0.1035  1.9795 -0.1671
 1058TIP3   OH2 3109   0.106   4.802   6.233 -0.3104  0.1686 -0.0969
 1058TIP3    H1 3110   0.032   4.835   6.284 -0.9394 -0.9739 -0.2419
 1058TIP3    H2 3111   0.154   4.745   6.294 -1.0798 -1.2211 -0.7515
 1059TIP3   OH2 3112   6.566   2.804   1.664  0.5660  0.3710  0.2184
 1059TIP3    H1 3113   6.580   2.789   1.571 -1.3515  3.8758 -0.7338
 1059TIP3    H2 3114   6.497   2.743   1.688 -0.2455  0.7372 -1.1257
 1060TIP3   OH2 3115   5.509   2.940   1.679  0.2667  0.5064 -0.4496
 1060TIP3    H1 3116   5.585   2.914   1.730  0.3122 -0.9940 -1.2677
 1060TIP3    H2 3117   5.475   3.017   1.724  1.1589  0.0635  0.9986
 1061TIP3   OH2 3118   6.172   1.963   1.459  0.4636 -0.1383 -0.3959
 1061TIP3    H1 3119   6.243   1.908   1.492  0.7595  0.1402 -0.5585
 1061TIP3    H2 3120   6.129   1.910   1.392 -1.2969 -1.4033  1.6989
 1062TIP3   OH2 3121   4.494   3.245   1.709 -0.4775  0.3216 -0.3609
 1062TIP3    H1 3122   4.577   3.216   1.672 -0.0562 -0.7424  1.3527
 1062TIP3    H2 3123   4.494   3.340   1.695  0.0026  0.0532 -2.3423
 1063TIP3   OH2 3124   5.782   1.538   0.876 -0.7837 -0.1482  0.6170
 1063TIP3    H1 3125   5.706   1.549   0.934 -0.8321  0.4822  0.4445
 1063TIP3    H2 3126   5.856   1.567   0.929 -0.6651 -0.7300  0.7736
 1064TIP3   OH2 3127   1.680   7.838   5.186 -0.4339 -0.6478  0.0020
 1064TIP3    H1 3128   1.685   7.850   5.280 -0.3003  1.1729 -0.2134
 1064TIP3    H2 3129   1.607   7.894   5.159 -0.4927 -1.1818 -0.9619
 1065TIP3   OH2 3130   4.733   2.491   1.592 -0.1765 -0.2916 -0.6013
 1065TIP3    H1 3131   4.790   2.512   1.518 -0.0860 -2.2243 -1.0866
 1065TIP3    H2 3132   4.693   2.575   1.615  2.3345  0.9637 -0.6806
 1066TIP3   OH2 3133   3.626   1.734   0.857 -0.2035  0.2088 -0.8502
 1066TIP3    H1 3134   3.722   1.736   0.854 -0.1635  1.0643  0.4611
 1066TIP3    H2 3135   3.606   1.705   0.946 -1.1580  2.0407 -0.4397
 1067TIP3   OH2 3136   5.616   2.391   1.836 -0.2563  0.3369 -0.0023
 1067TIP3    H1 3137   5.634   2.424   1.749  1.3184 -0.9219 -0.1868
 1067TIP3    H2 3138   5.698   2.404   1.884 -0.6256 -0.3631  0.8312
 1068TIP3   OH2 3139   2.485   6.471   1.377  0.4409  0.4900 -0.3350
 1068TIP3    H1 3140   2.467   6.436   1.464  0.9802  0.9463 -0.0336
 1068TIP3    H2 3141   2.418   6.432   1.321  0.5552 -0.4035  0.1399
 1069TIP3   OH2 3142   5.663   3.158   3.339 -0.5266  0.4395  0.1841
 1069TIP3    H1 3143   5.675   3.195   3.251  0.1686  0.4229  0.2731
 1069TIP3    H2 3144   5.713   3.077   3.338 -0.5459  0.4243  0.5836
 1070TIP3   OH2 3145   6.819   1.832   0.018  0.5127  0.2985  0.2937
 1070TIP3    H1 3146   6.862   1.827  -0.068  0.8674  0.1812  0.4737
 1070TIP3    H2 3147   6.876   1.781   0.076  0.4740  0.6811  0.6767
 1071TIP3   OH2 3148   6.538   4.830   0.886 -0.0463 -0.5512  0.2068
 1071TIP3    H1 3149   6.585   4.773   0.947 -0.1673  0.1741  0.9894
 1071TIP3    H2 3150   6.549   4.788   0.801  0.1393 -1.5689  0.7238
 1072TIP3   OH2 3151   5.932   3.318   2.289 -0.0106 -0.2886  0.0448
 1072TIP3    H1 3152   5.954   3.297   2.380  1.2075 -2.3442 -0.6995
 1072TIP3    H2 3153   5.839   3.295   2.281 -0.0602 -0.3200  0.6862
 1073TIP3   OH2 3154   4.070   2.284   3.456  0.4342 -0.0159 -0.2605
 1073TIP3    H1 3155   4.144   2.344   3.454  0.7716 -0.4259 -0.0133
 1073TIP3    H2 3156   4.049   2.275   3.549  0.2214 -0.0826 -0.3145
 1074TIP3   OH2 3157   7.667   2.211   0.193 -0.0258 -0.5494  1.2892
 1074TIP3    H1 3158   7.667   2.165   0.277 -0.6251 -2.3237  0.3321
 1074TIP3    H2 3159   7.583   2.256   0.191  0.9254  1.4226  2.6214
 1075TIP3   OH2 3160   6.234   3.661   0.552  0.3098  0.1304  0.6825
 1075TIP3    H1 3161   6.308   3.709   0.588 -0.3063  0.4178  1.5983
 1075TIP3    H2 3162   6.257   3.568   0.563  1.2770  0.2063 -0.6249
 1076TIP3   OH2 3163   3.949   1.072   6.167 -0.7496  0.0656  0.5311
 1076TIP3    H1 3164   4.029   1.031   6.134  0.0095  0.4414  1.8494
 1076TIP3    H2 3165   3.955   1.163   6.139 -0.7959  0.0502  0.4732
 1077TIP3   OH2 3166   5.592   1.331   1.137 -0.1795 -0.2143  0.0931
 1077TIP3    H1 3167   5.649   1.310   1.064  0.6716  1.8979  0.1276
 1077TIP3    H2 3168   5.651   1.345   1.211 -0.8152  0.6717  0.4446
 1078TIP3   OH2 3169   2.205   3.914   0.241 -0.2460 -0.6197  0.0581
 1078TIP3    H1 3170   2.135   3.850   0.235  0.2858 -1.0440 -2.0867
 1078TIP3    H2 3171   2.162   3.994   0.272 -2.0724 -0.3418 -3.0009
 1079TIP3   OH2 3172   3.617   1.806   2.519 -0.1171  0.1834  0.5028
 1079TIP3    H1 3173   3.564   1.747   2.573  1.8600 -2.6924 -0.5463
 1079TIP3    H2 3174   3.704   1.802   2.558  0.1257  2.2420  0.2293
 1080TIP3   OH2 3175   4.100   4.007   0.243  0.4293 -0.3887 -0.2442
 1080TIP3    H1 3176   4.054   4.000   0.326 -1.0185  3.0910 -0.6725
 1080TIP3    H2 3177   4.055   3.945   0.185 -0.0358 -1.1395  0.9087
 1081TIP3   OH2 3178   5.805   2.725   1.719  0.1865  0.1413 -0.6248
 1081TIP3    H1 3179   5.759   2.757   1.797 -3.9518 -0.8908 -2.5191
 1081TIP3    H2 3180   5.817   2.803   1.665  0.7689  0.4201 -0.1099
 1082TIP3   OH2 3181   5.756   6.169   2.538 -0.5963  0.0831 -0.1071
 1082TIP3    H1 3182   5.713   6.109   2.599 -1.0940 -2.0489 -2.4522
 1082TIP3    H2 3183   5.835   6.123   2.511  0.8290  2.0195  0.6950
 1083TIP3   OH2 3184   5.521   3.761   0.679 -0.1602 -0.1527 -0.1875
 1083TIP3    H1 3185   5.599   3.803   0.642 -1.2303  0.2682 -2.0064
 1083TIP3    H2 3186   5.491   3.701   0.611 -3.1566  1.9026 -0.7809
 1084TIP3   OH2 3187   5.963   1.012   2.432 -0.3051 -0.2321  0.1274
 1084TIP3    H1 3188   5.996   1.102   2.438 -0.5426 -0.0956 -0.5470
 1084TIP3    H2 3189   6.038   0.961   2.404 -0.3215 -0.1476 -0.0683
 1085TIP3   OH2 3190   3.841   4.163   2.141  0.4396  0.1178  0.2634
 1085TIP3    H1 3191   3.774   4.125   2.084 -1.1773  1.2894  1.3337
 1085TIP3    H2 3192   3.849   4.100   2.213 -1.1812  1.0400  1.2874
 1086TIP3   OH2 3193   5.425   4.990   1.146  0.5294 -0.7505 -0.9475
 1086TIP3    H1 3194   5.394   5.079   1.130  0.4415 -0.9383 -1.8406
 1086TIP3    H2 3195   5.345   4.940   1.163  0.5545 -0.7285 -0.7556
 1087TIP3   OH2 3196   5.736   5.524   0.838  0.5769 -0.1611  0.3427
 1087TIP3    H1 3197   5.796   5.450   0.848 -0.3598 -0.7568  1.6565
 1087TIP3    H2 3198   5.730   5.562   0.925 -3.2304 -1.8890  0.9227
 1088TIP3   OH2 3199   4.581   2.311   0.879  0.7001  0.2763  0.2692
 1088TIP3    H1 3200   4.489   2.334   0.892  0.5436 -0.0764 -0.2174
 1088TIP3    H2 3201   4.581   2.252   0.804  1.3277  0.2989  0.2483
 1089TIP3   OH2 3202   7.432   3.852   0.728  0.4364  0.0848 -0.0907
 1089TIP3    H1 3203   7.406   3.943   0.715  1.5948  0.3089 -0.8933
 1089TIP3    H2 3204   7.527   3.853   0.720  0.6425 -0.8816  1.8047
 1090TIP3   OH2 3205   4.424   3.081   2.726  0.2731 -0.0140  0.0394
 1090TIP3    H1 3206   4.489   3.055   2.790  0.6120 -1.2484 -0.7777
 1090TIP3    H2 3207   4.424   3.010   2.662 -0.4838  0.9003 -1.0009
 1091TIP3   OH2 3208   6.421   2.365   0.823 -0.2588 -0.4142 -0.0197
 1091TIP3    H1 3209   6.449   2.346   0.912  0.4883 -0.2232 -0.2097
 1091TIP3    H2 3210   6.482   2.432   0.792 -1.9292  1.2282  0.1211
 1092TIP3   OH2 3211   7.425   2.334   1.193 -0.4672 -0.4672 -0.0197
 1092TIP3    H1 3212   7.374   2.282   1.254  0.9480  0.2516  1.8383
 1092TIP3    H2 3213   7.418   2.424   1.225 -2.6102  0.4880 -2.9969
 1093TIP3   OH2 3214   5.737   2.964   1.289  0.3114 -0.1160 -0.3192
 1093TIP3    H1 3215   5.796   3.037   1.268  2.2460 -1.4020  0.4455
 1093TIP3    H2 3216   5.652   2.991   1.257  1.1168  2.2639 -0.5256
 1094TIP3   OH2 3217   4.870   1.605   0.976  0.1801 -0.4150  0.7842
 1094TIP3    H1 3218   4.958   1.591   0.941 -0.4057 -2.0304 -0.1015
 1094TIP3    H2 3219   4.872   1.695   1.010  1.3042  0.6152 -1.8485
 1095TIP3   OH2 3220   6.465   0.529   1.040 -0.5801  0.4484  0.0585
 1095TIP3    H1 3221   6.404   0.555   1.109 -2.1095 -1.3682 -0.5731
 1095TIP3    H2 3222   6.473   0.607   0.985 -0.3254  1.5111  1.5736
 1096TIP3   OH2 3223   4.844   2.155   0.476  0.4129 -0.5198  0.1513
 1096TIP3    H1 3224   4.851   2.082   0.538  1.3453 -0.7199 -0.1827
 1096TIP3    H2 3225   4.882   2.121   0.395  0.4446  0.1939 -0.1350
 1097TIP3   OH2 3226   4.799   2.486   0.887  0.4644 -0.3180  0.3940
 1097TIP3    H1 3227   4.877   2.450   0.930 -0.1426 -0.4120  1.4288
 1097TIP3    H2 3228   4.739   2.412   0.880  0.4900 -0.2649 -0.4844
 1098TIP3   OH2 3229   4.000   4.713   0.383 -0.2360  0.2471 -0.0907
 1098TIP3    H1 3230   3.972   4.626   0.411  1.7610 -0.5726 -0.5561
 1098TIP3    H2 3231   3.954   4.727   0.300  1.5071 -1.5390 -1.4072
 1099TIP3   OH2 3232   6.506   2.646   2.543  0.1889  0.2608 -0.2121
 1099TIP3    H1 3233   6.421   2.681   2.568  0.9414 -0.1501  3.1352
 1099TIP3    H2 3234   6.487   2.565   2.495 -1.3022  0.0449  0.7384
 1100TIP3   OH2 3235   6.895   5.908   5.575 -0.4509  0.3648 -0.8228
 1100TIP3    H1 3236   6.847   5.961   5.512  0.1028  0.8735 -0.8153
 1100TIP3    H2 3237   6.983   5.946   5.578 -0.4420  0.3034  0.1891
 1101TIP3   OH2 3238   2.912   5.422   2.022 -0.0905 -0.3216 -0.2108
 1101TIP3    H1 3239   2.933   5.515   2.025  3.4264 -1.0513  1.0462
 1101TIP3    H2 3240   2.911   5.401   1.929  0.4319  0.7158 -0.4604
 1102TIP3   OH2 3241   5.131   0.733   6.617 -0.1497  0.0122 -0.3214
 1102TIP3    H1 3242   5.210   0.719   6.670 -0.2698  0.7165  0.0453
 1102TIP3    H2 3243   5.062   0.750   6.680 -0.0053  2.2709 -0.7468
 1103TIP3   OH2 3244   3.604   3.088   2.407 -0.1798 -0.3839  0.1122
 1103TIP3    H1 3245   3.640   3.014   2.456  0.7443  0.0714  0.1429
 1103TIP3    H2 3246   3.589   3.053   2.319  2.1352 -0.1024 -0.4284
 1104TIP3   OH2 3247   6.464   1.637   0.901  0.1332  0.3305  0.0754
 1104TIP3    H1 3248   6.454   1.546   0.874  0.0707 -0.1591  1.6719
 1104TIP3    H2 3249   6.538   1.670   0.852 -0.5678 -0.2373 -1.3809
 1105TIP3   OH2 3250   3.368   7.953   0.159 -0.1658 -0.7444  0.5077
 1105TIP3    H1 3251   3.288   7.973   0.112 -1.0531  0.2017  2.3510
 1105TIP3    H2 3252   3.339   7.904   0.236  1.2012 -1.9194  0.3077
 1106TIP3   OH2 3253   1.807   1.058   6.897 -0.1211 -0.3159  0.1275
 1106TIP3    H1 3254   1.847   1.008   6.826  1.3071  1.0602 -0.0869
 1106TIP3    H2 3255   1.849   1.025   6.977 -0.7952 -0.9750  0.2165
 1107TIP3   OH2 3256   7.207   1.870   1.093  0.0869 -0.3019 -0.0090
 1107TIP3    H1 3257   7.219   1.791   1.040  2.5248 -0.4960  0.7732
 1107TIP3    H2 3258   7.295   1.905   1.104 -0.7783  1.6151  1.0820
 1108TIP3   OH2 3259   4.301   4.033   1.666 -0.7200 -0.3374  0.2815
 1108TIP3    H1 3260   4.241   4.034   1.741 -2.8229 -0.5499 -1.3633
 1108TIP3    H2 3261   4.281   3.951   1.621 -0.2505  0.3180 -1.1451
 1109TIP3   OH2 3262   8.098   5.265   5.469 -0.0707 -0.4399 -0.1581
 1109TIP3    H1 3263   8.177   5.309   5.500  0.6369 -2.1365  0.5120
 1109TIP3    H2 3264   8.041   5.261   5.546 -0.3138 -0.2738 -0.3306
 1110TIP3   OH2 3265   6.331   3.033   0.398 -0.5234  0.0404  0.2120
 1110TIP3    H1 3266   6.248   3.017   0.444 -0.2246 -1.5902  0.2136
 1110TIP3    H2 3267   6.325   3.124   0.370 -1.8777  0.2526  1.1131
 1111TIP3   OH2 3268   4.570   1.611   0.896 -0.2253  0.4285  0.2329
 1111TIP3    H1 3269   4.657   1.603   0.935  0.1246 -0.1995 -0.6396
 1111TIP3    H2 3270   4.577   1.561   0.814 -1.1492  1.0916 -0.2525
 1112TIP3   OH2 3271   6.362   3.889   0.389  0.0209 -0.4246  0.1186
 1112TIP3    H1 3272   6.397   3.974   0.416  0.3358 -0.7460  0.7234
 1112TIP3    H2 3273   6.267   3.901   0.389  0.1009  0.1961 -0.6841
 1113TIP3   OH2 3274   3.229   4.298   0.964 -0.6598  0.4195  0.0866
 1113TIP3    H1 3275   3.196   4.356   1.032  0.6250  0.6633  0.5156
 1113TIP3    H2 3276   3.276   4.230   1.011 -1.8138 -0.7486 -0.4401
 1114TIP3   OH2 3277   4.742   2.839   3.128 -0.0874 -0.3119 -0.5132
 1114TIP3    H1 3278   4.834   2.821   3.143  0.2937 -0.2634 -2.6342
 1114TIP3    H2 3279   4.718   2.903   3.195  0.7922 -2.0617  1.5156
 1115TIP3   OH2 3280   4.925   3.968   2.217  0.0816 -0.0367  0.1928
 1115TIP3    H1 3281   4.871   3.893   2.190  0.6914  0.0930 -1.4519
 1115TIP3    H2 3282   4.888   3.995   2.301 -3.2264  0.8453 -1.4791
 1116TIP3   OH2 3283   5.670   4.155   1.121 -0.0291 -0.3745  0.1379
 1116TIP3    H1 3284   5.669   4.079   1.063 -0.6440 -0.2197 -0.0576
 1116TIP3    H2 3285   5.763   4.170   1.139  0.0005 -2.7584  2.2410
 1117TIP3   OH2 3286   3.959   6.154   0.038 -0.0363  0.6218 -0.4912
 1117TIP3    H1 3287   3.894   6.144  -0.031 -0.7187 -2.6408  0.5528
 1117TIP3    H2 3288   3.914   6.128   0.118  2.1550 -0.4631  0.4310
 1118TIP3   OH2 3289   6.224   2.654   1.081 -0.9746 -0.1690 -0.1266
 1118TIP3    H1 3290   6.176   2.664   1.163  2.8342 -1.3478  2.3604
 1118TIP3    H2 3291   6.218   2.561   1.060 -0.6148 -0.1548 -0.3051
 1119TIP3   OH2 3292   5.149   4.611   0.519  0.4336 -0.0528  0.3388
 1119TIP3    H1 3293   5.244   4.613   0.509  0.2428  0.2556 -1.5281
 1119TIP3    H2 3294   5.124   4.702   0.537  0.2174  0.3482 -1.9352
 1120TIP3   OH2 3295   4.079   2.653   1.312 -0.3093  0.3807 -0.1441
 1120TIP3    H1 3296   4.159   2.610   1.339  0.1468  1.0264 -0.4338
 1120TIP3    H2 3297   4.011   2.586   1.319 -0.1882  0.4721  2.3707
 1121TIP3   OH2 3298   4.320   3.294   3.536  0.0939 -0.3480  0.2086
 1121TIP3    H1 3299   4.323   3.389   3.532  0.3496 -0.2137  2.7639
 1121TIP3    H2 3300   4.401   3.266   3.493 -0.4155  0.5099 -1.3781
 1122TIP3   OH2 3301   6.126   5.468   6.705  0.0736  0.0529 -0.6607
 1122TIP3    H1 3302   6.053   5.408   6.690 -1.7668  2.1125 -0.1918
 1122TIP3    H2 3303   6.198   5.412   6.735 -1.4595 -1.9394 -0.6371
 1123TIP3   OH2 3304   5.771   3.991   3.011  0.1428  0.2303  0.0628
 1123TIP3    H1 3305   5.867   3.994   3.010  0.1719  0.0390  1.2119
 1123TIP3    H2 3306   5.745   4.030   2.928  1.2616 -2.2510 -1.4832
 1124TIP3   OH2 3307   5.854   4.181   1.723 -0.4682 -0.7279  0.6277
 1124TIP3    H1 3308   5.927   4.175   1.661 -1.3999 -2.2563 -0.3606
 1124TIP3    H2 3309   5.821   4.091   1.729 -1.9354 -0.1441  1.4618
 1125TIP3   OH2 3310   4.219   3.153   1.526  0.3502 -0.1414 -0.1625
 1125TIP3    H1 3311   4.285   3.096   1.563  0.4474 -0.5090 -0.9033
 1125TIP3    H2 3312   4.163   3.176   1.600  1.5869  0.5766  0.5631
 1126TIP3   OH2 3313   3.522   3.031   0.487 -0.3160  0.1614 -0.1381
 1126TIP3    H1 3314   3.542   3.040   0.393 -0.5011 -0.7070 -0.2665
 1126TIP3    H2 3315   3.446   2.973   0.490 -0.1650 -0.0059  0.5576
 1127TIP3   OH2 3316   2.974   4.710   1.299 -0.6606 -0.2774  0.4545
 1127TIP3    H1 3317   2.892   4.736   1.341 -0.0659  0.8249  0.9539
 1127TIP3    H2 3318   2.977   4.763   1.219 -1.2871 -1.6198 -0.4898
 1128TIP3   OH2 3319   2.658   0.626   0.035  0.0052  0.2247  0.8564
 1128TIP3    H1 3320   2.748   0.638   0.064  0.9966 -2.4448 -0.9760
 1128TIP3    H2 3321   2.613   0.587   0.110  0.5366  0.8098  1.4911
 1129TIP3   OH2 3322   4.270   1.094   0.719  0.2951  0.7311 -0.3915
 1129TIP3    H1 3323   4.358   1.069   0.693 -0.1497 -0.2538 -0.9754
 1129TIP3    H2 3324   4.218   1.088   0.639 -0.3759  0.9651  0.0173
 1130TIP3   OH2 3325   5.842   2.906   1.532 -0.6488 -0.7347 -0.6209
 1130TIP3    H1 3326   5.913   2.865   1.483 -0.9796 -1.1885 -0.7343
 1130TIP3    H2 3327   5.773   2.918   1.467 -0.0316  1.3413 -0.9075
 1131TIP3   OH2 3328   4.748   4.926   0.191 -0.2157  0.6147 -0.1126
 1131TIP3    H1 3329   4.689   4.992   0.225 -3.5772 -2.2385 -0.1936
 1131TIP3    H2 3330   4.765   4.868   0.265  3.5986  2.0673  0.2619
 1132TIP3   OH2 3331   0.250   4.281   6.866 -0.4447  0.3558  0.1642
 1132TIP3    H1 3332   0.161   4.269   6.832 -0.3947 -0.6450  0.3695
 1132TIP3    H2 3333   0.275   4.194   6.896  0.5693  0.6632  0.2003
 1133TIP3   OH2 3334   5.089   2.891   1.598 -0.2223  0.3785 -0.3823
 1133TIP3    H1 3335   5.062   2.800   1.589 -0.2964  0.3789 -0.1769
 1133TIP3    H2 3336   5.084   2.927   1.510  0.7213 -0.0673 -0.6181
 1134TIP3   OH2 3337   6.543   3.062   1.200  0.1673 -0.4798  0.1336
 1134TIP3    H1 3338   6.580   3.073   1.288  0.6142 -1.5019  0.0921
 1134TIP3    H2 3339   6.611   3.095   1.142  0.5220 -1.2495  0.1084
 1135TIP3   OH2 3340   6.805   0.593   1.650 -0.7729 -0.5386  0.6126
 1135TIP3    H1 3341   6.879   0.632   1.603 -1.7919  0.9967  0.2283
 1135TIP3    H2 3342   6.843   0.523   1.702  0.9670  0.2601  0.4395
 1136TIP3   OH2 3343   5.397   1.777   1.019 -0.2031 -0.0479 -0.1131
 1136TIP3    H1 3344   5.374   1.812   1.105  1.8113  0.2501  0.3171
 1136TIP3    H2 3345   5.484   1.812   1.001 -0.2271 -0.8434 -1.8783
 1137TIP3   OH2 3346   2.270   5.120   1.991  0.5994 -0.2341  0.2360
 1137TIP3    H1 3347   2.253   5.182   1.919 -0.3322 -0.5954  0.1462
 1137TIP3    H2 3348   2.348   5.072   1.963 -0.9255 -1.7824 -1.4898
 1138TIP3   OH2 3349   4.852   3.269   2.619  0.0074  0.2947  0.7622
 1138TIP3    H1 3350   4.875   3.358   2.591 -2.2560  0.6842  0.0761
 1138TIP3    H2 3351   4.815   3.280   2.707 -1.5484  0.2061  0.1268
 1139TIP3   OH2 3352   5.267   2.992   1.278  0.1867  0.2398  0.5151
 1139TIP3    H1 3353   5.216   2.911   1.291 -0.9345  1.1145  1.6888
 1139TIP3    H2 3354   5.306   2.982   1.191  1.7245 -2.4577  1.4652
 1140TIP3   OH2 3355   2.832   3.809   2.315  0.0432 -0.1993  0.1978
 1140TIP3    H1 3356   2.808   3.776   2.402  0.0748  0.6919  0.5492
 1140TIP3    H2 3357   2.859   3.899   2.331  0.9054 -0.3092 -0.6154
 1141TIP3   OH2 3358   6.129   4.063   2.616 -0.3025 -0.5308 -0.0177
 1141TIP3    H1 3359   6.112   4.060   2.710 -1.5308  0.3728 -0.1983
 1141TIP3    H2 3360   6.180   4.142   2.603  0.1402 -0.8243 -0.0704
 1142TIP3   OH2 3361   4.970   4.200   0.954 -0.0936 -0.3389 -0.1697
 1142TIP3    H1 3362   4.957   4.106   0.939  1.4513 -0.3112 -1.7591
 1142TIP3    H2 3363   4.900   4.223   1.015  0.1802 -2.7430  1.1271
 1143TIP3   OH2 3364   4.769   4.760   3.375  0.7951  0.1335 -0.5737
 1143TIP3    H1 3365   4.763   4.742   3.469  1.1317 -3.4457 -1.1628
 1143TIP3    H2 3366   4.836   4.829   3.368  0.1229  1.0773  1.8537
 1144TIP3   OH2 3367   6.576   1.338   1.373 -1.0567  0.8000 -0.1108
 1144TIP3    H1 3368   6.589   1.413   1.315  1.0645  0.0743 -0.6360
 1144TIP3    H2 3369   6.535   1.271   1.317 -0.9218  0.8175 -0.2319
 1145TIP3   OH2 3370   5.384   4.276   3.027 -0.0437 -0.3947 -0.1617
 1145TIP3    H1 3371   5.341   4.360   3.008  0.1950 -0.2240  0.0525
 1145TIP3    H2 3372   5.477   4.297   3.031 -0.1526 -0.2706  1.9890
 1146TIP3   OH2 3373   6.900   2.040   1.718  0.8368 -0.2177  0.1299
 1146TIP3    H1 3374   6.989   2.073   1.713  1.1649 -0.8547  1.6105
 1146TIP3    H2 3375   6.847   2.116   1.742  1.4084 -0.4496  2.2302
 1147TIP3   OH2 3376   5.320   2.792   2.179  0.4368 -0.5798 -0.5026
 1147TIP3    H1 3377   5.308   2.834   2.094  1.1706 -2.1079 -1.3876
 1147TIP3    H2 3378   5.246   2.822   2.231  0.8510  1.6562 -1.1467
 1148TIP3   OH2 3379   6.378   1.626   0.424 -0.2525  0.0040  0.4771
 1148TIP3    H1 3380   6.311   1.661   0.482  0.2123  0.9616  0.4558
 1148TIP3    H2 3381   6.332   1.609   0.342 -0.2938  1.5358  0.1647
 1149TIP3   OH2 3382   5.897   3.278   1.366 -0.6569  0.0628 -0.3989
 1149TIP3    H1 3383   5.867   3.245   1.451  0.9297 -1.0293 -0.2484
 1149TIP3    H2 3384   5.959   3.212   1.335 -1.0424  0.5727 -2.3078
 1150TIP3   OH2 3385   4.194   0.749   6.200 -0.0948 -0.5425  0.0332
 1150TIP3    H1 3386   4.167   0.840   6.210 -2.2363 -1.0035 -1.2266
 1150TIP3    H2 3387   4.263   0.752   6.133 -1.6365 -0.0605 -1.5774
 1151TIP3   OH2 3388   3.771   2.304   0.381  0.2872 -0.1809  0.7383
 1151TIP3    H1 3389   3.710   2.251   0.433 -0.0197 -1.2276 -0.6625
 1151TIP3    H2 3390   3.857   2.283   0.416  0.1642 -1.5906  0.2319
 1152TIP3   OH2 3391   6.225   3.014   1.348  0.0022 -0.1141 -0.1690
 1152TIP3    H1 3392   6.293   2.997   1.414  1.7549  1.2967 -1.5348
 1152TIP3    H2 3393   6.273   3.017   1.265 -1.7119  1.1262 -1.1438
 1153TIP3   OH2 3394   4.011   5.269   1.641  0.0151 -0.1833 -0.0860
 1153TIP3    H1 3395   4.064   5.291   1.564 -2.6115  2.1090 -1.3048
 1153TIP3    H2 3396   3.996   5.353   1.684 -0.8848 -1.0915  1.3875
 1154TIP3   OH2 3397   4.590   3.537   0.976  0.3845 -0.3621  0.0913
 1154TIP3    H1 3398   4.585   3.632   0.986 -0.4995 -0.3732 -0.2224
 1154TIP3    H2 3399   4.666   3.511   1.029  0.7488  0.5368  0.0207
 1155TIP3   OH2 3400   7.816   5.027   0.584 -0.3463  0.0310 -0.1980
 1155TIP3    H1 3401   7.851   5.023   0.495  1.3823  1.5577  0.3728
 1155TIP3    H2 3402   7.753   5.099   0.582  0.1454  0.4716 -0.0564
 1156TIP3   OH2 3403   3.599   2.604   2.095  0.5394 -0.3384 -0.1174
 1156TIP3    H1 3404   3.507   2.582   2.078  0.0705  0.6248  1.0828
 1156TIP3    H2 3405   3.624   2.661   2.023  0.1216 -0.4049 -0.3137
 1157TIP3   OH2 3406   5.241   5.084   2.136 -0.8328 -0.1092  0.4338
 1157TIP3    H1 3407   5.155   5.079   2.177 -1.3088 -0.6644 -0.6221
 1157TIP3    H2 3408   5.232   5.153   2.070 -0.8308 -1.0004 -0.5123
 1158TIP3   OH2 3409   4.148   2.423   0.349  0.2003  0.1552  0.6340
 1158TIP3    H1 3410   4.139   2.484   0.275  1.1483 -0.9676 -0.4272
 1158TIP3    H2 3411   4.094   2.461   0.418 -3.4020 -0.4700 -1.6962
 1159TIP3   OH2 3412   5.968   3.074   1.935  0.1331 -0.0790  0.3698
 1159TIP3    H1 3413   5.993   3.072   1.843 -0.9581  0.1755  0.0548
 1159TIP3    H2 3414   6.037   3.123   1.979 -0.1881  1.2432 -0.5911
 1160TIP3   OH2 3415   4.239   2.523   2.045  0.3281 -0.6599  0.3968
 1160TIP3    H1 3416   4.156   2.500   2.004  2.1023 -1.0383 -3.1749
 1160TIP3    H2 3417   4.297   2.449   2.026  2.3529  0.9381  0.1135
 1161TIP3   OH2 3418   1.931   0.746   6.902  0.3126  0.3735  0.2623
 1161TIP3    H1 3419   1.972   0.729   6.817  1.6327 -2.0176  1.3326
 1161TIP3    H2 3420   2.003   0.778   6.956  0.2855 -1.6434  1.5141
 1162TIP3   OH2 3421   7.854   4.719   0.022 -0.2446  0.1591  0.4211
 1162TIP3    H1 3422   7.899   4.800   0.047 -0.3123 -0.3814  2.3509
 1162TIP3    H2 3423   7.776   4.749  -0.026 -0.2987  1.2387  1.1712
 1163TIP3   OH2 3424   3.292   1.498   4.744 -0.9791  0.1469  0.8164
 1163TIP3    H1 3425   3.207   1.538   4.762 -1.1085 -0.0529  0.6536
 1163TIP3    H2 3426   3.354   1.549   4.796 -1.4951 -1.1156  2.7304
 1164TIP3   OH2 3427   3.790   2.778   0.515  0.4525 -0.2762  0.4948
 1164TIP3    H1 3428   3.827   2.861   0.545 -0.2918  0.6462 -1.0489
 1164TIP3    H2 3429   3.706   2.772   0.561  1.7150 -1.5343  2.6938
 1165TIP3   OH2 3430   5.403   3.904   0.936  0.0649  0.3856 -0.1761
 1165TIP3    H1 3431   5.396   3.838   0.868  1.4465  0.0785 -0.0415
 1165TIP3    H2 3432   5.496   3.906   0.958 -0.1205  1.6168  0.5696
 1166TIP3   OH2 3433   3.880   1.629   5.412  0.4733 -0.3149 -0.2070
 1166TIP3    H1 3434   3.814   1.583   5.359  0.4842  1.9881 -2.2880
 1166TIP3    H2 3435   3.962   1.616   5.365  1.3887 -2.2592  1.8159
 1167TIP3   OH2 3436   4.246   0.147   6.765  0.2822 -0.0754 -0.5880
 1167TIP3    H1 3437   4.204   0.184   6.687 -1.3948  1.3517  0.9351
 1167TIP3    H2 3438   4.323   0.201   6.779 -0.2644  0.6544 -0.3723
 1168TIP3   OH2 3439   6.832   3.259   1.520 -0.2442 -0.0339  0.0433
 1168TIP3    H1 3440   6.808   3.169   1.540 -2.9270 -0.0902 -3.0357
 1168TIP3    H2 3441   6.903   3.252   1.456 -2.2259 -0.0672 -2.2249
 1169TIP3   OH2 3442   5.721   2.013   1.915  0.4421  0.0948  0.1137
 1169TIP3    H1 3443   5.814   2.007   1.936  0.7538 -0.7580 -1.4794
 1169TIP3    H2 3444   5.697   2.103   1.939  1.5779  0.1929  0.9086
 1170TIP3   OH2 3445   7.160   3.914   0.688  0.2621  0.1955  0.5000
 1170TIP3    H1 3446   7.239   3.862   0.676  1.5806  2.4968 -1.1350
 1170TIP3    H2 3447   7.147   3.917   0.783  0.6663 -2.3066  0.6658
 1171TIP3   OH2 3448   4.207   2.790   0.448 -0.3775  0.0110 -0.7010
 1171TIP3    H1 3449   4.198   2.748   0.362 -0.8192 -1.2306 -0.0504
 1171TIP3    H2 3450   4.242   2.723   0.505 -2.3809  0.0872  0.6793
 1172TIP3   OH2 3451   3.526   2.004   0.761 -0.1237  0.4039  0.3497
 1172TIP3    H1 3452   3.449   1.962   0.723 -1.0825  1.8453  0.6420
 1172TIP3    H2 3453   3.564   1.938   0.818 -0.3470 -0.7930 -0.8730
 1173TIP3   OH2 3454   7.282   2.526   0.954  0.0655  0.2654 -0.0548
 1173TIP3    H1 3455   7.201   2.543   0.907  0.8757  1.4992 -1.0533
 1173TIP3    H2 3456   7.300   2.433   0.938 -0.5603  0.2574 -0.7653
 1174TIP3   OH2 3457   6.704   1.810   2.842 -0.2574  0.2134 -0.2585
 1174TIP3    H1 3458   6.755   1.828   2.762  0.0219 -0.6267 -0.2710
 1174TIP3    H2 3459   6.614   1.805   2.811 -0.1702  0.0734 -0.4992
 1175TIP3   OH2 3460   5.884   3.619   1.263 -0.2462 -0.5096 -0.3702
 1175TIP3    H1 3461   5.924   3.655   1.183 -0.8321 -0.2820 -0.5663
 1175TIP3    H2 3462   5.853   3.532   1.237  0.2157 -0.7364 -0.1842
 1176TIP3   OH2 3463   4.630   5.015   3.782 -0.0372  0.3896  0.0085
 1176TIP3    H1 3464   4.569   4.942   3.790 -1.7957  1.6844 -1.0446
 1176TIP3    H2 3465   4.587   5.087   3.828  1.4350  0.8936  0.6050
 1177TIP3   OH2 3466   3.215   4.261   1.291  0.1406  0.5323  0.2310
 1177TIP3    H1 3467   3.135   4.313   1.296  1.1461  2.0935  0.2191
 1177TIP3    H2 3468   3.272   4.298   1.358  0.5838 -1.0797  0.7738
 1178TIP3   OH2 3469   3.413   5.307   1.382 -0.3848 -0.1593 -0.1383
 1178TIP3    H1 3470   3.416   5.394   1.343  2.4703  0.5245  1.5233
 1178TIP3    H2 3471   3.475   5.255   1.330 -1.5819 -1.0649 -0.7041
 1179TIP3   OH2 3472   6.621   4.958   0.618  0.3148 -0.1366  0.3840
 1179TIP3    H1 3473   6.712   4.968   0.648  0.5281  0.9845 -0.5763
 1179TIP3    H2 3474   6.571   5.016   0.675  0.2527 -0.5253  0.7207
 1180TIP3   OH2 3475   5.385   0.678   6.764 -0.4726 -0.5880  0.1409
 1180TIP3    H1 3476   5.349   0.644   6.846  0.2763  0.4371  0.9149
 1180TIP3    H2 3477   5.424   0.762   6.789  0.1739 -0.4881 -1.1841
 1181TIP3   OH2 3478   4.476   4.959   1.486 -0.4625 -0.0348 -0.0683
 1181TIP3    H1 3479   4.498   5.052   1.483  1.9662 -0.5779 -0.5699
 1181TIP3    H2 3480   4.560   4.914   1.472 -1.3472 -2.3057  1.5070
 1182TIP3   OH2 3481   3.964   5.243   0.674 -0.3452 -0.1311  0.3512
 1182TIP3    H1 3482   3.959   5.148   0.673  0.3244 -0.2272 -3.3263
 1182TIP3    H2 3483   4.037   5.264   0.732  1.0340 -1.9909 -0.6832
 1183TIP3   OH2 3484   0.325   0.446   6.631 -0.3438  0.5018 -0.2750
 1183TIP3    H1 3485   0.243   0.492   6.649 -0.5180  0.3621 -0.6980
 1183TIP3    H2 3486   0.393   0.500   6.672 -0.5879  0.9305 -0.4278
 1184TIP3   OH2 3487   1.387   1.296   6.525  0.9186 -0.0429  0.0488
 1184TIP3    H1 3488   1.337   1.317   6.604  1.2225  0.0204  0.2255
 1184TIP3    H2 3489   1.320   1.279   6.458  0.6667  0.2849  0.2175
 1185TIP3   OH2 3490   0.480   0.461   5.952  0.5191 -0.4410 -0.1121
 1185TIP3    H1 3491   0.493   0.555   5.937  0.2325 -0.3677  0.0977
 1185TIP3    H2 3492   0.564   0.430   5.985  0.7027 -0.3144 -0.4640
 1186TIP3   OH2 3493   0.323   2.151   6.903  0.4206 -0.5447  0.2462
 1186TIP3    H1 3494   0.267   2.103   6.841  0.4246 -1.1801  0.7333
 1186TIP3    H2 3495   0.293   2.122   6.989  1.5191 -0.9184  0.5075
 1187TIP3   OH2 3496   4.096   1.896   2.319 -0.0410 -0.4092 -0.3279
 1187TIP3    H1 3497   4.159   1.961   2.289  0.3490 -0.1887  0.9383
 1187TIP3    H2 3498   4.121   1.877   2.409 -0.6140 -1.7595 -0.4327
 1188TIP3   OH2 3499   5.394   3.635   2.214  0.5681 -0.3908 -0.1683
 1188TIP3    H1 3500   5.459   3.669   2.275  1.5384 -2.7953  0.1952
 1188TIP3    H2 3501   5.309   3.658   2.253  1.1840 -0.0034  0.9548
 1189TIP3   OH2 3502   5.367   3.455   1.758 -0.6820  0.4367  0.5650
 1189TIP3    H1 3503   5.402   3.437   1.671  0.9235  0.7158  1.1405
 1189TIP3    H2 3504   5.341   3.547   1.756  0.0136  0.6328  0.6058
 1190TIP3   OH2 3505   5.233   2.512   1.566  0.0896 -0.0072  0.2366
 1190TIP3    H1 3506   5.296   2.568   1.612 -0.7477 -0.5399  2.0985
 1190TIP3    H2 3507   5.287   2.456   1.510  1.1425  0.6632  0.5596
 1191TIP3   OH2 3508   6.260   1.515   0.194  0.3935 -0.1618  0.1016
 1191TIP3    H1 3509   6.248   1.514   0.099  2.2700 -1.3419 -0.1425
 1191TIP3    H2 3510   6.207   1.442   0.226  1.3762 -1.0450 -0.2622
 1192TIP3   OH2 3511   5.877   1.727   1.625  0.1050 -0.4018  0.3348
 1192TIP3    H1 3512   5.851   1.722   1.533 -0.9536  1.9059  0.4715
 1192TIP3    H2 3513   5.971   1.713   1.625 -0.3218 -3.6785 -0.7426
 1193TIP3   OH2 3514   7.010   2.687   0.192 -0.5488 -0.2720 -0.3981
 1193TIP3    H1 3515   6.980   2.719   0.277  1.9112 -0.2625  0.4823
 1193TIP3    H2 3516   6.938   2.709   0.132 -1.3397  1.7880  1.2456
 1194TIP3   OH2 3517   5.580   1.226   0.711  0.0562  0.1376 -0.1482
 1194TIP3    H1 3518   5.517   1.157   0.690  2.8392 -2.2898 -0.8671
 1194TIP3    H2 3519   5.601   1.212   0.803  1.2655 -0.5330 -0.5204
 1195TIP3   OH2 3520   1.344   8.006   6.326  0.6183  0.7696  0.6165
 1195TIP3    H1 3521   1.325   7.971   6.413  0.8771  0.4611  0.5481
 1195TIP3    H2 3522   1.337   7.931   6.268 -0.9119  1.2267  0.1759
 1196TIP3   OH2 3523   1.388   6.413   6.676  0.4020  0.4011  0.0816
 1196TIP3    H1 3524   1.299   6.445   6.659 -0.2165 -0.7874  1.0124
 1196TIP3    H2 3525   1.400   6.343   6.612  0.2929 -0.0928  0.5957
 1197TIP3   OH2 3526   5.953   2.107   2.965 -0.2747 -0.0298  0.1825
 1197TIP3    H1 3527   5.893   2.033   2.977  0.4934 -0.2780  2.9748
 1197TIP3    H2 3528   5.896   2.181   2.944 -1.4853 -0.4668  1.8000
 1198TIP3   OH2 3529   6.093   4.301   0.960 -0.3249  0.4509 -0.5245
 1198TIP3    H1 3530   6.084   4.274   0.868  2.4613  0.3447 -0.8062
 1198TIP3    H2 3531   6.089   4.396   0.958  1.3280  0.5217 -0.9753
 1199TIP3   OH2 3532   3.824   2.962   1.256  0.3604 -0.7443 -0.2642
 1199TIP3    H1 3533   3.838   2.943   1.349  2.3368 -1.3258 -0.6508
 1199TIP3    H2 3534   3.899   3.016   1.231 -0.3354 -0.3067 -1.4464
 1200TIP3   OH2 3535   3.536   0.889   6.250  1.0889  0.0187 -0.1133
 1200TIP3    H1 3536   3.531   0.943   6.171  0.9443  0.1215 -0.0354
 1200TIP3    H2 3537   3.594   0.817   6.227  0.0264 -0.6625 -0.7333
 1201TIP3   OH2 3538   5.362   2.285   1.743 -0.1056 -0.1345  0.4041
 1201TIP3    H1 3539   5.324   2.364   1.782  1.2873  0.6994  0.1110
 1201TIP3    H2 3540   5.455   2.306   1.733  0.3073 -1.8927  0.4890
 1202TIP3   OH2 3541   4.772   3.509   0.720  0.2092  0.3773  0.1896
 1202TIP3    H1 3542   4.684   3.472   0.721 -0.0474  0.9235  2.8314
 1202TIP3    H2 3543   4.822   3.454   0.781  1.2566  1.0704 -0.0252
 1203TIP3   OH2 3544   5.094   1.000   6.913  0.0290  0.1863  0.0675
 1203TIP3    H1 3545   5.135   1.087   6.912  1.3989 -0.4524 -0.4190
 1203TIP3    H2 3546   5.034   1.001   6.839 -0.4261  0.9255  0.4329
 1204TIP3   OH2 3547   4.299  -0.021   5.509 -0.3351 -0.4437 -0.0059
 1204TIP3    H1 3548   4.306   0.049   5.574 -0.8134 -1.9587  1.7073
 1204TIP3    H2 3549   4.292   0.025   5.425 -1.9475  1.5773  1.1962
 1205TIP3   OH2 3550   0.179   5.086   6.112  0.0730 -0.1963  0.1293
 1205TIP3    H1 3551   0.269   5.063   6.139  0.3913 -0.5896 -1.2213
 1205TIP3    H2 3552   0.124   5.025   6.161  0.5168  0.2948  1.2522
 1206TIP3   OH2 3553   6.040   3.198   0.364  0.0282 -0.4566 -0.2454
 1206TIP3    H1 3554   6.110   3.261   0.345 -1.3105  0.4408 -2.4047
 1206TIP3    H2 3555   6.034   3.145   0.285  0.8144 -3.0359  1.3776
 1207TIP3   OH2 3556   4.670   0.716   6.145  0.1151  0.1704  0.2477
 1207TIP3    H1 3557   4.601   0.668   6.099  0.4153 -0.2558  0.2443
 1207TIP3    H2 3558   4.637   0.726   6.234 -0.6967  1.4465 -0.1795
 1208TIP3   OH2 3559   7.214   5.817   0.617  0.0407  0.5281 -0.0033
 1208TIP3    H1 3560   7.240   5.829   0.525 -1.2535  0.4529 -0.3866
 1208TIP3    H2 3561   7.255   5.891   0.662  1.3961  0.0968 -0.4843
 1209TIP3   OH2 3562   1.882   1.260   6.416 -0.3797 -0.1424  0.1399
 1209TIP3    H1 3563   1.844   1.264   6.504 -3.0766 -0.2387 -0.9824
 1209TIP3    H2 3564   1.839   1.331   6.368  1.0670 -0.0917 -1.1163
 1210TIP3   OH2 3565   7.317   4.375   0.608 -0.4242  0.2935  0.0844
 1210TIP3    H1 3566   7.245   4.327   0.567 -0.7571  0.7133  0.1777
 1210TIP3    H2 3567   7.319   4.459   0.562 -1.4723  1.1824  1.6131
 1211TIP3   OH2 3568   4.396   6.105   1.212  0.6554 -0.1502  0.0653
 1211TIP3    H1 3569   4.390   6.175   1.278 -1.5320  0.8805 -1.1886
 1211TIP3    H2 3570   4.328   6.043   1.236  0.9588 -0.6130 -0.2633
 1212TIP3   OH2 3571   5.879   4.393   0.453 -0.0708 -0.0188  0.0315
 1212TIP3    H1 3572   5.910   4.443   0.378  0.1188  0.9023  0.7050
 1212TIP3    H2 3573   5.792   4.429   0.471 -0.6994 -1.1906 -0.5997
 1213TIP3   OH2 3574   5.497   5.254   0.278 -0.0762 -0.0893 -0.1737
 1213TIP3    H1 3575   5.556   5.186   0.311 -0.0516  0.5264  1.1023
 1213TIP3    H2 3576   5.483   5.311   0.353 -1.0691  0.6371 -0.9005
 1214TIP3   OH2 3577   3.118   0.730   6.821  0.0020  0.1188  0.3531
 1214TIP3    H1 3578   3.062   0.656   6.842  0.0697  0.1349  0.5954
 1214TIP3    H2 3579   3.169   0.701   6.745  1.5646 -0.8871  1.7484
 1215TIP3   OH2 3580   0.620   4.720   0.542  0.0300 -0.4769  0.4055
 1215TIP3    H1 3581   0.548   4.678   0.496 -2.3391  2.6049  1.1394
 1215TIP3    H2 3582   0.585   4.743   0.628  1.4103  2.2682  0.3094
 1216TIP3   OH2 3583   3.244   1.234   6.512  0.1099 -0.2928 -0.1815
 1216TIP3    H1 3584   3.250   1.140   6.493 -2.2148 -0.0867 -2.1749
 1216TIP3    H2 3585   3.170   1.242   6.572  0.7106  0.2050  0.4953
 1217TIP3   OH2 3586   6.308   2.905   1.709 -0.1213  0.1938  0.0303
 1217TIP3    H1 3587   6.376   2.946   1.655  0.4463 -2.7654 -1.5736
 1217TIP3    H2 3588   6.341   2.914   1.799  0.7411  1.7956 -0.4106
 1218TIP3   OH2 3589   5.638   2.778   0.727  0.4429  0.0108  0.4860
 1218TIP3    H1 3590   5.662   2.718   0.656 -0.9013  0.5790 -0.4711
 1218TIP3    H2 3591   5.716   2.782   0.782  0.4963 -2.8100  0.7179
 1219TIP3   OH2 3592   3.401   7.290   6.588 -0.3641 -0.2682 -0.1441
 1219TIP3    H1 3593   3.340   7.221   6.560 -2.8808  0.8411  2.4357
 1219TIP3    H2 3594   3.466   7.244   6.641 -0.4166 -1.0752 -0.7658
 1220TIP3   OH2 3595   7.803   5.573   0.274  0.1074  0.8496  0.8303
 1220TIP3    H1 3596   7.779   5.607   0.188 -0.2740  1.0269  1.0069
 1220TIP3    H2 3597   7.733   5.602   0.332  1.1257  2.0497  1.5101
 1221TIP3   OH2 3598   4.382   0.241   5.673  0.5532  0.4452  0.2387
 1221TIP3    H1 3599   4.455   0.293   5.707  0.3772 -0.3343  1.8115
 1221TIP3    H2 3600   4.385   0.159   5.722 -1.0119  0.1604 -0.1160
 1222TIP3   OH2 3601   8.093   2.175   0.146 -0.6253 -0.1121 -0.0446
 1222TIP3    H1 3602   8.061   2.149   0.232  1.7591  0.4292  1.0607
 1222TIP3    H2 3603   8.188   2.184   0.158 -0.6067  2.8634 -1.9775
 1223TIP3   OH2 3604   1.840   7.139   6.724  0.8937  0.2327  0.1887
 1223TIP3    H1 3605   1.903   7.103   6.662  0.7354 -0.9791  0.7045
 1223TIP3    H2 3606   1.892   7.158   6.803  0.7411 -0.1902  0.3977
 1224TIP3   OH2 3607   0.354   4.928   1.047 -0.3483 -0.0555 -0.3288
 1224TIP3    H1 3608   0.361   4.838   1.014  1.5179 -0.6051  1.4943
 1224TIP3    H2 3609   0.343   4.919   1.141 -2.3045  1.6062 -0.3467
 1225TIP3   OH2 3610   6.005   2.537   1.750 -0.0022  0.5322  0.8507
 1225TIP3    H1 3611   5.944   2.610   1.746 -1.3174 -0.5158  1.7176
 1225TIP3    H2 3612   6.046   2.543   1.836  2.5816  2.3623 -0.4204
 1226TIP3   OH2 3613   7.656   4.005   0.073  0.1356 -0.5077  0.1241
 1226TIP3    H1 3614   7.735   4.052   0.099 -1.0360  0.9103  1.1996
 1226TIP3    H2 3615   7.589   4.073   0.067 -0.7693 -1.5511 -1.7922
 1227TIP3   OH2 3616   6.470   2.761   1.120 -0.2628  0.2078 -0.3644
 1227TIP3    H1 3617   6.500   2.684   1.168 -0.0292  0.0153 -0.8110
 1227TIP3    H2 3618   6.376   2.747   1.107 -0.0597 -0.4040 -1.1828
 1228TIP3   OH2 3619   5.822   2.768   2.276 -0.1534 -0.0118  0.3121
 1228TIP3    H1 3620   5.825   2.834   2.346 -0.2399 -1.2896  1.5655
 1228TIP3    H2 3621   5.861   2.690   2.316  1.6059 -0.2199 -1.7288
 1229TIP3   OH2 3622   0.589   1.422   0.501 -0.2203  0.2100  0.1710
 1229TIP3    H1 3623   0.572   1.470   0.419  0.7453  2.8620  1.4649
 1229TIP3    H2 3624   0.674   1.456   0.531 -0.2367 -1.2497  1.9322
 1230TIP3   OH2 3625   5.851   2.703   1.205 -0.1568  0.1538 -0.5573
 1230TIP3    H1 3626   5.817   2.792   1.213 -0.1292  0.2376 -1.3263
 1230TIP3    H2 3627   5.943   2.709   1.230 -0.3103  0.2149  0.0112
 1231TIP3   OH2 3628   5.911   4.027   0.863  0.1002 -0.3651  0.5977
 1231TIP3    H1 3629   5.998   3.988   0.858 -0.8441 -2.2271 -2.8898
 1231TIP3    H2 3630   5.891   4.053   0.773 -2.9710  0.0057  1.3292
 1232TIP3   OH2 3631   1.454   6.336   6.213 -0.0261  0.4197 -0.4782
 1232TIP3    H1 3632   1.384   6.396   6.238  1.0096  1.0012  1.1335
 1232TIP3    H2 3633   1.416   6.282   6.144 -2.3124  0.1935  0.9063
 1233TIP3   OH2 3634   6.450   4.755   0.615  0.3324 -0.2006  0.0049
 1233TIP3    H1 3635   6.512   4.828   0.607  0.0781  0.0970  0.7557
 1233TIP3    H2 3636   6.502   4.677   0.592  0.9514  0.0638  0.4891
 1234TIP3   OH2 3637   8.467   5.746   1.824 -0.1803  0.4312 -0.7224
 1234TIP3    H1 3638   8.494   5.705   1.742  0.3069  0.5841 -0.6386
 1234TIP3    H2 3639   8.451   5.838   1.801  3.8538  1.4362  0.1447
 1235TIP3   OH2 3640   1.356   4.875   1.197  0.5059  0.0219  0.6185
 1235TIP3    H1 3641   1.301   4.951   1.213 -0.2024 -0.4052  0.2572
 1235TIP3    H2 3642   1.427   4.907   1.141  0.7579  0.6266  1.2798
 1236TIP3   OH2 3643   1.064   1.578   0.966  0.6321 -0.2980  0.6075
 1236TIP3    H1 3644   0.989   1.531   0.932 -0.6019  1.4970  0.7728
 1236TIP3    H2 3645   1.139   1.540   0.921 -0.4730 -1.3884 -0.3439
 1237TIP3   OH2 3646   8.197   4.360   1.204 -0.3321  0.1123 -0.4939
 1237TIP3    H1 3647   8.114   4.339   1.245 -0.5026  1.0321 -0.3389
 1237TIP3    H2 3648   8.185   4.337   1.112 -0.3534 -0.8499 -0.2572
 1238TIP3   OH2 3649   0.208   4.939   1.505  0.0734  0.4586  0.2112
 1238TIP3    H1 3650   0.258   5.019   1.488  0.3857  0.1834 -0.1631
 1238TIP3    H2 3651   0.120   4.959   1.474 -0.1784  1.1200  1.3183
 1239TIP3   OH2 3652   8.452   4.311   1.902 -0.1662 -0.4946 -0.5456
 1239TIP3    H1 3653   8.536   4.281   1.936  0.4987  3.0419  1.1495
 1239TIP3    H2 3654   8.466   4.323   1.809  1.6622  1.2923 -0.0824
 1240TIP3   OH2 3655   8.343   6.027   1.538 -0.5933 -0.3894  0.5800
 1240TIP3    H1 3656   8.314   6.020   1.447 -1.0466 -0.6293  0.7443
 1240TIP3    H2 3657   8.308   5.949   1.581  0.7188 -0.9473  0.6581
 1241TIP3   OH2 3658   7.072   2.374   2.982 -0.6381  0.3019 -0.5653
 1241TIP3    H1 3659   7.051   2.378   2.889 -2.4222 -1.3625 -0.2664
 1241TIP3    H2 3660   7.042   2.459   3.016  0.0748  0.9379 -1.5061
 1242TIP3   OH2 3661   7.599   6.509   0.823 -0.0287 -0.3208  0.0060
 1242TIP3    H1 3662   7.679   6.560   0.831 -0.7651  1.2102 -2.2090
 1242TIP3    H2 3663   7.629   6.421   0.801  1.1580 -0.5191  2.2323
 1243TIP3   OH2 3664   1.990   3.185   1.687 -0.2609  0.4799  0.3902
 1243TIP3    H1 3665   1.947   3.154   1.607  0.9074 -0.7069  0.2030
 1243TIP3    H2 3666   2.017   3.105   1.732 -1.0675  1.1296  2.0731
 1244TIP3   OH2 3667   6.494   1.752   2.036  0.1858 -0.2430 -0.6878
 1244TIP3    H1 3668   6.582   1.738   2.070  0.0221 -0.4446 -0.3409
 1244TIP3    H2 3669   6.470   1.840   2.067  0.0367 -0.4264 -0.2734
 1245TIP3   OH2 3670   7.603   4.228   1.009  0.2330  0.1244  0.5033
 1245TIP3    H1 3671   7.526   4.183   1.043 -0.3035  0.4157 -0.3107
 1245TIP3    H2 3672   7.571   4.276   0.933  0.8246  1.8718  1.3517
 1246TIP3   OH2 3673   0.397   4.054   1.784 -0.0907 -0.3038 -0.4608
 1246TIP3    H1 3674   0.430   3.969   1.756  1.4240  0.9238 -2.5198
 1246TIP3    H2 3675   0.431   4.065   1.872  1.1926 -1.0650 -0.8443
 1247TIP3   OH2 3676   0.229   5.925   1.294 -0.4707 -0.4154  0.0207
 1247TIP3    H1 3677   0.308   5.960   1.335 -0.0035  0.8937 -1.9486
 1247TIP3    H2 3678   0.160   5.938   1.359  0.6415 -0.2475  1.1890
 1248TIP3   OH2 3679   0.584   4.362   2.223  0.3987  0.6339 -0.0937
 1248TIP3    H1 3680   0.665   4.413   2.233  1.5324 -1.3737  1.1713
 1248TIP3    H2 3681   0.542   4.367   2.309 -0.1529  0.5035 -0.3516
 1249TIP3   OH2 3682   7.106   5.058   1.552  0.3850 -1.3225 -0.1259
 1249TIP3    H1 3683   7.050   4.986   1.524 -0.5763 -0.0760 -1.4688
 1249TIP3    H2 3684   7.145   5.092   1.471 -0.6297  0.8452  0.2404
 1250TIP3   OH2 3685   7.926   4.235   1.295  0.0951 -0.0371 -0.4783
 1250TIP3    H1 3686   7.981   4.221   1.371 -0.4660 -1.8710 -0.3893
 1250TIP3    H2 3687   7.841   4.196   1.319 -0.0769 -0.6507 -2.0284
 1251TIP3   OH2 3688   1.687   4.103   1.611 -0.2034  0.1836 -0.0829
 1251TIP3    H1 3689   1.677   4.045   1.687 -0.4026  0.3877  0.0495
 1251TIP3    H2 3690   1.602   4.147   1.604  1.2810  3.7466  2.5199
 1252TIP3   OH2 3691   7.727   5.501   1.562  0.7104  0.8071 -0.0013
 1252TIP3    H1 3692   7.809   5.463   1.594  0.0796 -0.4239  0.2020
 1252TIP3    H2 3693   7.708   5.452   1.482 -1.3532 -1.0082  1.5410
 1253TIP3   OH2 3694   7.734   3.531   0.855  0.0467  0.4822 -0.3418
 1253TIP3    H1 3695   7.749   3.595   0.924  0.9188  1.0098 -1.0038
 1253TIP3    H2 3696   7.647   3.551   0.822 -0.4864  0.0574  0.7678
 1254TIP3   OH2 3697   4.666   0.790   6.636 -0.1071 -0.0553 -0.3270
 1254TIP3    H1 3698   4.582   0.772   6.592 -0.2019 -0.6523  0.0923
 1254TIP3    H2 3699   4.659   0.745   6.720  0.2396  0.7440  0.1282
 1255TIP3   OH2 3700   8.225   3.797   3.052  0.8666 -0.1452  0.0007
 1255TIP3    H1 3701   8.268   3.847   2.982  0.9692 -1.5361 -0.9647
 1255TIP3    H2 3702   8.269   3.711   3.050  0.0967 -0.5715  1.0261
 1256TIP3   OH2 3703   2.037   4.642   2.674 -0.0099 -0.2485 -0.0805
 1256TIP3    H1 3704   2.066   4.581   2.742 -1.2759  0.7265  1.3716
 1256TIP3    H2 3705   2.017   4.587   2.598  1.0697 -1.3865  0.4611
 1257TIP3   OH2 3706   5.928   5.179   2.125  0.2939  0.3581 -0.4549
 1257TIP3    H1 3707   6.002   5.183   2.064  0.9879 -0.8013  0.3010
 1257TIP3    H2 3708   5.950   5.241   2.194 -0.7344  2.0635 -1.6126
 1258TIP3   OH2 3709   0.216   4.239   1.860 -0.1947  0.6334  0.1447
 1258TIP3    H1 3710   0.265   4.184   1.799 -0.5823 -0.4297  0.7922
 1258TIP3    H2 3711   0.280   4.267   1.925 -0.3276 -0.3455  0.7065
 1259TIP3   OH2 3712   1.543   2.860   1.982  0.3807  0.0801 -0.1372
 1259TIP3    H1 3713   1.549   2.843   2.076  1.5397 -1.3101 -0.4454
 1259TIP3    H2 3714   1.450   2.849   1.962  0.2716 -0.5482  0.6837
 1260TIP3   OH2 3715   7.766   5.340   0.577  0.8230  0.4564  0.1810
 1260TIP3    H1 3716   7.702   5.374   0.640  1.6977  1.7960  0.3444
 1260TIP3    H2 3717   7.851   5.354   0.619  1.3824  0.9365 -1.1088
 1261TIP3   OH2 3718   0.367   4.815   2.728  0.3733 -0.3869 -0.3037
 1261TIP3    H1 3719   0.433   4.884   2.734  0.3450 -0.0255 -3.2040
 1261TIP3    H2 3720   0.407   4.748   2.673 -1.0405 -0.8917 -0.7518
 1262TIP3   OH2 3721   7.266   0.964   2.761 -0.1318  0.2036 -0.0659
 1262TIP3    H1 3722   7.195   0.925   2.709 -0.2299  0.1180  0.1301
 1262TIP3    H2 3723   7.346   0.931   2.721 -0.2336 -1.1427  0.8137
 1263TIP3   OH2 3724   0.983   6.664   6.874 -0.8282 -0.0999  0.1985
 1263TIP3    H1 3725   0.995   6.747   6.920  0.4493 -0.9670  1.4856
 1263TIP3    H2 3726   0.892   6.666   6.843 -1.3516  0.9996  1.7769
 1264TIP3   OH2 3727   1.397   4.161   2.575 -0.2557  0.4781 -0.1895
 1264TIP3    H1 3728   1.437   4.096   2.517 -2.0811 -0.2650 -0.6646
 1264TIP3    H2 3729   1.370   4.232   2.516 -0.2000  0.6906  0.0399
 1265TIP3   OH2 3730   1.836   4.286   1.058  0.5615 -0.1436 -0.3544
 1265TIP3    H1 3731   1.922   4.248   1.076  1.0120  0.8586 -0.3586
 1265TIP3    H2 3732   1.799   4.307   1.144  0.8690  0.6011 -0.3952
 1266TIP3   OH2 3733   2.585   1.905   2.573  0.2889  0.6426  0.2336
 1266TIP3    H1 3734   2.532   1.927   2.650  0.0610  2.3519 -0.4015
 1266TIP3    H2 3735   2.573   1.811   2.562 -2.3043  0.9462  0.3313
 1267TIP3   OH2 3736   0.850   4.113   1.949 -0.1416  0.7788 -0.1009
 1267TIP3    H1 3737   0.941   4.119   1.922  0.1357  0.7955  0.8129
 1267TIP3    H2 3738   0.853   4.121   2.045 -0.9222 -1.1714  0.1037
 1268TIP3   OH2 3739   3.505   4.559   2.771  0.4704  0.1849  0.2421
 1268TIP3    H1 3740   3.429   4.508   2.744 -0.0809  1.9234 -1.6165
 1268TIP3    H2 3741   3.572   4.539   2.704  0.2443  1.8592 -0.5164
 1269TIP3   OH2 3742   6.732   5.058   1.168  0.4290  0.1309  0.0973
 1269TIP3    H1 3743   6.696   5.080   1.253 -0.1323  2.1604 -0.6518
 1269TIP3    H2 3744   6.697   4.971   1.148 -0.8245  0.3996  1.1494
 1270TIP3   OH2 3745   1.002   3.644   2.417 -0.2872 -0.0972  0.0714
 1270TIP3    H1 3746   1.040   3.603   2.495  2.5765 -0.5725 -1.4981
 1270TIP3    H2 3747   0.942   3.578   2.383 -0.3203 -0.5395  0.9518
 1271TIP3   OH2 3748   0.120   5.282   2.703  0.1968 -0.8566  0.9462
 1271TIP3    H1 3749   0.175   5.231   2.644  1.0859  0.5457  0.5394
 1271TIP3    H2 3750   0.081   5.217   2.761 -0.3536 -2.2189 -0.8876
 1272TIP3   OH2 3751   7.962   4.122   1.885 -0.8849  0.7167 -0.1544
 1272TIP3    H1 3752   8.027   4.192   1.881  0.0280 -0.0172  1.2621
 1272TIP3    H2 3753   7.879   4.165   1.863 -0.6265  2.6240  2.3863
 1273TIP3   OH2 3754   1.112   3.502   2.063 -0.0224 -0.2193 -0.1947
 1273TIP3    H1 3755   1.102   3.512   2.157  3.0748  0.1816  0.1614
 1273TIP3    H2 3756   1.095   3.409   2.046  1.8005 -0.8386  1.1671
 1274TIP3   OH2 3757   0.441   3.889   2.548 -0.5631  0.1033  0.5389
 1274TIP3    H1 3758   0.474   3.835   2.477 -1.3411 -1.1142  1.0804
 1274TIP3    H2 3759   0.513   3.894   2.611  0.6203  2.3170 -0.9024
 1275TIP3   OH2 3760   0.693   3.662   2.124 -0.8077 -0.6890  0.7641
 1275TIP3    H1 3761   0.775   3.689   2.082 -1.9030 -0.2317 -1.1660
 1275TIP3    H2 3762   0.699   3.567   2.130 -0.5962 -0.7669 -0.4548
 1276TIP3   OH2 3763   1.575   3.415   3.009 -0.3417 -0.0728 -0.4099
 1276TIP3    H1 3764   1.569   3.320   3.002 -3.2748  0.2348 -2.5695
 1276TIP3    H2 3765   1.600   3.444   2.921 -0.2489  1.2313  0.0392
 1277TIP3   OH2 3766   8.356   4.837   1.493  0.0963 -0.3205 -0.0923
 1277TIP3    H1 3767   8.377   4.877   1.578 -0.2107  1.5774 -0.8657
 1277TIP3    H2 3768   8.260   4.836   1.490  0.0935  0.9583 -0.9911
 1278TIP3   OH2 3769   0.780   2.722   2.552  0.3366 -0.4068 -0.2709
 1278TIP3    H1 3770   0.750   2.743   2.464 -1.3281  0.1654  0.4068
 1278TIP3    H2 3771   0.827   2.800   2.581 -0.8462  0.1963  0.0761
 1279TIP3   OH2 3772   1.342   4.830   0.581  0.6162 -0.5006 -0.5703
 1279TIP3    H1 3773   1.338   4.822   0.485  0.1336 -1.2461 -0.4976
 1279TIP3    H2 3774   1.263   4.785   0.612  0.5024  0.1819  0.1602
 1280TIP3   OH2 3775   1.160   6.531   1.532  0.4886 -0.1543  0.3301
 1280TIP3    H1 3776   1.181   6.617   1.570  1.5756 -0.6233  0.7991
 1280TIP3    H2 3777   1.244   6.485   1.530 -0.5299 -2.1571  2.4752
 1281TIP3   OH2 3778   8.068   5.186   0.581 -0.0048  0.8902 -0.2646
 1281TIP3    H1 3779   7.991   5.177   0.638  0.6434  0.4877  0.5558
 1281TIP3    H2 3780   8.078   5.100   0.540  1.8441 -0.0378  2.0112
 1282TIP3   OH2 3781   0.777   4.544   0.717 -0.9822 -0.3250  0.8504
 1282TIP3    H1 3782   0.716   4.599   0.668  0.0388  0.3220  0.2811
 1282TIP3    H2 3783   0.796   4.471   0.658  0.8161  0.8346 -0.0275
 1283TIP3   OH2 3784   0.371   6.266   1.871  0.3082 -0.4688  0.5103
 1283TIP3    H1 3785   0.329   6.203   1.813  0.8590 -0.1104 -0.2803
 1283TIP3    H2 3786   0.453   6.287   1.828 -0.0538  1.1062  0.5764
 1284TIP3   OH2 3787   6.699   2.483   6.249  0.2053  0.1720  0.1474
 1284TIP3    H1 3788   6.707   2.389   6.239  2.6484  0.2960  0.7243
 1284TIP3    H2 3789   6.653   2.494   6.332 -1.2235 -0.5043 -0.5346
 1285TIP3   OH2 3790   8.315   6.561   0.830 -0.4499 -0.8949 -0.0435
 1285TIP3    H1 3791   8.403   6.526   0.845 -0.0067 -0.1232 -0.7850
 1285TIP3    H2 3792   8.312   6.578   0.735 -1.3725 -0.8605 -0.0116
 1286TIP3   OH2 3793   1.909   3.366   0.692  0.3675 -0.4562  0.1648
 1286TIP3    H1 3794   1.978   3.320   0.740  0.1947 -0.5126  0.3640
 1286TIP3    H2 3795   1.952   3.444   0.656  0.7170 -0.9001 -0.3815
 1287TIP3   OH2 3796   1.364   4.334   2.342 -0.1320 -0.4298 -0.1788
 1287TIP3    H1 3797   1.445   4.340   2.291 -0.6755  1.4968 -0.8538
 1287TIP3    H2 3798   1.304   4.288   2.284 -1.1479  2.8923 -1.8738
 1288TIP3   OH2 3799   2.902   4.680   0.487  0.2266  0.1946 -0.2136
 1288TIP3    H1 3800   2.885   4.730   0.567 -0.0590 -0.3703  0.0833
 1288TIP3    H2 3801   2.970   4.617   0.513  0.2319  0.0993 -0.4575
 1289TIP3   OH2 3802   0.053   4.548   0.015 -0.0664 -0.0851  0.2475
 1289TIP3    H1 3803   0.136   4.586  -0.015 -1.6490  1.8142 -1.8637
 1289TIP3    H2 3804  -0.002   4.624   0.033 -1.2488 -1.3316  2.0358
 1290TIP3   OH2 3805   0.514   3.310   0.277 -0.4328  0.3709  0.4589
 1290TIP3    H1 3806   0.500   3.401   0.303  0.6245  0.3744  1.0601
 1290TIP3    H2 3807   0.511   3.311   0.182  0.0362  1.1128  0.4495
 1291TIP3   OH2 3808   1.165   6.088   2.609 -0.2778 -0.3661 -1.0883
 1291TIP3    H1 3809   1.244   6.128   2.575  0.2547  0.0144  0.5842
 1291TIP3    H2 3810   1.192   6.045   2.690 -1.0933 -3.0386 -2.1611
 1292TIP3   OH2 3811   8.311   4.719   0.493  0.1276 -0.1327  0.2176
 1292TIP3    H1 3812   8.357   4.780   0.436  0.1023 -0.9652 -0.7140
 1292TIP3    H2 3813   8.381   4.664   0.530  0.1755  0.5912  1.2294
 1293TIP3   OH2 3814   3.926   7.920   6.399 -0.0291  0.1446 -0.2256
 1293TIP3    H1 3815   3.895   7.857   6.464  0.6156 -0.9939 -1.0036
 1293TIP3    H2 3816   3.850   7.939   6.344  0.1194 -1.0127 -0.8327
 1294TIP3   OH2 3817   1.585   6.008   1.186  0.0642 -0.5707 -0.2221
 1294TIP3    H1 3818   1.515   5.955   1.147 -1.1681 -0.6877  2.0311
 1294TIP3    H2 3819   1.636   5.945   1.237 -0.2917  0.0779  0.9507
 1295TIP3   OH2 3820   1.145   5.125   4.501  0.0451  0.0834  0.0461
 1295TIP3    H1 3821   1.183   5.211   4.483 -0.4082  0.5485  1.2705
 1295TIP3    H2 3822   1.216   5.075   4.541  0.2731 -0.0712 -0.5524
 1296TIP3   OH2 3823   1.325   4.705   0.955 -0.7204 -0.3604  0.3020
 1296TIP3    H1 3824   1.309   4.748   1.038 -1.8399 -1.0968  0.4670
 1296TIP3    H2 3825   1.272   4.754   0.892  0.3774  0.4039 -0.0585
 1297TIP3   OH2 3826   0.892   3.562   0.975 -0.0786  0.1187  0.1275
 1297TIP3    H1 3827   0.964   3.600   1.024  0.6616 -1.2326  0.1237
 1297TIP3    H2 3828   0.895   3.605   0.889  0.4141  0.4177  0.2979
 1298TIP3   OH2 3829   1.576   3.147   3.001 -0.6968  0.3206 -0.0924
 1298TIP3    H1 3830   1.514   3.079   2.973 -0.8348  0.0971  0.7602
 1298TIP3    H2 3831   1.658   3.100   3.014 -0.3282  0.6215 -1.2473
 1299TIP3   OH2 3832   2.313   7.379   6.687 -0.0929 -0.1063 -0.8711
 1299TIP3    H1 3833   2.225   7.412   6.671 -0.0667  0.1813 -0.4307
 1299TIP3    H2 3834   2.302   7.285   6.701 -0.3879  0.0090 -0.3334
 1300TIP3   OH2 3835   7.947   7.485   1.587 -0.0064  0.2084 -0.1034
 1300TIP3    H1 3836   8.041   7.495   1.597 -0.0826  0.8219  0.0404
 1300TIP3    H2 3837   7.937   7.415   1.522  0.5569  0.5778 -0.5918
 1301TIP3   OH2 3838   7.471   2.195   6.326  0.6899 -0.0868  0.3975
 1301TIP3    H1 3839   7.563   2.178   6.310  0.8007  0.3859  0.5086
 1301TIP3    H2 3840   7.460   2.288   6.303 -0.6188 -1.1175 -3.5691
 1302TIP3   OH2 3841   2.669   4.374   0.896  0.1812 -0.3709 -0.0306
 1302TIP3    H1 3842   2.731   4.397   0.965 -0.7744 -1.5931  1.2771
 1302TIP3    H2 3843   2.632   4.457   0.868  3.0246  0.4607 -1.4554
 1303TIP3   OH2 3844   1.665   5.205   0.245 -0.0836  0.2295  0.4827
 1303TIP3    H1 3845   1.710   5.126   0.217  1.2018  0.0980  2.8126
 1303TIP3    H2 3846   1.573   5.179   0.253 -0.0269 -0.4302 -0.8324
 1304TIP3   OH2 3847   1.372   5.886   1.390  0.3812 -0.0987  0.3616
 1304TIP3    H1 3848   1.404   5.841   1.468 -1.9234 -0.1513  1.3042
 1304TIP3    H2 3849   1.378   5.821   1.321  0.0417 -0.8638  1.0469
 1305TIP3   OH2 3850   1.505   4.490   0.170  0.6774 -0.0393 -0.3408
 1305TIP3    H1 3851   1.465   4.491   0.258  0.7668 -0.6979 -0.2908
 1305TIP3    H2 3852   1.582   4.435   0.179  0.9002  0.2032 -0.7480
 1306TIP3   OH2 3853   1.797   3.789   0.797  0.2426 -0.3383  0.5171
 1306TIP3    H1 3854   1.792   3.884   0.810  2.3246 -0.0739 -0.4139
 1306TIP3    H2 3855   1.797   3.753   0.886 -0.4501  0.5239  0.8781
 1307TIP3   OH2 3856   8.345   0.047   6.892 -0.1393 -0.1518 -0.3658
 1307TIP3    H1 3857   8.333  -0.004   6.972 -0.1698  2.2159  1.2177
 1307TIP3    H2 3858   8.436   0.033   6.868 -0.2325 -1.1828 -0.1214
 1308TIP3   OH2 3859   0.375   2.274   5.385  0.4533 -0.3222 -0.3848
 1308TIP3    H1 3860   0.284   2.266   5.414  0.4514  1.1013  0.0527
 1308TIP3    H2 3861   0.414   2.336   5.447  1.2664  0.3803 -1.5836
 1309TIP3   OH2 3862   5.636   7.762   6.099 -0.4159 -0.3652  0.8622
 1309TIP3    H1 3863   5.628   7.767   6.195  0.8652  3.0017  0.8402
 1309TIP3    H2 3864   5.567   7.820   6.067  2.7328  3.0154 -0.0716
 1310TIP3   OH2 3865   2.111   6.904   0.242  0.3947  0.0247  0.0272
 1310TIP3    H1 3866   2.022   6.912   0.208 -0.3112  0.6625  1.9267
 1310TIP3    H2 3867   2.133   6.993   0.272  0.4046 -0.8145  2.5828
 1311TIP3   OH2 3868   2.013   4.720   0.963  0.0062 -0.1092 -0.1671
 1311TIP3    H1 3869   1.964   4.638   0.968  1.4601 -1.0469 -0.9238
 1311TIP3    H2 3870   2.003   4.748   0.872  0.6374 -0.1596 -0.2507
 1312TIP3   OH2 3871   0.119   4.527   0.769  0.8142 -0.1773  0.0466
 1312TIP3    H1 3872   0.087   4.495   0.685 -1.8252  0.0790  0.9217
 1312TIP3    H2 3873   0.131   4.447   0.821 -0.8228 -0.1236  0.5287
 1313TIP3   OH2 3874   1.116   7.489   3.128 -0.4243  0.1010 -0.3538
 1313TIP3    H1 3875   1.202   7.480   3.087 -0.1214  0.2900  0.2349
 1313TIP3    H2 3876   1.056   7.500   3.055  0.2856  1.9058 -0.6836
 1314TIP3   OH2 3877   3.374   6.062   1.775  0.1280  0.6076  0.1411
 1314TIP3    H1 3878   3.426   6.053   1.855 -1.8717 -1.8249  1.2278
 1314TIP3    H2 3879   3.299   6.004   1.788 -1.7127  2.3230 -2.3337
 1315TIP3   OH2 3880   0.744   5.468   0.062  0.9655 -0.4742  0.0700
 1315TIP3    H1 3881   0.810   5.433   0.122  1.6640 -0.8426 -0.8867
 1315TIP3    H2 3882   0.722   5.394   0.005  0.1439 -0.1932  0.0098
 1316TIP3   OH2 3883   2.955   7.890   6.529  0.0331  0.1771 -0.1103
 1316TIP3    H1 3884   2.867   7.894   6.491  0.0441 -0.2838 -0.1927
 1316TIP3    H2 3885   3.002   7.963   6.489 -0.2596  0.3183 -0.1986
 1317TIP3   OH2 3886   2.103   3.424   0.376 -0.5597  0.0380  0.2897
 1317TIP3    H1 3887   2.096   3.336   0.414 -0.6349  0.2603  0.8004
 1317TIP3    H2 3888   2.057   3.481   0.438 -3.3416 -0.0103 -1.6596
 1318TIP3   OH2 3889   1.214   5.988   2.101  0.0551  0.3005  0.1387
 1318TIP3    H1 3890   1.235   5.903   2.141 -0.8993 -0.4636 -0.9419
 1318TIP3    H2 3891   1.296   6.037   2.104  1.3004 -1.5873 -1.4403
 1319TIP3   OH2 3892   0.043   5.363   1.061 -0.8599  0.4419  0.0505
 1319TIP3    H1 3893   0.114   5.394   1.117 -1.3704  1.0728  0.3613
 1319TIP3    H2 3894   0.036   5.270   1.079  0.6052  0.1665 -0.7818
 1320TIP3   OH2 3895   1.090   2.532   0.621 -0.2943  0.7791  0.2519
 1320TIP3    H1 3896   1.052   2.476   0.688 -0.2983 -0.0560 -0.4344
 1320TIP3    H2 3897   1.169   2.568   0.662 -0.0924 -0.0223  0.5753
 1321TIP3   OH2 3898   0.680   5.932   3.786  0.2303  0.2355  0.4422
 1321TIP3    H1 3899   0.734   5.879   3.844  0.1174 -0.5269 -0.1390
 1321TIP3    H2 3900   0.632   5.868   3.733 -0.0533  0.9193 -0.1346
 1322TIP3   OH2 3901   3.390   7.326   0.426  0.6055  0.2730  0.0389
 1322TIP3    H1 3902   3.464   7.377   0.394  1.2669  2.2084  4.3816
 1322TIP3    H2 3903   3.424   7.237   0.435  1.2534  0.3294 -1.6329
 1323TIP3   OH2 3904   6.432   0.481   5.965 -0.0680  1.0279  0.8724
 1323TIP3    H1 3905   6.516   0.456   6.004 -0.5221 -1.0708  0.5571
 1323TIP3    H2 3906   6.373   0.493   6.040  0.2152  1.3694  1.0397
 1324TIP3   OH2 3907   8.356   6.188   1.228  0.3175 -0.2637 -0.7142
 1324TIP3    H1 3908   8.373   6.160   1.138  1.1905 -0.2963 -0.5400
 1324TIP3    H2 3909   8.301   6.118   1.264 -0.9380  0.2792 -1.5495
 1325TIP3   OH2 3910   7.251   3.169   2.396  0.2593  0.1314  0.2515
 1325TIP3    H1 3911   7.298   3.095   2.434  0.4310 -0.8603 -1.8038
 1325TIP3    H2 3912   7.183   3.128   2.342  1.4317  1.4031 -2.2599
 1326TIP3   OH2 3913   0.143   5.454   0.183 -0.5178  0.7200 -0.4465
 1326TIP3    H1 3914   0.141   5.522   0.115  1.5485  2.5358  1.2527
 1326TIP3    H2 3915   0.057   5.459   0.224  0.0565  3.2444  0.5263
 1327TIP3   OH2 3916   2.082   3.672   0.963 -0.2379 -0.3141 -0.3913
 1327TIP3    H1 3917   2.070   3.631   0.878  0.2162 -0.0266 -0.5945
 1327TIP3    H2 3918   2.005   3.646   1.013  0.0675 -1.4373 -0.5022
 1328TIP3   OH2 3919   2.328   3.421   1.051 -0.1631 -0.7576  0.5186
 1328TIP3    H1 3920   2.349   3.514   1.051 -0.4682 -0.6712 -1.1622
 1328TIP3    H2 3921   2.233   3.418   1.036  0.1443 -1.3580 -1.5949
 1329TIP3   OH2 3922   2.883   4.112   1.330  0.0430 -0.7112  0.1980
 1329TIP3    H1 3923   2.788   4.102   1.323 -0.1974  0.1920  1.8776
 1329TIP3    H2 3924   2.917   4.078   1.248 -1.8891  0.9458 -1.3455
 1330TIP3   OH2 3925   1.647   4.029   1.262 -0.2065 -0.4770 -0.5576
 1330TIP3    H1 3926   1.682   4.068   1.342  0.9921  1.1446 -1.8277
 1330TIP3    H2 3927   1.637   4.103   1.202 -2.6839 -1.3969 -1.3669
 1331TIP3   OH2 3928   1.010   5.357   1.238 -0.4696  0.7763  0.0080
 1331TIP3    H1 3929   1.007   5.269   1.274  0.9572  0.6529 -0.1434
 1331TIP3    H2 3930   1.101   5.385   1.249 -0.7834  2.0227 -0.4305
 1332TIP3   OH2 3931   5.506   6.824   6.268  0.1082  0.3665 -0.2516
 1332TIP3    H1 3932   5.510   6.855   6.359  0.7625  0.9887 -0.4822
 1332TIP3    H2 3933   5.434   6.872   6.229 -0.9084 -0.7336  0.2336
 1333TIP3   OH2 3934   1.565   4.297   0.809  0.4931  0.0856 -0.3753
 1333TIP3    H1 3935   1.543   4.265   0.722 -1.4456 -1.0678  0.5081
 1333TIP3    H2 3936   1.627   4.233   0.844  0.4280 -0.0370 -0.4871
 1334TIP3   OH2 3937   0.949   5.095   0.871  0.1114 -0.3714  0.4644
 1334TIP3    H1 3938   0.931   5.043   0.949 -0.0084 -0.1277  0.5995
 1334TIP3    H2 3939   0.878   5.074   0.811  0.2527 -0.6272  0.3868
 1335TIP3   OH2 3940   1.702   3.569   1.726 -0.3191 -0.8280  0.1074
 1335TIP3    H1 3941   1.647   3.598   1.799  1.2850 -0.7886  1.3293
 1335TIP3    H2 3942   1.755   3.646   1.705 -1.9931 -0.2856 -2.2970
 1336TIP3   OH2 3943   1.176   4.594   1.765  0.0806  0.0146 -0.0253
 1336TIP3    H1 3944   1.109   4.594   1.697 -0.0442 -0.5013  0.0988
 1336TIP3    H2 3945   1.218   4.680   1.757 -0.8443  0.4834  0.1434
 1337TIP3   OH2 3946   2.154   4.546   0.017  0.3530 -0.1535 -0.1063
 1337TIP3    H1 3947   2.105   4.626   0.033 -1.1204 -0.6133 -2.1616
 1337TIP3    H2 3948   2.220   4.544   0.086  0.5208  2.9113 -0.1279
 1338TIP3   OH2 3949   1.414   4.123   1.631 -0.0969 -0.4698  0.3371
 1338TIP3    H1 3950   1.427   4.028   1.628 -0.7100 -0.5738  0.8125
 1338TIP3    H2 3951   1.385   4.140   1.720  1.1368  0.3231  0.6036
 1339TIP3   OH2 3952   1.574   4.393   2.145  0.2565 -0.1694  0.2116
 1339TIP3    H1 3953   1.660   4.354   2.128  1.5439  3.1369 -1.2603
 1339TIP3    H2 3954   1.549   4.433   2.062 -1.8661  0.4860  1.1280
 1340TIP3   OH2 3955   3.297   7.315   6.101  0.0096  0.1962  0.0470
 1340TIP3    H1 3956   3.261   7.227   6.092  1.8002 -0.4188 -1.5619
 1340TIP3    H2 3957   3.372   7.304   6.160 -0.1947  0.7635  0.4155
 1341TIP3   OH2 3958   2.187   5.736   2.005  0.5380  0.0688  0.1002
 1341TIP3    H1 3959   2.105   5.693   2.032  1.9155 -2.0859  0.9933
 1341TIP3    H2 3960   2.210   5.791   2.080  0.8503 -0.7349  0.6014
 1342TIP3   OH2 3961   2.212   4.892   2.143 -0.3232  0.1652 -0.4807
 1342TIP3    H1 3962   2.157   4.936   2.208 -0.0114  1.0431 -0.8067
 1342TIP3    H2 3963   2.260   4.963   2.101  1.2417 -0.6167 -0.0328
 1343TIP3   OH2 3964   8.465   4.972   0.451  0.3861 -0.1487  0.5074
 1343TIP3    H1 3965   8.429   5.040   0.395  0.5716 -2.4651 -2.5348
 1343TIP3    H2 3966   8.534   5.016   0.501  0.5623  1.8550 -1.4508
 1344TIP3   OH2 3967   0.058   6.309   1.383 -0.3864  0.4699 -0.7202
 1344TIP3    H1 3968  -0.007   6.251   1.342  1.9152 -2.3954 -0.4388
 1344TIP3    H2 3969   0.095   6.358   1.310 -0.1581 -0.6605 -1.3787
 1345TIP3   OH2 3970   8.064   4.972   0.403 -0.1476 -0.2058 -0.2161
 1345TIP3    H1 3971   8.040   4.891   0.449  0.5887  0.4044  1.2497
 1345TIP3    H2 3972   8.143   4.949   0.354 -0.0636 -0.4285  0.0251
 1346TIP3   OH2 3973   1.937   3.944   2.122 -0.1487  0.1764 -0.5092
 1346TIP3    H1 3974   1.929   3.936   2.217  0.9973 -0.9143 -0.5037
 1346TIP3    H2 3975   1.977   4.030   2.108  0.5993 -0.0853  0.0389
 1347TIP3   OH2 3976   6.789   1.268   6.793 -0.3220 -0.1875  0.7158
 1347TIP3    H1 3977   6.818   1.187   6.836  2.1813 -0.3703 -1.2142
 1347TIP3    H2 3978   6.869   1.315   6.774 -1.4842  0.7991 -1.9741
 1348TIP3   OH2 3979   7.549   0.929   6.126 -0.1028  0.1562 -0.0733
 1348TIP3    H1 3980   7.581   0.894   6.043 -1.7971  1.2413 -1.2193
 1348TIP3    H2 3981   7.624   0.925   6.184  1.6082  0.9902 -2.1671
 1349TIP3   OH2 3982   0.950   4.629   1.993  0.5834 -0.0775 -0.3542
 1349TIP3    H1 3983   0.916   4.554   1.944 -0.3916 -0.8993  1.5424
 1349TIP3    H2 3984   1.017   4.592   2.050  0.0324  0.4836  0.6637
 1350TIP3   OH2 3985   2.446   2.825   2.348 -0.4205  0.4331 -0.1484
 1350TIP3    H1 3986   2.481   2.886   2.283 -0.8064 -0.5040 -1.2468
 1350TIP3    H2 3987   2.351   2.839   2.345 -0.2988  1.9223  1.7776
 1351TIP3   OH2 3988   0.521   2.663   1.506 -0.2566  0.5728  0.3912
 1351TIP3    H1 3989   0.510   2.606   1.431 -1.3932  0.0146  0.9709
 1351TIP3    H2 3990   0.616   2.666   1.521  0.0506  1.4520 -1.6318
 1352TIP3   OH2 3991   2.051   2.463   1.509  0.5029  0.4965  0.0728
 1352TIP3    H1 3992   2.093   2.456   1.595 -1.6259  0.0747  1.1112
 1352TIP3    H2 3993   1.974   2.518   1.525 -0.0654  0.1840 -1.5245
 1353TIP3   OH2 3994   2.851   6.064   1.990  0.3095  0.3428 -0.2439
 1353TIP3    H1 3995   2.920   6.100   1.934  0.5584  2.0361  1.0753
 1353TIP3    H2 3996   2.891   6.062   2.077 -0.8702  0.0916  0.2958
 1354TIP3   OH2 3997   2.492   6.664   0.741  0.1448 -0.5297 -0.0324
 1354TIP3    H1 3998   2.546   6.712   0.804 -0.3048  1.1405 -0.8842
 1354TIP3    H2 3999   2.553   6.605   0.697  0.6618 -0.9490  1.2032
 1355TIP3   OH2 4000   4.932   7.813   6.197  0.4966  0.3622 -0.1144
 1355TIP3    H1 4001   4.892   7.834   6.112  1.3575 -1.2017 -0.9231
 1355TIP3    H2 4002   5.023   7.842   6.188  0.4834  0.5736  0.4397
 1356TIP3   OH2 4003   2.652   2.259   0.047  0.3832 -0.9573  0.6255
 1356TIP3    H1 4004   2.623   2.326   0.108  1.0703 -0.2908  0.2195
 1356TIP3    H2 4005   2.715   2.207   0.096  1.4480 -0.0090  0.2822
 1357TIP3   OH2 4006   1.277   3.026   0.649  0.4663 -0.1833 -0.1671
 1357TIP3    H1 4007   1.355   3.052   0.698  0.7584 -0.2554 -0.5902
 1357TIP3    H2 4008   1.265   3.096   0.585  1.3621 -1.1717 -1.4317
 1358TIP3   OH2 4009   1.657   6.585   0.860  0.3471  0.2358 -0.0959
 1358TIP3    H1 4010   1.593   6.656   0.849 -0.1214 -0.2817 -0.8203
 1358TIP3    H2 4011   1.730   6.609   0.803  0.4181  0.3930  0.0608
 1359TIP3   OH2 4012   2.999   4.451   2.294  0.5277 -0.2411 -0.5849
 1359TIP3    H1 4013   2.997   4.440   2.199 -1.4114 -1.6591 -0.4115
 1359TIP3    H2 4014   2.908   4.473   2.318  1.1561  0.8924  0.8544
 1360TIP3   OH2 4015   0.096   6.025   3.243 -0.3673  0.5298 -0.2637
 1360TIP3    H1 4016   0.059   6.038   3.156 -0.1138 -2.0707 -0.8002
 1360TIP3    H2 4017   0.023   6.043   3.303 -0.5264  2.3872 -0.9863
 1361TIP3   OH2 4018   0.332   2.478   2.495  0.5911 -0.3452  0.6721
 1361TIP3    H1 4019   0.257   2.534   2.473 -1.5344 -3.0147  0.8998
 1361TIP3    H2 4020   0.404   2.515   2.444 -0.7543  2.5283  0.7323
 1362TIP3   OH2 4021   0.298   2.122   6.475  0.7802 -0.7524 -0.3562
 1362TIP3    H1 4022   0.212   2.125   6.516  0.4743  2.1586 -1.1086
 1362TIP3    H2 4023   0.303   2.034   6.436 -2.5810 -0.3700 -1.8330
 1363TIP3   OH2 4024   1.340   3.695   0.887 -0.3999 -0.2599  0.5965
 1363TIP3    H1 4025   1.334   3.629   0.956  0.2210  1.5859  2.4749
 1363TIP3    H2 4026   1.346   3.778   0.934  2.3330  0.8700 -1.6367
 1364TIP3   OH2 4027   0.319   5.847   4.575  0.1393  0.0836 -0.1014
 1364TIP3    H1 4028   0.230   5.837   4.609 -0.4156 -1.0310 -1.8303
 1364TIP3    H2 4029   0.346   5.759   4.550  0.9534  0.6973 -1.4623
 1365TIP3   OH2 4030   2.428   3.781   2.551 -0.3720 -0.2537 -0.7718
 1365TIP3    H1 4031   2.383   3.855   2.591 -0.6228 -0.6391 -0.3361
 1365TIP3    H2 4032   2.358   3.717   2.534  0.0001 -0.8364 -0.1453
 1366TIP3   OH2 4033   0.591   5.818   1.177 -0.2554 -0.5305  0.3422
 1366TIP3    H1 4034   0.526   5.817   1.107 -3.2505 -1.1053  2.9823
 1366TIP3    H2 4035   0.655   5.885   1.151 -1.4434 -0.5522 -2.7361
 1367TIP3   OH2 4036   0.691   5.015   3.409  0.3256  0.4123  0.1350
 1367TIP3    H1 4037   0.694   5.105   3.376  0.5658  0.1400 -0.6148
 1367TIP3    H2 4038   0.783   4.989   3.417  0.2670 -0.5507 -1.8947
 1368TIP3   OH2 4039   1.291   5.596   1.051 -0.1920 -0.4601 -0.3269
 1368TIP3    H1 4040   1.233   5.580   1.125  1.3927 -1.4812  0.7271
 1368TIP3    H2 4041   1.301   5.511   1.008  2.8087 -0.9892  1.2472
 1369TIP3   OH2 4042   6.961   4.783   6.181 -0.1808 -0.5723  0.8932
 1369TIP3    H1 4043   7.048   4.803   6.148 -0.4503 -0.7524  0.0553
 1369TIP3    H2 4044   6.931   4.864   6.221 -0.0319 -0.2134  0.2758
 1370TIP3   OH2 4045   1.804   2.341   1.052  0.2044 -0.0158  0.4390
 1370TIP3    H1 4046   1.817   2.337   1.146 -1.9984 -0.6208  0.7494
 1370TIP3    H2 4047   1.832   2.429   1.027 -1.6931  1.0926  2.0852
 1371TIP3   OH2 4048   2.209   5.678   0.761  0.1384  0.6840  0.1248
 1371TIP3    H1 4049   2.214   5.687   0.666 -1.8404  0.7267  0.0055
 1371TIP3    H2 4050   2.175   5.589   0.775  0.5962  0.6079  0.8031
 1372TIP3   OH2 4051   8.076   2.046   6.861 -0.2741 -0.6488  0.0054
 1372TIP3    H1 4052   8.065   2.123   6.806  0.4598 -0.0093  0.7301
 1372TIP3    H2 4053   8.051   1.972   6.805 -0.9163  0.1047 -0.7154
 1373TIP3   OH2 4054   7.197   2.494   0.079 -0.2952  0.1494  0.4696
 1373TIP3    H1 4055   7.135   2.422   0.067 -0.7080  0.4631  0.6908
 1373TIP3    H2 4056   7.159   2.546   0.150  0.2169  0.3515  0.5936
 1374TIP3   OH2 4057   1.061   6.538   2.306 -0.3526 -0.5923 -0.2401
 1374TIP3    H1 4058   1.143   6.489   2.300 -1.0246 -1.7914  0.1262
 1374TIP3    H2 4059   1.012   6.514   2.227 -0.5396 -0.2436 -0.2318
 1375TIP3   OH2 4060   7.378   7.572   1.448 -0.0616 -0.2200  0.1090
 1375TIP3    H1 4061   7.441   7.504   1.425 -0.2016  0.5170 -2.6583
 1375TIP3    H2 4062   7.304   7.524   1.486  0.8269 -1.3857  0.4028
 1376TIP3   OH2 4063   1.594   6.496   3.508 -0.0362 -0.1480  0.1978
 1376TIP3    H1 4064   1.632   6.435   3.445 -0.9266 -2.7430  2.1080
 1376TIP3    H2 4065   1.518   6.533   3.464  0.6536 -0.1959 -1.0555
 1377TIP3   OH2 4066   8.043   5.312   2.353 -0.0913  0.2110 -0.7918
 1377TIP3    H1 4067   8.037   5.405   2.334 -0.9221 -0.0032 -1.5570
 1377TIP3    H2 4068   8.102   5.307   2.429 -0.4779  1.3885 -0.4157
 1378TIP3   OH2 4069   1.015   5.993   0.010  0.2146 -0.0371 -0.3051
 1378TIP3    H1 4070   0.948   5.957  -0.047 -0.6335  0.2315  0.4932
 1378TIP3    H2 4071   0.968   6.015   0.091  1.3990 -0.4787  0.5164
 1379TIP3   OH2 4072   2.917   5.055   2.104  0.1865  0.0565 -0.2983
 1379TIP3    H1 4073   2.961   5.088   2.026  0.3565 -1.7047 -0.9469
 1379TIP3    H2 4074   2.824   5.069   2.087  0.2412 -0.0297 -0.6647
 1380TIP3   OH2 4075   1.018   3.068   3.158 -0.6906 -0.2429  0.0191
 1380TIP3    H1 4076   1.018   2.992   3.099  0.5652 -0.1266 -0.1370
 1380TIP3    H2 4077   1.019   3.144   3.099  1.2555 -0.1260  0.1652
 1381TIP3   OH2 4078   0.870   4.610   3.117 -0.1479 -0.1101  0.4594
 1381TIP3    H1 4079   0.833   4.571   3.038  0.5375 -0.8862  0.5140
 1381TIP3    H2 4080   0.948   4.557   3.136  0.2674  0.7038  1.0702
 1382TIP3   OH2 4081   3.293   5.802   3.555  0.5748 -0.4217 -0.4535
 1382TIP3    H1 4082   3.296   5.708   3.573 -2.3009 -0.3373  0.8400
 1382TIP3    H2 4083   3.259   5.808   3.466  1.2311 -0.5998 -0.7210
 1383TIP3   OH2 4084   0.049   4.118   2.194 -0.6731  0.3917 -0.0279
 1383TIP3    H1 4085   0.124   4.063   2.220 -1.2547  0.5316  2.0390
 1383TIP3    H2 4086   0.084   4.207   2.195 -0.5824  0.3586 -0.1742
 1384TIP3   OH2 4087   3.203   5.360   0.051  0.0383 -0.2602  0.5562
 1384TIP3    H1 4088   3.160   5.353  -0.034  1.0169  1.5820 -0.1372
 1384TIP3    H2 4089   3.297   5.354   0.031  0.2543 -0.3817  1.5733
 1385TIP3   OH2 4090   1.134   3.411   0.771 -0.3641  0.0424 -0.4022
 1385TIP3    H1 4091   1.182   3.378   0.846  1.1170 -2.6309 -2.4319
 1385TIP3    H2 4092   1.050   3.367   0.775  0.4305 -1.6228 -1.3280
 1386TIP3   OH2 4093   1.746   7.007   1.571 -0.2925  0.0274 -0.0893
 1386TIP3    H1 4094   1.773   6.932   1.518 -0.1390 -1.2109  1.7293
 1386TIP3    H2 4095   1.814   7.073   1.555  1.4829 -1.5020  1.0636
 1387TIP3   OH2 4096   1.611   5.862   2.041 -0.3285 -0.6048  0.4151
 1387TIP3    H1 4097   1.676   5.930   2.062 -1.0345  0.2184 -0.0562
 1387TIP3    H2 4098   1.573   5.889   1.958  0.6039 -2.5048 -0.6516
 1388TIP3   OH2 4099   1.763   3.743   1.972  0.2665 -0.6899  0.0362
 1388TIP3    H1 4100   1.785   3.662   2.018  1.0060 -1.4785 -1.6414
 1388TIP3    H2 4101   1.826   3.807   2.004  1.1660 -1.3839 -0.3144
 1389TIP3   OH2 4102   0.538   3.023   0.719  0.3001  0.3236 -0.5657
 1389TIP3    H1 4103   0.603   3.047   0.785 -0.1924 -0.4955  0.2426
 1389TIP3    H2 4104   0.574   3.054   0.636  1.7875 -0.2576 -0.1473
 1390TIP3   OH2 4105   1.539   4.945   3.582 -0.4419 -0.1275  0.7609
 1390TIP3    H1 4106   1.485   4.867   3.595  0.5240 -0.7699  1.0322
 1390TIP3    H2 4107   1.617   4.912   3.537 -0.1282  0.7240  0.6765
 1391TIP3   OH2 4108   1.412   5.967   4.358  0.0803 -0.0390 -0.0635
 1391TIP3    H1 4109   1.404   5.874   4.338  1.3221  0.0191 -0.8353
 1391TIP3    H2 4110   1.350   6.010   4.299 -2.2004 -0.5208  1.8471
 1392TIP3   OH2 4111   0.707   5.702   3.228  0.6773 -0.8151  0.3587
 1392TIP3    H1 4112   0.698   5.761   3.153  0.8599  0.1563  1.0921
 1392TIP3    H2 4113   0.801   5.684   3.233  0.8255  0.0989  1.0811
 1393TIP3   OH2 4114   1.704   5.642   3.179  0.5015 -0.2690 -0.3798
 1393TIP3    H1 4115   1.690   5.709   3.111 -0.2045 -0.9539 -0.9241
 1393TIP3    H2 4116   1.792   5.660   3.212  1.0155 -0.1547 -1.7488
 1394TIP3   OH2 4117   3.117   4.800   3.296 -0.0641 -0.2982 -0.4347
 1394TIP3    H1 4118   3.204   4.759   3.298 -0.3165 -0.7980  2.6314
 1394TIP3    H2 4119   3.058   4.729   3.273  0.0938 -0.5085 -0.2051
 1395TIP3   OH2 4120   3.337   4.521   2.062  0.3975  0.4757  0.0596
 1395TIP3    H1 4121   3.284   4.562   1.994  0.0486  1.6255  1.0159
 1395TIP3    H2 4122   3.426   4.520   2.027 -0.0270 -0.2947 -1.0199
 1396TIP3   OH2 4123   2.015   7.460   2.557  0.1117  0.0648  0.1664
 1396TIP3    H1 4124   1.969   7.544   2.550 -0.2172 -0.1210  0.0956
 1396TIP3    H2 4125   2.107   7.484   2.561  0.3592  0.2629 -4.2776
 1397TIP3   OH2 4126   2.543   5.869   1.414 -0.4819 -0.5188  0.4484
 1397TIP3    H1 4127   2.509   5.824   1.336  0.0445 -0.2474  0.0599
 1397TIP3    H2 4128   2.516   5.960   1.401  0.2308 -0.3391  0.2320
 1398TIP3   OH2 4129   7.233   2.607   6.461 -0.4073 -0.5580  0.9008
 1398TIP3    H1 4130   7.208   2.562   6.380  0.4637 -0.4296  0.5534
 1398TIP3    H2 4131   7.241   2.537   6.526 -2.8496 -0.4729  1.3372
 1399TIP3   OH2 4132   2.604   7.525   0.039 -0.2436 -0.2386 -0.1413
 1399TIP3    H1 4133   2.611   7.579  -0.039 -1.5716  0.1885  0.0243
 1399TIP3    H2 4134   2.530   7.562   0.087  0.4872 -0.5623  1.2661
 1400TIP3   OH2 4135   1.275   0.944   6.337 -0.9909  0.2363 -0.2012
 1400TIP3    H1 4136   1.270   0.849   6.347 -2.1656  0.3857  0.7019
 1400TIP3    H2 4137   1.189   0.976   6.365 -0.5419  1.5771 -0.3232
 1401TIP3   OH2 4138   1.633   7.285   3.167  0.2721  0.6848  0.4603
 1401TIP3    H1 4139   1.706   7.241   3.123  0.9412  1.5161  0.7367
 1401TIP3    H2 4140   1.561   7.279   3.104  0.4626 -0.4405  0.3261
 1402TIP3   OH2 4141   1.228   5.226   2.241  0.5496  0.4375 -0.0848
 1402TIP3    H1 4142   1.196   5.137   2.260  0.0375  1.0518  1.9737
 1402TIP3    H2 4143   1.151   5.282   2.253  1.1646  1.3126 -0.2394
 1403TIP3   OH2 4144   1.749   4.738   0.748  0.1678 -0.1619  0.3250
 1403TIP3    H1 4145   1.837   4.730   0.712 -1.0647 -4.4680 -2.1098
 1403TIP3    H2 4146   1.710   4.812   0.702  1.0833 -1.0476 -1.9609
 1404TIP3   OH2 4147   6.507   0.451   6.443 -0.7774  0.3351 -0.4477
 1404TIP3    H1 4148   6.565   0.514   6.400  0.3927  0.2725  1.0044
 1404TIP3    H2 4149   6.535   0.366   6.409  1.0439  0.1680  1.4299
 1405TIP3   OH2 4150   6.890   1.212   6.048 -0.2245  0.2380 -0.3098
 1405TIP3    H1 4151   6.907   1.133   5.998  2.4731 -0.5469  1.7367
 1405TIP3    H2 4152   6.975   1.257   6.053 -0.6901  0.9512  2.3810
 1406TIP3   OH2 4153   2.311   2.764   1.413  0.1070  0.3459  0.4233
 1406TIP3    H1 4154   2.245   2.834   1.410  1.2779  1.4262 -1.2143
 1406TIP3    H2 4155   2.275   2.695   1.357 -0.2010  0.4004  0.5489
 1407TIP3   OH2 4156   3.186   3.341   1.784  0.1595 -0.2586 -0.5074
 1407TIP3    H1 4157   3.174   3.373   1.874  0.2719 -1.1441 -0.1713
 1407TIP3    H2 4158   3.265   3.286   1.789  0.3407 -0.0674 -1.2158
 1408TIP3   OH2 4159   6.938   0.269   5.035  0.8368 -0.1282 -0.1147
 1408TIP3    H1 4160   6.938   0.226   5.121 -1.1962 -1.5935 -0.8077
 1408TIP3    H2 4161   6.969   0.201   4.975  1.1048  0.5191 -0.7162
 1409TIP3   OH2 4162   0.943   2.151   6.075 -0.0721 -0.8261 -0.4572
 1409TIP3    H1 4163   0.942   2.225   6.014 -0.1571 -0.6963 -0.2991
 1409TIP3    H2 4164   1.035   2.128   6.084 -0.1388 -1.5290 -1.4616
 1410TIP3   OH2 4165   5.594   7.696   6.765 -0.7476 -0.0220 -0.1199
 1410TIP3    H1 4166   5.683   7.730   6.773 -0.7487 -0.0831  0.1653
 1410TIP3    H2 4167   5.585   7.635   6.839 -1.2691  0.5208  0.2626
 1411TIP3   OH2 4168   2.092   2.914   1.604 -0.1195 -0.2176 -0.4056
 1411TIP3    H1 4169   2.020   2.855   1.583  0.1270 -0.8020  0.3756
 1411TIP3    H2 4170   2.116   2.953   1.520 -0.3741 -1.1163 -0.8996
 1412TIP3   OH2 4171   1.754   5.322   0.831  0.7210  0.1059  0.3539
 1412TIP3    H1 4172   1.708   5.332   0.914 -2.8495  0.4232 -1.5475
 1412TIP3    H2 4173   1.713   5.387   0.773  2.5652 -0.6560 -1.8797
 1413TIP3   OH2 4174   8.212   4.291   1.689  0.6404  0.3072  0.2502
 1413TIP3    H1 4175   8.307   4.287   1.699  0.3930 -2.1608  1.8013
 1413TIP3    H2 4176   8.183   4.351   1.758  1.0089  0.6648  0.0980
 1414TIP3   OH2 4177   4.065   3.466   1.917 -0.4607  0.7318  0.0477
 1414TIP3    H1 4178   4.153   3.428   1.917  0.4560  2.7513 -1.1421
 1414TIP3    H2 4179   4.037   3.462   2.009  1.1496  0.6427  0.5541
 1415TIP3   OH2 4180   3.132   5.920   1.860 -0.4848 -0.3806 -0.3195
 1415TIP3    H1 4181   3.088   5.878   1.933 -0.6214 -0.0689 -0.2237
 1415TIP3    H2 4182   3.150   5.849   1.799 -1.3438 -0.4680 -0.4763
 1416TIP3   OH2 4183   0.849   3.408   2.319 -0.7399  0.6243  0.3542
 1416TIP3    H1 4184   0.842   3.329   2.372 -0.7349  0.2826 -0.1467
 1416TIP3    H2 4185   0.800   3.387   2.239  2.1157 -0.1426 -1.2686
 1417TIP3   OH2 4186   7.297   4.613   1.024  0.0449  0.2605 -0.2058
 1417TIP3    H1 4187   7.224   4.662   0.986  0.4073  0.1186 -1.0827
 1417TIP3    H2 4188   7.255   4.541   1.072 -0.4649  1.1374  0.6862
 1418TIP3   OH2 4189   1.545   4.511   0.984  0.0353  0.3679  0.2780
 1418TIP3    H1 4190   1.543   4.439   0.920  0.5774  0.0438  0.6231
 1418TIP3    H2 4191   1.470   4.566   0.961 -0.0334  0.0074 -0.3571
 1419TIP3   OH2 4192   0.000   2.623   6.074  0.0800  0.2305  0.5403
 1419TIP3    H1 4193  -0.011   2.718   6.079  1.1687  0.3495  0.7543
 1419TIP3    H2 4194   0.066   2.610   6.006 -0.2234 -0.3914  0.3610
 1420TIP3   OH2 4195   7.648   3.593   1.600 -0.2190  0.0183 -0.2080
 1420TIP3    H1 4196   7.566   3.631   1.567 -0.1828  0.2682 -0.0125
 1420TIP3    H2 4197   7.676   3.533   1.531  0.2096  1.0431 -0.9240
 1421TIP3   OH2 4198   1.890   5.446   1.310 -0.7320  0.1428  0.0152
 1421TIP3    H1 4199   1.901   5.521   1.369  1.9301 -0.5693  0.5066
 1421TIP3    H2 4200   1.871   5.373   1.369  1.0460 -0.3947 -0.0410
 1422TIP3   OH2 4201   0.567   6.614   1.068  0.3565  0.1035 -0.1064
 1422TIP3    H1 4202   0.478   6.631   1.039  0.4140 -0.2545 -0.4942
 1422TIP3    H2 4203   0.619   6.614   0.988  0.7322  0.4853  0.1375
 1423TIP3   OH2 4204   1.950   5.800   3.011 -0.1714  0.4765  0.0844
 1423TIP3    H1 4205   2.013   5.760   3.071 -0.4820  0.4645  0.4020
 1423TIP3    H2 4206   1.996   5.875   2.973 -1.1691  2.6240  2.9977
 1424TIP3   OH2 4207   2.148   4.264   2.689 -0.1964 -0.4845 -0.3893
 1424TIP3    H1 4208   2.170   4.340   2.743  0.7254 -0.8771 -0.2076
 1424TIP3    H2 4209   2.075   4.223   2.735 -1.0879  0.6248 -0.8015
 1425TIP3   OH2 4210   2.778   5.644   1.155 -0.0856  0.3214  0.1932
 1425TIP3    H1 4211   2.713   5.598   1.102 -0.1137  0.0634  0.4537
 1425TIP3    H2 4212   2.851   5.583   1.162  0.2189  0.6434 -0.1682
 1426TIP3   OH2 4213   0.949   5.380   0.519  0.1059 -0.1525  0.6854
 1426TIP3    H1 4214   0.878   5.320   0.496  0.1118  0.6590 -1.5897
 1426TIP3    H2 4215   0.987   5.343   0.598 -0.7133 -2.4407  0.0498
 1427TIP3   OH2 4216   1.941   6.221   2.273  0.3410 -0.3279  0.5250
 1427TIP3    H1 4217   1.959   6.287   2.206  0.9075  0.1764  1.1823
 1427TIP3    H2 4218   1.968   6.138   2.232 -0.8018 -0.2275 -0.4715
 1428TIP3   OH2 4219   1.110   6.205   1.494  0.1703 -0.4571 -0.0547
 1428TIP3    H1 4220   1.080   6.269   1.559  0.0759  0.3182 -0.8476
 1428TIP3    H2 4221   1.175   6.252   1.442  0.4610 -1.1643 -0.3374
 1429TIP3   OH2 4222   1.026   3.268   1.976  0.1636  0.0978  0.7951
 1429TIP3    H1 4223   0.995   3.188   2.018  0.7539 -0.5945 -0.0816
 1429TIP3    H2 4224   0.965   3.284   1.904 -0.2113  0.6836  1.2371
 1430TIP3   OH2 4225   6.191   7.750   4.820 -0.5101  0.2087 -0.0546
 1430TIP3    H1 4226   6.248   7.781   4.890  0.2529 -0.1348 -0.5182
 1430TIP3    H2 4227   6.123   7.817   4.813  2.0835  2.7650 -2.2692
 1431TIP3   OH2 4228   1.929   4.162   1.471  0.0402 -0.0310 -0.1953
 1431TIP3    H1 4229   1.903   4.227   1.406 -1.7776 -1.2113 -0.6685
 1431TIP3    H2 4230   1.852   4.152   1.527  0.6478 -1.0724  0.4688
 1432TIP3   OH2 4231   8.019   3.987   0.270  0.7354 -0.2519 -0.4656
 1432TIP3    H1 4232   8.092   3.963   0.327  0.4226 -1.1209 -0.4228
 1432TIP3    H2 4233   7.941   3.976   0.325  0.4147 -1.3208 -1.1328
 1433TIP3   OH2 4234   7.424   0.162   6.739  0.3903  0.3923  0.0847
 1433TIP3    H1 4235   7.429   0.170   6.644  1.1064  0.2641  0.1152
 1433TIP3    H2 4236   7.378   0.079   6.753 -0.4538  0.8142 -0.1521
 1434TIP3   OH2 4237   6.932   3.266   0.881  0.3515  0.5448  0.0760
 1434TIP3    H1 4238   7.017   3.260   0.925  0.9316 -1.2856 -1.2872
 1434TIP3    H2 4239   6.942   3.338   0.819  0.2962  1.5247  1.1657
 1435TIP3   OH2 4240   2.091   4.407   1.311  0.3092 -0.8561  0.1073
 1435TIP3    H1 4241   2.167   4.375   1.360  0.7774  0.6854  0.4079
 1435TIP3    H2 4242   2.093   4.358   1.229  1.1231 -1.4436  0.4684
 1436TIP3   OH2 4243   1.499   3.128   1.540 -0.6961 -0.5708 -0.5932
 1436TIP3    H1 4244   1.453   3.075   1.605 -0.2499 -0.3192 -0.0582
 1436TIP3    H2 4245   1.518   3.210   1.586 -2.2980  0.4657 -1.7355
 1437TIP3   OH2 4246   0.950   3.540   0.410  0.1192  0.1172  0.5062
 1437TIP3    H1 4247   0.961   3.597   0.485  1.2157  0.4469  0.0995
 1437TIP3    H2 4248   0.885   3.584   0.355  1.2694  1.2044 -0.0121
 1438TIP3   OH2 4249   1.073   4.442   2.155 -0.4241  0.3125  0.6619
 1438TIP3    H1 4250   1.111   4.354   2.162 -1.4627 -0.1333  0.7320
 1438TIP3    H2 4251   1.121   4.494   2.220  0.5104 -0.0839  0.3008
 1439TIP3   OH2 4252   0.753   0.414   5.969  0.1281 -0.1333 -0.0357
 1439TIP3    H1 4253   0.771   0.407   5.875  2.1919 -0.9516  0.3940
 1439TIP3    H2 4254   0.761   0.324   6.001 -1.4279  0.0100  0.7888
 1440TIP3   OH2 4255   2.191   5.467   0.471 -0.0445 -0.5248 -0.1927
 1440TIP3    H1 4256   2.175   5.471   0.377  1.8389 -0.6495 -0.5428
 1440TIP3    H2 4257   2.149   5.386   0.499 -0.4269 -0.6001 -0.9678
 1441TIP3   OH2 4258   5.271   7.532   5.293 -0.4540 -0.5391 -0.1146
 1441TIP3    H1 4259   5.262   7.594   5.366 -0.1532 -0.0498 -0.4945
 1441TIP3    H2 4260   5.321   7.580   5.227 -0.6694 -1.0072 -0.6168
 1442TIP3   OH2 4261   0.811   3.404   0.623 -0.2232 -0.2126 -0.1600
 1442TIP3    H1 4262   0.871   3.430   0.553 -1.0412  0.4814 -0.6180
 1442TIP3    H2 4263   0.843   3.319   0.651  1.2829  0.3695 -0.0459
 1443TIP3   OH2 4264   3.964   2.541   0.519 -0.1804  0.0045  0.1964
 1443TIP3    H1 4265   3.904   2.521   0.592  1.2106  1.1033  1.6788
 1443TIP3    H2 4266   3.948   2.633   0.499  0.8467  0.2436  0.4525
 1444TIP3   OH2 4267   6.141   7.644   6.343  0.4520 -0.4873 -0.1051
 1444TIP3    H1 4268   6.125   7.589   6.420  1.1437 -0.9755 -0.3077
 1444TIP3    H2 4269   6.119   7.588   6.269  1.0225 -0.4400 -0.3078
 1445TIP3   OH2 4270   2.049   4.744   0.390 -0.3520  0.4402 -0.4493
 1445TIP3    H1 4271   1.995   4.697   0.327 -1.1550  1.2260 -0.3646
 1445TIP3    H2 4272   2.041   4.836   0.364  0.7332  0.5920 -0.2721
 1446TIP3   OH2 4273   1.182   5.212   1.483  0.8466  1.3144 -0.6407
 1446TIP3    H1 4274   1.269   5.226   1.520  0.4932  2.3882 -0.1951
 1446TIP3    H2 4275   1.125   5.271   1.533 -0.0497  0.9768 -1.2559
 1447TIP3   OH2 4276   8.486   1.524   4.621  0.1102 -0.2696  0.1241
 1447TIP3    H1 4277   8.414   1.479   4.665  0.4222 -1.1624 -0.2710
 1447TIP3    H2 4278   8.456   1.614   4.612 -1.2488 -0.7760 -0.6279
 1448TIP3   OH2 4279   1.540   2.442   5.544  0.8396 -0.2194 -0.0874
 1448TIP3    H1 4280   1.547   2.424   5.637 -1.5243 -0.3277  0.1058
 1448TIP3    H2 4281   1.544   2.355   5.502 -3.0055 -0.7170  0.3218
 1449TIP3   OH2 4282   7.351   2.541   4.629  0.2663  0.9007  0.1437
 1449TIP3    H1 4283   7.295   2.550   4.706 -0.4729 -0.8959 -0.1559
 1449TIP3    H2 4284   7.433   2.508   4.663 -0.2829 -0.5399  0.1040
 1450TIP3   OH2 4285   2.986   4.049   1.064 -0.0271 -0.0541  0.1694
 1450TIP3    H1 4286   3.003   3.991   0.990  1.9143 -1.1231  1.3898
 1450TIP3    H2 4287   3.072   4.087   1.085 -0.2797 -0.7617  2.6471
 1451TIP3   OH2 4288   3.268   2.788   1.643 -0.5071 -0.0189 -0.0562
 1451TIP3    H1 4289   3.315   2.805   1.562 -1.0000 -0.5507 -0.4553
 1451TIP3    H2 4290   3.270   2.872   1.690  2.0644 -0.4007  0.5788
 1452TIP3   OH2 4291   2.636   4.768   1.114  0.3650  0.2388 -0.0733
 1452TIP3    H1 4292   2.620   4.764   1.209  2.0281  1.8844  0.3075
 1452TIP3    H2 4293   2.710   4.828   1.105  0.2799  0.0291 -2.4290
 1453TIP3   OH2 4294   8.384   1.524   6.206 -0.3724 -0.0776  0.0511
 1453TIP3    H1 4295   8.317   1.588   6.230 -0.2139 -0.2129  0.8412
 1453TIP3    H2 4296   8.356   1.443   6.249 -0.3979 -0.4636 -0.6838
 1454TIP3   OH2 4297   1.090   4.652   0.396  0.1851  0.2056 -0.2178
 1454TIP3    H1 4298   1.127   4.575   0.353 -0.8810 -0.9641  0.9065
 1454TIP3    H2 4299   1.121   4.647   0.486 -0.4810  0.6813  0.0451
 1455TIP3   OH2 4300   0.918   1.198   6.558  0.5745 -0.6561  0.2338
 1455TIP3    H1 4301   0.845   1.200   6.496  0.3721  0.7977  0.4980
 1455TIP3    H2 4302   0.878   1.216   6.643  1.4288  2.0517  0.1311
 1456TIP3   OH2 4303   2.886   5.890   1.292 -0.0480 -0.3441  0.0783
 1456TIP3    H1 4304   2.972   5.916   1.259 -0.7346  0.9271 -0.7818
 1456TIP3    H2 4305   2.845   5.845   1.217 -1.2591  1.7184 -0.5285
 1457TIP3   OH2 4306   4.351   4.426   1.822  0.5546  0.5037 -0.4878
 1457TIP3    H1 4307   4.399   4.420   1.904  1.0317 -0.0022 -0.7945
 1457TIP3    H2 4308   4.404   4.376   1.760 -1.0294 -1.2099 -0.5192
 1458TIP3   OH2 4309   0.704   2.504   6.080  0.0820  0.5774  0.3309
 1458TIP3    H1 4310   0.779   2.531   6.133  0.3787 -0.4618  0.4478
 1458TIP3    H2 4311   0.628   2.517   6.138  0.3270  0.1762  0.7488
 1459TIP3   OH2 4312   2.163   4.971   1.647  0.1075  0.3709 -0.9037
 1459TIP3    H1 4313   2.126   5.030   1.582 -1.7333  0.9596  0.6473
 1459TIP3    H2 4314   2.140   5.009   1.732  0.9373 -1.3106  0.1212
 1460TIP3   OH2 4315   5.228   4.179   0.709  0.1419 -0.4406 -0.1716
 1460TIP3    H1 4316   5.159   4.120   0.679  0.7999 -0.9023 -0.7898
 1460TIP3    H2 4317   5.292   4.122   0.752 -0.3361  0.1069  1.2713
 1461TIP3   OH2 4318   2.941   3.917   0.773 -0.4892 -0.0873 -0.0207
 1461TIP3    H1 4319   2.873   3.982   0.754 -3.5994 -2.7651  1.3901
 1461TIP3    H2 4320   2.967   3.884   0.687 -1.3525  0.6430 -0.5685
 1462TIP3   OH2 4321   3.557   5.590   0.588  0.1306 -0.2609 -0.8284
 1462TIP3    H1 4322   3.491   5.592   0.657  2.1183  1.9125  1.0858
 1462TIP3    H2 4323   3.629   5.540   0.626  2.4774  3.5293 -0.1034
 1463TIP3   OH2 4324   2.599   1.909   5.200  0.3919  0.1881 -0.0517
 1463TIP3    H1 4325   2.580   1.949   5.115 -0.4915 -1.7284 -0.7834
 1463TIP3    H2 4326   2.693   1.921   5.212  0.6981 -0.3911 -1.7622
 1464TIP3   OH2 4327   4.495   2.515   1.852  0.5306  0.2222  0.9749
 1464TIP3    H1 4328   4.564   2.537   1.914  0.6569  0.9368  0.5862
 1464TIP3    H2 4329   4.526   2.435   1.809  0.1459 -0.6333  2.2730
 1465TIP3   OH2 4330   2.685   1.611   2.457 -0.0135  0.6022 -0.0284
 1465TIP3    H1 4331   2.718   1.540   2.511  0.3188 -0.8855 -2.1391
 1465TIP3    H2 4332   2.620   1.570   2.399  1.0593  1.7379 -2.1224
 1466TIP3   OH2 4333   0.110   2.231   5.449 -0.2336  0.0497  0.0596
 1466TIP3    H1 4334   0.044   2.219   5.380  1.7925  1.2499 -2.1595
 1466TIP3    H2 4335   0.079   2.306   5.500 -0.6243  0.5676 -0.9359
 1467TIP3   OH2 4336   0.600   0.693   5.832 -0.3231  0.0590  0.1962
 1467TIP3    H1 4337   0.681   0.670   5.877  0.0707 -0.2689 -0.6787
 1467TIP3    H2 4338   0.592   0.788   5.843  0.2298  0.1058  0.1857
 1468TIP3   OH2 4339   2.825   6.432   0.960  0.6735 -0.7254  0.1430
 1468TIP3    H1 4340   2.915   6.436   0.993  0.7146  0.8174 -0.1525
 1468TIP3    H2 4341   2.771   6.457   1.034  0.4793 -1.6683  0.3249
 1469TIP3   OH2 4342   8.023   0.598   5.674 -0.2564 -0.2812  0.4781
 1469TIP3    H1 4343   8.096   0.627   5.728  0.5823 -0.3186 -0.6112
 1469TIP3    H2 4344   8.013   0.505   5.696  0.7218 -0.5422 -0.1246
 1470TIP3   OH2 4345   1.376   2.376   6.770  0.1733  0.4300  0.1222
 1470TIP3    H1 4346   1.321   2.378   6.691 -1.5092  0.4366  1.2520
 1470TIP3    H2 4347   1.463   2.352   6.739  0.0549  2.6205 -2.0421
 1471TIP3   OH2 4348   5.254   7.987   6.281  0.0444  0.2175 -0.1858
 1471TIP3    H1 4349   5.336   8.009   6.325  0.4910 -0.4544 -0.6684
 1471TIP3    H2 4350   5.281   7.945   6.200 -0.7628 -1.6753  0.4864
 1472TIP3   OH2 4351   2.430   6.483   0.058 -0.2927 -0.6690 -0.4629
 1472TIP3    H1 4352   2.424   6.576   0.081 -1.1044 -1.3185  2.1647
 1472TIP3    H2 4353   2.371   6.473  -0.017  0.1863  1.0207 -1.0861
 1473TIP3   OH2 4354   7.911   1.198   4.642 -0.5183 -0.6337  0.1652
 1473TIP3    H1 4355   7.965   1.277   4.633 -0.7167 -0.6584 -1.3457
 1473TIP3    H2 4356   7.828   1.230   4.676 -0.6770 -0.1519 -0.6682
 1474TIP3   OH2 4357   7.365   0.969   5.495 -0.4742 -0.3341 -0.6071
 1474TIP3    H1 4358   7.311   0.901   5.455  1.4080 -2.1849 -0.0353
 1474TIP3    H2 4359   7.451   0.959   5.454 -0.0488  1.4178 -0.1889
 1475TIP3   OH2 4360   1.988   5.472   0.707 -0.5304 -0.3462  0.5635
 1475TIP3    H1 4361   1.909   5.439   0.750 -0.6473 -0.5533  0.1878
 1475TIP3    H2 4362   2.017   5.400   0.651  0.6180 -0.7249  1.6223
 1476TIP3   OH2 4363   2.493   4.786   2.196  0.1337  0.1677 -0.0606
 1476TIP3    H1 4364   2.413   4.839   2.198 -0.2508 -0.4548  0.9532
 1476TIP3    H2 4365   2.513   4.768   2.287  2.3709  1.7205 -0.1822
 1477TIP3   OH2 4366   0.424   3.373   5.083 -0.0597  0.1142  0.1581
 1477TIP3    H1 4367   0.367   3.301   5.110 -0.7566  0.2742 -0.8320
 1477TIP3    H2 4368   0.364   3.436   5.042  1.0162 -0.4831 -2.4807
 1478TIP3   OH2 4369   8.496   2.151   6.547  0.0607  0.1661  0.8209
 1478TIP3    H1 4370   8.448   2.180   6.624 -0.6205 -0.1776  0.5321
 1478TIP3    H2 4371   8.438   2.170   6.473  0.5519  0.1526  0.4213
 1479TIP3   OH2 4372   3.384   3.530   0.489  0.3109 -0.0704 -0.0897
 1479TIP3    H1 4373   3.350   3.516   0.400 -1.2548 -0.3512  0.5406
 1479TIP3    H2 4374   3.371   3.624   0.504 -1.5352 -0.4392  0.6882
 1480TIP3   OH2 4375   3.613   6.438   1.239  0.5346 -0.0150 -0.7869
 1480TIP3    H1 4376   3.659   6.379   1.179 -0.5106 -2.0427  0.3433
 1480TIP3    H2 4377   3.672   6.446   1.314  0.1600 -0.6101 -0.4218
 1481TIP3   OH2 4378   2.139   5.625   0.236  0.5347 -0.0902 -0.1172
 1481TIP3    H1 4379   2.070   5.681   0.271  1.7620 -0.1340  2.5089
 1481TIP3    H2 4380   2.174   5.674   0.161 -1.2081  0.6839 -0.4547
 1482TIP3   OH2 4381   1.709   1.235   6.617 -0.4158 -0.2169 -0.0324
 1482TIP3    H1 4382   1.729   1.255   6.709 -1.3118  1.5271 -0.2059
 1482TIP3    H2 4383   1.616   1.255   6.607 -0.3401 -0.4478 -1.3184
 1483TIP3   OH2 4384   3.119   6.568   2.598 -0.3106 -0.8007 -0.1439
 1483TIP3    H1 4385   3.076   6.648   2.629 -2.4167 -2.4860  1.4713
 1483TIP3    H2 4386   3.195   6.558   2.656 -0.4481 -0.3432  0.1211
 1484TIP3   OH2 4387   1.248   1.792   6.675  0.2733  0.0939  0.3379
 1484TIP3    H1 4388   1.165   1.753   6.701  0.7703 -0.8113  0.5561
 1484TIP3    H2 4389   1.282   1.832   6.755 -0.1964  0.9125  0.1330
 1485TIP3   OH2 4390   4.416   5.549   0.961  0.6435  0.0513  0.0469
 1485TIP3    H1 4391   4.366   5.577   1.038  0.6990 -1.0342  0.4741
 1485TIP3    H2 4392   4.383   5.605   0.891 -0.9154 -0.3936  0.4052
 1486TIP3   OH2 4393   3.364   2.068   2.476  0.2118 -0.4007  0.4157
 1486TIP3    H1 4394   3.374   2.007   2.402  0.5057 -0.8835  0.8465
 1486TIP3    H2 4395   3.271   2.060   2.500  0.1978 -0.5168  0.3287
 1487TIP3   OH2 4396   3.034   5.048   0.403 -0.4299 -0.0167  0.7275
 1487TIP3    H1 4397   2.979   4.990   0.454  0.3575 -1.5977 -0.1832
 1487TIP3    H2 4398   3.034   5.011   0.315  0.2004  1.2853  0.1592
 1488TIP3   OH2 4399   0.908   1.971   6.523  0.2487 -0.7320 -0.0993
 1488TIP3    H1 4400   0.861   1.998   6.445  0.1122 -1.6681 -0.3499
 1488TIP3    H2 4401   0.859   1.896   6.556  0.9549 -1.0589  0.2244
 1489TIP3   OH2 4402   1.174   0.755   5.242  0.0000  0.1881  0.4544
 1489TIP3    H1 4403   1.151   0.772   5.150  0.2516  1.4702  0.6305
 1489TIP3    H2 4404   1.207   0.838   5.275 -0.3894 -0.1793  1.8086
 1490TIP3   OH2 4405   2.772   4.423   0.442 -0.4527 -0.1307  0.8394
 1490TIP3    H1 4406   2.827   4.502   0.443  0.0020 -0.4446  0.9228
 1490TIP3    H2 4407   2.745   4.413   0.350 -0.6233  0.1991  0.8547
 1491TIP3   OH2 4408   7.121   1.025   5.822  0.1311 -0.2344 -0.3586
 1491TIP3    H1 4409   7.035   1.020   5.781  0.7201  0.9443 -1.7929
 1491TIP3    H2 4410   7.155   0.936   5.820 -0.9381 -0.6570 -0.0038
 1492TIP3   OH2 4411   3.884   6.165   0.303 -0.5313  0.4206  0.1209
 1492TIP3    H1 4412   3.830   6.208   0.370  0.0487  2.1880 -0.5094
 1492TIP3    H2 4413   3.956   6.227   0.287  0.8306 -1.1886 -0.1838
 1493TIP3   OH2 4414   2.189   6.335   0.745 -0.2917 -0.3160 -0.6915
 1493TIP3    H1 4415   2.127   6.266   0.767  1.7111 -0.9967  3.1499
 1493TIP3    H2 4416   2.275   6.292   0.745  0.8558  1.8715  0.4408
 1494TIP3   OH2 4417   3.139   3.120   1.075 -0.1503 -0.2117  0.1082
 1494TIP3    H1 4418   3.122   3.151   1.163  0.1407 -0.8426  0.3892
 1494TIP3    H2 4419   3.235   3.112   1.070 -0.0664  1.0923 -0.6968
 1495TIP3   OH2 4420   1.543   4.742   2.676 -0.3921 -0.0686  0.2945
 1495TIP3    H1 4421   1.562   4.817   2.733  0.7593  0.4780 -0.8011
 1495TIP3    H2 4422   1.629   4.707   2.651 -0.8320  0.4605 -2.1030
 1496TIP3   OH2 4423   0.681   4.050   2.275  0.3596 -0.2001 -0.0475
 1496TIP3    H1 4424   0.679   4.146   2.274  1.0190 -0.1432  1.8406
 1496TIP3    H2 4425   0.763   4.028   2.319 -0.1603 -1.6179  0.2462
 1497TIP3   OH2 4426   2.566   5.557   1.000  0.4177  0.1260  0.7297
 1497TIP3    H1 4427   2.498   5.607   0.954  0.1213  0.5692  1.6353
 1497TIP3    H2 4428   2.523   5.475   1.025  0.8820 -0.5554 -0.6898
 1498TIP3   OH2 4429   2.757   4.566  -0.016  0.4484  0.4784  0.6448
 1498TIP3    H1 4430   2.663   4.556  -0.005  0.0696  0.5651 -2.2478
 1498TIP3    H2 4431   2.784   4.620   0.058 -1.6086 -0.2536  1.9778
 1499TIP3   OH2 4432   7.618   0.528   6.509  0.7432  0.5816 -0.4474
 1499TIP3    H1 4433   7.583   0.563   6.428  0.5325 -1.2299 -1.1650
 1499TIP3    H2 4434   7.712   0.516   6.492  0.3595 -1.7288 -1.1801
 1500TIP3   OH2 4435   2.338   0.854   4.924 -0.1709 -0.1891 -0.2313
 1500TIP3    H1 4436   2.296   0.778   4.884 -0.4834 -0.0406 -0.1838
 1500TIP3    H2 4437   2.271   0.923   4.922 -0.7575 -0.6557  2.0584
 1501TIP3   OH2 4438   6.793   0.511   5.806  0.1214 -0.1346  0.4482
 1501TIP3    H1 4439   6.809   0.573   5.734  1.6166  0.3642  1.1973
 1501TIP3    H2 4440   6.723   0.455   5.773  0.5549  0.2962 -1.2862
 1502TIP3   OH2 4441   3.367   5.795   1.326  0.6370  0.1805 -0.0592
 1502TIP3    H1 4442   3.287   5.791   1.379  0.7370  0.8245  0.1405
 1502TIP3    H2 4443   3.337   5.827   1.240  0.4430 -1.0523 -0.4611
 1503TIP3   OH2 4444   4.463   7.253   6.273 -0.2291  0.3299  0.1003
 1503TIP3    H1 4445   4.474   7.348   6.273 -1.6787  0.5118 -1.4465
 1503TIP3    H2 4446   4.375   7.239   6.239  0.3797 -1.6050 -0.7429
 1504TIP3   OH2 4447   1.662   2.190   4.766  0.3311  0.0195  0.0366
 1504TIP3    H1 4448   1.672   2.188   4.671  0.1062 -0.0199  0.0141
 1504TIP3    H2 4449   1.741   2.146   4.799  0.0161 -0.6898 -0.1595
 1505TIP3   OH2 4450   4.433   7.931   1.122  0.6506 -0.2809  0.4479
 1505TIP3    H1 4451   4.375   7.857   1.140 -2.0960  1.8875  0.9757
 1505TIP3    H2 4452   4.469   7.912   1.035 -1.4515 -1.3986 -0.2381
 1506TIP3   OH2 4453   1.661   3.476   0.821  0.0798  0.1287 -0.0417
 1506TIP3    H1 4454   1.742   3.442   0.781 -0.1454  0.2545 -0.6099
 1506TIP3    H2 4455   1.691   3.529   0.895  0.5294  0.3757 -0.3993
 1507TIP3   OH2 4456   2.997   4.434   1.275 -0.0687  0.2921 -0.1343
 1507TIP3    H1 4457   2.919   4.395   1.313  0.2079  1.5792  1.8347
 1507TIP3    H2 4458   3.000   4.523   1.310  1.5054  0.7455 -1.3176
 1508TIP3   OH2 4459   5.372   4.562   2.964 -0.2081 -0.2542  0.3539
 1508TIP3    H1 4460   5.412   4.629   3.019  0.9004 -1.3023  0.8515
 1508TIP3    H2 4461   5.399   4.585   2.875 -0.6991  0.5445  0.4043
 1509TIP3   OH2 4462   6.279   1.492   6.610  0.1408 -0.6347  0.6934
 1509TIP3    H1 4463   6.304   1.555   6.543 -0.2119 -0.8625  0.3414
 1509TIP3    H2 4464   6.356   1.485   6.667  0.7252 -1.0044 -0.1268
 1510TIP3   OH2 4465   8.487   0.918   6.043  0.6917  0.1650 -0.3223
 1510TIP3    H1 4466   8.446   0.926   5.957  0.1606 -0.4709 -0.1354
 1510TIP3    H2 4467   8.484   0.824   6.063  0.8254  0.3024  0.3847
 1511TIP3   OH2 4468   3.973   5.474   1.051  0.9350  0.4275 -0.2223
 1511TIP3    H1 4469   4.026   5.517   0.985  2.0624  0.1545  0.5024
 1511TIP3    H2 4470   3.923   5.408   1.003  0.1963  1.6111 -1.1172
 1512TIP3   OH2 4471   7.349   0.914   6.310 -0.2707 -0.2256  0.4986
 1512TIP3    H1 4472   7.402   0.917   6.230  0.6375  1.0811  1.1235
 1512TIP3    H2 4473   7.270   0.965   6.288 -0.1375 -0.0792  0.3616
 1513TIP3   OH2 4474   0.171   0.352   6.440 -0.0220  0.4020  0.3833
 1513TIP3    H1 4475   0.221   0.394   6.510  0.6539 -0.4542  0.4321
 1513TIP3    H2 4476   0.226   0.278   6.413 -0.8561 -0.0202 -0.1818
 1514TIP3   OH2 4477   2.006   3.455   1.807 -0.0739  0.4003  0.1686
 1514TIP3    H1 4478   1.973   3.365   1.809 -0.4183  0.5319  0.4801
 1514TIP3    H2 4479   2.003   3.480   1.714  1.8779 -0.5905 -0.1820
 1515TIP3   OH2 4480   0.489   2.572   6.899  0.0239 -0.1134 -0.5165
 1515TIP3    H1 4481   0.501   2.665   6.878  3.0413 -0.4882 -0.7188
 1515TIP3    H2 4482   0.413   2.546   6.847 -1.1780  2.3424 -0.0756
 1516TIP3   OH2 4483   4.009   3.648   1.279 -0.0868  0.2332  0.2109
 1516TIP3    H1 4484   4.044   3.559   1.280 -1.2291 -0.2107  0.1979
 1516TIP3    H2 4485   4.039   3.686   1.362 -0.1390 -0.3671  0.5080
 1517TIP3   OH2 4486   1.222   2.324   6.248 -0.0050 -0.3921  0.8269
 1517TIP3    H1 4487   1.132   2.344   6.272 -0.2702  1.7883 -1.7509
 1517TIP3    H2 4488   1.270   2.324   6.331 -1.6656  2.3489  1.8375
 1518TIP3   OH2 4489   1.730   5.783   0.780  0.0672  0.2440  0.3041
 1518TIP3    H1 4490   1.824   5.794   0.765  0.1836  1.9320  2.0728
 1518TIP3    H2 4491   1.690   5.860   0.742 -0.8565 -1.4929 -2.3532
 1519TIP3   OH2 4492   0.629   2.162   5.360 -0.1407  0.1472  0.1652
 1519TIP3    H1 4493   0.545   2.201   5.386  0.6627 -0.1524  3.3856
 1519TIP3    H2 4494   0.605   2.082   5.314 -1.6569  1.2216 -0.9745
 1520TIP3   OH2 4495   0.265   1.391   6.196 -0.1976 -0.0760  0.1573
 1520TIP3    H1 4496   0.229   1.479   6.210 -0.5995  0.0024 -1.2609
 1520TIP3    H2 4497   0.341   1.406   6.140 -1.0061 -0.7440 -1.1414
 1521TIP3   OH2 4498   6.474   6.057   6.750 -0.0028 -0.0219 -0.4715
 1521TIP3    H1 4499   6.519   6.105   6.681  1.8522 -0.3216  0.4924
 1521TIP3    H2 4500   6.447   5.975   6.709 -0.0468  0.3447 -1.1777
 1522TIP3   OH2 4501   1.501   3.547   0.119 -0.7681 -0.0351  0.1294
 1522TIP3    H1 4502   1.554   3.597   0.057 -0.4914  0.3410  0.6648
 1522TIP3    H2 4503   1.563   3.511   0.182 -1.2678  1.8008  1.7382
 1523TIP3   OH2 4504   1.139   6.615   1.195  0.4585 -0.3111  0.0806
 1523TIP3    H1 4505   1.208   6.559   1.161  0.6037  0.4556 -0.9184
 1523TIP3    H2 4506   1.176   6.703   1.193 -0.7885  0.2194 -1.1875
 1524TIP3   OH2 4507   1.053   2.522   6.364 -0.5570  0.6233 -0.3484
 1524TIP3    H1 4508   1.012   2.478   6.439  0.4580 -0.3162 -0.3298
 1524TIP3    H2 4509   0.979   2.553   6.312 -1.3150 -0.8813 -0.2106
 1525TIP3   OH2 4510   8.298   0.119   6.461  0.3773  0.2784  0.0790
 1525TIP3    H1 4511   8.382   0.091   6.426  0.0136 -0.0580 -0.5554
 1525TIP3    H2 4512   8.300   0.215   6.458  0.6878  0.2658 -0.0593
 1526TIP3   OH2 4513   2.941   6.582   0.354  0.2781  0.4225  0.3890
 1526TIP3    H1 4514   2.913   6.522   0.286  0.4481 -0.6276  1.2285
 1526TIP3    H2 4515   3.014   6.538   0.397  0.2485  1.1152  1.1771
 1527TIP3   OH2 4516   1.440   0.945   4.718  0.5511 -0.0614 -0.4732
 1527TIP3    H1 4517   1.464   1.005   4.647 -1.5933 -0.1314 -1.2805
 1527TIP3    H2 4518   1.376   0.994   4.770  1.2965 -0.4167  0.7976
 1528TIP3   OH2 4519   2.321   4.982   1.250 -0.1877  0.1811  0.0016
 1528TIP3    H1 4520   2.257   5.041   1.289 -1.5107  0.8795 -3.0357
 1528TIP3    H2 4521   2.268   4.911   1.212  1.0022 -0.3459 -0.7097
 1529TIP3   OH2 4522   3.597   2.854   0.033  0.2627 -0.4576 -0.2840
 1529TIP3    H1 4523   3.557   2.927  -0.015  0.7501  0.4344  0.6414
 1529TIP3    H2 4524   3.564   2.776  -0.011  0.1165  0.3246 -1.6123
 1530TIP3   OH2 4525   1.314   0.664   5.997 -0.2751 -0.1119  1.0438
 1530TIP3    H1 4526   1.383   0.674   5.931 -1.0732  0.3891  0.2784
 1530TIP3    H2 4527   1.360   0.671   6.081  0.6489 -0.0661  0.5336
 1531TIP3   OH2 4528   2.415   3.866   1.265  0.2908  0.4439 -0.2612
 1531TIP3    H1 4529   2.422   3.808   1.190 -0.1949  1.7858 -1.3576
 1531TIP3    H2 4530   2.332   3.913   1.252  0.1676  0.6547  1.1281
 1532TIP3   OH2 4531   3.112   4.364   0.234  0.1924  0.0267  0.4941
 1532TIP3    H1 4532   3.056   4.333   0.304 -0.4903  0.5178  0.1680
 1532TIP3    H2 4533   3.070   4.334   0.153  1.4698 -1.3555  0.3211
 1533TIP3   OH2 4534   3.238   3.405   2.266 -0.3264 -0.3818  0.2926
 1533TIP3    H1 4535   3.194   3.321   2.280 -3.5714  1.1959  0.0065
 1533TIP3    H2 4536   3.211   3.458   2.341  2.4117  0.1470  0.9346
 1534TIP3   OH2 4537   2.714   4.374   1.247 -0.0667  0.3325 -0.2883
 1534TIP3    H1 4538   2.650   4.421   1.194  0.0682 -0.1570 -0.8990
 1534TIP3    H2 4539   2.682   4.284   1.249  0.3426  0.1862 -0.1843
 1535TIP3   OH2 4540   5.451   7.488   6.366 -0.1812 -0.2233 -0.3416
 1535TIP3    H1 4541   5.540   7.521   6.375 -0.6328  1.5988 -2.1860
 1535TIP3    H2 4542   5.459   7.414   6.305  0.3051 -1.2409  0.9327
 1536TIP3   OH2 4543   6.248   5.448   6.006  0.4881  0.0814 -0.3045
 1536TIP3    H1 4544   6.206   5.447   6.092  0.9374  1.7251 -0.0417
 1536TIP3    H2 4545   6.267   5.356   5.988 -1.6760 -0.5327  0.3192
 1537TIP3   OH2 4546   4.457   5.086   0.951  0.3071 -0.3412  0.0530
 1537TIP3    H1 4547   4.415   5.021   0.894 -0.6627  0.5244 -0.2395
 1537TIP3    H2 4548   4.539   5.107   0.906  0.8712 -1.7265  0.4098
 1538TIP3   OH2 4549   2.232   2.210   1.631  0.3744 -0.1157  0.7031
 1538TIP3    H1 4550   2.231   2.117   1.655 -0.2068 -0.0489  0.9578
 1538TIP3    H2 4551   2.174   2.252   1.695 -0.9397  0.1208 -0.6088
 1539TIP3   OH2 4552   3.908   5.202   0.198  0.1292 -0.5137  0.2360
 1539TIP3    H1 4553   3.821   5.225   0.231  0.0293 -1.3721  0.5930
 1539TIP3    H2 4554   3.906   5.106   0.192  0.2481 -0.3976 -1.9854
 1540TIP3   OH2 4555   2.426   5.471   2.256  0.5151  0.4606 -0.0822
 1540TIP3    H1 4556   2.363   5.430   2.197  0.3092  1.9831 -0.9569
 1540TIP3    H2 4557   2.495   5.504   2.197  0.3444  1.9230  0.5271
 1541TIP3   OH2 4558   8.521   1.624   6.891 -0.1275 -0.3554  0.1955
 1541TIP3    H1 4559   8.435   1.657   6.916 -0.3767 -0.6685 -0.2534
 1541TIP3    H2 4560   8.506   1.573   6.811  0.4282 -0.6365  0.2644
 1542TIP3   OH2 4561   1.938   7.170   2.586 -0.5194 -0.3685  0.3289
 1542TIP3    H1 4562   1.911   7.121   2.508 -1.5097  0.2447  0.2798
 1542TIP3    H2 4563   1.961   7.256   2.553 -1.2838  0.0073  0.7557
 1543TIP3   OH2 4564   0.773   5.362   3.007 -0.1843 -0.1281 -0.3178
 1543TIP3    H1 4565   0.862   5.396   3.013 -1.2549  2.5154  1.0971
 1543TIP3    H2 4566   0.742   5.390   2.921 -0.6463  1.4612  0.3607
 1544TIP3   OH2 4567   2.739   5.665   0.735  0.1120 -0.0082 -0.1302
 1544TIP3    H1 4568   2.707   5.755   0.738  1.3050  0.4080  0.3604
 1544TIP3    H2 4569   2.695   5.622   0.809 -0.4599  0.1677 -0.3681
 1545TIP3   OH2 4570   4.524   5.962   0.989  0.3795 -0.1734  0.0624
 1545TIP3    H1 4571   4.540   6.014   1.068 -1.9685  2.5920 -1.2025
 1545TIP3    H2 4572   4.443   5.915   1.007  0.5557 -0.5804 -0.1977
 1546TIP3   OH2 4573   2.642   5.421   2.103  0.3030 -0.4178  0.0877
 1546TIP3    H1 4574   2.732   5.403   2.077  0.7912 -0.2288  1.6146
 1546TIP3    H2 4575   2.605   5.472   2.030  2.0365  1.2332  0.3330
 1547TIP3   OH2 4576   4.883   2.303   1.715  0.4365 -0.4012  0.7655
 1547TIP3    H1 4577   4.829   2.377   1.686  1.3372  0.8066  2.0783
 1547TIP3    H2 4578   4.915   2.264   1.633 -1.8972 -0.7585  0.0045
 1548TIP3   OH2 4579   3.130   3.455   3.681  0.5665  0.4388 -0.1026
 1548TIP3    H1 4580   3.133   3.469   3.775 -0.6415 -0.6523  0.1126
 1548TIP3    H2 4581   3.136   3.543   3.643  1.9022  0.8267  0.9513
 1549TIP3   OH2 4582   0.908   5.724   1.223  0.6578  0.4834  0.1597
 1549TIP3    H1 4583   0.902   5.630   1.243 -1.3170  0.1779 -1.6764
 1549TIP3    H2 4584   0.830   5.762   1.263 -0.1496  0.8261 -1.6934
 1550TIP3   OH2 4585   2.110   4.180   1.140 -0.1303  0.5878  0.2992
 1550TIP3    H1 4586   2.165   4.144   1.209 -0.3232 -0.2713  0.0127
 1550TIP3    H2 4587   2.109   4.112   1.072  2.4528  2.5594 -1.8515
 1551TIP3   OH2 4588   4.150   4.248   1.223  0.1908  0.4233  0.1207
 1551TIP3    H1 4589   4.226   4.194   1.247  0.6539  1.0451  0.0627
 1551TIP3    H2 4590   4.153   4.322   1.284 -0.1689  0.6322 -0.1127
 1552TIP3   OH2 4591   0.256   0.212   5.511 -0.2136 -0.3779 -0.5498
 1552TIP3    H1 4592   0.273   0.123   5.544 -1.8203 -0.3994  0.2586
 1552TIP3    H2 4593   0.254   0.267   5.590 -0.1557  0.2203 -0.9633
 1553TIP3   OH2 4594   3.777   3.361   0.980  0.3323 -0.0561 -0.2313
 1553TIP3    H1 4595   3.748   3.446   0.947  1.4719 -0.3543 -2.0736
 1553TIP3    H2 4596   3.731   3.297   0.925 -0.9073 -0.6738  1.4679
 1554TIP3   OH2 4597   0.805   3.429   1.474 -0.0823 -0.4050 -0.1333
 1554TIP3    H1 4598   0.855   3.399   1.398 -0.4654  1.3649 -1.1146
 1554TIP3    H2 4599   0.839   3.517   1.492 -1.6467  0.1395  0.2516
 1555TIP3   OH2 4600   1.619   3.885   3.815 -0.0972  0.0769 -0.4116
 1555TIP3    H1 4601   1.656   3.927   3.893 -0.9455 -1.2049  0.6999
 1555TIP3    H2 4602   1.695   3.866   3.760  0.4850  1.2572 -0.0520
 1556TIP3   OH2 4603   3.994   3.841   3.746  0.3808 -0.2236 -0.2035
 1556TIP3    H1 4604   3.905   3.859   3.775  0.6237  1.2339 -0.3467
 1556TIP3    H2 4605   3.999   3.745   3.745 -1.4416 -0.3299 -1.0291
 1557TIP3   OH2 4606   2.767   4.749   2.402 -0.4834 -0.5982  0.0679
 1557TIP3    H1 4607   2.752   4.838   2.434  1.0227 -0.2300 -0.2220
 1557TIP3    H2 4608   2.686   4.703   2.423 -1.7851  1.1590 -0.8973
 1558TIP3   OH2 4609   3.245   5.213   3.809  0.0420  0.1987  0.8186
 1558TIP3    H1 4610   3.313   5.211   3.877  0.0678 -1.2982  0.7591
 1558TIP3    H2 4611   3.293   5.213   3.727 -0.0169 -0.5195  0.7804
 1559TIP3   OH2 4612  -0.011   2.594   6.368  0.7004  0.2259  0.5007
 1559TIP3    H1 4613   0.003   2.563   6.278 -0.7631 -0.2068  0.4005
 1559TIP3    H2 4614   0.033   2.679   6.371  0.5232  0.3742 -0.7193
 1560TIP3   OH2 4615   2.389   4.019   0.949  0.0351 -0.0607 -0.0456
 1560TIP3    H1 4616   2.428   4.008   0.863  0.1247 -3.3878  0.3780
 1560TIP3    H2 4617   2.294   4.012   0.935 -0.0144  0.5364 -0.0266
 1561TIP3   OH2 4618   4.296   2.728   0.718  0.1947 -0.1116  0.6415
 1561TIP3    H1 4619   4.385   2.722   0.753  0.2813  0.7986  0.5716
 1561TIP3    H2 4620   4.239   2.708   0.793  0.3363  3.1272  1.6714
 1562TIP3   OH2 4621   2.724   5.004   2.542  0.0547 -0.6939 -0.4757
 1562TIP3    H1 4622   2.664   5.003   2.616  0.0525 -0.4660 -0.4738
 1562TIP3    H2 4623   2.704   5.086   2.496 -0.9800 -1.5425 -1.5699
 1563TIP3   OH2 4624   2.896   6.623   0.697 -0.3048 -0.3685 -0.6025
 1563TIP3    H1 4625   2.973   6.666   0.660 -0.1925 -1.6510 -1.9203
 1563TIP3    H2 4626   2.931   6.563   0.763 -0.4109  1.0530  0.7702
 1564TIP3   OH2 4627   0.761   7.420   0.109  0.1009 -0.1112  0.4062
 1564TIP3    H1 4628   0.766   7.514   0.123  0.2368  0.2447 -1.9214
 1564TIP3    H2 4629   0.679   7.394   0.152  0.1669  1.0262  1.2231
 1565TIP3   OH2 4630   1.217   5.559   2.049 -0.1415  0.6007  0.6759
 1565TIP3    H1 4631   1.258   5.626   2.104  0.7124  1.3480 -0.8481
 1565TIP3    H2 4632   1.287   5.495   2.033 -0.0735  0.9445 -0.4310
 1566TIP3   OH2 4633   5.709   4.701   1.452  0.3645  1.0323  0.3565
 1566TIP3    H1 4634   5.699   4.683   1.545  0.4724 -1.0439 -0.0077
 1566TIP3    H2 4635   5.637   4.653   1.410 -0.4649  2.9695 -0.5495
 1567TIP3   OH2 4636   3.799   2.969   2.955  0.0947 -0.0198 -0.3072
 1567TIP3    H1 4637   3.874   3.024   2.977 -0.2541  1.2849 -2.1723
 1567TIP3    H2 4638   3.813   2.946   2.863 -1.1718 -0.7750 -0.3273
 1568TIP3   OH2 4639   3.522   4.956   0.307  0.1530  0.5982  0.2558
 1568TIP3    H1 4640   3.459   4.971   0.379 -0.7768  0.1868 -0.4579
 1568TIP3    H2 4641   3.552   5.043   0.284 -2.1185  1.0718 -1.1080
 1569TIP3   OH2 4642   3.071   6.966   0.728 -0.6831 -0.5354  0.1130
 1569TIP3    H1 4643   3.109   6.881   0.751  1.6276  0.4015 -0.0436
 1569TIP3    H2 4644   3.108   6.985   0.641 -0.8842  0.7781  0.3091
 1570TIP3   OH2 4645   2.896   7.029   0.427  0.4646  0.1931  0.2671
 1570TIP3    H1 4646   2.866   7.113   0.461  1.4383  0.4363  0.5400
 1570TIP3    H2 4647   2.944   7.051   0.347 -1.3890 -0.3342 -1.0479
 1571TIP3   OH2 4648   4.331   6.472   6.797  0.0297 -0.3254  0.7661
 1571TIP3    H1 4649   4.410   6.430   6.761  0.0699 -0.0167  0.4872
 1571TIP3    H2 4650   4.260   6.415   6.770 -0.3573  1.7035 -2.9048
 1572TIP3   OH2 4651   3.267   3.553   1.571 -0.3850  0.2568  0.4036
 1572TIP3    H1 4652   3.314   3.522   1.649 -1.8220 -0.7543  0.8855
 1572TIP3    H2 4653   3.190   3.497   1.565 -0.4605  0.5172 -1.5870
 1573TIP3   OH2 4654   4.168   6.481   1.841 -0.0927  0.2182  0.1816
 1573TIP3    H1 4655   4.138   6.560   1.887  0.2442 -0.2022  1.1241
 1573TIP3    H2 4656   4.263   6.485   1.847 -0.1153 -0.9507  1.3990
 1574TIP3   OH2 4657   5.870   6.136   6.905  0.3267  0.4763 -0.4510
 1574TIP3    H1 4658   5.891   6.111   6.994 -0.0362 -0.7600 -0.6916
 1574TIP3    H2 4659   5.829   6.057   6.867 -0.0299  1.1581 -1.5238
 1575TIP3   OH2 4660   3.867   1.932   1.316 -0.5541  0.3317  0.2854
 1575TIP3    H1 4661   3.773   1.948   1.305 -0.7114 -1.4318 -1.3045
 1575TIP3    H2 4662   3.881   1.844   1.280  1.3221 -0.3976  2.6298
 1576TIP3   OH2 4663   5.173   5.308   0.343 -0.1684  0.4176  0.1098
 1576TIP3    H1 4664   5.204   5.220   0.366  0.6250  0.6115 -0.2004
 1576TIP3    H2 4665   5.089   5.316   0.389  0.0201 -0.2877  0.5973
 1577TIP3   OH2 4666   1.623   4.961   2.828 -0.0399 -0.3520 -0.5447
 1577TIP3    H1 4667   1.673   4.995   2.753  0.7949  2.0391  1.0490
 1577TIP3    H2 4668   1.583   5.038   2.867  0.1560 -1.4658  1.9422
 1578TIP3   OH2 4669   2.408   4.395   1.281  0.1893 -0.2790 -0.3650
 1578TIP3    H1 4670   2.382   4.354   1.199  1.0700 -1.4713 -0.0599
 1578TIP3    H2 4671   2.375   4.484   1.275  1.5875  0.1317 -2.6910
 1579TIP3   OH2 4672   3.297   4.398   2.688  0.1683 -0.2677 -0.4114
 1579TIP3    H1 4673   3.226   4.392   2.752  0.2554  1.9573 -0.0476
 1579TIP3    H2 4674   3.269   4.466   2.628  1.3879 -0.3157 -1.0535
 1580TIP3   OH2 4675   7.106   0.082   6.656 -0.0520 -0.2900 -0.3169
 1580TIP3    H1 4676   7.172   0.014   6.668 -1.2666 -1.0986  2.0724
 1580TIP3    H2 4677   7.114   0.138   6.733 -2.8358 -1.0460  0.5829
 1581TIP3   OH2 4678   2.674   3.693   1.275 -0.2211  0.0828  0.0648
 1581TIP3    H1 4679   2.683   3.720   1.184 -0.0813  0.8466  0.3086
 1581TIP3    H2 4680   2.593   3.735   1.305  1.0442  1.8786  1.0299
 1582TIP3   OH2 4681   4.601   3.956   1.316  0.3172 -0.2125 -0.0414
 1582TIP3    H1 4682   4.686   3.999   1.326 -0.0860  0.5303  0.2705
 1582TIP3    H2 4683   4.583   3.917   1.401 -0.4088  1.0565  0.3998
 1583TIP3   OH2 4684   1.598   1.247   5.862  0.3165  0.3771  0.1063
 1583TIP3    H1 4685   1.621   1.168   5.911  1.2110  0.0507 -0.8259
 1583TIP3    H2 4686   1.669   1.258   5.799 -0.4890  1.1630 -0.6812
 1584TIP3   OH2 4687   3.049   3.261   2.832 -0.0522  0.2154 -0.3636
 1584TIP3    H1 4688   3.050   3.324   2.905 -2.5546  0.4304 -0.4658
 1584TIP3    H2 4689   3.132   3.214   2.839 -0.7515 -0.5923  3.3697
 1585TIP3   OH2 4690   2.493   5.472   0.541 -0.7033 -0.0836 -0.3657
 1585TIP3    H1 4691   2.409   5.468   0.495 -0.5844 -0.5576 -0.5480
 1585TIP3    H2 4692   2.471   5.463   0.634 -1.1337  2.9422 -0.1232
 1586TIP3   OH2 4693   3.518   4.670   1.002  0.4995  0.3339  0.1397
 1586TIP3    H1 4694   3.502   4.686   0.909  2.2868  1.2315 -0.0301
 1586TIP3    H2 4695   3.478   4.744   1.046 -1.1453 -0.5446  0.1797
 1587TIP3   OH2 4696   3.302   5.879   0.800  0.6025  0.4650  0.1180
 1587TIP3    H1 4697   3.323   5.967   0.831  0.3786 -0.2713  2.4571
 1587TIP3    H2 4698   3.242   5.893   0.727 -0.0819  2.2410  0.9903
 1588TIP3   OH2 4699   2.715   7.643   0.436  0.4928  0.1268 -0.0518
 1588TIP3    H1 4700   2.698   7.735   0.457 -1.6028 -0.2288 -0.0781
 1588TIP3    H2 4701   2.783   7.616   0.499  1.8258  1.9394 -0.6982
 1589TIP3   OH2 4702   5.635   6.593   0.232  0.2332 -0.6885  0.5816
 1589TIP3    H1 4703   5.559   6.639   0.198  1.7154  0.4667 -1.3040
 1589TIP3    H2 4704   5.664   6.645   0.307 -1.1103 -1.4152  1.6169
 1590TIP3   OH2 4705   4.806   2.418   6.148 -0.1445  0.1424 -0.2713
 1590TIP3    H1 4706   4.840   2.484   6.088 -0.2581 -0.6002 -1.1598
 1590TIP3    H2 4707   4.777   2.468   6.225 -1.3379  1.2472 -1.4177
 1591TIP3   OH2 4708   1.405   7.098   0.078  0.1301 -0.0160  0.1763
 1591TIP3    H1 4709   1.450   7.141   0.151  0.4661 -0.5129  0.2637
 1591TIP3    H2 4710   1.312   7.103   0.100  0.2117  0.1037  0.4903
 1592TIP3   OH2 4711   2.325   1.772   5.822 -0.5294  0.4307  0.7671
 1592TIP3    H1 4712   2.305   1.732   5.738 -0.1168 -1.8675  1.6984
 1592TIP3    H2 4713   2.405   1.823   5.807 -2.0818  2.4473 -0.8832
 1593TIP3   OH2 4714   3.666   6.048   1.845 -0.0596  0.0765 -0.1095
 1593TIP3    H1 4715   3.621   6.049   1.930  0.3418  1.8329  0.0885
 1593TIP3    H2 4716   3.638   6.128   1.801 -0.8948 -1.2193 -1.9856
 1594TIP3   OH2 4717   3.322   7.033   0.063  0.7363 -0.1201 -0.1547
 1594TIP3    H1 4718   3.353   7.122   0.044 -0.4319  0.0956 -1.1055
 1594TIP3    H2 4719   3.293   7.037   0.154 -0.9117  0.9567 -0.6966
 1595TIP3   OH2 4720   5.298   7.789   5.105 -0.3013 -0.2776 -0.0751
 1595TIP3    H1 4721   5.314   7.880   5.082 -0.5695 -0.2552 -0.1717
 1595TIP3    H2 4722   5.303   7.742   5.022  0.5808 -0.4585  0.0723
 1596TIP3   OH2 4723   0.789   3.043   6.613  0.4444 -0.0456  0.0825
 1596TIP3    H1 4724   0.801   2.954   6.581  1.4925 -0.3524  1.2740
 1596TIP3    H2 4725   0.700   3.067   6.586  0.7896 -0.7892 -1.7684
 1597TIP3   OH2 4726   0.338   6.636   1.337 -0.1802  0.2149  0.4262
 1597TIP3    H1 4727   0.385   6.668   1.413 -1.4239  0.4721  1.1010
 1597TIP3    H2 4728   0.327   6.713   1.281 -0.8741  0.4088  0.8332
 1598TIP3   OH2 4729   6.210   7.050   6.722 -0.3254  0.0298 -0.1117
 1598TIP3    H1 4730   6.230   7.126   6.776  1.8336 -0.2841 -0.4205
 1598TIP3    H2 4731   6.198   7.085   6.634 -2.1636  0.3342  0.2394
 1599TIP3   OH2 4732   3.933   7.604   6.017  0.0643  0.0810 -0.3117
 1599TIP3    H1 4733   3.901   7.574   6.102  0.2243  0.9939  0.0707
 1599TIP3    H2 4734   4.028   7.591   6.021  0.3159  1.9959  0.4120
 1600TIP3   OH2 4735   3.431   3.410   0.044 -0.5983 -0.1518 -0.8388
 1600TIP3    H1 4736   3.458   3.388   0.134  0.0485  2.5107 -0.3448
 1600TIP3    H2 4737   3.469   3.340  -0.010  0.3040 -0.9454  0.7914
 1601TIP3   OH2 4738   7.035   0.667   6.461  0.3490  0.0069 -0.1264
 1601TIP3    H1 4739   7.101   0.622   6.513  1.3368  1.5712  0.0152
 1601TIP3    H2 4740   7.015   0.746   6.512 -2.0180 -0.6962  0.1002
 1602TIP3   OH2 4741   2.144   5.101   0.819 -0.3374 -0.2934 -0.0021
 1602TIP3    H1 4742   2.222   5.046   0.821 -0.8100 -1.0704 -1.9730
 1602TIP3    H2 4743   2.076   5.045   0.781 -1.9202  0.3079  1.8730
 1603TIP3   OH2 4744   1.357   3.500   0.419 -0.6631  0.2159  0.2894
 1603TIP3    H1 4745   1.340   3.591   0.442 -0.5113  0.0231  1.1737
 1603TIP3    H2 4746   1.451   3.496   0.400 -1.0241  0.6669 -1.7693
 1604TIP3   OH2 4747   3.974   3.683   0.786 -0.1588 -0.9609  0.4427
 1604TIP3    H1 4748   4.021   3.689   0.869 -0.3596 -0.3486  0.5123
 1604TIP3    H2 4749   4.010   3.753   0.733 -1.6816  0.1683  0.8522
 1605TIP3   OH2 4750   7.246   1.240   6.282  0.1733 -0.0266  0.2246
 1605TIP3    H1 4751   7.214   1.167   6.230 -0.2407  0.5985 -0.4163
 1605TIP3    H2 4752   7.323   1.271   6.235 -0.6797  1.0604 -0.4727
 1606TIP3   OH2 4753   2.074   0.890   5.282 -0.2049  0.4790 -0.2139
 1606TIP3    H1 4754   2.104   0.901   5.191 -2.0165  0.9373 -0.7669
 1606TIP3    H2 4755   2.126   0.953   5.332  0.4067  0.6188 -1.0143
 1607TIP3   OH2 4756   3.181   3.192   0.012 -0.4987 -0.0639  0.3925
 1607TIP3    H1 4757   3.235   3.134   0.067  0.4840  1.2678  0.8589
 1607TIP3    H2 4758   3.094   3.189   0.053 -0.9635 -2.7056 -0.7286
 1608TIP3   OH2 4759   3.133   3.777   1.086  0.9545  0.5437 -0.1107
 1608TIP3    H1 4760   3.078   3.746   1.158 -1.8646  1.2581 -1.8408
 1608TIP3    H2 4761   3.173   3.858   1.118 -1.0274  1.3673  0.3704
 1609TIP3   OH2 4762   2.878   4.927   1.432  0.4277 -0.4488 -0.0934
 1609TIP3    H1 4763   2.817   4.947   1.503  3.4883  0.9696  2.2603
 1609TIP3    H2 4764   2.884   5.009   1.382 -0.1139 -0.7958 -0.7313
 1610TIP3   OH2 4765   2.619   4.932   0.271 -0.0397  0.7939  0.0661
 1610TIP3    H1 4766   2.590   4.901   0.357 -0.3535 -2.4389 -1.1471
 1610TIP3    H2 4767   2.540   4.936   0.218  0.6928 -1.2998 -1.2450
 1611TIP3   OH2 4768   5.051   6.421   2.160 -0.1604 -0.0867  0.1661
 1611TIP3    H1 4769   4.956   6.434   2.153 -0.4082 -1.1620  1.3165
 1611TIP3    H2 4770   5.089   6.496   2.114 -1.5409 -1.7109 -3.8411
 1612TIP3   OH2 4771   3.845   6.231   1.598  0.1403  0.4469 -0.0348
 1612TIP3    H1 4772   3.847   6.155   1.538  1.6181  1.7220 -1.6602
 1612TIP3    H2 4773   3.754   6.260   1.597 -0.0670 -0.2078 -0.8292
 1613TIP3   OH2 4774   1.024   0.358   6.889  0.3850 -0.7293 -0.0513
 1613TIP3    H1 4775   1.065   0.272   6.876  0.4163 -0.4921 -1.6278
 1613TIP3    H2 4776   1.086   0.420   6.850 -0.1100 -0.0987  0.1644
 1614TIP3   OH2 4777   3.022   6.700   0.057  0.2788  0.3860 -0.1774
 1614TIP3    H1 4778   3.103   6.745   0.032 -0.2013  1.3349 -0.0643
 1614TIP3    H2 4779   3.024   6.618   0.008  1.7420 -0.0115  0.5221
 1615TIP3   OH2 4780   3.190   4.147   0.020 -0.5599 -0.1637 -0.6550
 1615TIP3    H1 4781   3.234   4.222  -0.021 -2.7273  0.7171 -1.4564
 1615TIP3    H2 4782   3.165   4.177   0.107  0.0481 -0.5144 -0.3597
 1616TIP3   OH2 4783   1.522   1.570   5.162 -0.3097  0.0112  0.4531
 1616TIP3    H1 4784   1.529   1.646   5.103 -1.0897 -0.2039  0.0823
 1616TIP3    H2 4785   1.612   1.555   5.192  0.0999  0.1106 -0.6938
 1617TIP3   OH2 4786   6.243   7.812   5.473 -0.5320  0.2354  0.0550
 1617TIP3    H1 4787   6.263   7.889   5.419 -2.1176  0.6861  0.0788
 1617TIP3    H2 4788   6.315   7.751   5.456 -0.2950  0.9313 -1.4934
 1618TIP3   OH2 4789   3.683   5.092   0.775 -0.0448  0.2771 -0.7482
 1618TIP3    H1 4790   3.667   5.001   0.749  2.9857 -0.5619  0.1127
 1618TIP3    H2 4791   3.605   5.116   0.825 -2.0403 -0.9502 -3.1539
 1619TIP3   OH2 4792   2.219   5.762   0.476 -0.1688  0.0833  0.9885
 1619TIP3    H1 4793   2.229   5.674   0.439 -1.3703  0.7040 -0.9503
 1619TIP3    H2 4794   2.125   5.780   0.466  0.6679  3.0811 -2.2891
 1620TIP3   OH2 4795   4.865   7.033   1.654 -0.4764  0.3578 -0.1326
 1620TIP3    H1 4796   4.882   7.093   1.582  0.5820  0.4991  0.2244
 1620TIP3    H2 4797   4.925   7.062   1.723 -0.1119 -0.9786  0.1161
 1621TIP3   OH2 4798   2.755   5.100   0.077  0.0064 -0.1711 -1.0746
 1621TIP3    H1 4799   2.767   5.187   0.116 -0.9345 -0.7410  0.5482
 1621TIP3    H2 4800   2.719   5.047   0.148  0.4286 -1.8548 -2.0951
 1622TIP3   OH2 4801   8.341   5.343   1.305  0.6818 -0.3721 -0.0459
 1622TIP3    H1 4802   8.419   5.331   1.251  2.0362  0.8099  1.5860
 1622TIP3    H2 4803   8.308   5.254   1.320  1.8676 -0.9066 -0.5365
 1623TIP3   OH2 4804   4.895   5.184   2.032  0.2992 -0.5765  0.0596
 1623TIP3    H1 4805   4.850   5.260   2.066  0.2635 -0.1008 -1.0226
 1623TIP3    H2 4806   4.947   5.217   1.959  1.7076 -1.2676  0.7208
 1624TIP3   OH2 4807   5.813   6.465   2.806 -0.4319 -0.4699  0.5314
 1624TIP3    H1 4808   5.835   6.462   2.899 -1.7378 -2.1976  0.8068
 1624TIP3    H2 4809   5.884   6.418   2.762 -0.8362 -1.4133  0.8741
 1625TIP3   OH2 4810   8.449   0.621   6.437 -0.1424  0.1065 -0.1630
 1625TIP3    H1 4811   8.506   0.604   6.511 -1.4098  0.1202  0.8350
 1625TIP3    H2 4812   8.417   0.710   6.450  0.9904  0.7514 -1.6658
 1626TIP3   OH2 4813   0.889   4.825   0.488  0.7510  0.1579  0.5805
 1626TIP3    H1 4814   0.949   4.764   0.444  1.1365  0.6524  0.4144
 1626TIP3    H2 4815   0.802   4.788   0.473  0.9568 -0.1713  0.1903
 1627TIP3   OH2 4816   3.312   3.880   0.116 -0.6793 -1.0400 -0.6280
 1627TIP3    H1 4817   3.257   3.860   0.192  1.6749  0.2629  1.4965
 1627TIP3    H2 4818   3.286   3.968   0.090  0.0818 -0.5995  0.0952
 1628TIP3   OH2 4819   4.814   5.327   1.562  0.4527 -0.3378 -0.5419
 1628TIP3    H1 4820   4.804   5.422   1.556  0.1442 -0.4446 -1.8992
 1628TIP3    H2 4821   4.730   5.293   1.532 -0.5314 -1.0142  2.7629
 1629TIP3   OH2 4822   1.684   4.843   0.335  0.6881  0.0211 -0.7109
 1629TIP3    H1 4823   1.757   4.782   0.325  1.2314  0.1787  1.8503
 1629TIP3    H2 4824   1.704   4.891   0.415 -1.5341  1.0654 -0.7435
 1630TIP3   OH2 4825   3.812   5.440   0.816  0.0326 -0.4601  0.5268
 1630TIP3    H1 4826   3.831   5.357   0.773  0.1129 -0.3500  0.3492
 1630TIP3    H2 4827   3.882   5.499   0.788  0.7465 -0.7117  1.7355
 1631TIP3   OH2 4828   4.390   4.461   0.747  0.4019  0.4543  0.1130
 1631TIP3    H1 4829   4.378   4.422   0.834 -0.6697 -0.2254 -0.3271
 1631TIP3    H2 4830   4.387   4.386   0.687 -0.5148  1.0893 -0.6487
 1632TIP3   OH2 4831   3.083   2.046   6.269  0.6857  0.3334  0.3767
 1632TIP3    H1 4832   3.112   2.015   6.355  0.1476 -2.9750 -0.5561
 1632TIP3    H2 4833   3.144   2.117   6.248  2.0522 -0.0987  2.6155
 1633TIP3   OH2 4834   0.726   1.187   6.769 -0.2048 -0.2071 -0.1714
 1633TIP3    H1 4835   0.671   1.150   6.700  0.7911 -2.6016  0.2649
 1633TIP3    H2 4836   0.715   1.127   6.843  2.6053 -0.4334  0.0881
 1634TIP3   OH2 4837   2.125   1.064   5.038  0.0857 -0.1459  0.2621
 1634TIP3    H1 4838   2.042   1.071   4.990 -0.5274 -1.1315  1.1388
 1634TIP3    H2 4839   2.131   1.145   5.089  1.1304  1.2737 -2.0377
 1635TIP3   OH2 4840   3.265   6.867   2.086  0.4913  0.5821 -0.5443
 1635TIP3    H1 4841   3.323   6.849   2.012 -1.6345 -0.8214 -1.9006
 1635TIP3    H2 4842   3.301   6.814   2.157  2.1347  1.3872 -0.7596
 1636TIP3   OH2 4843   3.340   5.624   0.748 -0.1174 -0.3368  0.2223
 1636TIP3    H1 4844   3.317   5.590   0.834 -0.4518  0.7654  0.5815
 1636TIP3    H2 4845   3.364   5.715   0.763 -0.9426  0.0975 -0.9504
 1637TIP3   OH2 4846   1.164   1.216   5.538  0.1957 -0.7062  0.3998
 1637TIP3    H1 4847   1.136   1.181   5.622 -0.2266  1.4225  1.1820
 1637TIP3    H2 4848   1.243   1.267   5.559 -1.6039  2.3563  0.0849
 1638TIP3   OH2 4849   2.496   1.032   6.516  0.0686  0.2196  0.2118
 1638TIP3    H1 4850   2.427   1.091   6.488  0.2676  0.1322 -0.4880
 1638TIP3    H2 4851   2.523   1.065   6.601 -1.4045 -0.2422  0.8754
 1639TIP3   OH2 4852   3.852   5.131   0.999  0.1797  0.1973 -0.0639
 1639TIP3    H1 4853   3.813   5.136   0.912 -0.3900  1.8132  0.2640
 1639TIP3    H2 4854   3.777   5.117   1.058  0.5714 -0.9711  0.1583
 1640TIP3   OH2 4855   8.107   0.684   6.599 -0.6721  0.0289 -0.2155
 1640TIP3    H1 4856   8.166   0.684   6.523  1.7462 -0.8589  1.5954
 1640TIP3    H2 4857   8.074   0.594   6.603  0.3213 -0.2964  0.6292
 1641TIP3   OH2 4858   7.753   0.953   6.873  0.4259 -0.1381 -0.2619
 1641TIP3    H1 4859   7.735   0.969   6.781  3.1363 -2.1873 -1.2113
 1641TIP3    H2 4860   7.777   1.039   6.908  2.1337  0.1982 -2.1643
 1642TIP3   OH2 4861   2.900   5.467   0.603  0.0046  0.0809  0.3663
 1642TIP3    H1 4862   2.850   5.546   0.582 -0.6088  0.0455  1.6621
 1642TIP3    H2 4863   2.901   5.464   0.698  0.4161 -1.2417  0.3307
 1643TIP3   OH2 4864   2.288   7.807   2.298  0.6260 -0.0710  0.1928
 1643TIP3    H1 4865   2.259   7.719   2.275  1.8506 -0.5135  0.3557
 1643TIP3    H2 4866   2.208   7.851   2.329  0.6369 -2.1493  3.3116
 1644TIP3   OH2 4867   6.023   5.629   1.159  0.4545 -0.4455  0.1930
 1644TIP3    H1 4868   6.028   5.632   1.255  1.5292 -1.2557  0.1677
 1644TIP3    H2 4869   6.023   5.535   1.138  1.1091 -0.2615 -0.6403
 1645TIP3   OH2 4870   2.523   2.239   6.326  0.4376  0.6360  0.5122
 1645TIP3    H1 4871   2.591   2.173   6.315 -1.3532 -1.0950 -0.3587
 1645TIP3    H2 4872   2.484   2.221   6.411 -0.8704 -0.2250 -0.2529
 1646TIP3   OH2 4873   4.694   6.551   2.043  0.1643  0.2958  0.1452
 1646TIP3    H1 4874   4.722   6.642   2.050  0.7679  0.0249  1.4556
 1646TIP3    H2 4875   4.681   6.537   1.949 -1.2207  2.1055  0.0405
 1647TIP3   OH2 4876   6.281   4.153   0.467  0.6268  0.0155 -0.2779
 1647TIP3    H1 4877   6.200   4.192   0.433 -0.3779 -1.4220  0.3795
 1647TIP3    H2 4878   6.259   4.128   0.557  1.2578 -1.9165 -0.6381
 1648TIP3   OH2 4879   4.229   4.732   1.506 -0.4269  0.6877  0.7677
 1648TIP3    H1 4880   4.234   4.798   1.575 -2.4504  2.0521 -0.3251
 1648TIP3    H2 4881   4.143   4.745   1.466  0.4504 -0.4367 -1.6262
 1649TIP3   OH2 4882   3.459   4.914   1.241  0.0520  0.3733  0.0568
 1649TIP3    H1 4883   3.526   4.897   1.307 -0.0020 -1.1238 -0.2543
 1649TIP3    H2 4884   3.381   4.870   1.274  0.3307 -1.3778 -1.5269
 1650TIP3   OH2 4885   3.854   4.690   0.700  0.3134  0.4752  0.2137
 1650TIP3    H1 4886   3.861   4.702   0.794  1.2988 -0.5457  0.2868
 1650TIP3    H2 4887   3.939   4.653   0.674 -0.1055  0.3347 -0.9936
 1651TIP3   OH2 4888   3.685   4.105   0.743 -0.4023 -0.0081 -0.0704
 1651TIP3    H1 4889   3.623   4.080   0.811  2.0840 -1.0789  1.8791
 1651TIP3    H2 4890   3.768   4.117   0.789  0.6655  2.3712 -2.4456
 1652TIP3   OH2 4891   3.820   6.116   2.539  0.0804 -0.2933  0.4430
 1652TIP3    H1 4892   3.847   6.191   2.487  0.1699 -1.0932 -0.6678
 1652TIP3    H2 4893   3.902   6.078   2.571  0.1274 -0.8889 -0.3672
 1653TIP3   OH2 4894   3.542   4.564   0.101  0.8401  0.0623  0.1680
 1653TIP3    H1 4895   3.573   4.483   0.141 -3.3293 -1.1583  1.2364
 1653TIP3    H2 4896   3.507   4.615   0.175 -0.1763  1.0549 -0.9730
 1654TIP3   OH2 4897   3.778   4.963   1.637 -0.2650  0.0223  0.7406
 1654TIP3    H1 4898   3.830   4.920   1.706  1.7780  0.7751 -0.2690
 1654TIP3    H2 4899   3.842   5.018   1.591 -1.2775 -1.5540 -2.6584
 1655TIP3   OH2 4900   4.319   4.339   0.975  0.4976  0.4551 -0.7268
 1655TIP3    H1 4901   4.242   4.388   1.003 -0.0404 -0.1485 -1.1219
 1655TIP3    H2 4902   4.379   4.343   1.050 -0.6756 -0.6292  0.3030
 1656TIP3   OH2 4903   1.009   0.651   6.657 -0.0822 -0.2913 -0.3378
 1656TIP3    H1 4904   1.000   0.733   6.609  2.1081  0.7703  0.9816
 1656TIP3    H2 4905   0.997   0.674   6.749  1.3200 -1.2638  0.1255
 1657TIP3   OH2 4906   5.433   3.167   1.847 -0.8667  0.0424 -0.5306
 1657TIP3    H1 4907   5.404   3.249   1.806 -2.0143 -0.8189 -1.4816
 1657TIP3    H2 4908   5.487   3.195   1.921 -0.1108  1.6502 -1.6629
 1658TIP3   OH2 4909   6.264   5.062   0.496  0.4692  0.4352  0.1087
 1658TIP3    H1 4910   6.238   4.998   0.562 -0.4513  0.5332 -0.1437
 1658TIP3    H2 4911   6.270   5.145   0.544 -1.2567  0.7125 -0.1123
 1659TIP3   OH2 4912   4.602   6.315   3.205 -0.2236 -0.1865 -0.2087
 1659TIP3    H1 4913   4.563   6.281   3.124 -0.2779  1.6042 -0.9646
 1659TIP3    H2 4914   4.605   6.240   3.264 -0.3194 -1.4824 -1.8268
 1660TIP3   OH2 4915   0.686   2.443   6.740  0.4340 -0.0727  0.3085
 1660TIP3    H1 4916   0.650   2.355   6.750 -0.9652  0.2896 -1.3911
 1660TIP3    H2 4917   0.645   2.494   6.809 -0.5344 -0.2156 -0.1549
 1661TIP3   OH2 4918   4.236   4.159   2.203 -0.5499  0.2336  0.2975
 1661TIP3    H1 4919   4.209   4.068   2.202  1.5500 -0.4580 -3.6190
 1661TIP3    H2 4920   4.187   4.200   2.131 -0.1492  1.7661  0.8724
 1662TIP3   OH2 4921   5.407   4.541   0.414  0.0713 -0.5321 -0.2807
 1662TIP3    H1 4922   5.374   4.451   0.418  0.4791 -0.7401 -1.4701
 1662TIP3    H2 4923   5.497   4.535   0.445 -0.4404 -0.2296  1.3534
 1663TIP3   OH2 4924   2.112   0.678   4.163 -0.2123 -0.2803  0.6031
 1663TIP3    H1 4925   2.083   0.611   4.101  0.3000 -0.2238  0.3095
 1663TIP3    H2 4926   2.204   0.692   4.144 -0.2222  0.2443  0.9136
 1664TIP3   OH2 4927   3.124   3.564   0.890  0.2372 -0.3867 -0.5214
 1664TIP3    H1 4928   3.129   3.641   0.946 -1.0451  1.1498 -2.4286
 1664TIP3    H2 4929   3.082   3.497   0.944  3.9741 -0.7277  2.1273
 1665TIP3   OH2 4930   4.836   5.344   0.721  0.1764  0.0350 -0.7732
 1665TIP3    H1 4931   4.887   5.315   0.797 -0.7810 -0.0381 -0.1545
 1665TIP3    H2 4932   4.779   5.413   0.755 -1.0336 -0.7400 -1.1818
 1666TIP3   OH2 4933   3.268   3.030   2.551  0.2263 -0.1324 -0.6123
 1666TIP3    H1 4934   3.328   3.055   2.481 -0.7224  2.7443 -0.4494
 1666TIP3    H2 4935   3.320   2.975   2.609  1.9351  0.1137 -1.8912
 1667TIP3   OH2 4936   3.021   6.758   2.012  0.1480 -0.2703 -0.2402
 1667TIP3    H1 4937   3.040   6.688   1.949 -0.2803  0.6221 -1.3881
 1667TIP3    H2 4938   3.104   6.805   2.020  0.4560 -0.9453  0.5876
 1668TIP3   OH2 4939   2.090   1.207   6.895 -0.7903 -0.2796  0.0057
 1668TIP3    H1 4940   2.153   1.257   6.946 -1.9824 -1.5927  2.8299
 1668TIP3    H2 4941   2.008   1.254   6.905 -1.4789 -1.6809  1.0132
 1669TIP3   OH2 4942   4.451   6.459   1.874  0.2772  0.0252  0.6292
 1669TIP3    H1 4943   4.520   6.405   1.835 -0.1858  0.1033 -0.3215
 1669TIP3    H2 4944   4.476   6.549   1.851 -0.8851 -0.0384 -0.9597
 1670TIP3   OH2 4945   4.617   3.854   1.572 -0.3088  0.2131  0.4241
 1670TIP3    H1 4946   4.541   3.808   1.607  1.4490 -1.3848  2.2607
 1670TIP3    H2 4947   4.624   3.933   1.626 -0.8924  0.5824 -0.0295
 1671TIP3   OH2 4948   4.006   2.896   1.457  0.2847 -0.1356 -0.1633
 1671TIP3    H1 4949   4.028   2.816   1.408 -0.9202 -0.1548 -0.6864
 1671TIP3    H2 4950   4.032   2.877   1.547  1.0961 -0.6747 -0.5058
 1672TIP3   OH2 4951   5.535   4.377   1.026  0.3487  0.5063 -0.4567
 1672TIP3    H1 4952   5.584   4.297   1.047 -0.6283 -0.0781 -0.3650
 1672TIP3    H2 4953   5.472   4.386   1.097 -1.0227  0.1324 -1.6069
 1673TIP3   OH2 4954   5.877   3.276   0.578  0.2528  0.4331 -0.3121
 1673TIP3    H1 4955   5.937   3.285   0.504 -0.7619 -0.0039 -1.1958
 1673TIP3    H2 4956   5.814   3.210   0.550  1.0760 -1.3197  1.7541
 1674TIP3   OH2 4957   7.491   5.624   1.629  0.0316  0.3729  0.0600
 1674TIP3    H1 4958   7.576   5.586   1.610 -0.7791 -0.8553 -1.2016
 1674TIP3    H2 4959   7.435   5.596   1.556 -1.3313  1.5422  0.6252
 1675TIP3   OH2 4960   0.779   6.605   1.624  0.2491  0.2211 -0.2477
 1675TIP3    H1 4961   0.706   6.570   1.573  0.0652 -0.8961  0.7558
 1675TIP3    H2 4962   0.816   6.674   1.569 -0.1716 -0.6986 -1.7029
 1676TIP3   OH2 4963   0.144   6.437   1.929 -0.5427 -0.3176  0.1622
 1676TIP3    H1 4964   0.116   6.461   1.840  2.3812  0.3235 -0.6346
 1676TIP3    H2 4965   0.201   6.361   1.916 -1.5298 -1.3411  1.6959
 1677TIP3   OH2 4966   6.374   2.778   6.642  0.1311 -0.4604  0.0796
 1677TIP3    H1 4967   6.389   2.872   6.649  0.4212 -0.4030 -1.2550
 1677TIP3    H2 4968   6.407   2.754   6.556  1.5720 -2.0776  1.0374
 1678TIP3   OH2 4969   5.367   3.508   6.819 -0.0196  0.3428 -0.4500
 1678TIP3    H1 4970   5.450   3.544   6.851 -0.1687  0.8345 -0.6145
 1678TIP3    H2 4971   5.308   3.518   6.894  0.2614 -0.6743 -0.0858
 1679TIP3   OH2 4972   1.150   5.548   0.615  0.4451  0.6598 -0.1209
 1679TIP3    H1 4973   1.159   5.614   0.547 -0.5573  0.6875 -0.2323
 1679TIP3    H2 4974   1.091   5.482   0.578  0.7516  0.1308  0.3117
 1680TIP3   OH2 4975   2.687   4.475   2.434  0.5419  0.4739 -0.8667
 1680TIP3    H1 4976   2.696   4.441   2.345 -0.1515  1.1310 -1.1980
 1680TIP3    H2 4977   2.594   4.462   2.455  0.6864  0.3931 -0.2707
 1681TIP3   OH2 4978   4.093   1.645   6.461  0.3701  0.5526  0.4447
 1681TIP3    H1 4979   4.154   1.605   6.399  0.8039  2.7663 -0.6282
 1681TIP3    H2 4980   4.008   1.606   6.440  1.0080 -0.8241  0.3848
 1682TIP3   OH2 4981   7.802   1.298   6.746  0.6811 -0.1274 -0.1880
 1682TIP3    H1 4982   7.867   1.360   6.711  0.2945  0.9553  0.9354
 1682TIP3    H2 4983   7.780   1.335   6.832 -0.4395 -1.2096 -0.0129
 1683TIP3   OH2 4984   3.374   7.634   0.363  0.3881  0.0479  0.0605
 1683TIP3    H1 4985   3.453   7.580   0.365 -0.5183 -1.2918  0.4779
 1683TIP3    H2 4986   3.385   7.696   0.436  1.2074  0.0943 -0.1021
 1684TIP3   OH2 4987   8.428   6.940   3.423  0.1511  0.0231  0.2315
 1684TIP3    H1 4988   8.374   6.866   3.450 -0.1568 -0.9639 -2.8494
 1684TIP3    H2 4989   8.382   6.976   3.347  2.8971  0.2735 -1.3616
 1685TIP3   OH2 4990   5.701   3.282   6.903 -0.0368 -0.7053 -0.3307
 1685TIP3    H1 4991   5.620   3.233   6.889 -0.4833  0.1356 -0.7940
 1685TIP3    H2 4992   5.721   3.270   6.995 -0.4278 -1.3197 -0.3239
 1686TIP3   OH2 4993   7.464   7.846   0.266  0.0924 -0.1976  0.1476
 1686TIP3    H1 4994   7.376   7.869   0.235  0.3773  0.1028 -0.4524
 1686TIP3    H2 4995   7.457   7.850   0.362 -1.1718 -2.5446  0.1922
 1687TIP3   OH2 4996   0.395   4.205   1.278  0.0701 -0.1641  0.6197
 1687TIP3    H1 4997   0.334   4.132   1.289 -1.1533  0.5740 -1.0993
 1687TIP3    H2 4998   0.351   4.265   1.219  2.3571  0.5309 -0.4475
 1688TIP3   OH2 4999   1.804   6.639   3.692 -0.0133 -0.0400  0.1255
 1688TIP3    H1 5000   1.846   6.701   3.633  1.6063 -1.0455  0.1935
 1688TIP3    H2 5001   1.726   6.609   3.644  0.8299 -0.2097 -1.1523
 1689TIP3   OH2 5002   1.494   5.341   1.346  0.7366 -0.1708 -0.4939
 1689TIP3    H1 5003   1.509   5.272   1.282 -2.6835 -0.2284 -1.3058
 1689TIP3    H2 5004   1.510   5.300   1.430  0.1998 -1.5311 -1.0472
 1690TIP3   OH2 5005   1.190   7.728   2.433  0.0373  0.1184 -0.1484
 1690TIP3    H1 5006   1.270   7.685   2.403  1.4663  2.2334  0.4519
 1690TIP3    H2 5007   1.220   7.792   2.498 -2.3026 -0.0162  1.1298
 1691TIP3   OH2 5008   7.438   5.561   0.558  0.0356 -0.5639  0.1077
 1691TIP3    H1 5009   7.489   5.519   0.627 -0.4648  0.5452  1.1505
 1691TIP3    H2 5010   7.383   5.490   0.523 -0.0669 -1.0149  1.1683
 1692TIP3   OH2 5011   7.409   1.214   6.884 -0.4491 -0.4496  0.3304
 1692TIP3    H1 5012   7.421   1.159   6.806 -0.5127  0.6020 -0.4279
 1692TIP3    H2 5013   7.455   1.166   6.954  1.8328 -0.1576 -0.9068
 1693TIP3   OH2 5014   6.233   2.149   6.482  0.4084 -0.2044 -0.0065
 1693TIP3    H1 5015   6.223   2.227   6.537  1.9335  1.9216 -2.6131
 1693TIP3    H2 5016   6.297   2.095   6.528 -0.2435  0.3298  1.5486
 1694TIP3   OH2 5017   1.622   5.653   2.307  0.3206 -0.0685 -0.1729
 1694TIP3    H1 5018   1.669   5.666   2.390  1.0658 -2.5371 -0.1717
 1694TIP3    H2 5019   1.683   5.683   2.240  1.4310 -2.0142 -0.0797
 1695TIP3   OH2 5020   7.653   2.725   6.921 -0.2741 -0.1994 -0.0131
 1695TIP3    H1 5021   7.628   2.646   6.874  0.0844 -0.1824 -0.2271
 1695TIP3    H2 5022   7.737   2.704   6.962 -0.5331 -0.1820  0.5379
 1696TIP3   OH2 5023   3.753   6.711   0.751 -0.2437 -0.3770  0.5936
 1696TIP3    H1 5024   3.746   6.802   0.780 -2.9538 -0.8992  1.6866
 1696TIP3    H2 5025   3.811   6.670   0.816 -0.6988  0.0775  1.2911
 1697TIP3   OH2 5026   8.160   2.448   6.517 -0.6281 -0.5585 -0.1167
 1697TIP3    H1 5027   8.210   2.422   6.439 -1.4165  0.7372 -1.0808
 1697TIP3    H2 5028   8.194   2.535   6.539 -2.9600  0.7196 -1.2934
 1698TIP3   OH2 5029   0.457   5.868   2.414 -0.1596 -0.3914 -0.0914
 1698TIP3    H1 5030   0.405   5.940   2.379  1.4731  1.1265  0.5805
 1698TIP3    H2 5031   0.544   5.879   2.375  0.3811 -1.4217  0.7871
 1699TIP3   OH2 5032   1.782   7.186   1.013 -0.3938  0.4170 -0.2753
 1699TIP3    H1 5033   1.861   7.241   1.008 -0.2732  0.3240  0.6476
 1699TIP3    H2 5034   1.712   7.247   1.033 -0.5610  0.4985 -1.0899
 1700TIP3   OH2 5035   6.310   2.308   6.278 -0.4320  0.0222  0.1646
 1700TIP3    H1 5036   6.344   2.281   6.193  2.0724 -0.0848  1.1400
 1700TIP3    H2 5037   6.291   2.227   6.324 -0.0189  0.0392  0.3697
 1701TIP3   OH2 5038   1.300   6.312   1.346 -0.1554  0.2746  0.0521
 1701TIP3    H1 5039   1.324   6.403   1.365  0.7753 -0.1629  1.0199
 1701TIP3    H2 5040   1.249   6.317   1.265  1.0824  1.4953 -0.6636
 1702TIP3   OH2 5041   3.841   5.752   1.319  0.1482 -0.4479 -0.0275
 1702TIP3    H1 5042   3.830   5.685   1.387  0.0248 -0.3272  0.0724
 1702TIP3    H2 5043   3.825   5.705   1.237  0.3185 -0.5997  0.0255
 1703TIP3   OH2 5044   6.343   0.732   1.507 -0.0029 -0.6755  0.2594
 1703TIP3    H1 5045   6.304   0.671   1.570 -1.0032  0.6010  0.9072
 1703TIP3    H2 5046   6.420   0.767   1.552 -1.4358  1.2129  1.3506
 1704TIP3   OH2 5047   2.794   5.662   1.730  0.5799 -0.1699  0.5503
 1704TIP3    H1 5048   2.761   5.661   1.640  1.1225  0.0806  0.3483
 1704TIP3    H2 5049   2.842   5.580   1.740  0.6044 -0.1524  0.5805
 1705TIP3   OH2 5050   7.481   1.453   6.877  0.1806  0.0497  0.0696
 1705TIP3    H1 5051   7.395   1.489   6.901  0.6119  0.4102  1.0614
 1705TIP3    H2 5052   7.467   1.358   6.874 -0.2943  0.1180  0.0370
 1706TIP3   OH2 5053   3.989   7.160   1.819 -0.0583  0.1332 -0.2188
 1706TIP3    H1 5054   3.937   7.093   1.864  1.3353 -1.7813 -1.3697
 1706TIP3    H2 5055   3.932   7.193   1.750 -0.9854  0.6250  0.7683
 1707TIP3   OH2 5056   5.451   0.184   0.851  0.7184  0.0128 -0.1358
 1707TIP3    H1 5057   5.404   0.101   0.847  0.0364  0.4102 -0.4057
 1707TIP3    H2 5058   5.519   0.176   0.784  0.9302 -0.4982  0.1414
 1708TIP3   OH2 5059   0.450   3.004   5.828 -0.1424  0.2924  0.0920
 1708TIP3    H1 5060   0.362   3.034   5.851 -0.3638 -1.2984  1.4102
 1708TIP3    H2 5061   0.468   2.933   5.890  1.6361 -0.1217 -0.8723
 1709TIP3   OH2 5062   8.449   1.495   6.671 -0.3100  0.3866  0.3016
 1709TIP3    H1 5063   8.364   1.530   6.644  0.9015  2.0776 -1.5136
 1709TIP3    H2 5064   8.453   1.408   6.634 -1.4347  0.1076  0.8166
 1710TIP3   OH2 5065   3.396   7.885   0.462  0.3368 -0.5926 -0.0888
 1710TIP3    H1 5066   3.324   7.940   0.492  0.3049 -1.0689  0.7348
 1710TIP3    H2 5067   3.472   7.943   0.460  0.4049 -0.6292  1.2251
 1711TIP3   OH2 5068   7.329   2.672   6.960 -0.3477 -0.1551  0.0851
 1711TIP3    H1 5069   7.311   2.578   6.955 -2.0281  0.2237 -1.2380
 1711TIP3    H2 5070   7.290   2.709   6.881 -0.3034  1.7494  0.9153
 1712TIP3   OH2 5071   3.767   5.820   0.706 -0.2021  0.0357  0.2149
 1712TIP3    H1 5072   3.819   5.898   0.725  1.4278 -1.2244  1.2180
 1712TIP3    H2 5073   3.743   5.787   0.793 -0.8160 -0.5932 -0.1956
 1713TIP3   OH2 5074   0.986   7.499   1.309 -0.1401 -0.2198  0.2135
 1713TIP3    H1 5075   0.981   7.406   1.288 -1.6338  0.0415 -0.6441
 1713TIP3    H2 5076   1.074   7.525   1.283  0.0920 -1.2682 -0.0652
 1714TIP3   OH2 5077   5.792   6.519   1.387  0.1909 -0.1179  0.5265
 1714TIP3    H1 5078   5.877   6.497   1.426 -0.5280  0.1864  2.3151
 1714TIP3    H2 5079   5.813   6.540   1.296  1.9951 -0.3342  0.8616
 1715TIP3   OH2 5080   5.483   3.092   6.816 -0.0249 -0.2295  0.2346
 1715TIP3    H1 5081   5.447   3.154   6.752  0.6988  0.4049  0.4343
 1715TIP3    H2 5082   5.524   3.024   6.763  0.5620  0.2893  0.0064
 1716TIP3   OH2 5083   3.062   7.398   0.931 -0.4216  0.2132  0.0071
 1716TIP3    H1 5084   3.146   7.368   0.896  0.2880  1.1542  0.8755
 1716TIP3    H2 5085   3.016   7.434   0.856 -0.7041 -1.7150 -0.7812
 1717TIP3   OH2 5086   0.525   1.551   6.211  0.6016 -0.2584 -0.3982
 1717TIP3    H1 5087   0.554   1.610   6.141  0.9971  0.2634  0.2014
 1717TIP3    H2 5088   0.489   1.609   6.278 -1.7600 -0.8765 -1.0795
 1718TIP3   OH2 5089   1.060   2.433   6.011 -0.1125  0.3031  0.6928
 1718TIP3    H1 5090   1.113   2.419   6.089 -0.2355 -1.9258  0.4121
 1718TIP3    H2 5091   1.123   2.435   5.939 -0.3392 -2.3329  0.3606
 1719TIP3   OH2 5092   1.481   6.724   1.878  0.0752 -0.3511 -0.5945
 1719TIP3    H1 5093   1.398   6.695   1.842  0.5855 -1.7777 -0.6756
 1719TIP3    H2 5094   1.547   6.675   1.829  0.9044 -0.1063  0.2478
 1720TIP3   OH2 5095   0.040   2.341   5.684  0.2327  0.1984  0.4880
 1720TIP3    H1 5096   0.036   2.260   5.734  0.5127  1.0123  1.8476
 1720TIP3    H2 5097  -0.029   2.396   5.721  0.9544  1.1012  0.5057
 1721TIP3   OH2 5098   4.278   6.591   1.176 -0.3163 -0.1443 -0.1019
 1721TIP3    H1 5099   4.330   6.662   1.139  1.1076 -0.6937  0.7897
 1721TIP3    H2 5100   4.200   6.633   1.210  0.6774  1.0655  0.7328
 1722TIP3   OH2 5101   2.230   2.664   5.082 -0.0342 -0.5164 -0.9128
 1722TIP3    H1 5102   2.167   2.731   5.055 -0.8731 -0.6478  0.7011
 1722TIP3    H2 5103   2.314   2.695   5.046 -0.5773  0.9268 -0.9857
 1723TIP3   OH2 5104   0.763   1.464   5.368 -0.6544 -0.0003 -0.1462
 1723TIP3    H1 5105   0.745   1.555   5.345 -0.7766  0.0610  0.1815
 1723TIP3    H2 5106   0.858   1.456   5.365 -0.6627  0.0511 -0.5019
 1724TIP3   OH2 5107   2.224   7.387   0.362  0.4141  0.0009  0.1015
 1724TIP3    H1 5108   2.172   7.445   0.416  0.3054  0.3733 -0.3937
 1724TIP3    H2 5109   2.312   7.426   0.361  0.2883  0.2798 -0.4059
 1725TIP3   OH2 5110   2.784   6.798   0.324  0.0946  0.0675  0.4553
 1725TIP3    H1 5111   2.841   6.857   0.372 -1.8772  1.7918  0.7538
 1725TIP3    H2 5112   2.826   6.712   0.332  2.4958  1.2422  0.8146
 1726TIP3   OH2 5113   2.948   5.904   2.289 -0.2737  0.1366 -0.4632
 1726TIP3    H1 5114   2.975   5.834   2.348 -0.3199  0.1927 -0.3755
 1726TIP3    H2 5115   2.999   5.980   2.315 -1.0047  0.4254  0.1525
 1727TIP3   OH2 5116   7.931   2.547   6.762  0.4947  0.4538  0.3742
 1727TIP3    H1 5117   7.959   2.524   6.673 -3.6504  0.1792 -0.9418
 1727TIP3    H2 5118   7.945   2.642   6.767  0.2987  0.5464 -0.7343
 1728TIP3   OH2 5119   7.380   1.932   6.795 -0.2225  0.6090 -0.0344
 1728TIP3    H1 5120   7.394   2.016   6.751  0.3949  1.0561  0.9831
 1728TIP3    H2 5121   7.285   1.918   6.790 -0.3093  1.2750 -0.3732
 1729TIP3   OH2 5122   1.220   5.561   1.628  0.0595 -0.2465 -0.3483
 1729TIP3    H1 5123   1.161   5.486   1.620 -2.1883  1.5854 -1.4923
 1729TIP3    H2 5124   1.167   5.630   1.666  1.6085  1.3229 -0.9393
 1730TIP3   OH2 5125   6.183   0.857   1.086 -0.2248 -0.5854 -0.0117
 1730TIP3    H1 5126   6.171   0.952   1.077 -0.3993 -0.3042  2.8342
 1730TIP3    H2 5127   6.094   0.822   1.086 -0.1577 -0.7864 -1.1516
 1731TIP3   OH2 5128   7.737   0.232   5.666  0.5103 -0.3771 -0.3660
 1731TIP3    H1 5129   7.663   0.273   5.621 -0.2579 -0.9766  0.3306
 1731TIP3    H2 5130   7.704   0.145   5.691  1.0922 -0.2338  0.9137
 1732TIP3   OH2 5131   0.572   2.813   6.638 -0.0032  0.0219 -0.3740
 1732TIP3    H1 5132   0.576   2.882   6.571  0.1364  0.9258  0.5602
 1732TIP3    H2 5133   0.656   2.768   6.630  0.1331  0.3127 -0.6136
 1733TIP3   OH2 5134   4.396   6.222   0.828  0.7231  0.0234 -0.8224
 1733TIP3    H1 5135   4.430   6.304   0.794  2.1419 -1.2099 -2.4818
 1733TIP3    H2 5136   4.354   6.181   0.752 -0.1762 -0.6780  0.0440
 1734TIP3   OH2 5137   6.522   0.264   0.591  0.3176  0.4191 -0.1497
 1734TIP3    H1 5138   6.432   0.255   0.622  0.1707 -0.9290 -0.9533
 1734TIP3    H2 5139   6.516   0.258   0.496  1.4040 -1.0976 -0.1441
 1735TIP3   OH2 5140   0.315   3.438   6.885  0.1954  0.0689  0.3497
 1735TIP3    H1 5141   0.357   3.483   6.958 -0.9515  0.2136  0.9380
 1735TIP3    H2 5142   0.225   3.424   6.914 -0.9338  2.1898 -1.8987
 1736TIP3   OH2 5143   1.826   6.784   1.452 -0.6096 -0.1564 -0.0218
 1736TIP3    H1 5144   1.889   6.789   1.379  1.2450  0.1195  1.5499
 1736TIP3    H2 5145   1.837   6.696   1.487  0.3364  0.5202  1.4654
 1737TIP3   OH2 5146   1.727   7.010   0.749 -0.0951 -0.4507 -0.6167
 1737TIP3    H1 5147   1.734   7.048   0.662 -1.2161  0.3281 -0.3814
 1737TIP3    H2 5148   1.764   7.077   0.807 -0.8284 -0.2819 -0.3383
 1738TIP3   OH2 5149   1.898   6.333   1.258  0.3482 -0.1449 -0.4960
 1738TIP3    H1 5150   1.979   6.283   1.269 -0.1330 -0.4082  2.0016
 1738TIP3    H2 5151   1.927   6.420   1.230  1.4544 -0.3816 -0.0864
 1739TIP3   OH2 5152   3.714   5.664   1.088  0.6484 -0.1267  0.2174
 1739TIP3    H1 5153   3.643   5.626   1.036 -0.5557  0.9664  1.0214
 1739TIP3    H2 5154   3.791   5.661   1.031 -0.3756 -0.0672 -1.1757
 1740TIP3   OH2 5155   0.891   6.238   0.962 -0.4946 -0.1566 -0.5245
 1740TIP3    H1 5156   0.954   6.236   0.890  0.1639 -0.8758  0.0583
 1740TIP3    H2 5157   0.805   6.230   0.920 -0.1123 -0.6998 -1.2157
 1741TIP3   OH2 5158   0.765   3.051   4.967  0.1999 -0.1361 -0.2795
 1741TIP3    H1 5159   0.794   3.011   4.884  0.7529 -0.7762  0.2165
 1741TIP3    H2 5160   0.845   3.055   5.020 -0.1509  0.3051  0.2099
 1742TIP3   OH2 5161   7.189   2.632   5.749  0.7860  0.0090  0.1036
 1742TIP3    H1 5162   7.273   2.588   5.763  2.1273  2.2885 -0.6104
 1742TIP3    H2 5163   7.211   2.710   5.697 -1.6507  1.0652  0.6084
 1743TIP3   OH2 5164   2.784   4.151   0.771  0.1872  0.6388  0.0209
 1743TIP3    H1 5165   2.747   4.215   0.831 -0.4940  0.2397  0.0337
 1743TIP3    H2 5166   2.875   4.177   0.760  0.1999  0.9590  0.8929
 1744TIP3   OH2 5167   6.890   0.409   1.826  0.2434 -0.1779 -0.1568
 1744TIP3    H1 5168   6.954   0.400   1.897 -1.4131 -1.6523  1.1708
 1744TIP3    H2 5169   6.935   0.375   1.749  1.5155  0.0280  0.4786
 1745TIP3   OH2 5170   2.339   6.409   1.170  0.2273 -0.3979  0.0499
 1745TIP3    H1 5171   2.378   6.368   1.093  1.3394  1.8703 -0.6580
 1745TIP3    H2 5172   2.291   6.485   1.135 -0.8214 -0.4120  1.4113
 1746TIP3   OH2 5173   3.209   0.838   0.847 -0.1150  0.3554  0.8676
 1746TIP3    H1 5174   3.148   0.772   0.814 -0.9715  0.6639  1.7979
 1746TIP3    H2 5175   3.185   0.848   0.939  1.3800  0.4490  1.2522
 1747TIP3   OH2 5176   4.320   7.514   1.319  0.1956 -0.4496 -0.1910
 1747TIP3    H1 5177   4.391   7.577   1.331  0.2774 -0.9012  1.8577
 1747TIP3    H2 5178   4.277   7.511   1.404 -3.4901  1.2134 -1.9159
 1748TIP3   OH2 5179   4.394   0.066   1.705 -0.6397 -0.4105 -0.2871
 1748TIP3    H1 5180   4.391  -0.026   1.731 -0.2691 -0.1988  0.5315
 1748TIP3    H2 5181   4.456   0.106   1.766  1.8880 -0.3137 -2.8299
 1749TIP3   OH2 5182   2.518   6.224   0.087  0.2039 -0.0653  0.4043
 1749TIP3    H1 5183   2.458   6.298   0.076 -0.6867 -0.7418  0.6278
 1749TIP3    H2 5184   2.483   6.156   0.028 -0.3857 -1.1422  1.9647
 1750TIP3   OH2 5185   1.899   3.085   6.637 -0.6849 -0.1476  0.8056
 1750TIP3    H1 5186   1.911   3.148   6.707  1.1180  1.4520 -0.8795
 1750TIP3    H2 5187   1.817   3.112   6.594 -0.6107  0.2474  0.9091
 1751TIP3   OH2 5188   2.233   7.648   1.965 -0.3372 -0.3816  0.3406
 1751TIP3    H1 5189   2.307   7.707   1.977 -1.0138  0.5399  0.0508
 1751TIP3    H2 5190   2.200   7.633   2.054 -0.3827 -0.0371  0.3821
 1752TIP3   OH2 5191   2.917   7.136   0.890  0.3325  0.1633  0.1112
 1752TIP3    H1 5192   2.962   7.214   0.859  0.8519 -0.2745 -0.2436
 1752TIP3    H2 5193   2.962   7.063   0.847 -0.6503 -0.2876 -0.1712
 1753TIP3   OH2 5194   2.417   6.254   0.974 -0.6420  0.0314 -0.3880
 1753TIP3    H1 5195   2.498   6.277   0.928 -1.1279  1.3311 -0.6351
 1753TIP3    H2 5196   2.390   6.171   0.936  3.0634 -2.8719  3.0103
 1754TIP3   OH2 5197   3.992   6.916   0.942  0.7797 -0.0887  0.4088
 1754TIP3    H1 5198   3.935   6.892   1.016 -0.6316 -1.0734 -0.9643
 1754TIP3    H2 5199   4.014   6.832   0.902  0.9241  0.4953 -0.7378
 1755TIP3   OH2 5200   3.537   7.414   1.611 -0.6014  0.2573  0.2778
 1755TIP3    H1 5201   3.447   7.440   1.592 -0.1603  1.0643 -0.7657
 1755TIP3    H2 5202   3.544   7.325   1.577 -0.5169  0.8173 -1.2105
 1756TIP3   OH2 5203   3.205   7.609   0.154 -0.4584  0.0184 -0.1782
 1756TIP3    H1 5204   3.121   7.608   0.201 -0.4143  0.5127 -0.0874
 1756TIP3    H2 5205   3.271   7.603   0.222 -0.4026  0.4192 -0.1958
 1757TIP3   OH2 5206   2.146   6.224   1.939 -0.5986  0.1414  0.2356
 1757TIP3    H1 5207   2.062   6.260   1.969 -0.1845  0.4309  1.0512
 1757TIP3    H2 5208   2.196   6.211   2.019  0.5079  0.8762 -0.3275
 1758TIP3   OH2 5209   0.977   1.335   6.180  0.0970  0.0933 -0.2471
 1758TIP3    H1 5210   0.891   1.334   6.139  0.2373  1.5261 -0.6022
 1758TIP3    H2 5211   1.019   1.414   6.146  1.1693 -0.0541  0.7050
 1759TIP3   OH2 5212   1.685   4.254   3.244  0.0623 -0.1811 -0.0911
 1759TIP3    H1 5213   1.652   4.166   3.264 -0.1503 -0.6632 -2.4232
 1759TIP3    H2 5214   1.683   4.259   3.149  0.1281  2.3500  0.0143
 1760TIP3   OH2 5215   3.232   4.773   1.347  0.3093 -0.5516 -0.6336
 1760TIP3    H1 5216   3.218   4.851   1.400  1.4745  0.2442 -1.4688
 1760TIP3    H2 5217   3.144   4.748   1.318 -0.5113 -1.7190  2.5992
 1761TIP3   OH2 5218   4.829   0.318   3.314  0.8259  0.0507  0.4818
 1761TIP3    H1 5219   4.789   0.260   3.378  0.8108  1.2134  1.5466
 1761TIP3    H2 5220   4.761   0.382   3.293  1.0415  0.0599 -0.1885
 1762TIP3   OH2 5221   3.903   4.535   1.195  0.2051  0.6052  0.2483
 1762TIP3    H1 5222   3.857   4.558   1.276  0.7535 -0.1684  0.7803
 1762TIP3    H2 5223   3.878   4.444   1.178 -2.5549  1.7128 -2.2640
 1763TIP3   OH2 5224   2.718   2.070   4.741 -0.7591 -0.1782  0.2388
 1763TIP3    H1 5225   2.767   2.143   4.779  1.7301 -1.1457 -0.9775
 1763TIP3    H2 5226   2.726   2.084   4.646 -1.3606 -1.3129  0.0163
 1764TIP3   OH2 5227   5.031   7.075   0.499 -0.1452  0.4925 -0.5272
 1764TIP3    H1 5228   5.035   6.985   0.467  1.4222  0.5583 -0.5448
 1764TIP3    H2 5229   5.066   7.127   0.427 -3.0618  1.3792 -1.3879
 1765TIP3   OH2 5230   3.876   4.379   0.727  0.2475  0.1258  0.2284
 1765TIP3    H1 5231   3.815   4.409   0.794  2.0792  1.9607  1.1317
 1765TIP3    H2 5232   3.914   4.299   0.763  0.0109  0.1954  0.6307
 1766TIP3   OH2 5233   2.565   7.097   1.723 -0.3209 -0.3695 -0.2625
 1766TIP3    H1 5234   2.546   7.030   1.788 -0.1843 -1.4634 -1.3358
 1766TIP3    H2 5235   2.501   7.166   1.740 -0.5835 -0.8540  0.7363
 1767TIP3   OH2 5236   1.627   6.595   2.379  0.2601 -0.1757  0.4680
 1767TIP3    H1 5237   1.566   6.662   2.411 -0.5618 -0.4183 -0.5476
 1767TIP3    H2 5238   1.668   6.635   2.302 -0.3093 -0.8643 -0.2056
 1768TIP3   OH2 5239   3.085   5.203   2.636  0.2541  0.4939  0.0240
 1768TIP3    H1 5240   3.018   5.195   2.704 -0.0332  0.2249 -0.2881
 1768TIP3    H2 5241   3.072   5.126   2.581  0.1636  0.9606 -0.6177
 1769TIP3   OH2 5242   6.128   1.569   1.235 -0.0115  0.4896 -0.0923
 1769TIP3    H1 5243   6.150   1.535   1.148  1.3683  2.7240 -0.6429
 1769TIP3    H2 5244   6.201   1.541   1.290 -0.5537 -0.3438  0.2119
 1770TIP3   OH2 5245   0.762   2.462   6.392 -0.5276  0.5430  0.3912
 1770TIP3    H1 5246   0.758   2.475   6.487 -2.1137 -1.5475  0.6509
 1770TIP3    H2 5247   0.673   2.480   6.361 -0.6071 -1.0113 -0.3514
 1771TIP3   OH2 5248   5.156   0.192   2.132 -0.2235 -0.2276  0.1963
 1771TIP3    H1 5249   5.140   0.100   2.109 -0.0191 -0.6451  1.6694
 1771TIP3    H2 5250   5.115   0.202   2.218  0.3059  0.8926  0.3183
 1772TIP3   OH2 5251   8.167   2.619   5.055 -0.0454  0.5108 -0.3507
 1772TIP3    H1 5252   8.124   2.601   5.138 -0.0311  2.0514  0.0004
 1772TIP3    H2 5253   8.116   2.569   4.991  1.7936 -3.2146  0.9309
 1773TIP3   OH2 5254   0.265   3.140   5.059 -0.3702 -0.0424  0.3534
 1773TIP3    H1 5255   0.203   3.069   5.070  0.0578 -0.3640  0.6921
 1773TIP3    H2 5256   0.300   3.127   4.970 -0.6232  0.0148  0.2440
 1774TIP3   OH2 5257   0.050   2.005   6.906 -0.0872 -0.5792  0.7414
 1774TIP3    H1 5258  -0.022   2.054   6.869 -1.6675 -2.6755  0.9395
 1774TIP3    H2 5259   0.064   2.044   6.992  0.8386  1.5813 -0.3606
 1775TIP3   OH2 5260   2.818   4.745   0.240  0.4407 -0.0463  0.1917
 1775TIP3    H1 5261   2.752   4.808   0.268 -0.6252 -0.7596 -0.6679
 1775TIP3    H2 5262   2.847   4.704   0.321  0.0017  0.4438  0.6061
 1776TIP3   OH2 5263   5.216   5.505   3.465 -0.3425 -0.1652 -0.0670
 1776TIP3    H1 5264   5.214   5.587   3.416 -1.9897  0.5772  1.2277
 1776TIP3    H2 5265   5.197   5.438   3.399  2.0020  0.3609 -1.3230
 1777TIP3   OH2 5266   3.285   7.551   1.547  0.0129  0.2201  0.5592
 1777TIP3    H1 5267   3.227   7.625   1.559 -0.3401  0.4493 -2.1034
 1777TIP3    H2 5268   3.292   7.541   1.452  1.4540 -2.0526  0.8439
 1778TIP3   OH2 5269   1.072   0.673   2.941  0.1081 -0.4600 -0.1507
 1778TIP3    H1 5270   1.160   0.638   2.926 -0.2739 -1.5874  0.1831
 1778TIP3    H2 5271   1.015   0.617   2.889 -0.8533 -2.3114  2.7988
 1779TIP3   OH2 5272   1.459   2.006   4.894  0.1660  0.1244 -0.2383
 1779TIP3    H1 5273   1.502   2.090   4.908 -0.3956  0.3936 -0.1226
 1779TIP3    H2 5274   1.517   1.958   4.835  0.3861  0.6699 -0.4611
 1780TIP3   OH2 5275   0.772   7.721   3.812 -0.5242  0.5947  0.0977
 1780TIP3    H1 5276   0.754   7.629   3.832  2.2854 -0.3034 -1.1010
 1780TIP3    H2 5277   0.764   7.766   3.895 -2.2040 -0.6882  0.6595
 1781TIP3   OH2 5278   2.124   1.526   3.822  0.3963 -0.7478 -0.1379
 1781TIP3    H1 5279   2.029   1.535   3.812  0.7590  2.9462 -0.8369
 1781TIP3    H2 5280   2.140   1.541   3.915  0.4400  0.0909 -0.2814
 1782TIP3   OH2 5281   8.060   1.337   1.730  0.4664  0.0533  0.0800
 1782TIP3    H1 5282   8.066   1.430   1.754  0.6310  0.3339 -1.0034
 1782TIP3    H2 5283   8.071   1.337   1.635 -1.8506 -0.8607 -0.2138
 1783TIP3   OH2 5284   7.030   6.857   3.484  0.2319  0.2994  0.3447
 1783TIP3    H1 5285   7.005   6.813   3.565 -1.1926 -1.3356 -0.9135
 1783TIP3    H2 5286   6.960   6.921   3.469  0.8902  1.1298  0.7826
 1784TIP3   OH2 5287   1.263   2.387   4.308  0.3300 -0.4852  0.5171
 1784TIP3    H1 5288   1.323   2.372   4.381  0.5469 -0.2683  0.3865
 1784TIP3    H2 5289   1.279   2.314   4.248  1.1724  0.0998  0.0185
 1785TIP3   OH2 5290   3.125   2.948   3.066 -0.0638  0.1709 -0.2007
 1785TIP3    H1 5291   3.045   2.937   3.015  0.2733  0.0385 -0.7013
 1785TIP3    H2 5292   3.100   3.006   3.138  0.2149  2.9509 -2.2706
 1786TIP3   OH2 5293   4.189   8.022   3.251 -0.1383  0.7953  0.2640
 1786TIP3    H1 5294   4.252   8.025   3.180  1.6115  0.5198  1.7652
 1786TIP3    H2 5295   4.107   7.993   3.210  1.1106 -0.4287 -1.4158
 1787TIP3   OH2 5296   4.364   0.343   4.172 -0.1089 -0.3023 -0.7018
 1787TIP3    H1 5297   4.357   0.416   4.110 -1.2029  0.5693  0.4210
 1787TIP3    H2 5298   4.405   0.273   4.122 -1.2120  0.2943 -2.4899
 1788TIP3   OH2 5299   2.553   1.929   5.738  0.2544  0.1689 -0.0919
 1788TIP3    H1 5300   2.557   1.880   5.656  1.2019  1.6462 -0.9495
 1788TIP3    H2 5301   2.539   2.019   5.711  1.2306  0.7613  1.3499
 1789TIP3   OH2 5302   6.962   6.967   2.950 -0.9210 -0.6068  0.4006
 1789TIP3    H1 5303   7.044   6.989   2.995 -0.6907  0.0637 -0.3275
 1789TIP3    H2 5304   6.911   6.918   3.015 -0.5645  0.2632  1.3522
 1790TIP3   OH2 5305   1.926   1.105   4.246  0.5987 -0.1211  0.5376
 1790TIP3    H1 5306   1.954   1.150   4.326 -1.4705  0.7373  0.8133
 1790TIP3    H2 5307   1.923   1.175   4.180  1.8448 -0.7430 -0.2000
 1791TIP3   OH2 5308   1.805   0.056   4.520 -0.2637 -0.2043  0.1560
 1791TIP3    H1 5309   1.874   0.119   4.540  1.7312 -2.6490  1.2609
 1791TIP3    H2 5310   1.807   0.047   4.425  0.0903  0.6518  0.0768
 1792TIP3   OH2 5311   1.380   2.970   2.951 -0.3817 -0.4651 -0.1681
 1792TIP3    H1 5312   1.357   2.936   3.037 -1.2638 -0.5932 -0.4443
 1792TIP3    H2 5313   1.322   2.924   2.891  2.0242 -2.2798 -1.1431
 1793TIP3   OH2 5314   0.396   1.115   4.312  0.8031 -0.1543 -0.2618
 1793TIP3    H1 5315   0.484   1.136   4.281  1.8691 -3.5213  0.2833
 1793TIP3    H2 5316   0.402   1.121   4.407 -0.5742  3.1033 -0.3052
 1794TIP3   OH2 5317   1.061   1.330   3.928 -1.0045 -0.5466  0.2120
 1794TIP3    H1 5318   1.119   1.392   3.885 -0.7608 -0.4319  0.7041
 1794TIP3    H2 5319   1.086   1.245   3.893 -2.9737 -0.1451 -2.3246
 1795TIP3   OH2 5320   1.800   2.701   2.567  0.1214  0.2758  0.1473
 1795TIP3    H1 5321   1.895   2.694   2.560  0.1066  0.2603 -0.0545
 1795TIP3    H2 5322   1.768   2.614   2.542  0.1143 -0.1108  1.4786
 1796TIP3   OH2 5323   0.557   0.617   2.032 -0.0172  0.0910  0.3820
 1796TIP3    H1 5324   0.640   0.602   2.078 -0.6993 -0.2006  1.5175
 1796TIP3    H2 5325   0.548   0.713   2.031  0.7533  0.1705 -0.5205
 1797TIP3   OH2 5326   2.406   1.410   5.473  1.1113  0.2629 -0.1351
 1797TIP3    H1 5327   2.436   1.327   5.437 -2.2256 -0.6065 -1.0914
 1797TIP3    H2 5328   2.379   1.389   5.563 -0.8409  0.0245 -0.7617
 1798TIP3   OH2 5329   7.491   7.966   3.775  0.4628 -0.2349  0.3827
 1798TIP3    H1 5330   7.459   8.026   3.707 -0.5586 -0.3311  0.7749
 1798TIP3    H2 5331   7.556   7.912   3.730  0.0057 -0.1091 -0.4418
 1799TIP3   OH2 5332   1.352   0.352   4.386 -0.3010  0.3839 -0.2504
 1799TIP3    H1 5333   1.398   0.277   4.424 -0.5625  0.3359 -0.0262
 1799TIP3    H2 5334   1.310   0.317   4.308 -1.0786  0.1028  0.2795
 1800TIP3   OH2 5335   2.298   3.383   3.981  0.4773 -0.2257  0.4296
 1800TIP3    H1 5336   2.228   3.338   3.934  1.8059 -0.6528 -1.1625
 1800TIP3    H2 5337   2.320   3.325   4.053 -1.6374  0.4766  1.7193
 1801TIP3   OH2 5338   2.392   0.709   3.035 -0.4254  0.1850 -0.2630
 1801TIP3    H1 5339   2.315   0.718   3.091  0.1229 -0.1433  0.5431
 1801TIP3    H2 5340   2.426   0.621   3.052 -1.4289 -0.7240 -2.6328
 1802TIP3   OH2 5341   0.907   1.212   2.424 -0.4641 -0.2821  0.4164
 1802TIP3    H1 5342   0.832   1.176   2.376 -0.9952 -2.1115  2.5727
 1802TIP3    H2 5343   0.922   1.151   2.495  1.6486  1.2955  1.3712
 1803TIP3   OH2 5344   7.532   5.991   1.910  0.1736 -0.1819  0.4968
 1803TIP3    H1 5345   7.584   5.923   1.868 -0.7126 -0.5850  0.0218
 1803TIP3    H2 5346   7.576   6.072   1.888  0.2619 -0.4700 -0.4067
 1804TIP3   OH2 5347   2.188   0.971   4.223  0.8594  0.5831  0.1787
 1804TIP3    H1 5348   2.248   0.917   4.274 -0.5680 -0.4294  0.7931
 1804TIP3    H2 5349   2.239   1.049   4.202  1.8705  0.4700  2.1110
 1805TIP3   OH2 5350   0.938   0.235   4.561 -0.6024 -0.2333  0.0434
 1805TIP3    H1 5351   0.941   0.164   4.625 -1.4919  0.0225  0.3858
 1805TIP3    H2 5352   0.967   0.195   4.479 -0.9385 -0.9579  0.2725
 1806TIP3   OH2 5353   1.780   1.529   2.135 -0.8807 -0.0623  0.0371
 1806TIP3    H1 5354   1.869   1.565   2.139 -0.7974 -0.1835 -0.6062
 1806TIP3    H2 5355   1.787   1.444   2.178 -0.8844  0.3098  0.7838
 1807TIP3   OH2 5356   5.175   7.210   2.661  0.0739 -0.2920 -0.5231
 1807TIP3    H1 5357   5.084   7.236   2.679  0.3334  0.6406 -0.5568
 1807TIP3    H2 5358   5.206   7.172   2.743 -0.4745 -0.9815 -0.6276
 1808TIP3   OH2 5359   3.172   0.705   4.032  0.2160 -0.2498 -0.0760
 1808TIP3    H1 5360   3.248   0.668   4.076  1.3234  1.3628 -0.5559
 1808TIP3    H2 5361   3.152   0.784   4.082  1.2738  1.4096 -2.1952
 1809TIP3   OH2 5362   8.202   7.336   2.873 -0.3416 -0.0542  0.0658
 1809TIP3    H1 5363   8.215   7.336   2.778  1.2071 -0.5589  0.2624
 1809TIP3    H2 5364   8.127   7.279   2.887 -2.1309  1.9870 -1.0386
 1810TIP3   OH2 5365   1.147   0.358   3.378 -0.0860 -0.4822 -0.1873
 1810TIP3    H1 5366   1.170   0.266   3.378 -1.2165 -0.7737 -0.4935
 1810TIP3    H2 5367   1.082   0.367   3.308 -0.2021  0.4836  0.0315
 1811TIP3   OH2 5368   1.560   2.660   5.297 -0.3859  0.3147  0.3793
 1811TIP3    H1 5369   1.549   2.578   5.345 -2.0290  0.0216 -0.4451
 1811TIP3    H2 5370   1.608   2.637   5.218 -1.1319  0.0660 -0.0107
 1812TIP3   OH2 5371   2.161   0.425   5.053  0.1372 -0.3631  0.3492
 1812TIP3    H1 5372   2.157   0.409   5.147  1.3679 -3.8485 -0.1059
 1812TIP3    H2 5373   2.083   0.381   5.018  0.5897 -0.5860 -0.3986
 1813TIP3   OH2 5374   3.160   2.322   2.205 -0.5529 -0.0430 -0.3027
 1813TIP3    H1 5375   3.066   2.338   2.203 -0.5348  0.1446  0.2825
 1813TIP3    H2 5376   3.180   2.305   2.297 -0.2354 -1.4304 -0.6152
 1814TIP3   OH2 5377   0.831   0.212   2.207  0.2072 -0.0331  0.2950
 1814TIP3    H1 5378   0.797   0.284   2.155 -0.5639 -0.1965  0.5778
 1814TIP3    H2 5379   0.898   0.172   2.151 -1.1414 -0.6780 -0.8841
 1815TIP3   OH2 5380   2.184   1.547   2.642 -0.0209  0.0489  0.3105
 1815TIP3    H1 5381   2.133   1.469   2.621  0.9121 -0.2376 -0.9403
 1815TIP3    H2 5382   2.244   1.519   2.711  1.0813 -0.6480 -0.9198
 1816TIP3   OH2 5383   0.991   0.750   4.970  0.0976  0.0082  0.4893
 1816TIP3    H1 5384   0.929   0.823   4.976 -0.3436 -0.4020  0.9768
 1816TIP3    H2 5385   1.019   0.750   4.878 -0.2995  0.4685  0.3667
 1817TIP3   OH2 5386   0.814   7.398   3.362  0.1428 -0.2827 -0.0048
 1817TIP3    H1 5387   0.788   7.422   3.450 -1.0662 -0.5259 -0.2917
 1817TIP3    H2 5388   0.765   7.318   3.343  1.3369 -0.9393 -0.4372
 1818TIP3   OH2 5389   1.049   2.125   4.376 -0.1740 -0.1985  0.3481
 1818TIP3    H1 5390   1.051   2.185   4.450 -0.0348  0.6691 -0.3523
 1818TIP3    H2 5391   0.977   2.064   4.397 -0.6471  0.5113  0.8206
 1819TIP3   OH2 5392   0.461   7.070   2.260  0.1173  0.0608  0.2588
 1819TIP3    H1 5393   0.443   7.158   2.225 -0.6442  0.4772  1.6604
 1819TIP3    H2 5394   0.513   7.027   2.192 -2.3374  0.4401 -1.9536
 1820TIP3   OH2 5395   2.995   0.831   2.572  0.3277  0.1523 -0.0630
 1820TIP3    H1 5396   2.903   0.822   2.551  0.1050  2.4068 -0.2237
 1820TIP3    H2 5397   2.996   0.861   2.663  0.9356 -0.8295  0.2559
 1821TIP3   OH2 5398   2.151   0.760   3.812 -0.2004  0.0108 -0.0941
 1821TIP3    H1 5399   2.176   0.842   3.770  0.4543  0.6731  1.5450
 1821TIP3    H2 5400   2.233   0.712   3.823 -0.1043  0.5960  1.9504
 1822TIP3   OH2 5401   0.866   7.347   4.203 -0.6235 -0.2943 -0.4534
 1822TIP3    H1 5402   0.830   7.293   4.273 -1.3314 -1.0633 -1.4064
 1822TIP3    H2 5403   0.789   7.376   4.153 -0.0168 -1.1022 -1.8878
 1823TIP3   OH2 5404   1.078   0.714   2.045 -0.1664 -0.2479  0.2455
 1823TIP3    H1 5405   1.081   0.640   2.105 -0.1011 -0.8439 -0.4883
 1823TIP3    H2 5406   1.131   0.782   2.087 -0.1584 -0.6495  0.8741
 1824TIP3   OH2 5407   0.638   6.625   4.740  0.0557  0.0204  0.1928
 1824TIP3    H1 5408   0.705   6.693   4.728  0.7696 -0.5257  0.9417
 1824TIP3    H2 5409   0.677   6.547   4.700 -1.0908  0.2357 -1.3596
 1825TIP3   OH2 5410   8.084   6.750   2.921  0.1743  0.3778  0.1817
 1825TIP3    H1 5411   8.110   6.824   2.865 -0.2537 -0.6342 -1.3836
 1825TIP3    H2 5412   8.117   6.773   3.008  0.7875  2.0201 -0.4640
 1826TIP3   OH2 5413   0.669   6.303   3.821 -0.1338 -0.2175 -0.3432
 1826TIP3    H1 5414   0.720   6.338   3.748 -1.1697  1.4629 -0.2732
 1826TIP3    H2 5415   0.604   6.245   3.780  2.0095 -2.6641 -0.4047
 1827TIP3   OH2 5416   8.370   6.910   2.513 -0.4939 -0.7041 -0.4317
 1827TIP3    H1 5417   8.403   6.998   2.531  0.1804 -1.3294  1.5304
 1827TIP3    H2 5418   8.442   6.866   2.468 -0.3701 -0.6295 -0.3079
 1828TIP3   OH2 5419   2.426   1.083   4.200 -0.2395  0.2889  0.0671
 1828TIP3    H1 5420   2.426   1.003   4.148 -1.0230  1.5416 -1.9406
 1828TIP3    H2 5421   2.517   1.111   4.201 -0.3626  0.8591 -1.6774
 1829TIP3   OH2 5422   2.490   1.393   1.107  0.0129 -0.0728  0.0863
 1829TIP3    H1 5423   2.519   1.307   1.135  3.7384  0.6622 -1.2508
 1829TIP3    H2 5424   2.502   1.393   1.012 -2.9062  0.9056 -0.3481
 1830TIP3   OH2 5425   2.418   0.113   3.511 -0.6776 -0.1773  0.4583
 1830TIP3    H1 5426   2.500   0.063   3.502 -0.1129  0.9014 -0.5620
 1830TIP3    H2 5427   2.385   0.089   3.597  1.7137  0.8363  1.7048
 1831TIP3   OH2 5428   2.350   0.183   4.636  0.0969 -0.3103  0.1006
 1831TIP3    H1 5429   2.318   0.264   4.675  0.5368 -0.7737  1.4709
 1831TIP3    H2 5430   2.445   0.194   4.631  0.0691 -0.3563 -0.6310
 1832TIP3   OH2 5431   2.301   0.352   3.558 -0.7405 -0.2285 -0.3404
 1832TIP3    H1 5432   2.298   0.264   3.519 -2.1062 -1.0758  1.5812
 1832TIP3    H2 5433   2.261   0.409   3.493 -0.7932 -1.2062 -1.1729
 1833TIP3   OH2 5434   0.959   7.277   1.856 -0.3056 -0.4039  0.0666
 1833TIP3    H1 5435   1.005   7.254   1.937 -0.7051 -0.9903  0.1274
 1833TIP3    H2 5436   0.876   7.230   1.861 -0.5954  0.0480 -0.4019
 1834TIP3   OH2 5437   2.477   1.901   2.865 -0.3720  0.1019 -0.1683
 1834TIP3    H1 5438   2.405   1.962   2.881  0.8238  1.5485 -0.2289
 1834TIP3    H2 5439   2.556   1.949   2.891  0.8484 -0.4350 -2.7103
 1835TIP3   OH2 5440   2.406   1.053   1.910  0.0576 -0.3399  0.8745
 1835TIP3    H1 5441   2.424   1.125   1.970 -0.9424  0.1859  0.5629
 1835TIP3    H2 5442   2.400   1.094   1.824 -0.5113 -0.7928  0.6911
 1836TIP3   OH2 5443   1.135   7.142   3.161  0.2240 -0.1079  0.1412
 1836TIP3    H1 5444   1.137   7.159   3.256 -1.2627  0.3396  0.1070
 1836TIP3    H2 5445   1.046   7.113   3.144  0.1807  0.8217 -1.3061
 1837TIP3   OH2 5446   0.633   5.158   4.146 -0.0519 -0.6149 -0.1125
 1837TIP3    H1 5447   0.687   5.228   4.182  0.7198 -1.1457 -0.2220
 1837TIP3    H2 5448   0.673   5.138   4.062 -0.3210 -1.1299 -0.1192
 1838TIP3   OH2 5449   4.531   0.607   4.190  0.2309 -0.4741 -0.2913
 1838TIP3    H1 5450   4.554   0.654   4.110  1.3270 -0.9387 -0.2517
 1838TIP3    H2 5451   4.465   0.663   4.232  0.5533  0.3745 -0.9020
 1839TIP3   OH2 5452   2.228   2.171   3.004 -0.2164  0.2120 -0.8289
 1839TIP3    H1 5453   2.207   2.134   2.918 -0.3275  1.4263 -1.3437
 1839TIP3    H2 5454   2.146   2.163   3.054 -0.8232  1.5069 -1.5809
 1840TIP3   OH2 5455   0.928   2.412   3.916 -0.5533  0.6958  0.0379
 1840TIP3    H1 5456   0.841   2.447   3.898 -1.8053 -2.9961 -1.5853
 1840TIP3    H2 5457   0.921   2.319   3.895  3.1843 -0.1302  2.0247
 1841TIP3   OH2 5458   4.505   1.697   2.051  0.7533  0.0337  0.1806
 1841TIP3    H1 5459   4.475   1.715   1.962  1.1762  0.0957  0.0484
 1841TIP3    H2 5460   4.443   1.633   2.085  0.8095 -0.2772 -0.2921
 1842TIP3   OH2 5461   7.563   6.906   2.153  0.1816  0.2303 -0.2837
 1842TIP3    H1 5462   7.639   6.961   2.135 -0.5374  1.8676  1.4449
 1842TIP3    H2 5463   7.594   6.841   2.216  0.3379  0.3957 -0.1908
 1843TIP3   OH2 5464   3.749   0.266   2.996  0.1143  0.3558  0.3670
 1843TIP3    H1 5465   3.770   0.254   3.089  0.7207 -0.5014  0.1165
 1843TIP3    H2 5466   3.834   0.269   2.952 -0.1626  0.9910 -0.1436
 1844TIP3   OH2 5467   3.930   0.843   2.061  0.5625 -0.0347 -0.2305
 1844TIP3    H1 5468   3.942   0.756   2.098  1.8969 -0.1694 -0.9479
 1844TIP3    H2 5469   3.897   0.897   2.133 -0.2172 -1.1183  0.2226
 1845TIP3   OH2 5470   8.209   5.743   0.494  0.3487  0.7566  1.0140
 1845TIP3    H1 5471   8.142   5.675   0.482  0.3861  1.0223 -0.8318
 1845TIP3    H2 5472   8.174   5.798   0.564 -0.6906  0.0628  1.0578
 1846TIP3   OH2 5473   3.321   0.924   2.280 -0.1369  0.2792 -0.0204
 1846TIP3    H1 5474   3.343   0.878   2.199 -0.0363  0.7226 -0.2463
 1846TIP3    H2 5475   3.283   0.856   2.336  0.4433 -0.1779 -0.1734
 1847TIP3   OH2 5476   2.592   0.292   4.550  0.5100  0.1894  0.7822
 1847TIP3    H1 5477   2.683   0.262   4.554  0.4126 -0.4883 -1.4028
 1847TIP3    H2 5478   2.589   0.367   4.610  2.6131  0.4439  0.6124
 1848TIP3   OH2 5479   4.117   1.564   2.291  0.2361 -0.0223 -0.7381
 1848TIP3    H1 5480   4.090   1.474   2.310 -1.7408  0.0415 -2.9763
 1848TIP3    H2 5481   4.039   1.616   2.306  1.0455  1.1704 -0.6063
 1849TIP3   OH2 5482   3.287   2.046   2.127  0.2313 -0.1486 -0.1675
 1849TIP3    H1 5483   3.253   2.129   2.158  1.0022 -0.2104  0.8849
 1849TIP3    H2 5484   3.372   2.037   2.171 -0.2207 -1.8699  0.3937
 1850TIP3   OH2 5485   1.737   1.244   3.779 -0.1065  0.0151  0.4053
 1850TIP3    H1 5486   1.731   1.148   3.784  0.0783 -0.0027  0.3204
 1850TIP3    H2 5487   1.655   1.271   3.737  0.7089 -0.2810 -1.4446
 1851TIP3   OH2 5488   1.902   2.212   2.262 -0.1288  0.4312 -0.0260
 1851TIP3    H1 5489   1.818   2.166   2.268 -0.6334  1.2356 -0.9547
 1851TIP3    H2 5490   1.938   2.185   2.177  0.5194  0.1641  0.3253
 1852TIP3   OH2 5491   5.588   1.582   1.794 -0.1463 -0.7315 -0.2323
 1852TIP3    H1 5492   5.620   1.503   1.837  0.8208 -0.0990  0.2339
 1852TIP3    H2 5493   5.667   1.630   1.769 -0.6874  1.2368  1.6420
 1853TIP3   OH2 5494   4.935   1.165   0.985 -0.4506 -0.6815 -0.4361
 1853TIP3    H1 5495   5.019   1.137   0.949 -1.2144 -0.0547 -2.8285
 1853TIP3    H2 5496   4.953   1.186   1.076  1.8367 -1.1795 -0.7528
 1854TIP3   OH2 5497   2.555   1.211   3.387  0.2467  0.4263 -0.2244
 1854TIP3    H1 5498   2.523   1.273   3.452  1.5809  0.9728 -0.0568
 1854TIP3    H2 5499   2.553   1.259   3.304 -3.0292 -0.8082 -0.9141
 1855TIP3   OH2 5500   3.091   1.653   4.369  0.3573  0.1758  0.7435
 1855TIP3    H1 5501   3.138   1.693   4.442 -0.1072 -0.1232  1.2053
 1855TIP3    H2 5502   3.117   1.704   4.292  1.2159  0.1876  1.0439
 1856TIP3   OH2 5503   0.500   0.757   2.393  0.2776  0.0620 -0.2087
 1856TIP3    H1 5504   0.411   0.744   2.360  0.0336  0.6091  0.2478
 1856TIP3    H2 5505   0.530   0.838   2.352 -0.3851  1.2867  1.6705
 1857TIP3   OH2 5506   5.650   0.552   0.027  0.3214  0.5686 -0.1366
 1857TIP3    H1 5507   5.556   0.557   0.009  0.5690 -1.4865 -2.3085
 1857TIP3    H2 5508   5.660   0.474   0.081  0.9363 -0.2037 -1.3420
 1858TIP3   OH2 5509   6.971   7.954   4.126  0.6067 -0.0827  0.2789
 1858TIP3    H1 5510   7.025   7.897   4.181  0.5630  0.8873  1.3401
 1858TIP3    H2 5511   6.881   7.926   4.145  0.6139 -0.0783  0.3188
 1859TIP3   OH2 5512   2.554   0.408   3.607  0.3730  0.7142  0.1833
 1859TIP3    H1 5513   2.589   0.402   3.518 -0.4980 -2.2480  0.0043
 1859TIP3    H2 5514   2.459   0.399   3.597  0.2365  0.7217  1.3867
 1860TIP3   OH2 5515   3.656   0.641   3.588 -0.1150  0.8426 -0.3141
 1860TIP3    H1 5516   3.601   0.698   3.535  0.0513  0.4233 -0.9607
 1860TIP3    H2 5517   3.731   0.695   3.611 -0.2970  1.0999 -0.3243
 1861TIP3   OH2 5518   0.516   7.916   3.754 -0.2855  0.1366 -0.2436
 1861TIP3    H1 5519   0.543   8.006   3.768 -1.1038  0.6108 -1.5866
 1861TIP3    H2 5520   0.441   7.903   3.812  0.2431  0.1046  0.4382
 1862TIP3   OH2 5521   3.345   1.906   4.136  0.1547  0.1455 -0.2457
 1862TIP3    H1 5522   3.416   1.959   4.099 -0.4021  0.0872 -1.4240
 1862TIP3    H2 5523   3.265   1.940   4.094 -0.3043 -1.0222 -0.3428
 1863TIP3   OH2 5524   3.212   1.200   3.935 -0.1219 -0.1356  0.2374
 1863TIP3    H1 5525   3.186   1.287   3.904  0.2787 -0.3686 -0.7482
 1863TIP3    H2 5526   3.204   1.206   4.031 -0.1592  0.9622  0.1734
 1864TIP3   OH2 5527   4.430   0.925   1.722  0.5165 -0.0920  0.6054
 1864TIP3    H1 5528   4.378   0.854   1.685 -0.7135  0.7357  0.7024
 1864TIP3    H2 5529   4.414   0.999   1.663  1.0459  0.3611  1.0221
 1865TIP3   OH2 5530   2.592   0.524   4.688  0.0286  0.1436  0.0250
 1865TIP3    H1 5531   2.669   0.507   4.742 -0.6259 -1.3938  0.4946
 1865TIP3    H2 5532   2.573   0.617   4.702  0.3956 -0.0332  1.7397
 1866TIP3   OH2 5533   0.731   7.882   4.047  0.6093 -0.5572 -0.3965
 1866TIP3    H1 5534   0.744   7.957   3.989  1.2169 -1.1219 -1.0059
 1866TIP3    H2 5535   0.801   7.890   4.113 -1.0417  0.9619  1.2214
 1867TIP3   OH2 5536   2.495   1.694   4.674 -0.0829  0.0514 -0.3342
 1867TIP3    H1 5537   2.500   1.652   4.588 -0.9622 -0.3263 -0.2062
 1867TIP3    H2 5538   2.502   1.622   4.737  1.3699  0.4131 -0.0785
 1868TIP3   OH2 5539   0.264   6.285   3.288  0.1589  0.3122  0.0451
 1868TIP3    H1 5540   0.214   6.356   3.328 -1.9130 -0.4932 -1.0494
 1868TIP3    H2 5541   0.209   6.207   3.299  1.3487 -0.6818 -0.8581
 1869TIP3   OH2 5542   3.298   1.268   1.361 -0.3639  0.4111 -0.5786
 1869TIP3    H1 5543   3.265   1.184   1.328 -1.3807  0.7285 -0.3986
 1869TIP3    H2 5544   3.280   1.330   1.291  2.0898  0.1399 -1.4736
 1870TIP3   OH2 5545   0.884   7.683   3.487 -0.0783 -0.2523  0.1202
 1870TIP3    H1 5546   0.827   7.619   3.530  0.2488  0.0627  1.0463
 1870TIP3    H2 5547   0.960   7.632   3.459  0.1042 -0.3016  0.7018
 1871TIP3   OH2 5548   3.800   0.402   2.111  0.2967  0.6757  0.2017
 1871TIP3    H1 5549   3.736   0.455   2.064 -0.5292 -1.7080 -1.5176
 1871TIP3    H2 5550   3.782   0.417   2.203  0.0827  3.3070 -0.2289
 1872TIP3   OH2 5551   1.803   0.743   3.595 -0.1836  0.5030 -0.0689
 1872TIP3    H1 5552   1.797   0.653   3.627 -1.5520  0.3599 -0.6992
 1872TIP3    H2 5553   1.726   0.754   3.540  0.3062  1.8688 -0.4957
 1873TIP3   OH2 5554   2.836   2.053   2.798 -0.3697  0.3330 -0.2564
 1873TIP3    H1 5555   2.839   1.970   2.752 -1.1634  0.1310  0.0661
 1873TIP3    H2 5556   2.780   2.038   2.873  0.9460  0.6578  0.8066
 1874TIP3   OH2 5557   1.345   7.579   4.131 -0.3430  0.7896 -0.8675
 1874TIP3    H1 5558   1.284   7.562   4.059 -0.0991 -2.6154 -0.3784
 1874TIP3    H2 5559   1.290   7.609   4.203 -0.8785  1.9492 -1.7451
 1875TIP3   OH2 5560   3.106   0.105   4.113  0.3092 -0.1747  0.5523
 1875TIP3    H1 5561   3.180   0.165   4.103  0.6407 -0.6263  0.2950
 1875TIP3    H2 5562   3.101   0.090   4.208 -1.5498  2.4755  0.9324
 1876TIP3   OH2 5563   6.281   5.283   5.244 -0.0404 -0.1619 -0.1481
 1876TIP3    H1 5564   6.242   5.198   5.267 -0.6207  0.3028  0.5953
 1876TIP3    H2 5565   6.347   5.298   5.312  1.0147 -0.6519 -1.0523
 1877TIP3   OH2 5566   7.166   6.542   1.920 -0.1680  0.4972 -0.8628
 1877TIP3    H1 5567   7.101   6.511   1.857 -1.9917  2.5055 -0.0501
 1877TIP3    H2 5568   7.148   6.636   1.928  0.9625  0.5440  1.5402
 1878TIP3   OH2 5569   2.634   0.349   3.329 -0.0171 -0.0905 -1.2651
 1878TIP3    H1 5570   2.725   0.338   3.301  0.0378 -1.2874 -0.6672
 1878TIP3    H2 5571   2.589   0.271   3.296 -0.7379  0.2728 -1.1639
 1879TIP3   OH2 5572   6.592   6.331   6.803  0.2501 -0.5806 -0.3344
 1879TIP3    H1 5573   6.610   6.246   6.844 -0.3325 -0.4649  0.1677
 1879TIP3    H2 5574   6.547   6.381   6.871 -0.0052 -0.1013 -0.8543
 1880TIP3   OH2 5575   7.568   6.356   4.177  0.4060 -0.0153 -0.2597
 1880TIP3    H1 5576   7.527   6.374   4.093  1.5160  0.1591 -0.7683
 1880TIP3    H2 5577   7.654   6.319   4.155 -0.0636 -1.8021  0.7783
 1881TIP3   OH2 5578   3.681   1.579   2.072 -0.1043 -0.0372  0.3275
 1881TIP3    H1 5579   3.675   1.674   2.070  2.8919  0.1608 -1.6207
 1881TIP3    H2 5580   3.732   1.556   1.995 -0.3888 -3.1999  1.0161
 1882TIP3   OH2 5581   1.783   7.268   2.817  0.0400 -0.3685  0.1570
 1882TIP3    H1 5582   1.838   7.258   2.739  0.6704 -1.8076  0.7498
 1882TIP3    H2 5583   1.704   7.217   2.798 -0.5907  0.7549 -0.2426
 1883TIP3   OH2 5584   6.137   0.406   3.213 -0.6592  0.6710  0.2289
 1883TIP3    H1 5585   6.118   0.343   3.283 -0.7739  1.3560  0.8200
 1883TIP3    H2 5586   6.055   0.413   3.164 -0.7499  0.6242  0.3742
 1884TIP3   OH2 5587   3.208   1.798   1.741 -0.3073 -0.0899  0.5820
 1884TIP3    H1 5588   3.190   1.764   1.829  0.0887 -0.1623  0.6377
 1884TIP3    H2 5589   3.130   1.847   1.718  0.0419  0.9056  1.4600
 1885TIP3   OH2 5590   0.267   7.261   0.909 -0.1094 -0.1574 -0.6871
 1885TIP3    H1 5591   0.222   7.319   0.970  1.4872  1.6674 -1.1722
 1885TIP3    H2 5592   0.233   7.285   0.823 -0.3611 -0.8277 -0.7777
 1886TIP3   OH2 5593   3.891  -0.009   2.205  0.4119 -0.0097 -0.3738
 1886TIP3    H1 5594   3.854   0.055   2.143  2.3622  1.2613 -0.2608
 1886TIP3    H2 5595   3.936   0.044   2.271  2.6093 -1.5079 -0.6116
 1887TIP3   OH2 5596   0.836   2.179   5.694  0.2844 -0.1116 -0.0537
 1887TIP3    H1 5597   0.785   2.256   5.720 -1.1028 -1.4402  1.2787
 1887TIP3    H2 5598   0.924   2.195   5.728  0.5384  1.7687 -1.5204
 1888TIP3   OH2 5599   5.145   1.463   4.150 -0.4501  0.0693 -0.3473
 1888TIP3    H1 5600   5.231   1.459   4.192 -1.5556  0.5458  2.0299
 1888TIP3    H2 5601   5.165   1.468   4.056  2.1643  2.7079  0.2699
 1889TIP3   OH2 5602   2.373   0.923   3.456 -0.1619 -0.3004 -0.1825
 1889TIP3    H1 5603   2.311   0.945   3.386 -1.0566 -0.2203  0.6192
 1889TIP3    H2 5604   2.360   0.829   3.471 -0.6568 -0.1305  0.5098
 1890TIP3   OH2 5605   5.064   1.160   1.509 -0.0478 -0.1131  0.6340
 1890TIP3    H1 5606   5.099   1.094   1.569 -0.0870  0.2716  1.0755
 1890TIP3    H2 5607   5.128   1.231   1.510 -0.2868  0.1055  0.5941
 1891TIP3   OH2 5608   3.453   1.671   1.650  0.3511 -0.0505  0.3421
 1891TIP3    H1 5609   3.455   1.666   1.554 -0.6436 -0.8361  0.3497
 1891TIP3    H2 5610   3.369   1.713   1.670  1.3418  1.7399  0.8261
 1892TIP3   OH2 5611   4.828   1.628   3.100  0.1985  0.2716  0.1011
 1892TIP3    H1 5612   4.766   1.579   3.155  1.0423  0.2125  1.0182
 1892TIP3    H2 5613   4.899   1.567   3.085 -0.1070  0.2331 -1.2224
 1893TIP3   OH2 5614   6.895   7.557   3.033  0.1232  0.4044  0.1145
 1893TIP3    H1 5615   6.953   7.630   3.058  0.6385  0.0552 -0.0528
 1893TIP3    H2 5616   6.838   7.545   3.109  1.1191 -0.0844  0.7971
 1894TIP3   OH2 5617   1.530   7.130   3.795  0.8208 -0.1639 -0.4251
 1894TIP3    H1 5618   1.494   7.219   3.803  0.8889  0.0349 -2.1344
 1894TIP3    H2 5619   1.605   7.140   3.736  0.1495 -1.5197 -1.5482
 1895TIP3   OH2 5620   2.749   1.583   2.038  0.7855  0.8105 -0.2351
 1895TIP3    H1 5621   2.817   1.527   2.076 -0.6036 -1.3142 -0.8069
 1895TIP3    H2 5622   2.668   1.552   2.077 -0.3105  0.6335 -2.5748
 1896TIP3   OH2 5623   2.439   5.540   2.741  0.1248 -0.2187  0.4031
 1896TIP3    H1 5624   2.360   5.583   2.709  0.6765  0.9072  0.5068
 1896TIP3    H2 5625   2.410   5.493   2.820 -0.5466 -0.2678  0.1336
 1897TIP3   OH2 5626   5.673   0.828   1.663 -0.3691 -0.2684  0.0124
 1897TIP3    H1 5627   5.724   0.867   1.592 -0.3887 -0.4609 -0.1063
 1897TIP3    H2 5628   5.726   0.755   1.693 -0.1493  0.0821  0.4955
 1898TIP3   OH2 5629   3.107   0.316   1.181 -0.1398 -0.0505 -0.2485
 1898TIP3    H1 5630   3.066   0.275   1.257  2.1465 -1.9818  0.0196
 1898TIP3    H2 5631   3.074   0.266   1.106 -0.4553  0.2184 -0.2876
 1899TIP3   OH2 5632   1.488   7.763   3.503 -0.9480 -0.1978 -0.0450
 1899TIP3    H1 5633   1.439   7.822   3.561  0.5337  1.0509 -0.0125
 1899TIP3    H2 5634   1.529   7.699   3.562  0.2169  0.8200  0.2787
 1900TIP3   OH2 5635   3.701   2.170   2.942  0.2633 -0.3101 -0.3432
 1900TIP3    H1 5636   3.650   2.240   2.983  0.9481  0.0042 -0.0279
 1900TIP3    H2 5637   3.745   2.213   2.869 -0.4165 -0.7214 -1.0118
 1901TIP3   OH2 5638   2.364   7.971   3.726  1.0283  0.5448 -0.1813
 1901TIP3    H1 5639   2.278   7.935   3.705  0.6692  0.2513  1.6657
 1901TIP3    H2 5640   2.375   8.044   3.666  0.0177 -0.1601 -1.2530
 1902TIP3   OH2 5641   5.171   0.439   2.899  0.5353 -0.2280  0.0249
 1902TIP3    H1 5642   5.166   0.438   2.994  1.4330  0.4507  0.0813
 1902TIP3    H2 5643   5.080   0.435   2.870  0.2329  0.2377  0.9154
 1903TIP3   OH2 5644   1.143   7.616   3.388 -0.2387 -0.4896 -0.0018
 1903TIP3    H1 5645   1.136   7.614   3.292  1.8574 -0.4637 -0.1850
 1903TIP3    H2 5646   1.181   7.532   3.411  0.1480 -0.1288  0.7017
 1904TIP3   OH2 5647   1.348   1.659   3.103  0.1229 -0.5511  0.0547
 1904TIP3    H1 5648   1.288   1.734   3.103 -1.3994 -1.7382  1.3582
 1904TIP3    H2 5649   1.330   1.614   3.021  0.7968  0.2935 -0.5721
 1905TIP3   OH2 5650   2.934   0.469   5.166 -0.3364  0.7377  0.0507
 1905TIP3    H1 5651   2.988   0.536   5.207 -0.2273  0.7019 -0.0336
 1905TIP3    H2 5652   2.978   0.449   5.084 -0.1614  0.2913  0.2545
 1906TIP3   OH2 5653   2.267   1.651   1.564  0.0242 -0.4806 -0.5536
 1906TIP3    H1 5654   2.318   1.591   1.509 -1.3927 -0.5102 -1.8511
 1906TIP3    H2 5655   2.182   1.608   1.574 -0.6203  0.7744 -0.5383
 1907TIP3   OH2 5656   2.300   0.407   4.004 -0.0763 -0.0734 -0.2600
 1907TIP3    H1 5657   2.335   0.318   4.010 -0.2193 -0.1531 -0.6128
 1907TIP3    H2 5658   2.213   0.396   3.965  0.5175  0.3564 -1.7429
 1908TIP3   OH2 5659   3.434   0.866   1.595 -0.6348  0.7645 -0.3553
 1908TIP3    H1 5660   3.362   0.859   1.533 -0.0744  0.7937 -1.0283
 1908TIP3    H2 5661   3.394   0.858   1.681 -1.1477 -1.9233 -0.7733
 1909TIP3   OH2 5662   1.829   0.759   5.322 -0.1119  0.0383  0.0504
 1909TIP3    H1 5663   1.769   0.823   5.285 -0.8420 -1.6827 -1.8406
 1909TIP3    H2 5664   1.916   0.789   5.296 -0.5922 -0.9291 -2.8264
 1910TIP3   OH2 5665   0.462   5.517   3.014 -0.0987  0.4356 -0.6989
 1910TIP3    H1 5666   0.437   5.560   2.932  1.4359  3.5428  0.3985
 1910TIP3    H2 5667   0.552   5.545   3.029  0.6227 -2.4255  0.6102
 1911TIP3   OH2 5668   3.946   0.324   4.731 -0.2103 -0.0669  0.1128
 1911TIP3    H1 5669   3.889   0.375   4.789 -2.1410 -1.6961 -0.2919
 1911TIP3    H2 5670   3.909   0.337   4.644  2.6298  2.3050 -0.8369
 1912TIP3   OH2 5671   2.279   2.770   1.979  0.0841  0.0091  0.3873
 1912TIP3    H1 5672   2.360   2.782   2.028 -0.3941 -0.4869  1.3115
 1912TIP3    H2 5673   2.265   2.675   1.978 -0.3055  0.0683 -0.0468
 1913TIP3   OH2 5674   3.313   0.523   5.080 -0.1897 -0.2515  0.8899
 1913TIP3    H1 5675   3.373   0.525   5.006 -1.2020  0.3815  0.0727
 1913TIP3    H2 5676   3.290   0.615   5.095 -2.1384 -0.6130  0.2060
 1914TIP3   OH2 5677   6.838   6.664   3.316  0.4737  0.0700  0.2297
 1914TIP3    H1 5678   6.752   6.642   3.353  0.2393 -0.4071 -0.5876
 1914TIP3    H2 5679   6.896   6.667   3.392 -0.2252  0.2044  0.7696
 1915TIP3   OH2 5680   1.323   6.807   1.116  0.0321 -0.1872 -0.0792
 1915TIP3    H1 5681   1.384   6.742   1.149 -0.2400 -0.7312 -0.6438
 1915TIP3    H2 5682   1.339   6.885   1.170  1.0939 -0.3796 -0.1120
 1916TIP3   OH2 5683   7.325   7.281   3.570  0.2246  0.0839  0.5162
 1916TIP3    H1 5684   7.405   7.297   3.521  0.3019 -1.3038  0.1640
 1916TIP3    H2 5685   7.353   7.233   3.648 -0.2259 -0.2725  0.4683
 1917TIP3   OH2 5686   0.149   7.738   4.329  0.1535 -0.0183 -0.4359
 1917TIP3    H1 5687   0.078   7.799   4.348  0.4971  0.0230  0.7880
 1917TIP3    H2 5688   0.220   7.793   4.297  0.3781  0.2032  0.4312
 1918TIP3   OH2 5689   0.695   1.343   4.861 -0.3121  0.1310  0.0479
 1918TIP3    H1 5690   0.735   1.426   4.888 -0.5685  0.4666 -0.5950
 1918TIP3    H2 5691   0.629   1.325   4.928 -0.6626  0.7498 -0.1258
 1919TIP3   OH2 5692   1.483   1.958   3.714 -0.4286  0.2883 -0.3578
 1919TIP3    H1 5693   1.419   1.914   3.658 -0.7750 -0.4886  0.6320
 1919TIP3    H2 5694   1.433   1.985   3.792  0.1527  0.9080 -0.1868
 1920TIP3   OH2 5695   0.647   7.905   3.392  0.0448  0.7223  0.5190
 1920TIP3    H1 5696   0.567   7.935   3.350 -0.0745 -0.6167 -0.2632
 1920TIP3    H2 5697   0.712   7.905   3.321  0.2781  0.1079  0.7313
 1921TIP3   OH2 5698   3.238   1.607   3.783  0.3759  0.1080 -0.5975
 1921TIP3    H1 5699   3.194   1.583   3.701 -1.5761 -0.4217  0.5833
 1921TIP3    H2 5700   3.183   1.675   3.821 -0.5694 -1.9745  1.8845
 1922TIP3   OH2 5701   2.652   1.600   3.739  0.1130  0.2186 -0.4283
 1922TIP3    H1 5702   2.649   1.658   3.663  1.2712 -0.4919 -1.0273
 1922TIP3    H2 5703   2.575   1.624   3.791 -1.0873  0.2287 -2.1707
 1923TIP3   OH2 5704   3.424   0.379   1.197 -0.0294 -0.2569 -0.1334
 1923TIP3    H1 5705   3.424   0.462   1.150 -2.5200 -1.1358 -1.7681
 1923TIP3    H2 5706   3.340   0.378   1.244  0.0387 -1.7868 -0.0200
 1924TIP3   OH2 5707   3.014  -0.017   0.883  0.3708 -0.0934  0.0795
 1924TIP3    H1 5708   3.096  -0.002   0.930  1.2784 -1.2693 -1.0944
 1924TIP3    H2 5709   2.979   0.071   0.867  2.6096  0.5497 -1.4782
 1925TIP3   OH2 5710   3.519   0.288   0.652 -0.3987  0.1132 -0.0293
 1925TIP3    H1 5711   3.432   0.258   0.625  0.3645 -0.5343 -1.8870
 1925TIP3    H2 5712   3.509   0.381   0.668 -1.7018 -0.1902  0.9221
 1926TIP3   OH2 5713   2.119   7.756   2.545 -0.0957  0.2200 -0.0516
 1926TIP3    H1 5714   2.203   7.710   2.552 -0.1440  0.4625  2.4051
 1926TIP3    H2 5715   2.068   7.724   2.618 -1.1163  2.1854  0.1313
 1927TIP3   OH2 5716   3.583   0.424   2.750  0.2678  0.2954 -0.5761
 1927TIP3    H1 5717   3.511   0.404   2.809  0.8327 -1.5804 -0.4863
 1927TIP3    H2 5718   3.556   0.503   2.704 -2.2212 -0.8659 -1.1579
 1928TIP3   OH2 5719   5.213   0.626   1.327 -0.8056 -0.0407  0.1863
 1928TIP3    H1 5720   5.123   0.598   1.311 -0.7396 -0.7870  1.0876
 1928TIP3    H2 5721   5.258   0.609   1.244 -1.3583 -0.2177 -0.0815
 1929TIP3   OH2 5722   4.445   2.571   2.706  0.1527  0.2241  0.1639
 1929TIP3    H1 5723   4.516   2.635   2.704  0.5112 -0.1550  0.4553
 1929TIP3    H2 5724   4.449   2.527   2.621 -0.3475  0.8593 -0.1877
 1930TIP3   OH2 5725   3.328  -0.006   3.151  0.7310  0.2293  0.2341
 1930TIP3    H1 5726   3.404   0.012   3.097  0.5387 -0.4622 -0.2707
 1930TIP3    H2 5727   3.253   0.010   3.094  0.5458 -1.5416 -0.0310
 1931TIP3   OH2 5728   0.347   0.865   1.978  0.0536 -0.3035 -0.3588
 1931TIP3    H1 5729   0.435   0.898   1.959  0.1758 -0.2933  0.2258
 1931TIP3    H2 5730   0.288   0.932   1.942  0.2995  0.8911  1.3929
 1932TIP3   OH2 5731   6.788   6.423   4.295  0.5320  0.4878 -0.1727
 1932TIP3    H1 5732   6.800   6.467   4.380  0.5243 -0.6315  0.4208
 1932TIP3    H2 5733   6.837   6.476   4.233 -1.9961  3.1060 -0.0505
 1933TIP3   OH2 5734   1.140   1.112   1.916 -0.1715 -0.4045  0.5326
 1933TIP3    H1 5735   1.059   1.130   1.868  1.6589  1.0176 -2.1634
 1933TIP3    H2 5736   1.181   1.197   1.927  1.9715 -1.3258 -0.0544
 1934TIP3   OH2 5737   3.973   0.712   1.059 -0.2004  0.4139  0.1126
 1934TIP3    H1 5738   4.047   0.709   0.999 -0.6899  1.2251 -0.5334
 1934TIP3    H2 5739   3.897   0.728   1.004 -0.8102  0.0012  0.8207
 1935TIP3   OH2 5740   0.858   7.071   3.208 -0.1030  0.0780  0.7831
 1935TIP3    H1 5741   0.852   7.005   3.139  0.7809 -0.6151  1.3617
 1935TIP3    H2 5742   0.769   7.105   3.217 -0.0610  0.8025 -1.2909
 1936TIP3   OH2 5743   4.228   0.675   2.635  0.7844  0.2700  0.6447
 1936TIP3    H1 5744   4.302   0.643   2.584  0.3423 -0.9202  0.7219
 1936TIP3    H2 5745   4.163   0.701   2.570  0.0770 -1.5926  0.5838
 1937TIP3   OH2 5746   4.657   0.094   3.244 -0.2840  0.5382 -0.2350
 1937TIP3    H1 5747   4.563   0.078   3.241 -0.5019  1.5464  0.9484
 1937TIP3    H2 5748   4.682   0.073   3.334  0.6861 -0.0403 -0.6318
 1938TIP3   OH2 5749   2.978   0.054   2.643  0.2475  0.1720 -0.3560
 1938TIP3    H1 5750   2.916  -0.001   2.692 -0.0206  0.2086 -0.6547
 1938TIP3    H2 5751   3.041   0.082   2.709  0.8262 -1.1134 -0.3443
 1939TIP3   OH2 5752   0.651   7.960   1.186 -0.0113 -0.1239  0.3861
 1939TIP3    H1 5753   0.608   7.900   1.248 -1.8164  0.5234 -0.2158
 1939TIP3    H2 5754   0.678   8.034   1.240 -0.3464 -0.1830  0.6403
 1940TIP3   OH2 5755   6.440   5.383   1.532 -0.0354  0.0597  0.0279
 1940TIP3    H1 5756   6.434   5.311   1.595 -1.4484  1.0726  1.0751
 1940TIP3    H2 5757   6.355   5.383   1.488  0.1907  0.6865 -0.4125
 1941TIP3   OH2 5758   3.918   2.386   1.574  0.3787  0.0648  0.2127
 1941TIP3    H1 5759   4.010   2.392   1.548  0.4466 -0.1072  0.4191
 1941TIP3    H2 5760   3.896   2.293   1.563 -0.3395  0.4372 -1.8009
 1942TIP3   OH2 5761   0.133   0.217   5.063 -0.1850  0.2807  0.0472
 1942TIP3    H1 5762   0.077   0.143   5.084 -0.3076  0.2488 -0.3869
 1942TIP3    H2 5763   0.133   0.221   4.967  1.3280 -0.3118  0.0039
 1943TIP3   OH2 5764   4.567   1.184   4.929 -0.0095 -0.2622  0.0252
 1943TIP3    H1 5765   4.585   1.149   5.016 -0.8531  0.1389  0.3631
 1943TIP3    H2 5766   4.653   1.200   4.891  0.3903  1.7402  1.6686
 1944TIP3   OH2 5767   3.262   1.685   3.163  0.4115  0.0670 -0.1381
 1944TIP3    H1 5768   3.190   1.724   3.114 -0.1816 -1.3971 -0.4680
 1944TIP3    H2 5769   3.333   1.749   3.158 -0.1648  0.5961 -1.6162
 1945TIP3   OH2 5770   2.751   1.371   3.499  0.4893  0.0856  0.2662
 1945TIP3    H1 5771   2.671   1.320   3.485  0.8039 -0.1656 -0.6035
 1945TIP3    H2 5772   2.745   1.399   3.591 -0.2209 -0.5791  0.4291
 1946TIP3   OH2 5773   0.695   2.380   4.490  0.2310  0.1124  0.4300
 1946TIP3    H1 5774   0.634   2.388   4.564 -1.1287 -0.6936 -0.5879
 1946TIP3    H2 5775   0.779   2.359   4.531 -0.8160 -1.8143  1.6815
 1947TIP3   OH2 5776   3.724   1.158   3.536  0.0499 -0.3482  0.0097
 1947TIP3    H1 5777   3.704   1.223   3.468  0.0914 -0.5737 -0.2212
 1947TIP3    H2 5778   3.811   1.183   3.567 -0.5705  0.6262  1.0087
 1948TIP3   OH2 5779   1.907   0.876   3.203 -0.1973  0.3458  0.3151
 1948TIP3    H1 5780   1.981   0.928   3.236  1.7331 -1.7862 -0.5072
 1948TIP3    H2 5781   1.834   0.901   3.259  1.4632  1.5170  2.0469
 1949TIP3   OH2 5782   1.762   1.029   2.173  0.5720 -0.1223  0.3301
 1949TIP3    H1 5783   1.692   0.973   2.139 -1.3648  2.0082  0.7106
 1949TIP3    H2 5784   1.738   1.117   2.144  2.6017  0.7645  1.2805
 1950TIP3   OH2 5785   1.040   1.550   2.831 -0.2076 -0.7833  0.6422
 1950TIP3    H1 5786   1.022   1.640   2.855  0.6288 -0.9709  2.0854
 1950TIP3    H2 5787   1.136   1.543   2.837 -0.2676 -1.7497  0.5700
 1951TIP3   OH2 5788   1.656   0.880   4.975  0.0466 -0.2545 -0.3287
 1951TIP3    H1 5789   1.590   0.878   5.044 -0.5986 -0.6349 -0.9551
 1951TIP3    H2 5790   1.647   0.967   4.935 -0.5812 -0.5731 -0.8951
 1952TIP3   OH2 5791   2.132   2.330   1.909 -0.3757  0.2067  0.4757
 1952TIP3    H1 5792   2.170   2.257   1.958  2.6618  0.8824 -0.7824
 1952TIP3    H2 5793   2.186   2.405   1.932 -0.0699  0.9256 -2.3764
 1953TIP3   OH2 5794   2.397   0.702   2.704 -0.1599  1.0670  0.0918
 1953TIP3    H1 5795   2.374   0.754   2.628 -1.4866 -1.5245 -1.3430
 1953TIP3    H2 5796   2.423   0.766   2.770 -0.9918  3.4652 -1.8432
 1954TIP3   OH2 5797   5.694   6.977   1.723 -0.1224  0.3704 -0.2754
 1954TIP3    H1 5798   5.790   6.979   1.727 -0.1514 -1.3984  1.5653
 1954TIP3    H2 5799   5.674   6.905   1.663 -0.3127  0.1424  0.0604
 1955TIP3   OH2 5800   5.252   6.951   3.142 -0.2407 -0.3828  0.7958
 1955TIP3    H1 5801   5.158   6.953   3.160 -0.1159 -0.4693  1.4685
 1955TIP3    H2 5802   5.292   6.987   3.221  0.3434 -1.2951  0.9226
 1956TIP3   OH2 5803   3.668   2.940   2.169  0.4400 -0.2753 -0.0040
 1956TIP3    H1 5804   3.761   2.931   2.191  1.3748  1.7614 -2.7717
 1956TIP3    H2 5805   3.652   2.873   2.103  0.5963  0.8862 -1.2510
 1957TIP3   OH2 5806   8.240   7.706   3.256  0.3071  0.1651  0.0813
 1957TIP3    H1 5807   8.325   7.750   3.246  1.0711 -1.0056  1.3164
 1957TIP3    H2 5808   8.247   7.628   3.202  0.6734 -0.8429  1.5594
 1958TIP3   OH2 5809   0.953   7.456   1.617  0.2849 -0.5403  0.2452
 1958TIP3    H1 5810   0.879   7.423   1.565 -0.3574  0.0326  0.7748
 1958TIP3    H2 5811   0.943   7.414   1.702 -0.6252  1.0837  0.9713
 1959TIP3   OH2 5812   4.744   1.813   4.222 -0.0382  0.3812 -0.1366
 1959TIP3    H1 5813   4.762   1.768   4.305  1.6253 -0.2504 -0.8147
 1959TIP3    H2 5814   4.683   1.756   4.175 -0.0745  0.1759  0.1605
 1960TIP3   OH2 5815   0.540   7.269   1.013  0.4707  0.2289  0.0322
 1960TIP3    H1 5816   0.469   7.265   0.948 -0.8205 -1.2760  1.4862
 1960TIP3    H2 5817   0.499   7.311   1.089  1.6601  0.9743  0.2669
 1961TIP3   OH2 5818   5.690   2.005   3.856  0.4397  0.0947 -0.2119
 1961TIP3    H1 5819   5.618   1.949   3.825 -0.8324  0.5658  1.7570
 1961TIP3    H2 5820   5.704   2.067   3.785 -1.1534  0.0239 -0.6119
 1962TIP3   OH2 5821   5.683   0.253   1.717 -0.5856 -0.3857  0.0104
 1962TIP3    H1 5822   5.642   0.172   1.748 -3.7879  1.5489  1.0466
 1962TIP3    H2 5823   5.732   0.286   1.793  1.3144 -1.6372 -0.6210
 1963TIP3   OH2 5824   4.739   3.608   6.249  0.4808 -0.1096  0.3777
 1963TIP3    H1 5825   4.829   3.641   6.248  0.6896 -0.6893 -1.0380
 1963TIP3    H2 5826   4.743   3.524   6.203 -0.7333 -0.2939  0.5769
 1964TIP3   OH2 5827   8.107   6.477   2.960  0.3847  0.3107  0.2438
 1964TIP3    H1 5828   8.097   6.572   2.958 -0.4487  0.2769  2.2183
 1964TIP3    H2 5829   8.191   6.463   3.003 -0.8778  0.0930  2.6660
 1965TIP3   OH2 5830   6.563   0.278   3.266 -0.0642 -0.3051  0.4487
 1965TIP3    H1 5831   6.648   0.303   3.301 -0.2015  1.7484 -0.5984
 1965TIP3    H2 5832   6.501   0.302   3.335 -0.0226  0.6078  0.1749
 1966TIP3   OH2 5833   3.450   0.271   0.253  0.3408  0.2226  0.9796
 1966TIP3    H1 5834   3.426   0.316   0.172  0.7658 -0.3291  0.5395
 1966TIP3    H2 5835   3.367   0.263   0.301  0.0984  0.6257  0.6394
 1967TIP3   OH2 5836   4.206   0.206   1.293 -0.0082  0.0262  0.3041
 1967TIP3    H1 5837   4.290   0.179   1.329 -0.9801 -0.6982  2.0834
 1967TIP3    H2 5838   4.150   0.129   1.304 -0.8953  0.4901 -0.9123
 1968TIP3   OH2 5839   5.271   0.197   3.563 -0.2964 -0.1862 -0.5991
 1968TIP3    H1 5840   5.222   0.243   3.494 -1.5995 -0.8672 -0.1473
 1968TIP3    H2 5841   5.304   0.266   3.620 -0.2018  0.3152 -1.2506
 1969TIP3   OH2 5842   3.419   0.637   1.059 -0.0317 -0.0842  0.8785
 1969TIP3    H1 5843   3.325   0.649   1.047  0.0444  0.6479  0.9518
 1969TIP3    H2 5844   3.453   0.726   1.066  0.3924 -0.4048  3.0417
 1970TIP3   OH2 5845   0.944   0.594   3.987 -0.3927  0.3020  0.0873
 1970TIP3    H1 5846   0.880   0.664   3.974 -1.3487 -0.3251  1.3452
 1970TIP3    H2 5847   0.899   0.530   4.043  1.0000 -0.5988  0.2010
 1971TIP3   OH2 5848   1.913   6.932   2.044  0.1688 -0.1559 -0.8650
 1971TIP3    H1 5849   1.873   7.018   2.059 -1.2188 -0.5571 -2.0471
 1971TIP3    H2 5850   1.982   6.949   1.980  0.3709  0.1948 -0.5561
 1972TIP3   OH2 5851   3.222   6.283   2.171 -0.4689  0.0313 -0.1160
 1972TIP3    H1 5852   3.206   6.235   2.090  0.2024 -0.1475 -0.1397
 1972TIP3    H2 5853   3.174   6.234   2.238 -0.9541  0.1307 -0.3855
 1973TIP3   OH2 5854   3.703   1.851   1.747  0.2643 -0.7392 -0.0645
 1973TIP3    H1 5855   3.697   1.872   1.654 -0.1110 -1.5679 -0.2345
 1973TIP3    H2 5856   3.699   1.755   1.751 -0.2596 -0.6974  0.8338
 1974TIP3   OH2 5857   0.871   7.027   2.307 -0.2692  0.4127  0.0797
 1974TIP3    H1 5858   0.873   7.088   2.380  1.4543  1.2340 -0.6294
 1974TIP3    H2 5859   0.931   7.064   2.243 -1.5647 -0.4164 -1.6673
 1975TIP3   OH2 5860   1.341   7.828   3.751  0.4426 -0.4619  0.1090
 1975TIP3    H1 5861   1.330   7.738   3.781 -0.3569 -0.6864 -0.8339
 1975TIP3    H2 5862   1.266   7.843   3.694  2.2747 -0.2920 -2.3165
 1976TIP3   OH2 5863   4.506   1.937   2.381 -0.2274 -0.2686  0.0556
 1976TIP3    H1 5864   4.528   1.987   2.302  1.3330 -1.7998 -0.5111
 1976TIP3    H2 5865   4.462   1.859   2.348  0.0168 -0.6861  0.7117
 1977TIP3   OH2 5866   8.419   7.841   0.480  0.5665  0.4815 -0.1234
 1977TIP3    H1 5867   8.441   7.767   0.537 -1.1535  0.3087  0.3238
 1977TIP3    H2 5868   8.461   7.916   0.521 -0.6582  0.3592  1.3603
 1978TIP3   OH2 5869   4.589   2.209   2.709  0.0821 -0.0805  0.2530
 1978TIP3    H1 5870   4.615   2.165   2.790  0.5445 -0.6156 -0.1915
 1978TIP3    H2 5871   4.543   2.142   2.659 -1.8660  0.7334  0.8641
 1979TIP3   OH2 5872   2.738   8.006   2.571  0.2987  0.0508  0.5249
 1979TIP3    H1 5873   2.758   8.080   2.628 -0.5578 -0.4359  1.4862
 1979TIP3    H2 5874   2.780   7.931   2.613  1.4120  0.0314 -0.5988
 1980TIP3   OH2 5875   7.948   0.621   4.602  0.0258 -0.6179 -0.1372
 1980TIP3    H1 5876   7.951   0.526   4.592  0.3369 -0.4201 -2.2644
 1980TIP3    H2 5877   7.974   0.637   4.693  4.2854 -2.3641 -0.9369
 1981TIP3   OH2 5878   2.156   5.716   2.436 -0.3369  0.7714 -0.0559
 1981TIP3    H1 5879   2.137   5.805   2.405 -1.1478  0.3954 -0.6610
 1981TIP3    H2 5880   2.251   5.714   2.447 -0.2437  1.5139 -0.6681
 1982TIP3   OH2 5881   2.096   6.212   2.714 -0.2670  0.6445 -0.1838
 1982TIP3    H1 5882   2.135   6.227   2.628 -0.4064 -2.2861 -0.7984
 1982TIP3    H2 5883   2.084   6.300   2.751  0.6365  1.8832 -2.7665
 1983TIP3   OH2 5884   0.987   0.940   3.739  0.1168 -0.6208  0.1968
 1983TIP3    H1 5885   0.925   0.921   3.810  0.3489 -2.8970 -0.1573
 1983TIP3    H2 5886   1.072   0.946   3.783  0.1411 -1.1445  0.2224
 1984TIP3   OH2 5887   4.858   1.495   1.234  0.4143 -0.3297 -0.5004
 1984TIP3    H1 5888   4.869   1.510   1.140 -1.8087  0.4223 -0.6854
 1984TIP3    H2 5889   4.806   1.414   1.238  1.2108 -0.8147  0.1119
 1985TIP3   OH2 5890   1.724   7.913   3.017  0.1834  0.1242 -0.2283
 1985TIP3    H1 5891   1.744   8.006   3.003  2.5597 -0.3064  0.0653
 1985TIP3    H2 5892   1.798   7.880   3.067 -1.3931 -1.6008  1.0257
 1986TIP3   OH2 5893   3.716   0.472   2.374  0.2974  0.7038 -0.0515
 1986TIP3    H1 5894   3.660   0.419   2.431 -0.3551  0.2908 -1.0727
 1986TIP3    H2 5895   3.705   0.561   2.407 -1.1980  0.6719 -0.4273
 1987TIP3   OH2 5896   2.791   0.107   0.440  0.1841  0.3382 -0.2080
 1987TIP3    H1 5897   2.740   0.188   0.439 -0.1430  0.1582  0.9073
 1987TIP3    H2 5898   2.819   0.095   0.350 -2.5093 -0.0683 -1.0252
 1988TIP3   OH2 5899   3.905   1.712   2.405  0.1735  0.1255 -0.1468
 1988TIP3    H1 5900   3.920   1.805   2.390 -0.7141  0.5164  1.3046
 1988TIP3    H2 5901   3.810   1.704   2.416  0.0916 -1.1581 -1.5189
 1989TIP3   OH2 5902   4.466   1.859   3.226  0.2100 -0.6376 -0.6807
 1989TIP3    H1 5903   4.413   1.790   3.265 -0.5764 -1.1670 -2.6647
 1989TIP3    H2 5904   4.518   1.893   3.300 -2.0696 -0.8094  1.0700
 1990TIP3   OH2 5905   3.254   0.223   2.527 -0.0969  0.2021  0.0706
 1990TIP3    H1 5906   3.231   0.315   2.518 -1.3720 -0.1646 -0.6412
 1990TIP3    H2 5907   3.229   0.200   2.616  0.0997  0.5062  0.2060
 1991TIP3   OH2 5908   5.910   0.443   3.069  0.0863 -0.2429  0.3151
 1991TIP3    H1 5909   5.842   0.484   3.122  0.0597  0.4813 -0.2687
 1991TIP3    H2 5910   5.863   0.381   3.014 -0.1836  0.6456 -0.4720
 1992TIP3   OH2 5911   4.022   0.630   0.365  0.3658 -0.6613  0.8939
 1992TIP3    H1 5912   4.053   0.562   0.305 -1.7011  0.1705 -1.1807
 1992TIP3    H2 5913   4.089   0.698   0.361  0.4432 -0.7968 -0.1475
 1993TIP3   OH2 5914   3.470   7.035   1.150  0.2629  0.3205 -0.8168
 1993TIP3    H1 5915   3.414   7.100   1.108 -0.3538 -0.5186 -1.3127
 1993TIP3    H2 5916   3.433   7.025   1.237 -0.9197 -0.8775 -1.4366
 1994TIP3   OH2 5917   5.344   0.949   4.729  0.0878 -0.4963  0.2804
 1994TIP3    H1 5918   5.250   0.954   4.718  0.4321  0.1183 -2.8486
 1994TIP3    H2 5919   5.356   0.904   4.812 -2.9537 -2.1670 -0.1058
 1995TIP3   OH2 5920   3.248   1.705   0.921 -0.4038 -0.1467  0.0513
 1995TIP3    H1 5921   3.274   1.627   0.873 -1.9513 -0.6595  0.0243
 1995TIP3    H2 5922   3.162   1.728   0.885 -0.8224  0.4395  1.4088
 1996TIP3   OH2 5923   6.780   0.507   2.401  0.2678 -0.9713 -0.1507
 1996TIP3    H1 5924   6.830   0.585   2.377  0.1498 -0.3811  1.5047
 1996TIP3    H2 5925   6.731   0.485   2.322  0.6910  0.3333 -0.7860
 1997TIP3   OH2 5926   4.838   1.788   2.877  0.1347  0.0741  0.5860
 1997TIP3    H1 5927   4.789   1.743   2.946  0.7805 -0.7144  0.5446
 1997TIP3    H2 5928   4.885   1.718   2.831  0.0729  0.6447 -0.3648
 1998TIP3   OH2 5929   0.283   7.622   0.753 -0.1855 -0.1940  0.2971
 1998TIP3    H1 5930   0.214   7.559   0.734  0.2661  0.0303 -2.2919
 1998TIP3    H2 5931   0.247   7.707   0.727 -0.0609  0.3636  1.8800
 1999TIP3   OH2 5932   3.816   0.637   3.969 -0.0582 -0.0493  0.3470
 1999TIP3    H1 5933   3.743   0.583   4.001  0.0404  0.3343  1.2346
 1999TIP3    H2 5934   3.793   0.726   3.996 -0.6453  0.4858 -1.8772
 2000TIP3   OH2 5935   3.816   7.126   3.052 -0.2005 -0.0078  0.1489
 2000TIP3    H1 5936   3.876   7.053   3.044 -0.7556 -0.6180  1.4164
 2000TIP3    H2 5937   3.785   7.122   3.143 -1.8060  0.5589 -0.3572
 2001TIP3   OH2 5938   3.673   0.817   2.984 -0.4009 -0.3807  0.4647
 2001TIP3    H1 5939   3.688   0.728   2.951  1.7440  0.5849 -1.3504
 2001TIP3    H2 5940   3.751   0.836   3.037 -0.6492  0.5730  0.4975
 2002TIP3   OH2 5941   4.137   2.818   1.681 -0.4308  0.7498  0.8939
 2002TIP3    H1 5942   4.214   2.873   1.692  1.2419 -1.0834 -1.2154
 2002TIP3    H2 5943   4.169   2.728   1.693 -2.6976  0.0655  2.2521
 2003TIP3   OH2 5944   5.261   0.394   4.115 -0.4171  0.1558 -0.4986
 2003TIP3    H1 5945   5.305   0.376   4.198  0.2221  0.8126 -0.6830
 2003TIP3    H2 5946   5.171   0.363   4.127 -0.4920  0.8147  0.6465
 2004TIP3   OH2 5947   5.350   0.003   6.018 -0.2576  0.8241  0.0298
 2004TIP3    H1 5948   5.301   0.030   5.940 -0.9385 -0.2775  0.0577
 2004TIP3    H2 5949   5.283  -0.031   6.078  0.1800  2.3397  1.3999
 2005TIP3   OH2 5950   4.083   1.298   3.547  0.2416  0.1589  0.0141
 2005TIP3    H1 5951   4.154   1.242   3.578 -0.2817 -0.5690 -0.0960
 2005TIP3    H2 5952   4.067   1.270   3.457 -1.7532 -1.2859  0.7865
 2006TIP3   OH2 5953   3.407   7.736   4.792  0.3094 -0.4845  0.1381
 2006TIP3    H1 5954   3.418   7.653   4.745  0.0585  0.0755 -0.9375
 2006TIP3    H2 5955   3.323   7.729   4.836 -0.4907 -0.1723 -1.3028
 2007TIP3   OH2 5956   5.308   0.772   2.270 -0.1183  0.2549  0.6206
 2007TIP3    H1 5957   5.389   0.725   2.246 -0.4906  0.2267 -0.6253
 2007TIP3    H2 5958   5.239   0.727   2.221 -0.7505  0.9074  0.9024
 2008TIP3   OH2 5959   2.506   7.347   2.295 -0.2851  0.1926  0.1316
 2008TIP3    H1 5960   2.601   7.340   2.292 -0.3545 -0.6932 -0.2194
 2008TIP3    H2 5961   2.481   7.297   2.373 -0.5221 -0.3422 -0.2821
 2009TIP3   OH2 5962   1.408   7.098   3.097  0.1553 -0.1822  0.2189
 2009TIP3    H1 5963   1.319   7.093   3.133 -0.4583 -0.0529 -1.2362
 2009TIP3    H2 5964   1.399   7.152   3.019  1.4721 -0.4067 -0.0985
 2010TIP3   OH2 5965   2.024   7.435   1.214  0.0928  0.1726 -0.0043
 2010TIP3    H1 5966   2.074   7.354   1.226  1.3597  1.0706  0.8731
 2010TIP3    H2 5967   1.981   7.424   1.129  0.8808 -1.0896 -0.2566
 2011TIP3   OH2 5968   2.921   2.206   2.018  0.0533 -0.0579  0.8507
 2011TIP3    H1 5969   2.931   2.123   2.065  1.3417  0.5176  1.6294
 2011TIP3    H2 5970   2.889   2.267   2.085  0.0433  0.3047  0.5120
 2012TIP3   OH2 5971   0.630   6.846   3.296  0.6733  0.3385  0.0017
 2012TIP3    H1 5972   0.663   6.842   3.386  2.1642 -0.0769 -0.5395
 2012TIP3    H2 5973   0.619   6.754   3.271  2.3621  0.3726 -0.9639
 2013TIP3   OH2 5974   1.975   5.388   1.960 -0.1352 -0.8164 -0.6315
 2013TIP3    H1 5975   1.918   5.377   1.884  0.1939  0.9801 -1.1644
 2013TIP3    H2 5976   1.960   5.478   1.988  1.1140 -0.8882  0.3207
 2014TIP3   OH2 5977   4.673   0.947   2.699 -0.2092  0.1179 -0.0946
 2014TIP3    H1 5978   4.725   1.013   2.652 -0.5780  0.4383 -0.0590
 2014TIP3    H2 5979   4.660   0.985   2.786  0.5287 -0.5052  0.2926
 2015TIP3   OH2 5980   2.040   0.617   1.955 -0.0465 -0.5303 -0.5306
 2015TIP3    H1 5981   1.997   0.688   1.908  0.9694 -0.0672 -0.7732
 2015TIP3    H2 5982   2.084   0.659   2.029 -0.7339 -1.1123  0.2216
 2016TIP3   OH2 5983   1.551   0.508   1.301  0.5212  0.5965  0.4633
 2016TIP3    H1 5984   1.558   0.525   1.395  0.0708  1.1081  0.4091
 2016TIP3    H2 5985   1.483   0.441   1.294  1.0784  0.0244  0.5561
 2017TIP3   OH2 5986   2.962   7.116   4.069  0.2219  0.5094  0.1729
 2017TIP3    H1 5987   2.926   7.114   4.158  1.9997 -1.4460  0.8709
 2017TIP3    H2 5988   2.890   7.084   4.014  0.5768 -2.7833  1.4914
 2018TIP3   OH2 5989   6.398   0.751   4.599  0.0442  0.2492 -0.4770
 2018TIP3    H1 5990   6.422   0.813   4.667  0.5267 -1.3537  0.8538
 2018TIP3    H2 5991   6.346   0.684   4.644 -0.3295 -0.4050 -1.8408
 2019TIP3   OH2 5992   0.797   8.009   3.151  0.0317  0.3653 -0.1938
 2019TIP3    H1 5993   0.826   8.071   3.219 -0.8588  0.0718  0.4600
 2019TIP3    H2 5994   0.862   7.938   3.154  0.5118  0.7961 -0.2884
 2020TIP3   OH2 5995   1.527   6.599   1.179 -0.2898 -0.3984  0.4615
 2020TIP3    H1 5996   1.524   6.506   1.156  0.4645 -0.4368  0.4998
 2020TIP3    H2 5997   1.504   6.602   1.272 -1.1248 -0.4589  0.2649
 2021TIP3   OH2 5998   6.819   1.320   4.817 -0.5126  0.0471 -0.1228
 2021TIP3    H1 5999   6.823   1.271   4.735 -0.1111  1.2597 -0.8419
 2021TIP3    H2 6000   6.901   1.369   4.820  0.6319 -1.9309  2.2653
 2022TIP3   OH2 6001   1.623   7.391   2.331 -0.7951  0.4585  0.0487
 2022TIP3    H1 6002   1.566   7.316   2.344 -0.7652  0.3410 -0.5003
 2022TIP3    H2 6003   1.693   7.380   2.396 -0.4108 -0.3559 -0.4936
 2023TIP3   OH2 6004   2.128   7.624   4.603 -0.3263 -0.0935 -0.0299
 2023TIP3    H1 6005   2.202   7.685   4.602 -1.5469  1.4024  0.1974
 2023TIP3    H2 6006   2.097   7.625   4.693  0.5397 -2.1749  0.3193
 2024TIP3   OH2 6007   2.011   7.106   1.501  0.3463 -0.4112  0.4032
 2024TIP3    H1 6008   2.041   7.016   1.494 -1.2545 -0.9478  0.4065
 2024TIP3    H2 6009   1.971   7.126   1.417 -1.8878 -0.6737  1.3644
 2025TIP3   OH2 6010   5.483   0.179   4.168 -0.2552 -0.0752  0.7060
 2025TIP3    H1 6011   5.405   0.156   4.117 -0.2882 -0.0706  0.7541
 2025TIP3    H2 6012   5.507   0.099   4.214 -1.8008  0.6105  2.7891
 2026TIP3   OH2 6013   4.897   0.367   2.856 -0.1695 -1.1746 -0.0522
 2026TIP3    H1 6014   4.895   0.276   2.888 -0.4272 -1.2891 -0.3907
 2026TIP3    H2 6015   4.813   0.404   2.883 -0.5293 -1.3748 -0.8936
 2027TIP3   OH2 6016   5.152   1.815   3.201 -0.1624 -0.2247 -0.1442
 2027TIP3    H1 6017   5.205   1.891   3.224  0.1095 -0.7553  0.9759
 2027TIP3    H2 6018   5.176   1.796   3.110  1.1244 -0.0892  0.1629
 2028TIP3   OH2 6019   5.803   1.432   3.216 -0.3139  0.0078  0.0795
 2028TIP3    H1 6020   5.885   1.388   3.193 -0.0218  0.5325  0.1208
 2028TIP3    H2 6021   5.824   1.483   3.294 -0.6962  0.0916  0.1281
 2029TIP3   OH2 6022   4.027   2.207   2.952  0.1648  1.1638  0.3811
 2029TIP3    H1 6023   3.935   2.180   2.944  0.4363  0.5432 -0.7389
 2029TIP3    H2 6024   4.058   2.213   2.862  1.2820  1.1857  0.7623
 2030TIP3   OH2 6025   5.922   1.302   2.456 -0.2728 -0.4612 -0.3554
 2030TIP3    H1 6026   5.962   1.330   2.373 -0.4055 -0.1274 -0.3091
 2030TIP3    H2 6027   5.851   1.365   2.470  2.2409  1.9408  2.0392
 2031TIP3   OH2 6028   3.485   1.111   4.024  0.1140 -0.0499  0.9087
 2031TIP3    H1 6029   3.468   1.160   4.104  0.4607  1.7907 -0.1198
 2031TIP3    H2 6030   3.426   1.150   3.959  0.0755 -1.2876  0.1873
 2032TIP3   OH2 6031   4.130   7.222   2.703  0.4514 -0.2851 -0.1644
 2032TIP3    H1 6032   4.043   7.194   2.731 -0.5635 -0.0198 -2.9532
 2032TIP3    H2 6033   4.115   7.301   2.651  2.2277 -0.8628 -1.6129
 2033TIP3   OH2 6034   4.257   2.258   2.196 -0.2244  0.0361  0.4598
 2033TIP3    H1 6035   4.292   2.207   2.122  0.8263  1.0594  0.2306
 2033TIP3    H2 6036   4.167   2.279   2.170 -0.7599 -1.9002  0.6756
 2034TIP3   OH2 6037   4.794   0.401   1.587 -0.0175 -0.0705  0.4636
 2034TIP3    H1 6038   4.857   0.347   1.634 -1.1342  1.1729  3.5021
 2034TIP3    H2 6039   4.712   0.351   1.591 -0.2149  0.2292  0.1962
 2035TIP3   OH2 6040   1.486   7.170   2.411 -0.7061  0.3911 -0.1640
 2035TIP3    H1 6041   1.507   7.077   2.411  0.4885  0.6539  0.9453
 2035TIP3    H2 6042   1.392   7.173   2.427 -0.6646 -0.5992  0.2883
 2036TIP3   OH2 6043   1.448   7.634   0.962  1.1292  0.2924  0.1197
 2036TIP3    H1 6044   1.402   7.688   0.899  0.2481  0.6817  1.0772
 2036TIP3    H2 6045   1.451   7.687   1.042  2.7622  0.0508  0.2261
 2037TIP3   OH2 6046   0.774   7.036   1.856  0.1456 -0.3097  0.3716
 2037TIP3    H1 6047   0.765   6.957   1.802  1.7977 -0.1484 -0.1743
 2037TIP3    H2 6048   0.729   7.015   1.938 -3.2753 -0.2140 -1.3798
 2038TIP3   OH2 6049   2.631   3.290   4.274  0.1694  0.4809  0.5038
 2038TIP3    H1 6050   2.679   3.350   4.217 -0.2219 -0.3854 -0.7629
 2038TIP3    H2 6051   2.693   3.266   4.342  1.9813 -1.6431 -1.8322
 2039TIP3   OH2 6052   4.652   1.714   3.641 -0.0177  0.0131  0.5510
 2039TIP3    H1 6053   4.647   1.635   3.694  0.8107  0.3496  1.1467
 2039TIP3    H2 6054   4.624   1.687   3.554 -0.1372 -0.8334  0.8514
 2040TIP3   OH2 6055   4.084   2.911   3.069  0.0500 -0.2315 -0.8230
 2040TIP3    H1 6056   4.137   2.942   2.995  1.9575 -0.6489  0.3349
 2040TIP3    H2 6057   4.091   2.981   3.134 -0.3506 -0.5391 -0.4492
 2041TIP3   OH2 6058   5.422   0.557   3.756 -0.0443 -0.0520 -0.6796
 2041TIP3    H1 6059   5.408   0.608   3.836 -1.2647 -0.4236 -0.6587
 2041TIP3    H2 6060   5.511   0.580   3.729  0.0547  0.7460  0.2981
 2042TIP3   OH2 6061   4.272   2.086   1.385  0.4453 -0.0976  0.4606
 2042TIP3    H1 6062   4.229   2.020   1.331 -0.0222 -0.0003  0.7130
 2042TIP3    H2 6063   4.347   2.114   1.333  1.6111 -2.0352  1.0666
 2043TIP3   OH2 6064   4.618   0.486   2.004 -0.2067 -0.2324 -0.1455
 2043TIP3    H1 6065   4.544   0.462   2.061  0.4239 -0.1112  0.7346
 2043TIP3    H2 6066   4.586   0.560   1.954 -1.0637 -0.8708 -0.5574
 2044TIP3   OH2 6067   5.020   1.428   3.072  0.6760 -0.2023 -0.0546
 2044TIP3    H1 6068   4.958   1.356   3.061  1.2431 -0.3762 -2.5849
 2044TIP3    H2 6069   5.068   1.430   2.989  1.3725  2.4271  0.3757
 2045TIP3   OH2 6070   2.389   5.339   0.774 -0.1249  0.5375 -0.2270
 2045TIP3    H1 6071   2.303   5.323   0.812  0.6486  1.1928  1.8843
 2045TIP3    H2 6072   2.443   5.266   0.805  0.9271  1.9353  1.3460
 2046TIP3   OH2 6073   2.769   0.409   4.166 -0.4167 -0.0846 -0.2844
 2046TIP3    H1 6074   2.732   0.453   4.089  0.2452 -1.0323 -1.1569
 2046TIP3    H2 6075   2.864   0.414   4.153 -0.3130 -0.7626  0.1782
 2047TIP3   OH2 6076   3.433   2.261   1.939  0.0277  0.1167  0.4471
 2047TIP3    H1 6077   3.436   2.186   1.880 -3.2181  0.0244  0.3302
 2047TIP3    H2 6078   3.443   2.223   2.026 -0.2475 -0.3099  0.2970
 2048TIP3   OH2 6079   5.307   4.061   1.206  0.2338  0.4290 -0.5793
 2048TIP3    H1 6080   5.337   4.061   1.115  1.9432 -1.4927 -0.0556
 2048TIP3    H2 6081   5.305   3.969   1.231 -1.0131  0.8744  1.0964
 2049TIP3   OH2 6082   1.089   7.702   1.552 -0.0572 -0.0250 -0.6392
 2049TIP3    H1 6083   1.100   7.677   1.461  2.0340 -2.8413  0.3381
 2049TIP3    H2 6084   1.032   7.634   1.589  0.1914  0.3672  0.4834
 2050TIP3   OH2 6085   4.356   0.989   2.428  0.3730  0.0914 -0.2931
 2050TIP3    H1 6086   4.334   1.080   2.407 -0.7154 -0.2144 -0.4677
 2050TIP3    H2 6087   4.420   0.997   2.500 -0.1717  0.9765  0.1120
 2051TIP3   OH2 6088   1.479   5.919   1.747  0.0703  0.1155  0.2029
 2051TIP3    H1 6089   1.474   6.003   1.702 -0.9279  0.2960  0.6419
 2051TIP3    H2 6090   1.389   5.901   1.774 -0.1143 -2.1460 -1.8172
 2052TIP3   OH2 6091   5.868   1.270   2.143 -0.4494  0.4744 -0.5637
 2052TIP3    H1 6092   5.807   1.295   2.075 -0.6358 -0.1877 -0.6389
 2052TIP3    H2 6093   5.817   1.216   2.203 -0.1015  0.4397 -0.2933
 2053TIP3   OH2 6094   5.113   2.355   4.051  0.2942 -0.2261  0.0600
 2053TIP3    H1 6095   5.184   2.313   4.100  0.9804  0.0486 -0.6752
 2053TIP3    H2 6096   5.059   2.397   4.117  0.9455 -0.2617  0.6161
 2054TIP3   OH2 6097   6.496   0.378   4.439  0.9379  0.5116 -0.2894
 2054TIP3    H1 6098   6.468   0.304   4.492  1.1394  1.5235  1.2778
 2054TIP3    H2 6099   6.427   0.388   4.373  0.2645 -0.2634  0.2900
 2055TIP3   OH2 6100   0.449   7.320   1.273 -0.9404  0.2394 -0.1385
 2055TIP3    H1 6101   0.405   7.241   1.303 -0.7128 -0.6101 -2.0289
 2055TIP3    H2 6102   0.386   7.390   1.289 -1.1617 -0.3050  1.4836
 2056TIP3   OH2 6103   3.524   2.266   2.213 -0.7900  0.1455  0.1317
 2056TIP3    H1 6104   3.475   2.267   2.296 -0.7067  0.1408  0.1804
 2056TIP3    H2 6105   3.595   2.204   2.228 -1.7440 -1.1284 -0.4932
 2057TIP3   OH2 6106   5.346   0.931   3.509  0.0975 -0.4970 -0.0009
 2057TIP3    H1 6107   5.322   1.022   3.525  1.3889  0.3292 -2.6156
 2057TIP3    H2 6108   5.389   0.903   3.590  0.5751  1.5213  0.4599
 2058TIP3   OH2 6109   4.834   0.000   2.050 -0.7406 -0.2429  0.4268
 2058TIP3    H1 6110   4.805  -0.072   2.106 -0.7521  0.1260  0.8904
 2058TIP3    H2 6111   4.780   0.075   2.076  0.9120  0.5799  1.6124
 2059TIP3   OH2 6112   3.360   0.661   5.998 -0.4814 -0.5721 -0.2025
 2059TIP3    H1 6113   3.423   0.597   6.032 -0.3670  0.3883  1.4574
 2059TIP3    H2 6114   3.305   0.683   6.073  0.6136  2.5959 -0.2438
 2060TIP3   OH2 6115   2.202   7.435   1.617 -0.9065 -0.2926  0.0544
 2060TIP3    H1 6116   2.174   7.525   1.635  2.7136  0.9885 -0.4309
 2060TIP3    H2 6117   2.208   7.431   1.522  0.5817 -0.4997  0.1452
 2061TIP3   OH2 6118   4.760   1.514   2.147  0.1486 -0.0857  0.0848
 2061TIP3    H1 6119   4.729   1.424   2.144 -1.4599  0.4687 -0.2220
 2061TIP3    H2 6120   4.850   1.509   2.113 -0.1080 -1.4886 -0.4148
 2062TIP3   OH2 6121   4.084   1.824   5.078  0.5843  0.6462  0.1578
 2062TIP3    H1 6122   4.027   1.792   5.008 -0.2476  1.6266  0.3789
 2062TIP3    H2 6123   4.129   1.899   5.040  1.0257  0.4520  0.2955
 2063TIP3   OH2 6124   4.374   1.784   1.813 -0.3257  0.2951 -0.0171
 2063TIP3    H1 6125   4.413   1.839   1.744 -0.0124 -0.2542 -0.2783
 2063TIP3    H2 6126   4.341   1.707   1.767 -0.2109 -0.0241  0.4302
 2064TIP3   OH2 6127   4.366   1.267   4.741 -0.3711  0.1637 -0.3627
 2064TIP3    H1 6128   4.403   1.245   4.827 -0.8572  1.2815  0.1419
 2064TIP3    H2 6129   4.339   1.182   4.705  0.0161 -0.3425  0.5061
 2065TIP3   OH2 6130  -0.002   7.800   0.873  0.2859  0.3541  0.0688
 2065TIP3    H1 6131  -0.001   7.764   0.962  0.4491  3.2345  1.2943
 2065TIP3    H2 6132   0.049   7.881   0.879  0.5530  0.4581 -2.7328
 2066TIP3   OH2 6133   4.174   0.895   2.969  0.4043 -0.2490  0.3660
 2066TIP3    H1 6134   4.156   0.908   2.876 -2.0033  0.6820  0.9304
 2066TIP3    H2 6135   4.253   0.948   2.985  1.5231 -1.3298 -1.3450
 2067TIP3   OH2 6136   0.866   7.386   0.876 -0.7130 -0.4271  0.4180
 2067TIP3    H1 6137   0.877   7.290   0.871 -0.2705 -0.3396 -0.5016
 2067TIP3    H2 6138   0.864   7.405   0.970 -0.4553 -1.3055  0.6115
 2068TIP3   OH2 6139   5.824   2.356   2.937 -0.4345  0.5523  0.6995
 2068TIP3    H1 6140   5.872   2.435   2.911  1.7429 -1.2408 -0.9479
 2068TIP3    H2 6141   5.745   2.357   2.883 -0.0670  1.2345  0.1708
 2069TIP3   OH2 6142   4.923   0.605   1.381  0.9298 -0.1815 -0.5889
 2069TIP3    H1 6143   4.862   0.679   1.382  1.3198  0.1428 -0.6237
 2069TIP3    H2 6144   4.956   0.601   1.471  0.9063 -0.3185 -0.5861
 2070TIP3   OH2 6145   0.930   6.779   2.451  0.5387 -0.6946  0.1461
 2070TIP3    H1 6146   0.927   6.701   2.395 -1.8764 -2.0524  2.0567
 2070TIP3    H2 6147   0.895   6.849   2.397  0.3222 -1.4968 -0.7812
 2071TIP3   OH2 6148   4.346   1.244   2.172  0.6601 -0.5219 -0.0229
 2071TIP3    H1 6149   4.290   1.167   2.165 -0.8137  0.4887  0.4013
 2071TIP3    H2 6150   4.383   1.255   2.084  0.7504 -1.6121 -0.1212
 2072TIP3   OH2 6151   7.699   7.978   0.165  0.2245  0.0646 -0.3315
 2072TIP3    H1 6152   7.609   7.969   0.196 -0.4633  0.9492 -1.9818
 2072TIP3    H2 6153   7.750   7.919   0.221 -0.8456  1.9311  2.7614
 2073TIP3   OH2 6154   3.569   0.842   2.706 -0.9690  0.0462  0.5728
 2073TIP3    H1 6155   3.562   0.937   2.712  0.5040  0.1744  0.4162
 2073TIP3    H2 6156   3.635   0.818   2.772  0.3640 -0.6177 -0.9718
 2074TIP3   OH2 6157   2.937   7.795   1.260 -0.2449  0.9169  0.4664
 2074TIP3    H1 6158   2.930   7.835   1.347 -1.3072 -0.3698  0.9967
 2074TIP3    H2 6159   2.863   7.829   1.211 -2.0709 -1.5172  1.4170
 2075TIP3   OH2 6160   2.197   0.891   1.993 -0.2911  0.0796 -0.1518
 2075TIP3    H1 6161   2.136   0.963   1.976 -0.2458  0.2031  0.2035
 2075TIP3    H2 6162   2.282   0.934   2.002 -0.1644 -0.0830 -0.5553
 2076TIP3   OH2 6163   2.101   7.936   2.915  0.1704  0.3522  0.0366
 2076TIP3    H1 6164   2.194   7.917   2.901  0.0893  0.0813 -0.1308
 2076TIP3    H2 6165   2.063   7.852   2.941 -0.4752 -0.0793 -2.1575
 2077TIP3   OH2 6166   2.420   7.165   3.906 -0.1686  0.9946 -0.2157
 2077TIP3    H1 6167   2.470   7.229   3.855  0.9094  0.1482 -0.2469
 2077TIP3    H2 6168   2.438   7.188   3.997 -0.5962  1.3589 -0.2229
 2078TIP3   OH2 6169   4.262   0.920   5.404 -0.4006 -0.4860 -0.6629
 2078TIP3    H1 6170   4.222   0.969   5.331 -1.3626  0.6379  0.5917
 2078TIP3    H2 6171   4.354   0.914   5.380 -0.6382  0.1728 -1.8239
 2079TIP3   OH2 6172   2.428   7.856   2.044  0.2275  0.1687  0.1424
 2079TIP3    H1 6173   2.418   7.851   2.139  0.2899 -0.7052  0.1068
 2079TIP3    H2 6174   2.515   7.820   2.027 -0.0105 -0.2090 -0.2937
 2080TIP3   OH2 6175   5.411   1.536   0.723  0.2567 -0.3037 -0.1496
 2080TIP3    H1 6176   5.491   1.494   0.692  1.2212  0.8748  0.7024
 2080TIP3    H2 6177   5.423   1.545   0.817 -1.4580 -1.3309  0.1894
 2081TIP3   OH2 6178   4.006   1.809   1.730  0.6386  0.7548  0.2826
 2081TIP3    H1 6179   3.994   1.767   1.815  3.1426 -1.1533 -0.2686
 2081TIP3    H2 6180   3.932   1.777   1.677  1.8583 -2.1453  0.2237
 2082TIP3   OH2 6181   1.060   0.700   2.434 -0.6101 -0.4339 -0.0065
 2082TIP3    H1 6182   1.001   0.743   2.496 -0.2120  0.0270  0.0570
 2082TIP3    H2 6183   1.044   0.745   2.351  0.9339  0.9237  0.3993
 2083TIP3   OH2 6184   4.128   1.069   0.951  0.1373 -0.2791  0.6848
 2083TIP3    H1 6185   4.137   0.980   0.985 -3.2502 -1.7076 -1.8955
 2083TIP3    H2 6186   4.170   1.066   0.865  0.2995  0.7398  0.7260
 2084TIP3   OH2 6187   6.082   1.401   5.061 -0.9287 -0.3824 -0.2446
 2084TIP3    H1 6188   6.011   1.349   5.099 -1.8339  0.6180 -0.5309
 2084TIP3    H2 6189   6.144   1.414   5.134 -1.0307 -1.2742  0.0013
 2085TIP3   OH2 6190   7.146   0.521   3.849  0.2155  0.1939  0.0913
 2085TIP3    H1 6191   7.121   0.501   3.759 -0.1274 -0.0393  0.2320
 2085TIP3    H2 6192   7.216   0.459   3.869  0.7215  0.6653 -0.2172
 2086TIP3   OH2 6193   5.773   2.510   6.333 -0.1611  0.4383 -1.0970
 2086TIP3    H1 6194   5.858   2.486   6.299 -0.5621 -1.6650 -0.6406
 2086TIP3    H2 6195   5.742   2.433   6.380 -1.9244  1.4708 -0.4917
 2087TIP3   OH2 6196   2.623   6.652   2.893 -1.0019  0.2334 -0.2436
 2087TIP3    H1 6197   2.609   6.578   2.953 -0.1102 -2.0033 -2.6687
 2087TIP3    H2 6198   2.697   6.699   2.931 -0.4166 -1.1562  0.4079
 2088TIP3   OH2 6199   1.828   7.128   3.062 -0.6806  0.1037 -0.0195
 2088TIP3    H1 6200   1.817   7.163   2.974  1.4624 -0.7417 -0.6618
 2088TIP3    H2 6201   1.910   7.078   3.058  0.2272  1.2361  2.7949
 2089TIP3   OH2 6202   4.877   1.247   3.755  0.1980 -0.1000  0.3225
 2089TIP3    H1 6203   4.828   1.211   3.681  0.5512 -0.7081  0.3774
 2089TIP3    H2 6204   4.969   1.244   3.726  0.0853  2.8283 -0.5522
 2090TIP3   OH2 6205   6.234   2.573   2.935 -0.4205  0.1745 -0.4445
 2090TIP3    H1 6206   6.262   2.655   2.893 -3.0957  0.3450 -2.0068
 2090TIP3    H2 6207   6.189   2.601   3.015  0.7507  0.0830  0.2569
 2091TIP3   OH2 6208   6.203   2.059   3.873  0.2951  0.0412  0.4036
 2091TIP3    H1 6209   6.212   1.987   3.810  0.8933 -0.1445  0.6851
 2091TIP3    H2 6210   6.118   2.045   3.914 -0.1100  0.1880 -0.3989
 2092TIP3   OH2 6211   5.567   0.796   0.821  0.4219 -0.0763 -0.0542
 2092TIP3    H1 6212   5.610   0.727   0.872  0.8678 -0.4439 -0.9172
 2092TIP3    H2 6213   5.628   0.814   0.749 -0.3182  0.2515 -0.6057
 2093TIP3   OH2 6214   0.922   7.869   1.269 -0.1775  0.4377  0.1005
 2093TIP3    H1 6215   0.879   7.784   1.280 -1.8874  1.4276  1.3159
 2093TIP3    H2 6216   0.994   7.852   1.208  1.2449 -2.4596  2.4655
 2094TIP3   OH2 6217   5.506   0.347   4.895 -0.4860  0.0567 -0.0712
 2094TIP3    H1 6218   5.531   0.347   4.802 -0.5618 -0.8711 -0.0976
 2094TIP3    H2 6219   5.432   0.407   4.900 -0.0147  0.6827 -0.4810
 2095TIP3   OH2 6220   6.885   1.168   4.596  0.0600 -0.2788  0.3997
 2095TIP3    H1 6221   6.950   1.106   4.630  0.9631 -0.0608 -0.9221
 2095TIP3    H2 6222   6.807   1.114   4.579  0.4783 -0.8427  0.2814
 2096TIP3   OH2 6223   6.064   0.590   3.787  0.5198  0.5216 -0.4388
 2096TIP3    H1 6224   6.079   0.671   3.835  0.1746  0.2252  0.1820
 2096TIP3    H2 6225   6.075   0.613   3.695 -1.8042  1.7711 -0.4188
 2097TIP3   OH2 6226   3.996   7.502   3.685  0.2899  0.2507  0.1785
 2097TIP3    H1 6227   3.989   7.449   3.764  2.0988 -0.2360  0.0154
 2097TIP3    H2 6228   4.082   7.483   3.649 -0.3173  0.8170 -1.6775
 2098TIP3   OH2 6229   1.903   5.742   2.244  0.1040  0.0301  0.0282
 2098TIP3    H1 6230   1.949   5.682   2.303  0.9548 -0.3447 -0.9964
 2098TIP3    H2 6231   1.926   5.830   2.276  0.6553 -0.1683  0.1804
 2099TIP3   OH2 6232   2.130   7.409   2.920  0.1256  0.2814  0.3992
 2099TIP3    H1 6233   2.149   7.388   2.828 -2.3694  0.2938 -0.1580
 2099TIP3    H2 6234   2.188   7.353   2.970  1.0845 -0.1788 -1.1940
 2100TIP3   OH2 6235   4.610   0.810   4.768  0.0683  0.1676 -0.0479
 2100TIP3    H1 6236   4.665   0.736   4.794 -1.8005 -0.5446  2.0542
 2100TIP3    H2 6237   4.574   0.784   4.684  0.9761 -0.4662 -0.2493
 2101TIP3   OH2 6238   0.196   7.517   3.129 -0.6186 -0.3445  0.1050
 2101TIP3    H1 6239   0.250   7.580   3.081 -0.5032  0.0324  0.7254
 2101TIP3    H2 6240   0.107   7.530   3.095 -0.6548  0.3966  0.4859
 2102TIP3   OH2 6241   5.054   1.719   4.223  0.1299  0.3047  0.1561
 2102TIP3    H1 6242   4.960   1.723   4.243 -0.2670  0.1835 -1.6426
 2102TIP3    H2 6243   5.071   1.627   4.206  0.8427  0.1448  1.6026
 2103TIP3   OH2 6244   4.421   0.107   1.434  0.4093  0.0635 -0.3270
 2103TIP3    H1 6245   4.513   0.125   1.416  0.6464 -0.8617 -0.0630
 2103TIP3    H2 6246   4.416   0.101   1.529  0.2176 -0.6053 -0.3748
 2104TIP3   OH2 6247   4.913   2.023   5.419 -0.0871 -0.4270 -0.0702
 2104TIP3    H1 6248   4.894   2.116   5.410 -0.4586 -0.3564  1.2193
 2104TIP3    H2 6249   4.875   1.999   5.505 -0.2087 -1.8076 -0.4873
 2105TIP3   OH2 6250   6.299   4.320   3.374 -0.3653 -0.2615 -0.1356
 2105TIP3    H1 6251   6.359   4.308   3.300  0.8950  2.5815  0.3348
 2105TIP3    H2 6252   6.222   4.363   3.336  0.0322  0.6536  0.0692
 2106TIP3   OH2 6253   4.815   1.717   0.063  0.3535  0.4013 -0.2636
 2106TIP3    H1 6254   4.764   1.783   0.109  0.2671  1.0821 -1.3275
 2106TIP3    H2 6255   4.889   1.764   0.025  1.4280 -0.4677  0.7053
 2107TIP3   OH2 6256   5.184   0.527   4.695  0.0491  0.1688  0.7024
 2107TIP3    H1 6257   5.210   0.576   4.773 -3.4435 -0.2130  2.2144
 2107TIP3    H2 6258   5.211   0.437   4.714 -0.5062  0.1333  1.3479
 2108TIP3   OH2 6259   5.430   2.387   3.970  0.0674  0.3372  0.0615
 2108TIP3    H1 6260   5.507   2.441   3.952  0.9386 -0.6839  0.6812
 2108TIP3    H2 6261   5.357   2.449   3.969  0.8594  1.2860 -0.7264
 2109TIP3   OH2 6262   4.312   0.196   3.498 -0.6069 -0.5563  0.0025
 2109TIP3    H1 6263   4.346   0.234   3.417 -1.1399  1.6977  0.8037
 2109TIP3    H2 6264   4.218   0.216   3.497 -0.7845 -1.3244  0.7273
 2110TIP3   OH2 6265   1.336   7.078   3.388  0.5741  0.0456 -0.5679
 2110TIP3    H1 6266   1.325   7.025   3.467  0.0798 -2.8125 -2.4791
 2110TIP3    H2 6267   1.424   7.056   3.357 -0.4355 -1.3652 -2.5493
 2111TIP3   OH2 6268   3.092   3.503   2.024  0.1230 -0.6698  0.5338
 2111TIP3    H1 6269   3.017   3.447   2.004 -2.0351  1.4586  2.3801
 2111TIP3    H2 6270   3.121   3.473   2.110  2.1108 -2.1682 -0.6132
 2112TIP3   OH2 6271   4.234   7.561   3.204 -0.6579  0.1337  0.8615
 2112TIP3    H1 6272   4.230   7.638   3.261 -0.0205 -0.1469  1.2888
 2112TIP3    H2 6273   4.161   7.506   3.233 -0.8324  0.3689  0.8645
 2113TIP3   OH2 6274   5.854   0.652   2.792  0.2879  0.1779  0.1649
 2113TIP3    H1 6275   5.761   0.634   2.801  0.0206  0.7671 -1.2202
 2113TIP3    H2 6276   5.894   0.566   2.778  0.2623 -0.3300  2.9852
 2114TIP3   OH2 6277   4.120   1.724   0.156  0.2487 -0.3533  1.1573
 2114TIP3    H1 6278   4.064   1.728   0.078 -0.2869  1.5962  1.6144
 2114TIP3    H2 6279   4.205   1.693   0.122  0.1085  0.7347 -0.2660
 2115TIP3   OH2 6280   2.373   7.479   1.110 -0.1278 -0.2147 -0.4626
 2115TIP3    H1 6281   2.331   7.453   1.192  0.7987 -3.7281 -1.0347
 2115TIP3    H2 6282   2.312   7.541   1.071 -1.6117 -0.1613  1.8506
 2116TIP3   OH2 6283   5.063   0.047   1.541  0.1108  0.1489 -0.1341
 2116TIP3    H1 6284   5.156   0.070   1.540  0.0739  0.2988 -0.1799
 2116TIP3    H2 6285   5.035   0.061   1.631  0.3428 -0.7509  0.0837
 2117TIP3   OH2 6286   3.901   1.768   0.781 -0.8518 -0.1969 -0.6237
 2117TIP3    H1 6287   3.922   1.802   0.694  1.3515  0.3467  0.1009
 2117TIP3    H2 6288   3.975   1.712   0.803 -0.4103  1.2357  1.7194
 2118TIP3   OH2 6289   3.393   0.879   1.874 -0.2406 -0.2664 -0.3057
 2118TIP3    H1 6290   3.485   0.888   1.901 -0.3084 -0.8601  0.1441
 2118TIP3    H2 6291   3.350   0.840   1.950 -0.8716  0.0227 -0.5144
 2119TIP3   OH2 6292   6.787   0.977   1.610  0.4544  0.2571 -0.8128
 2119TIP3    H1 6293   6.811   1.067   1.588 -0.0171  0.6936  0.4638
 2119TIP3    H2 6294   6.840   0.956   1.686 -1.7664  0.5686  0.8614
 2120TIP3   OH2 6295   7.817   0.686   1.696  0.4559 -0.6425 -0.0534
 2120TIP3    H1 6296   7.750   0.625   1.728 -0.0977  0.2937  0.5958
 2120TIP3    H2 6297   7.892   0.631   1.677 -0.6308 -1.7753 -1.1695
 2121TIP3   OH2 6298   5.087   0.603   2.139  0.2985  0.0252  0.3606
 2121TIP3    H1 6299   5.025   0.541   2.102 -0.3848  0.3333  0.9864
 2121TIP3    H2 6300   5.089   0.582   2.232  1.6974 -0.4747  0.2312
 2122TIP3   OH2 6301   8.395   2.037   2.511  0.7522 -0.2077 -0.4998
 2122TIP3    H1 6302   8.431   2.003   2.593 -0.1017  0.7222  0.2670
 2122TIP3    H2 6303   8.374   1.958   2.461  1.2958 -0.7865  0.1627
 2123TIP3   OH2 6304   5.518   0.724   3.375 -0.0184  0.2235 -0.3836
 2123TIP3    H1 6305   5.436   0.737   3.423 -1.6407 -0.7397 -2.8145
 2123TIP3    H2 6306   5.547   0.812   3.353 -1.6546  0.4972 -1.5229
 2124TIP3   OH2 6307   1.710   6.764   2.154  0.4570  0.0066 -0.2274
 2124TIP3    H1 6308   1.655   6.841   2.143  1.1137  0.3049 -1.5221
 2124TIP3    H2 6309   1.797   6.792   2.129  0.5014 -1.4324 -1.8135
 2125TIP3   OH2 6310   1.016   7.988   2.645  0.1935  0.0887  0.0752
 2125TIP3    H1 6311   0.941   8.007   2.701 -0.8837  0.1521 -1.3518
 2125TIP3    H2 6312   1.088   8.037   2.684 -0.7012  0.7199  0.9740
 2126TIP3   OH2 6313   7.031   0.979   3.030 -0.0785  0.1514  0.2709
 2126TIP3    H1 6314   7.121   1.011   3.022  0.0436  0.0731  1.2190
 2126TIP3    H2 6315   7.038   0.884   3.020  0.1224  0.0155  1.5095
 2127TIP3   OH2 6316   8.186   6.861   1.808 -0.5278  0.1617  0.8705
 2127TIP3    H1 6317   8.213   6.952   1.798  2.0894 -0.6645  0.1607
 2127TIP3    H2 6318   8.219   6.835   1.894 -3.1649  0.4696  2.0470
 2128TIP3   OH2 6319   0.478   1.229   2.481 -0.1290  0.2270  0.0289
 2128TIP3    H1 6320   0.540   1.280   2.534 -0.1266 -0.0528  0.2946
 2128TIP3    H2 6321   0.393   1.245   2.521 -0.2828  0.9035 -0.5596
 2129TIP3   OH2 6322   5.928   0.274   1.938  0.1596 -0.0047 -0.3677
 2129TIP3    H1 6323   6.000   0.279   2.001  0.5830 -2.5791 -0.5939
 2129TIP3    H2 6324   5.851   0.304   1.987  0.7668 -0.4823  0.9020
 2130TIP3   OH2 6325   8.303   0.858   2.034 -0.0257  0.0387  0.4131
 2130TIP3    H1 6326   8.252   0.784   2.000 -2.1473  1.5534  0.2625
 2130TIP3    H2 6327   8.242   0.906   2.089  1.6523  1.0999  1.3736
 2131TIP3   OH2 6328   2.550   0.132   2.486 -0.1525 -0.4072 -0.0225
 2131TIP3    H1 6329   2.469   0.180   2.472  0.0075 -0.5807 -1.6440
 2131TIP3    H2 6330   2.523   0.052   2.531 -1.0699 -1.0295 -1.6133
 2132TIP3   OH2 6331   7.229   1.256   1.602  0.1017 -0.2039  0.1995
 2132TIP3    H1 6332   7.158   1.238   1.541  0.1789 -0.7897  0.2840
 2132TIP3    H2 6333   7.242   1.351   1.596 -0.8286 -0.0624  0.3464
 2133TIP3   OH2 6334   1.006   1.687   3.399  0.0727 -0.4341 -0.2930
 2133TIP3    H1 6335   0.930   1.685   3.341 -1.4902 -0.8843  1.7220
 2133TIP3    H2 6336   1.080   1.667   3.342 -1.5205 -1.7649 -1.9594
 2134TIP3   OH2 6337   3.597   7.347   1.230 -0.2687  1.0034 -0.1454
 2134TIP3    H1 6338   3.609   7.252   1.224 -0.3763  1.0959 -2.2557
 2134TIP3    H2 6339   3.502   7.358   1.241 -0.2276  0.8719  0.3791
 2135TIP3   OH2 6340   5.198   7.873   2.735  0.2057 -0.0911  0.1046
 2135TIP3    H1 6341   5.229   7.893   2.646 -2.2335  1.6724 -0.3860
 2135TIP3    H2 6342   5.217   7.952   2.785 -1.3120  0.1089  0.3687
 2136TIP3   OH2 6343   0.151   0.903   3.437 -0.1125  0.5152  0.6304
 2136TIP3    H1 6344   0.242   0.917   3.464 -0.2622 -1.8162  2.4563
 2136TIP3    H2 6345   0.137   0.809   3.448 -1.7676  0.2852 -2.8434
 2137TIP3   OH2 6346   5.944   0.059   2.181  0.2160  0.2632 -0.2002
 2137TIP3    H1 6347   6.023   0.050   2.235  0.2299  2.1523  0.1280
 2137TIP3    H2 6348   5.877   0.090   2.242 -0.5950 -0.6601 -0.6262
 2138TIP3   OH2 6349   5.145   0.539   2.400 -0.2115  0.0369 -0.4301
 2138TIP3    H1 6350   5.189   0.523   2.483  0.5337  1.1997 -0.5997
 2138TIP3    H2 6351   5.053   0.516   2.417  0.2087 -1.1678  0.2735
 2139TIP3   OH2 6352   7.039   0.934   1.311  0.6053 -0.2419 -0.0793
 2139TIP3    H1 6353   6.945   0.936   1.331  0.6446 -2.5315  0.4833
 2139TIP3    H2 6354   7.046   0.983   1.229 -1.5510 -2.5798 -1.7619
 2140TIP3   OH2 6355   7.021  -0.025   3.588  0.1598  0.0682 -0.4171
 2140TIP3    H1 6356   7.067   0.055   3.563 -0.6192  0.5276 -0.3897
 2140TIP3    H2 6357   6.932  -0.012   3.556 -0.2217 -0.3674  0.4564
 2141TIP3   OH2 6358   6.501   1.124   1.585 -0.2572 -0.4941 -0.1635
 2141TIP3    H1 6359   6.596   1.137   1.581 -0.1103 -1.2713  0.9001
 2141TIP3    H2 6360   6.467   1.208   1.615  0.3267 -1.0611  2.1405
 2142TIP3   OH2 6361   8.144   2.448   2.778  0.0571 -0.1255 -0.2387
 2142TIP3    H1 6362   8.158   2.482   2.690  0.7973 -1.0985 -0.5008
 2142TIP3    H2 6363   8.087   2.371   2.766  1.2000 -1.0246 -0.0140
 2143TIP3   OH2 6364   5.417   1.026   2.266 -0.3148 -0.5217 -0.0911
 2143TIP3    H1 6365   5.398   1.059   2.354 -1.9090  0.8427 -0.9313
 2143TIP3    H2 6366   5.417   0.930   2.277  2.8469 -0.3790  2.0443
 2144TIP3   OH2 6367   7.224   1.880   1.441 -0.5241  0.3045  0.0993
 2144TIP3    H1 6368   7.252   1.855   1.353  0.5689  0.0591  0.4937
 2144TIP3    H2 6369   7.141   1.834   1.454  0.3591 -1.3982 -0.0205
 2145TIP3   OH2 6370   3.954   7.356   2.318 -0.3041 -0.1648  0.5980
 2145TIP3    H1 6371   3.866   7.384   2.341  0.0619  1.0091  0.5879
 2145TIP3    H2 6372   3.961   7.373   2.224  0.0311  0.0214  0.6560
 2146TIP3   OH2 6373   8.043   0.766   4.371 -0.3516  0.3489  0.3444
 2146TIP3    H1 6374   8.012   0.724   4.451 -1.8685 -0.0682 -0.4437
 2146TIP3    H2 6375   8.011   0.856   4.377 -0.7775  0.2198  0.0488
 2147TIP3   OH2 6376   3.359   7.634   1.286 -0.4717 -0.2944  0.4911
 2147TIP3    H1 6377   3.429   7.698   1.302  0.8428 -1.5697  0.0111
 2147TIP3    H2 6378   3.375   7.601   1.198 -0.1956 -2.3685  1.2628
 2148TIP3   OH2 6379   1.167   4.548   6.890 -0.4483  0.5395  0.2370
 2148TIP3    H1 6380   1.078   4.534   6.922 -0.3019  0.5410  0.6457
 2148TIP3    H2 6381   1.187   4.639   6.911 -1.2009  1.2473 -1.9521
 2149TIP3   OH2 6382   5.060   6.921   2.831  0.7095  0.0050  0.0938
 2149TIP3    H1 6383   4.976   6.956   2.859  1.5619  2.1199  0.1145
 2149TIP3    H2 6384   5.043   6.829   2.812 -1.3909  0.1900  0.9733
 2150TIP3   OH2 6385   6.330   1.483   1.415  0.1297  0.1554 -0.8197
 2150TIP3    H1 6386   6.404   1.423   1.421  1.1386  1.3822 -0.8218
 2150TIP3    H2 6387   6.369   1.571   1.422 -1.2661  0.8275 -1.2301
 2151TIP3   OH2 6388   5.860   7.681   4.502 -0.1279  0.0508  0.5539
 2151TIP3    H1 6389   5.822   7.733   4.573 -0.1169 -0.0037  0.5996
 2151TIP3    H2 6390   5.926   7.738   4.463 -0.3170  0.1750  0.4178
 2152TIP3   OH2 6391   3.412   7.172   1.493 -0.5761 -0.4361 -0.0069
 2152TIP3    H1 6392   3.358   7.109   1.446  2.1421 -2.3307 -0.7014
 2152TIP3    H2 6393   3.387   7.161   1.585 -2.0469 -0.5740 -0.4117
 2153TIP3   OH2 6394   7.073   0.719   4.249  0.1335  0.0476  1.0630
 2153TIP3    H1 6395   7.044   0.646   4.304 -1.2189  0.4414  0.8917
 2153TIP3    H2 6396   7.014   0.791   4.271 -0.0727  0.3704 -0.4964
 2154TIP3   OH2 6397   0.670   1.184   2.294 -0.3001 -0.2112 -0.1693
 2154TIP3    H1 6398   0.592   1.193   2.349 -1.5599  0.8364 -2.0680
 2154TIP3    H2 6399   0.664   1.256   2.232  2.2030 -0.1293 -0.3503
 2155TIP3   OH2 6400   6.791   1.008   3.184 -0.3328 -0.0115  0.0270
 2155TIP3    H1 6401   6.754   0.931   3.142  0.3182 -0.5996  0.5282
 2155TIP3    H2 6402   6.868   1.030   3.131 -1.4962  1.3407 -1.1455
 2156TIP3   OH2 6403   2.129   7.580   2.222  0.0101  0.0129  0.1361
 2156TIP3    H1 6404   2.038   7.591   2.249  0.0411  0.0307  0.2327
 2156TIP3    H2 6405   2.139   7.487   2.205  0.0665 -0.0365  0.4530
 2157TIP3   OH2 6406   2.001   0.271   2.330  0.6312  0.3439 -0.2059
 2157TIP3    H1 6407   1.933   0.327   2.368 -0.9873 -1.4940 -0.3561
 2157TIP3    H2 6408   2.043   0.229   2.405  1.1050  0.8773 -0.1633
 2158TIP3   OH2 6409   2.054   6.711   2.293 -1.0513  0.4820  0.0454
 2158TIP3    H1 6410   2.070   6.803   2.274  1.0604  0.3634  1.1525
 2158TIP3    H2 6411   2.043   6.670   2.207 -0.0402  1.4050 -0.5316
 2159TIP3   OH2 6412   4.472   1.685   2.614 -0.5797  0.1292  0.0729
 2159TIP3    H1 6413   4.422   1.603   2.608 -0.0072 -0.1638 -0.6621
 2159TIP3    H2 6414   4.467   1.708   2.707 -0.5819 -0.8393  0.3214
 2160TIP3   OH2 6415   6.165   0.243   1.794  0.6383  0.5964 -0.0210
 2160TIP3    H1 6416   6.080   0.274   1.825  0.5632 -0.8735  1.2556
 2160TIP3    H2 6417   6.174   0.282   1.707 -1.8914 -0.2258 -0.6848
 2161TIP3   OH2 6418   8.224   1.061   3.391  0.6646  0.0138  0.0534
 2161TIP3    H1 6419   8.164   1.134   3.377  1.4690  0.6476 -0.1059
 2161TIP3    H2 6420   8.209   1.002   3.317 -0.5973 -0.4173  0.6259
 2162TIP3   OH2 6421   6.990   0.896   1.802  0.3187 -0.3670  0.7049
 2162TIP3    H1 6422   7.065   0.950   1.775  0.7275 -1.5541 -0.6215
 2162TIP3    H2 6423   7.017   0.859   1.886  2.1350 -2.4341 -0.7354
 2163TIP3   OH2 6424   6.482   0.228   1.517  0.1957 -0.2726  0.4414
 2163TIP3    H1 6425   6.390   0.245   1.496  0.2492  0.3842  0.7410
 2163TIP3    H2 6426   6.526   0.311   1.504  0.3779 -0.0420  2.3176
 2164TIP3   OH2 6427   5.552   7.929   0.209  0.7232  0.3110  0.2648
 2164TIP3    H1 6428   5.573   7.839   0.184  0.0029 -0.6443  2.9665
 2164TIP3    H2 6429   5.632   7.978   0.188  2.3076 -1.5534  1.7089
 2165TIP3   OH2 6430   0.769   0.647   2.241  0.0422 -0.0357  0.0952
 2165TIP3    H1 6431   0.762   0.590   2.317 -1.5170  0.0202 -0.0098
 2165TIP3    H2 6432   0.799   0.731   2.276  0.1849 -0.2648  0.5239
 2166TIP3   OH2 6433   6.215   0.976   2.654 -0.6135  0.2510  0.3017
 2166TIP3    H1 6434   6.283   0.914   2.626 -1.8769 -1.7753  1.5515
 2166TIP3    H2 6435   6.137   0.922   2.665 -2.2741  2.4238 -0.4668
 2167TIP3   OH2 6436   6.287   0.500   4.022 -0.1410 -0.0110  0.9139
 2167TIP3    H1 6437   6.196   0.523   4.040 -0.7801  0.9692 -3.2008
 2167TIP3    H2 6438   6.334   0.584   4.020 -0.0673 -0.0739 -1.5166
 2168TIP3   OH2 6439   5.799   7.872   5.404 -0.4468  0.4792 -1.0305
 2168TIP3    H1 6440   5.814   7.876   5.310 -1.4825  0.7973 -1.1974
 2168TIP3    H2 6441   5.762   7.958   5.426  1.2680  0.9853 -0.0573
 2169TIP3   OH2 6442   8.211   0.704   1.131 -0.4782 -0.6249  0.1334
 2169TIP3    H1 6443   8.115   0.708   1.126 -0.4332 -0.0790 -0.3932
 2169TIP3    H2 6444   8.241   0.734   1.045  0.1428 -2.8088 -0.4279
 2170TIP3   OH2 6445   3.274   7.272   0.774 -0.4752  0.7872  0.4597
 2170TIP3    H1 6446   3.218   7.243   0.702 -0.3438  1.8838 -0.0841
 2170TIP3    H2 6447   3.347   7.316   0.732  0.6983 -0.4204  1.1788
 2171TIP3   OH2 6448   5.759   0.388   1.314  0.0775 -0.0764 -0.1128
 2171TIP3    H1 6449   5.729   0.301   1.340 -0.4464  0.2924  0.5420
 2171TIP3    H2 6450   5.711   0.448   1.372  2.5919  0.4865  1.4665
 2172TIP3   OH2 6451   6.378   0.019   4.484  1.2405  0.4273 -0.2492
 2172TIP3    H1 6452   6.364   0.034   4.390  1.9689  3.5641  0.0517
 2172TIP3    H2 6453   6.291   0.000   4.519  0.3996  2.5244 -1.0781
 2173TIP3   OH2 6454   8.007   0.459   1.268 -0.2239  0.2201 -0.3504
 2173TIP3    H1 6455   7.935   0.400   1.250 -1.2976  1.2224  0.5489
 2173TIP3    H2 6456   8.060   0.413   1.334  0.1229 -0.6366 -1.2225
 2174TIP3   OH2 6457   6.010   0.170   4.793 -0.0148  0.1738  0.3071
 2174TIP3    H1 6458   6.057   0.184   4.711  0.7071  0.5573  0.7850
 2174TIP3    H2 6459   5.959   0.090   4.778  0.9152 -0.3363 -0.1516
 2175TIP3   OH2 6460   3.822   7.881   1.339 -0.4543 -0.0326  0.9104
 2175TIP3    H1 6461   3.862   7.962   1.372 -0.3735 -1.0374  3.3533
 2175TIP3    H2 6462   3.895   7.831   1.302 -0.4911  0.9449 -0.5311
 2176TIP3   OH2 6463   0.454   0.808   3.980 -0.1003 -0.3533  0.2331
 2176TIP3    H1 6464   0.362   0.833   3.987 -0.3629 -0.6232 -1.8111
 2176TIP3    H2 6465   0.492   0.874   3.922  1.2357  0.3042  1.8222
 2177TIP3   OH2 6466   2.834   6.690   4.367  0.0451 -0.2151  0.9589
 2177TIP3    H1 6467   2.769   6.747   4.407  0.8037  1.8130 -0.6188
 2177TIP3    H2 6468   2.785   6.636   4.306 -0.6561 -1.2156  2.3700
 2178TIP3   OH2 6469   3.367   7.161   1.770  0.0682  0.4164 -0.3610
 2178TIP3    H1 6470   3.443   7.165   1.827 -0.4846  0.5158  0.3735
 2178TIP3    H2 6471   3.294   7.189   1.825 -0.4056  0.8985 -1.2279
 2179TIP3   OH2 6472   4.625   0.292   2.862 -0.7011 -0.0124  0.4000
 2179TIP3    H1 6473   4.670   0.224   2.912 -0.9511 -0.3561  0.1580
 2179TIP3    H2 6474   4.532   0.278   2.881 -0.8016 -0.2172 -0.2603
 2180TIP3   OH2 6475   7.769   2.001   3.048 -0.2781 -0.3419 -0.3884
 2180TIP3    H1 6476   7.843   2.028   3.102 -1.3070  0.3792  0.6756
 2180TIP3    H2 6477   7.797   1.918   3.009  1.0311 -0.1444  0.0958
 2181TIP3   OH2 6478   6.179   1.217   4.864  0.3764 -0.7456 -0.9412
 2181TIP3    H1 6479   6.134   1.254   4.940 -0.1563 -1.1826 -1.0424
 2181TIP3    H2 6480   6.110   1.171   4.815  0.8812 -1.1797 -1.2459
 2182TIP3   OH2 6481   0.689   1.562   2.984 -0.8495 -0.4304 -0.2314
 2182TIP3    H1 6482   0.698   1.580   3.078  2.1000 -1.3992 -0.2672
 2182TIP3    H2 6483   0.701   1.647   2.942 -0.9126 -0.2032  0.2074
 2183TIP3   OH2 6484   6.001   0.571   1.854  0.2582 -0.4126  0.2788
 2183TIP3    H1 6485   5.919   0.616   1.831 -1.0183 -2.4033  0.8359
 2183TIP3    H2 6486   6.032   0.618   1.932 -1.4015 -0.8457  1.2505
 2184TIP3   OH2 6487   5.267   6.506   2.563  0.8660 -0.1558  0.2451
 2184TIP3    H1 6488   5.290   6.543   2.477 -1.0427  1.4808  0.4085
 2184TIP3    H2 6489   5.324   6.553   2.624 -2.2321  3.3906  0.5699
 2185TIP3   OH2 6490   7.946   1.980   3.468 -1.0650 -0.2563  0.1366
 2185TIP3    H1 6491   7.857   1.989   3.503 -1.5922 -0.5668 -1.1089
 2185TIP3    H2 6492   7.964   2.064   3.427 -0.3013  0.2394  1.4654
 2186TIP3   OH2 6493   7.916   1.624   4.145 -0.2294  0.5274  0.1744
 2186TIP3    H1 6494   7.968   1.682   4.089 -2.7202  0.7798 -2.0344
 2186TIP3    H2 6495   7.837   1.675   4.164 -0.5849 -0.5855  1.7544
 2187TIP3   OH2 6496   2.545   7.801   2.501 -0.1346  0.0823  0.1385
 2187TIP3    H1 6497   2.468   7.857   2.486 -0.3966 -0.1091  0.7316
 2187TIP3    H2 6498   2.619   7.861   2.497 -0.3127  0.2663 -0.4527
 2188TIP3   OH2 6499   2.376   7.606   0.189  0.0229  0.9763 -0.6934
 2188TIP3    H1 6500   2.314   7.588   0.119  0.1495 -0.6829 -0.3856
 2188TIP3    H2 6501   2.335   7.676   0.241 -2.2777 -1.1303  0.3861
 2189TIP3   OH2 6502   5.991   2.021   1.898 -0.3604  0.6388  0.3174
 2189TIP3    H1 6503   6.042   1.940   1.906  0.5664  1.0433 -1.2753
 2189TIP3    H2 6504   6.032   2.081   1.960 -0.0019  0.3925  0.3233
 2190TIP3   OH2 6505   4.947   7.758   2.863  0.0281  0.2158 -0.7438
 2190TIP3    H1 6506   4.963   7.664   2.851  2.5840  0.1326  2.4042
 2190TIP3    H2 6507   5.009   7.800   2.803  0.6552 -0.1296 -0.3476
 2191TIP3   OH2 6508   3.792   1.179   2.712  0.4632 -0.7692  0.2592
 2191TIP3    H1 6509   3.772   1.201   2.803  1.6833 -0.9481  0.5835
 2191TIP3    H2 6510   3.797   1.263   2.667  2.3514 -0.4989  0.9063
 2192TIP3   OH2 6511   0.825   1.439   4.412  0.1851  0.2208  0.5400
 2192TIP3    H1 6512   0.777   1.367   4.452  1.4476  0.6343  2.8883
 2192TIP3    H2 6513   0.814   1.512   4.473  0.5287  1.4779 -0.8592
 2193TIP3   OH2 6514   2.998   7.852   1.722 -0.2416  0.4403  0.5293
 2193TIP3    H1 6515   3.027   7.911   1.791  2.2563 -1.8487  1.5086
 2193TIP3    H2 6516   2.977   7.771   1.767 -1.4786 -0.1610 -1.0773
 2194TIP3   OH2 6517   3.142   7.589   0.695 -0.3818 -0.1261  0.5328
 2194TIP3    H1 6518   3.190   7.529   0.637 -1.8090  0.6311 -1.5242
 2194TIP3    H2 6519   3.206   7.617   0.760  0.5729 -3.1147  0.9585
 2195TIP3   OH2 6520   7.648   0.877   0.832 -0.0828 -0.5671 -0.2838
 2195TIP3    H1 6521   7.626   0.969   0.814 -0.1019 -0.6850 -0.8796
 2195TIP3    H2 6522   7.726   0.861   0.778 -0.0277 -0.8779 -0.1101
 2196TIP3   OH2 6523   7.387   1.084   1.156  0.3198  0.7817  0.4603
 2196TIP3    H1 6524   7.333   1.065   1.079  2.4126 -0.8103 -0.6990
 2196TIP3    H2 6525   7.373   1.010   1.215  0.0853  1.1094  0.8180
 2197TIP3   OH2 6526   6.037   2.940   2.455 -0.2418  0.1188  0.1213
 2197TIP3    H1 6527   5.946   2.967   2.470 -0.5381 -0.5763 -0.4072
 2197TIP3    H2 6528   6.077   3.016   2.414 -0.7821  0.1703 -0.3258
 2198TIP3   OH2 6529   5.680   2.405   3.484 -0.3965 -0.4419 -0.1670
 2198TIP3    H1 6530   5.624   2.412   3.406  0.6653  1.8571 -0.7749
 2198TIP3    H2 6531   5.753   2.350   3.456 -0.6695 -0.6815 -0.4109
 2199TIP3   OH2 6532   8.338   1.738   4.543 -0.1371  0.0361 -0.4352
 2199TIP3    H1 6533   8.371   1.801   4.478 -0.9399  1.5508  0.5914
 2199TIP3    H2 6534   8.281   1.680   4.493  0.4910  0.2145 -1.3735
 2200TIP3   OH2 6535   4.832   7.010   2.484  0.2525  0.4872  0.0378
 2200TIP3    H1 6536   4.832   7.076   2.553  1.0055 -0.0402  0.5638
 2200TIP3    H2 6537   4.920   6.970   2.490 -1.1089 -2.4890  1.6242
 2201TIP3   OH2 6538   7.080   0.267   2.042 -0.1007 -0.2663 -0.3945
 2201TIP3    H1 6539   7.137   0.335   2.078 -0.4357  0.0499 -0.4486
 2201TIP3    H2 6540   7.033   0.232   2.117  1.8064 -2.1226 -0.0184
 2202TIP3   OH2 6541   6.277   0.409   2.340  0.0605  0.3572  0.4098
 2202TIP3    H1 6542   6.320   0.490   2.314  0.4898  0.2514  0.7917
 2202TIP3    H2 6543   6.308   0.344   2.277 -0.3429  0.5048  0.0577
 2203TIP3   OH2 6544   3.552   4.261   6.927  0.0632  0.9263 -0.2061
 2203TIP3    H1 6545   3.571   4.197   6.996  1.3989  0.5594 -0.8951
 2203TIP3    H2 6546   3.526   4.207   6.852 -1.3416  1.3216 -0.0226
 2204TIP3   OH2 6547   6.328   0.349   2.839 -0.4971 -0.5606 -0.3632
 2204TIP3    H1 6548   6.251   0.403   2.857 -0.5657 -0.7236 -0.1625
 2204TIP3    H2 6549   6.313   0.268   2.889 -0.2571 -0.6458 -0.4259
 2205TIP3   OH2 6550   1.914   7.970   2.684 -0.0746 -0.3462  0.5375
 2205TIP3    H1 6551   1.994   7.971   2.737 -0.4762 -0.0532  1.1394
 2205TIP3    H2 6552   1.869   8.051   2.707 -0.4750 -0.4383  0.0834
 2206TIP3   OH2 6553   6.315   1.408   0.754  0.2073 -0.3818  0.1422
 2206TIP3    H1 6554   6.255   1.474   0.719  0.2370 -0.2005  0.4268
 2206TIP3    H2 6555   6.317   1.339   0.688  0.8623  0.3046 -0.5693
 2207TIP3   OH2 6556   6.765   1.676   2.401 -0.2645  0.6342 -0.3646
 2207TIP3    H1 6557   6.785   1.584   2.386  0.4903  0.8489 -0.7270
 2207TIP3    H2 6558   6.789   1.692   2.492 -0.6190  0.4169 -0.2325
 2208TIP3   OH2 6559   7.789   0.760   2.148 -0.3618  0.7005  0.0456
 2208TIP3    H1 6560   7.709   0.706   2.149 -0.7237  1.2455  0.4833
 2208TIP3    H2 6561   7.822   0.751   2.058 -0.5777 -0.0176  0.0323
 2209TIP3   OH2 6562   5.689   1.316   3.554 -0.3238  1.0035  0.4446
 2209TIP3    H1 6563   5.676   1.280   3.467  1.1225 -0.0423  0.6323
 2209TIP3    H2 6564   5.680   1.411   3.543 -0.6031  0.8383 -0.7492
 2210TIP3   OH2 6565   6.951   0.055   1.710 -0.1978  0.3397  0.0812
 2210TIP3    H1 6566   6.999   0.025   1.787  1.7448  1.3553 -0.7013
 2210TIP3    H2 6567   6.981  -0.002   1.639 -0.4551  0.7234 -0.3375
 2211TIP3   OH2 6568   2.503   7.799   3.343 -0.3268  0.5579 -0.0995
 2211TIP3    H1 6569   2.565   7.737   3.304  0.2998  1.8601 -1.1960
 2211TIP3    H2 6570   2.557   7.852   3.401 -0.8235  0.2387  0.6524
 2212TIP3   OH2 6571   4.117   0.403   2.292  0.3208 -0.3230 -0.0374
 2212TIP3    H1 6572   4.160   0.394   2.377  0.1292  1.2945  0.2472
 2212TIP3    H2 6573   4.045   0.340   2.295  1.4103 -1.5650  0.2918
 2213TIP3   OH2 6574   7.432   2.109   3.222  0.1554  0.3215  0.4912
 2213TIP3    H1 6575   7.450   2.045   3.291 -1.3679  1.1792  1.7231
 2213TIP3    H2 6576   7.442   2.194   3.263  0.4113  0.8667 -0.6651
 2214TIP3   OH2 6577   6.914   1.987   3.019  0.0737 -0.0347  0.6512
 2214TIP3    H1 6578   6.881   1.910   3.065 -2.0088  0.0930 -0.5748
 2214TIP3    H2 6579   6.846   2.008   2.955  1.3882  1.8073 -0.1848
 2215TIP3   OH2 6580   8.138   4.221   6.654  0.1158  0.0753  0.1980
 2215TIP3    H1 6581   8.060   4.225   6.599 -0.9935 -0.2108  1.7613
 2215TIP3    H2 6582   8.179   4.137   6.632 -0.9160 -0.5353  0.6213
 2216TIP3   OH2 6583   6.734   2.426   3.307 -0.1856 -0.4849  0.1620
 2216TIP3    H1 6584   6.639   2.430   3.321 -0.0286  1.1933  0.9330
 2216TIP3    H2 6585   6.745   2.382   3.223 -1.6843 -0.1710 -0.2066
 2217TIP3   OH2 6586   1.544   6.847   0.874 -1.0060 -0.0281 -0.3043
 2217TIP3    H1 6587   1.551   6.878   0.965 -1.3431 -1.0176  0.0688
 2217TIP3    H2 6588   1.585   6.916   0.822 -1.4854  0.9076  0.5343
 2218TIP3   OH2 6589   7.787   2.279   3.488  0.1168 -0.4910  0.0670
 2218TIP3    H1 6590   7.711   2.248   3.537  0.2053 -2.0367 -0.7475
 2218TIP3    H2 6591   7.765   2.369   3.464 -0.7111 -0.3454  1.3146
 2219TIP3   OH2 6592   7.246   1.312   0.202 -0.0030  0.3668 -0.1377
 2219TIP3    H1 6593   7.245   1.396   0.156 -0.8688  0.6554  0.3916
 2219TIP3    H2 6594   7.308   1.258   0.152 -0.6443  0.7902 -1.4274
 2220TIP3   OH2 6595   0.659   1.715   3.608  0.5331 -0.8364 -0.2103
 2220TIP3    H1 6596   0.604   1.760   3.544 -0.1439 -0.3789  0.6710
 2220TIP3    H2 6597   0.603   1.646   3.644  0.1295  0.3272  1.4841
 2221TIP3   OH2 6598   7.319   1.703   3.254 -0.0891 -0.4305 -0.0469
 2221TIP3    H1 6599   7.386   1.700   3.186 -1.2676 -0.3786 -1.2410
 2221TIP3    H2 6600   7.288   1.793   3.253 -0.0947 -0.4259  0.5771
 2222TIP3   OH2 6601   4.357   6.501   3.059  0.4501  0.5277  0.4945
 2222TIP3    H1 6602   4.286   6.437   3.061 -0.9064  1.9414 -0.8222
 2222TIP3    H2 6603   4.345   6.547   2.976  3.3244  0.3568 -0.0446
 2223TIP3   OH2 6604   4.861   1.600   4.399  0.0981 -0.4754  0.3252
 2223TIP3    H1 6605   4.938   1.620   4.452 -0.3703  2.4094 -0.0014
 2223TIP3    H2 6606   4.787   1.622   4.455 -0.4286  0.1121 -0.5819
 2224TIP3   OH2 6607   5.765   0.132   2.373 -0.0271 -0.4380  0.3612
 2224TIP3    H1 6608   5.732   0.094   2.455 -1.4893  0.6756  0.3189
 2224TIP3    H2 6609   5.747   0.226   2.381 -1.3980 -0.4837 -1.7641
 2225TIP3   OH2 6610   6.677   2.188   3.546 -0.0059  0.0502  0.7278
 2225TIP3    H1 6611   6.743   2.174   3.479  1.3346  1.0043  1.8185
 2225TIP3    H2 6612   6.593   2.183   3.499  0.8662 -0.3398 -0.8068
 2226TIP3   OH2 6613   5.274   7.661   1.578  0.2397 -0.6797 -0.4183
 2226TIP3    H1 6614   5.250   7.587   1.634 -0.1880  0.2518  0.6424
 2226TIP3    H2 6615   5.200   7.721   1.583  1.0506  0.3388 -0.3734
 2227TIP3   OH2 6616   0.554   1.633   3.975 -0.1420  0.0596  0.2069
 2227TIP3    H1 6617   0.598   1.575   4.038  0.2485  0.3276  0.1815
 2227TIP3    H2 6618   0.616   1.705   3.962 -0.1429 -0.0927 -0.6399
 2228TIP3   OH2 6619   7.430   1.216   4.651 -0.8304  0.2645 -0.4707
 2228TIP3    H1 6620   7.425   1.293   4.596 -0.3335  0.5017 -0.1890
 2228TIP3    H2 6621   7.396   1.144   4.597 -0.6787  0.5595 -0.9511
 2229TIP3   OH2 6622   5.762   1.160   1.686  0.7054 -0.0764  0.0446
 2229TIP3    H1 6623   5.775   1.102   1.611  1.7077 -0.0426  0.1969
 2229TIP3    H2 6624   5.802   1.115   1.759 -0.5484 -0.2513  0.6381
 2230TIP3   OH2 6625   7.363   0.348   3.847  0.4539  0.6909  0.4298
 2230TIP3    H1 6626   7.348   0.263   3.889  0.5066  0.9275  0.9324
 2230TIP3    H2 6627   7.342   0.333   3.755 -0.5582  0.4010  0.6991
 2231TIP3   OH2 6628   7.714   1.120   3.879 -0.3462 -0.4045 -0.3586
 2231TIP3    H1 6629   7.701   1.026   3.867 -0.8211 -0.5188  0.9398
 2231TIP3    H2 6630   7.627   1.158   3.863 -0.2917 -0.2475 -0.2833
 2232TIP3   OH2 6631   6.038   7.915   5.065  0.4151 -0.0940 -0.0598
 2232TIP3    H1 6632   5.974   7.922   4.995 -0.4708  0.7501  0.8195
 2232TIP3    H2 6633   6.058   8.006   5.088  0.7442 -0.3678  0.7508
 2233TIP3   OH2 6634   6.041  -0.033   2.790 -0.2208  1.0336  0.1792
 2233TIP3    H1 6635   6.007   0.027   2.723  4.3856  3.4688 -0.1423
 2233TIP3    H2 6636   6.016   0.008   2.873 -1.0897  0.9599 -0.0423
 2234TIP3   OH2 6637   5.728   0.875   4.533  0.8011  0.2507  0.2982
 2234TIP3    H1 6638   5.798   0.863   4.469  1.5669 -0.2858  1.2225
 2234TIP3    H2 6639   5.742   0.964   4.567  0.5492  0.4401 -0.0901
 2235TIP3   OH2 6640   6.983   0.191   5.729  0.1480  0.0495  0.1372
 2235TIP3    H1 6641   6.932   0.221   5.805 -0.9091 -0.2543 -0.4340
 2235TIP3    H2 6642   6.983   0.267   5.670 -0.8637 -0.4110 -0.4707
 2236TIP3   OH2 6643   6.751   1.109   2.016 -0.0761 -0.1164 -0.0182
 2236TIP3    H1 6644   6.774   1.018   1.999 -1.4242 -0.8027  1.6850
 2236TIP3    H2 6645   6.810   1.136   2.086 -0.0994  0.1426 -0.0970
 2237TIP3   OH2 6646   8.424   2.561   2.972 -0.1698 -0.0471  0.3487
 2237TIP3    H1 6647   8.353   2.615   2.938  0.2173 -0.3736 -1.0078
 2237TIP3    H2 6648   8.503   2.612   2.954  0.1010 -0.5618  0.0800
 2238TIP3   OH2 6649   0.858   0.203   3.013 -0.2042 -0.1277 -0.4456
 2238TIP3    H1 6650   0.857   0.203   2.917  3.3795 -2.0561 -0.5717
 2238TIP3    H2 6651   0.848   0.110   3.036  1.2492  0.0612  0.9729
 2239TIP3   OH2 6652   7.286   2.069   2.330 -0.1562  0.2672  0.4762
 2239TIP3    H1 6653   7.373   2.038   2.302  0.4266  1.3040  1.1151
 2239TIP3    H2 6654   7.225   2.021   2.274  0.6623 -2.5809  1.8888
 2240TIP3   OH2 6655   4.510   1.954   3.699  0.0656  0.0306  0.2024
 2240TIP3    H1 6656   4.537   1.866   3.672 -0.0133 -0.3066  1.1955
 2240TIP3    H2 6657   4.478   1.943   3.788 -1.6610  0.7529 -0.2990
 2241TIP3   OH2 6658   2.442   7.741   1.603 -0.4702 -0.1594 -0.6261
 2241TIP3    H1 6659   2.443   7.671   1.537  0.0837 -0.1899 -0.5873
 2241TIP3    H2 6660   2.355   7.736   1.642 -0.7816 -0.1937 -1.3034
 2242TIP3   OH2 6661   5.179   3.174   2.671  0.0545  0.3635 -0.1200
 2242TIP3    H1 6662   5.180   3.259   2.628 -2.1050  0.9492  0.8626
 2242TIP3    H2 6663   5.088   3.164   2.702 -0.0805 -2.8515 -1.3069
 2243TIP3   OH2 6664   7.481   0.663   3.699  0.2640  0.3370 -0.1918
 2243TIP3    H1 6665   7.534   0.696   3.627  2.7312 -0.8301  1.0245
 2243TIP3    H2 6666   7.511   0.572   3.711 -0.4972  0.3393  1.9178
 2244TIP3   OH2 6667   4.616   2.869   5.067  0.0865  0.5535 -0.0272
 2244TIP3    H1 6668   4.643   2.777   5.064  2.8519  1.3606 -0.7920
 2244TIP3    H2 6669   4.654   2.908   4.989 -3.1470  1.8500 -1.0524
 2245TIP3   OH2 6670   7.411   0.613   1.012  0.1240  0.5232 -0.4375
 2245TIP3    H1 6671   7.402   0.671   0.936  0.8901  0.6864 -0.4004
 2245TIP3    H2 6672   7.337   0.552   1.003  1.2230 -0.5816 -2.2922
 2246TIP3   OH2 6673   7.696   0.627   2.478 -0.0457  0.0381  0.1708
 2246TIP3    H1 6674   7.615   0.599   2.520 -0.6885  0.8767 -0.5107
 2246TIP3    H2 6675   7.711   0.562   2.408  0.0015 -0.2450  0.4410
 2247TIP3   OH2 6676   8.160   1.895   2.177 -0.0302  0.3095 -0.1860
 2247TIP3    H1 6677   8.074   1.877   2.138  0.1733 -0.0036 -0.4973
 2247TIP3    H2 6678   8.141   1.943   2.257 -0.5836 -1.1291  0.5592
 2248TIP3   OH2 6679   4.087   2.629   3.621  0.0807  0.0506 -0.2028
 2248TIP3    H1 6680   4.174   2.616   3.581 -0.2908 -0.8253 -0.7357
 2248TIP3    H2 6681   4.029   2.647   3.547 -0.1207  1.0495  0.1933
 2249TIP3   OH2 6682   7.666   0.957   4.388  0.1341 -0.1646 -0.0721
 2249TIP3    H1 6683   7.684   1.048   4.409 -2.2389  0.9180 -2.4154
 2249TIP3    H2 6684   7.694   0.947   4.297  1.6685 -2.1901  0.5723
 2250TIP3   OH2 6685   4.165   6.779   3.124 -0.2267  0.9427 -0.1246
 2250TIP3    H1 6686   4.239   6.758   3.067 -0.5114  0.6100 -0.3727
 2250TIP3    H2 6687   4.189   6.743   3.210 -1.0744 -1.1648 -0.7452
 2251TIP3   OH2 6688   0.218   2.140   4.029  0.4596 -0.0733  0.9177
 2251TIP3    H1 6689   0.188   2.159   3.940  0.2233  0.8251  1.1852
 2251TIP3    H2 6690   0.306   2.103   4.017  0.6602  0.5659  0.3370
 2252TIP3   OH2 6691   0.947   1.842   2.768  0.5224  0.1698  0.3164
 2252TIP3    H1 6692   1.016   1.871   2.707 -1.0691  0.3266 -1.4363
 2252TIP3    H2 6693   0.956   1.901   2.843  2.6758 -0.1908  0.3996
 2253TIP3   OH2 6694   5.798   6.198   4.561 -0.2080 -0.2769 -0.1121
 2253TIP3    H1 6695   5.829   6.252   4.633 -0.9141 -0.4694  0.3456
 2253TIP3    H2 6696   5.763   6.120   4.604  1.2447 -1.3158 -0.7942
 2254TIP3   OH2 6697   6.340   1.066   4.691 -0.4124 -0.0340  0.1347
 2254TIP3    H1 6698   6.297   1.113   4.762 -0.6207  1.3882 -0.9167
 2254TIP3    H2 6699   6.417   1.026   4.731 -0.9706  0.0655  1.3266
 2255TIP3   OH2 6700   5.391   1.461   4.258 -0.3135  0.1631 -0.3440
 2255TIP3    H1 6701   5.451   1.489   4.188 -0.3610  0.5546 -0.2316
 2255TIP3    H2 6702   5.441   1.398   4.309  0.4290  1.3665  0.4518
 2256TIP3   OH2 6703   2.585   7.503   1.538  0.1289 -0.3295 -0.2402
 2256TIP3    H1 6704   2.562   7.459   1.620 -0.4245 -2.0491 -1.3103
 2256TIP3    H2 6705   2.598   7.432   1.475  2.2367  0.8833 -1.2469
 2257TIP3   OH2 6706   0.573   0.342   3.546 -0.2485 -0.0575 -0.3533
 2257TIP3    H1 6707   0.512   0.326   3.474  0.4056  1.2663 -1.2166
 2257TIP3    H2 6708   0.530   0.408   3.601 -0.7683 -1.0987  0.5172
 2258TIP3   OH2 6709   5.998   2.958   4.685 -0.3717 -0.4153  0.4807
 2258TIP3    H1 6710   6.030   3.046   4.669  1.6199 -1.2720 -0.4007
 2258TIP3    H2 6711   6.029   2.907   4.611 -3.5808 -1.3791 -0.2973
 2259TIP3   OH2 6712   6.613   1.852   5.928  0.1418  0.1086 -0.5337
 2259TIP3    H1 6713   6.520   1.846   5.909 -0.0299  1.7609 -0.2303
 2259TIP3    H2 6714   6.653   1.875   5.844  0.0664  1.2521 -0.2606
 2260TIP3   OH2 6715   7.301   0.418   4.266 -0.5572  0.2610  0.2191
 2260TIP3    H1 6716   7.367   0.443   4.201  0.7835  0.0204  1.4812
 2260TIP3    H2 6717   7.316   0.476   4.340 -1.9183  0.3503  0.4346
 2261TIP3   OH2 6718   6.104   0.769   4.202  0.5626  0.0444 -0.2052
 2261TIP3    H1 6719   6.185   0.735   4.241  0.1770 -1.1453 -0.4034
 2261TIP3    H2 6720   6.125   0.780   4.109  0.7803  0.6440 -0.0854
 2262TIP3   OH2 6721   3.181   7.446   3.072 -0.0625  0.2169  0.5467
 2262TIP3    H1 6722   3.105   7.387   3.072 -0.7227  1.0586  0.1491
 2262TIP3    H2 6723   3.183   7.482   2.983  0.5536  0.5195  0.6836
 2263TIP3   OH2 6724   7.868   0.389   3.928  0.3020 -0.1846 -0.0381
 2263TIP3    H1 6725   7.902   0.366   3.841 -0.3682  0.1626 -0.4035
 2263TIP3    H2 6726   7.806   0.318   3.948 -0.3989  0.3221 -0.3595
 2264TIP3   OH2 6727   3.585   7.663   4.477 -0.6656  0.1772 -0.0989
 2264TIP3    H1 6728   3.541   7.684   4.395 -3.8275  1.0234  1.7475
 2264TIP3    H2 6729   3.566   7.570   4.491 -0.9849  0.2900  0.2017
 2265TIP3   OH2 6730   7.447   2.076   4.139 -0.2574 -0.2754  0.0620
 2265TIP3    H1 6731   7.456   2.019   4.215 -0.3380  1.1186  1.1178
 2265TIP3    H2 6732   7.353   2.090   4.131 -0.3461 -1.3529 -1.0090
 2266TIP3   OH2 6733   6.521   3.214   2.891 -0.6272  0.2415 -0.5605
 2266TIP3    H1 6734   6.467   3.288   2.918 -1.1135 -0.6059  0.8318
 2266TIP3    H2 6735   6.599   3.254   2.854  0.0709  1.4569  2.1126
 2267TIP3   OH2 6736   6.943   3.635   2.799  0.1561 -0.2226 -0.6737
 2267TIP3    H1 6737   7.024   3.624   2.849 -1.4038 -1.1524  1.7416
 2267TIP3    H2 6738   6.937   3.556   2.745  0.7434 -0.2422 -0.7134
 2268TIP3   OH2 6739   6.854   0.643   3.451  0.0865  0.3587 -0.4758
 2268TIP3    H1 6740   6.934   0.621   3.403 -0.0680  0.4206 -0.7594
 2268TIP3    H2 6741   6.839   0.735   3.432  1.5460  1.1218  1.8708
 2269TIP3   OH2 6742   8.375   1.777   2.414 -0.2168  0.4360  0.3564
 2269TIP3    H1 6743   8.287   1.745   2.393  0.0864  0.7104 -1.4633
 2269TIP3    H2 6744   8.433   1.705   2.390  0.0498  0.2252  1.6302
 2270TIP3   OH2 6745   7.345   0.195   3.196 -0.0579 -0.6666 -0.4468
 2270TIP3    H1 6746   7.370   0.133   3.265 -1.1706  0.3150  0.8682
 2270TIP3    H2 6747   7.292   0.142   3.136  0.7398 -1.4783 -0.4550
 2271TIP3   OH2 6748   7.909   0.243   0.767 -0.2675  0.3007  0.5650
 2271TIP3    H1 6749   7.945   0.311   0.710 -0.7939  2.3973  2.6486
 2271TIP3    H2 6750   7.985   0.209   0.815 -0.1571  0.2087  0.3231
 2272TIP3   OH2 6751   8.020   1.286   2.481  0.6637 -0.0784  0.0952
 2272TIP3    H1 6752   7.981   1.280   2.394  1.9555  0.1135 -0.5108
 2272TIP3    H2 6753   7.977   1.217   2.531 -1.1064  0.7118 -0.2753
 2273TIP3   OH2 6754   5.374   7.606   0.974  0.1947 -0.2420  0.4262
 2273TIP3    H1 6755   5.457   7.653   0.967 -0.1873  0.4237  0.3418
 2273TIP3    H2 6756   5.309   7.666   0.937 -0.3435 -0.7095  0.6056
 2274TIP3   OH2 6757   4.991   3.220   2.891  0.4209  0.1364 -0.4504
 2274TIP3    H1 6758   5.001   3.314   2.877 -1.0995  0.4076  0.1906
 2274TIP3    H2 6759   4.898   3.208   2.911  0.7031 -1.4273  0.0237
 2275TIP3   OH2 6760   6.629   0.690   1.335  0.0086  0.5387 -0.0985
 2275TIP3    H1 6761   6.582   0.684   1.251  1.1170  2.1739 -0.8387
 2275TIP3    H2 6762   6.570   0.647   1.398 -0.5155 -1.3539 -1.8194
 2276TIP3   OH2 6763   0.317   2.234   3.180 -0.2677  0.4857  0.1283
 2276TIP3    H1 6764   0.278   2.219   3.266 -1.9989  1.7689 -0.4084
 2276TIP3    H2 6765   0.332   2.146   3.145 -3.1453 -0.0756  0.1842
 2277TIP3   OH2 6766   6.858   0.867   2.557  0.3776  0.0615 -0.2398
 2277TIP3    H1 6767   6.902   0.951   2.549  1.3433 -0.4375 -0.1779
 2277TIP3    H2 6768   6.837   0.859   2.650 -0.5099  0.6340 -0.3896
 2278TIP3   OH2 6769   4.557   7.921   5.060  0.8053  0.3931 -0.0675
 2278TIP3    H1 6770   4.602   7.949   5.140  1.1487 -2.6148  0.8304
 2278TIP3    H2 6771   4.480   7.873   5.092  1.1010 -1.0883 -1.5353
 2279TIP3   OH2 6772   0.587   2.297   2.570 -0.0088 -0.0254  0.0495
 2279TIP3    H1 6773   0.645   2.221   2.574  1.0565  0.7633 -0.1965
 2279TIP3    H2 6774   0.646   2.371   2.562 -1.1152  0.5738 -3.3551
 2280TIP3   OH2 6775   0.473   1.552   3.723  0.0671 -0.2913  0.0352
 2280TIP3    H1 6776   0.417   1.476   3.742  2.0218 -1.3732  1.7232
 2280TIP3    H2 6777   0.489   1.592   3.809  1.3865  0.3337 -0.4871
 2281TIP3   OH2 6778   7.119   3.923   0.979 -0.4076  0.1768  0.0828
 2281TIP3    H1 6779   7.114   4.018   0.983 -0.8835  0.1633 -0.1774
 2281TIP3    H2 6780   7.030   3.895   0.958 -0.0233 -0.2674 -0.9761
 2282TIP3   OH2 6781   2.201   3.211   3.031 -0.6245 -0.1296  0.3472
 2282TIP3    H1 6782   2.261   3.137   3.025 -0.5142 -0.0132 -0.0330
 2282TIP3    H2 6783   2.160   3.202   3.117  0.4280  0.1748  0.8853
 2283TIP3   OH2 6784   7.822   0.601   3.460  0.2684  0.2953  0.2072
 2283TIP3    H1 6785   7.800   0.533   3.524 -1.2635  0.4926 -0.0733
 2283TIP3    H2 6786   7.800   0.683   3.504 -1.7659  0.3881 -0.8871
 2284TIP3   OH2 6787   6.924   0.726   2.315 -0.0634  0.1030  0.0155
 2284TIP3    H1 6788   6.923   0.766   2.401  0.7980 -0.1208  0.1381
 2284TIP3    H2 6789   7.017   0.722   2.291 -0.2171 -0.8061 -0.4623
 2285TIP3   OH2 6790   5.111   0.711   3.855 -0.1935  0.0141  0.1361
 2285TIP3    H1 6791   5.126   0.755   3.771  1.8602 -0.9497 -0.0303
 2285TIP3    H2 6792   5.193   0.722   3.903  0.1022 -2.8853  0.4081
 2286TIP3   OH2 6793   1.664   4.984   6.706  0.0941 -0.2122 -0.5696
 2286TIP3    H1 6794   1.576   4.988   6.668 -0.0942 -1.4182 -0.2916
 2286TIP3    H2 6795   1.681   4.890   6.718  0.9727  0.0535  0.3990
 2287TIP3   OH2 6796   6.594   1.394   4.102 -0.1118  0.1411  0.4898
 2287TIP3    H1 6797   6.587   1.309   4.146  0.1415  0.4730  1.1644
 2287TIP3    H2 6798   6.568   1.458   4.168  0.8470  0.6906  0.3387
 2288TIP3   OH2 6799   1.942   0.929   2.628  0.4622 -0.3416 -0.7529
 2288TIP3    H1 6800   1.892   0.970   2.699  0.8511 -1.8110  0.4234
 2288TIP3    H2 6801   1.888   0.854   2.602  1.1992 -0.8889 -0.7155
 2289TIP3   OH2 6802   0.656   1.159   4.186 -0.9131 -0.4476 -0.1276
 2289TIP3    H1 6803   0.665   1.086   4.247 -0.1160 -0.6746 -0.5004
 2289TIP3    H2 6804   0.746   1.190   4.172 -1.1568  0.0529 -0.6375
 2290TIP3   OH2 6805   7.925   1.259   2.741 -0.2145  0.1064 -0.0432
 2290TIP3    H1 6806   7.905   1.180   2.692 -2.8019 -0.9745  2.6060
 2290TIP3    H2 6807   8.004   1.294   2.700 -0.0311 -2.8794 -2.3579
 2291TIP3   OH2 6808   7.820   1.978   5.817  0.1174  0.2334 -0.2585
 2291TIP3    H1 6809   7.900   1.926   5.815 -0.0013  0.0241  0.5558
 2291TIP3    H2 6810   7.829   2.034   5.894 -0.6336  0.0339 -0.0219
 2292TIP3   OH2 6811   0.793   1.285   3.410 -0.0337 -0.3825  0.3346
 2292TIP3    H1 6812   0.782   1.224   3.483 -2.6499  0.2989  0.5563
 2292TIP3    H2 6813   0.835   1.362   3.449 -1.8188  0.1485  1.2367
 2293TIP3   OH2 6814   4.654   6.949   3.913  0.5772  0.0551 -0.1781
 2293TIP3    H1 6815   4.571   6.996   3.903  0.2113 -0.3671  0.8483
 2293TIP3    H2 6816   4.712   6.991   3.849 -0.5392  0.0627 -1.2091
 2294TIP3   OH2 6817   7.224   0.379   3.605 -0.4103  0.0899 -0.0267
 2294TIP3    H1 6818   7.290   0.416   3.547  1.9314  1.6396  3.4815
 2294TIP3    H2 6819   7.172   0.321   3.548  3.8255 -1.0898 -2.9396
 2295TIP3   OH2 6820   1.733   0.982   3.388  0.8702  0.0266  0.0910
 2295TIP3    H1 6821   1.720   1.074   3.411  1.5406 -0.1581  1.2229
 2295TIP3    H2 6822   1.644   0.945   3.386  0.6213  0.6371 -0.1284
 2296TIP3   OH2 6823   6.852   3.274   3.020  0.5253  0.1018 -0.2817
 2296TIP3    H1 6824   6.807   3.332   2.959 -1.0800 -0.2927  0.5247
 2296TIP3    H2 6825   6.828   3.307   3.107 -1.1601 -2.3472  0.2046
 2297TIP3   OH2 6826   7.764   0.445   1.534 -0.2409  0.0923  0.0969
 2297TIP3    H1 6827   7.692   0.382   1.532 -0.5413  0.3516  1.7265
 2297TIP3    H2 6828   7.751   0.499   1.457 -1.0320 -0.6942 -0.3331
 2298TIP3   OH2 6829   1.276   2.587   1.634  0.1287  0.2218 -0.2949
 2298TIP3    H1 6830   1.259   2.640   1.556 -2.0515 -0.1591 -0.1184
 2298TIP3    H2 6831   1.262   2.497   1.606  2.4178 -0.1893 -0.2243
 2299TIP3   OH2 6832   0.085   2.648   1.881  0.0837 -0.0553 -0.0048
 2299TIP3    H1 6833   0.129   2.598   1.950  2.2841  1.1499 -0.4607
 2299TIP3    H2 6834   0.071   2.734   1.920  0.4462  0.3304 -0.7049
 2300TIP3   OH2 6835   7.210   1.510   1.506  0.2981  0.4022 -0.1157
 2300TIP3    H1 6836   7.233   1.590   1.554  1.0573 -0.4850  1.0355
 2300TIP3    H2 6837   7.276   1.504   1.437 -0.2724  1.2211 -0.7371
 2301TIP3   OH2 6838   7.779   2.132   1.531 -0.4153  0.1749  0.4136
 2301TIP3    H1 6839   7.800   2.073   1.603  0.2618  1.0091  0.9133
 2301TIP3    H2 6840   7.814   2.217   1.559  0.2550  0.4096 -1.0910
 2302TIP3   OH2 6841   1.351   3.405   2.498  0.1451 -0.1690 -0.6671
 2302TIP3    H1 6842   1.373   3.360   2.579 -2.1439  0.2809  0.2381
 2302TIP3    H2 6843   1.278   3.356   2.462  0.9068 -0.1488 -2.3067
 2303TIP3   OH2 6844   0.347   1.273   3.752 -0.1524  0.3397  0.5861
 2303TIP3    H1 6845   0.336   1.227   3.836 -1.2946 -3.6344 -1.5880
 2303TIP3    H2 6846   0.261   1.310   3.734  0.2255  1.6235  1.3797
 2304TIP3   OH2 6847   8.160   1.515   2.693 -0.5928 -0.0334 -0.1676
 2304TIP3    H1 6848   8.240   1.464   2.683 -0.9060 -0.6583  0.4819
 2304TIP3    H2 6849   8.186   1.604   2.672  0.4142 -0.1267  0.6401
 2305TIP3   OH2 6850   0.562   3.447   3.822  0.4085  0.3057  0.1297
 2305TIP3    H1 6851   0.634   3.388   3.800 -0.0665 -0.1573 -0.1993
 2305TIP3    H2 6852   0.603   3.518   3.872  1.1430  0.2181 -0.3397
 2306TIP3   OH2 6853   6.113   0.895   1.523  0.0157  0.2874  0.2807
 2306TIP3    H1 6854   6.142   0.983   1.497  0.9033 -0.3029 -0.7989
 2306TIP3    H2 6855   6.193   0.843   1.526 -0.5202 -0.5267  0.7790
 2307TIP3   OH2 6856   0.342   4.044   3.098  0.7068  0.3033 -0.0035
 2307TIP3    H1 6857   0.371   3.959   3.064  2.1159  0.9706 -0.5207
 2307TIP3    H2 6858   0.280   4.076   3.032  1.0112  0.1694 -0.3540
 2308TIP3   OH2 6859   1.002   2.133   3.903  0.1010 -0.1047 -0.7654
 2308TIP3    H1 6860   1.004   2.103   3.812  2.4536  2.0315 -1.5004
 2308TIP3    H2 6861   1.016   2.054   3.955 -0.7768 -1.2848 -2.2719
 2309TIP3   OH2 6862   1.242   1.267   4.218  0.0810 -0.4406 -0.3993
 2309TIP3    H1 6863   1.153   1.301   4.211  0.6150  0.7489 -1.7104
 2309TIP3    H2 6864   1.277   1.307   4.298  0.0374  0.5843 -0.8724
 2310TIP3   OH2 6865   1.694   1.330   3.401  0.4166  0.4210 -1.0143
 2310TIP3    H1 6866   1.661   1.290   3.321  0.3625 -1.0355 -0.2887
 2310TIP3    H2 6867   1.651   1.415   3.405 -0.7175 -0.0981 -1.7850
 2311TIP3   OH2 6868   2.244   2.017   2.730  0.0763  0.3303  0.2883
 2311TIP3    H1 6869   2.157   2.001   2.768 -0.5179  1.1879 -0.7076
 2311TIP3    H2 6870   2.260   1.940   2.676 -0.4173  0.5382 -0.1620
 2312TIP3   OH2 6871   7.235   2.021   4.739 -0.4585  0.6256 -0.2454
 2312TIP3    H1 6872   7.163   1.961   4.717 -0.2379 -0.0225  0.7728
 2312TIP3    H2 6873   7.279   2.036   4.655 -1.1856  0.2529 -0.7062
 2313TIP3   OH2 6874   1.459   4.127   3.711  0.0483  0.7818 -0.0997
 2313TIP3    H1 6875   1.364   4.125   3.696 -0.1615 -0.5484  1.1874
 2313TIP3    H2 6876   1.487   4.037   3.692  1.1788  1.3779 -1.2428
 2314TIP3   OH2 6877   2.346   2.927   3.680 -0.2840 -0.4420 -0.1171
 2314TIP3    H1 6878   2.253   2.908   3.690 -0.2902 -0.2587  0.1927
 2314TIP3    H2 6879   2.381   2.854   3.629 -0.7299 -0.1574 -0.8228
 2315TIP3   OH2 6880   2.623   1.173   1.190  0.6215  0.6415 -0.6155
 2315TIP3    H1 6881   2.674   1.094   1.204 -1.3974 -0.5310  0.4380
 2315TIP3    H2 6882   2.657   1.236   1.254  0.1020 -0.4489  0.7545
 2316TIP3   OH2 6883   5.890   1.224   5.167  0.0076 -0.6098  0.3583
 2316TIP3    H1 6884   5.805   1.259   5.192 -0.3092 -0.5723 -0.7541
 2316TIP3    H2 6885   5.935   1.209   5.250 -1.4304 -1.5240  0.9981
 2317TIP3   OH2 6886   3.055   2.474   4.052 -0.6741  0.1443 -0.3741
 2317TIP3    H1 6887   2.999   2.533   4.102  0.8321  0.6535  0.7535
 2317TIP3    H2 6888   3.128   2.529   4.022  0.0428 -0.8411 -0.4665
 2318TIP3   OH2 6889   1.208   2.373   3.969  0.0276  0.8037 -0.3068
 2318TIP3    H1 6890   1.116   2.397   3.963  0.2438  2.0396  1.1391
 2318TIP3    H2 6891   1.210   2.303   4.034  0.0163  0.2231 -0.9261
 2319TIP3   OH2 6892   1.241   3.713   4.616  0.2625 -0.2189 -0.6324
 2319TIP3    H1 6893   1.254   3.633   4.668  0.2900 -0.1673 -0.5596
 2319TIP3    H2 6894   1.306   3.706   4.546  2.1185  1.0475  0.9225
 2320TIP3   OH2 6895   0.626   3.663   3.407 -0.2702  0.0086 -0.2344
 2320TIP3    H1 6896   0.565   3.621   3.346  0.4189 -0.8957 -0.3287
 2320TIP3    H2 6897   0.612   3.756   3.395 -0.5268 -0.1681 -1.4051
 2321TIP3   OH2 6898   1.635   0.571   3.991  0.3213 -0.2225 -0.2874
 2321TIP3    H1 6899   1.568   0.613   3.938  0.1258  1.0305  0.9152
 2321TIP3    H2 6900   1.704   0.548   3.929 -0.0650  0.8727 -1.1441
 2322TIP3   OH2 6901   1.486   1.261   4.061  0.3054 -0.8901 -0.2483
 2322TIP3    H1 6902   1.556   1.266   4.127 -0.0906 -1.4727  0.2290
 2322TIP3    H2 6903   1.405   1.263   4.113 -0.0130 -1.1531 -0.7357
 2323TIP3   OH2 6904   0.100   2.101   1.210  0.3288 -0.1919  0.0119
 2323TIP3    H1 6905   0.099   2.196   1.215 -0.6489 -0.2510  0.8345
 2323TIP3    H2 6906   0.182   2.075   1.253 -0.5803  0.1483  1.9877
 2324TIP3   OH2 6907   0.100   2.554   3.201 -0.0483 -0.2188  0.0054
 2324TIP3    H1 6908   0.011   2.519   3.194 -0.7641  1.5022  0.1476
 2324TIP3    H2 6909   0.120   2.549   3.295 -0.3439  0.1867  0.0942
 2325TIP3   OH2 6910   0.897   0.193   1.541 -0.0592 -0.0057  0.3382
 2325TIP3    H1 6911   0.857   0.271   1.501  1.1738  0.9133  0.8687
 2325TIP3    H2 6912   0.944   0.227   1.617  0.0897 -1.3486  0.8500
 2326TIP3   OH2 6913   0.714   2.454   1.175  0.5037 -0.0894  0.2379
 2326TIP3    H1 6914   0.675   2.451   1.263 -1.4898 -0.8785 -0.6633
 2326TIP3    H2 6915   0.807   2.473   1.192 -0.0632  0.9720  2.4559
 2327TIP3   OH2 6916   1.795   3.715   3.006  0.2173 -0.1369 -0.2451
 2327TIP3    H1 6917   1.862   3.715   2.939 -0.1773 -1.6642 -0.6629
 2327TIP3    H2 6918   1.836   3.673   3.082  0.0978 -0.0251 -0.1166
 2328TIP3   OH2 6919   7.486   0.516   4.076 -0.1443 -0.5113  0.3577
 2328TIP3    H1 6920   7.538   0.580   4.027  1.4037 -1.2151  1.0446
 2328TIP3    H2 6921   7.441   0.465   4.008  0.2117 -0.0102 -0.2606
 2329TIP3   OH2 6922   8.366   1.609   4.937 -0.6650  0.1344  0.4550
 2329TIP3    H1 6923   8.303   1.635   5.004 -0.6828 -0.7802  0.8012
 2329TIP3    H2 6924   8.314   1.558   4.874 -0.4261  0.0251  0.3456
 2330TIP3   OH2 6925   8.054   0.227   1.839 -0.0279  0.4126  0.3023
 2330TIP3    H1 6926   7.970   0.183   1.841 -0.7244  1.6761 -0.3560
 2330TIP3    H2 6927   8.103   0.183   1.770 -0.8910  0.9438 -0.6704
 2331TIP3   OH2 6928   7.690   4.926   3.936  0.1251  0.2289 -0.4623
 2331TIP3    H1 6929   7.739   5.005   3.958 -1.1187  0.9674 -0.2668
 2331TIP3    H2 6930   7.693   4.873   4.016  0.7535  0.1838 -0.5126
 2332TIP3   OH2 6931   0.967   3.895   2.917 -0.7173  0.1575  0.1265
 2332TIP3    H1 6932   0.922   3.812   2.905 -1.6306  0.6876 -0.1900
 2332TIP3    H2 6933   0.905   3.949   2.966  0.1808  0.3908  1.0090
 2333TIP3   OH2 6934   6.785   3.854   2.470 -0.0211 -0.3314  0.0201
 2333TIP3    H1 6935   6.828   3.875   2.552  2.0665 -1.5486 -0.7226
 2333TIP3    H2 6936   6.791   3.759   2.462  1.6920 -0.0651 -2.5037
 2334TIP3   OH2 6937   8.249   0.962   4.573  0.4728 -0.5324  0.2777
 2334TIP3    H1 6938   8.192   0.994   4.642 -0.3914 -0.7274 -0.3268
 2334TIP3    H2 6939   8.199   0.974   4.492  1.4363 -0.3598 -0.3119
 2335TIP3   OH2 6940   8.112   0.532   3.608  0.1584  0.6571 -0.2460
 2335TIP3    H1 6941   8.112   0.601   3.675 -0.2451  1.6811 -1.2800
 2335TIP3    H2 6942   8.205   0.520   3.587  0.3454 -0.1647  0.9804
 2336TIP3   OH2 6943   6.495   2.668   4.273 -0.8297  0.1499  0.2866
 2336TIP3    H1 6944   6.522   2.717   4.350  0.3255  1.6096 -1.0016
 2336TIP3    H2 6945   6.560   2.598   4.264 -0.0876  0.9017 -0.2208
 2337TIP3   OH2 6946   0.482   1.852   1.692  0.1689 -0.3076 -0.8405
 2337TIP3    H1 6947   0.517   1.940   1.685 -0.5084 -0.1179 -1.8659
 2337TIP3    H2 6948   0.481   1.834   1.786 -2.1288  1.7485 -0.4382
 2338TIP3   OH2 6949   7.089   1.649   5.941  0.3632 -0.2593  0.0053
 2338TIP3    H1 6950   7.036   1.682   5.868  1.2110  0.4383 -0.3001
 2338TIP3    H2 6951   7.163   1.605   5.899  1.5376  1.2635  0.4472
 2339TIP3   OH2 6952   8.245   1.885   4.964  0.2092 -0.2802  0.2712
 2339TIP3    H1 6953   8.190   1.879   4.885 -0.7633  0.1903  0.8966
 2339TIP3    H2 6954   8.334   1.898   4.931 -0.1994 -0.0227 -0.7479
 2340TIP3   OH2 6955   7.489   1.394   1.983 -0.0990  0.2934 -0.0868
 2340TIP3    H1 6956   7.448   1.327   1.929  0.5618  0.9527 -1.4314
 2340TIP3    H2 6957   7.424   1.413   2.052  0.4584 -3.0409  1.4460
 2341TIP3   OH2 6958   2.083   1.486   3.114  0.2032  0.3678 -0.1309
 2341TIP3    H1 6959   2.167   1.493   3.159  0.6942  2.3503 -1.2697
 2341TIP3    H2 6960   2.040   1.569   3.132 -0.9666 -0.1200 -0.6416
 2342TIP3   OH2 6961   7.809   2.025   4.164 -0.3516  0.5676 -0.3443
 2342TIP3    H1 6962   7.784   1.968   4.091 -1.7107  0.7588 -0.0330
 2342TIP3    H2 6963   7.729   2.034   4.216  0.4074  1.0590  0.7521
 2343TIP3   OH2 6964   0.524   1.802   3.368  0.4335 -0.0692  0.3750
 2343TIP3    H1 6965   0.564   1.889   3.377 -0.8000  0.6872 -1.1184
 2343TIP3    H2 6966   0.434   1.814   3.399  0.3964 -0.9401  0.6083
 2344TIP3   OH2 6967   7.521   0.172   2.924  0.1534  0.3587 -0.0838
 2344TIP3    H1 6968   7.573   0.156   3.002  1.1723  0.2381 -0.7816
 2344TIP3    H2 6969   7.494   0.085   2.894 -1.0881  0.4576  0.6874
 2345TIP3   OH2 6970   1.060   1.920   4.075  0.4228  0.5064 -0.0228
 2345TIP3    H1 6971   1.104   1.836   4.062 -1.6220 -0.6426  0.3341
 2345TIP3    H2 6972   1.023   1.914   4.164 -2.6925  0.3760 -1.2761
 2346TIP3   OH2 6973   2.575   1.718   3.517  0.2339 -0.2096  0.0135
 2346TIP3    H1 6974   2.510   1.787   3.498  0.1444  0.2158  1.6950
 2346TIP3    H2 6975   2.650   1.739   3.462 -1.2275 -0.9919 -2.3372
 2347TIP3   OH2 6976   8.130   1.853   2.595 -0.5248  0.2357  0.2747
 2347TIP3    H1 6977   8.108   1.911   2.521 -0.1866  1.3440  1.0241
 2347TIP3    H2 6978   8.131   1.765   2.557  1.6487  0.9725 -1.5265
 2348TIP3   OH2 6979   2.185   2.202   3.327 -0.1749  0.1765 -0.4906
 2348TIP3    H1 6980   2.268   2.219   3.282 -0.6508  0.3972 -1.2823
 2348TIP3    H2 6981   2.210   2.193   3.419  0.6894  0.5697 -0.6772
 2349TIP3   OH2 6982   2.245   1.789   2.281 -0.2078 -0.3263  0.3508
 2349TIP3    H1 6983   2.194   1.836   2.215 -1.2402 -0.7543  0.8303
 2349TIP3    H2 6984   2.308   1.737   2.230  0.2851  0.8089 -0.2143
 2350TIP3   OH2 6985   1.747   0.944   3.798 -0.8378  0.3097  0.1326
 2350TIP3    H1 6986   1.787   0.868   3.755 -0.4515  0.7363 -0.2545
 2350TIP3    H2 6987   1.655   0.939   3.774 -0.7312  0.2134 -0.2515
 2351TIP3   OH2 6988   7.605   0.255   4.735  0.0724  1.0588 -0.0678
 2351TIP3    H1 6989   7.665   0.185   4.761  0.0193  0.7744 -0.6933
 2351TIP3    H2 6990   7.533   0.208   4.692  0.9961  1.6609 -2.2986
 2352TIP3   OH2 6991   8.459   1.757   2.983 -0.0985 -0.3263 -0.3314
 2352TIP3    H1 6992   8.534   1.699   2.971 -0.9851 -1.2327 -1.5977
 2352TIP3    H2 6993   8.477   1.831   2.925  0.5320  0.1892  0.5058
 2353TIP3   OH2 6994   0.867   1.556   2.313 -0.2786  0.2735  0.3608
 2353TIP3    H1 6995   0.905   1.642   2.295 -0.0525 -0.0354 -0.6977
 2353TIP3    H2 6996   0.876   1.544   2.407 -0.6167  1.5528  0.5646
 2354TIP3   OH2 6997   1.681   2.093   3.555  0.2215  0.0319 -0.0130
 2354TIP3    H1 6998   1.647   2.083   3.466  1.3864 -0.5847 -0.4118
 2354TIP3    H2 6999   1.617   2.048   3.610 -1.3986  1.9024 -0.3245
 2355TIP3   OH2 7000   8.229   0.898   3.785 -0.1485 -0.3018  0.4518
 2355TIP3    H1 7001   8.253   0.952   3.710  0.4654 -1.6745 -0.3500
 2355TIP3    H2 7002   8.206   0.961   3.854 -0.0925  0.9605 -0.6788
 2356TIP3   OH2 7003   6.287   0.455   5.011  0.4262  0.0976 -0.1927
 2356TIP3    H1 7004   6.262   0.436   5.102  0.9920 -0.6901 -0.2078
 2356TIP3    H2 7005   6.346   0.384   4.986  1.2769  0.9957 -0.7633
 2357TIP3   OH2 7006   5.608   7.208   5.001  0.0315  0.2087 -0.4854
 2357TIP3    H1 7007   5.542   7.223   4.933  1.9795 -3.9875 -3.5672
 2357TIP3    H2 7008   5.559   7.171   5.074 -1.2725 -1.6047 -2.2133
 2358TIP3   OH2 7009   0.941   0.545   4.512 -0.1131  0.3922  0.2327
 2358TIP3    H1 7010   0.936   0.637   4.535  4.8514  1.0437 -0.6769
 2358TIP3    H2 7011   0.985   0.504   4.587  0.7005 -0.6134 -0.7746
 2359TIP3   OH2 7012   7.426   2.955   2.440  0.3021  0.8193  0.2372
 2359TIP3    H1 7013   7.438   3.007   2.361  0.4934 -1.4786 -1.2872
 2359TIP3    H2 7014   7.462   2.869   2.418  0.9193  0.3169  3.0305
 2360TIP3   OH2 7015   0.868   1.924   3.475  0.0370 -0.0160 -0.2511
 2360TIP3    H1 7016   0.780   1.891   3.457  0.2177  0.3150 -1.8879
 2360TIP3    H2 7017   0.926   1.851   3.454  0.1406 -0.3549  1.1876
 2361TIP3   OH2 7018   8.205   2.244   2.278  0.1587  0.3806  0.2071
 2361TIP3    H1 7019   8.135   2.184   2.252  0.7838  0.5587 -2.0034
 2361TIP3    H2 7020   8.286   2.200   2.250  1.0110 -0.0128  3.0779
 2362TIP3   OH2 7021   7.714   2.004   3.569 -0.3665  0.4338 -0.4309
 2362TIP3    H1 7022   7.631   2.005   3.521  0.6878 -0.9329 -2.4063
 2362TIP3    H2 7023   7.695   1.954   3.648 -0.8890 -1.9924 -2.0123
 2363TIP3   OH2 7024   2.700   3.090   3.090  0.1251  0.1165  0.4908
 2363TIP3    H1 7025   2.761   3.047   3.031  0.2273 -0.0526  0.7197
 2363TIP3    H2 7026   2.752   3.158   3.134 -0.0485  0.5186  0.0887
 2364TIP3   OH2 7027   1.513   3.461   4.645 -0.8517 -0.0270  0.4845
 2364TIP3    H1 7028   1.488   3.418   4.727 -0.1219  0.5158  0.9976
 2364TIP3    H2 7029   1.599   3.426   4.624 -1.3102 -0.6489 -0.4085
 2365TIP3   OH2 7030   7.659   0.775   5.932  0.0231 -0.3404 -0.3917
 2365TIP3    H1 7031   7.746   0.781   5.972  0.1255  1.2708 -0.8488
 2365TIP3    H2 7032   7.656   0.687   5.895  0.9640 -0.8744  0.7549
 2366TIP3   OH2 7033   2.382   2.990   1.745 -0.0218  0.5392 -0.1252
 2366TIP3    H1 7034   2.415   3.044   1.817 -0.2298  0.6195 -0.0896
 2366TIP3    H2 7035   2.450   2.997   1.677 -0.0845  0.9100 -0.1504
 2367TIP3   OH2 7036   6.085   2.206   5.160  0.8740 -0.2737  0.7746
 2367TIP3    H1 7037   6.019   2.140   5.142  0.8597 -0.6102  2.0633
 2367TIP3    H2 7038   6.143   2.203   5.083  1.7481 -2.8296  1.4990
 2368TIP3   OH2 7039   0.739   1.722   5.329  0.2596 -0.0356 -0.7757
 2368TIP3    H1 7040   0.702   1.793   5.382 -0.1876 -0.6897 -0.2041
 2368TIP3    H2 7041   0.832   1.745   5.319 -0.0184  0.9600 -1.1456
 2369TIP3   OH2 7042   2.322   1.538   3.251 -0.6566  0.3893  0.2520
 2369TIP3    H1 7043   2.383   1.481   3.203  0.2162  0.9408  0.6871
 2369TIP3    H2 7044   2.351   1.531   3.342 -1.8911 -0.1373  0.6112
 2370TIP3   OH2 7045   7.367   1.059   3.678  0.1438 -0.3450 -0.1271
 2370TIP3    H1 7046   7.440   1.009   3.643  0.7088  0.9813 -0.8709
 2370TIP3    H2 7047   7.305   0.993   3.709  0.8701 -1.4939 -1.0903
 2371TIP3   OH2 7048   7.148   3.536   0.602 -0.4137  0.4045  0.5684
 2371TIP3    H1 7049   7.064   3.491   0.612 -0.1368 -0.0434  0.9087
 2371TIP3    H2 7050   7.175   3.518   0.512 -0.5968  0.3912  0.5172
 2372TIP3   OH2 7051   7.722   4.331   3.438  0.4356  0.7883 -0.5451
 2372TIP3    H1 7052   7.660   4.364   3.504 -1.4513 -0.7021 -1.5271
 2372TIP3    H2 7053   7.767   4.409   3.407 -1.0173  1.9286  0.1321
 2373TIP3   OH2 7054   0.169   1.572   2.937 -0.1601  0.3777 -0.3291
 2373TIP3    H1 7055   0.196   1.485   2.966 -1.5935  0.6242  1.8871
 2373TIP3    H2 7056   0.245   1.627   2.951  0.1784 -0.1642 -0.0135
 2374TIP3   OH2 7057   8.069   4.068   3.637 -0.2710 -0.2449  0.2334
 2374TIP3    H1 7058   7.996   4.008   3.622 -0.3955 -0.0401  0.0043
 2374TIP3    H2 7059   8.030   4.144   3.679 -0.7802  1.2512 -2.7834
 2375TIP3   OH2 7060   6.038   0.373   2.166 -0.1111  0.0347  0.1532
 2375TIP3    H1 7061   5.965   0.379   2.229  0.1286 -0.2211  0.4584
 2375TIP3    H2 7062   6.096   0.307   2.203 -0.8656 -1.4390 -1.2671
 2376TIP3   OH2 7063   1.325   3.205   2.765 -0.0326  0.0576 -0.2092
 2376TIP3    H1 7064   1.406   3.196   2.715 -0.9339 -2.5896 -1.2434
 2376TIP3    H2 7065   1.335   3.144   2.838  0.1962  2.0405  1.4563
 2377TIP3   OH2 7066   0.942   5.181   2.355  0.3309  0.3885 -0.0377
 2377TIP3    H1 7067   0.978   5.270   2.356  1.6577 -0.1395 -0.0956
 2377TIP3    H2 7068   0.912   5.167   2.445  0.4349  0.7692  0.0576
 2378TIP3   OH2 7069   1.346   1.177   3.393 -0.2959 -0.3415 -0.0487
 2378TIP3    H1 7070   1.308   1.090   3.403 -1.0602 -0.1603 -1.2828
 2378TIP3    H2 7071   1.279   1.236   3.427 -0.8557 -0.0626 -1.6353
 2379TIP3   OH2 7072   1.222   2.138   4.148 -0.0200  0.3391  0.3105
 2379TIP3    H1 7073   1.185   2.148   4.237 -0.2521  1.2541  0.1206
 2379TIP3    H2 7074   1.168   2.070   4.108 -0.6577  0.7287  0.4892
 2380TIP3   OH2 7075   7.094   2.062   3.965 -0.2214 -0.6868  0.0844
 2380TIP3    H1 7076   7.112   2.148   3.927  0.8200 -0.6389  0.6692
 2380TIP3    H2 7077   7.113   2.072   4.058 -0.3763 -1.4710  0.2060
 2381TIP3   OH2 7078   0.879   3.347   1.744 -0.0902  0.1396  1.1972
 2381TIP3    H1 7079   0.849   3.305   1.663  2.4897 -0.4737  0.5205
 2381TIP3    H2 7080   0.940   3.415   1.715  0.8806 -0.1054  2.6126
 2382TIP3   OH2 7081   7.245   2.857   2.723 -0.5750  0.2871  0.1190
 2382TIP3    H1 7082   7.238   2.767   2.753 -0.3446  0.1210 -0.3311
 2382TIP3    H2 7083   7.334   2.865   2.690  0.2167  1.3644  2.4055
 2383TIP3   OH2 7084   0.466   3.021   3.116  0.1465 -0.3126  0.3764
 2383TIP3    H1 7085   0.547   3.057   3.153  0.6800  0.0085 -1.0955
 2383TIP3    H2 7086   0.396   3.074   3.155  0.5513 -1.3066  2.5188
 2384TIP3   OH2 7087   8.264   0.753   4.974 -0.2773 -0.2160 -0.4044
 2384TIP3    H1 7088   8.355   0.779   4.985 -0.2915  0.4260 -1.6606
 2384TIP3    H2 7089   8.265   0.692   4.900 -1.0434  0.9504 -1.4042
 2385TIP3   OH2 7090   1.052   2.382   2.988  0.0544 -0.2693 -0.1690
 2385TIP3    H1 7091   0.973   2.410   3.035  0.5843  1.3218 -0.1963
 2385TIP3    H2 7092   1.026   2.382   2.895  0.4347  1.5169 -0.2922
 2386TIP3   OH2 7093   8.308   2.017   3.174  0.6810  0.0199 -0.2235
 2386TIP3    H1 7094   8.309   2.038   3.267 -1.0219 -0.1758 -0.1338
 2386TIP3    H2 7095   8.391   2.051   3.140  1.0683  0.5720  1.2541
 2387TIP3   OH2 7096   8.019   0.383   6.560 -0.3071 -0.8385  0.1886
 2387TIP3    H1 7097   8.070   0.353   6.635 -0.9927 -0.2825  0.8834
 2387TIP3    H2 7098   7.944   0.323   6.556 -1.0892  0.0633  0.9002
 2388TIP3   OH2 7099   1.319   1.600   3.387 -0.4282  0.4723 -0.3334
 2388TIP3    H1 7100   1.347   1.592   3.296 -0.1812  0.9817 -0.3010
 2388TIP3    H2 7101   1.258   1.527   3.399 -1.1177  0.8968 -1.1565
 2389TIP3   OH2 7102   0.805   1.090   3.592 -0.5404  0.5386  0.0361
 2389TIP3    H1 7103   0.735   1.110   3.654 -1.4365 -1.4343 -0.3092
 2389TIP3    H2 7104   0.842   1.008   3.623  0.9898  1.0591 -0.3553
 2390TIP3   OH2 7105   0.057   3.565   5.510  0.0673  0.6659 -0.4541
 2390TIP3    H1 7106   0.046   3.639   5.450 -1.3354 -0.4863 -1.6560
 2390TIP3    H2 7107  -0.016   3.573   5.572 -0.5249 -0.1159 -1.0391
 2391TIP3   OH2 7108  -0.010   3.401   2.625 -0.1047 -0.1087 -0.0720
 2391TIP3    H1 7109   0.022   3.440   2.706  1.0584  0.1405 -0.6442
 2391TIP3    H2 7110   0.011   3.465   2.557 -0.2996 -0.6909 -0.6890
 2392TIP3   OH2 7111   0.549   2.702   3.080  0.1236 -0.1180  0.4900
 2392TIP3    H1 7112   0.493   2.777   3.059  2.3245  0.9596 -1.7289
 2392TIP3    H2 7113   0.489   2.628   3.082 -1.7987  1.3838  0.8074
 2393TIP3   OH2 7114   7.292   3.164   4.339 -0.0745  0.2669  0.8354
 2393TIP3    H1 7115   7.269   3.105   4.268  0.8140 -0.0409  0.7969
 2393TIP3    H2 7116   7.312   3.247   4.296  1.9433 -0.3287  0.5581
 2394TIP3   OH2 7117   2.308   1.822   1.330 -0.1806 -0.4129  0.2674
 2394TIP3    H1 7118   2.304   1.743   1.383  0.3179 -0.2390  0.5656
 2394TIP3    H2 7119   2.397   1.856   1.344 -0.7141  0.7437  0.9238
 2395TIP3   OH2 7120   0.762   2.050   4.347 -0.1767  0.0384  0.0733
 2395TIP3    H1 7121   0.748   1.955   4.351 -1.4847  0.2008 -0.2762
 2395TIP3    H2 7122   0.737   2.081   4.434  1.6580 -0.1011  0.6607
 2396TIP3   OH2 7123   8.470   2.434   4.558  0.1457  0.2734  0.2504
 2396TIP3    H1 7124   8.424   2.438   4.474  0.2352 -0.7579  0.1466
 2396TIP3    H2 7125   8.516   2.351   4.556  0.3993  0.3892  1.1992
 2397TIP3   OH2 7126   0.273   0.745   2.222  0.0456  0.0539  0.3872
 2397TIP3    H1 7127   0.331   0.771   2.151  0.7288 -2.7435 -0.1556
 2397TIP3    H2 7128   0.186   0.769   2.192  0.2768 -1.4408 -1.6259
 2398TIP3   OH2 7129   1.166   4.300   3.582 -0.0805 -0.6122 -0.0104
 2398TIP3    H1 7130   1.177   4.234   3.650  0.9779 -1.2035 -0.7382
 2398TIP3    H2 7131   1.168   4.251   3.500  2.4381  0.4814 -0.6564
 2399TIP3   OH2 7132   1.772   1.494   4.816  0.4443  0.1859  0.5042
 2399TIP3    H1 7133   1.787   1.406   4.780 -3.0371 -0.0885 -0.5354
 2399TIP3    H2 7134   1.839   1.548   4.775  1.1226 -1.5318 -0.7540
 2400TIP3   OH2 7135   1.534   0.492   5.231 -0.5278 -0.0487  0.4539
 2400TIP3    H1 7136   1.485   0.414   5.257 -0.6346  0.4241  1.6651
 2400TIP3    H2 7137   1.486   0.565   5.269  0.9424  0.4436  1.3889
 2401TIP3   OH2 7138   0.908   1.687   3.888 -0.2900 -0.0955 -0.1641
 2401TIP3    H1 7139   0.848   1.749   3.929 -0.4091  0.0413 -0.5455
 2401TIP3    H2 7140   0.857   1.646   3.818  0.0503 -0.0041 -0.4676
 2402TIP3   OH2 7141   6.691   4.350   3.320  0.5362  0.0207  0.1846
 2402TIP3    H1 7142   6.668   4.316   3.234  0.1519 -0.1226  0.3458
 2402TIP3    H2 7143   6.633   4.305   3.381  1.1896 -0.2880  0.5795
 2403TIP3   OH2 7144   3.457   0.549   2.293 -0.3322 -0.2829 -0.3916
 2403TIP3    H1 7145   3.515   0.474   2.301  0.8478  0.3471 -2.6171
 2403TIP3    H2 7146   3.383   0.517   2.241 -1.2126 -0.6372  1.0464
 2404TIP3   OH2 7147   0.213   1.460   2.649  0.3129 -0.4209 -0.0849
 2404TIP3    H1 7148   0.196   1.534   2.707 -1.3138 -0.4897 -0.4563
 2404TIP3    H2 7149   0.248   1.500   2.569 -0.7252 -0.0319 -0.3482
 2405TIP3   OH2 7150   0.001   1.996   4.953  0.3196  0.0927 -0.3620
 2405TIP3    H1 7151  -0.014   1.967   5.043  0.6678 -1.9413 -0.9476
 2405TIP3    H2 7152   0.096   2.004   4.945  0.3388 -0.5510 -0.7988
 2406TIP3   OH2 7153   0.005   1.133   1.658  0.1624  0.0811 -0.2363
 2406TIP3    H1 7154   0.089   1.103   1.624  0.1665  0.0850 -0.2298
 2406TIP3    H2 7155  -0.028   1.060   1.710 -0.2452 -0.2491 -0.9506
 2407TIP3   OH2 7156   0.347   1.309   2.260  0.5707  0.0197 -0.6891
 2407TIP3    H1 7157   0.420   1.334   2.317  2.2609 -2.2898 -1.7729
 2407TIP3    H2 7158   0.335   1.216   2.275 -0.4678 -0.1521 -2.4309
 2408TIP3   OH2 7159   1.231   0.769   5.634 -0.3457  0.0775  0.0556
 2408TIP3    H1 7160   1.186   0.841   5.676  0.0340  1.3688 -1.6844
 2408TIP3    H2 7161   1.276   0.723   5.705 -0.8323  1.3801  1.2093
 2409TIP3   OH2 7162   4.936   5.030   5.150 -0.0750 -0.2777 -0.4897
 2409TIP3    H1 7163   4.921   5.110   5.099 -1.5955 -0.7265 -0.7760
 2409TIP3    H2 7164   5.025   5.039   5.183  0.0968  1.1107 -1.2874
 2410TIP3   OH2 7165   2.860   1.070   0.437 -0.0030  0.2014 -0.1052
 2410TIP3    H1 7166   2.776   1.036   0.466  0.2931  1.6819  2.6740
 2410TIP3    H2 7167   2.853   1.165   0.451  2.2439  0.2918  0.5231
 2411TIP3   OH2 7168   0.215   3.933   2.364  0.0481  0.4713  0.0739
 2411TIP3    H1 7169   0.292   3.920   2.419 -0.1098 -1.3086 -0.1008
 2411TIP3    H2 7170   0.141   3.927   2.424 -0.1481 -1.9673 -0.3939
 2412TIP3   OH2 7171   1.210   3.016   2.480 -0.0914 -0.1648 -0.2945
 2412TIP3    H1 7172   1.294   2.970   2.490 -0.6167 -0.7259  1.7198
 2412TIP3    H2 7173   1.163   2.965   2.414  1.0152 -0.0354 -1.2046
 2413TIP3   OH2 7174   1.604   1.912   0.319  0.0616  0.2148  0.3097
 2413TIP3    H1 7175   1.648   1.845   0.266 -0.2064  0.1997  0.1056
 2413TIP3    H2 7176   1.675   1.967   0.352  0.3197 -0.3990  0.7937
 2414TIP3   OH2 7177   1.272   2.470   5.368 -0.5235 -0.0100  0.4871
 2414TIP3    H1 7178   1.343   2.444   5.427  0.4485 -0.3438 -0.8084
 2414TIP3    H2 7179   1.226   2.540   5.415  0.2635 -0.2307  1.6117
 2415TIP3   OH2 7180   2.586   2.848   0.602  0.6447  0.8163  0.3377
 2415TIP3    H1 7181   2.654   2.892   0.552  0.0097 -0.8431 -2.0531
 2415TIP3    H2 7182   2.511   2.908   0.599  0.9992  1.2637  0.3554
 2416TIP3   OH2 7183   0.680   2.881   0.366 -0.0237  0.1149  0.7511
 2416TIP3    H1 7184   0.761   2.887   0.316 -1.7965 -1.7261 -2.5166
 2416TIP3    H2 7185   0.698   2.815   0.434  1.0766 -0.6425 -0.2618
 2417TIP3   OH2 7186   8.179   3.254   2.918  0.2746 -0.5798 -0.3067
 2417TIP3    H1 7187   8.123   3.241   2.995 -0.1438  0.8386 -0.3631
 2417TIP3    H2 7188   8.236   3.177   2.917  0.2349 -0.6464  1.3832
 2418TIP3   OH2 7189   7.000   1.155   4.263 -0.0133  0.1189  0.1553
 2418TIP3    H1 7190   7.058   1.139   4.337 -0.4636  0.4268  0.5763
 2418TIP3    H2 7191   6.953   1.073   4.251  0.7108 -0.2276 -0.3720
 2419TIP3   OH2 7192   1.178   1.350   2.533 -0.1431 -0.1751  0.1069
 2419TIP3    H1 7193   1.161   1.301   2.613  1.8637 -1.9726 -0.5272
 2419TIP3    H2 7194   1.149   1.292   2.463  1.1571  0.0228 -0.6029
 2420TIP3   OH2 7195   6.298   7.594   2.878 -0.1387  0.8329  0.1874
 2420TIP3    H1 7196   6.312   7.506   2.911 -1.0997  0.5078 -0.2420
 2420TIP3    H2 7197   6.252   7.581   2.794 -1.3823  1.7662  0.7049
 2421TIP3   OH2 7198   1.117   3.942   4.563  0.3743 -0.2416 -0.1555
 2421TIP3    H1 7199   1.137   3.854   4.593  0.8991  0.0762  0.4515
 2421TIP3    H2 7200   1.073   3.983   4.638 -1.3711 -0.5056 -1.0065
 2422TIP3   OH2 7201   8.397   1.574   5.241  0.2386  0.1163  0.1606
 2422TIP3    H1 7202   8.362   1.662   5.249 -0.8402 -0.0403 -2.2841
 2422TIP3    H2 7203   8.321   1.519   5.221  0.7638 -1.5410  2.4447
 2423TIP3   OH2 7204   1.567   1.856   4.673  0.6519 -0.5145  0.1766
 2423TIP3    H1 7205   1.579   1.948   4.648 -0.7860 -0.3264  0.1423
 2423TIP3    H2 7206   1.566   1.809   4.590  0.0342 -0.3944  0.1144
 2424TIP3   OH2 7207   1.134   1.545   4.590 -0.3610 -0.2869 -0.2148
 2424TIP3    H1 7208   1.122   1.630   4.632 -0.8948 -1.0017  1.1204
 2424TIP3    H2 7209   1.130   1.482   4.663  1.0811 -1.3693 -1.0526
 2425TIP3   OH2 7210   0.004   7.790   3.890 -0.2947  0.1912  0.1344
 2425TIP3    H1 7211   0.014   7.766   3.797 -2.2343 -2.0736  0.4590
 2425TIP3    H2 7212   0.052   7.722   3.937 -2.2073 -0.6620  0.9035
 2426TIP3   OH2 7213   1.945   1.999   1.020  0.4295  0.1172 -0.1403
 2426TIP3    H1 7214   1.975   2.069   1.078  0.4197 -2.0083  2.4960
 2426TIP3    H2 7215   1.869   1.961   1.065 -1.1010 -0.0245 -2.7300
 2427TIP3   OH2 7216   1.281   2.074   3.849  0.0052 -0.1853 -0.2412
 2427TIP3    H1 7217   1.348   2.139   3.873  1.6158 -1.9216  0.0929
 2427TIP3    H2 7218   1.204   2.098   3.900  1.4357 -0.1321  1.9434
 2428TIP3   OH2 7219   1.216   2.247   2.661  0.6661  0.1449 -0.7633
 2428TIP3    H1 7220   1.289   2.294   2.702 -0.2916  0.7839  0.2424
 2428TIP3    H2 7221   1.207   2.286   2.574 -2.3400  4.3308  1.2638
 2429TIP3   OH2 7222   1.635   7.385   2.032  0.6259 -0.3749  0.4582
 2429TIP3    H1 7223   1.575   7.355   1.964  1.8189  0.4417 -0.9928
 2429TIP3    H2 7224   1.579   7.429   2.096 -0.4888 -0.9571 -0.1047
 2430TIP3   OH2 7225   1.059   3.186   3.390  0.0625  0.3447 -0.1035
 2430TIP3    H1 7226   1.122   3.250   3.358  0.6318  0.3595  1.0213
 2430TIP3    H2 7227   1.045   3.127   3.317  1.4013  0.3360 -0.3535
 2431TIP3   OH2 7228   0.187   3.372   1.403 -0.2586  0.5105  0.0522
 2431TIP3    H1 7229   0.170   3.287   1.443 -2.4770 -0.2795 -2.4088
 2431TIP3    H2 7230   0.282   3.376   1.396  0.0162 -0.6515  2.4501
 2432TIP3   OH2 7231   7.788   3.402   2.776 -0.7504 -0.0055  0.3036
 2432TIP3    H1 7232   7.766   3.478   2.831 -0.4496  1.4209 -1.4926
 2432TIP3    H2 7233   7.726   3.407   2.703 -1.0490 -1.7801  0.4285
 2433TIP3   OH2 7234   1.921   1.767   5.747 -0.4244 -0.5379  0.2838
 2433TIP3    H1 7235   1.974   1.777   5.826 -0.7556 -1.4758  0.6366
 2433TIP3    H2 7236   1.872   1.849   5.741  0.6521  0.1109  0.2563
 2434TIP3   OH2 7237   6.550   1.276   4.958 -0.0294  0.6641  0.5714
 2434TIP3    H1 7238   6.637   1.279   4.919 -0.6758 -0.5208 -0.9800
 2434TIP3    H2 7239   6.547   1.191   5.003  0.4412  1.6959  2.6251
 2435TIP3   OH2 7240   0.024   2.769   4.154 -0.2698 -0.2865 -0.4936
 2435TIP3    H1 7241  -0.048   2.717   4.119 -0.0700 -2.4195  2.0850
 2435TIP3    H2 7242   0.085   2.704   4.190  1.6217  1.6043 -0.1646
 2436TIP3   OH2 7243   0.547   5.206   5.025 -0.6372 -0.0116  0.2052
 2436TIP3    H1 7244   0.474   5.267   5.015 -0.0279  0.9602  1.5191
 2436TIP3    H2 7245   0.544   5.181   5.117  1.6196  1.2713  0.6592
 2437TIP3   OH2 7246   3.040   1.074   1.953 -0.0276 -0.4580  0.4598
 2437TIP3    H1 7247   2.995   0.992   1.972  2.2508 -1.7472  0.4532
 2437TIP3    H2 7248   3.090   1.093   2.032  0.1466  0.4722  0.1350
 2438TIP3   OH2 7249   1.631   4.780   3.038 -0.2649 -0.4517 -0.3365
 2438TIP3    H1 7250   1.597   4.846   3.099 -0.1008 -1.4633  0.8569
 2438TIP3    H2 7251   1.623   4.822   2.952 -0.3910  1.0320  0.3733
 2439TIP3   OH2 7252   5.160   3.347   5.190 -0.0540  0.2838  0.1676
 2439TIP3    H1 7253   5.093   3.403   5.229 -0.3940  0.1241 -0.1919
 2439TIP3    H2 7254   5.206   3.404   5.128 -2.4208 -0.6307 -2.5299
 2440TIP3   OH2 7255   8.172   2.768   1.193  0.0009  0.2406  0.5314
 2440TIP3    H1 7256   8.119   2.847   1.206 -0.6005  0.4078 -2.7050
 2440TIP3    H2 7257   8.240   2.794   1.131 -0.9667 -2.0777 -1.6025
 2441TIP3   OH2 7258   6.846   1.357   4.413 -0.1404 -0.3653 -0.4959
 2441TIP3    H1 7259   6.864   1.291   4.480  0.2659  0.4265  0.1908
 2441TIP3    H2 7260   6.841   1.308   4.331  0.5555 -1.1889 -0.0490
 2442TIP3   OH2 7261   2.578   0.230   4.282 -0.4122 -0.1015  0.2148
 2442TIP3    H1 7262   2.574   0.246   4.376  1.2517  1.4706  0.0442
 2442TIP3    H2 7263   2.654   0.279   4.252 -0.8786 -0.6270 -1.9511
 2443TIP3   OH2 7264   2.869   1.881   2.356 -0.0422 -0.8834 -0.7626
 2443TIP3    H1 7265   2.811   1.806   2.368 -0.8156 -0.0531  0.7693
 2443TIP3    H2 7266   2.810   1.955   2.344  0.7149 -0.2322 -0.4825
 2444TIP3   OH2 7267   2.008   3.180   2.505 -0.1512 -0.5718 -0.5314
 2444TIP3    H1 7268   2.090   3.210   2.466 -0.1453 -1.5813 -1.3096
 2444TIP3    H2 7269   1.942   3.242   2.473  0.3264  0.3666  0.2641
 2445TIP3   OH2 7270   6.528   7.953   3.545 -0.3940 -0.4497  0.0177
 2445TIP3    H1 7271   6.611   7.909   3.560  0.4469 -0.0353 -2.9942
 2445TIP3    H2 7272   6.548   8.046   3.555 -0.6327 -0.3901 -0.0628
 2446TIP3   OH2 7273   8.010   2.035   3.173 -0.0887  0.5341 -0.1724
 2446TIP3    H1 7274   8.099   2.034   3.138  0.4309  0.3101  1.1089
 2446TIP3    H2 7275   8.004   2.120   3.218  1.2186 -1.4162  3.9741
 2447TIP3   OH2 7276   0.381   2.495   3.116  0.8199  0.2619  0.1314
 2447TIP3    H1 7277   0.391   2.404   3.143  1.3528  0.0705 -0.6736
 2447TIP3    H2 7278   0.288   2.514   3.128  0.6230 -0.5278 -0.1059
 2448TIP3   OH2 7279   1.366   2.870   3.607  0.2510 -0.2153 -0.3675
 2448TIP3    H1 7280   1.316   2.796   3.642  1.3406 -0.2770  1.0991
 2448TIP3    H2 7281   1.426   2.831   3.544 -0.0634 -0.4082 -0.5495
 2449TIP3   OH2 7282   1.647   2.590   3.514  0.7000  0.3841 -0.1206
 2449TIP3    H1 7283   1.708   2.625   3.449  0.3993 -1.1599 -1.2868
 2449TIP3    H2 7284   1.560   2.609   3.477  0.5289 -0.4057 -0.1375
 2450TIP3   OH2 7285   2.677   1.889   1.989  0.1456  0.1920 -0.1370
 2450TIP3    H1 7286   2.758   1.928   2.023 -0.8614  0.3930  2.1386
 2450TIP3    H2 7287   2.690   1.795   2.000  0.5979  0.1495 -1.0158
 2451TIP3   OH2 7288   1.394   3.824   3.594  0.1751 -0.0613  0.6535
 2451TIP3    H1 7289   1.477   3.777   3.598 -1.9773 -4.2276 -1.0519
 2451TIP3    H2 7290   1.384   3.848   3.501 -0.7428  0.0530  0.7771
 2452TIP3   OH2 7291   3.107   4.448   1.582 -0.0401 -0.1598 -0.2573
 2452TIP3    H1 7292   3.109   4.368   1.529 -3.0225  1.3355 -2.7731
 2452TIP3    H2 7293   3.179   4.501   1.547 -0.2264 -0.3442 -0.9335
 2453TIP3   OH2 7294   1.516   4.819   4.281  0.6602 -0.6599 -0.3594
 2453TIP3    H1 7295   1.548   4.872   4.354  1.1934 -0.0686 -1.0177
 2453TIP3    H2 7296   1.467   4.748   4.322  0.8806 -0.2733  0.5689
 2454TIP3   OH2 7297   2.293   3.519   3.621  0.4645 -0.1636 -0.3067
 2454TIP3    H1 7298   2.273   3.438   3.575  0.2493 -0.3618  0.1256
 2454TIP3    H2 7299   2.387   3.532   3.610  0.3028  0.1402 -1.3522
 2455TIP3   OH2 7300   8.225   4.170   2.045 -0.2521  0.4467 -0.0452
 2455TIP3    H1 7301   8.291   4.216   1.992  1.3640 -1.6730  0.0710
 2455TIP3    H2 7302   8.159   4.143   1.982 -0.1060  1.0382 -0.4511
 2456TIP3   OH2 7303   2.076   2.917   3.141  0.4323  0.3545 -0.0085
 2456TIP3    H1 7304   2.158   2.928   3.093  1.3370  2.6699  1.9725
 2456TIP3    H2 7305   2.100   2.874   3.222 -0.7987 -1.6522 -0.6610
 2457TIP3   OH2 7306   8.298   7.965   3.493 -0.0006  0.0226  0.3546
 2457TIP3    H1 7307   8.257   7.880   3.510  1.6250 -1.0783 -1.0546
 2457TIP3    H2 7308   8.368   7.971   3.558 -0.1857  0.3402  0.5265
 2458TIP3   OH2 7309   2.648   1.375   5.955  0.0642 -0.0713  0.2637
 2458TIP3    H1 7310   2.569   1.387   5.903 -0.2816  0.0553  0.8178
 2458TIP3    H2 7311   2.620   1.323   6.031  0.8271 -1.3941 -0.3253
 2459TIP3   OH2 7312   2.692   2.090   2.318 -0.1343 -0.2811  0.3220
 2459TIP3    H1 7313   2.689   2.118   2.409  0.8978  1.9827 -0.3031
 2459TIP3    H2 7314   2.608   2.119   2.282  0.6509  1.5153 -0.1488
 2460TIP3   OH2 7315   1.555   0.794   2.133 -0.0675  0.4984  0.0597
 2460TIP3    H1 7316   1.494   0.728   2.166  2.1780 -2.1230 -0.8555
 2460TIP3    H2 7317   1.641   0.765   2.163  1.0067  2.9148 -0.5550
 2461TIP3   OH2 7318   3.622   2.328   4.172 -0.6985 -0.3115 -0.2848
 2461TIP3    H1 7319   3.705   2.281   4.167  0.3513  1.3672  0.9822
 2461TIP3    H2 7320   3.614   2.372   4.087  0.0252  0.0536 -0.1650
 2462TIP3   OH2 7321   7.524   7.290   3.392  0.5336  1.0275 -0.2619
 2462TIP3    H1 7322   7.565   7.205   3.375  0.4754  1.2499 -1.5795
 2462TIP3    H2 7323   7.531   7.336   3.309 -0.8356  1.7261  0.0025
 2463TIP3   OH2 7324   3.585   1.959   1.361 -0.9377  0.3394  0.1063
 2463TIP3    H1 7325   3.517   1.894   1.380 -0.4616 -0.0583  0.4697
 2463TIP3    H2 7326   3.540   2.025   1.308 -1.3936 -0.3659 -0.4119
 2464TIP3   OH2 7327   3.786   2.826   3.237  0.3262  0.4180 -0.0502
 2464TIP3    H1 7328   3.733   2.751   3.264  1.0232 -0.1753 -0.3331
 2464TIP3    H2 7329   3.724   2.899   3.237  0.0287  0.2047  1.9730
 2465TIP3   OH2 7330   3.671   0.987   1.626 -0.2175  0.0595  0.0989
 2465TIP3    H1 7331   3.581   0.954   1.625 -0.5047  0.8378 -2.4318
 2465TIP3    H2 7332   3.725   0.910   1.642 -1.2452 -0.6173  0.3598
 2466TIP3   OH2 7333   3.240   2.703   2.698 -0.4626  0.0884  0.0295
 2466TIP3    H1 7334   3.310   2.764   2.724  0.9189 -0.9928 -1.0385
 2466TIP3    H2 7335   3.277   2.656   2.623 -1.9803 -1.2036  0.0760
 2467TIP3   OH2 7336   0.021   2.889   3.423  0.3489 -0.4751  0.3389
 2467TIP3    H1 7337   0.101   2.897   3.371  1.0225 -0.0677  1.4198
 2467TIP3    H2 7338   0.015   2.971   3.471 -0.5905 -0.6033  0.4608
 2468TIP3   OH2 7339   1.515   0.798   3.427 -0.4442  0.1285 -1.0124
 2468TIP3    H1 7340   1.431   0.839   3.406 -0.9843  0.4639  1.6074
 2468TIP3    H2 7341   1.495   0.705   3.439 -0.4836  0.2528 -0.1241
 2469TIP3   OH2 7342   2.660   1.006   3.599  0.1939  0.0856  0.0425
 2469TIP3    H1 7343   2.654   1.074   3.666  2.0761  0.6029 -0.2738
 2469TIP3    H2 7344   2.675   0.925   3.649 -0.3723  0.1688  0.3423
 2470TIP3   OH2 7345   1.879   0.670   4.699  0.0088 -0.9088  0.5080
 2470TIP3    H1 7346   1.879   0.685   4.793  0.3430  1.4074  0.1765
 2470TIP3    H2 7347   1.826   0.741   4.663  0.4574 -1.3633 -1.1134
 2471TIP3   OH2 7348   1.671   2.102   3.204 -0.0536 -0.1967  0.1480
 2471TIP3    H1 7349   1.603   2.037   3.190  0.3269 -0.6712  0.4596
 2471TIP3    H2 7350   1.624   2.185   3.213 -0.6801 -0.6925  1.5825
 2472TIP3   OH2 7351   3.233   1.406   3.151  0.7167  0.0456  0.2423
 2472TIP3    H1 7352   3.211   1.359   3.231 -0.2553 -0.6685 -0.4408
 2472TIP3    H2 7353   3.228   1.499   3.175 -0.9658 -0.1520  0.6449
 2473TIP3   OH2 7354   0.942   7.712   2.545  0.5423  0.1884 -0.2143
 2473TIP3    H1 7355   1.011   7.709   2.480 -0.5023  1.7560 -1.4433
 2473TIP3    H2 7356   0.964   7.788   2.600  0.3642  0.0660  0.0279
 2474TIP3   OH2 7357   1.522   0.537   3.169  0.7041  0.2000  0.5522
 2474TIP3    H1 7358   1.559   0.453   3.196  2.4695  0.7315 -0.1455
 2474TIP3    H2 7359   1.483   0.573   3.249  0.2417 -1.1063  0.9335
 2475TIP3   OH2 7360   4.999   2.630   1.638  0.1595 -0.2345  0.1619
 2475TIP3    H1 7361   4.952   2.589   1.711 -0.0291 -2.5204 -1.1864
 2475TIP3    H2 7362   5.087   2.594   1.642 -0.0621 -0.9702 -1.1651
 2476TIP3   OH2 7363   5.279   3.429   3.534 -0.0026  0.1555  0.3544
 2476TIP3    H1 7364   5.195   3.397   3.501 -0.6191  1.2849  0.8317
 2476TIP3    H2 7365   5.341   3.358   3.513 -1.2173 -1.0444  0.7676
 2477TIP3   OH2 7366   2.813   2.198   4.425  0.2660  0.2342 -0.4290
 2477TIP3    H1 7367   2.900   2.164   4.402 -0.0136 -0.8104  0.0254
 2477TIP3    H2 7368   2.805   2.280   4.375  1.9224  0.8685  0.3180
 2478TIP3   OH2 7369   3.617   1.476   2.984  0.2167  0.0566 -0.7645
 2478TIP3    H1 7370   3.660   1.554   2.947  1.0306  0.7191  1.4783
 2478TIP3    H2 7371   3.545   1.511   3.035 -0.8206 -0.8437 -1.5791
 2479TIP3   OH2 7372   2.912   4.020   2.977  0.0630  0.2945 -0.1509
 2479TIP3    H1 7373   2.838   4.058   3.023  1.2409  2.2308  0.2003
 2479TIP3    H2 7374   2.969   3.985   3.047 -0.0000 -0.2204 -0.3548
 2480TIP3   OH2 7375   3.233   2.874   0.873 -0.2456 -0.1642  0.1773
 2480TIP3    H1 7376   3.150   2.833   0.898 -0.9195 -1.4731 -3.9060
 2480TIP3    H2 7377   3.207   2.952   0.824  0.9389 -0.1459 -0.4372
 2481TIP3   OH2 7378   3.375   4.003   3.044  0.1823 -0.2833  0.1649
 2481TIP3    H1 7379   3.344   4.019   2.955 -0.5576 -2.3035  0.0363
 2481TIP3    H2 7380   3.469   4.020   3.041 -0.0360  0.8294 -0.6939
 2482TIP3   OH2 7381   1.980   1.337   1.974  0.1986  0.2517 -0.7997
 2482TIP3    H1 7382   1.978   1.258   1.921  0.3588 -0.3524  0.0905
 2482TIP3    H2 7383   1.889   1.370   1.972 -0.1726 -0.7086 -0.0425
 2483TIP3   OH2 7384   7.459   7.973   1.080 -0.3410  0.2433  0.5120
 2483TIP3    H1 7385   7.491   8.012   1.161 -0.6867 -1.5859  1.5577
 2483TIP3    H2 7386   7.365   7.963   1.094 -0.2857 -0.7843  0.1910
 2484TIP3   OH2 7387   2.225   4.072   4.022  0.6189 -0.2073  0.1661
 2484TIP3    H1 7388   2.145   4.063   3.970  0.2631 -2.1073  1.0103
 2484TIP3    H2 7389   2.240   4.167   4.025 -1.0775  0.1220 -0.7791
 2485TIP3   OH2 7390   1.171   1.885   2.593  0.6779  0.6667 -0.1362
 2485TIP3    H1 7391   1.139   1.957   2.538 -0.0631 -0.3672 -1.0753
 2485TIP3    H2 7392   1.205   1.821   2.532 -0.4314 -0.6413  0.5720
 2486TIP3   OH2 7393   2.031   2.390   3.942 -0.3820 -0.7879 -0.0958
 2486TIP3    H1 7394   2.039   2.338   3.862 -0.3058  0.6653 -1.0656
 2486TIP3    H2 7395   1.937   2.386   3.964 -0.6459 -0.0642 -1.0540
 2487TIP3   OH2 7396   3.696   2.678   4.059  0.2863  0.6165  0.2909
 2487TIP3    H1 7397   3.693   2.738   4.133  2.3035  1.7956 -0.5399
 2487TIP3    H2 7398   3.721   2.733   3.984  0.4137 -0.9322 -0.8391
 2488TIP3   OH2 7399   2.625   0.157   2.990  0.0707 -0.1772  0.1602
 2488TIP3    H1 7400   2.544   0.125   2.951 -0.0089 -0.1127  0.2693
 2488TIP3    H2 7401   2.620   0.127   3.081  0.5016 -0.7873 -0.0135
 2489TIP3   OH2 7402   1.339   1.112   4.960  0.4240  0.5950 -0.2287
 2489TIP3    H1 7403   1.433   1.125   4.972  0.1668  0.7151  1.8199
 2489TIP3    H2 7404   1.299   1.188   5.001 -0.6085 -0.0026 -0.1163
 2490TIP3   OH2 7405   0.588   3.366   1.854 -0.3642  0.0536  0.1973
 2490TIP3    H1 7406   0.644   3.359   1.777 -1.8150  3.5258 -1.2799
 2490TIP3    H2 7407   0.507   3.320   1.829 -0.0468 -0.6774  0.4883
 2491TIP3   OH2 7408   3.699   5.479   2.956  0.7202 -0.6600  0.3878
 2491TIP3    H1 7409   3.607   5.485   2.982  0.3144 -1.6214 -0.7695
 2491TIP3    H2 7410   3.738   5.418   3.018  0.6459 -0.0222  1.0637
 2492TIP3   OH2 7411   5.123   1.475   2.826  0.0813  0.2990 -0.0361
 2492TIP3    H1 7412   5.166   1.449   2.745  1.8529  1.1688  0.6055
 2492TIP3    H2 7413   5.067   1.549   2.801 -2.1966 -1.7510 -1.1541
 2493TIP3   OH2 7414   7.003   2.110   2.732  0.8514  0.2428 -0.6206
 2493TIP3    H1 7415   6.965   2.062   2.806  1.2929  0.8353  0.0037
 2493TIP3    H2 7416   6.936   2.108   2.664 -0.3436  1.3426  0.4989
 2494TIP3   OH2 7417   2.423   0.645   4.435  0.0191  0.0811  0.9957
 2494TIP3    H1 7418   2.406   0.721   4.490 -0.1900  0.3747  0.5313
 2494TIP3    H2 7419   2.343   0.593   4.440  0.2113 -0.1772  1.4187
 2495TIP3   OH2 7420   1.857   2.201   4.165 -0.2396 -0.0255 -0.2253
 2495TIP3    H1 7421   1.949   2.178   4.163 -0.1385  0.4461 -1.1696
 2495TIP3    H2 7422   1.838   2.233   4.077 -0.6380  2.4190  0.7105
 2496TIP3   OH2 7423   4.624   1.679   1.635  0.4229 -0.0326  0.5529
 2496TIP3    H1 7424   4.659   1.665   1.547  1.5645  1.7176  0.7082
 2496TIP3    H2 7425   4.537   1.639   1.632  0.8258 -0.8604 -1.0621
 2497TIP3   OH2 7426   1.114   1.743   4.977  0.2848 -0.2681 -0.4429
 2497TIP3    H1 7427   1.186   1.697   4.933 -0.6807 -0.7998 -1.5206
 2497TIP3    H2 7428   1.127   1.835   4.954  1.7439 -0.0852  1.0208
 2498TIP3   OH2 7429   4.960   2.526   2.591  0.9330 -0.4844 -0.0123
 2498TIP3    H1 7430   4.945   2.556   2.501 -1.3510  0.7675  0.7432
 2498TIP3    H2 7431   4.872   2.516   2.627  1.7660 -3.0567  1.4298
 2499TIP3   OH2 7432   3.193   1.974   2.885 -0.6817  0.5307 -0.4079
 2499TIP3    H1 7433   3.131   2.041   2.914 -0.1002  1.0065 -0.2530
 2499TIP3    H2 7434   3.278   2.007   2.914 -0.0733  1.0629 -2.7052
 2500TIP3   OH2 7435   7.148   7.396   3.362 -0.0612 -0.1656  0.3501
 2500TIP3    H1 7436   7.210   7.375   3.432 -0.7131 -0.9255  0.7103
 2500TIP3    H2 7437   7.062   7.398   3.405 -0.6102 -1.7412 -0.6122
 2501TIP3   OH2 7438   2.980   2.757   2.715 -0.4624  0.2094  0.5025
 2501TIP3    H1 7439   2.961   2.772   2.623  0.0673  0.0819  0.3737
 2501TIP3    H2 7440   3.076   2.755   2.720 -0.5048 -1.1374  0.8383
 2502TIP3   OH2 7441   3.681   1.588   3.698  0.7803 -0.0486 -0.1474
 2502TIP3    H1 7442   3.675   1.681   3.716  0.4612 -0.1268  0.1591
 2502TIP3    H2 7443   3.642   1.546   3.775  0.4623 -0.4185 -0.5046
 2503TIP3   OH2 7444   1.788   0.625   2.162 -0.0160 -0.6450  0.2970
 2503TIP3    H1 7445   1.806   0.577   2.081 -1.9538 -0.1104 -0.4941
 2503TIP3    H2 7446   1.866   0.612   2.216  1.8076 -0.0840 -2.0947
 2504TIP3   OH2 7447   7.978   7.941   1.521 -0.4544  0.0025 -0.1074
 2504TIP3    H1 7448   8.065   7.979   1.529 -0.3657 -0.0641 -0.7163
 2504TIP3    H2 7449   7.974   7.910   1.431 -1.1829  0.1984 -0.1468
 2505TIP3   OH2 7450   1.954   1.108   2.400 -0.2758  0.4660 -0.1697
 2505TIP3    H1 7451   1.941   1.038   2.464 -0.9087  2.1428  1.5952
 2505TIP3    H2 7452   1.964   1.063   2.317 -0.2225 -1.7392  0.9937
 2506TIP3   OH2 7453   0.261   2.708   3.593 -0.5105 -0.2660  0.4765
 2506TIP3    H1 7454   0.281   2.795   3.560  0.6312 -0.1671  1.3852
 2506TIP3    H2 7455   0.177   2.717   3.638 -1.4107 -0.1084 -1.2078
 2507TIP3   OH2 7456   2.509   3.037   3.287  0.3276  0.1446 -0.1322
 2507TIP3    H1 7457   2.423   3.063   3.255  0.7221  1.3383 -0.2660
 2507TIP3    H2 7458   2.567   3.045   3.210  1.1737  2.5032  0.6921
 2508TIP3   OH2 7459   3.278   1.112   1.053 -0.3311  0.4843 -0.0077
 2508TIP3    H1 7460   3.305   1.064   1.132 -2.9227 -0.8831  0.0771
 2508TIP3    H2 7461   3.204   1.063   1.019 -0.3398  2.0624 -2.3446
 2509TIP3   OH2 7462   2.569   0.808   1.903  0.0632  0.1305  0.2276
 2509TIP3    H1 7463   2.507   0.880   1.887 -1.5277 -1.5759 -1.4536
 2509TIP3    H2 7464   2.518   0.743   1.952  0.8992 -0.7562 -0.0742
 2510TIP3   OH2 7465   7.835   0.830   3.606  0.3124  0.1938 -1.0342
 2510TIP3    H1 7466   7.858   0.919   3.631  1.0267  0.0464 -1.1671
 2510TIP3    H2 7467   7.886   0.774   3.664 -3.1771 -0.1598  1.8561
 2511TIP3   OH2 7468   7.946   7.958   4.095  0.1897  0.4607  0.5507
 2511TIP3    H1 7469   8.003   8.027   4.062  1.0750 -0.3436  0.3796
 2511TIP3    H2 7470   7.951   7.965   4.190  0.4360  0.5007  0.5337
 2512TIP3   OH2 7471   0.433   7.385   3.519  0.3432 -0.1155  0.2973
 2512TIP3    H1 7472   0.442   7.290   3.516  2.0644  0.0343  0.6359
 2512TIP3    H2 7473   0.338   7.399   3.524 -0.0490 -1.7215 -2.0379
 2513TIP3   OH2 7474   2.983   1.246   3.743 -0.4650 -0.0459 -0.2517
 2513TIP3    H1 7475   2.958   1.176   3.682 -0.3038  0.7773 -1.2843
 2513TIP3    H2 7476   3.049   1.206   3.799  2.4967  0.3567 -3.3101
 2514TIP3   OH2 7477   2.170   0.932   2.805 -0.2845 -0.1177  0.4237
 2514TIP3    H1 7478   2.117   0.916   2.727 -1.9932 -0.9493  1.7227
 2514TIP3    H2 7479   2.249   0.975   2.772 -0.6358 -1.1315 -1.8517
 2515TIP3   OH2 7480   1.013   1.826   4.625  0.6128 -0.0538 -0.2973
 2515TIP3    H1 7481   1.104   1.849   4.641  0.9474 -1.6034  0.1544
 2515TIP3    H2 7482   0.964   1.874   4.691  1.0545  1.1123 -0.8066
 2516TIP3   OH2 7483   2.856   1.840   3.395 -0.1569 -0.0737 -0.0588
 2516TIP3    H1 7484   2.912   1.858   3.471 -0.7794 -1.6592  0.7994
 2516TIP3    H2 7485   2.889   1.757   3.360  1.5284  1.6998 -2.8722
 2517TIP3   OH2 7486   3.150   1.121   2.187 -0.0542  0.2676 -0.5345
 2517TIP3    H1 7487   3.187   1.196   2.233  0.7933  1.0011 -2.3677
 2517TIP3    H2 7488   3.211   1.050   2.203  0.1156  0.4609 -0.3352
 2518TIP3   OH2 7489   0.114   2.408   1.163  0.3278 -0.2194 -0.4077
 2518TIP3    H1 7490   0.060   2.472   1.115  1.2001 -0.6910 -2.0650
 2518TIP3    H2 7491   0.190   2.395   1.107  1.5502 -0.5482  1.3033
 2519TIP3   OH2 7492   3.088   1.814   3.926 -0.1772 -0.1883  0.1340
 2519TIP3    H1 7493   3.019   1.776   3.980  2.2872 -1.0890  2.7814
 2519TIP3    H2 7494   3.106   1.899   3.967  1.5709 -0.7852  0.6566
 2520TIP3   OH2 7495   2.313   0.076   2.164  0.2288  0.0253 -0.5568
 2520TIP3    H1 7496   2.273  -0.008   2.188 -3.3282  1.3975 -1.4135
 2520TIP3    H2 7497   2.392   0.051   2.115  0.1196 -2.7822  0.5702
 2521TIP3   OH2 7498   3.710   1.933   3.123  0.3956 -0.0146 -0.0914
 2521TIP3    H1 7499   3.712   1.993   3.049  0.5682  2.5910  1.9780
 2521TIP3    H2 7500   3.760   1.976   3.192 -0.6761 -1.8719  1.9480
 2522TIP3   OH2 7501   1.554   1.023   2.412 -0.1890 -0.6549  0.1991
 2522TIP3    H1 7502   1.550   1.117   2.430 -1.0098 -0.7692  0.6276
 2522TIP3    H2 7503   1.615   1.016   2.338  0.8602  0.0908  0.9714
 2523TIP3   OH2 7504   2.642   1.654   3.122 -0.1619  0.2969  0.3219
 2523TIP3    H1 7505   2.587   1.731   3.142 -1.7559 -0.9294  0.7862
 2523TIP3    H2 7506   2.641   1.649   3.026 -1.2122  0.0471  0.3390
 2524TIP3   OH2 7507   7.935   1.500   2.863 -0.2076  0.3478  0.0778
 2524TIP3    H1 7508   7.920   1.410   2.834  2.6257  0.1935 -1.0546
 2524TIP3    H2 7509   8.010   1.529   2.812 -0.6866  3.1494  0.9128
 2525TIP3   OH2 7510   1.848   1.513   3.702 -0.3851 -0.3341  0.1324
 2525TIP3    H1 7511   1.820   1.554   3.784 -0.9882  1.2199 -0.8213
 2525TIP3    H2 7512   1.840   1.419   3.718  1.1167 -0.1058  2.4129
 2526TIP3   OH2 7513   1.983   0.340   3.096 -0.3448  0.1868  0.5046
 2526TIP3    H1 7514   2.048   0.360   3.163 -1.9428 -0.3066  2.2289
 2526TIP3    H2 7515   1.925   0.416   3.096  1.1554  1.4266 -2.2521
 2527TIP3   OH2 7516   7.426   5.145   6.750 -0.1078 -0.0897 -0.0235
 2527TIP3    H1 7517   7.499   5.201   6.776 -0.8072  1.1535 -0.6735
 2527TIP3    H2 7518   7.401   5.098   6.830  1.7943 -1.0053  0.0576
 2528TIP3   OH2 7519   1.482   1.583   2.703 -0.3249  0.6212  0.0774
 2528TIP3    H1 7520   1.508   1.605   2.613  1.3149  1.0934  0.6511
 2528TIP3    H2 7521   1.420   1.511   2.693  0.7732 -0.1549 -1.3803
 2529TIP3   OH2 7522   7.013   7.991   1.617 -0.0581 -0.2016  0.2373
 2529TIP3    H1 7523   7.048   8.078   1.598  0.5254 -0.4741  0.0556
 2529TIP3    H2 7524   6.973   7.962   1.535  0.2785 -0.3546  0.1279
 2530TIP3   OH2 7525   2.206   1.285   4.028 -0.1446 -0.4037 -0.4595
 2530TIP3    H1 7526   2.271   1.236   4.078 -1.0584  0.1295  1.3083
 2530TIP3    H2 7527   2.232   1.274   3.936  1.9058 -0.9199  0.1612
 2531TIP3   OH2 7528   1.924   2.460   1.787  0.4080 -0.1067 -0.1536
 2531TIP3    H1 7529   1.948   2.548   1.815 -2.1020 -0.2288  2.6814
 2531TIP3    H2 7530   1.992   2.404   1.825  0.6474  0.3689  0.1313
 2532TIP3   OH2 7531   0.102   0.306   0.951 -0.5731  0.9671 -0.0372
 2532TIP3    H1 7532   0.045   0.382   0.942 -0.9764  0.5110 -1.5326
 2532TIP3    H2 7533   0.184   0.341   0.985 -1.9347  1.5416  2.7444
 2533TIP3   OH2 7534   0.990   1.617   1.814 -0.8281 -0.4133  0.3127
 2533TIP3    H1 7535   1.062   1.645   1.757  2.0416 -1.5570  3.2028
 2533TIP3    H2 7536   0.939   1.557   1.759  1.2741 -0.7477 -1.3664
 2534TIP3   OH2 7537   2.256   3.286   3.495  0.0182  0.3288 -0.7522
 2534TIP3    H1 7538   2.312   3.323   3.427 -0.2741 -1.6061 -2.0927
 2534TIP3    H2 7539   2.192   3.234   3.447  0.2694 -1.7052  1.0322
 2535TIP3   OH2 7540   2.998   1.436   4.177  0.6110 -0.3819 -0.6877
 2535TIP3    H1 7541   3.044   1.424   4.261  1.7596 -0.2615 -1.2937
 2535TIP3    H2 7542   3.068   1.446   4.113 -0.2601 -1.0445 -1.7498
 2536TIP3   OH2 7543   3.581   1.995   3.985  0.5780 -0.4306  0.4419
 2536TIP3    H1 7544   3.660   2.028   4.029  0.6229 -0.4800  0.3977
 2536TIP3    H2 7545   3.554   2.068   3.929  0.8698 -0.5892  0.0902
 2537TIP3   OH2 7546   3.946   3.163   1.589 -0.0495 -0.0629  0.2703
 2537TIP3    H1 7547   3.989   3.089   1.546  1.7195  0.8808  0.3860
 2537TIP3    H2 7548   3.961   3.149   1.682  0.4047  0.5080  0.2850
 2538TIP3   OH2 7549   3.109   0.964   2.998 -0.2195  0.2424  0.2512
 2538TIP3    H1 7550   3.167   0.977   3.073 -2.1605  0.4575  1.7788
 2538TIP3    H2 7551   3.070   0.878   3.014  0.3082 -0.2715 -1.1967
 2539TIP3   OH2 7552   3.163   2.820   4.705  0.0361 -0.5505 -0.2342
 2539TIP3    H1 7553   3.130   2.801   4.793  2.4829 -1.6419  0.5073
 2539TIP3    H2 7554   3.184   2.914   4.708 -1.6208 -0.1700 -0.2642
 2540TIP3   OH2 7555   4.470   1.948   1.599 -0.3554 -0.4707 -0.0169
 2540TIP3    H1 7556   4.468   2.023   1.539  2.0982  0.4624  1.0456
 2540TIP3    H2 7557   4.541   1.893   1.565  0.3462 -0.4513  1.4129
 2541TIP3   OH2 7558   3.977   2.778   2.810 -0.0612 -0.3514 -0.0629
 2541TIP3    H1 7559   3.994   2.848   2.747 -0.4772 -1.8818 -1.9380
 2541TIP3    H2 7560   4.061   2.732   2.817 -0.1615 -0.5075  0.0937
 2542TIP3   OH2 7561   0.123   2.457   1.556 -0.6961  0.2616 -0.2994
 2542TIP3    H1 7562   0.063   2.496   1.493 -2.0117 -0.4794  0.4800
 2542TIP3    H2 7563   0.186   2.527   1.574 -1.5915  1.2116 -0.7628
 2543TIP3   OH2 7564   1.101   1.279   2.233 -0.1536 -0.3845 -0.5952
 2543TIP3    H1 7565   1.030   1.258   2.294  0.5328 -0.2009  0.2940
 2543TIP3    H2 7566   1.065   1.347   2.177 -0.1382  0.9409  0.9552
 2544TIP3   OH2 7567   1.718   2.399   1.622 -0.2747 -0.1017 -0.3396
 2544TIP3    H1 7568   1.652   2.458   1.661  0.9826  0.9789  0.2086
 2544TIP3    H2 7569   1.795   2.411   1.677  1.3899  1.0582 -2.8487
 2545TIP3   OH2 7570   1.893   2.159   1.995 -0.1842 -0.3406 -0.4279
 2545TIP3    H1 7571   1.935   2.224   1.938  0.5022 -0.3470  0.0721
 2545TIP3    H2 7572   1.801   2.185   1.995  0.4698  2.2263  1.8159
 2546TIP3   OH2 7573   2.782   2.559   2.772  0.2024 -0.0982 -0.0054
 2546TIP3    H1 7574   2.811   2.489   2.714  2.7407 -0.2889  1.4139
 2546TIP3    H2 7575   2.853   2.624   2.768  0.0932  0.2185  2.2769
 2547TIP3   OH2 7576   2.599   2.963   2.667  0.3091 -0.1486 -0.7970
 2547TIP3    H1 7577   2.681   3.010   2.685  0.1604 -0.3107  0.3871
 2547TIP3    H2 7578   2.567   3.001   2.585 -0.5883  2.9136  0.8741
 2548TIP3   OH2 7579   0.847   2.418   2.484 -0.5203  0.1198  0.0326
 2548TIP3    H1 7580   0.824   2.438   2.393 -0.3394  1.5639  0.3044
 2548TIP3    H2 7581   0.850   2.503   2.528 -1.0588 -0.5940  1.5012
 2549TIP3   OH2 7582   4.386   1.518   2.229 -0.1772 -0.0545  0.3635
 2549TIP3    H1 7583   4.314   1.544   2.287  1.1113  0.9183  1.5543
 2549TIP3    H2 7584   4.387   1.422   2.235 -0.7333 -0.0235  1.1179
 2550TIP3   OH2 7585   1.846   1.362   2.358 -0.0316 -0.0826 -0.3064
 2550TIP3    H1 7586   1.843   1.402   2.445  2.5798 -1.0611  0.2977
 2550TIP3    H2 7587   1.890   1.278   2.372  0.5590 -0.1866 -2.5885
 2551TIP3   OH2 7588   2.810   7.576   0.931  0.1433  0.3000  0.1828
 2551TIP3    H1 7589   2.761   7.496   0.949 -1.0819  0.9803 -0.0822
 2551TIP3    H2 7590   2.883   7.574   0.994  0.4046 -1.2412 -0.1379
 2552TIP3   OH2 7591   2.451   3.445   2.412  0.7603  0.1563  0.1930
 2552TIP3    H1 7592   2.392   3.512   2.444 -0.8322 -0.6644 -0.9696
 2552TIP3    H2 7593   2.435   3.442   2.317  0.6246 -2.0107  0.2560
 2553TIP3   OH2 7594   7.983   2.073   1.804 -0.0821  0.0192 -0.1041
 2553TIP3    H1 7595   7.974   2.149   1.860  0.8247  0.0222  0.0558
 2553TIP3    H2 7596   8.045   2.101   1.736 -0.8054 -0.1339 -0.8309
 2554TIP3   OH2 7597   2.599   1.112   2.213  0.2887  0.6526  0.8149
 2554TIP3    H1 7598   2.600   1.168   2.136  1.6313 -2.0978 -1.2156
 2554TIP3    H2 7599   2.689   1.114   2.246  0.6775 -1.3320 -0.0660
 2555TIP3   OH2 7600   2.095   3.563   2.055  0.1160 -0.1118 -0.3874
 2555TIP3    H1 7601   2.161   3.632   2.039  1.2171 -1.2945 -1.1041
 2555TIP3    H2 7602   2.073   3.532   1.967  0.6400 -1.5936 -0.0045
 2556TIP3   OH2 7603   2.557   2.472   4.370  0.0835 -0.2674 -0.1807
 2556TIP3    H1 7604   2.531   2.398   4.423 -1.1467 -0.0463 -0.4624
 2556TIP3    H2 7605   2.524   2.452   4.282 -1.3314  1.1542  0.0081
 2557TIP3   OH2 7606   3.334   0.989   1.263 -0.3963  0.1993 -0.1012
 2557TIP3    H1 7607   3.422   0.980   1.299  0.4041  1.4472 -1.6483
 2557TIP3    H2 7608   3.297   0.901   1.266  1.3531 -0.5669 -0.5101
 2558TIP3   OH2 7609   1.174   2.555   3.406 -0.1476  0.3363  0.6649
 2558TIP3    H1 7610   1.173   2.460   3.404  1.8231  0.3071  0.3770
 2558TIP3    H2 7611   1.089   2.581   3.371 -0.5163 -1.3022  0.3236
 2559TIP3   OH2 7612   2.417   1.649   3.871 -0.1796 -0.7938  0.8152
 2559TIP3    H1 7613   2.421   1.639   3.967 -0.2277 -1.5155  0.7447
 2559TIP3    H2 7614   2.338   1.600   3.846  0.2440 -1.2219  0.3216
 2560TIP3   OH2 7615   3.501   2.519   3.994  0.2842  0.4904 -0.1004
 2560TIP3    H1 7616   3.420   2.569   3.980  0.3369  0.4532 -0.5515
 2560TIP3    H2 7617   3.564   2.584   4.025 -0.5696  0.0805  2.5472
 2561TIP3   OH2 7618   0.406   2.372   3.463  0.2473  0.7887  0.2279
 2561TIP3    H1 7619   0.479   2.428   3.488  1.1219 -0.4448  0.4818
 2561TIP3    H2 7620   0.431   2.285   3.494  0.3885 -0.3690 -2.9701
 2562TIP3   OH2 7621   0.750   2.503   2.243  0.3697 -0.0203  0.3443
 2562TIP3    H1 7622   0.696   2.506   2.164  1.2279  0.5101 -0.2276
 2562TIP3    H2 7623   0.832   2.463   2.215  0.7833  0.4280  0.9052
 2563TIP3   OH2 7624   2.802   3.193   2.734  0.8742  0.2079 -0.1427
 2563TIP3    H1 7625   2.737   3.258   2.762 -0.3476 -1.3304  0.6228
 2563TIP3    H2 7626   2.886   3.232   2.760  0.0334  0.6140  2.1616
 2564TIP3   OH2 7627   2.460   2.458   1.272  0.3784  0.3088  0.5558
 2564TIP3    H1 7628   2.431   2.435   1.184  1.7190  0.4185  0.0806
 2564TIP3    H2 7629   2.388   2.511   1.307  0.0759  0.7219 -0.6688
 2565TIP3   OH2 7630   0.581   0.931   2.169  0.4412  0.1933  0.3527
 2565TIP3    H1 7631   0.601   0.949   2.077  0.5474  1.2768  0.5883
 2565TIP3    H2 7632   0.644   0.983   2.218  1.5297 -1.7004  1.0477
 2566TIP3   OH2 7633   1.048   3.253   3.957 -0.4369 -0.1865 -0.5978
 2566TIP3    H1 7634   1.051   3.260   4.052  2.0597 -2.1936 -0.4998
 2566TIP3    H2 7635   1.107   3.322   3.926 -1.1484  0.3812 -0.7126
 2567TIP3   OH2 7636   2.976   2.478   0.703 -0.4397 -0.7372  0.0350
 2567TIP3    H1 7637   2.951   2.567   0.679 -0.1662 -0.5604  0.3971
 2567TIP3    H2 7638   3.002   2.484   0.795 -0.1369 -1.1305 -0.0203
 2568TIP3   OH2 7639   1.597   1.969   1.813  0.5415 -0.4644  0.2145
 2568TIP3    H1 7640   1.619   2.032   1.882 -0.6306 -1.0986  1.1830
 2568TIP3    H2 7641   1.519   2.004   1.771 -0.3103 -1.4244  0.9752
 2569TIP3   OH2 7642   8.058   4.152   1.514 -0.4070  0.2161  0.0922
 2569TIP3    H1 7643   8.049   4.062   1.544  0.5597  0.4098  1.0163
 2569TIP3    H2 7644   8.107   4.195   1.584  0.8842  0.9673 -1.2494
 2570TIP3   OH2 7645   0.220   3.405   2.437 -0.3861  0.3019  0.2104
 2570TIP3    H1 7646   0.168   3.337   2.481 -0.5634  0.0520 -0.3910
 2570TIP3    H2 7647   0.311   3.382   2.458 -0.4408 -0.1698 -0.0605
 2571TIP3   OH2 7648   2.456   2.240   3.276  0.1337  0.2945  0.0828
 2571TIP3    H1 7649   2.506   2.216   3.198 -1.7222 -3.0480 -0.1491
 2571TIP3    H2 7650   2.516   2.224   3.349  0.7242  0.1394 -0.4376
 2572TIP3   OH2 7651   0.618   0.616   0.401  0.1752 -0.0449 -0.5278
 2572TIP3    H1 7652   0.628   0.567   0.319  0.0714 -0.5222 -0.2559
 2572TIP3    H2 7653   0.702   0.659   0.414 -0.1306  0.8441 -1.4103
 2573TIP3   OH2 7654   1.985   3.889   3.918 -0.0230 -0.1047 -0.5322
 2573TIP3    H1 7655   2.009   3.803   3.954 -0.2407  0.3528  0.7177
 2573TIP3    H2 7656   1.936   3.868   3.838 -1.3197 -1.2011  0.5059
 2574TIP3   OH2 7657   3.545   3.497   3.596 -0.5412 -0.2250 -0.1980
 2574TIP3    H1 7658   3.465   3.477   3.547  0.5261 -0.7069 -1.7821
 2574TIP3    H2 7659   3.575   3.580   3.561  0.2608 -0.5990 -0.4105
 2575TIP3   OH2 7660   3.257   2.638   2.431  0.6336 -0.1867 -0.0500
 2575TIP3    H1 7661   3.232   2.545   2.425 -0.1245  0.1491 -2.4637
 2575TIP3    H2 7662   3.352   2.638   2.419  0.7550 -0.7246  0.8609
 2576TIP3   OH2 7663   0.043   1.529   2.260 -0.0731 -0.1341  0.5194
 2576TIP3    H1 7664   0.114   1.522   2.197 -0.5954 -1.4139  0.0502
 2576TIP3    H2 7665  -0.035   1.544   2.206 -0.4148 -0.5314  0.8975
 2577TIP3   OH2 7666   3.093   3.491   5.687  0.5993  0.4435  0.2083
 2577TIP3    H1 7667   3.099   3.432   5.612  1.6906 -1.0417  1.4425
 2577TIP3    H2 7668   3.033   3.447   5.748  0.0329  1.4532  0.3976
 2578TIP3   OH2 7669   1.787   2.172   0.823 -0.1623 -0.1300  0.5406
 2578TIP3    H1 7670   1.855   2.115   0.859 -1.5602 -1.0647  1.7617
 2578TIP3    H2 7671   1.779   2.243   0.887  0.3322  0.4990 -0.0886
 2579TIP3   OH2 7672   3.663   0.716   2.458 -0.3838  0.3997  0.3490
 2579TIP3    H1 7673   3.615   0.744   2.380 -1.3458 -1.4611  0.2478
 2579TIP3    H2 7674   3.632   0.774   2.527 -1.9323 -0.0348  0.0331
 2580TIP3   OH2 7675   2.604   2.914   3.839 -0.3806 -0.2780  0.2271
 2580TIP3    H1 7676   2.521   2.912   3.791 -1.3691  1.2169  1.7891
 2580TIP3    H2 7677   2.583   2.961   3.920  1.7534 -0.8175  1.1219
 2581TIP3   OH2 7678   1.295   0.970   0.218 -0.1012 -0.0121 -0.9579
 2581TIP3    H1 7679   1.351   0.977   0.295 -1.6827 -1.3541  0.3592
 2581TIP3    H2 7680   1.353   0.938   0.149  1.4154  1.5897 -0.4298
 2582TIP3   OH2 7681   0.186   1.678   1.789 -0.1207  0.5157 -0.3205
 2582TIP3    H1 7682   0.245   1.683   1.864  1.9165 -0.7397 -1.7933
 2582TIP3    H2 7683   0.243   1.659   1.714 -2.2416  0.5300 -1.9997
 2583TIP3   OH2 7684   2.083   2.781   1.064 -0.1534  0.1594 -0.0462
 2583TIP3    H1 7685   2.079   2.693   1.028  0.9498 -0.9600  2.4807
 2583TIP3    H2 7686   2.174   2.808   1.049  0.4409 -0.4871  2.1949
 2584TIP3   OH2 7687   1.651   2.140   2.304  0.0664  0.3114  0.0027
 2584TIP3    H1 7688   1.591   2.107   2.371  0.8290 -0.1447  0.4725
 2584TIP3    H2 7689   1.612   2.222   2.275 -1.3997 -0.5802 -0.5599
 2585TIP3   OH2 7690   2.946   2.027   0.957 -0.0423  0.1082 -0.0653
 2585TIP3    H1 7691   2.888   2.097   0.924  1.1935  1.3760  0.4149
 2585TIP3    H2 7692   2.991   1.995   0.879 -0.2148  0.2042 -0.2062
 2586TIP3   OH2 7693   2.505   2.153   2.503  0.0766 -0.2451  0.6878
 2586TIP3    H1 7694   2.539   2.064   2.510  0.3123 -0.2894 -0.8255
 2586TIP3    H2 7695   2.418   2.142   2.466 -0.5617  0.0483  2.0901
 2587TIP3   OH2 7696   0.361   0.503   2.894 -0.1534  0.0193 -0.3907
 2587TIP3    H1 7697   0.438   0.453   2.921 -0.3664  0.7766  1.7144
 2587TIP3    H2 7698   0.390   0.553   2.817  1.6170  0.7071  0.7126
 2588TIP3   OH2 7699   1.611   1.840   2.590  0.2137  0.2936 -0.0754
 2588TIP3    H1 7700   1.554   1.889   2.531  0.5527  0.8746  0.0768
 2588TIP3    H2 7701   1.697   1.844   2.549  0.7954  2.0697  1.2341
 2589TIP3   OH2 7702   1.965   2.602   3.536 -0.0518  0.2346  0.0734
 2589TIP3    H1 7703   1.956   2.626   3.443 -0.7979  0.7937  0.2805
 2589TIP3    H2 7704   1.929   2.514   3.541 -1.0178  0.6130  0.0102
 2590TIP3   OH2 7705   1.054   1.142   3.462 -0.2825  0.2238 -0.2425
 2590TIP3    H1 7706   1.050   1.059   3.416  0.7716 -0.5126  0.9452
 2590TIP3    H2 7707   0.977   1.142   3.520 -0.7361  0.4533 -0.8389
 2591TIP3   OH2 7708   3.479   0.620   3.861 -0.0936 -0.3546  0.1251
 2591TIP3    H1 7709   3.500   0.553   3.927  0.1566 -1.2760 -0.8793
 2591TIP3    H2 7710   3.530   0.696   3.887 -0.0184 -0.7000  1.0180
 2592TIP3   OH2 7711   3.953   0.209   2.390 -0.6512  0.3546 -0.5101
 2592TIP3    H1 7712   4.037   0.218   2.435 -0.0783  0.6166 -1.6131
 2592TIP3    H2 7713   3.888   0.213   2.460  0.3069 -1.0950  0.4943
 2593TIP3   OH2 7714   4.495   1.324   3.916 -0.2984 -0.1573 -0.0249
 2593TIP3    H1 7715   4.476   1.273   3.837 -0.0556  0.5082 -0.5234
 2593TIP3    H2 7716   4.515   1.259   3.983 -0.4809 -0.7304 -0.5242
 2594TIP3   OH2 7717   2.819   2.586   4.342  0.0398  0.2686  0.2038
 2594TIP3    H1 7718   2.736   2.540   4.327  1.9321 -2.6798 -1.7936
 2594TIP3    H2 7719   2.837   2.630   4.259  1.7737 -1.3918 -0.3450
 2595TIP3   OH2 7720   1.261   7.805   4.732 -0.1076  0.0022  0.2553
 2595TIP3    H1 7721   1.210   7.814   4.651  0.5464  1.5673  0.0030
 2595TIP3    H2 7722   1.348   7.838   4.710  0.3673 -0.5131  1.3161
 2596TIP3   OH2 7723   2.586   1.134   5.636  0.1271 -0.1766 -0.4599
 2596TIP3    H1 7724   2.569   1.107   5.545  0.5527 -1.1655 -0.2521
 2596TIP3    H2 7725   2.574   1.054   5.687  0.9193  0.1379  0.2222
 2597TIP3   OH2 7726   3.019   1.476   1.288 -0.1670  0.0968  0.2362
 2597TIP3    H1 7727   3.094   1.444   1.237  1.8735  2.2896  1.7651
 2597TIP3    H2 7728   2.975   1.537   1.229  0.3112  0.1946 -0.0293
 2598TIP3   OH2 7729   1.749   1.939   1.257  0.5415 -0.0565  0.3999
 2598TIP3    H1 7730   1.685   1.934   1.328 -0.6127  2.2258 -0.4400
 2598TIP3    H2 7731   1.834   1.938   1.301 -0.0524 -2.3496  1.5700
 2599TIP3   OH2 7732   1.523   2.687   2.870  0.1968 -0.2727 -0.4429
 2599TIP3    H1 7733   1.502   2.771   2.911  0.0159 -1.0505  1.0908
 2599TIP3    H2 7734   1.508   2.702   2.777  3.0001  2.2623 -0.5729
 2600TIP3   OH2 7735   6.073   6.057   5.891 -0.1753  0.6234  0.3715
 2600TIP3    H1 7736   6.005   6.015   5.838 -0.6948  0.4041  1.2047
 2600TIP3    H2 7737   6.119   6.113   5.829 -1.2728  0.9743 -0.1523
 2601TIP3   OH2 7738   5.639   2.169   2.707 -0.5393 -0.0447  0.3866
 2601TIP3    H1 7739   5.676   2.081   2.708  1.0542  0.6005 -0.3774
 2601TIP3    H2 7740   5.558   2.162   2.758 -1.3616 -2.3416 -1.1904
 2602TIP3   OH2 7741   1.871   1.692   2.478  0.2500 -1.0163  0.0906
 2602TIP3    H1 7742   1.809   1.631   2.439 -0.2075  0.5552 -1.7187
 2602TIP3    H2 7743   1.859   1.773   2.429 -0.5231  1.1597  3.7203
 2603TIP3   OH2 7744   3.708   1.224   3.836  0.3014  0.3365  0.2169
 2603TIP3    H1 7745   3.704   1.312   3.874  2.4201  0.2032  0.8363
 2603TIP3    H2 7746   3.637   1.176   3.879  1.1434  0.8629  2.2860
 2604TIP3   OH2 7747   2.840   0.715   1.433  0.0521  0.0201 -0.0444
 2604TIP3    H1 7748   2.777   0.643   1.427 -1.1294  0.8908  1.6874
 2604TIP3    H2 7749   2.793   0.786   1.475  1.5020  1.5109 -0.8527
 2605TIP3   OH2 7750   2.712   0.909   1.598  0.0881 -0.3639  0.2741
 2605TIP3    H1 7751   2.698   1.003   1.610 -1.7016 -0.6441  0.5892
 2605TIP3    H2 7752   2.754   0.880   1.679 -0.0478  0.0416  0.4900
 2606TIP3   OH2 7753   3.066   3.293   3.928 -0.4244 -0.0960 -0.0201
 2606TIP3    H1 7754   3.145   3.245   3.906 -0.6395 -1.4238  1.9355
 2606TIP3    H2 7755   2.994   3.238   3.897 -0.6075  0.6878 -1.0068
 2607TIP3   OH2 7756   1.226   1.616   2.498 -0.7534 -0.4132  0.2836
 2607TIP3    H1 7757   1.201   1.529   2.528 -2.5167 -0.3304 -0.8788
 2607TIP3    H2 7758   1.284   1.600   2.424 -0.8202 -0.5944  0.2694
 2608TIP3   OH2 7759   3.236   1.367   2.304 -0.1139  0.1450 -0.1929
 2608TIP3    H1 7760   3.220   1.419   2.383 -1.4376  0.4070 -0.6171
 2608TIP3    H2 7761   3.300   1.418   2.255 -0.8100  0.9938 -0.2355
 2609TIP3   OH2 7762   1.831   1.940   2.341  0.0720 -0.3076 -0.0093
 2609TIP3    H1 7763   1.773   2.012   2.315 -0.8017 -1.2423 -0.7270
 2609TIP3    H2 7764   1.911   1.983   2.371  0.9100  0.8681 -3.6954
 2610TIP3   OH2 7765   1.617   2.189   2.005  0.3079 -0.2602  0.1115
 2610TIP3    H1 7766   1.621   2.272   2.053 -1.6470  0.8296 -1.5234
 2610TIP3    H2 7767   1.549   2.138   2.050  0.8187 -0.5960  0.5128
 2611TIP3   OH2 7768   2.810   2.309   2.656 -0.5784  0.0380 -0.2624
 2611TIP3    H1 7769   2.714   2.315   2.649 -0.8709 -0.8582  2.5603
 2611TIP3    H2 7770   2.826   2.231   2.709  1.7222  0.2914 -0.5292
 2612TIP3   OH2 7771   4.518   2.403   2.957 -0.3324 -0.0273  0.1825
 2612TIP3    H1 7772   4.578   2.331   2.936 -0.3115 -0.2854  1.1103
 2612TIP3    H2 7773   4.525   2.462   2.882  0.6847 -0.3153  0.0380
 2613TIP3   OH2 7774   7.733   7.826   2.519 -0.5198 -0.3847 -0.4568
 2613TIP3    H1 7775   7.767   7.862   2.437 -1.5073 -0.4733 -0.9137
 2613TIP3    H2 7776   7.640   7.849   2.519 -0.1182  1.4148  1.6352
 2614TIP3   OH2 7777   4.073   2.585   3.890 -0.6185 -0.0031  0.0624
 2614TIP3    H1 7778   4.140   2.653   3.904 -0.8632  0.0697  0.8604
 2614TIP3    H2 7779   4.047   2.597   3.799  0.0412  0.3470 -0.0878
 2615TIP3   OH2 7780   4.652   2.610   3.278  0.1101  0.1398 -0.1629
 2615TIP3    H1 7781   4.676   2.672   3.209 -1.9033  1.8826  0.6725
 2615TIP3    H2 7782   4.564   2.581   3.255  0.7019 -1.8186 -0.0835
 2616TIP3   OH2 7783   4.298   1.956   3.023  0.1231  0.6512 -0.2491
 2616TIP3    H1 7784   4.354   1.905   3.081  0.8776  0.8494 -0.8080
 2616TIP3    H2 7785   4.228   1.988   3.081  0.3735  0.1022  0.3673
 2617TIP3   OH2 7786   1.804   2.005   5.752 -0.7881  0.4749 -0.0557
 2617TIP3    H1 7787   1.750   1.984   5.676 -1.8017 -1.8459  1.2329
 2617TIP3    H2 7788   1.880   2.051   5.716 -1.7782  0.4025 -2.3296
 2618TIP3   OH2 7789   0.870   1.342   4.135 -0.0969  0.1138  0.0544
 2618TIP3    H1 7790   0.924   1.376   4.207  0.5450  0.5514 -0.6299
 2618TIP3    H2 7791   0.930   1.337   4.060 -0.2591 -2.1840  0.0337
 2619TIP3   OH2 7792   3.217   3.109   1.529 -0.1961 -0.0527  0.1857
 2619TIP3    H1 7793   3.267   3.104   1.610  1.6838  2.5744 -0.7061
 2619TIP3    H2 7794   3.250   3.036   1.476  0.8708  0.1030  0.6117
 2620TIP3   OH2 7795   1.493   0.518   3.443 -0.3167 -0.6215  0.4363
 2620TIP3    H1 7796   1.449   0.478   3.517  1.3420  0.5925  2.1108
 2620TIP3    H2 7797   1.558   0.454   3.415 -0.1929 -0.6187  0.7255
 2621TIP3   OH2 7798   1.735   2.366   1.327 -0.3379 -0.2385 -0.0027
 2621TIP3    H1 7799   1.828   2.343   1.332  0.4560  2.1667 -2.6166
 2621TIP3    H2 7800   1.716   2.402   1.414  1.6815  1.0000 -0.0271
 2622TIP3   OH2 7801   2.873   1.283   3.275 -0.1757  0.1432  0.1097
 2622TIP3    H1 7802   2.817   1.303   3.350 -1.5831 -0.1055 -0.8656
 2622TIP3    H2 7803   2.874   1.364   3.224 -0.7979 -0.3098 -0.6167
 2623TIP3   OH2 7804   2.978   2.443   3.409 -0.1627 -0.1222 -0.4122
 2623TIP3    H1 7805   3.026   2.486   3.338  1.6821 -1.9901 -0.3487
 2623TIP3    H2 7806   2.887   2.450   3.383  0.0298  3.8377 -0.3638
 2624TIP3   OH2 7807   1.785   0.725   4.187  0.1369 -0.0570 -0.1714
 2624TIP3    H1 7808   1.786   0.638   4.227 -0.0495  0.4980  1.0453
 2624TIP3    H2 7809   1.754   0.709   4.098 -2.9075 -0.8584  0.9592
 2625TIP3   OH2 7810   3.866   2.654   2.384  0.2388 -0.2508 -0.1024
 2625TIP3    H1 7811   3.949   2.618   2.352  0.1360 -1.2468  0.7184
 2625TIP3    H2 7812   3.857   2.738   2.340  0.9220 -0.8456 -1.4016
 2626TIP3   OH2 7813   0.379   2.601   3.921 -0.1150  0.0809 -0.3732
 2626TIP3    H1 7814   0.437   2.664   3.879  0.3967 -1.7917 -2.6218
 2626TIP3    H2 7815   0.318   2.575   3.852 -1.1362 -0.8931  0.8772
 2627TIP3   OH2 7816   2.318   1.868   3.737  0.1636  0.1460  0.6660
 2627TIP3    H1 7817   2.369   1.930   3.789 -0.8530 -0.7973  2.8334
 2627TIP3    H2 7818   2.351   1.782   3.763 -0.0552 -0.3278 -0.5879
 2628TIP3   OH2 7819   0.406   3.136   4.230 -0.6472  0.1792  0.2187
 2628TIP3    H1 7820   0.490   3.147   4.186 -1.0558 -0.6665 -0.7829
 2628TIP3    H2 7821   0.367   3.224   4.228 -0.4966  0.2328 -0.7778
 2629TIP3   OH2 7822   1.086   2.131   2.419  0.0881 -0.0957  0.3318
 2629TIP3    H1 7823   1.088   2.071   2.344 -1.1903 -2.8717  2.4294
 2629TIP3    H2 7824   1.145   2.202   2.394  0.0604 -1.1668 -3.1096
 2630TIP3   OH2 7825   1.350   2.607   3.961 -0.0483  0.3538  0.1937
 2630TIP3    H1 7826   1.282   2.663   3.924 -0.5300 -0.1677  0.2674
 2630TIP3    H2 7827   1.306   2.522   3.974 -0.3319  0.9174  3.3459
 2631TIP3   OH2 7828   2.743   1.077   1.856  0.4325 -0.6471 -0.0960
 2631TIP3    H1 7829   2.834   1.090   1.884  1.0108 -1.9205 -1.3403
 2631TIP3    H2 7830   2.709   1.011   1.916 -0.7001  2.1478  2.4483
 2632TIP3   OH2 7831   2.530   2.853   3.485  0.3833 -0.1155 -0.0943
 2632TIP3    H1 7832   2.513   2.913   3.412  2.7285  0.4538 -0.1908
 2632TIP3    H2 7833   2.522   2.766   3.446 -1.6630  0.1116 -0.2624
 2633TIP3   OH2 7834   2.170   4.688   3.070 -0.1315 -0.3703 -0.4888
 2633TIP3    H1 7835   2.091   4.676   3.018  0.3866 -0.0853 -1.3571
 2633TIP3    H2 7836   2.207   4.601   3.080 -1.3217 -0.6941  1.1475
 2634TIP3   OH2 7837   4.399   3.546   3.802 -0.6655  0.5490  0.0987
 2634TIP3    H1 7838   4.469   3.600   3.838  0.0578 -0.1838 -0.1883
 2634TIP3    H2 7839   4.413   3.548   3.707 -0.6371 -0.1397  0.0852
 2635TIP3   OH2 7840   3.650   2.174   4.517  0.4215  0.1406  0.3943
 2635TIP3    H1 7841   3.606   2.258   4.506 -2.6275 -0.7998  4.1737
 2635TIP3    H2 7842   3.725   2.193   4.574 -0.3925  0.3122  1.4284
 2636TIP3   OH2 7843   1.144   2.669   1.361  0.3029  0.5877 -0.0078
 2636TIP3    H1 7844   1.070   2.699   1.309 -1.1026  0.5411  1.9396
 2636TIP3    H2 7845   1.162   2.581   1.327 -0.1868  0.8089 -0.8509
 2637TIP3   OH2 7846   0.098   4.460   5.825 -0.5094  0.3154  0.5025
 2637TIP3    H1 7847   0.126   4.394   5.762 -0.4315  1.8159 -1.0523
 2637TIP3    H2 7848   0.179   4.486   5.871 -0.7111 -1.4531  1.9136
 2638TIP3   OH2 7849   1.707   1.722   1.824 -0.1614  0.4735 -0.1434
 2638TIP3    H1 7850   1.694   1.816   1.824  2.6680  0.9400 -1.6143
 2638TIP3    H2 7851   1.777   1.707   1.887 -1.1000 -0.7543  0.6427
 2639TIP3   OH2 7852   0.378   2.141   2.790  0.3138  0.4718 -0.6942
 2639TIP3    H1 7853   0.358   2.054   2.755 -1.5165  0.4014  0.4079
 2639TIP3    H2 7854   0.307   2.157   2.853  0.7346  2.6819 -0.7606
 2640TIP3   OH2 7855   2.404   1.334   2.556 -0.3419 -0.0008 -0.1261
 2640TIP3    H1 7856   2.403   1.376   2.642 -0.0785  0.0074 -0.1251
 2640TIP3    H2 7857   2.316   1.298   2.545 -0.5913  0.6019 -0.1490
 2641TIP3   OH2 7858   0.504   7.751   4.128 -0.3197  0.2947 -0.4674
 2641TIP3    H1 7859   0.587   7.770   4.085 -0.2382  2.1794  0.4615
 2641TIP3    H2 7860   0.498   7.816   4.198 -2.6444  0.2806 -0.6118
 2642TIP3   OH2 7861   2.548   2.770   2.070 -0.1570 -0.0552 -0.1713
 2642TIP3    H1 7862   2.584   2.856   2.052 -0.2875 -0.1861 -1.0960
 2642TIP3    H2 7863   2.613   2.709   2.035 -0.2455 -0.3262  0.1295
 2643TIP3   OH2 7864   2.431   0.165   4.050  0.0365 -0.1020 -0.1766
 2643TIP3    H1 7865   2.487   0.200   3.981  0.5310  0.1610  0.3491
 2643TIP3    H2 7866   2.472   0.196   4.131 -1.2639  0.6693  0.1887
 2644TIP3   OH2 7867   1.995   1.183   2.822 -0.1708  0.7687 -0.0323
 2644TIP3    H1 7868   1.963   1.220   2.904 -0.3051  0.2715  0.1429
 2644TIP3    H2 7869   2.038   1.102   2.848  0.9588  1.2695 -0.3022
 2645TIP3   OH2 7870   3.270   2.242   2.981 -0.3202 -0.3884  0.5748
 2645TIP3    H1 7871   3.185   2.206   3.005 -0.9023  0.8330  0.3610
 2645TIP3    H2 7872   3.273   2.327   3.024  0.5363 -0.1565  0.0618
 2646TIP3   OH2 7873   2.341   1.019   2.279  0.0184  0.2041  0.0708
 2646TIP3    H1 7874   2.433   1.035   2.255  0.1261  1.0095  0.9772
 2646TIP3    H2 7875   2.301   1.105   2.280 -0.7579 -0.1505 -0.3347
 2647TIP3   OH2 7876   1.275   1.745   2.811 -0.1997 -0.0245  0.1912
 2647TIP3    H1 7877   1.341   1.705   2.755 -0.6107 -1.5591  0.7733
 2647TIP3    H2 7878   1.226   1.803   2.753 -0.4705 -1.4184 -0.9957
 2648TIP3   OH2 7879   0.099   1.996   3.152  0.8783 -0.6020  0.2938
 2648TIP3    H1 7880   0.121   2.006   3.244 -0.8815  1.6281  0.5280
 2648TIP3    H2 7881   0.063   1.908   3.145  1.6789 -1.0396  1.5942
 2649TIP3   OH2 7882   0.631   1.219   3.741 -0.1386 -0.6843  0.3359
 2649TIP3    H1 7883   0.557   1.279   3.735  0.4662  0.0029 -0.5907
 2649TIP3    H2 7884   0.625   1.181   3.829 -1.6318 -0.7231  0.2298
 2650TIP3   OH2 7885   3.656   1.607   1.112  0.6191 -0.3563 -0.3088
 2650TIP3    H1 7886   3.564   1.582   1.123  0.0133  0.9797 -2.2124
 2650TIP3    H2 7887   3.705   1.532   1.146 -1.1685 -1.1176  0.6355
 2651TIP3   OH2 7888   4.031   4.495   3.401  0.1578  0.2521  0.6748
 2651TIP3    H1 7889   3.983   4.442   3.338  0.3633  1.3148 -0.3896
 2651TIP3    H2 7890   3.964   4.530   3.460 -0.2235  0.6876 -0.0222
 2652TIP3   OH2 7891   0.468   1.946   4.394  0.0547 -0.1835  0.0879
 2652TIP3    H1 7892   0.485   2.036   4.367  0.1035 -0.4559 -0.8002
 2652TIP3    H2 7893   0.392   1.952   4.451  0.5108  0.5123  0.6317
 2653TIP3   OH2 7894   2.638   3.301   3.966  0.3168 -0.1848 -0.0514
 2653TIP3    H1 7895   2.574   3.281   3.898 -0.3700 -0.6603  0.7119
 2653TIP3    H2 7896   2.620   3.392   3.990  0.9083  0.1448 -0.8753
 2654TIP3   OH2 7897   1.093   2.904   3.512 -0.4473  0.5231 -0.0675
 2654TIP3    H1 7898   1.107   2.842   3.440 -1.9704 -0.4410  0.4375
 2654TIP3    H2 7899   1.180   2.938   3.532  0.3137 -0.9566 -0.7994
 2655TIP3   OH2 7900   0.636   7.443   2.932  0.3119 -0.0905 -0.0231
 2655TIP3    H1 7901   0.645   7.511   2.999 -0.2267  0.5243 -0.5655
 2655TIP3    H2 7902   0.561   7.471   2.879  2.2067  0.7238 -2.3908
 2656TIP3   OH2 7903   1.744   2.356   3.648 -0.1172 -0.2190 -0.2633
 2656TIP3    H1 7904   1.749   2.269   3.609  0.3140  0.3113 -1.4081
 2656TIP3    H2 7905   1.703   2.410   3.580 -1.5044  0.2180  0.8936
 2657TIP3   OH2 7906   5.687   1.798   3.324 -0.4408 -0.3172  0.3966
 2657TIP3    H1 7907   5.652   1.857   3.391 -0.4240 -1.8893  1.8204
 2657TIP3    H2 7908   5.769   1.765   3.361  0.1652 -0.3085 -0.9074
 2658TIP3   OH2 7909   6.319   1.951   2.149  1.1214 -0.4143  0.5027
 2658TIP3    H1 7910   6.252   1.927   2.085  0.8825  1.9586 -0.1647
 2658TIP3    H2 7911   6.291   1.909   2.230  0.1474 -1.4574 -0.3605
 2659TIP3   OH2 7912   4.174   0.984   6.020 -0.6747 -0.7441 -0.1573
 2659TIP3    H1 7913   4.225   0.903   6.019 -0.9365 -0.9185  0.4595
 2659TIP3    H2 7914   4.211   1.036   5.949  0.2405 -0.9370  0.1727
 2660TIP3   OH2 7915   6.019   0.496   4.047  0.4572  0.2953 -0.3519
 2660TIP3    H1 7916   5.951   0.429   4.038 -1.9420  2.6349 -0.4014
 2660TIP3    H2 7917   6.000   0.559   3.977  3.4723  0.4191 -1.1575
 2661TIP3   OH2 7918   5.001   3.115   2.447 -0.3527 -0.4000 -0.0929
 2661TIP3    H1 7919   4.925   3.154   2.492  0.1658 -1.2230  1.5270
 2661TIP3    H2 7920   5.077   3.152   2.492  0.1921 -0.5384 -0.8980
 2662TIP3   OH2 7921   2.722   2.777   1.614 -0.6211 -0.3498  0.0825
 2662TIP3    H1 7922   2.809   2.796   1.648  0.4221 -0.7487 -2.2665
 2662TIP3    H2 7923   2.694   2.858   1.571 -1.3290 -0.2919  0.6316
 2663TIP3   OH2 7924   3.876   1.983   2.483  0.5252  0.6421  0.1967
 2663TIP3    H1 7925   3.964   2.021   2.483 -0.2575  2.5457 -1.2011
 2663TIP3    H2 7926   3.820   2.052   2.446 -1.2958 -1.1279 -0.4481
 2664TIP3   OH2 7927   6.304   3.203   2.637 -0.5879  0.3279 -0.2346
 2664TIP3    H1 7928   6.215   3.193   2.671 -0.5229  0.1836 -0.1057
 2664TIP3    H2 7929   6.360   3.205   2.715 -0.5746  1.4642 -0.2651
 2665TIP3   OH2 7930   4.961   1.135   4.571  0.5470 -0.8472  0.2832
 2665TIP3    H1 7931   4.984   1.053   4.614 -0.1696 -0.4854  1.3702
 2665TIP3    H2 7932   5.036   1.155   4.516  0.8234 -2.1112  0.1974
 2666TIP3   OH2 7933   5.428   0.140   2.378  0.4310  0.1697 -0.0033
 2666TIP3    H1 7934   5.492   0.094   2.432 -1.2675 -1.3912  0.7353
 2666TIP3    H2 7935   5.469   0.147   2.292  1.6264 -0.7396  0.4872
 2667TIP3   OH2 7936   4.726   1.118   2.462  0.0378 -0.0457 -0.0628
 2667TIP3    H1 7937   4.707   1.032   2.423 -0.2345 -0.3188  0.6585
 2667TIP3    H2 7938   4.794   1.156   2.406  0.6109 -0.9993 -0.0234
 2668TIP3   OH2 7939   4.449   2.200   3.355  0.2006 -0.5997 -0.4251
 2668TIP3    H1 7940   4.531   2.158   3.379  0.3463  0.0686  0.2591
 2668TIP3    H2 7941   4.454   2.211   3.260  0.3314 -1.7513 -0.5611
 2669TIP3   OH2 7942   5.162   1.481   0.895 -0.2847 -0.3433 -0.8503
 2669TIP3    H1 7943   5.199   1.541   0.830  1.3107  0.4179  0.7401
 2669TIP3    H2 7944   5.142   1.402   0.845 -0.0829  0.6080 -2.4854
 2670TIP3   OH2 7945   5.603   1.861   2.112 -0.5027  0.1415  0.7686
 2670TIP3    H1 7946   5.528   1.853   2.053 -0.7960  0.3650  1.1055
 2670TIP3    H2 7947   5.668   1.910   2.062 -1.3774  1.7910  1.2136
 2671TIP3   OH2 7948   7.218   1.226   3.986 -0.0600  0.0053  0.5000
 2671TIP3    H1 7949   7.155   1.156   3.969  0.4541 -0.3047 -0.1457
 2671TIP3    H2 7950   7.299   1.180   4.009 -0.3084  0.4011  2.2712
 2672TIP3   OH2 7951   3.742   0.449   1.573  0.2717 -0.6125  0.1829
 2672TIP3    H1 7952   3.772   0.368   1.533  0.9035 -0.8640  1.1559
 2672TIP3    H2 7953   3.684   0.488   1.508  1.7385 -0.7243 -1.2073
 2673TIP3   OH2 7954   4.582   0.837   1.420 -0.0636  0.0992  0.3094
 2673TIP3    H1 7955   4.513   0.896   1.450  0.0938  1.0629 -1.1627
 2673TIP3    H2 7956   4.605   0.785   1.497 -2.2310 -0.0428  0.8870
 2674TIP3   OH2 7957   4.644   3.315   3.748  0.1495  0.3462 -0.8419
 2674TIP3    H1 7958   4.605   3.236   3.785 -0.4573  0.8035 -0.4937
 2674TIP3    H2 7959   4.606   3.387   3.799  0.6025  0.8717 -1.2349
 2675TIP3   OH2 7960   7.276   0.552   5.189 -0.5471  0.1389  0.3484
 2675TIP3    H1 7961   7.288   0.458   5.177  0.2039  0.2977 -0.1375
 2675TIP3    H2 7962   7.201   0.573   5.133 -1.3470 -0.3442  1.2257
 2676TIP3   OH2 7963   5.577   2.422   2.792  0.6698 -0.0706  0.2589
 2676TIP3    H1 7964   5.594   2.509   2.830 -1.1174 -0.8389  2.9567
 2676TIP3    H2 7965   5.482   2.414   2.793  0.6758 -0.9530 -2.6614
 2677TIP3   OH2 7966   3.331   3.467   4.537 -0.0882 -0.0451  0.3701
 2677TIP3    H1 7967   3.290   3.381   4.549  2.1715 -1.4701 -1.7168
 2677TIP3    H2 7968   3.306   3.493   4.448  0.1360  0.9739  0.6048
 2678TIP3   OH2 7969   6.884   3.799   0.870  0.0339 -0.1608  0.3295
 2678TIP3    H1 7970   6.837   3.783   0.952  1.3910  0.6065  1.2652
 2678TIP3    H2 7971   6.815   3.821   0.807 -0.9322  0.2422  1.5048
 2679TIP3   OH2 7972   5.911   2.258   3.442  0.4506  0.3748 -0.1317
 2679TIP3    H1 7973   5.960   2.228   3.518  0.0883  0.9144  0.3156
 2679TIP3    H2 7974   5.977   2.269   3.374  1.1349  2.2939  0.8183
 2680TIP3   OH2 7975   6.351   2.213   4.049 -0.2164  0.0345 -0.0922
 2680TIP3    H1 7976   6.316   2.136   4.004  1.0306 -0.9786  0.6381
 2680TIP3    H2 7977   6.273   2.259   4.082 -1.0370 -0.2172 -1.6120
 2681TIP3   OH2 7978   4.356   1.123   2.773  0.1699  0.4221 -0.3071
 2681TIP3    H1 7979   4.414   1.047   2.777 -0.3278  0.0865  0.7919
 2681TIP3    H2 7980   4.270   1.087   2.751  0.6258  1.0682 -3.2704
 2682TIP3   OH2 7981   4.748   1.986   3.856 -0.4369  0.0539 -0.1628
 2682TIP3    H1 7982   4.687   1.973   3.784  0.7220 -2.4259 -0.7470
 2682TIP3    H2 7983   4.764   1.898   3.891  0.0863  1.0521  2.2562
 2683TIP3   OH2 7984   4.724   1.200   4.407 -0.0533 -0.3131  0.5243
 2683TIP3    H1 7985   4.802   1.173   4.455  0.0602 -1.3580 -0.2281
 2683TIP3    H2 7986   4.758   1.247   4.331 -0.1356 -0.9477  0.0870
 2684TIP3   OH2 7987   6.071   6.058   4.847 -0.0144 -0.2008 -0.1997
 2684TIP3    H1 7988   5.989   6.107   4.845  1.0786  1.6228 -0.9797
 2684TIP3    H2 7989   6.058   5.994   4.918 -2.0237  0.1805 -0.1899
 2685TIP3   OH2 7990   1.366   6.934   2.766 -0.6805  0.2584 -0.2193
 2685TIP3    H1 7991   1.371   6.843   2.737 -0.4361  0.5302 -1.0431
 2685TIP3    H2 7992   1.289   6.936   2.823 -0.0968 -0.6766  0.6261
 2686TIP3   OH2 7993   5.079   1.520   1.452  0.2197  1.0039 -0.1860
 2686TIP3    H1 7994   5.013   1.487   1.391  1.5751 -1.4217 -0.3847
 2686TIP3    H2 7995   5.041   1.602   1.485 -2.4705  0.1375 -0.9705
 2687TIP3   OH2 7996   5.753   1.482   4.159 -0.0465 -0.7507  0.0296
 2687TIP3    H1 7997   5.792   1.551   4.107  1.2101 -1.8980 -0.5866
 2687TIP3    H2 7998   5.682   1.448   4.104 -1.0871  0.4547  0.6012
 2688TIP3   OH2 7999   5.938   0.976   1.836  0.1880 -0.3943 -0.5917
 2688TIP3    H1 8000   6.002   0.982   1.764 -1.7280 -1.3522 -2.4270
 2688TIP3    H2 8001   5.965   0.898   1.884  1.6900  0.4366 -0.0395
 2689TIP3   OH2 8002   5.774   2.361   4.051 -0.2419  0.6443  0.1498
 2689TIP3    H1 8003   5.751   2.417   3.978  2.5584  1.6074 -0.0596
 2689TIP3    H2 8004   5.762   2.416   4.129  0.7184  0.9712  0.0792
 2690TIP3   OH2 8005   6.276   3.817   2.543  0.6220 -0.1902 -0.2981
 2690TIP3    H1 8006   6.216   3.892   2.545  1.2227  0.2711  2.8880
 2690TIP3    H2 8007   6.362   3.856   2.529  0.7897 -0.3947  0.1621
 2691TIP3   OH2 8008   6.228   1.100   3.020 -0.0796  0.2555  0.4578
 2691TIP3    H1 8009   6.209   1.191   2.994  0.7995  0.6929  1.3413
 2691TIP3    H2 8010   6.323   1.091   3.010 -0.2461 -0.7861 -0.2910
 2692TIP3   OH2 8011   1.641   3.656   3.559 -0.0119  0.5486  0.0030
 2692TIP3    H1 8012   1.619   3.573   3.517  1.2890  0.8260 -1.2734
 2692TIP3    H2 8013   1.717   3.636   3.615 -0.0787  0.7434  0.1649
 2693TIP3   OH2 8014   5.425   2.937   4.005  0.2048  0.0931 -0.3904
 2693TIP3    H1 8015   5.484   2.870   4.041  1.7015  1.1317 -0.8502
 2693TIP3    H2 8016   5.465   2.963   3.922 -1.0529  0.6350 -0.8448
 2694TIP3   OH2 8017   5.627   1.379   2.389  0.3184  0.0832 -0.2772
 2694TIP3    H1 8018   5.589   1.351   2.472 -0.3324  0.7462 -0.3452
 2694TIP3    H2 8019   5.653   1.298   2.345 -0.9990 -0.3801 -0.2147
 2695TIP3   OH2 8020   7.138   2.220   3.219  0.5954  0.1558 -0.4469
 2695TIP3    H1 8021   7.229   2.194   3.206  1.7456  2.9378  1.5311
 2695TIP3    H2 8022   7.116   2.268   3.139  1.8287  1.9492  0.2616
 2696TIP3   OH2 8023   5.701   2.911   3.486  0.2123 -0.2131 -0.7410
 2696TIP3    H1 8024   5.632   2.880   3.545  1.4277  0.0001  0.8341
 2696TIP3    H2 8025   5.754   2.833   3.470 -0.7198 -0.5167 -2.4433
 2697TIP3   OH2 8026   2.475   1.572   2.129  0.2564 -0.0770  0.1584
 2697TIP3    H1 8027   2.514   1.656   2.153 -1.3369  0.6541  0.2200
 2697TIP3    H2 8028   2.492   1.516   2.205  2.8721 -0.3634 -0.5930
 2698TIP3   OH2 8029   1.176   7.097   5.399 -0.1096  0.3122 -0.2323
 2698TIP3    H1 8030   1.152   7.084   5.490  0.3750 -0.3667 -0.2014
 2698TIP3    H2 8031   1.147   7.186   5.379 -1.4805 -0.0341  0.1765
 2699TIP3   OH2 8032   2.757   0.169   2.313 -0.2607 -0.1379 -0.7224
 2699TIP3    H1 8033   2.715   0.204   2.235 -1.4319 -0.5355 -0.2951
 2699TIP3    H2 8034   2.691   0.180   2.382  0.8409  0.4217  0.2571
 2700TIP3   OH2 8035   5.954   2.112   0.604 -0.6111  0.4842 -0.1214
 2700TIP3    H1 8036   5.991   2.106   0.516 -1.9147 -0.7531 -0.6089
 2700TIP3    H2 8037   5.992   2.038   0.651 -1.3126  0.0805 -0.1860
 2701TIP3   OH2 8038   3.993   2.292   2.097  0.5973  0.7215 -0.2249
 2701TIP3    H1 8039   3.909   2.339   2.101  0.1260 -0.2014  1.5509
 2701TIP3    H2 8040   3.992   2.249   2.012 -0.8163  0.6117 -0.1712
 2702TIP3   OH2 8041   2.272   3.674   2.909  0.3379 -0.0396 -0.1969
 2702TIP3    H1 8042   2.302   3.587   2.886 -0.5660 -0.5864  0.6631
 2702TIP3    H2 8043   2.339   3.707   2.970 -0.0299 -0.6644  0.5434
 2703TIP3   OH2 8044   3.736   2.899   3.579  0.3016  0.0359  0.0110
 2703TIP3    H1 8045   3.657   2.913   3.527  0.5648  0.9058 -0.1483
 2703TIP3    H2 8046   3.703   2.880   3.667 -0.0990 -0.2423 -0.1971
 2704TIP3   OH2 8047   1.206   7.978   2.855 -0.3833  0.0335 -0.4583
 2704TIP3    H1 8048   1.292   7.937   2.855 -1.0290 -1.3382 -0.6371
 2704TIP3    H2 8049   1.223   8.069   2.881  1.2533  0.1057 -1.7041
 2705TIP3   OH2 8050   3.605   0.573   1.981 -0.2524 -0.4890 -0.6281
 2705TIP3    H1 8051   3.534   0.512   1.999 -2.1977  2.5697  2.6179
 2705TIP3    H2 8052   3.572   0.629   1.910  0.1555 -0.9756 -1.2090
 2706TIP3   OH2 8053   2.705   0.507   2.130  0.4636 -0.5397 -0.0916
 2706TIP3    H1 8054   2.616   0.526   2.159  0.8179 -0.7271  1.1493
 2706TIP3    H2 8055   2.694   0.442   2.060 -0.4536  0.5150 -0.9299
 2707TIP3   OH2 8056   4.231   1.918   4.677 -0.0016  0.2546 -0.1034
 2707TIP3    H1 8057   4.266   1.857   4.742  0.5518  1.2480  0.5406
 2707TIP3    H2 8058   4.150   1.878   4.647 -0.4035 -0.0820  1.4012
 2708TIP3   OH2 8059   5.640   2.634   4.681 -0.5303 -0.0960 -0.9343
 2708TIP3    H1 8060   5.663   2.711   4.733 -1.5175 -0.0751 -0.5327
 2708TIP3    H2 8061   5.664   2.658   4.591 -0.8136  0.6652 -0.8093
 2709TIP3   OH2 8062   7.217   2.496   4.389  0.5072  0.3891 -0.2003
 2709TIP3    H1 8063   7.285   2.514   4.453 -1.8780  1.0148  2.2329
 2709TIP3    H2 8064   7.144   2.552   4.415 -1.3282 -1.0298 -2.1258
 2710TIP3   OH2 8065   3.425   2.607   3.635  0.3774 -0.1455  0.0795
 2710TIP3    H1 8066   3.447   2.689   3.592 -0.5124  0.3220  0.5025
 2710TIP3    H2 8067   3.508   2.558   3.638  0.4180 -0.2704 -2.3034
 2711TIP3   OH2 8068   4.848   0.979   3.135 -0.2410 -0.0252 -0.1678
 2711TIP3    H1 8069   4.876   0.912   3.198  1.4166  0.3904 -0.4266
 2711TIP3    H2 8070   4.901   0.962   3.058 -2.0586 -0.3488 -1.3625
 2712TIP3   OH2 8071   4.774   0.129   3.004 -0.3437 -0.3660  0.3505
 2712TIP3    H1 8072   4.827   0.050   2.993  0.4806  0.2434 -0.0740
 2712TIP3    H2 8073   4.766   0.140   3.099  3.5503  1.6691  0.5266
 2713TIP3   OH2 8074   6.784   1.649   4.836 -0.4840  0.2723  0.4995
 2713TIP3    H1 8075   6.830   1.566   4.850 -1.9603 -0.8371 -1.0753
 2713TIP3    H2 8076   6.719   1.652   4.906 -0.3999  0.1143  0.5839
 2714TIP3   OH2 8077   6.081   1.354   1.581  1.1648  0.2171 -0.1366
 2714TIP3    H1 8078   6.115   1.424   1.637  0.2875  0.3487  0.2462
 2714TIP3    H2 8079   6.148   1.285   1.585  1.1838  0.2852  0.9779
 2715TIP3   OH2 8080   3.112   0.088   1.914  0.8379 -0.5400 -0.5587
 2715TIP3    H1 8081   3.177   0.130   1.857  2.3791 -0.7334  1.0340
 2715TIP3    H2 8082   3.117   0.137   1.996 -0.6709 -0.8968 -0.2469
 2716TIP3   OH2 8083   4.082   1.559   1.006 -0.0613 -0.2760  0.1931
 2716TIP3    H1 8084   4.178   1.560   1.001 -0.1057 -0.6088 -0.7775
 2716TIP3    H2 8085   4.056   1.481   0.956 -0.8013 -0.6467  1.1435
 2717TIP3   OH2 8086   3.024   0.201   2.138  0.1267 -0.5576 -0.7230
 2717TIP3    H1 8087   2.948   0.180   2.084  0.5572 -1.1709 -1.1097
 2717TIP3    H2 8088   2.988   0.243   2.216 -0.4508  1.0127 -1.8216
 2718TIP3   OH2 8089   5.769   1.599   2.440 -0.3125  0.0497 -0.2327
 2718TIP3    H1 8090   5.708   1.563   2.375  0.5642 -1.6240 -0.1787
 2718TIP3    H2 8091   5.717   1.612   2.518 -1.5618  2.8096 -1.4616
 2719TIP3   OH2 8092   3.937   0.543   3.703 -0.5489 -0.3109  0.2070
 2719TIP3    H1 8093   3.846   0.530   3.677 -0.1904 -1.1999 -0.6848
 2719TIP3    H2 8094   3.933   0.573   3.793 -1.6381 -2.8593  1.0436
 2720TIP3   OH2 8095   5.404   0.269   1.292  0.1666  0.4827 -0.5729
 2720TIP3    H1 8096   5.325   0.216   1.298  0.4691  0.0801 -0.0879
 2720TIP3    H2 8097   5.417   0.302   1.381  0.6500  0.3954 -0.6089
 2721TIP3   OH2 8098   3.444   1.444   2.162  0.0994 -0.4588  0.6902
 2721TIP3    H1 8099   3.435   1.368   2.104 -1.4402  1.2591 -1.4116
 2721TIP3    H2 8100   3.506   1.501   2.117  0.1586  0.1799  1.5704
 2722TIP3   OH2 8101   2.538   1.813   2.225  0.5326  0.0700 -0.3850
 2722TIP3    H1 8102   2.567   1.866   2.150  0.5867  0.8093  0.1566
 2722TIP3    H2 8103   2.522   1.876   2.294 -2.1927 -0.3140 -0.5938
 2723TIP3   OH2 8104   3.020   4.347   2.572  0.4536  0.5872  0.0783
 2723TIP3    H1 8105   3.015   4.348   2.476 -0.7964 -2.7996  0.0266
 2723TIP3    H2 8106   3.096   4.293   2.591 -0.6235 -0.6628  0.9564
 2724TIP3   OH2 8107   4.722   1.770   1.883  0.5999  0.2038  0.0793
 2724TIP3    H1 8108   4.775   1.839   1.843 -0.1027  0.8444  0.2409
 2724TIP3    H2 8109   4.678   1.728   1.809 -0.5234  1.2388  0.1635
 2725TIP3   OH2 8110   2.365   1.789   1.910  0.0601  0.6963 -0.0842
 2725TIP3    H1 8111   2.341   1.708   1.955  0.0729  0.8792  0.2508
 2725TIP3    H2 8112   2.433   1.762   1.847  0.6950  0.5956  0.6367
 2726TIP3   OH2 8113   4.568   3.331   2.611  0.1947 -0.1301  0.3480
 2726TIP3    H1 8114   4.618   3.374   2.680  0.9290  0.1614 -0.3503
 2726TIP3    H2 8115   4.518   3.263   2.656  0.4474  0.2422  1.1994
 2727TIP3   OH2 8116   5.464   1.211   4.607 -0.0663 -0.0148 -0.0895
 2727TIP3    H1 8117   5.399   1.145   4.631  0.1727 -0.7687 -1.4180
 2727TIP3    H2 8118   5.506   1.235   4.689 -1.2395 -0.3606  0.6227
 2728TIP3   OH2 8119   5.199   1.219   1.796  0.0363  0.2644  0.5664
 2728TIP3    H1 8120   5.200   1.236   1.702 -0.8294 -0.2097  0.4659
 2728TIP3    H2 8121   5.284   1.179   1.814  0.8882  1.8922  0.2885
 2729TIP3   OH2 8122   4.897   2.368   2.041 -0.1488  0.0532 -0.2554
 2729TIP3    H1 8123   4.845   2.288   2.034  1.7731 -1.2367  0.0260
 2729TIP3    H2 8124   4.927   2.369   2.132  1.5618 -0.0082 -0.8057
 2730TIP3   OH2 8125   4.548   2.202   4.290  0.3712  0.1274  0.5835
 2730TIP3    H1 8126   4.588   2.206   4.203  2.3623  1.3613  1.5050
 2730TIP3    H2 8127   4.457   2.224   4.276  0.2619 -1.4420 -1.4249
 2731TIP3   OH2 8128   7.041   3.378   2.007  0.3638 -0.3889 -0.2265
 2731TIP3    H1 8129   6.984   3.420   2.071  1.8751  1.1159  0.1581
 2731TIP3    H2 8130   7.046   3.287   2.036 -0.2249 -0.0758  0.8959
 2732TIP3   OH2 8131   3.993   0.754   2.510  0.1886  0.1572  0.2083
 2732TIP3    H1 8132   3.950   0.836   2.533 -0.3505 -0.1887  0.4594
 2732TIP3    H2 8133   3.932   0.686   2.539  1.0042 -0.3499  0.7689
 2733TIP3   OH2 8134   4.983   1.191   0.191 -0.6211 -0.0228 -0.0414
 2733TIP3    H1 8135   4.957   1.184   0.099 -0.4666 -1.1142 -0.0161
 2733TIP3    H2 8136   4.949   1.275   0.220 -0.1765  0.5920 -1.2598
 2734TIP3   OH2 8137   4.427   2.910   4.291 -0.4377  0.2154  0.1123
 2734TIP3    H1 8138   4.491   2.939   4.356  1.0918 -0.2274 -1.1572
 2734TIP3    H2 8139   4.356   2.973   4.297  0.5718  1.2965  0.8650
 2735TIP3   OH2 8140   5.501   0.413   3.364 -0.3230 -0.5415  0.2202
 2735TIP3    H1 8141   5.558   0.446   3.294 -0.5419  1.1350  0.7919
 2735TIP3    H2 8142   5.425   0.472   3.361 -0.5422 -0.7563  1.5572
 2736TIP3   OH2 8143   5.309   2.412   3.141  0.1470  0.4614 -0.1619
 2736TIP3    H1 8144   5.223   2.371   3.136 -0.9930  2.4946  1.8584
 2736TIP3    H2 8145   5.327   2.441   3.051 -0.0209 -2.3106 -1.1490
 2737TIP3   OH2 8146   4.825   0.964   1.290  0.4679  0.0693 -0.1024
 2737TIP3    H1 8147   4.736   0.954   1.322  0.8502 -0.4330  0.8123
 2737TIP3    H2 8148   4.846   1.056   1.303 -0.6387  0.6580 -2.2376
 2738TIP3   OH2 8149   4.328   1.826   0.739  0.0365  0.3707 -0.5434
 2738TIP3    H1 8150   4.340   1.731   0.740  1.1223  0.5026 -0.2795
 2738TIP3    H2 8151   4.333   1.852   0.830  0.7022  0.7828 -0.6887
 2739TIP3   OH2 8152   6.514   2.054   3.237 -0.2587 -0.0008  0.5914
 2739TIP3    H1 8153   6.519   2.103   3.155 -2.0305 -1.2554 -0.2857
 2739TIP3    H2 8154   6.470   2.113   3.298  3.1086  1.8403  1.3797
 2740TIP3   OH2 8155   2.648   2.388   1.954  0.5012 -0.3943  0.1332
 2740TIP3    H1 8156   2.724   2.442   1.975  0.8484 -1.5655  1.9778
 2740TIP3    H2 8157   2.649   2.381   1.858  2.4834 -0.0667  0.1147
 2741TIP3   OH2 8158   4.143   2.311   3.738  0.2603 -0.2696  0.2815
 2741TIP3    H1 8159   4.229   2.268   3.743  0.4167  0.0904  0.7753
 2741TIP3    H2 8160   4.163   2.404   3.752 -0.0997 -0.0592 -0.5533
 2742TIP3   OH2 8161   4.785   2.627   2.859 -0.2874 -0.5040  0.2122
 2742TIP3    H1 8162   4.796   2.620   2.954 -0.0710 -1.0057  0.1518
 2742TIP3    H2 8163   4.766   2.538   2.830  0.9441 -0.6002 -0.3718
 2743TIP3   OH2 8164   8.002   2.355   0.867  0.5270  0.3004  0.0615
 2743TIP3    H1 8165   8.087   2.361   0.823 -0.3014 -0.2115 -1.6354
 2743TIP3    H2 8166   7.994   2.262   0.890  0.2921  0.2845 -0.0811
 2744TIP3   OH2 8167   5.245   3.328   4.168  0.1770  0.2575 -0.1652
 2744TIP3    H1 8168   5.159   3.291   4.188 -0.7068  0.2125 -3.6878
 2744TIP3    H2 8169   5.307   3.257   4.186 -0.9065 -0.9134 -0.9473
 2745TIP3   OH2 8170   5.591   1.599   0.430 -0.9631 -0.6880  0.3697
 2745TIP3    H1 8171   5.526   1.631   0.493  0.2209  0.2032  1.1554
 2745TIP3    H2 8172   5.653   1.549   0.483 -0.1025 -0.1504 -0.1166
 2746TIP3   OH2 8173   4.445   1.989   2.658  0.6339  0.8142 -0.6529
 2746TIP3    H1 8174   4.428   1.930   2.731  1.5984  1.4298  0.0714
 2746TIP3    H2 8175   4.398   1.950   2.584  1.7814 -1.1980 -0.3466
 2747TIP3   OH2 8176   7.207   5.919   6.854 -0.0762 -0.3377 -0.0138
 2747TIP3    H1 8177   7.193   5.825   6.865  0.6507 -0.4864 -0.3365
 2747TIP3    H2 8178   7.300   5.927   6.832  0.1461  0.5621  1.1951
 2748TIP3   OH2 8179   3.194   1.800   2.032  0.0299  0.0119 -0.1252
 2748TIP3    H1 8180   3.238   1.879   2.064 -0.0413 -0.4285  1.0882
 2748TIP3    H2 8181   3.259   1.730   2.043  0.6870  0.1679 -2.7478
 2749TIP3   OH2 8182   4.824   0.859   3.572  0.0104  0.0754  0.3627
 2749TIP3    H1 8183   4.797   0.800   3.502  0.1849 -2.2574  2.1550
 2749TIP3    H2 8184   4.919   0.847   3.577  0.2822  1.8561 -0.3998
 2750TIP3   OH2 8185   3.346   2.748   3.189 -0.1440 -0.2428 -0.0411
 2750TIP3    H1 8186   3.279   2.772   3.125  0.3709 -1.3585 -1.0085
 2750TIP3    H2 8187   3.342   2.817   3.255 -1.5332  0.2488 -0.6338
 2751TIP3   OH2 8188   3.762   4.224   2.534  0.1687 -0.4898  0.4046
 2751TIP3    H1 8189   3.739   4.305   2.579 -0.5640 -0.7028  0.4249
 2751TIP3    H2 8190   3.784   4.163   2.604 -0.2091 -0.5914  0.4326
 2752TIP3   OH2 8191   4.243   2.568   5.048 -0.0155  0.3573  0.0241
 2752TIP3    H1 8192   4.280   2.517   5.121  1.7842  0.5417 -0.7288
 2752TIP3    H2 8193   4.166   2.518   5.021 -0.7308  0.2934  2.0475
 2753TIP3   OH2 8194   5.117   1.017   2.336  0.1075 -0.0482 -0.5508
 2753TIP3    H1 8195   5.180   1.088   2.322 -0.2882  0.7421  1.4839
 2753TIP3    H2 8196   5.156   0.941   2.292  1.6028  0.8828 -0.8675
 2754TIP3   OH2 8197   4.582   3.066   4.672  0.6373  0.6665 -0.1425
 2754TIP3    H1 8198   4.488   3.078   4.656  0.8799  1.4130 -1.0460
 2754TIP3    H2 8199   4.590   3.065   4.767 -0.5300 -1.3543 -0.0370
 2755TIP3   OH2 8200   6.666   2.508   1.773 -0.1118  0.0892 -0.4037
 2755TIP3    H1 8201   6.589   2.497   1.717 -0.5051  0.7877 -0.0103
 2755TIP3    H2 8202   6.718   2.576   1.730 -0.3269  0.5014 -0.0058
 2756TIP3   OH2 8203   3.384   0.506   3.155 -0.0144 -0.1573 -0.6888
 2756TIP3    H1 8204   3.307   0.502   3.212  0.3868 -0.3229 -0.1552
 2756TIP3    H2 8205   3.433   0.583   3.185 -0.2369  0.2564 -1.3712
 2757TIP3   OH2 8206   7.310   1.545   2.174 -0.4858 -0.0466  0.3767
 2757TIP3    H1 8207   7.227   1.569   2.133 -0.3093 -1.5561 -0.9239
 2757TIP3    H2 8208   7.286   1.518   2.263 -1.0545  1.8853  0.8332
 2758TIP3   OH2 8209   2.075   0.192   4.568  0.2155  0.1204  0.3786
 2758TIP3    H1 8210   2.028   0.247   4.631 -1.6308 -0.7831 -0.1843
 2758TIP3    H2 8211   2.149   0.157   4.617 -0.0487  1.0474  1.4558
 2759TIP3   OH2 8212   6.218   0.275   2.587 -0.1590 -0.4853 -0.0494
 2759TIP3    H1 8213   6.255   0.333   2.521 -1.9276 -0.0462 -0.6918
 2759TIP3    H2 8214   6.283   0.273   2.657 -0.2878  2.7068  0.2384
 2760TIP3   OH2 8215   3.224   0.761   2.488  0.1005 -0.2496  0.4932
 2760TIP3    H1 8216   3.222   0.675   2.446 -1.7584  1.6008 -3.5644
 2760TIP3    H2 8217   3.140   0.768   2.533 -1.3387  0.7153 -2.2004
 2761TIP3   OH2 8218   4.210   2.718   4.789 -0.0762  0.4795  0.3878
 2761TIP3    H1 8219   4.115   2.732   4.787  0.0035  0.9577 -0.0778
 2761TIP3    H2 8220   4.228   2.690   4.878 -0.8483 -0.9370  0.1127
 2762TIP3   OH2 8221   2.673   0.446   2.647 -0.2755  0.4665 -0.1198
 2762TIP3    H1 8222   2.715   0.505   2.584  0.0178 -0.1239 -0.4789
 2762TIP3    H2 8223   2.609   0.397   2.595  0.9916 -1.0708 -0.2792
 2763TIP3   OH2 8224   4.306   1.471   2.535  0.3761 -0.1568 -0.2789
 2763TIP3    H1 8225   4.381   1.414   2.553  0.0742 -0.4616  0.0213
 2763TIP3    H2 8226   4.242   1.414   2.492  0.5353  0.2353 -1.0346
 2764TIP3   OH2 8227   6.763   1.240   1.550  0.3815  0.1399 -0.1314
 2764TIP3    H1 8228   6.693   1.278   1.497  1.2055  0.6390 -0.8779
 2764TIP3    H2 8229   6.838   1.298   1.536  0.6265  0.2523  1.5560
 2765TIP3   OH2 8230   0.665   7.606   3.160  0.4021 -0.2386 -0.0546
 2765TIP3    H1 8231   0.750   7.645   3.141  0.6173 -0.5710  0.2041
 2765TIP3    H2 8232   0.685   7.535   3.222  0.0419 -0.8657 -0.6515
 2766TIP3   OH2 8233   4.418   1.842   3.954 -0.2086 -0.0629 -0.1859
 2766TIP3    H1 8234   4.413   1.755   3.994  1.4766  0.1787  0.6106
 2766TIP3    H2 8235   4.328   1.861   3.926 -0.7123 -1.7862  0.1933
 2767TIP3   OH2 8236   4.998   1.069   2.707  0.1372  0.3888 -0.0063
 2767TIP3    H1 8237   5.002   1.011   2.632 -1.5866 -0.6327  0.6666
 2767TIP3    H2 8238   5.089   1.077   2.737  1.0033  1.7259 -2.8431
 2768TIP3   OH2 8239   4.451   1.517   3.509 -0.7101 -0.3340 -1.1671
 2768TIP3    H1 8240   4.478   1.428   3.491  0.6206 -0.4268  1.1289
 2768TIP3    H2 8241   4.395   1.511   3.586 -3.8464  0.3908 -3.2641
 2769TIP3   OH2 8242   7.900   4.950   6.810  0.1186 -0.3106 -0.2955
 2769TIP3    H1 8243   7.842   4.874   6.807  0.3337 -0.5677  1.4552
 2769TIP3    H2 8244   7.988   4.914   6.794 -0.0775 -0.0428 -2.0761
 2770TIP3   OH2 8245   4.625   1.514   0.293  0.1875 -0.0874 -0.4388
 2770TIP3    H1 8246   4.553   1.569   0.263  1.3138  2.1538  0.8938
 2770TIP3    H2 8247   4.582   1.437   0.330 -1.5224  1.1438  0.2098
 2771TIP3   OH2 8248   5.993   2.282   3.172  0.0668  0.2719  0.3515
 2771TIP3    H1 8249   5.957   2.195   3.155 -0.5775  0.6485 -0.2443
 2771TIP3    H2 8250   5.923   2.342   3.146  0.5684  0.9716  0.6109
 2772TIP3   OH2 8251   5.091   3.705   3.258 -0.2423  0.0678 -0.3149
 2772TIP3    H1 8252   5.046   3.741   3.181 -0.7461 -0.9958 -0.5349
 2772TIP3    H2 8253   5.143   3.778   3.292 -0.3383  0.6672 -1.4204
 2773TIP3   OH2 8254   4.235   2.334   1.535  0.9832 -0.0645 -0.5146
 2773TIP3    H1 8255   4.235   2.242   1.509 -2.2621 -0.3770  0.3062
 2773TIP3    H2 8256   4.240   2.383   1.452 -1.3704 -1.0236 -1.2598
 2774TIP3   OH2 8257   6.160   1.464   0.978  0.0987  0.1062 -0.4477
 2774TIP3    H1 8258   6.221   1.435   0.910 -1.3111 -1.3760 -1.0957
 2774TIP3    H2 8259   6.102   1.389   0.993 -0.6528  0.9772  1.2225
 2775TIP3   OH2 8260   5.042   1.309   4.952 -0.2925 -0.1346  0.2175
 2775TIP3    H1 8261   5.128   1.345   4.929 -0.0076 -0.0670  1.3708
 2775TIP3    H2 8262   5.002   1.375   5.008 -0.9565 -0.3282 -0.0242
 2776TIP3   OH2 8263   3.754   2.405   3.119  0.0869  0.1381 -0.1248
 2776TIP3    H1 8264   3.744   2.459   3.197 -1.1213  0.4935 -0.5136
 2776TIP3    H2 8265   3.814   2.453   3.063 -0.6925  0.9201 -0.3079
 2777TIP3   OH2 8266   3.003   3.379   2.574  0.1270 -0.2808 -0.4893
 2777TIP3    H1 8267   2.980   3.469   2.599  0.2504  0.2614 -2.3043
 2777TIP3    H2 8268   3.013   3.333   2.658 -2.9971  0.6130  0.4545
 2778TIP3   OH2 8269   2.622   3.997   3.375  0.0806 -0.0570  0.3421
 2778TIP3    H1 8270   2.602   3.951   3.294  0.1329  0.2232  0.1658
 2778TIP3    H2 8271   2.592   3.939   3.445  0.4109 -0.4834  0.1335
 2779TIP3   OH2 8272   4.034   2.974   3.678  0.2317  0.1842 -0.2021
 2779TIP3    H1 8273   4.055   2.930   3.596  0.5052 -0.4341  0.1918
 2779TIP3    H2 8274   3.942   2.952   3.695  0.1933  0.2607 -0.3178
 2780TIP3   OH2 8275   5.302   4.048   2.899 -0.4189  0.4451  0.5357
 2780TIP3    H1 8276   5.336   4.119   2.952  3.5276  0.3792 -1.6615
 2780TIP3    H2 8277   5.232   4.088   2.847  0.7858  2.3780  0.3570
 2781TIP3   OH2 8278   5.602   2.600   1.334  0.6601  0.2865 -0.1719
 2781TIP3    H1 8279   5.566   2.684   1.363 -0.4693  0.2739 -1.5013
 2781TIP3    H2 8280   5.693   2.620   1.311  0.8510  0.8071  0.9753
 2782TIP3   OH2 8281   5.378   3.811   3.735  0.5614  0.2776  0.2703
 2782TIP3    H1 8282   5.326   3.732   3.749  2.3381 -0.9143  0.3978
 2782TIP3    H2 8283   5.320   3.870   3.688 -1.4371 -0.3600  1.8607
 2783TIP3   OH2 8284   3.458   3.205   3.052 -0.2180  0.0167 -0.2121
 2783TIP3    H1 8285   3.405   3.165   2.983 -0.9432  1.0849 -0.2838
 2783TIP3    H2 8286   3.397   3.216   3.125  0.0118  0.8637 -0.1488
 2784TIP3   OH2 8287   4.400   2.469   4.629  0.5581  0.1999 -0.3322
 2784TIP3    H1 8288   4.463   2.453   4.558  1.1696 -1.8492  0.6547
 2784TIP3    H2 8289   4.352   2.387   4.637  0.4169  0.4592  1.5563
 2785TIP3   OH2 8290   2.613   3.575   1.740 -0.1910  0.2083 -0.5226
 2785TIP3    H1 8291   2.638   3.546   1.652 -0.2334  0.5347 -0.6417
 2785TIP3    H2 8292   2.605   3.670   1.733 -0.3032  0.2239 -0.1928
 2786TIP3   OH2 8293   2.493   2.229   2.994  0.2179 -0.2709 -0.0334
 2786TIP3    H1 8294   2.515   2.316   2.959  1.7111 -0.6451 -0.0536
 2786TIP3    H2 8295   2.398   2.225   2.989  0.2390  0.6580 -1.7431
 2787TIP3   OH2 8296   3.581   2.290   4.856  0.0219 -0.0793  0.2044
 2787TIP3    H1 8297   3.618   2.217   4.906 -0.8800 -0.8573 -0.2485
 2787TIP3    H2 8298   3.648   2.311   4.791  2.1196  2.2916  2.9622
 2788TIP3   OH2 8299   4.686   1.683   1.365  1.0200 -0.3131  0.2306
 2788TIP3    H1 8300   4.635   1.734   1.302 -1.3880 -2.4040  0.3760
 2788TIP3    H2 8301   4.738   1.624   1.311  0.4854 -0.6974  0.1215
 2789TIP3   OH2 8302   5.058   2.272   3.144  0.1894 -0.0029 -0.3170
 2789TIP3    H1 8303   4.994   2.323   3.194  1.0959  1.2557 -0.4140
 2789TIP3    H2 8304   5.020   2.266   3.056 -0.7679 -1.0721  0.1403
 2790TIP3   OH2 8305   1.811   7.883   1.409  0.1667  0.0860 -0.4819
 2790TIP3    H1 8306   1.823   7.789   1.396 -0.6089 -0.1409  0.3812
 2790TIP3    H2 8307   1.736   7.890   1.467  1.9685  1.1274  1.8157
 2791TIP3   OH2 8308   4.118   2.077   6.754 -0.4191 -0.1534  0.5141
 2791TIP3    H1 8309   4.049   2.072   6.689 -0.0792 -1.6708  0.2430
 2791TIP3    H2 8310   4.156   1.989   6.756  0.7133  0.3333  1.5125
 2792TIP3   OH2 8311   8.364   0.421   0.200  0.3014 -0.2876  0.2693
 2792TIP3    H1 8312   8.287   0.392   0.248 -0.6970 -0.0714 -1.1958
 2792TIP3    H2 8313   8.397   0.496   0.250  0.6309 -1.4878  1.8907
 2793TIP3   OH2 8314   4.689   0.973   1.736 -0.2051 -0.1330  0.7796
 2793TIP3    H1 8315   4.711   1.040   1.672  0.0794 -1.4865 -0.5648
 2793TIP3    H2 8316   4.594   0.964   1.730 -0.2204  0.0072  0.8147
 2794TIP3   OH2 8317   3.802   1.141   2.026 -0.0334  0.0228  0.3339
 2794TIP3    H1 8318   3.807   1.217   2.084  0.8023  0.6858 -0.5889
 2794TIP3    H2 8319   3.891   1.105   2.026  0.4332  1.1069 -1.9549
 2795TIP3   OH2 8320   4.495   2.515   2.427  0.1662 -0.0848  0.4496
 2795TIP3    H1 8321   4.475   2.424   2.406 -3.3999  0.2093  2.1620
 2795TIP3    H2 8322   4.471   2.564   2.348  0.6122 -0.4514  0.0856
 2796TIP3   OH2 8323   4.587   2.959   2.927 -0.0852 -0.2146 -0.3813
 2796TIP3    H1 8324   4.646   2.921   2.992  0.5701  0.9463 -0.2759
 2796TIP3    H2 8325   4.576   2.892   2.861  0.2839 -0.9305  0.2815
 2797TIP3   OH2 8326   4.226   2.220   2.726 -0.8793 -0.4168  0.7500
 2797TIP3    H1 8327   4.250   2.312   2.715 -4.0519  0.2227 -1.7439
 2797TIP3    H2 8328   4.306   2.178   2.757  1.2073  2.8310  0.0694
 2798TIP3   OH2 8329   3.048   1.761   5.900 -0.4821 -0.5776 -0.6516
 2798TIP3    H1 8330   3.078   1.783   5.811 -0.9540 -0.8190 -0.8750
 2798TIP3    H2 8331   2.956   1.786   5.901 -0.3238 -0.0096 -0.0260
 2799TIP3   OH2 8332   2.309   0.227   2.424  0.0513  0.4697 -0.5754
 2799TIP3    H1 8333   2.251   0.203   2.496 -0.2962 -0.7562 -1.2403
 2799TIP3    H2 8334   2.286   0.166   2.353  1.8017  0.2771 -1.0186
 2800TIP3   OH2 8335   5.422   1.938   5.165  0.4164  0.0521  0.6500
 2800TIP3    H1 8336   5.431   1.993   5.088 -0.3527 -0.7944 -0.0604
 2800TIP3    H2 8337   5.512   1.925   5.196  0.8287 -0.4976 -0.7557
 2801TIP3   OH2 8338   6.441   1.772   2.771 -0.0822  0.3975 -0.0345
 2801TIP3    H1 8339   6.368   1.729   2.815 -0.6190  0.2944 -1.0115
 2801TIP3    H2 8340   6.434   1.745   2.680  3.0665 -2.2022  0.3758
 2802TIP3   OH2 8341   7.123   2.040   4.234 -0.3664 -0.2514  0.1849
 2802TIP3    H1 8342   7.132   1.966   4.295 -1.4964 -0.5894 -0.0312
 2802TIP3    H2 8343   7.123   2.117   4.290  0.7949 -0.4223  0.4174
 2803TIP3   OH2 8344   4.146   0.893   4.155 -0.0995  0.4537 -0.3658
 2803TIP3    H1 8345   4.054   0.872   4.141  0.1587  0.0630 -1.5590
 2803TIP3    H2 8346   4.180   0.911   4.067  0.7663  1.4170  0.1473
 2804TIP3   OH2 8347   5.103   0.850   3.620 -0.1731  0.5423  0.6173
 2804TIP3    H1 8348   5.181   0.830   3.568 -0.7767 -0.5490  0.1105
 2804TIP3    H2 8349   5.120   0.936   3.656  1.0934  0.4960  0.1662
 2805TIP3   OH2 8350   1.058   2.223   1.186  0.3528  0.4454 -0.5526
 2805TIP3    H1 8351   1.141   2.211   1.140  1.2036  0.4238  0.9616
 2805TIP3    H2 8352   1.007   2.144   1.165  2.9666 -2.3978  3.1566
 2806TIP3   OH2 8353   4.963   3.406   4.181  0.4286  0.6250  0.5575
 2806TIP3    H1 8354   5.027   3.475   4.166 -0.0917  0.8246 -0.8210
 2806TIP3    H2 8355   4.888   3.451   4.220 -0.7131  1.2306 -2.2181
 2807TIP3   OH2 8356   3.400   1.998   3.176  0.4517  0.4890  0.3419
 2807TIP3    H1 8357   3.453   1.971   3.102  0.3708  0.6588  0.2205
 2807TIP3    H2 8358   3.419   2.092   3.186  0.6124  0.4235  0.6587
 2808TIP3   OH2 8359   3.602   2.113   2.590 -0.5214  0.7008  0.0654
 2808TIP3    H1 8360   3.515   2.091   2.555 -0.9416 -0.4281  1.8017
 2808TIP3    H2 8361   3.644   2.028   2.604 -0.2497  1.1439  2.0200
 2809TIP3   OH2 8362   6.300   3.580   3.616 -0.1716 -0.7543  0.3612
 2809TIP3    H1 8363   6.341   3.565   3.701 -0.4056 -0.5068  0.5177
 2809TIP3    H2 8364   6.206   3.568   3.632 -0.2744 -0.0570  0.2807
 2810TIP3   OH2 8365   5.144   1.321   4.403 -0.0441  0.2575 -0.9818
 2810TIP3    H1 8366   5.195   1.249   4.368 -0.9958 -0.8636 -0.1048
 2810TIP3    H2 8367   5.104   1.362   4.327  0.5774 -0.0682 -1.4867
 2811TIP3   OH2 8368   3.660   1.464   3.976 -0.0492  1.1099 -0.1582
 2811TIP3    H1 8369   3.660   1.418   4.060  0.6128 -0.9354 -1.2306
 2811TIP3    H2 8370   3.701   1.549   3.995  0.0064  0.7086  1.5987
 2812TIP3   OH2 8371   4.186   4.488   3.925  0.2093  0.4539 -0.2175
 2812TIP3    H1 8372   4.160   4.485   4.017 -0.4051  0.4457 -0.3870
 2812TIP3    H2 8373   4.281   4.492   3.926  0.1757  1.1502  0.4376
 2813TIP3   OH2 8374   4.582   3.907   6.465  0.1198  0.5652  0.3501
 2813TIP3    H1 8375   4.513   3.924   6.529 -0.1521 -0.9321  0.4800
 2813TIP3    H2 8376   4.662   3.940   6.507 -0.1560  0.1559  1.2074
 2814TIP3   OH2 8377   5.747   2.561   3.189 -0.1825  0.1397 -0.4025
 2814TIP3    H1 8378   5.725   2.472   3.161  1.0887  0.1589 -1.5135
 2814TIP3    H2 8379   5.666   2.594   3.228 -0.5277 -1.6666  0.4769
 2815TIP3   OH2 8380   5.543   2.713   3.289 -0.9325 -0.2110 -0.1038
 2815TIP3    H1 8381   5.498   2.687   3.370 -0.8153 -0.5968 -0.1601
 2815TIP3    H2 8382   5.576   2.801   3.307 -2.1949  0.3074 -0.2616
 2816TIP3   OH2 8383   2.692   1.154   4.446  1.0188  0.0613  0.1376
 2816TIP3    H1 8384   2.761   1.190   4.501  1.3984 -1.5561  0.7492
 2816TIP3    H2 8385   2.721   1.065   4.425 -0.3297 -0.2400 -0.5435
 2817TIP3   OH2 8386   4.877   1.879   3.209 -0.0597  0.0137 -0.2710
 2817TIP3    H1 8387   4.972   1.886   3.218 -0.2132  0.6638  0.9430
 2817TIP3    H2 8388   4.862   1.789   3.181  1.0821  0.6450 -3.0672
 2818TIP3   OH2 8389   6.447   0.775   3.231  0.2259  0.1582 -0.6633
 2818TIP3    H1 8390   6.500   0.815   3.300 -0.2098 -2.1576  1.0563
 2818TIP3    H2 8391   6.382   0.722   3.277 -0.2106 -1.2896 -2.8484
 2819TIP3   OH2 8392   4.897   1.132   2.227 -0.0859 -0.2464 -0.4798
 2819TIP3    H1 8393   4.971   1.082   2.262 -0.4315 -1.8124 -1.9265
 2819TIP3    H2 8394   4.909   1.130   2.132 -1.4296  0.3434 -0.6684
 2820TIP3   OH2 8395   5.545   1.255   4.348  0.5532  0.2704 -0.2898
 2820TIP3    H1 8396   5.636   1.229   4.338  0.3356 -0.7128  0.1901
 2820TIP3    H2 8397   5.525   1.239   4.440 -0.2641 -0.0832 -0.5197
 2821TIP3   OH2 8398   6.333   0.241   3.110  0.6297  0.3462  0.4955
 2821TIP3    H1 8399   6.421   0.248   3.146  0.8283  0.5360 -0.0271
 2821TIP3    H2 8400   6.284   0.312   3.152  0.1948 -0.9379  2.2790
 2822TIP3   OH2 8401   2.337   2.498   1.969  0.0297  0.4954  0.9990
 2822TIP3    H1 8402   2.419   2.469   1.929  0.9566  2.0644  1.7413
 2822TIP3    H2 8403   2.347   2.478   2.062 -0.7176  0.0568  0.9903
 2823TIP3   OH2 8404   2.762   2.204   3.866  0.5096 -0.5109  0.2792
 2823TIP3    H1 8405   2.809   2.193   3.784  0.3950 -1.3035  0.3095
 2823TIP3    H2 8406   2.776   2.121   3.912 -0.0919 -0.3738  0.7104
 2824TIP3   OH2 8407   7.063   0.288   2.895  0.5469  0.1971  0.1945
 2824TIP3    H1 8408   7.033   0.338   2.972  0.8293  1.5943 -0.5828
 2824TIP3    H2 8409   6.984   0.249   2.859  0.3060  0.1602  0.7556
 2825TIP3   OH2 8410   5.820   0.775   3.439 -0.2045 -0.0259  0.2700
 2825TIP3    H1 8411   5.763   0.701   3.461 -0.2848 -0.2887 -0.7928
 2825TIP3    H2 8412   5.774   0.820   3.368  1.2932 -0.7173 -1.1862
 2826TIP3   OH2 8413   1.624   1.454   1.831 -0.3266 -0.4851  0.4082
 2826TIP3    H1 8414   1.629   1.543   1.867 -1.7589 -0.5820  0.8878
 2826TIP3    H2 8415   1.598   1.466   1.740  1.3063 -0.3329 -0.0462
 2827TIP3   OH2 8416   5.304   2.440   2.826  0.3784 -0.0472  0.0752
 2827TIP3    H1 8417   5.237   2.397   2.773  2.8272  0.0099 -3.1819
 2827TIP3    H2 8418   5.292   2.533   2.808 -1.8733  0.4147  3.4768
 2828TIP3   OH2 8419   4.572   0.846   3.664  0.1664  0.8047  0.0716
 2828TIP3    H1 8420   4.663   0.828   3.640  0.1979  2.1395 -0.8974
 2828TIP3    H2 8421   4.525   0.845   3.581 -0.8474 -0.5586  0.6359
 2829TIP3   OH2 8422   7.036   0.099   1.200  0.6289 -0.4943  0.3945
 2829TIP3    H1 8423   6.954   0.061   1.167  1.0488 -0.5245 -0.6422
 2829TIP3    H2 8424   7.104   0.038   1.170  1.0526 -0.3299  1.0249
 2830TIP3   OH2 8425   2.627   0.051   3.234  0.0143 -0.1188  0.0440
 2830TIP3    H1 8426   2.625   0.025   3.326  2.5804  0.7204  0.3762
 2830TIP3    H2 8427   2.676  -0.020   3.191  1.7613  1.1294 -0.0683
 2831TIP3   OH2 8428   3.115   3.239   4.543  0.0935  0.7880 -0.0067
 2831TIP3    H1 8429   3.065   3.303   4.595 -2.7097 -1.1133 -0.2446
 2831TIP3    H2 8430   3.068   3.235   4.460  0.9009 -0.7781 -0.3862
 2832TIP3   OH2 8431   3.558   1.575   3.412 -0.4542  0.2292  0.2163
 2832TIP3    H1 8432   3.541   1.553   3.503 -0.1292 -0.9536 -0.0002
 2832TIP3    H2 8433   3.530   1.666   3.403 -1.1759  0.1157  1.3076
 2833TIP3   OH2 8434   3.022   3.679   3.491 -0.1986  0.0875  0.1419
 2833TIP3    H1 8435   3.089   3.732   3.533 -0.5746  0.0242  0.8307
 2833TIP3    H2 8436   2.941   3.702   3.537 -1.0006  1.5813 -1.9192
 2834TIP3   OH2 8437   4.260   1.467   3.705 -0.3708  0.1471  0.1474
 2834TIP3    H1 8438   4.272   1.507   3.791 -0.0233  1.7909 -0.6623
 2834TIP3    H2 8439   4.179   1.417   3.713 -0.3322  0.2681  1.4206
 2835TIP3   OH2 8440   4.941   4.159   2.002 -0.3828  0.1818  0.3821
 2835TIP3    H1 8441   4.920   4.096   2.071 -0.3987  0.8268  0.9680
 2835TIP3    H2 8442   5.016   4.121   1.956 -1.2852 -0.9590 -0.1760
 2836TIP3   OH2 8443   3.627   3.045   3.225 -0.1529 -0.1569  0.1504
 2836TIP3    H1 8444   3.660   3.110   3.287 -0.3601 -1.6827  1.8927
 2836TIP3    H2 8445   3.565   3.094   3.170  1.3055  1.6021 -0.0050
 2837TIP3   OH2 8446   4.556   0.333   2.455 -0.1962 -0.1666 -0.0649
 2837TIP3    H1 8447   4.542   0.417   2.498 -0.4921 -1.2467  2.0029
 2837TIP3    H2 8448   4.474   0.285   2.469  0.4549 -1.2976 -0.0895
 2838TIP3   OH2 8449   5.639   1.578   3.595 -0.1812  0.6874  0.0023
 2838TIP3    H1 8450   5.644   1.593   3.689 -0.4580  1.1689 -0.0555
 2838TIP3    H2 8451   5.570   1.638   3.565 -0.3469  0.2737 -0.4494
 2839TIP3   OH2 8452   2.869   2.909   3.962  0.2171 -0.4759  0.1946
 2839TIP3    H1 8453   2.804   2.874   3.901  0.9948 -0.0947 -0.8513
 2839TIP3    H2 8454   2.866   3.004   3.949 -0.3506 -0.3005  1.4933
 2840TIP3   OH2 8455   5.064   4.185   2.848  0.0043  0.4690 -0.5583
 2840TIP3    H1 8456   5.078   4.180   2.942 -0.7776  1.0182 -0.4159
 2840TIP3    H2 8457   5.038   4.276   2.832 -1.9796 -0.1728 -1.0313
 2841TIP3   OH2 8458   6.434   1.328   2.245 -0.1209  0.0927  0.6140
 2841TIP3    H1 8459   6.407   1.398   2.304 -1.2863 -0.2363  0.4871
 2841TIP3    H2 8460   6.528   1.317   2.262  0.7808  3.6490 -1.3619
 2842TIP3   OH2 8461   6.372   2.784   2.805 -0.0438  0.5265 -0.1308
 2842TIP3    H1 8462   6.335   2.798   2.717  0.2123  2.1383  0.0024
 2842TIP3    H2 8463   6.460   2.822   2.800  0.1912  0.0903  0.6509
 2843TIP3   OH2 8464   4.732   1.867   2.631 -0.0088  0.1663 -0.0590
 2843TIP3    H1 8465   4.677   1.791   2.609  0.9699 -0.5472 -0.0739
 2843TIP3    H2 8466   4.780   1.839   2.709  0.5261  0.6907 -0.2000
 2844TIP3   OH2 8467   3.925   2.864   2.215  0.2030  0.7276  0.2674
 2844TIP3    H1 8468   4.010   2.885   2.252  0.9980 -1.7500 -0.0665
 2844TIP3    H2 8469   3.944   2.831   2.127 -0.9792 -0.7886  0.5539
 2845TIP3   OH2 8470   4.303   5.022   4.719 -0.2159  0.0128  0.2470
 2845TIP3    H1 8471   4.378   5.008   4.661  0.0060  0.7776  0.3437
 2845TIP3    H2 8472   4.229   4.986   4.671  0.4498 -2.1332  0.8027
 2846TIP3   OH2 8473   4.003   2.154   1.847  0.2437 -0.3628  0.6234
 2846TIP3    H1 8474   4.046   2.100   1.781  0.8870 -1.4661  1.9236
 2846TIP3    H2 8475   3.909   2.141   1.832  0.3682  0.4831 -0.9429
 2847TIP3   OH2 8476   6.585   1.417   2.650  0.1535 -0.2048 -0.5012
 2847TIP3    H1 8477   6.507   1.469   2.629 -0.9877 -1.1001  1.3808
 2847TIP3    H2 8478   6.561   1.327   2.628  0.9498 -0.3789 -0.6827
 2848TIP3   OH2 8479   6.760   1.890   3.362 -0.8198  0.0896  0.4903
 2848TIP3    H1 8480   6.741   1.835   3.286  1.7751 -1.5301  0.9305
 2848TIP3    H2 8481   6.788   1.974   3.324 -2.4667  0.3164 -0.2489
 2849TIP3   OH2 8482   5.674   2.498   1.595  0.1563  0.2871  0.1849
 2849TIP3    H1 8483   5.655   2.502   1.501 -3.6965  1.0514  0.9373
 2849TIP3    H2 8484   5.741   2.566   1.609  0.2072  0.6892 -1.8675
 2850TIP3   OH2 8485   4.221   2.555   1.697  0.6786  0.7280  0.7833
 2850TIP3    H1 8486   4.226   2.479   1.640  1.8750 -0.7463  2.7800
 2850TIP3    H2 8487   4.288   2.539   1.764  1.3171  3.7843  0.9506
 2851TIP3   OH2 8488   4.198   2.016   1.660  0.6241  0.0387 -0.2548
 2851TIP3    H1 8489   4.158   1.938   1.698  2.6442 -0.4837  0.8825
 2851TIP3    H2 8490   4.264   1.983   1.599  0.9457  0.8552 -0.3556
 2852TIP3   OH2 8491   5.542   0.902   1.119 -0.3928  1.0249 -0.2043
 2852TIP3    H1 8492   5.458   0.885   1.075 -0.0214 -2.4204  0.2720
 2852TIP3    H2 8493   5.592   0.821   1.105  2.7363  2.9070 -0.1855
 2853TIP3   OH2 8494   3.913   7.935   3.185  0.1307  0.1883 -0.1191
 2853TIP3    H1 8495   3.849   7.873   3.221 -0.5345  1.8296  1.6186
 2853TIP3    H2 8496   3.864   7.983   3.119  0.8562 -1.6024 -2.0135
 2854TIP3   OH2 8497   3.154   1.768   1.405  0.3634 -0.0457 -0.2183
 2854TIP3    H1 8498   3.130   1.785   1.314 -1.0919  0.4596  0.2529
 2854TIP3    H2 8499   3.071   1.757   1.450  0.9981  1.4585  1.3850
 2855TIP3   OH2 8500   4.667   1.138   1.085  0.1851  0.6286 -0.4477
 2855TIP3    H1 8501   4.734   1.131   1.017 -0.1517  0.2865 -0.7516
 2855TIP3    H2 8502   4.622   1.053   1.082  0.2473  0.5688  0.2837
 2856TIP3   OH2 8503   3.736   6.936   2.311  0.1219  0.0323 -0.3146
 2856TIP3    H1 8504   3.714   6.869   2.375 -1.7556 -0.3916 -1.3698
 2856TIP3    H2 8505   3.737   7.018   2.361  0.0356 -0.4587  0.4995
 2857TIP3   OH2 8506   3.431   1.189   2.360  0.0289  0.1672 -0.2017
 2857TIP3    H1 8507   3.352   1.241   2.378 -0.0547 -0.4436  1.2759
 2857TIP3    H2 8508   3.400   1.098   2.363  1.0940 -0.1583  2.1322
 2858TIP3   OH2 8509   7.456   3.464   2.220 -0.0439  0.5052  0.2059
 2858TIP3    H1 8510   7.416   3.541   2.179  1.7822  0.9092 -0.9122
 2858TIP3    H2 8511   7.429   3.468   2.311 -0.4054  2.2085  0.0464
 2859TIP3   OH2 8512   4.765   0.672   2.368 -0.3954 -0.2605 -0.3613
 2859TIP3    H1 8513   4.739   0.764   2.356  1.9643  0.4410 -0.3364
 2859TIP3    H2 8514   4.773   0.662   2.463  0.5062 -0.1350 -0.4168
 2860TIP3   OH2 8515   3.548   0.572   1.403 -0.4368  0.1117  0.8821
 2860TIP3    H1 8516   3.505   0.654   1.378 -1.6531 -0.4828  0.9453
 2860TIP3    H2 8517   3.574   0.532   1.320  0.5087  0.7469  0.8745
 2861TIP3   OH2 8518   2.817   2.757   2.238 -0.5183 -0.0008  0.4296
 2861TIP3    H1 8519   2.792   2.835   2.188  0.1915 -0.1565 -0.1813
 2861TIP3    H2 8520   2.867   2.792   2.312 -0.6534  0.1578  0.4466
 2862TIP3   OH2 8521   3.266   8.008   4.490 -0.5546 -0.8868  0.0460
 2862TIP3    H1 8522   3.237   8.006   4.398 -0.6305 -2.0602  0.0885
 2862TIP3    H2 8523   3.230   7.928   4.528 -1.8656  0.4020  1.5310
 2863TIP3   OH2 8524   5.361   1.975   3.362  0.2347 -0.2454  0.0307
 2863TIP3    H1 8525   5.296   2.044   3.352 -1.1757 -1.5024  0.3298
 2863TIP3    H2 8526   5.443   2.021   3.377 -0.1526  1.4193 -2.6523
 2864TIP3   OH2 8527   7.595   1.792   3.701  0.4888  0.4575 -0.6409
 2864TIP3    H1 8528   7.639   1.734   3.637 -0.1384  0.8500 -1.4313
 2864TIP3    H2 8529   7.508   1.754   3.712 -0.2510  1.7628 -1.8597
 2865TIP3   OH2 8530   5.371   2.292   1.439 -0.0519 -0.4477  0.0413
 2865TIP3    H1 8531   5.348   2.206   1.474  0.0044 -0.3359  0.3534
 2865TIP3    H2 8532   5.461   2.307   1.468 -1.1615  1.1612  2.8558
 2866TIP3   OH2 8533   4.424   4.331   3.387  0.1439  0.1148 -0.0437
 2866TIP3    H1 8534   4.422   4.236   3.401 -0.7000  0.3509  1.5466
 2866TIP3    H2 8535   4.509   4.358   3.421  0.6445 -0.1346 -1.0604
 2867TIP3   OH2 8536   5.183   2.502   3.384  0.1240 -0.1181 -0.6230
 2867TIP3    H1 8537   5.226   2.452   3.454  2.4343  1.2375 -1.0315
 2867TIP3    H2 8538   5.224   2.470   3.303 -0.6587  0.2070 -1.1553
 2868TIP3   OH2 8539   6.066   3.062   1.689  0.0535  0.2637 -0.0374
 2868TIP3    H1 8540   6.138   3.000   1.707 -1.0892 -1.0395  0.1209
 2868TIP3    H2 8541   6.099   3.117   1.618  0.2063 -2.0699 -1.8256
 2869TIP3   OH2 8542   6.039   1.784   3.427 -0.4351 -0.3606  0.3304
 2869TIP3    H1 8543   5.997   1.865   3.456 -0.5724  0.2646 -1.5254
 2869TIP3    H2 8544   6.087   1.809   3.348  3.0796 -1.1622  2.1079
 2870TIP3   OH2 8545   1.199   7.338   3.641  0.0491  0.1819  0.2954
 2870TIP3    H1 8546   1.129   7.382   3.593 -1.2856 -1.9681  0.2131
 2870TIP3    H2 8547   1.268   7.324   3.576 -0.8865 -0.8062 -0.5038
 2871TIP3   OH2 8548   7.776   1.640   2.116 -0.0469 -0.0016  0.0434
 2871TIP3    H1 8549   7.717   1.659   2.043 -0.6564 -0.1492  0.4843
 2871TIP3    H2 8550   7.814   1.724   2.139 -2.7565  0.7493  2.0047
 2872TIP3   OH2 8551   5.817   1.567   4.453 -0.6827 -0.3351  0.4534
 2872TIP3    H1 8552   5.837   1.518   4.374 -1.7223  1.5826 -1.0448
 2872TIP3    H2 8553   5.801   1.500   4.520  2.2271 -1.9545 -0.4041
 2873TIP3   OH2 8554   8.159   1.636   2.343  0.2628 -0.7964  0.0360
 2873TIP3    H1 8555   8.162   1.573   2.272 -0.2540 -1.9396  1.0128
 2873TIP3    H2 8556   8.077   1.617   2.389  0.2985  0.3149  0.5870
 2874TIP3   OH2 8557   7.581   2.107   1.355  0.6445  0.7695 -0.2616
 2874TIP3    H1 8558   7.648   2.107   1.424  0.5197  0.9304 -0.1398
 2874TIP3    H2 8559   7.623   2.148   1.280  1.4033 -1.0831 -0.8826
 2875TIP3   OH2 8560   7.214   2.657   3.035 -0.2375  0.4870  0.1219
 2875TIP3    H1 8561   7.124   2.688   3.041 -1.2809 -2.4839  1.0085
 2875TIP3    H2 8562   7.221   2.620   2.947 -0.1508 -0.0534  0.3536
 2876TIP3   OH2 8563   8.101   1.452   3.555 -0.0982 -0.2269 -0.0946
 2876TIP3    H1 8564   8.046   1.392   3.605  0.0226  0.3976  0.8116
 2876TIP3    H2 8565   8.098   1.419   3.466  0.3201 -1.8348  0.4730
 2877TIP3   OH2 8566   4.144   7.147   2.973 -0.0744 -0.2307  0.0375
 2877TIP3    H1 8567   4.117   7.094   2.898  1.0525 -0.0511 -0.5150
 2877TIP3    H2 8568   4.141   7.237   2.940  2.0432 -0.2734 -0.3210
 2878TIP3   OH2 8569   6.674   1.659   0.721  0.6282  0.1002  0.0628
 2878TIP3    H1 8570   6.694   1.730   0.661  2.4323  0.9611  1.6315
 2878TIP3    H2 8571   6.752   1.651   0.776 -1.0184 -0.5287  2.4083
 2879TIP3   OH2 8572   6.558   1.565   3.131  0.2870 -0.2707  0.4965
 2879TIP3    H1 8573   6.524   1.559   3.220 -1.7452  2.1576 -0.0527
 2879TIP3    H2 8574   6.486   1.533   3.076  0.7878  0.0751 -0.3670
 2880TIP3   OH2 8575   7.405   2.210   2.930  0.9883 -0.3409 -0.2015
 2880TIP3    H1 8576   7.383   2.126   2.891 -0.9739 -0.3325  0.8187
 2880TIP3    H2 8577   7.394   2.197   3.024 -0.3030  1.2891 -0.0857
 2881TIP3   OH2 8578   5.228   1.778   3.758  0.2591  0.5360 -0.1399
 2881TIP3    H1 8579   5.185   1.860   3.730 -0.1879 -0.3609 -2.1967
 2881TIP3    H2 8580   5.212   1.718   3.685 -0.3389 -1.7197  1.8252
 2882TIP3   OH2 8581   5.597   2.133   3.069 -0.7240 -0.4439 -0.4504
 2882TIP3    H1 8582   5.654   2.056   3.073 -0.0219  0.0889 -0.0617
 2882TIP3    H2 8583   5.539   2.117   2.995  1.3780  0.0101 -2.2211
 2883TIP3   OH2 8584   6.785   2.294   1.165 -0.0321  0.1689 -0.1621
 2883TIP3    H1 8585   6.873   2.323   1.185 -1.2001  2.4028  2.0035
 2883TIP3    H2 8586   6.785   2.200   1.187  2.0300 -0.0684 -1.0998
 2884TIP3   OH2 8587   4.003   4.279   3.617  0.0770 -0.1319  0.4300
 2884TIP3    H1 8588   4.029   4.349   3.557  0.3941 -0.9601 -0.4205
 2884TIP3    H2 8589   3.913   4.299   3.640  0.0429  0.3518 -0.1068
 2885TIP3   OH2 8590   6.112   3.808   4.408  0.0360  0.2825 -0.3293
 2885TIP3    H1 8591   6.066   3.888   4.381 -0.5779  0.4260  1.0785
 2885TIP3    H2 8592   6.069   3.738   4.359 -2.2560  0.3162  1.5779
 2886TIP3   OH2 8593   8.283   4.287   2.737  0.8271  0.0023 -0.2201
 2886TIP3    H1 8594   8.274   4.225   2.666  2.4407 -1.0878  0.4900
 2886TIP3    H2 8595   8.357   4.343   2.711  0.6349  0.3845  0.0410
 2887TIP3   OH2 8596   6.626   3.863   2.747  0.0721  0.1386  0.2256
 2887TIP3    H1 8597   6.721   3.876   2.746 -0.0291  0.9005  0.3429
 2887TIP3    H2 8598   6.594   3.917   2.675 -0.4850  1.5907  1.5373
 2888TIP3   OH2 8599   7.024   1.081   3.846  0.0400  0.7236 -0.0149
 2888TIP3    H1 8600   6.931   1.097   3.832  0.1625  1.1607 -0.3635
 2888TIP3    H2 8601   7.028   0.994   3.884 -0.3852 -0.1082 -1.8037
 2889TIP3   OH2 8602   5.129   3.825   2.057  0.3643  0.2006 -0.0607
 2889TIP3    H1 8603   5.219   3.839   2.087  0.4752 -0.1636 -0.2215
 2889TIP3    H2 8604   5.085   3.787   2.133  1.1317 -2.5527 -0.9420
 2890TIP3   OH2 8605   7.158   2.020   0.882  0.0590  0.4387  0.2463
 2890TIP3    H1 8606   7.137   1.945   0.937  1.0185 -0.1520 -0.1931
 2890TIP3    H2 8607   7.110   2.093   0.922  0.3331 -0.0872  1.5635
 2891TIP3   OH2 8608   5.742   0.596   4.036  0.0916 -0.1919  0.1567
 2891TIP3    H1 8609   5.655   0.568   4.064  0.5838 -0.2661  1.6595
 2891TIP3    H2 8610   5.793   0.602   4.117  0.8802  1.9747 -0.4665
 2892TIP3   OH2 8611   7.030   1.534   2.473 -0.6497 -0.1541  0.2152
 2892TIP3    H1 8612   6.981   1.527   2.554 -0.8057 -0.6352  0.0806
 2892TIP3    H2 8613   6.977   1.487   2.408 -0.7824  0.6647 -0.2792
 2893TIP3   OH2 8614   6.222   0.133   2.090 -0.1287 -0.1673  0.1463
 2893TIP3    H1 8615   6.196   0.117   1.999  0.3697  0.5660 -0.1321
 2893TIP3    H2 8616   6.186   0.059   2.139  0.4208 -1.0597 -0.7898
 2894TIP3   OH2 8617   5.727   2.056   3.446  0.0095  0.2713  0.4340
 2894TIP3    H1 8618   5.767   2.142   3.435 -2.0257  1.0751 -0.9085
 2894TIP3    H2 8619   5.758   2.027   3.532  0.4368  2.5131  1.0908
 2895TIP3   OH2 8620   5.290   7.837   3.477 -0.0931  0.7112 -0.5457
 2895TIP3    H1 8621   5.359   7.895   3.508 -1.0052  0.4265  2.1243
 2895TIP3    H2 8622   5.315   7.750   3.508 -0.5247  0.2531 -1.4688
 2896TIP3   OH2 8623   7.955   2.542   2.244 -0.1768  0.4141 -0.4503
 2896TIP3    H1 8624   7.890   2.586   2.188 -0.8621 -0.6166 -0.4871
 2896TIP3    H2 8625   7.903   2.480   2.295  0.5665  0.7609  0.7330
 2897TIP3   OH2 8626   4.840   2.411   3.282  0.1473 -0.0688 -0.6114
 2897TIP3    H1 8627   4.765   2.358   3.310  0.2746  0.2329  0.3364
 2897TIP3    H2 8628   4.811   2.502   3.296  0.3062  0.0845 -1.2510
 2898TIP3   OH2 8629   6.476   3.658   2.881 -0.4223  0.3531 -0.5407
 2898TIP3    H1 8630   6.402   3.665   2.821  0.2580  0.2615 -1.4032
 2898TIP3    H2 8631   6.536   3.728   2.855 -0.1640  0.3868  0.1097
 2899TIP3   OH2 8632   6.562   3.918   1.860 -0.3340  0.1472  0.1956
 2899TIP3    H1 8633   6.495   3.849   1.864  0.5402 -0.7435 -0.2595
 2899TIP3    H2 8634   6.527   3.988   1.914 -0.8100 -1.0465  1.4776
 2900TIP3   OH2 8635   4.593   5.770   3.066 -0.4693 -0.2228 -0.0904
 2900TIP3    H1 8636   4.526   5.810   3.122  0.7462  1.6129  0.0903
 2900TIP3    H2 8637   4.557   5.684   3.044 -1.4876 -0.5234  2.5431
 2901TIP3   OH2 8638   6.185   1.014   3.699  0.1336  0.0192 -0.1115
 2901TIP3    H1 8639   6.119   0.998   3.630  0.4722  0.7771 -0.6131
 2901TIP3    H2 8640   6.234   1.090   3.668  1.4074 -0.6814  0.1413
 2902TIP3   OH2 8641   8.271   3.299   1.399  0.1739 -0.1600  0.7135
 2902TIP3    H1 8642   8.323   3.326   1.323 -0.9076 -1.6566 -0.5929
 2902TIP3    H2 8643   8.211   3.373   1.413 -1.3868 -0.9190 -1.5546
 2903TIP3   OH2 8644   5.092   2.061   4.221  0.5684 -0.3547  0.0687
 2903TIP3    H1 8645   5.124   2.135   4.274  0.5324 -2.6992  3.5353
 2903TIP3    H2 8646   5.013   2.095   4.178  0.1701  1.4732  2.1352
 2904TIP3   OH2 8647   5.503   1.207   1.736 -0.0261  0.4893 -0.3108
 2904TIP3    H1 8648   5.591   1.218   1.698 -0.8784  0.4499 -2.3495
 2904TIP3    H2 8649   5.479   1.295   1.766 -0.7214  1.2397 -2.9877
 2905TIP3   OH2 8650   5.997   3.449   3.852 -0.2185  0.2485 -0.1913
 2905TIP3    H1 8651   5.975   3.542   3.847 -0.2399  0.2370 -0.3097
 2905TIP3    H2 8652   6.028   3.426   3.764  1.3415  0.5307  0.2733
 2906TIP3   OH2 8653   6.585   0.946   2.564  0.1568 -0.1105 -0.1028
 2906TIP3    H1 8654   6.512   0.885   2.565 -0.2175  0.2993 -1.0560
 2906TIP3    H2 8655   6.663   0.891   2.561 -0.1057 -0.5487  0.8846
 2907TIP3   OH2 8656   8.155   3.225   1.983  0.2135 -0.0721 -0.6931
 2907TIP3    H1 8657   8.086   3.287   1.959 -1.7649 -1.1711  1.9999
 2907TIP3    H2 8658   8.210   3.274   2.044 -0.9365 -0.6820  0.8670
 2908TIP3   OH2 8659   0.299   1.545   1.546  0.2991  0.3314  0.0427
 2908TIP3    H1 8660   0.352   1.513   1.473 -2.2278  0.1512 -1.7812
 2908TIP3    H2 8661   0.210   1.544   1.512 -0.6785  2.2597  2.4644
 2909TIP3   OH2 8662   5.198   4.093   1.613 -0.3255  0.0726 -0.1669
 2909TIP3    H1 8663   5.208   4.070   1.705  1.7236  0.9824 -0.1480
 2909TIP3    H2 8664   5.245   4.176   1.603 -0.7820  0.1444 -1.9650
 2910TIP3   OH2 8665   5.957   2.778   0.488 -0.4114  0.2409  0.4884
 2910TIP3    H1 8666   5.913   2.741   0.412 -0.2434  0.6293  0.1957
 2910TIP3    H2 8667   5.985   2.703   0.539 -1.7284 -0.0090  0.8583
 2911TIP3   OH2 8668   6.302   3.024   2.290 -0.6106  0.1611 -0.2166
 2911TIP3    H1 8669   6.326   3.109   2.327 -2.2965  0.2516  0.7500
 2911TIP3    H2 8670   6.383   2.973   2.291  0.2782  1.5598 -0.2573
 2912TIP3   OH2 8671   7.762   3.542   5.000 -0.2024 -0.0939 -0.2306
 2912TIP3    H1 8672   7.684   3.554   5.054  0.0460  0.4393  0.0225
 2912TIP3    H2 8673   7.749   3.458   4.956 -0.6212 -0.3112  0.3014
 2913TIP3   OH2 8674   5.232   3.585   3.761 -0.0911  0.1467 -0.0249
 2913TIP3    H1 8675   5.146   3.611   3.731 -0.1148  0.7479  0.5570
 2913TIP3    H2 8676   5.269   3.535   3.688 -1.0324 -0.3526 -0.1682
 2914TIP3   OH2 8677   0.916   7.661   4.694 -0.3052  0.3381  0.0812
 2914TIP3    H1 8678   0.853   7.616   4.637  1.0853 -2.3913  0.6398
 2914TIP3    H2 8679   0.986   7.690   4.635 -0.1394 -0.1735  0.0258
 2915TIP3   OH2 8680   6.458   3.342   1.364 -0.3291  0.2858  0.8215
 2915TIP3    H1 8681   6.486   3.340   1.455  0.3006  0.5614  0.6390
 2915TIP3    H2 8682   6.448   3.435   1.344  1.6562  0.3415 -0.0160
 2916TIP3   OH2 8683   5.989   3.097   1.179 -0.0336  0.2062 -0.7138
 2916TIP3    H1 8684   5.977   3.063   1.090  0.3775  0.2009 -0.7650
 2916TIP3    H2 8685   6.080   3.080   1.200  0.4735  2.1964 -1.1422
 2917TIP3   OH2 8686   7.921   1.686   4.581 -0.4065  0.0608 -0.3951
 2917TIP3    H1 8687   7.976   1.749   4.533 -0.9619  0.3973 -0.6068
 2917TIP3    H2 8688   7.966   1.672   4.664  0.9487 -1.0771 -1.2959
 2918TIP3   OH2 8689   5.131   3.749   2.921  0.4245  0.1891  0.2787
 2918TIP3    H1 8690   5.053   3.804   2.924 -0.7083 -1.4306  2.8268
 2918TIP3    H2 8691   5.201   3.804   2.955 -0.1031  0.9109  0.2091
 2919TIP3   OH2 8692   7.231   0.491   2.163 -0.0683  0.0219 -0.3996
 2919TIP3    H1 8693   7.217   0.568   2.218  3.5433 -0.8515  1.9704
 2919TIP3    H2 8694   7.235   0.525   2.074  0.3889  2.4245  0.4889
 2920TIP3   OH2 8695   6.881   0.746   4.716 -0.1869 -0.1219 -0.1359
 2920TIP3    H1 8696   6.811   0.704   4.766 -0.7568  1.9611  0.8642
 2920TIP3    H2 8697   6.838   0.817   4.669  0.6092 -1.1394 -2.4882
 2921TIP3   OH2 8698   6.861   1.202   2.891  0.2108  0.4663  0.1325
 2921TIP3    H1 8699   6.897   1.289   2.905  1.3481 -0.1647  1.2707
 2921TIP3    H2 8700   6.920   1.144   2.939 -0.5068 -0.9323 -0.6458
 2922TIP3   OH2 8701   8.215   2.351   1.876  0.2868 -0.4525  0.4518
 2922TIP3    H1 8702   8.308   2.354   1.899  0.2918  0.5748  0.3329
 2922TIP3    H2 8703   8.212   2.297   1.797  1.0826  1.4110 -0.8839
 2923TIP3   OH2 8704   6.683   0.139   1.738  0.6414  0.6493  0.2066
 2923TIP3    H1 8705   6.772   0.116   1.710  1.4059  4.4205 -0.7208
 2923TIP3    H2 8706   6.640   0.170   1.659 -1.3404 -0.5404  0.7822
 2924TIP3   OH2 8707   7.681   3.297   3.824  0.7579  0.1387 -0.3932
 2924TIP3    H1 8708   7.703   3.270   3.735  3.1569 -1.3099  0.5936
 2924TIP3    H2 8709   7.705   3.389   3.828 -3.1928  1.3725 -2.4182
 2925TIP3   OH2 8710   7.310   2.774   0.579  0.7014 -0.0897 -0.5704
 2925TIP3    H1 8711   7.329   2.681   0.594 -1.4635 -0.4303  0.3160
 2925TIP3    H2 8712   7.330   2.789   0.487 -0.9097 -1.9711 -1.2514
 2926TIP3   OH2 8713   6.855   2.684   1.672 -0.6616 -0.6354  0.5291
 2926TIP3    H1 8714   6.936   2.710   1.630 -0.4997 -0.0612  1.1900
 2926TIP3    H2 8715   6.794   2.670   1.599 -0.4054  0.4083  0.1061
 2927TIP3   OH2 8716   5.329   3.568   4.020  0.2578 -0.0308  0.8371
 2927TIP3    H1 8717   5.291   3.490   4.060 -0.4362 -0.1906 -0.1223
 2927TIP3    H2 8718   5.304   3.563   3.928 -0.4917  1.7386  0.9244
 2928TIP3   OH2 8719   7.607   3.066   1.424  0.1159 -0.3243 -0.7220
 2928TIP3    H1 8720   7.613   3.107   1.338  3.1361 -2.3734 -1.5741
 2928TIP3    H2 8721   7.569   2.980   1.407 -1.9899  0.3338  0.4444
 2929TIP3   OH2 8722   4.539   2.306   5.025  0.0478 -0.0783 -0.3218
 2929TIP3    H1 8723   4.509   2.383   5.075  3.4280 -0.2283  2.0612
 2929TIP3    H2 8724   4.541   2.337   4.934  1.5940  2.8157  0.6108
 2930TIP3   OH2 8725   7.428   0.061   4.596 -0.0799 -0.1716 -0.4768
 2930TIP3    H1 8726   7.335   0.076   4.580 -0.3007 -1.3978 -0.3951
 2930TIP3    H2 8727   7.434  -0.032   4.618  0.9579  0.2415  1.0683
 2931TIP3   OH2 8728   5.833   1.067   0.219 -0.5364 -0.1747  0.7431
 2931TIP3    H1 8729   5.889   1.034   0.149 -1.1636  0.1154  0.0979
 2931TIP3    H2 8730   5.876   1.146   0.250 -1.0356  0.5423 -0.3545
 2932TIP3   OH2 8731   5.454   0.949   2.738 -0.5827  0.0743 -0.1464
 2932TIP3    H1 8732   5.505   0.937   2.818 -0.2338 -1.1418 -0.5501
 2932TIP3    H2 8733   5.452   0.863   2.697  0.2609  0.9262 -2.0537
 2933TIP3   OH2 8734   4.497   2.182   4.003  0.3730 -0.6848  0.3373
 2933TIP3    H1 8735   4.469   2.184   3.911 -0.1670 -0.9637  0.4912
 2933TIP3    H2 8736   4.463   2.099   4.036 -0.6908  0.0661  1.1725
 2934TIP3   OH2 8737   7.997   0.671   1.451  0.0263 -0.6047  0.0630
 2934TIP3    H1 8738   7.916   0.719   1.470 -0.2900 -0.7704 -0.8587
 2934TIP3    H2 8739   7.981   0.630   1.366  1.1208 -0.5501 -0.1715
 2935TIP3   OH2 8740   8.243   2.541   3.812 -0.8659 -0.2410 -0.2790
 2935TIP3    H1 8741   8.225   2.577   3.725 -0.9963 -0.9848 -0.5575
 2935TIP3    H2 8742   8.290   2.460   3.795 -2.8373 -1.5318  0.2650
 2936TIP3   OH2 8743   4.991   3.248   3.492 -0.2980 -0.2837 -0.2831
 2936TIP3    H1 8744   5.001   3.157   3.463 -3.0771 -1.0724  1.0149
 2936TIP3    H2 8745   4.946   3.291   3.419 -0.9203 -0.5056 -0.0356
 2937TIP3   OH2 8746   6.833   2.984   1.539  0.3349 -0.0393 -0.7242
 2937TIP3    H1 8747   6.913   2.936   1.520  0.6505 -0.0256  0.4783
 2937TIP3    H2 8748   6.800   2.943   1.620  0.2481  1.3151 -0.0605
 2938TIP3   OH2 8749   6.677   2.709   1.416 -0.7674 -0.2134  0.1480
 2938TIP3    H1 8750   6.723   2.706   1.332 -2.5264  1.0281 -0.8986
 2938TIP3    H2 8751   6.614   2.637   1.411  0.0384 -0.9825  0.9682
 2939TIP3   OH2 8752   5.120   2.160   3.402  0.2102 -0.4313  0.2310
 2939TIP3    H1 8753   5.140   2.246   3.439  1.4992 -0.6012 -0.0618
 2939TIP3    H2 8754   5.090   2.178   3.313  0.1547 -0.2587  0.2859
 2940TIP3   OH2 8755   6.591   4.142   3.492 -0.0013  0.5314 -0.0930
 2940TIP3    H1 8756   6.680   4.117   3.467 -0.2553  0.1532 -0.6217
 2940TIP3    H2 8757   6.592   4.143   3.587  0.0892 -1.2195 -0.0613
 2941TIP3   OH2 8758   5.581   2.673   2.930  0.5447 -0.9754  0.3834
 2941TIP3    H1 8759   5.505   2.724   2.902  0.1040 -1.5384  0.5609
 2941TIP3    H2 8760   5.546   2.608   2.991  1.4218 -0.0380  1.9446
 2942TIP3   OH2 8761   5.702   2.994   2.722  0.0891 -0.7175 -0.0121
 2942TIP3    H1 8762   5.652   3.052   2.779  1.3102  2.2631 -1.8412
 2942TIP3    H2 8763   5.636   2.938   2.681 -1.3312  0.5327  0.5030
 2943TIP3   OH2 8764   7.660   0.912   1.705  0.2057 -0.1892 -0.0887
 2943TIP3    H1 8765   7.724   0.983   1.697 -0.6515  0.7598  1.3249
 2943TIP3    H2 8766   7.711   0.832   1.693  1.5185  0.5911  0.2462
 2944TIP3   OH2 8767   5.685   4.124   2.800  0.0145  0.0988  0.3717
 2944TIP3    H1 8768   5.619   4.169   2.747 -0.6635  0.4471  1.4939
 2944TIP3    H2 8769   5.741   4.195   2.831  1.1445 -0.2298 -0.8599
 2945TIP3   OH2 8770   6.885   2.793   0.410  0.2822  0.3763 -0.2499
 2945TIP3    H1 8771   6.934   2.864   0.451 -0.0382  1.3292 -1.4827
 2945TIP3    H2 8772   6.802   2.833   0.384  0.4609 -0.2079 -1.7792
 2946TIP3   OH2 8773   8.004   4.377   6.136  0.0329  0.2068 -0.7167
 2946TIP3    H1 8774   8.044   4.455   6.098 -0.3263  0.9985  0.5098
 2946TIP3    H2 8775   7.910   4.388   6.121 -0.0898  0.3982  0.1461
 2947TIP3   OH2 8776   5.775   2.268   1.122  0.0157  0.2423 -0.6078
 2947TIP3    H1 8777   5.783   2.259   1.027 -0.3977 -0.3452 -0.5877
 2947TIP3    H2 8778   5.737   2.186   1.151 -1.3982  1.0503 -0.1211
 2948TIP3   OH2 8779   6.844   1.452   1.776 -0.4020  0.1752  0.1590
 2948TIP3    H1 8780   6.890   1.421   1.698  0.1353 -0.4304  0.7134
 2948TIP3    H2 8781   6.764   1.492   1.742  1.3658  2.9129 -0.9624
 2949TIP3   OH2 8782   6.018   1.771   2.162 -0.1635  0.4333 -0.4793
 2949TIP3    H1 8783   5.972   1.770   2.078 -2.4261  1.0547  0.6894
 2949TIP3    H2 8784   6.026   1.679   2.187 -1.0261  0.3238 -0.5912
 2950TIP3   OH2 8785   5.611   2.855   2.126  0.0779  0.3706 -0.0370
 2950TIP3    H1 8786   5.528   2.847   2.174  0.7370 -1.8080  0.7751
 2950TIP3    H2 8787   5.678   2.828   2.188  1.0952 -0.9187 -1.6416
 2951TIP3   OH2 8788   4.390   1.015   3.080 -0.1868  0.0133  0.2856
 2951TIP3    H1 8789   4.328   1.083   3.051 -1.6515 -1.5172 -0.2456
 2951TIP3    H2 8790   4.401   1.031   3.174 -0.8428  0.7306  0.2473
 2952TIP3   OH2 8791   5.999   1.241   4.471  0.1591  0.2529  0.5311
 2952TIP3    H1 8792   5.986   1.333   4.448  0.3600  0.5785  1.7108
 2952TIP3    H2 8793   6.094   1.228   4.463  0.3786  0.6895  2.3544
 2953TIP3   OH2 8794   6.381   4.043   3.205 -0.7979 -0.2230 -0.6581
 2953TIP3    H1 8795   6.332   3.998   3.136  1.7886 -2.2390 -1.2479
 2953TIP3    H2 8796   6.363   3.991   3.284  1.3866 -1.7799 -1.1416
 2954TIP3   OH2 8797   7.944   2.921   2.044  0.2326  0.1025 -0.2002
 2954TIP3    H1 8798   7.939   3.011   2.076 -0.5257  0.1274 -0.3761
 2954TIP3    H2 8799   7.975   2.929   1.954 -0.9742  0.2809 -0.6119
 2955TIP3   OH2 8800   6.735   1.788   2.145 -0.4545  0.0664 -0.2766
 2955TIP3    H1 8801   6.764   1.744   2.225 -0.8546 -1.5317 -0.9898
 2955TIP3    H2 8802   6.813   1.790   2.089 -0.4497  0.1990 -0.2640
 2956TIP3   OH2 8803   7.849   2.782   0.471  0.2559 -0.0761 -0.0675
 2956TIP3    H1 8804   7.836   2.867   0.512 -0.3627 -0.0759 -0.2713
 2956TIP3    H2 8805   7.778   2.774   0.408  0.9326 -0.2826 -0.8071
 2957TIP3   OH2 8806   5.018   2.944   3.481 -0.3851  0.3323  0.2069
 2957TIP3    H1 8807   5.049   2.861   3.517 -0.3802  0.1355 -0.2465
 2957TIP3    H2 8808   4.924   2.946   3.503  0.0064  1.0831  1.8724
 2958TIP3   OH2 8809   6.635   1.372   1.943  0.2451  0.1209  0.1664
 2958TIP3    H1 8810   6.644   1.281   1.971 -0.2006 -0.3434 -1.1384
 2958TIP3    H2 8811   6.722   1.396   1.910  0.3058  0.0991  0.3107
 2959TIP3   OH2 8812   5.726   2.254   2.304 -0.2916 -0.1727 -0.1813
 2959TIP3    H1 8813   5.701   2.205   2.225 -0.4180  0.3973 -0.4980
 2959TIP3    H2 8814   5.813   2.220   2.326  0.4441  0.8098 -1.5091
 2960TIP3   OH2 8815   5.607   0.883   1.922 -0.1358  0.0091  0.0097
 2960TIP3    H1 8816   5.621   0.889   1.827 -2.0910  0.0630 -0.3034
 2960TIP3    H2 8817   5.665   0.813   1.951  0.4740 -0.0131 -1.2296
 2961TIP3   OH2 8818   5.788   3.242   3.947 -0.0671 -0.0345 -0.0825
 2961TIP3    H1 8819   5.859   3.300   3.920  0.4323 -0.4720  0.2749
 2961TIP3    H2 8820   5.721   3.253   3.880 -0.5598  1.9871  0.6833
 2962TIP3   OH2 8821   5.940   0.753   1.104  0.8924 -0.2912  0.2177
 2962TIP3    H1 8822   5.949   0.665   1.140  0.5244 -0.9085 -1.1828
 2962TIP3    H2 8823   5.911   0.740   1.014 -1.1526  1.3165  0.5963
 2963TIP3   OH2 8824   7.014   0.355   2.499 -0.1032 -0.4044  0.3067
 2963TIP3    H1 8825   7.024   0.399   2.584  1.6551  0.0028 -0.0838
 2963TIP3    H2 8826   6.942   0.400   2.457  1.5822  2.0983 -0.0376
 2964TIP3   OH2 8827   7.263   1.505   2.859  0.1031  0.1117  0.9476
 2964TIP3    H1 8828   7.348   1.539   2.884 -0.1267  0.9713  0.5512
 2964TIP3    H2 8829   7.232   1.563   2.790  0.4441 -1.8746 -0.9223
 2965TIP3   OH2 8830   5.808   1.956   4.364  0.1077 -0.2419 -0.5081
 2965TIP3    H1 8831   5.836   1.972   4.454  1.9331 -2.4194 -0.6396
 2965TIP3    H2 8832   5.719   1.991   4.359  0.3171  0.6741  1.8884
 2966TIP3   OH2 8833   6.791   2.481   2.870 -0.2787 -0.3693 -0.1332
 2966TIP3    H1 8834   6.712   2.440   2.834 -0.9232  0.8121 -0.0634
 2966TIP3    H2 8835   6.815   2.548   2.807 -0.2266  0.3274  0.6217
 2967TIP3   OH2 8836   6.569   0.885   3.447  0.1501 -0.2663  0.5252
 2967TIP3    H1 8837   6.544   0.853   3.534 -0.5672  0.0997  0.4528
 2967TIP3    H2 8838   6.662   0.907   3.456  0.3371 -1.1831  0.9226
 2968TIP3   OH2 8839   7.217   2.371   0.454  0.1350 -0.1355  0.8010
 2968TIP3    H1 8840   7.230   2.386   0.547 -0.7734  2.2245  0.5794
 2968TIP3    H2 8841   7.122   2.373   0.442  0.2818  1.0324 -0.3687
 2969TIP3   OH2 8842   3.667   1.307   4.735 -0.2498  0.1044  0.4227
 2969TIP3    H1 8843   3.576   1.292   4.757 -0.1025 -0.9755  0.3209
 2969TIP3    H2 8844   3.666   1.330   4.642 -0.4025 -0.0234  0.3939
 2970TIP3   OH2 8845   6.322   1.182   3.339  0.4572 -0.2170 -0.4996
 2970TIP3    H1 8846   6.395   1.139   3.295  0.7227 -0.0161 -0.2581
 2970TIP3    H2 8847   6.271   1.110   3.377  2.6423 -0.2137  2.6501
 2971TIP3   OH2 8848   5.648   3.282   4.182 -0.7341  0.3664 -0.6996
 2971TIP3    H1 8849   5.584   3.211   4.176  1.6937 -2.0362  0.9366
 2971TIP3    H2 8850   5.698   3.275   4.101 -0.2406 -0.0267 -0.3588
 2972TIP3   OH2 8851   4.053   4.586   2.147  0.7175  0.1368 -0.9253
 2972TIP3    H1 8852   4.144   4.558   2.154  1.2006  1.8026 -0.1520
 2972TIP3    H2 8853   4.041   4.647   2.220 -1.6253 -1.6225  0.2385
 2973TIP3   OH2 8854   7.161   3.665   3.124 -0.0598 -0.3959 -0.0369
 2973TIP3    H1 8855   7.235   3.619   3.163  0.2506 -0.8220 -1.1225
 2973TIP3    H2 8856   7.088   3.646   3.183  0.1797 -1.8784 -0.1888
 2974TIP3   OH2 8857   5.828   1.891   3.639  0.3600 -0.1939 -0.6564
 2974TIP3    H1 8858   5.896   1.927   3.695  1.0745 -0.7316 -1.1668
 2974TIP3    H2 8859   5.799   1.811   3.684  0.3679 -0.1929 -0.6492
 2975TIP3   OH2 8860   6.979   1.444   2.024  0.4827  0.2868  0.4563
 2975TIP3    H1 8861   6.921   1.456   1.948 -0.1225  0.8495  0.9981
 2975TIP3    H2 8862   7.020   1.530   2.036  1.4982 -0.1324  0.0281
 2976TIP3   OH2 8863   7.956   0.448   2.193  0.1443 -0.4965  0.4062
 2976TIP3    H1 8864   8.025   0.512   2.175  1.0251 -0.8741  2.2795
 2976TIP3    H2 8865   7.997   0.364   2.174  0.1064 -0.7082  1.2735
 2977TIP3   OH2 8866   6.800   2.271   4.993  0.0952 -0.0078  0.5113
 2977TIP3    H1 8867   6.716   2.250   5.034 -0.0143 -0.5842  0.0001
 2977TIP3    H2 8868   6.806   2.211   4.919  0.2887  1.0129 -0.3191
 2978TIP3   OH2 8869   7.369   3.406   3.120 -0.0178  0.0582 -0.1247
 2978TIP3    H1 8870   7.434   3.336   3.113 -0.3105 -0.3620  1.1570
 2978TIP3    H2 8871   7.299   3.369   3.175 -0.5856  1.0498 -0.1607
 2979TIP3   OH2 8872   6.557   2.225   2.363  0.4601  0.5200  0.1507
 2979TIP3    H1 8873   6.611   2.150   2.338 -1.8136 -1.4888  1.0355
 2979TIP3    H2 8874   6.499   2.239   2.289 -0.1085  0.4554  0.5809
 2980TIP3   OH2 8875   5.951   4.607   2.041 -0.2374 -0.2684  0.0837
 2980TIP3    H1 8876   5.899   4.621   2.120 -0.6779 -0.4948 -0.1610
 2980TIP3    H2 8877   5.924   4.520   2.010  1.2170 -0.9370  0.6527
 2981TIP3   OH2 8878   6.595   0.427   2.783 -0.1904 -0.2367 -0.6954
 2981TIP3    H1 8879   6.599   0.484   2.860 -1.3109  0.7193 -1.3319
 2981TIP3    H2 8880   6.506   0.440   2.749 -0.2842 -1.9783 -1.1467
 2982TIP3   OH2 8881   0.743   6.636   6.758 -0.0896 -0.4320  0.3646
 2982TIP3    H1 8882   0.733   6.555   6.709 -1.7109  0.8472 -1.5206
 2982TIP3    H2 8883   0.653   6.669   6.768  0.5978  1.4812  0.4724
 2983TIP3   OH2 8884   5.796   1.421   1.640  0.5202 -0.8296 -0.4082
 2983TIP3    H1 8885   5.779   1.359   1.711  0.3713  1.2201  1.4344
 2983TIP3    H2 8886   5.876   1.388   1.598  1.7840 -1.0134  2.0238
 2984TIP3   OH2 8887   4.122   1.003   2.637 -0.2248  0.3845 -1.1803
 2984TIP3    H1 8888   4.042   0.971   2.595  0.3866 -0.8310 -1.4303
 2984TIP3    H2 8889   4.193   0.969   2.584  0.6057 -2.1252  1.4011
 2985TIP3   OH2 8890   6.393   3.183   1.810  0.0575 -0.1128  0.2575
 2985TIP3    H1 8891   6.443   3.253   1.767 -0.3367  0.0340  0.0392
 2985TIP3    H2 8892   6.460   3.128   1.852  0.4151 -0.0313 -0.2059
 2986TIP3   OH2 8893   4.233   1.964   3.779  0.7714 -0.0347  0.4654
 2986TIP3    H1 8894   4.195   1.887   3.736  0.1717 -0.7592  2.2255
 2986TIP3    H2 8895   4.165   1.994   3.839  0.8987  2.0589 -0.3994
 2987TIP3   OH2 8896   5.951   2.666   4.018 -0.0092 -0.2981 -0.0932
 2987TIP3    H1 8897   6.039   2.698   4.035  0.6274 -1.4141 -1.2498
 2987TIP3    H2 8898   5.931   2.609   4.093 -1.5163  3.3602  2.4872
 2988TIP3   OH2 8899   5.013   2.467   4.295  0.0866 -0.3053 -0.0010
 2988TIP3    H1 8900   4.955   2.543   4.288  0.2582 -0.0285  1.5072
 2988TIP3    H2 8901   4.964   2.403   4.345  0.8224 -0.2998  0.7499
 2989TIP3   OH2 8902   5.889   2.290   4.788  0.0824 -0.5361 -0.3106
 2989TIP3    H1 8903   5.970   2.239   4.786  0.5579  0.2291 -0.9643
 2989TIP3    H2 8904   5.837   2.255   4.716  0.2137 -0.4147 -0.4649
 2990TIP3   OH2 8905   7.099   2.886   0.983  0.4626 -0.1306 -0.1142
 2990TIP3    H1 8906   7.093   2.905   1.077 -1.2870  0.8533 -0.4173
 2990TIP3    H2 8907   7.181   2.927   0.955  0.4794  0.4524  0.7715
 2991TIP3   OH2 8908   6.035   3.615   3.147  0.8598  0.0750  0.4552
 2991TIP3    H1 8909   5.990   3.651   3.071  1.9819 -0.9675 -0.7309
 2991TIP3    H2 8910   6.115   3.668   3.154  0.7686  0.1547  0.8952
 2992TIP3   OH2 8911   5.946   1.310   0.029  0.0226  0.8791  0.6010
 2992TIP3    H1 8912   5.991   1.282   0.109  0.7171  1.0521  0.2716
 2992TIP3    H2 8913   5.950   1.406   0.032 -1.3675  0.9309  1.1634
 2993TIP3   OH2 8914   5.377   3.319   4.904 -0.1917  0.3732 -0.2148
 2993TIP3    H1 8915   5.450   3.372   4.933 -1.3204  1.4750  0.6660
 2993TIP3    H2 8916   5.346   3.362   4.824  0.1208 -0.0889 -0.5864
 2994TIP3   OH2 8917   5.105   1.752   0.639  0.4909  0.1119 -0.7094
 2994TIP3    H1 8918   5.103   1.765   0.734 -0.7943  0.1731 -0.7424
 2994TIP3    H2 8919   5.197   1.765   0.615  0.8682 -0.1922  0.5629
 2995TIP3   OH2 8920   3.670   4.135   6.379  0.1077  0.1276  0.0237
 2995TIP3    H1 8921   3.682   4.044   6.404 -4.2012 -1.1549 -2.0201
 2995TIP3    H2 8922   3.728   4.148   6.304  1.1266 -0.7439  0.6511
 2996TIP3   OH2 8923   5.870   3.346   4.537  0.6351 -0.1013  0.1842
 2996TIP3    H1 8924   5.845   3.379   4.451 -0.4357  1.1089  0.9338
 2996TIP3    H2 8925   5.934   3.277   4.519 -1.3431 -1.5026 -1.6781
 2997TIP3   OH2 8926   5.727   3.055   4.407 -0.3196 -0.4822  0.4441
 2997TIP3    H1 8927   5.807   3.106   4.394  0.4441 -1.3426  1.5599
 2997TIP3    H2 8928   5.666   3.087   4.341  0.4074  1.3082  0.6345
 2998TIP3   OH2 8929   4.731   3.201   2.903 -0.1653 -0.0338 -0.2529
 2998TIP3    H1 8930   4.679   3.121   2.910 -0.7475  0.2986 -0.7528
 2998TIP3    H2 8931   4.712   3.249   2.984 -0.5205  0.0146 -0.3631
 2999TIP3   OH2 8932   6.952   2.921   2.601  0.1191 -0.1416  0.1262
 2999TIP3    H1 8933   7.034   2.902   2.648 -0.5767 -0.5490  1.1986
 2999TIP3    H2 8934   6.900   2.841   2.610 -1.3461  0.9355  1.4927
 3000TIP3   OH2 8935   7.298   3.134   3.267 -1.0303 -0.3778  0.1084
 3000TIP3    H1 8936   7.294   3.157   3.360  0.1686  0.9119 -0.1450
 3000TIP3    H2 8937   7.345   3.050   3.265  1.2712  0.8475  0.5072
 3001TIP3   OH2 8938   5.422   4.613   0.871 -0.5648  0.8322  0.5484
 3001TIP3    H1 8939   5.447   4.547   0.935  0.8332  1.2890  0.4867
 3001TIP3    H2 8940   5.357   4.569   0.815 -1.5804  0.3533  2.0814
 3002TIP3   OH2 8941   6.976   3.370   3.399 -0.7490 -0.1103 -0.2774
 3002TIP3    H1 8942   7.025   3.389   3.479  0.7608  0.1817 -1.2350
 3002TIP3    H2 8943   6.970   3.455   3.355 -1.5934 -0.2651 -0.4644
 3003TIP3   OH2 8944   0.186   2.519   2.095 -0.3965  0.4333 -0.1845
 3003TIP3    H1 8945   0.251   2.449   2.093 -0.2544  0.5410  0.5287
 3003TIP3    H2 8946   0.210   2.572   2.171 -0.7195  1.0492 -0.5058
 3004TIP3   OH2 8947   6.465   0.956   4.370  0.1139  0.3877 -0.8445
 3004TIP3    H1 8948   6.525   0.936   4.442  0.6363  1.3120 -1.0051
 3004TIP3    H2 8949   6.404   0.883   4.368  0.4475  0.0730  0.1670
 3005TIP3   OH2 8950   6.347   0.688   2.908  0.0072 -0.4490  0.4010
 3005TIP3    H1 8951   6.281   0.619   2.919  0.3794 -0.8843 -0.0821
 3005TIP3    H2 8952   6.367   0.716   2.998 -1.0143 -0.1325  0.5412
 3006TIP3   OH2 8953   6.086   1.133   2.045 -0.6649  0.2922 -0.2977
 3006TIP3    H1 8954   6.018   1.164   2.106 -0.7668 -1.1975  0.3475
 3006TIP3    H2 8955   6.039   1.120   1.962 -0.5864  2.0060 -0.6453
 3007TIP3   OH2 8956   4.898   2.015   3.517  0.4738  0.0275  0.3356
 3007TIP3    H1 8957   4.944   1.982   3.594  1.1745  2.4847  1.0194
 3007TIP3    H2 8958   4.965   2.061   3.467 -0.4902  0.5344 -0.5090
 3008TIP3   OH2 8959   6.397   5.465   2.799  0.1809 -0.0037 -0.3875
 3008TIP3    H1 8960   6.467   5.526   2.822  1.1738 -0.4901 -1.9971
 3008TIP3    H2 8961   6.340   5.514   2.740 -0.5831  0.2470  0.5557
 3009TIP3   OH2 8962   5.826   0.012   5.853 -0.3910 -0.0035  0.1519
 3009TIP3    H1 8963   5.754  -0.010   5.912  0.2107  2.4604  1.9133
 3009TIP3    H2 8964   5.878   0.076   5.902  2.9356 -1.5940 -1.1243
 3010TIP3   OH2 8965   5.683   2.635   3.650 -0.2304  0.0880  0.3425
 3010TIP3    H1 8966   5.768   2.630   3.693 -0.3581  1.7162  0.8047
 3010TIP3    H2 8967   5.684   2.564   3.586  1.0351 -0.6002  1.1210
 3011TIP3   OH2 8968   7.977   0.315   3.687 -0.0737 -0.3867 -0.2896
 3011TIP3    H1 8969   7.932   0.280   3.610  1.7340  0.5633 -1.7901
 3011TIP3    H2 8970   8.020   0.394   3.656  1.3345 -0.4211  1.5235
 3012TIP3   OH2 8971   8.049   2.033   2.373 -0.5945  0.5471 -0.1418
 3012TIP3    H1 8972   8.033   2.096   2.443 -1.3645 -0.4975  0.6345
 3012TIP3    H2 8973   7.978   2.046   2.311 -0.3896  0.8827 -0.3078
 3013TIP3   OH2 8974   5.590   2.733   4.177  0.2407 -0.1339 -0.6475
 3013TIP3    H1 8975   5.582   2.641   4.203 -0.9454  0.9924  3.2142
 3013TIP3    H2 8976   5.667   2.765   4.224  1.7090  0.4611 -3.3504
 3014TIP3   OH2 8977   4.291   2.277   4.290  0.4172  0.1564 -0.0271
 3014TIP3    H1 8978   4.235   2.267   4.367  2.2231 -0.2592  1.2797
 3014TIP3    H2 8979   4.261   2.358   4.249 -0.5067  0.4424  1.1711
 3015TIP3   OH2 8980   7.816   0.978   4.113 -0.5186  0.0934 -0.3408
 3015TIP3    H1 8981   7.741   0.992   4.056  0.0401  0.4786 -0.9865
 3015TIP3    H2 8982   7.862   1.062   4.115  1.1461 -0.7423 -1.7757
 3016TIP3   OH2 8983   7.784   2.276   3.789 -0.0527  0.0125  0.3770
 3016TIP3    H1 8984   7.693   2.303   3.781  0.5127  2.1340  0.6757
 3016TIP3    H2 8985   7.816   2.272   3.699  0.0656  1.1565  0.3597
 3017TIP3   OH2 8986   6.023   2.785   0.184  0.3458 -0.1550 -0.5595
 3017TIP3    H1 8987   5.980   2.769   0.100 -0.1982 -0.7463 -0.1689
 3017TIP3    H2 8988   6.083   2.858   0.166 -1.1387  0.9766 -0.9856
 3018TIP3   OH2 8989   5.296   0.568   1.074  0.7571  0.2399  0.0484
 3018TIP3    H1 8990   5.252   0.553   0.990 -0.7574  1.3899  0.6189
 3018TIP3    H2 8991   5.362   0.499   1.078 -1.0904 -1.6579 -0.7520
 3019TIP3   OH2 8992   4.867   1.231   3.011  0.4395  0.4813 -0.1683
 3019TIP3    H1 8993   4.886   1.154   3.065  0.1333  1.3324  1.1745
 3019TIP3    H2 8994   4.840   1.195   2.927  0.4667 -0.8788  0.3926
 3020TIP3   OH2 8995   4.332   2.440   0.993  0.1047 -0.4172  0.0067
 3020TIP3    H1 8996   4.270   2.507   0.965 -0.5194 -1.5420 -1.4015
 3020TIP3    H2 8997   4.285   2.357   0.983  1.6913 -1.2675 -0.7580
 3021TIP3   OH2 8998   8.241   1.889   1.485  0.6886  0.0008 -0.0206
 3021TIP3    H1 8999   8.220   1.938   1.406  1.1200 -0.3764 -0.3735
 3021TIP3    H2 9000   8.331   1.860   1.472  0.4322 -0.8985  0.1775
 3022TIP3   OH2 9001   7.673   2.530   0.770 -0.0770  0.5972  0.2397
 3022TIP3    H1 9002   7.638   2.518   0.858  0.7845 -0.2071  0.4858
 3022TIP3    H2 9003   7.743   2.594   0.779 -0.0438  0.5780  0.1282
 3023TIP3   OH2 9004   0.238   2.867   3.265 -0.4111  0.4264 -0.6937
 3023TIP3    H1 9005   0.270   2.953   3.240  0.0374  0.3764 -0.2758
 3023TIP3    H2 9006   0.314   2.822   3.301 -0.1731 -0.8046 -2.6247
 3024TIP3   OH2 9007   6.410   1.207   1.179  0.4486 -0.5786  0.3473
 3024TIP3    H1 9008   6.333   1.169   1.137  0.6373 -0.7993  0.2016
 3024TIP3    H2 9009   6.452   1.259   1.110  0.4291 -0.4611  0.4251
 3025TIP3   OH2 9010   0.879   7.138   6.790  0.2968  0.3657  0.1594
 3025TIP3    H1 9011   0.901   7.226   6.761  0.9066  0.1299 -0.1090
 3025TIP3    H2 9012   0.963   7.099   6.815 -0.0190  0.0010  0.6656
 3026TIP3   OH2 9013   6.334   3.666   3.356 -0.6760  0.3013 -0.1452
 3026TIP3    H1 9014   6.356   3.758   3.370 -0.7327  0.4564 -1.0147
 3026TIP3    H2 9015   6.323   3.630   3.444  1.6558  0.5533  0.2753
 3027TIP3   OH2 9016   7.608   5.373   0.354 -0.0614 -0.2024 -0.0173
 3027TIP3    H1 9017   7.547   5.308   0.388 -0.3367  0.7222  1.2765
 3027TIP3    H2 9018   7.661   5.399   0.429 -0.6711  1.8507 -0.2639
 3028TIP3   OH2 9019   8.386   1.413   1.617 -0.4301  0.5326 -0.3459
 3028TIP3    H1 9020   8.430   1.338   1.658 -0.3873  0.3805 -0.6729
 3028TIP3    H2 9021   8.385   1.480   1.686  0.1061  0.4567 -0.2587
 3029TIP3   OH2 9022   7.168   0.102   1.482 -0.1386  0.3231  0.0476
 3029TIP3    H1 9023   7.121   0.019   1.481 -1.1626  0.8711  1.2006
 3029TIP3    H2 9024   7.167   0.131   1.391 -0.5150 -0.5122 -0.2185
 3030TIP3   OH2 9025   7.279   2.606   1.512  0.3719  0.1528 -0.1872
 3030TIP3    H1 9026   7.367   2.583   1.483  0.6503 -0.1403  0.8732
 3030TIP3    H2 9027   7.226   2.529   1.490  0.5019  0.0794 -0.2477
 3031TIP3   OH2 9028   4.872   3.939   0.899  0.6857 -0.2582  0.3269
 3031TIP3    H1 9029   4.850   3.874   0.831 -0.4404 -0.1722  0.6010
 3031TIP3    H2 9030   4.905   3.886   0.972 -0.4811 -0.5700  0.6521
 3032TIP3   OH2 9031   5.384   4.284   2.521  0.2891  0.3483  0.1205
 3032TIP3    H1 9032   5.302   4.319   2.556  0.9148  0.4364  1.5309
 3032TIP3    H2 9033   5.452   4.317   2.581  1.2773 -0.2855 -0.6351
 3033TIP3   OH2 9034   7.487   1.452   5.207  0.4445 -0.2999  0.2306
 3033TIP3    H1 9035   7.401   1.452   5.164 -0.3553  0.6492  1.7604
 3033TIP3    H2 9036   7.528   1.370   5.178 -0.6026 -0.3395 -1.2352
 3034TIP3   OH2 9037   7.715   0.633   0.555 -0.0896 -0.2963 -0.1126
 3034TIP3    H1 9038   7.734   0.727   0.560  0.6775 -0.4951  1.1898
 3034TIP3    H2 9039   7.639   0.626   0.498  0.0679  1.0917 -0.5037
 3035TIP3   OH2 9040   5.152   1.834   2.917 -0.3724 -0.3295 -0.6043
 3035TIP3    H1 9041   5.161   1.916   2.868 -0.4786 -1.5548 -2.7318
 3035TIP3    H2 9042   5.058   1.816   2.917 -0.5116  0.3108  1.1834
 3036TIP3   OH2 9043   0.354   2.297   2.130  0.6249 -0.0798 -0.5384
 3036TIP3    H1 9044   0.414   2.268   2.199  3.0799  2.9606 -1.2630
 3036TIP3    H2 9045   0.284   2.232   2.130  2.4266 -2.1484  2.3403
 3037TIP3   OH2 9046   7.503   0.856   2.671 -0.3338 -0.0832  0.2558
 3037TIP3    H1 9047   7.549   0.921   2.619 -0.0297 -0.7192 -0.2755
 3037TIP3    H2 9048   7.566   0.784   2.680 -0.4130 -0.0261  1.4122
 3038TIP3   OH2 9049   6.170   2.211   3.603  0.0311 -0.4388 -0.0582
 3038TIP3    H1 9050   6.217   2.292   3.624 -1.3366  0.1027  0.9355
 3038TIP3    H2 9051   6.199   2.148   3.670  0.8813 -0.7113 -0.6661
 3039TIP3   OH2 9052   0.057   3.447   3.442 -0.5820  0.3702  0.5570
 3039TIP3    H1 9053   0.059   3.508   3.516  1.1061  1.9318 -0.7169
 3039TIP3    H2 9054  -0.015   3.479   3.387  0.8177  1.7630 -0.5149
 3040TIP3   OH2 9055   6.922   1.714   3.553 -0.1177  0.1712 -0.1035
 3040TIP3    H1 9056   6.968   1.657   3.491  0.2959  0.2362  0.1394
 3040TIP3    H2 9057   6.856   1.759   3.500  0.2382  0.2288 -0.4973
 3041TIP3   OH2 9058   7.509   0.272   1.876 -0.4365 -0.5346  0.3672
 3041TIP3    H1 9059   7.523   0.212   1.950  0.5931 -0.7584 -0.0027
 3041TIP3    H2 9060   7.417   0.259   1.853 -0.2868 -1.8218  0.4292
 3042TIP3   OH2 9061   6.019   3.065   3.063  0.3020 -0.2047 -0.8439
 3042TIP3    H1 9062   6.003   2.987   3.115  1.7685  1.1525  1.7463
 3042TIP3    H2 9063   6.114   3.066   3.050  0.4898  2.0009  0.5564
 3043TIP3   OH2 9064   7.940   1.596   2.526  0.0267  0.1951  0.3741
 3043TIP3    H1 9065   7.854   1.581   2.488  0.3221  0.1369 -0.2765
 3043TIP3    H2 9066   7.966   1.512   2.563 -0.2024  0.2197  0.5949
 3044TIP3   OH2 9067   8.216   2.392   1.484  0.0285 -0.1657 -0.2403
 3044TIP3    H1 9068   8.188   2.405   1.394 -2.1103  0.4049  0.4714
 3044TIP3    H2 9069   8.287   2.454   1.497  0.1969 -0.0934 -1.4568
 3045TIP3   OH2 9070   8.137   0.388   4.037  0.3031 -0.0026 -0.4901
 3045TIP3    H1 9071   8.046   0.414   4.025 -0.1784 -2.1918 -2.0050
 3045TIP3    H2 9072   8.134   0.321   4.106  0.7532 -0.1781 -0.6392
 3046TIP3   OH2 9073   5.890   3.649   3.379  0.1833  0.3631  0.2823
 3046TIP3    H1 9074   5.829   3.577   3.368  1.4490 -1.1212  2.6385
 3046TIP3    H2 9075   5.932   3.659   3.294 -1.0600 -0.7080 -0.4580
 3047TIP3   OH2 9076   1.611   7.861   1.880 -1.0385 -0.2316 -0.0413
 3047TIP3    H1 9077   1.604   7.771   1.913  0.4020  0.3261  1.8328
 3047TIP3    H2 9078   1.538   7.907   1.921 -0.6786 -0.1174  0.4798
 3048TIP3   OH2 9079   4.757   4.577   1.541 -0.0641  0.2077 -0.1259
 3048TIP3    H1 9080   4.798   4.660   1.518  0.9618  0.0093  0.9353
 3048TIP3    H2 9081   4.684   4.600   1.599 -0.8591  0.4893 -1.2300
 3049TIP3   OH2 9082   6.538   0.710   3.783  0.2689  0.4202 -0.0967
 3049TIP3    H1 9083   6.495   0.792   3.761 -0.0394  0.0724 -0.8150
 3049TIP3    H2 9084   6.528   0.702   3.878  0.2531  1.1813 -0.0350
 3050TIP3   OH2 9085   5.124   2.593   3.805  0.0973  0.9426  0.1824
 3050TIP3    H1 9086   5.122   2.634   3.719  0.1450  1.4014  0.4015
 3050TIP3    H2 9087   5.093   2.503   3.789 -1.3426  1.4744 -0.0698
 3051TIP3   OH2 9088   5.682   3.484   3.738 -0.1013 -0.3072  0.1126
 3051TIP3    H1 9089   5.687   3.524   3.825 -0.4515  0.4306 -0.2114
 3051TIP3    H2 9090   5.687   3.557   3.677 -0.0020 -0.8154 -0.4913
 3052TIP3   OH2 9091   4.955   2.512   5.461 -0.5862 -1.2127 -0.4368
 3052TIP3    H1 9092   4.866   2.492   5.488 -1.3298  1.5326 -0.6305
 3052TIP3    H2 9093   5.009   2.497   5.539 -1.6845 -0.0045  0.5770
 3053TIP3   OH2 9094   4.728   2.648   4.712  0.2645  0.0519 -0.5268
 3053TIP3    H1 9095   4.755   2.675   4.624  0.7443  2.0283  0.2027
 3053TIP3    H2 9096   4.781   2.570   4.730  0.3875 -0.1948 -1.8506
 3054TIP3   OH2 9097   6.316   3.003   1.083 -0.1361 -0.0192  0.4328
 3054TIP3    H1 9098   6.286   2.975   0.996  0.1465  2.4338 -0.4743
 3054TIP3    H2 9099   6.412   2.993   1.079 -0.0914  0.4641  0.3354
 3055TIP3   OH2 9100   5.774   3.040   2.459  0.3976  0.9556 -0.2181
 3055TIP3    H1 9101   5.696   3.040   2.404  0.5637 -0.3156 -0.4696
 3055TIP3    H2 9102   5.756   3.105   2.527 -0.7640  0.8669 -0.4366
 3056TIP3   OH2 9103   6.709   3.574   1.028 -0.1651 -0.7895 -0.1471
 3056TIP3    H1 9104   6.657   3.495   1.009 -0.4138 -0.4679 -0.8229
 3056TIP3    H2 9105   6.749   3.556   1.113  0.7594 -2.1640 -0.8587
 3057TIP3   OH2 9106   6.175   4.771   1.367  0.7503 -0.3867  0.0847
 3057TIP3    H1 9107   6.182   4.676   1.369  1.9556 -0.2955  0.6634
 3057TIP3    H2 9108   6.088   4.790   1.403  0.3794 -1.2744 -0.3321
 3058TIP3   OH2 9109   5.446   4.008   2.087  1.0125  0.1383 -0.2298
 3058TIP3    H1 9110   5.437   4.099   2.058  0.2699  0.7595  1.8563
 3058TIP3    H2 9111   5.454   4.014   2.182  1.3354 -1.9736 -0.1018
 3059TIP3   OH2 9112   6.200   3.010   0.149  0.1254 -0.1416 -0.1127
 3059TIP3    H1 9113   6.237   2.970   0.071  0.0601 -0.3158 -0.0547
 3059TIP3    H2 9114   6.257   2.982   0.220  0.8519  0.9414 -0.2516
 3060TIP3   OH2 9115   6.455   2.159   3.743 -0.1969  0.5559 -0.0850
 3060TIP3    H1 9116   6.471   2.250   3.717  0.9946  1.1012  2.3995
 3060TIP3    H2 9117   6.410   2.166   3.828  1.6294 -1.1472  1.0828
 3061TIP3   OH2 9118   7.192   2.039   2.064  0.5116 -0.8562  0.1202
 3061TIP3    H1 9119   7.200   2.120   2.014  0.5353 -1.0795 -0.2340
 3061TIP3    H2 9120   7.194   1.970   1.999  2.6861 -1.2676  0.5612
 3062TIP3   OH2 9121   8.109   0.180   2.144  0.3044 -0.1643 -0.0498
 3062TIP3    H1 9122   8.113   0.210   2.054 -0.7181  0.6451  0.1584
 3062TIP3    H2 9123   8.019   0.146   2.154  0.7516 -1.2648  0.3464
 3063TIP3   OH2 9124   0.897   2.136   3.633  0.3487  0.0226  0.2070
 3063TIP3    H1 9125   0.902   2.057   3.580 -0.1588  1.0901 -1.4684
 3063TIP3    H2 9126   0.852   2.200   3.578 -1.1920  0.8429  2.3071
 3064TIP3   OH2 9127   4.352   7.139   2.411 -0.1000  0.2767  0.6866
 3064TIP3    H1 9128   4.388   7.185   2.334  0.4336 -1.5601 -0.1952
 3064TIP3    H2 9129   4.398   7.178   2.485  0.1560  1.3582 -0.0205
 3065TIP3   OH2 9130   7.104   1.399   4.166  0.0442 -0.5981 -0.8112
 3065TIP3    H1 9131   7.067   1.318   4.200  0.6967 -1.5539 -2.3129
 3065TIP3    H2 9132   7.138   1.375   4.080 -0.0266  1.3415 -1.4023
 3066TIP3   OH2 9133   6.517   2.310   1.079 -0.1792 -0.0159 -0.3401
 3066TIP3    H1 9134   6.518   2.219   1.050 -1.3788  0.0429 -0.5755
 3066TIP3    H2 9135   6.602   2.323   1.121  0.1244 -1.1456 -0.6066
 3067TIP3   OH2 9136   5.350   1.016   1.956 -0.6527  0.6018  0.2974
 3067TIP3    H1 9137   5.423   0.973   1.911 -1.5570 -2.0185  1.2425
 3067TIP3    H2 9138   5.378   1.020   2.048 -1.4454  0.0433  0.5744
 3068TIP3   OH2 9139   8.158   0.380   2.461 -0.3896  0.7491  0.0703
 3068TIP3    H1 9140   8.082   0.399   2.517  0.0352 -0.0738  0.9428
 3068TIP3    H2 9141   8.129   0.306   2.407  0.6007 -1.2000  2.1230
 3069TIP3   OH2 9142   3.705   0.649   6.252  0.0343 -0.2802  0.8284
 3069TIP3    H1 9143   3.793   0.614   6.234 -0.2774 -0.2539 -0.8185
 3069TIP3    H2 9144   3.647   0.594   6.200 -0.6764  1.3367 -0.1055
 3070TIP3   OH2 9145   7.622   0.055   2.448 -0.6010  0.6122 -0.6017
 3070TIP3    H1 9146   7.675   0.127   2.414  0.4334  0.3405  0.4042
 3070TIP3    H2 9147   7.684   0.000   2.497 -1.8607  0.4378  0.8356
 3071TIP3   OH2 9148   5.495   3.414   1.509  0.2623  0.0973 -0.2214
 3071TIP3    H1 9149   5.470   3.455   1.427  0.7813  0.4100 -0.2224
 3071TIP3    H2 9150   5.522   3.325   1.485  1.6783  0.6107 -0.5612
 3072TIP3   OH2 9151   5.517   3.141   1.386  0.8853 -0.2273  0.1831
 3072TIP3    H1 9152   5.435   3.162   1.341  0.4224  3.0451  2.3170
 3072TIP3    H2 9153   5.585   3.155   1.319 -0.1086 -0.5224 -0.9118
 3073TIP3   OH2 9154   3.900   0.179   6.119  0.2478 -0.0399 -0.2437
 3073TIP3    H1 9155   3.929   0.111   6.059  2.3222  1.8864 -1.4846
 3073TIP3    H2 9156   3.979   0.207   6.165 -0.3403  2.2679 -0.5335
 3074TIP3   OH2 9157   4.563   0.578   1.277  0.4395  0.2552 -0.0006
 3074TIP3    H1 9158   4.540   0.520   1.350  2.3608 -0.7445 -0.1365
 3074TIP3    H2 9159   4.590   0.659   1.319  0.4419  0.0762  0.3516
 3075TIP3   OH2 9160   6.384   1.889   5.494 -0.2034 -0.2192  0.3685
 3075TIP3    H1 9161   6.319   1.956   5.475  0.6880  0.9907  1.4736
 3075TIP3    H2 9162   6.394   1.841   5.412 -1.8433  0.1371 -0.0520
 3076TIP3   OH2 9163   4.719   1.695   0.509  0.2038  0.5049 -0.7412
 3076TIP3    H1 9164   4.722   1.642   0.429  2.8390 -0.5776  0.0353
 3076TIP3    H2 9165   4.643   1.663   0.556  0.9665 -1.6624 -0.9392
 3077TIP3   OH2 9166   7.279   3.054   4.903  0.3102 -0.2460  0.0765
 3077TIP3    H1 9167   7.308   3.142   4.881  1.8882 -0.6743  0.3732
 3077TIP3    H2 9168   7.359   3.009   4.931 -0.8450 -1.1318  2.0097
 3078TIP3   OH2 9169   6.736   2.592   3.779 -0.1481  0.5628 -0.0506
 3078TIP3    H1 9170   6.828   2.594   3.753 -0.1840  0.6456 -0.1732
 3078TIP3    H2 9171   6.731   2.525   3.847 -0.0772  0.2552 -0.3507
 3079TIP3   OH2 9172   7.372   0.418   3.376  0.0854 -0.2143 -0.1216
 3079TIP3    H1 9173   7.359   0.344   3.316 -0.2423 -0.2387 -0.0250
 3079TIP3    H2 9174   7.455   0.456   3.351  0.6990 -1.1763  0.4205
 3080TIP3   OH2 9175   7.475   0.520   2.585  0.6974  0.0790 -0.1082
 3080TIP3    H1 9176   7.496   0.427   2.592  0.7296  0.1391  0.6216
 3080TIP3    H2 9177   7.388   0.527   2.623  0.7669  0.3754 -0.0060
 3081TIP3   OH2 9178   6.599   2.061   1.427  0.1843 -0.1200  0.5640
 3081TIP3    H1 9179   6.563   2.050   1.339 -1.2887  2.4392  0.7784
 3081TIP3    H2 9180   6.565   1.987   1.477 -1.1931 -0.1443 -0.3724
 3082TIP3   OH2 9181   1.125   2.865   1.623 -0.0687  0.4777  0.3356
 3082TIP3    H1 9182   1.069   2.876   1.700  0.5150  1.2311  0.6569
 3082TIP3    H2 9183   1.152   2.773   1.625 -3.9475 -0.8254 -1.6297
 3083TIP3   OH2 9184   6.674   4.184   1.742 -0.8971 -0.0742 -0.6881
 3083TIP3    H1 9185   6.712   4.252   1.797  0.5361 -1.0263 -0.4741
 3083TIP3    H2 9186   6.694   4.102   1.787 -3.8635 -0.5795 -0.1863
 3084TIP3   OH2 9187   7.534   4.382   2.879  0.2733 -0.7803 -0.0694
 3084TIP3    H1 9188   7.559   4.411   2.966 -1.4354  0.3303  0.0701
 3084TIP3    H2 9189   7.613   4.341   2.844  2.5441  3.1965  0.0805
 3085TIP3   OH2 9190   7.293   2.346   3.884  0.1923 -0.5767 -0.2604
 3085TIP3    H1 9191   7.336   2.286   3.823 -0.3287 -1.9375  0.7021
 3085TIP3    H2 9192   7.361   2.371   3.946  0.3191 -0.4140 -0.4606
 3086TIP3   OH2 9193   6.391   3.279   2.387 -0.5383 -0.0368 -0.2611
 3086TIP3    H1 9194   6.413   3.372   2.392  1.9411 -0.5805 -0.1894
 3086TIP3    H2 9195   6.395   3.249   2.478 -1.5446 -0.1804 -0.2590
 3087TIP3   OH2 9196   6.848   1.438   2.304  0.4375 -0.0558  0.7199
 3087TIP3    H1 9197   6.788   1.364   2.292 -0.9515  1.1429  0.0743
 3087TIP3    H2 9198   6.897   1.442   2.222 -0.1932  0.3291  0.3493
 3088TIP3   OH2 9199   0.305   0.853   1.356  0.3250 -0.4038 -0.5189
 3088TIP3    H1 9200   0.348   0.771   1.380  1.3701  0.5281  0.7964
 3088TIP3    H2 9201   0.226   0.825   1.309  0.5668 -2.1671  0.0880
 3089TIP3   OH2 9202   8.151   3.475   0.575 -0.3037 -0.7837 -0.1743
 3089TIP3    H1 9203   8.239   3.471   0.537 -0.6934 -0.5994 -1.0969
 3089TIP3    H2 9204   8.166   3.467   0.670  0.6208 -1.9138 -0.3982
 3090TIP3   OH2 9205   0.435   2.138   3.739  0.7018  0.8039  0.4870
 3090TIP3    H1 9206   0.443   2.045   3.762  0.8462  0.8746  0.7145
 3090TIP3    H2 9207   0.511   2.180   3.779  0.6585  1.0148  0.3482
 3091TIP3   OH2 9208   6.180   1.817   1.908 -0.4618 -0.1929  0.0076
 3091TIP3    H1 9209   6.189   1.727   1.939  0.8227 -0.0194  0.1910
 3091TIP3    H2 9210   6.255   1.830   1.851 -0.4094  0.8928  0.3115
 3092TIP3   OH2 9211   2.156   7.007   5.189  0.0684  0.3881  0.5672
 3092TIP3    H1 9212   2.089   7.001   5.256  0.4022  1.2135  0.9816
 3092TIP3    H2 9213   2.200   6.922   5.192 -1.3012 -0.3558 -0.0862
 3093TIP3   OH2 9214   7.715   0.991   2.266  0.3959  0.2903 -0.0037
 3093TIP3    H1 9215   7.743   0.907   2.231  1.9338  1.1384 -0.8356
 3093TIP3    H2 9216   7.660   1.028   2.197  0.9911  0.6519 -0.2833
 3094TIP3   OH2 9217   8.445   2.810   2.250 -0.1419 -0.2795  0.5671
 3094TIP3    H1 9218   8.404   2.894   2.269  0.1610 -0.7088  3.3364
 3094TIP3    H2 9219   8.393   2.773   2.179 -0.6674  1.9614 -0.2428
 3095TIP3   OH2 9220   6.045   0.316   3.767 -0.6025  0.0425  0.3752
 3095TIP3    H1 9221   5.954   0.309   3.738 -1.2006  2.3416  1.6343
 3095TIP3    H2 9222   6.060   0.409   3.780  2.1483 -0.2459 -0.4180
 3096TIP3   OH2 9223   2.304   6.006   6.851  0.0559  0.3302  0.2333
 3096TIP3    H1 9224   2.288   6.092   6.892 -0.7934 -1.1078  3.0835
 3096TIP3    H2 9225   2.399   5.994   6.857  0.1268  0.8788  0.2683
 3097TIP3   OH2 9226   6.105   5.174   2.748  0.3657  0.1482  0.3706
 3097TIP3    H1 9227   6.035   5.108   2.752 -2.1274  2.6649  0.5906
 3097TIP3    H2 9228   6.138   5.179   2.838  0.2983 -0.5264  0.4338
 3098TIP3   OH2 9229   6.205   1.184   2.362  0.8312  0.3186  0.4516
 3098TIP3    H1 9230   6.199   1.164   2.269 -2.0905  0.2916  0.5757
 3098TIP3    H2 9231   6.297   1.203   2.377  1.4345 -0.1382 -2.3362
 3099TIP3   OH2 9232   7.388   3.901   2.079 -0.6364  0.1464  1.0258
 3099TIP3    H1 9233   7.353   3.964   2.142 -0.6978  2.1084 -0.9012
 3099TIP3    H2 9234   7.473   3.936   2.054 -0.5257 -0.7152  0.1521
 3100TIP3   OH2 9235   7.027   3.080   2.124  0.8424 -1.1778  0.2873
 3100TIP3    H1 9236   7.004   3.128   2.204  1.5802 -1.2823  0.5657
 3100TIP3    H2 9237   7.094   3.018   2.152  1.4992 -0.8398 -0.5216
 3101TIP3   OH2 9238   6.353   3.790   1.474 -0.8503 -0.2301 -0.3863
 3101TIP3    H1 9239   6.294   3.715   1.468 -1.9334  0.5644  0.0346
 3101TIP3    H2 9240   6.311   3.848   1.538  0.1566  0.5607 -0.4313
 3102TIP3   OH2 9241   6.639   2.296   1.564  0.1576  0.0799 -0.1955
 3102TIP3    H1 9242   6.637   2.202   1.546 -0.0428 -0.1890  1.1369
 3102TIP3    H2 9243   6.547   2.321   1.569  0.2115  0.3395 -0.5188
 3103TIP3   OH2 9244   6.995   3.022   0.768 -0.3890  0.4326 -0.0849
 3103TIP3    H1 9245   6.949   3.090   0.818 -2.6096 -0.9593 -0.1587
 3103TIP3    H2 9246   7.045   2.974   0.834  1.1121  2.0157 -0.0136
 3104TIP3   OH2 9247   7.168   3.178   1.481 -0.2982 -0.1595  0.0217
 3104TIP3    H1 9248   7.174   3.273   1.482 -0.2796 -0.1594 -0.1080
 3104TIP3    H2 9249   7.242   3.148   1.533  0.0332 -0.1183 -0.4241
 3105TIP3   OH2 9250   8.074   3.019   1.826 -0.0210  0.1011 -0.1662
 3105TIP3    H1 9251   8.104   3.092   1.881  0.8865 -0.5050  0.1571
 3105TIP3    H2 9252   8.081   3.052   1.737  2.6986 -0.3911 -0.1682
 3106TIP3   OH2 9253   6.626   2.905   0.046 -0.4415  0.3350 -0.4379
 3106TIP3    H1 9254   6.711   2.900   0.088 -0.0236 -0.1749 -1.3282
 3106TIP3    H2 9255   6.582   2.979   0.088 -0.1695 -0.3613  1.1286
 3107TIP3   OH2 9256   7.138   1.269   3.248 -0.3393 -0.4035 -0.4016
 3107TIP3    H1 9257   7.145   1.177   3.275 -0.9730 -0.0554  1.0124
 3107TIP3    H2 9258   7.044   1.282   3.232 -0.2130 -0.0791 -0.8874
 3108TIP3   OH2 9259   0.884   2.116   2.927  0.2631 -0.2913 -0.0567
 3108TIP3    H1 9260   0.907   2.200   2.887 -0.3484 -0.5013 -0.8724
 3108TIP3    H2 9261   0.794   2.100   2.899 -1.1284  0.8012  3.4982
 3109TIP3   OH2 9262   0.179   1.050   1.902 -0.0569  0.2997  0.8584
 3109TIP3    H1 9263   0.094   1.009   1.885 -0.6381  0.8377  2.4099
 3109TIP3    H2 9264   0.158   1.142   1.919  0.9558  0.6613  0.2373
 3110TIP3   OH2 9265   6.345   4.269   0.727 -0.8039 -0.0011 -0.4135
 3110TIP3    H1 9266   6.361   4.343   0.785  1.2376  0.2647 -1.2904
 3110TIP3    H2 9267   6.329   4.308   0.641  1.8846 -0.5783 -1.2339
 3111TIP3   OH2 9268   7.607   2.175   2.566  0.4784  0.3892  0.3000
 3111TIP3    H1 9269   7.632   2.267   2.559 -0.9333  0.6245 -2.5417
 3111TIP3    H2 9270   7.513   2.177   2.580  0.1991 -0.6300 -1.3713
 3112TIP3   OH2 9271   0.049   3.808   0.944 -0.0130 -0.5918  0.2459
 3112TIP3    H1 9272   0.025   3.795   1.035  0.4561 -2.6731  0.0991
 3112TIP3    H2 9273   0.134   3.852   0.948 -0.4574  0.2190  0.8040
 3113TIP3   OH2 9274   7.027   2.411   2.684 -0.6429 -0.1010  0.2949
 3113TIP3    H1 9275   6.981   2.428   2.602  0.2604 -0.6975 -0.3475
 3113TIP3    H2 9276   6.999   2.323   2.710 -0.5347 -0.1189  0.3540
 3114TIP3   OH2 9277   1.326   2.126   1.570  0.1099  0.4125 -0.4565
 3114TIP3    H1 9278   1.402   2.168   1.611 -0.7485  2.5349 -0.9752
 3114TIP3    H2 9279   1.362   2.051   1.522  1.4082 -0.8118  2.3075
 3115TIP3   OH2 9280   8.369   3.385   2.116  0.6876 -0.1528  0.2952
 3115TIP3    H1 9281   8.366   3.443   2.040 -1.7258  2.0544  1.9992
 3115TIP3    H2 9282   8.441   3.418   2.169 -0.0952  0.7662  0.8112
 3116TIP3   OH2 9283   6.553   2.175   2.652  0.1086  0.4071 -0.5913
 3116TIP3    H1 9284   6.476   2.130   2.689  0.1742 -0.7427 -1.8489
 3116TIP3    H2 9285   6.526   2.199   2.564  0.0141  3.0333  0.1168
 3117TIP3   OH2 9286   4.971   2.845   1.322  0.1336 -0.0636  0.0674
 3117TIP3    H1 9287   4.882   2.878   1.314 -0.1707 -1.2662 -1.5504
 3117TIP3    H2 9288   4.961   2.754   1.349  0.9355  0.2956  1.7025
 3118TIP3   OH2 9289   0.946   2.696   3.618  0.4988  0.0990  0.2001
 3118TIP3    H1 9290   0.997   2.774   3.597  1.0732 -0.7098 -1.5539
 3118TIP3    H2 9291   0.856   2.718   3.595  0.4473  0.6874  0.9602
 3119TIP3   OH2 9292   7.270   0.167   2.552  0.0411  0.0788 -0.3815
 3119TIP3    H1 9293   7.216   0.239   2.520 -0.2021 -0.6727 -1.6768
 3119TIP3    H2 9294   7.336   0.210   2.607 -0.9480  1.1501  0.0020
 3120TIP3   OH2 9295   7.732   3.633   2.932 -0.0049  0.0998  0.6133
 3120TIP3    H1 9296   7.645   3.594   2.925 -0.2673  0.8752 -0.5411
 3120TIP3    H2 9297   7.764   3.605   3.018 -1.7374  0.5211  1.4058
 3121TIP3   OH2 9298   6.151   2.351   0.876  0.2599  0.8017  0.0970
 3121TIP3    H1 9299   6.240   2.371   0.850  0.1033  0.7487 -0.4916
 3121TIP3    H2 9300   6.155   2.339   0.971  1.0957 -0.3260 -0.0727
 3122TIP3   OH2 9301   1.722   2.969   2.376 -0.1192 -0.2177 -0.3677
 3122TIP3    H1 9302   1.695   2.964   2.468 -0.0999 -0.4370 -0.3732
 3122TIP3    H2 9303   1.650   3.014   2.332 -0.9529 -1.7202 -0.5698
 3123TIP3   OH2 9304   7.419   2.346   2.674 -0.4257 -0.6681 -0.0053
 3123TIP3    H1 9305   7.502   2.392   2.691 -0.7992 -0.1859  0.5415
 3123TIP3    H2 9306   7.401   2.297   2.754 -1.2988  0.2172  0.3533
 3124TIP3   OH2 9307   0.406   2.946   2.841  0.1652 -0.3567  1.1242
 3124TIP3    H1 9308   0.487   2.967   2.794 -1.1330  2.1752 -0.0490
 3124TIP3    H2 9309   0.430   2.956   2.933  1.3082 -0.0666  0.8100
 3125TIP3   OH2 9310   7.711   1.379   2.188  0.0204 -0.1780 -0.0942
 3125TIP3    H1 9311   7.736   1.471   2.195 -2.6944  0.5459  0.5629
 3125TIP3    H2 9312   7.641   1.377   2.123 -0.5198 -1.6575  0.4980
 3126TIP3   OH2 9313   7.682   1.549   2.719  0.7596  0.4626 -0.3080
 3126TIP3    H1 9314   7.668   1.549   2.624 -2.1054 -2.2781  0.0505
 3126TIP3    H2 9315   7.736   1.471   2.734  0.4007  0.3632  0.4328
 3127TIP3   OH2 9316   6.791   4.746   3.519 -0.0511  0.3498 -0.0201
 3127TIP3    H1 9317   6.839   4.679   3.470  0.5387  0.1963  0.7523
 3127TIP3    H2 9318   6.747   4.799   3.452 -0.1550 -0.5321 -0.6563
 3128TIP3   OH2 9319   2.724   5.997   6.142 -0.5922  0.3032  0.4043
 3128TIP3    H1 9320   2.673   5.960   6.214 -1.3900 -1.7954 -1.1736
 3128TIP3    H2 9321   2.658   6.033   6.082 -0.2848 -1.9867 -1.4097
 3129TIP3   OH2 9322   1.476   2.332   1.251 -0.1026 -0.1737 -0.4924
 3129TIP3    H1 9323   1.480   2.249   1.204 -0.2065 -1.7683  2.2141
 3129TIP3    H2 9324   1.567   2.349   1.277 -0.3702 -0.4255  0.6093
 3130TIP3   OH2 9325   6.904   1.765   2.611  0.4535 -0.7815  0.6232
 3130TIP3    H1 9326   6.996   1.775   2.636  0.3655  0.5578  0.4614
 3130TIP3    H2 9327   6.880   1.677   2.642  1.8482 -1.2371  0.4426
 3131TIP3   OH2 9328   6.980   1.263   0.711 -0.1353  0.0062  0.0760
 3131TIP3    H1 9329   6.987   1.217   0.795  0.7724  1.1585  0.6281
 3131TIP3    H2 9330   6.889   1.248   0.683 -0.2805 -0.8373  0.9862
 3132TIP3   OH2 9331   6.880   1.510   2.679 -0.3151  0.0510 -0.5688
 3132TIP3    H1 9332   6.794   1.469   2.672 -1.6523  2.2705  1.8108
 3132TIP3    H2 9333   6.918   1.470   2.757  1.0138 -1.2088 -1.8353
 3133TIP3   OH2 9334   7.641   2.436   1.933  0.0093 -0.3126 -0.8216
 3133TIP3    H1 9335   7.584   2.404   2.003  0.4156 -0.0366 -0.3631
 3133TIP3    H2 9336   7.729   2.408   1.959  0.2650  0.4756 -0.8276
 3134TIP3   OH2 9337   1.829   2.613   0.334 -0.3679 -0.2431 -0.2985
 3134TIP3    H1 9338   1.855   2.691   0.285  2.3211  0.0617  1.4669
 3134TIP3    H2 9339   1.780   2.646   0.409  0.4978 -0.2286  0.2776
 3135TIP3   OH2 9340   5.408   0.027   6.732 -0.0331 -0.0895  0.1868
 3135TIP3    H1 9341   5.351   0.038   6.656 -0.1157  0.1501  0.2849
 3135TIP3    H2 9342   5.348   0.019   6.806  0.0440 -0.4496  0.2133
 3136TIP3   OH2 9343   0.415   3.418   0.635  0.2495  0.3600  0.1321
 3136TIP3    H1 9344   0.397   3.355   0.704 -0.7244  1.0507  0.5058
 3136TIP3    H2 9345   0.383   3.377   0.555  1.1385 -0.3248  0.1140
 3137TIP3   OH2 9346   3.589   0.551   5.554  0.6933 -0.7861 -0.3487
 3137TIP3    H1 9347   3.674   0.593   5.555  0.3175 -0.0189  0.0891
 3137TIP3    H2 9348   3.548   0.578   5.636  0.2692 -1.6468 -0.2702
 3138TIP3   OH2 9349   6.617   3.854   1.592  0.1262  0.0500  0.6537
 3138TIP3    H1 9350   6.534   3.808   1.575  0.6437 -1.4250  1.9746
 3138TIP3    H2 9351   6.612   3.880   1.684  1.1525 -0.1063  0.7594
 3139TIP3   OH2 9352   0.594   1.171   1.670 -0.6577 -0.1959  0.3828
 3139TIP3    H1 9353   0.499   1.187   1.663 -0.7116 -0.4441  0.5275
 3139TIP3    H2 9354   0.623   1.155   1.581 -0.9271 -1.0825  0.4451
 3140TIP3   OH2 9355   5.658   1.361   0.182  0.0118 -0.7303 -0.4264
 3140TIP3    H1 9356   5.671   1.306   0.260 -1.0550  0.0522  0.3153
 3140TIP3    H2 9357   5.744   1.402   0.167 -0.1859  0.3628  1.3034
 3141TIP3   OH2 9358   6.271   3.271   1.175 -0.2801  0.5300 -0.1613
 3141TIP3    H1 9359   6.270   3.181   1.143  0.1257  0.7598 -0.8451
 3141TIP3    H2 9360   6.327   3.269   1.253  0.2348  0.3008 -0.5298
 3142TIP3   OH2 9361   7.854   3.613   0.338  0.3245  0.3120 -0.4985
 3142TIP3    H1 9362   7.909   3.585   0.265 -1.5460 -3.3052 -0.6242
 3142TIP3    H2 9363   7.878   3.555   0.410 -0.1641  1.6719  0.7905
 3143TIP3   OH2 9364   6.899   3.904   2.724  0.2553 -0.0779  0.5910
 3143TIP3    H1 9365   6.914   3.813   2.751  0.3569 -0.8449 -1.8918
 3143TIP3    H2 9366   6.883   3.951   2.806  1.0972 -2.1538  1.9970
 3144TIP3   OH2 9367   7.606   1.057   2.516 -0.7377 -0.5268  0.4449
 3144TIP3    H1 9368   7.564   1.143   2.513  0.5620  0.1089  0.1753
 3144TIP3    H2 9369   7.627   1.037   2.425 -0.4143 -0.8139  0.5810
 3145TIP3   OH2 9370   8.051   4.727   2.005 -0.2945  0.5394 -0.3308
 3145TIP3    H1 9371   8.036   4.804   2.060  0.8346  0.3367  0.2900
 3145TIP3    H2 9372   8.118   4.754   1.942 -0.3048  0.2428 -0.4711
 3146TIP3   OH2 9373   6.511   2.074   0.354  0.2203 -0.2593 -0.0510
 3146TIP3    H1 9374   6.590   2.067   0.407 -0.4016 -1.0091  0.7956
 3146TIP3    H2 9375   6.531   2.025   0.274  1.2783  1.1478 -0.6858
 3147TIP3   OH2 9376   7.234   1.246   3.536  0.1188 -0.2977  0.2994
 3147TIP3    H1 9377   7.270   1.174   3.588  0.7749 -0.4047 -0.2817
 3147TIP3    H2 9378   7.228   1.210   3.447 -1.1222 -0.1653  0.3328
 3148TIP3   OH2 9379   8.186   1.776   2.962 -0.2877  0.3179  0.3306
 3148TIP3    H1 9380   8.279   1.780   2.985  0.1514  0.5263 -1.4220
 3148TIP3    H2 9381   8.166   1.862   2.928 -1.0805  0.2068  0.5160
 3149TIP3   OH2 9382   1.134   3.923   0.665  0.5581 -0.0510 -0.0638
 3149TIP3    H1 9383   1.151   3.830   0.654 -0.5953 -0.2139 -0.5430
 3149TIP3    H2 9384   1.042   3.928   0.693  0.3487  0.9738 -0.8584
 3150TIP3   OH2 9385   7.569   3.197   3.043 -0.1788 -0.4854 -0.4665
 3150TIP3    H1 9386   7.617   3.115   3.053 -0.7473 -0.8539 -0.7390
 3150TIP3    H2 9387   7.554   3.205   2.949  1.5847  0.9246 -0.6530
 3151TIP3   OH2 9388   1.231   3.326   1.459  0.1816 -0.1336 -0.2092
 3151TIP3    H1 9389   1.179   3.382   1.516  1.4760  1.1169 -0.2406
 3151TIP3    H2 9390   1.198   3.238   1.475 -1.5726  0.5826  0.1628
 3152TIP3   OH2 9391   0.917   6.520   6.224  0.8747 -0.5636 -0.1853
 3152TIP3    H1 9392   0.951   6.558   6.305  0.6929  0.5619 -0.6193
 3152TIP3    H2 9393   0.884   6.434   6.250  3.1968 -1.2989  0.4030
 3153TIP3   OH2 9394   7.299   2.998   1.839 -0.4056  0.1082  0.0574
 3153TIP3    H1 9395   7.298   2.931   1.771 -0.7410  0.4869 -0.3117
 3153TIP3    H2 9396   7.215   2.989   1.883  0.9839 -2.1515  2.4154
 3154TIP3   OH2 9397   6.414   2.394   2.522  0.1735  0.0008 -0.0608
 3154TIP3    H1 9398   6.321   2.391   2.497  0.4716  1.6536 -1.4203
 3154TIP3    H2 9399   6.460   2.354   2.448  0.6706  0.7107 -0.1463
 3155TIP3   OH2 9400   7.519   3.804   3.159  0.1055 -0.2511  0.5909
 3155TIP3    H1 9401   7.540   3.828   3.250  1.3351 -1.3152  0.6119
 3155TIP3    H2 9402   7.488   3.885   3.119  2.5357  0.9955  1.1218
 3156TIP3   OH2 9403   8.381   4.664   2.502  0.5796 -0.1445  0.1420
 3156TIP3    H1 9404   8.324   4.714   2.443 -1.4554 -3.0646 -0.4414
 3156TIP3    H2 9405   8.372   4.708   2.586 -0.5862  0.9202 -0.5133
 3157TIP3   OH2 9406   8.093   2.271   3.631  0.8688  0.1893 -0.3245
 3157TIP3    H1 9407   8.188   2.282   3.637  0.9098 -0.7527  1.1844
 3157TIP3    H2 9408   8.058   2.360   3.630  1.6588  0.5386  1.6566
 3158TIP3   OH2 9409   7.052   2.247   4.763 -0.6224  0.0294  0.6349
 3158TIP3    H1 9410   7.123   2.182   4.762 -1.3238 -0.7489  1.1094
 3158TIP3    H2 9411   6.972   2.195   4.767 -1.2036  0.9189  0.6244
 3159TIP3   OH2 9412   7.719   0.850   3.166  0.1369 -0.4157  0.6881
 3159TIP3    H1 9413   7.799   0.897   3.191 -1.0515  1.3111  1.2685
 3159TIP3    H2 9414   7.711   0.867   3.072  0.5742 -0.7922  0.5792
 3160TIP3   OH2 9415   1.046   7.721   6.534 -0.0357 -0.0540  0.5190
 3160TIP3    H1 9416   1.031   7.809   6.499  1.0765 -0.1511 -0.2344
 3160TIP3    H2 9417   1.028   7.662   6.461 -0.9939 -0.4710  1.0872
 3161TIP3   OH2 9418   7.090   4.187   0.586 -0.3769  0.5504 -0.1681
 3161TIP3    H1 9419   7.007   4.176   0.538 -1.6178  0.2812  2.0004
 3161TIP3    H2 9420   7.112   4.099   0.615 -0.1053  0.8580  0.5441
 3162TIP3   OH2 9421   5.663   3.216   1.151  0.0556  0.2232 -0.0343
 3162TIP3    H1 9422   5.654   3.173   1.066  1.4813  1.0193 -0.6136
 3162TIP3    H2 9423   5.726   3.287   1.136 -1.3889  1.8189  1.1573
 3163TIP3   OH2 9424   6.213   3.598   4.530 -0.1100 -0.3911 -0.2778
 3163TIP3    H1 9425   6.149   3.531   4.550 -0.1379 -0.8800 -1.8799
 3163TIP3    H2 9426   6.162   3.679   4.522 -0.2391 -0.3988  0.4593
 3164TIP3   OH2 9427   7.642   2.714   1.544  0.3021 -0.4808  0.1895
 3164TIP3    H1 9428   7.660   2.639   1.488  0.8489 -0.3326  0.1569
 3164TIP3    H2 9429   7.706   2.780   1.516 -0.3327  0.0795  0.0460
 3165TIP3   OH2 9430   7.296   0.847   1.331 -0.2866 -0.1105  0.2011
 3165TIP3    H1 9431   7.286   0.754   1.310 -2.2871  0.9121 -3.9913
 3165TIP3    H2 9432   7.206   0.880   1.332  0.4989  2.1096 -0.2881
 3166TIP3   OH2 9433   8.163   3.339   2.313 -0.0932  0.1738  0.4844
 3166TIP3    H1 9434   8.240   3.360   2.260 -0.1199 -2.6492 -0.7485
 3166TIP3    H2 9435   8.179   3.383   2.397  2.1618  0.8389 -0.2567
 3167TIP3   OH2 9436   7.742   2.017   2.360  0.0797  0.4299 -0.1201
 3167TIP3    H1 9437   7.696   2.091   2.399 -0.2129  0.3314 -0.2792
 3167TIP3    H2 9438   7.767   1.962   2.434  0.9339  1.0445  0.0650
 3168TIP3   OH2 9439   6.144   0.738   2.021  0.3406 -0.0195 -0.1581
 3168TIP3    H1 9440   6.138   0.778   2.108 -0.3401 -0.1439 -0.1479
 3168TIP3    H2 9441   6.230   0.765   1.988  1.1005 -0.9654  1.0411
 3169TIP3   OH2 9442   4.288   7.534   3.653  0.2417  0.5079 -0.0087
 3169TIP3    H1 9443   4.295   7.441   3.674 -2.1847 -0.2824 -2.3827
 3169TIP3    H2 9444   4.350   7.547   3.581 -0.1769  0.4914 -0.3736
 3170TIP3   OH2 9445   7.101   4.479   2.300 -0.0794  0.0142 -0.0776
 3170TIP3    H1 9446   7.147   4.433   2.370 -0.8667 -0.5764  0.0597
 3170TIP3    H2 9447   7.167   4.493   2.233  0.2375 -1.0967 -0.0096
 3171TIP3   OH2 9448   7.501   3.308   2.008  0.5709 -0.1299  0.2896
 3171TIP3    H1 9449   7.490   3.343   2.097  3.8474  0.6771  0.4514
 3171TIP3    H2 9450   7.422   3.334   1.962 -0.1292  1.5036  2.3224
 3172TIP3   OH2 9451   6.484   2.005   1.189 -0.2638 -0.1466 -0.1091
 3172TIP3    H1 9452   6.396   1.971   1.174 -0.0223 -0.4666 -0.7942
 3172TIP3    H2 9453   6.524   2.008   1.102  0.4539 -0.1514  0.2195
 3173TIP3   OH2 9454   0.742   5.560   3.743  0.4791  0.0099  0.4513
 3173TIP3    H1 9455   0.789   5.635   3.782  1.4369 -0.1320 -0.4101
 3173TIP3    H2 9456   0.653   5.592   3.730  0.1734  0.1405  2.5641
 3174TIP3   OH2 9457   7.454   1.288   2.297  0.2046  0.3099  0.2180
 3174TIP3    H1 9458   7.545   1.310   2.281  0.5672 -1.3535 -0.1092
 3174TIP3    H2 9459   7.421   1.359   2.352  1.9029  0.5335  0.9628
 3175TIP3   OH2 9460   6.495   4.501   2.642 -0.3615 -0.1981 -0.1482
 3175TIP3    H1 9461   6.553   4.552   2.698 -1.7878  1.3747 -0.0420
 3175TIP3    H2 9462   6.459   4.565   2.580 -1.0348 -1.3708 -1.0005
 3176TIP3   OH2 9463   5.417   3.955   2.636  0.2238 -0.5271 -0.0186
 3176TIP3    H1 9464   5.396   3.868   2.670 -0.7332 -0.4589 -0.4136
 3176TIP3    H2 9465   5.382   4.016   2.701 -0.3953 -0.4208 -0.4405
 3177TIP3   OH2 9466   0.630   5.399   0.790  0.0746 -0.4844 -0.0164
 3177TIP3    H1 9467   0.695   5.424   0.856  0.4829 -0.0165 -0.5946
 3177TIP3    H2 9468   0.554   5.372   0.841 -0.2526  1.5651  0.6611
 3178TIP3   OH2 9469   7.443   5.384   3.435 -0.3564 -0.1785 -0.0798
 3178TIP3    H1 9470   7.402   5.320   3.493 -1.8725  0.3641 -0.5284
 3178TIP3    H2 9471   7.485   5.447   3.494  1.3702 -1.7171  0.3517
 3179TIP3   OH2 9472   6.325   3.811   1.922 -0.0079  0.1687  0.7065
 3179TIP3    H1 9473   6.260   3.742   1.907  0.2702 -0.2237  1.2899
 3179TIP3    H2 9474   6.302   3.846   2.008 -0.5311  1.2300  0.1506
 3180TIP3   OH2 9475   5.331   3.717   1.735 -0.0735 -0.0215  0.2040
 3180TIP3    H1 9476   5.366   3.749   1.818 -0.5424  0.0901  0.3623
 3180TIP3    H2 9477   5.371   3.773   1.669  0.9701 -0.6643  0.2777
 3181TIP3   OH2 9478   8.473   1.119   2.162 -0.0264 -0.2762 -0.0104
 3181TIP3    H1 9479   8.469   1.023   2.165 -3.2589 -0.1977 -0.7068
 3181TIP3    H2 9480   8.396   1.148   2.209  0.5157  1.9984 -0.4736
 3182TIP3   OH2 9481   8.116   0.534   0.840 -0.2993  0.0284  0.5248
 3182TIP3    H1 9482   8.065   0.501   0.765 -0.3803  1.4820 -0.0714
 3182TIP3    H2 9483   8.054   0.588   0.889  0.3209  0.7739  0.4936
 3183TIP3   OH2 9484   5.896   2.803   2.799  0.3097  0.3236  0.3143
 3183TIP3    H1 9485   5.835   2.877   2.801 -0.6021 -0.3345 -1.6187
 3183TIP3    H2 9486   5.894   2.768   2.888 -3.4881 -0.7441 -0.1259
 3184TIP3   OH2 9487   1.332   5.611   6.072 -1.0911  0.0997 -0.1798
 3184TIP3    H1 9488   1.386   5.572   6.004 -1.9835 -0.4225 -0.5899
 3184TIP3    H2 9489   1.282   5.538   6.108 -1.2746  0.5236  0.4370
 3185TIP3   OH2 9490   8.181   4.100   3.147 -0.0402 -0.0635  0.1129
 3185TIP3    H1 9491   8.209   4.085   3.057  1.8508  0.6139  0.5651
 3185TIP3    H2 9492   8.169   4.012   3.183  1.4635 -0.3684 -0.1199
 3186TIP3   OH2 9493   8.102   1.057   2.085 -0.1163  0.6612 -0.3208
 3186TIP3    H1 9494   8.055   1.084   2.164 -1.3046 -1.3101 -0.3307
 3186TIP3    H2 9495   8.044   1.083   2.013 -1.3426 -1.9506 -0.3249
 3187TIP3   OH2 9496   0.367   3.304   3.925  0.7584  0.0316 -0.0895
 3187TIP3    H1 9497   0.371   3.221   3.878 -0.0725 -0.2268  0.2842
 3187TIP3    H2 9498   0.437   3.357   3.887  0.8099 -0.5700 -0.8427
 3188TIP3   OH2 9499   5.699   2.920   1.863 -0.9050  0.1525  0.4897
 3188TIP3    H1 9500   5.711   3.014   1.872  0.2007 -0.0079  0.7268
 3188TIP3    H2 9501   5.690   2.888   1.953 -0.6632 -0.0518  0.4405
 3189TIP3   OH2 9502   0.336   4.782   3.583 -0.3321  0.1511 -0.3261
 3189TIP3    H1 9503   0.347   4.734   3.665 -0.0727  0.6515 -0.0656
 3189TIP3    H2 9504   0.320   4.714   3.517 -0.4785 -0.2550  0.1279
 3190TIP3   OH2 9505   0.233   3.872   2.762  0.5975 -0.5121  0.7803
 3190TIP3    H1 9506   0.278   3.840   2.683  0.3836  0.4198  0.2763
 3190TIP3    H2 9507   0.233   3.967   2.753  2.3171 -0.2625  2.8609
 3191TIP3   OH2 9508   7.684   2.529   3.467 -0.3126 -0.6399  0.1353
 3191TIP3    H1 9509   7.634   2.591   3.520 -0.4838 -1.3684  0.8372
 3191TIP3    H2 9510   7.700   2.575   3.385 -2.1869 -0.3925 -0.1162
 3192TIP3   OH2 9511   8.188   2.167   1.619  0.8088  0.0299  0.0257
 3192TIP3    H1 9512   8.204   2.237   1.556  1.0648  0.8339  0.9792
 3192TIP3    H2 9513   8.217   2.087   1.574  0.6957  0.5569 -0.9849
 3193TIP3   OH2 9514   7.681   3.613   1.886  0.0934  0.2336  0.3416
 3193TIP3    H1 9515   7.659   3.609   1.792  2.3711  2.2742 -0.3139
 3193TIP3    H2 9516   7.698   3.522   1.910 -0.1589 -0.2735 -1.2946
 3194TIP3   OH2 9517   7.869   4.567   3.463 -0.3897  0.0993 -0.0661
 3194TIP3    H1 9518   7.928   4.492   3.475 -1.0049 -0.3692  0.0310
 3194TIP3    H2 9519   7.922   4.631   3.416  0.4753  0.0136  0.7614
 3195TIP3   OH2 9520   1.873   3.998   3.200 -0.0969 -0.4101  0.8114
 3195TIP3    H1 9521   1.803   4.006   3.135  0.5437 -2.0722 -0.0993
 3195TIP3    H2 9522   1.835   3.941   3.268  0.6833 -2.1422 -0.1661
 3196TIP3   OH2 9523   7.726   2.953   3.060  0.2570 -0.1493  0.2173
 3196TIP3    H1 9524   7.697   2.865   3.039 -0.0774  0.2636 -1.0419
 3196TIP3    H2 9525   7.812   2.961   3.018  0.2876  0.1223  0.3277
 3197TIP3   OH2 9526   2.897   0.886   2.048 -0.0623  0.1377 -0.1302
 3197TIP3    H1 9527   2.912   0.824   2.120  0.6977  1.4090  0.8189
 3197TIP3    H2 9528   2.865   0.831   1.976 -0.9671 -1.1422  1.2065
 3198TIP3   OH2 9529   0.814   3.303   4.257 -0.4899  0.3044  0.2487
 3198TIP3    H1 9530   0.905   3.293   4.226  0.5937  2.0641  2.6861
 3198TIP3    H2 9531   0.798   3.397   4.254 -2.2406  0.0039 -0.1344
 3199TIP3   OH2 9532   6.643   4.533   2.217 -0.3123 -0.2816 -0.5203
 3199TIP3    H1 9533   6.710   4.468   2.197 -1.1108 -0.5652 -2.4061
 3199TIP3    H2 9534   6.678   4.582   2.291  1.4845 -1.1234 -0.7875
 3200TIP3   OH2 9535   7.452   3.624   2.969 -0.5416 -0.5578  0.4904
 3200TIP3    H1 9536   7.451   3.546   3.025 -1.5812 -0.7020  0.2800
 3200TIP3    H2 9537   7.441   3.697   3.031  0.5507 -0.5582  0.6999
 3201TIP3   OH2 9538   7.324   3.497   3.469  0.3283 -0.7351  0.1598
 3201TIP3    H1 9539   7.288   3.584   3.488  1.2312 -0.6265  1.4079
 3201TIP3    H2 9540   7.269   3.437   3.520 -1.8947 -1.1866 -2.6270
 3202TIP3   OH2 9541   6.295   2.446   3.649 -0.4797 -0.0456 -0.0978
 3202TIP3    H1 9542   6.267   2.536   3.664 -0.8540 -0.1011 -0.4632
 3202TIP3    H2 9543   6.387   2.453   3.624  0.0428  0.0903  1.7828
 3203TIP3   OH2 9544   0.817   4.602   3.453 -0.8302 -0.6992 -0.6565
 3203TIP3    H1 9545   0.826   4.674   3.391  1.0112 -0.1102  0.2520
 3203TIP3    H2 9546   0.902   4.558   3.451 -0.2351  0.1753  2.4248
 3204TIP3   OH2 9547   0.284   2.822   4.873  0.3570 -0.5968 -0.2141
 3204TIP3    H1 9548   0.316   2.831   4.783 -0.0357  1.2814 -0.1872
 3204TIP3    H2 9549   0.350   2.866   4.927 -0.5728  0.3023  0.1889
 3205TIP3   OH2 9550   0.394   2.980   3.607  0.2980 -0.3079  0.0123
 3205TIP3    H1 9551   0.485   2.998   3.586 -0.0759  1.7285 -0.0407
 3205TIP3    H2 9552   0.358   3.066   3.631 -1.8416 -0.9066 -0.9322
 3206TIP3   OH2 9553   2.131   2.190   4.110  0.1204  0.3395  0.0114
 3206TIP3    H1 9554   2.177   2.110   4.083  2.5099  1.5694  0.3209
 3206TIP3    H2 9555   2.120   2.240   4.030 -0.1148  0.3507  0.0492
 3207TIP3   OH2 9556   8.368   3.052   2.278  0.2696  0.1062 -0.2350
 3207TIP3    H1 9557   8.389   3.123   2.217  2.7405 -0.5879 -0.2517
 3207TIP3    H2 9558   8.345   3.096   2.360  2.2298  0.9433 -0.1123
 3208TIP3   OH2 9559  -0.013   3.497   1.549 -0.1053  0.2232  0.3859
 3208TIP3    H1 9560   0.060   3.440   1.527  0.0561  0.8782 -0.8355
 3208TIP3    H2 9561   0.028   3.578   1.581 -0.3029  0.4983 -0.0567
 3209TIP3   OH2 9562   0.580   3.046   4.669  0.1626  0.4063  0.6670
 3209TIP3    H1 9563   0.664   3.024   4.629 -0.3087 -0.7655  0.2944
 3209TIP3    H2 9564   0.515   3.025   4.601 -0.4246  1.3382  0.9378
 3210TIP3   OH2 9565   0.236   6.055   6.088 -0.0270  0.0466 -0.4285
 3210TIP3    H1 9566   0.277   6.111   6.154 -1.3620  1.6220 -0.8749
 3210TIP3    H2 9567   0.173   6.003   6.137  0.5725 -0.3989 -0.1346
 3211TIP3   OH2 9568   0.667   2.915   3.544 -0.8608  0.0625 -0.5476
 3211TIP3    H1 9569   0.737   2.981   3.541 -0.6287 -0.1366  0.2062
 3211TIP3    H2 9570   0.670   2.873   3.458 -2.5573  2.5923 -1.8826
 3212TIP3   OH2 9571   6.883   1.950   3.809 -0.3970  0.4351 -0.2266
 3212TIP3    H1 9572   6.875   1.855   3.813  0.0793  0.4267  0.4992
 3212TIP3    H2 9573   6.947   1.973   3.877  1.5633  1.0161 -2.2032
 3213TIP3   OH2 9574   1.636   4.530   2.372  0.2232  0.1571  0.0388
 3213TIP3    H1 9575   1.708   4.588   2.344 -1.4719  1.5910 -1.4685
 3213TIP3    H2 9576   1.603   4.491   2.291 -2.6204  1.8316  0.3215
 3214TIP3   OH2 9577   1.332   3.520   3.415 -0.5991  0.2447 -0.6479
 3214TIP3    H1 9578   1.341   3.610   3.445 -1.0710  0.4217 -1.0330
 3214TIP3    H2 9579   1.357   3.467   3.491  0.2537  0.6975 -0.6079
 3215TIP3   OH2 9580   7.865   3.074   3.637 -0.1933 -0.6328 -0.5090
 3215TIP3    H1 9581   7.879   3.061   3.731 -1.9320  1.0592  0.0175
 3215TIP3    H2 9582   7.937   3.027   3.595  1.2976 -0.3930  1.7077
 3216TIP3   OH2 9583   8.403   4.944   1.762  0.3951  0.6055 -0.3510
 3216TIP3    H1 9584   8.497   4.954   1.778  0.1193  1.2875  0.9736
 3216TIP3    H2 9585   8.366   5.028   1.789 -0.9587 -0.7753  2.2880
 3217TIP3   OH2 9586   8.443   4.532   3.377 -0.4231  0.2162  0.2219
 3217TIP3    H1 9587   8.394   4.469   3.430 -0.7533 -1.9566 -2.5609
 3217TIP3    H2 9588   8.531   4.495   3.369 -0.1944  0.8423 -0.2228
 3218TIP3   OH2 9589   0.216   2.751   2.874  0.2046  0.1255 -0.2204
 3218TIP3    H1 9590   0.153   2.786   2.937  2.4742  0.0906  2.1082
 3218TIP3    H2 9591   0.270   2.826   2.850  1.7957 -0.6704  0.8458
 3219TIP3   OH2 9592   8.461   3.878   2.494  0.1457 -0.6149  0.5046
 3219TIP3    H1 9593   8.394   3.924   2.445 -0.1188 -0.9171  0.5835
 3219TIP3    H2 9594   8.413   3.823   2.556  0.4435 -1.6156 -0.1399
 3220TIP3   OH2 9595   1.243   3.697   4.280  0.3859  0.0079 -0.1977
 3220TIP3    H1 9596   1.314   3.661   4.333  0.7027  0.2228 -0.4719
 3220TIP3    H2 9597   1.163   3.665   4.322  0.6170  0.6877  0.7768
 3221TIP3   OH2 9598   8.154   2.579   2.533  0.5877 -0.2727 -0.1750
 3221TIP3    H1 9599   8.189   2.666   2.554 -1.1169  0.3858  0.0188
 3221TIP3    H2 9600   8.195   2.556   2.450  0.7187  0.9237 -0.4556
 3222TIP3   OH2 9601   7.980   3.579   3.748 -0.2109  0.3660 -0.0783
 3222TIP3    H1 9602   7.898   3.593   3.794 -0.6345  1.0667 -1.0388
 3222TIP3    H2 9603   7.956   3.573   3.656  1.0039  2.5796 -0.5998
 3223TIP3   OH2 9604   0.463   6.809   2.968 -0.9730  0.0788 -0.1249
 3223TIP3    H1 9605   0.506   6.863   3.034 -1.8542  0.8627 -0.1763
 3223TIP3    H2 9606   0.385   6.859   2.944 -0.5749 -0.1260 -1.8769
 3224TIP3   OH2 9607   0.326   5.093   2.199  0.2153  0.6079 -0.1924
 3224TIP3    H1 9608   0.244   5.071   2.155 -0.0937  0.2260  0.5545
 3224TIP3    H2 9609   0.374   5.145   2.136 -1.0354  1.6983 -0.2705
 3225TIP3   OH2 9610   6.912   6.463   3.138  0.3070  0.0917  0.4094
 3225TIP3    H1 9611   6.878   6.529   3.199 -0.0418 -0.5346  0.9011
 3225TIP3    H2 9612   6.969   6.512   3.079  0.3173  0.7762  0.9805
 3226TIP3   OH2 9613   6.882   2.883   4.185 -0.1891 -0.2142 -0.2363
 3226TIP3    H1 9614   6.911   2.865   4.095  0.1892  0.8176 -0.3254
 3226TIP3    H2 9615   6.892   2.977   4.195 -1.1625 -0.1919  0.5752
 3227TIP3   OH2 9616   0.096   3.752   5.881 -0.1499  0.2092 -0.1615
 3227TIP3    H1 9617   0.165   3.711   5.830 -0.3890  0.1756 -0.4599
 3227TIP3    H2 9618   0.034   3.785   5.816 -0.6098 -0.1073  0.1105
 3228TIP3   OH2 9619   0.369   6.134   2.340  0.4149  0.2378 -0.0135
 3228TIP3    H1 9620   0.433   6.102   2.276 -0.5657  2.0294 -1.9687
 3228TIP3    H2 9621   0.288   6.141   2.290 -0.5609  0.8902  1.6578
 3229TIP3   OH2 9622   8.099   3.427   3.944  0.1861 -0.3558  0.2138
 3229TIP3    H1 9623   8.116   3.498   4.006  1.4517  0.2174 -0.7484
 3229TIP3    H2 9624   8.058   3.471   3.869 -0.1083 -0.8309  0.0960
 3230TIP3   OH2 9625   0.799   3.309   3.805  0.4939  0.2034  0.7282
 3230TIP3    H1 9626   0.867   3.330   3.869  0.3567  2.2007  0.2757
 3230TIP3    H2 9627   0.835   3.237   3.753  1.2532 -0.3677  2.0451
 3231TIP3   OH2 9628   0.279   4.575   2.397 -0.7090  0.6014 -0.2747
 3231TIP3    H1 9629   0.204   4.606   2.346  0.8156 -0.9348 -3.6396
 3231TIP3    H2 9630   0.355   4.595   2.342  0.7955 -3.7401 -0.0077
 3232TIP3   OH2 9631   1.433   3.630   4.456  0.3027 -0.1655 -0.5006
 3232TIP3    H1 9632   1.514   3.623   4.405  1.7011  1.4827  1.3686
 3232TIP3    H2 9633   1.434   3.552   4.513  1.7183  0.9151  1.0140
 3233TIP3   OH2 9634   1.112   4.471   3.197 -0.6107 -0.0874  0.3376
 3233TIP3    H1 9635   1.109   4.510   3.284  0.4053  0.7457  0.0084
 3233TIP3    H2 9636   1.196   4.426   3.193 -0.0435  1.0337 -0.6901
 3234TIP3   OH2 9637   0.948   3.306   3.037  0.0798  0.4161  0.4193
 3234TIP3    H1 9638   0.975   3.303   2.945  1.3731 -1.9896  0.8191
 3234TIP3    H2 9639   0.968   3.395   3.065 -1.2024  1.4529 -1.8658
 3235TIP3   OH2 9640   2.373   4.271   1.043 -0.1267 -0.5072 -0.6325
 3235TIP3    H1 9641   2.332   4.304   0.963 -1.2018  0.5553  0.3349
 3235TIP3    H2 9642   2.394   4.179   1.024 -1.8091 -0.7106 -1.5854
 3236TIP3   OH2 9643   7.908   5.913   2.852 -0.0715 -0.6134  0.2497
 3236TIP3    H1 9644   7.860   5.940   2.774  0.3939  1.1584  0.5577
 3236TIP3    H2 9645   7.990   5.962   2.849  0.4735 -1.4192  1.2405
 3237TIP3   OH2 9646   0.557   4.193   2.977  0.0483  0.1314 -0.5170
 3237TIP3    H1 9647   0.513   4.268   2.938 -0.2809 -0.2678 -0.9120
 3237TIP3    H2 9648   0.486   4.136   3.005  0.3099 -0.3727 -0.8765
 3238TIP3   OH2 9649   8.156   1.586   1.818  0.3270 -0.0336 -0.0794
 3238TIP3    H1 9650   8.247   1.611   1.802  0.0034  0.9161 -0.4402
 3238TIP3    H2 9651   8.106   1.635   1.754 -0.3888 -1.0882 -0.3435
 3239TIP3   OH2 9652   0.669   3.249   2.929  0.0803 -0.4147  0.7555
 3239TIP3    H1 9653   0.660   3.178   2.866  0.3483  1.2343 -1.2267
 3239TIP3    H2 9654   0.759   3.243   2.960  1.1352  0.9570 -1.8660
 3240TIP3   OH2 9655   1.552   5.663   3.768  0.4862 -0.0457  0.2747
 3240TIP3    H1 9656   1.538   5.576   3.731  0.9403 -0.8600  1.9366
 3240TIP3    H2 9657   1.497   5.721   3.716  1.7568 -0.9728 -2.2022
 3241TIP3   OH2 9658   1.278   2.518   3.076 -0.0192  0.2808  0.0030
 3241TIP3    H1 9659   1.204   2.464   3.049 -0.5621  0.3285  1.3655
 3241TIP3    H2 9660   1.348   2.455   3.094 -0.5493  0.0262  1.2624
 3242TIP3   OH2 9661   8.308   2.765   3.538  0.1387  0.0940 -0.1192
 3242TIP3    H1 9662   8.381   2.799   3.486 -0.6839  1.3839 -0.4536
 3242TIP3    H2 9663   8.281   2.686   3.492 -2.6234  2.8918 -3.5471
 3243TIP3   OH2 9664   7.410   4.389   4.479 -0.1337  0.3321 -0.6019
 3243TIP3    H1 9665   7.340   4.348   4.529  1.0460 -0.1119  0.7266
 3243TIP3    H2 9666   7.426   4.329   4.406 -1.0636  0.3927 -0.8650
 3244TIP3   OH2 9667   8.153   1.875   4.704 -0.1118 -0.1899  0.1740
 3244TIP3    H1 9668   8.101   1.916   4.634 -1.6297 -1.2077  0.6860
 3244TIP3    H2 9669   8.225   1.832   4.657 -0.1587  0.5694 -0.6164
 3245TIP3   OH2 9670   7.854   4.034   2.109  0.0637 -0.3618  0.1782
 3245TIP3    H1 9671   7.902   4.071   2.035 -1.0328 -2.8469 -1.8332
 3245TIP3    H2 9672   7.922   4.005   2.170  0.9991  0.3806 -0.4987
 3246TIP3   OH2 9673   0.634   1.984   6.166 -0.0061  0.0058  0.3155
 3246TIP3    H1 9674   0.672   2.042   6.232  0.8253 -0.3688  0.1659
 3246TIP3    H2 9675   0.706   1.927   6.140 -1.0185 -1.6437  1.0784
 3247TIP3   OH2 9676   0.447   2.659   0.959 -0.5744  1.2222  0.3498
 3247TIP3    H1 9677   0.447   2.674   0.864  0.2191  0.4945  0.2324
 3247TIP3    H2 9678   0.432   2.565   0.969  1.6648  0.8910  0.8636
 3248TIP3   OH2 9679   0.574   2.951   5.597  0.1374  1.3379 -0.1610
 3248TIP3    H1 9680   0.569   3.037   5.556 -2.0002  0.7848 -1.1157
 3248TIP3    H2 9681   0.544   2.965   5.687 -0.5892  1.5249 -0.4289
 3249TIP3   OH2 9682   6.928   2.490   4.043 -0.1126  0.2093 -0.2261
 3249TIP3    H1 9683   7.013   2.523   4.071 -0.1966  0.3720 -0.1629
 3249TIP3    H2 9684   6.949   2.422   3.979  0.0587  0.5245 -0.5105
 3250TIP3   OH2 9685   0.241   3.106   2.663 -0.0892  0.3588 -0.6454
 3250TIP3    H1 9686   0.284   3.093   2.579  2.3419 -0.2162  0.6183
 3250TIP3    H2 9687   0.270   3.032   2.717 -2.8883 -0.1520  0.2175
 3251TIP3   OH2 9688   0.174   4.133   2.646  0.2537  0.6716 -0.0547
 3251TIP3    H1 9689   0.091   4.104   2.607  0.3563 -1.7920  1.4703
 3251TIP3    H2 9690   0.224   4.169   2.572 -1.1619 -0.1445 -1.4382
 3252TIP3   OH2 9691   0.546   3.209   5.442  0.0443  0.1539 -0.0935
 3252TIP3    H1 9692   0.460   3.182   5.410  0.1131  0.1088 -0.2400
 3252TIP3    H2 9693   0.577   3.272   5.377 -0.5121  1.2900  0.7266
 3253TIP3   OH2 9694   4.895   4.703   2.527  0.2273  0.1414  0.3155
 3253TIP3    H1 9695   4.940   4.763   2.587  0.7196 -0.1405  0.2323
 3253TIP3    H2 9696   4.893   4.749   2.444  2.2520 -0.6795 -0.2348
 3254TIP3   OH2 9697   0.489   5.698   3.690  0.3945 -1.0049 -0.0301
 3254TIP3    H1 9698   0.414   5.663   3.738  1.3880 -1.2477  1.3593
 3254TIP3    H2 9699   0.465   5.689   3.598 -0.6059 -2.5794  0.3719
 3255TIP3   OH2 9700   8.304   2.691   2.061  0.1194 -0.1973  0.1917
 3255TIP3    H1 9701   8.285   2.626   2.128  2.6444 -1.5942 -0.3673
 3255TIP3    H2 9702   8.278   2.649   1.979  0.2553  0.1468 -0.0298
 3256TIP3   OH2 9703   0.475   4.039   4.097 -0.4364  0.1013  0.6427
 3256TIP3    H1 9704   0.499   3.983   4.170  1.2888  1.4356  1.1095
 3256TIP3    H2 9705   0.515   3.998   4.021 -1.1262 -0.5625  0.6334
 3257TIP3   OH2 9706   7.158   1.766   2.386  0.0694  0.7759  0.1808
 3257TIP3    H1 9707   7.123   1.684   2.423 -1.6023  0.7746 -1.3476
 3257TIP3    H2 9708   7.157   1.827   2.460  1.0231 -0.4856  1.2553
 3258TIP3   OH2 9709   6.759   2.911   2.997  0.0926 -0.0420 -0.3398
 3258TIP3    H1 9710   6.725   2.926   2.909 -0.4650  0.4042 -0.0494
 3258TIP3    H2 9711   6.729   2.823   3.020  1.8905 -0.9533 -1.3555
 3259TIP3   OH2 9712   7.933   1.810   3.710 -0.7891  0.0570 -0.5063
 3259TIP3    H1 9713   7.958   1.890   3.757 -1.3598 -0.8670  1.4334
 3259TIP3    H2 9714   7.886   1.841   3.633  0.1837  1.6197 -0.4853
 3260TIP3   OH2 9715   1.177   4.057   3.676 -0.0658  0.0294 -0.4081
 3260TIP3    H1 9716   1.148   3.992   3.611  0.5142 -2.5998  1.8514
 3260TIP3    H2 9717   1.109   4.053   3.744  1.2992 -0.0931  0.9614
 3261TIP3   OH2 9718   8.115   2.966   2.600  0.1663 -0.0876  0.4536
 3261TIP3    H1 9719   8.078   3.054   2.600  0.7253  0.1668 -1.1145
 3261TIP3    H2 9720   8.079   2.924   2.522  0.4627 -1.0084  0.8015
 3262TIP3   OH2 9721   0.588   4.570   3.184  0.2082  0.2931  0.1445
 3262TIP3    H1 9722   0.546   4.583   3.099 -0.1574 -0.5298  0.1998
 3262TIP3    H2 9723   0.676   4.606   3.173  0.2859 -0.1342 -0.6864
 3263TIP3   OH2 9724   6.661   1.333   3.488 -0.4238  0.1540  0.2911
 3263TIP3    H1 9725   6.755   1.341   3.504 -0.6410  0.3932  1.5015
 3263TIP3    H2 9726   6.654   1.293   3.402  0.7904  1.3104 -0.3527
 3264TIP3   OH2 9727   0.706   4.569   3.732 -0.6574 -0.1991  0.4116
 3264TIP3    H1 9728   0.732   4.594   3.643 -0.5351 -0.0302  0.4935
 3264TIP3    H2 9729   0.789   4.552   3.777 -0.8079 -2.6288 -0.1791
 3265TIP3   OH2 9730   6.774   5.006   2.629 -0.0657 -0.2386 -0.2981
 3265TIP3    H1 9731   6.740   4.954   2.556 -1.2875  0.8363 -0.5081
 3265TIP3    H2 9732   6.747   5.095   2.610  1.9189  0.4661  0.1275
 3266TIP3   OH2 9733   8.219   2.805   4.842 -0.4405 -0.2536  0.2596
 3266TIP3    H1 9734   8.213   2.769   4.930 -0.1112 -2.1006 -0.4669
 3266TIP3    H2 9735   8.277   2.746   4.795 -1.5886  0.0207 -1.5454
 3267TIP3   OH2 9736   7.838   2.351   4.439 -0.0528 -0.6990  0.0766
 3267TIP3    H1 9737   7.923   2.393   4.434 -0.3040  0.0414  1.6369
 3267TIP3    H2 9738   7.825   2.312   4.353  0.9879  0.8744 -0.8202
 3268TIP3   OH2 9739   0.917   3.142   4.622 -0.0160  0.2757 -0.1475
 3268TIP3    H1 9740   0.893   3.124   4.531  1.2420  2.2900 -0.9002
 3268TIP3    H2 9741   0.897   3.060   4.669 -2.8043 -0.0327 -1.7766
 3269TIP3   OH2 9742   0.407   3.447   3.603  0.2524 -0.4294 -0.5069
 3269TIP3    H1 9743   0.375   3.537   3.597 -2.7918 -1.5077 -1.8181
 3269TIP3    H2 9744   0.450   3.442   3.688 -1.2553  1.7819  0.4362
 3270TIP3   OH2 9745   0.996   4.326   2.760 -0.1364 -0.1646 -0.0448
 3270TIP3    H1 9746   1.041   4.388   2.701  0.5945 -1.2923 -0.6870
 3270TIP3    H2 9747   0.938   4.276   2.703 -1.7778  0.8645  0.6915
 3271TIP3   OH2 9748   8.284   4.321   3.486 -1.2270  0.2385  0.4177
 3271TIP3    H1 9749   8.317   4.335   3.575  0.5160  0.2595 -0.2038
 3271TIP3    H2 9750   8.338   4.250   3.452 -1.6280  0.4941 -0.7591
 3272TIP3   OH2 9751   0.051   5.140   3.054  0.5441  0.0895  0.9617
 3272TIP3    H1 9752   0.105   5.149   3.133  2.3895 -0.0957 -0.2584
 3272TIP3    H2 9753   0.112   5.113   2.986 -1.3014 -1.2753 -0.1908
 3273TIP3   OH2 9754   1.637   4.016   3.038  0.6172 -0.1941  0.1356
 3273TIP3    H1 9755   1.629   3.923   3.021  1.0149 -0.4254  1.1847
 3273TIP3    H2 9756   1.577   4.057   2.976  0.9493 -1.0984 -0.7951
 3274TIP3   OH2 9757   0.421   4.601   3.387 -0.0483  0.7215 -0.3903
 3274TIP3    H1 9758   0.346   4.589   3.329  0.1685 -0.9512 -0.3453
 3274TIP3    H2 9759   0.497   4.589   3.331  0.1734  1.1040 -0.1692
 3275TIP3   OH2 9760   7.218   4.327   2.937  0.2541 -0.0719  0.1172
 3275TIP3    H1 9761   7.166   4.332   2.857 -0.9884  0.4392  0.9424
 3275TIP3    H2 9762   7.306   4.302   2.907 -0.4781 -1.0289 -1.2845
 3276TIP3   OH2 9763   8.117   6.084   2.874 -0.2115 -0.5372  0.7250
 3276TIP3    H1 9764   8.080   6.165   2.840  0.7768  0.5387  2.1572
 3276TIP3    H2 9765   8.169   6.048   2.801 -1.8938 -0.6999 -0.4133
 3277TIP3   OH2 9766   0.438   5.191   4.679 -0.2130 -0.4165 -0.1393
 3277TIP3    H1 9767   0.476   5.138   4.749 -1.3426  1.2832  1.8049
 3277TIP3    H2 9768   0.396   5.128   4.621  2.3833 -2.0209 -0.3679
 3278TIP3   OH2 9769   7.802   4.884   3.231  0.5299 -0.0787 -0.6855
 3278TIP3    H1 9770   7.803   4.816   3.164 -0.3562 -1.0974  0.3205
 3278TIP3    H2 9771   7.742   4.851   3.298  1.0327  1.1480  0.3834
 3279TIP3   OH2 9772   0.787   6.370   4.626  0.0760 -0.1392 -0.1455
 3279TIP3    H1 9773   0.839   6.320   4.563 -0.8950 -1.8130  0.3570
 3279TIP3    H2 9774   0.849   6.433   4.664  1.5176 -1.4954 -0.2083
 3280TIP3   OH2 9775   8.182   3.915   3.406 -0.5669  0.0231  0.4687
 3280TIP3    H1 9776   8.275   3.932   3.422 -0.3697 -0.3545 -0.2821
 3280TIP3    H2 9777   8.141   3.927   3.492  0.0689  0.8958  0.6660
 3281TIP3   OH2 9778   1.807   3.015   3.110  0.0016  0.4869  0.2179
 3281TIP3    H1 9779   1.794   2.957   3.185  0.6284  2.8090  2.1772
 3281TIP3    H2 9780   1.897   2.998   3.082 -0.0658 -0.0299  0.3095
 3282TIP3   OH2 9781   1.469   4.070   0.662  0.1289 -0.1824  0.5344
 3282TIP3    H1 9782   1.385   4.106   0.691  0.4334  0.5293  0.5578
 3282TIP3    H2 9783   1.505   4.028   0.740  0.4532  0.7898  0.9215
 3283TIP3   OH2 9784   7.806   1.557   3.784  0.1551  0.6383  0.3880
 3283TIP3    H1 9785   7.791   1.548   3.690 -0.8765  0.3999  0.5721
 3283TIP3    H2 9786   7.861   1.635   3.791 -0.0745  0.8824 -0.3876
 3284TIP3   OH2 9787   7.622   6.533   2.088  0.3138  0.3534  0.0106
 3284TIP3    H1 9788   7.542   6.558   2.043  0.6338  0.8626 -0.2820
 3284TIP3    H2 9789   7.617   6.438   2.095 -0.2737  0.3781 -0.0836
 3285TIP3   OH2 9790   1.396   2.393   3.689 -0.1140 -0.5233  0.5381
 3285TIP3    H1 9791   1.335   2.465   3.697 -0.0288 -0.3238 -0.5060
 3285TIP3    H2 9792   1.481   2.430   3.714  0.0724 -0.0328 -0.7597
 3286TIP3   OH2 9793   8.420   4.428   4.238  0.3383 -0.4120  0.3825
 3286TIP3    H1 9794   8.509   4.460   4.231  0.0383  0.3351 -0.1792
 3286TIP3    H2 9795   8.428   4.333   4.245  1.1605 -0.3807 -0.1230
 3287TIP3   OH2 9796   1.283   1.790   4.316 -0.7647  0.0373 -0.4012
 3287TIP3    H1 9797   1.323   1.845   4.383  0.1116  0.2137 -1.0591
 3287TIP3    H2 9798   1.192   1.819   4.312 -0.0743  2.1484 -1.4449
 3288TIP3   OH2 9799   7.974   2.680   3.904  0.3417  0.3487 -0.1074
 3288TIP3    H1 9800   7.961   2.619   3.977 -1.4341  0.0937 -0.6118
 3288TIP3    H2 9801   7.981   2.625   3.827  0.6014  0.6967 -0.3340
 3289TIP3   OH2 9802   7.989   4.328   3.739 -0.0903  0.4931 -0.2927
 3289TIP3    H1 9803   8.039   4.409   3.726  1.3211  0.0099  1.8772
 3289TIP3    H2 9804   7.988   4.316   3.834  0.9711 -2.7969 -0.6370
 3290TIP3   OH2 9805   8.092   1.398   4.536  0.2499  0.5824 -0.0560
 3290TIP3    H1 9806   8.095   1.480   4.488  1.9619  0.2877 -0.4790
 3290TIP3    H2 9807   8.106   1.331   4.469 -2.0280 -0.1488  0.1328
 3291TIP3   OH2 9808   7.585   4.359   5.314  0.0449 -0.0667 -0.4688
 3291TIP3    H1 9809   7.645   4.430   5.292 -1.1912  1.0177 -0.3912
 3291TIP3    H2 9810   7.542   4.387   5.394 -0.4877 -0.8807 -0.4650
 3292TIP3   OH2 9811   7.135   3.393   1.179  0.2722  0.7238  0.2995
 3292TIP3    H1 9812   7.108   3.474   1.136  1.6833  0.7739 -0.5466
 3292TIP3    H2 9813   7.225   3.410   1.208  0.2036 -0.1676  1.0898
 3293TIP3   OH2 9814   0.624   3.598   4.637  0.1154 -0.3757  0.6512
 3293TIP3    H1 9815   0.692   3.657   4.603  0.7034 -0.5001  1.6059
 3293TIP3    H2 9816   0.601   3.635   4.722  0.4349 -1.4879  1.2197
 3294TIP3   OH2 9817   7.463   1.559   1.101 -0.4843  0.0442  0.2693
 3294TIP3    H1 9818   7.494   1.484   1.051  0.0927  0.2107  0.3767
 3294TIP3    H2 9819   7.400   1.602   1.044 -1.5867 -1.1050  0.6075
 3295TIP3   OH2 9820   1.662   2.290   5.759 -0.1621  0.2531  0.1373
 3295TIP3    H1 9821   1.748   2.251   5.745  0.1960  0.5339  1.5195
 3295TIP3    H2 9822   1.624   2.240   5.831 -0.1980  1.6251  1.1040
 3296TIP3   OH2 9823   0.700   4.607   1.262  0.2386 -0.0024 -0.3833
 3296TIP3    H1 9824   0.671   4.534   1.318  0.1515  0.1850 -0.1840
 3296TIP3    H2 9825   0.672   4.581   1.174 -1.8855  0.8490  0.0107
 3297TIP3   OH2 9826   1.127   4.780   3.895 -0.0527 -0.5998  0.0894
 3297TIP3    H1 9827   1.070   4.703   3.903 -1.3157  0.4676  1.8670
 3297TIP3    H2 9828   1.182   4.777   3.974  0.0192  0.2196  0.0725
 3298TIP3   OH2 9829   6.941   4.209   3.666  0.1653  0.3102 -0.3659
 3298TIP3    H1 9830   6.991   4.289   3.652 -0.8046  1.2022  1.0721
 3298TIP3    H2 9831   7.006   4.143   3.689  0.8720  0.9772 -0.4442
 3299TIP3   OH2 9832   0.518   5.298   2.113 -0.0018  0.4376  0.7653
 3299TIP3    H1 9833   0.565   5.378   2.089  0.2977 -0.1436 -0.6645
 3299TIP3    H2 9834   0.587   5.238   2.141  0.0639 -0.2057 -0.7337
 3300TIP3   OH2 9835   0.074   5.039   2.114 -0.0493 -0.0086  0.1217
 3300TIP3    H1 9836   0.024   5.110   2.154 -0.3034  0.2172 -0.5968
 3300TIP3    H2 9837   0.015   4.963   2.116 -0.1504  0.0646 -0.0351
 3301TIP3   OH2 9838   0.920   3.608   2.960  0.3167 -0.0580 -0.0299
 3301TIP3    H1 9839   0.881   3.609   3.048  1.3605 -0.3726  0.4468
 3301TIP3    H2 9840   0.852   3.572   2.904 -0.8769  1.4529  0.3945
 3302TIP3   OH2 9841   8.070   5.511   2.661 -0.3375  0.0676  0.2164
 3302TIP3    H1 9842   7.995   5.483   2.608  0.8189 -0.7330 -1.0592
 3302TIP3    H2 9843   8.111   5.581   2.610  0.3420 -0.1722  0.4204
 3303TIP3   OH2 9844   0.808   4.423   2.951 -0.2349  0.1630  0.1932
 3303TIP3    H1 9845   0.737   4.364   2.925 -0.6478  1.3475 -1.5150
 3303TIP3    H2 9846   0.872   4.417   2.880  0.2264  0.9366  0.5376
 3304TIP3   OH2 9847   1.003   6.175   3.623  0.4639  0.6613  0.4139
 3304TIP3    H1 9848   0.936   6.239   3.647 -0.2176 -0.0318  0.3850
 3304TIP3    H2 9849   1.044   6.211   3.545 -0.0964  0.9509  0.2475
 3305TIP3   OH2 9850   0.152   2.492   3.464  0.1629  0.4694 -0.2361
 3305TIP3    H1 9851   0.160   2.568   3.521  1.0238  1.6658 -1.8976
 3305TIP3    H2 9852   0.242   2.459   3.456 -0.1315 -0.4369  0.0739
 3306TIP3   OH2 9853   0.009   2.835   4.796  0.3809 -0.0348  0.0106
 3306TIP3    H1 9854  -0.000   2.745   4.826  0.7933  0.2445  0.9947
 3306TIP3    H2 9855   0.103   2.852   4.798  0.2721  0.5612  0.2651
 3307TIP3   OH2 9856   6.925   2.707   5.150 -0.0480 -0.0806 -0.5725
 3307TIP3    H1 9857   6.980   2.735   5.077  1.7355 -0.9127  0.3922
 3307TIP3    H2 9858   6.910   2.614   5.134 -0.6675  0.0074 -0.5076
 3308TIP3   OH2 9859   7.413   3.807   5.476 -0.2484 -0.3508  0.0528
 3308TIP3    H1 9860   7.476   3.769   5.537 -0.2442 -2.6068 -1.2874
 3308TIP3    H2 9861   7.329   3.767   5.501 -0.3945 -0.6132 -0.8404
 3309TIP3   OH2 9862   0.466   3.803   1.994  0.0063  0.6241  0.0828
 3309TIP3    H1 9863   0.555   3.788   2.027  0.7081  1.0602 -1.5420
 3309TIP3    H2 9864   0.477   3.807   1.898 -1.3165  3.5251  0.0079
 3310TIP3   OH2 9865   0.852   5.191   4.471  0.2095 -0.0384  0.4773
 3310TIP3    H1 9866   0.939   5.154   4.482 -0.2691 -0.9405  1.2339
 3310TIP3    H2 9867   0.841   5.250   4.546 -0.4037 -1.0514  1.1961
 3311TIP3   OH2 9868   7.771   4.349   1.830 -0.5336 -0.0419 -0.1730
 3311TIP3    H1 9869   7.687   4.361   1.874  0.1456  0.7363  0.9541
 3311TIP3    H2 9870   7.800   4.437   1.809  0.7638 -0.1863  0.9361
 3312TIP3   OH2 9871   0.582   3.960   5.816  0.3226 -1.1624  0.2841
 3312TIP3    H1 9872   0.593   4.054   5.827 -2.0856 -0.7119 -0.9366
 3312TIP3    H2 9873   0.654   3.934   5.758 -0.0477  0.2344 -0.8165
 3313TIP3   OH2 9874   0.316   3.051   2.397 -0.0846 -0.7884 -0.3277
 3313TIP3    H1 9875   0.246   3.057   2.332 -1.2639 -1.2875  0.8642
 3313TIP3    H2 9876   0.363   2.971   2.374  0.1044 -0.4491 -1.1352
 3314TIP3   OH2 9877   0.832   4.286   4.271 -0.5396  0.0249 -0.3117
 3314TIP3    H1 9878   0.799   4.234   4.198  0.9602  0.9560 -1.6977
 3314TIP3    H2 9879   0.927   4.270   4.270 -0.6224 -0.7731  2.0969
 3315TIP3   OH2 9880   0.509   4.565   4.358 -0.3285  0.3017 -1.1334
 3315TIP3    H1 9881   0.557   4.520   4.427  0.4252  2.2640 -0.3558
 3315TIP3    H2 9882   0.467   4.639   4.401 -1.5681  0.3728 -2.3926
 3316TIP3   OH2 9883   1.190   5.100   3.752 -0.2390  0.0012  0.0857
 3316TIP3    H1 9884   1.118   5.128   3.808 -1.3281 -1.2234 -0.7054
 3316TIP3    H2 9885   1.174   5.008   3.735  2.3328 -0.6876  1.1318
 3317TIP3   OH2 9886   8.011   3.688   2.346 -0.4707  0.0888  0.1429
 3317TIP3    H1 9887   7.984   3.648   2.263 -1.8052 -0.8442  1.0150
 3317TIP3    H2 9888   7.948   3.657   2.410  1.5125 -0.5340  1.8567
 3318TIP3   OH2 9889   0.043   2.404   5.099 -0.1385 -0.0300  0.2837
 3318TIP3    H1 9890  -0.021   2.360   5.043 -0.2216  1.3861 -0.7689
 3318TIP3    H2 9891  -0.009   2.445   5.168 -0.4584  1.6999 -0.9593
 3319TIP3   OH2 9892   1.494   4.714   3.307  0.3731  0.5498 -0.0656
 3319TIP3    H1 9893   1.564   4.704   3.371  1.5944 -0.1680 -1.4908
 3319TIP3    H2 9894   1.526   4.669   3.229 -1.4693  0.6400 -0.8978
 3320TIP3   OH2 9895   0.198   4.090   4.086  0.1725  0.3242 -0.4558
 3320TIP3    H1 9896   0.289   4.064   4.075  0.4354  0.7766  0.5369
 3320TIP3    H2 9897   0.163   4.095   3.997  1.0427 -0.1110 -0.8271
 3321TIP3   OH2 9898   7.600   4.585   4.121 -0.3071 -0.3861 -0.2643
 3321TIP3    H1 9899   7.562   4.578   4.034 -1.4029 -1.9186  0.3305
 3321TIP3    H2 9900   7.688   4.619   4.106 -0.2946 -1.1677 -2.0102
 3322TIP3   OH2 9901   2.225   2.652   6.442 -0.0909 -0.5243  0.1693
 3322TIP3    H1 9902   2.236   2.580   6.380  2.8213  0.3480 -0.3816
 3322TIP3    H2 9903   2.313   2.672   6.472 -0.8643  2.5971  0.5645
 3323TIP3   OH2 9904   6.933   1.137   2.621  0.5971 -0.2935  0.1092
 3323TIP3    H1 9905   6.921   1.145   2.715  1.0682 -0.2677  0.1710
 3323TIP3    H2 9906   6.984   1.214   2.597  1.7167 -1.0366  0.0614
 3324TIP3   OH2 9907   7.959   3.034   5.039 -0.0200 -0.0668  0.5510
 3324TIP3    H1 9908   8.013   3.108   5.013 -0.5395  0.5800  1.2813
 3324TIP3    H2 9909   7.905   3.067   5.111  0.4043 -1.4200  1.5157
 3325TIP3   OH2 9910   7.237   3.958   2.749 -0.4179  0.1883  0.4010
 3325TIP3    H1 9911   7.145   3.984   2.758 -0.2226  0.8446  0.4549
 3325TIP3    H2 9912   7.268   3.948   2.839 -0.2204  0.7135  0.3926
 3326TIP3   OH2 9913   0.530   4.966   2.367  0.0682  0.5014 -0.1616
 3326TIP3    H1 9914   0.450   4.965   2.315  0.7077 -0.3140 -1.1424
 3326TIP3    H2 9915   0.591   5.018   2.315  0.2376  0.9737  0.5023
 3327TIP3   OH2 9916   1.910   4.852   4.221  0.5543 -1.1564 -0.3882
 3327TIP3    H1 9917   1.966   4.775   4.229  0.5502 -0.9483  1.8882
 3327TIP3    H2 9918   1.843   4.826   4.157 -1.1039 -4.1091  2.3968
 3328TIP3   OH2 9919   1.844   2.956   4.858  0.0776 -0.4039 -0.7455
 3328TIP3    H1 9920   1.837   2.861   4.850  0.5037 -0.4655 -0.4266
 3328TIP3    H2 9921   1.838   2.972   4.952 -2.6236  0.1076 -0.9808
 3329TIP3   OH2 9922   1.082   5.120   3.054  0.2543 -0.2645 -0.2910
 3329TIP3    H1 9923   1.064   5.093   3.144 -0.4743 -1.2130 -0.7146
 3329TIP3    H2 9924   1.003   5.097   3.005  0.7959 -0.1241 -1.2532
 3330TIP3   OH2 9925   8.410   2.360   3.625  0.1695 -0.0479 -0.3081
 3330TIP3    H1 9926   8.470   2.397   3.561  0.4209  0.1941  0.0671
 3330TIP3    H2 9927   8.421   2.265   3.617  1.3844  0.0229  0.5087
 3331TIP3   OH2 9928  -0.002   3.920   2.877 -0.0465  0.2858 -0.5781
 3331TIP3    H1 9929  -0.064   3.870   2.823 -1.1695  0.0687  0.8710
 3331TIP3    H2 9930   0.084   3.888   2.851 -0.6159 -0.4095 -1.6515
 3332TIP3   OH2 9931   1.103   2.865   4.923 -0.1733 -0.0875  0.6004
 3332TIP3    H1 9932   1.174   2.807   4.896 -0.8785 -1.4175  1.5410
 3332TIP3    H2 9933   1.118   2.881   5.016  0.3314  1.7171  0.2171
 3333TIP3   OH2 9934   0.860   2.215   3.294 -0.3752  0.0527 -0.1780
 3333TIP3    H1 9935   0.942   2.251   3.327  0.6112  0.3763 -2.8650
 3333TIP3    H2 9936   0.803   2.291   3.283 -0.0653  0.1755 -0.9567
 3334TIP3   OH2 9937   0.475   4.423   2.889  0.5660 -0.2751 -0.3692
 3334TIP3    H1 9938   0.532   4.496   2.912 -0.1890  0.7702 -1.7249
 3334TIP3    H2 9939   0.433   4.451   2.807 -0.5006 -1.7942 -0.3509
 3335TIP3   OH2 9940   1.433   3.807   3.274 -0.3646 -0.5940 -0.5845
 3335TIP3    H1 9941   1.451   3.717   3.248  3.2786  0.2448 -1.2682
 3335TIP3    H2 9942   1.381   3.843   3.202  1.0288 -1.2161 -1.9372
 3336TIP3   OH2 9943   8.369   3.151   2.519  0.1228 -0.4368 -0.7944
 3336TIP3    H1 9944   8.388   3.239   2.553 -2.0817 -0.0652 -0.4674
 3336TIP3    H2 9945   8.414   3.092   2.578 -0.5212  0.3795  0.5322
 3337TIP3   OH2 9946   0.989   4.674   4.301  0.1857 -0.1706  0.2574
 3337TIP3    H1 9947   0.910   4.621   4.288 -0.2838  0.5548  0.0977
 3337TIP3    H2 9948   1.017   4.655   4.390 -1.1224  0.8199  0.8975
 3338TIP3   OH2 9949   6.710   2.756   2.152 -0.2033 -0.1504  0.2310
 3338TIP3    H1 9950   6.696   2.663   2.135  1.3963 -0.5120  0.7448
 3338TIP3    H2 9951   6.740   2.791   2.069 -4.1403  0.6684 -0.9251
 3339TIP3   OH2 9952   0.740   6.457   5.028 -0.2680 -0.6635  0.0716
 3339TIP3    H1 9953   0.688   6.450   4.949  0.0669 -1.3311 -0.1003
 3339TIP3    H2 9954   0.768   6.548   5.032 -0.1597 -0.6664 -0.6634
 3340TIP3   OH2 9955   0.877   4.883   3.165 -0.0270 -0.4262 -0.0141
 3340TIP3    H1 9956   0.891   4.788   3.167  2.9458  0.0092  0.8331
 3340TIP3    H2 9957   0.862   4.903   3.073 -1.8364 -1.8437 -0.0664
 3341TIP3   OH2 9958   0.861   4.205   4.528 -0.1806  0.2599  0.4238
 3341TIP3    H1 9959   0.948   4.241   4.510  0.0297  0.3207  1.5166
 3341TIP3    H2 9960   0.819   4.199   4.442  0.6365  0.9169 -0.0286
 3342TIP3   OH2 9961   0.043   3.661   5.073  0.2375 -0.0141 -0.0847
 3342TIP3    H1 9962   0.132   3.632   5.053 -0.0406 -1.1664  0.2704
 3342TIP3    H2 9963  -0.008   3.580   5.076 -1.4387  0.8168 -3.2647
 3343TIP3   OH2 9964   3.066   1.816   1.137 -0.0307 -0.6822  0.4999
 3343TIP3    H1 9965   3.137   1.781   1.083  0.0376 -0.2231  0.2858
 3343TIP3    H2 9966   3.019   1.875   1.078 -0.7958 -1.2448  0.5460
 3344TIP3   OH2 9967   6.927   4.152   2.608  0.0726  0.4547  0.6692
 3344TIP3    H1 9968   6.946   4.059   2.601  0.7487  0.7545 -2.4652
 3344TIP3    H2 9969   6.878   4.173   2.528 -2.3310  2.3081  2.5106
 3345TIP3   OH2 9970   0.526   3.834   3.912 -0.0188  0.0757 -0.4233
 3345TIP3    H1 9971   0.571   3.750   3.925  0.4410  0.0644 -2.0505
 3345TIP3    H2 9972   0.476   3.821   3.832 -1.3491  0.7767  0.2790
 3346TIP3   OH2 9973   0.668   2.588   3.820 -0.2296  0.0168 -0.3203
 3346TIP3    H1 9974   0.634   2.658   3.765  0.8514  0.9685  0.2014
 3346TIP3    H2 9975   0.675   2.627   3.908  1.1789 -0.4548 -0.1997
 3347TIP3   OH2 9976   3.525   5.201   2.888  0.0663 -0.2101 -0.3039
 3347TIP3    H1 9977   3.442   5.157   2.870 -0.3271  0.0697  0.8136
 3347TIP3    H2 9978   3.572   5.197   2.805 -1.4709  0.5118 -1.2356
 3348TIP3   OH2 9979   2.709   2.873   5.018  0.0793 -0.4978 -0.0529
 3348TIP3    H1 9980   2.805   2.875   5.016  0.1417 -0.9894  1.8715
 3348TIP3    H2 9981   2.685   2.957   5.058 -0.3241 -0.1947 -0.9166
 3349TIP3   OH2 9982   0.316   1.418   5.076  0.0707  0.2136  0.3903
 3349TIP3    H1 9983   0.221   1.409   5.066  0.2191 -0.6408 -0.4372
 3349TIP3    H2 9984   0.346   1.329   5.094  1.0339 -0.0847 -2.4061
 3350TIP3   OH2 9985   7.280   3.565   2.753 -0.1502 -0.4257 -0.8130
 3350TIP3    H1 9986   7.236   3.500   2.809 -0.0406 -0.6648 -1.0019
 3350TIP3    H2 9987   7.361   3.585   2.801  0.4144 -1.3575 -1.3371
 3351TIP3   OH2 9988   7.823   5.541   4.631  0.0284 -0.2933 -0.4387
 3351TIP3    H1 9989   7.739   5.494   4.629 -0.3781  0.2370  2.1708
 3351TIP3    H2 9990   7.885   5.477   4.665  0.0114  0.2802  0.6746
 3352TIP3   OH2 9991   0.858   3.390   3.428  0.0890  0.1684  0.2366
 3352TIP3    H1 9992   0.784   3.368   3.371  0.2806  0.0580  0.0297
 3352TIP3    H2 9993   0.922   3.321   3.411 -0.4310 -0.6934  1.6670
 3353TIP3   OH2 9994   8.244   4.553   5.770 -0.3484  0.4303 -0.6341
 3353TIP3    H1 9995   8.206   4.579   5.687 -0.6894  0.3034 -0.5178
 3353TIP3    H2 9996   8.338   4.547   5.753 -0.2154  2.0169 -0.5940
 3354TIP3   OH2 9997   0.243   6.424   3.663 -0.1557  0.0276  0.9095
 3354TIP3    H1 9998   0.307   6.353   3.665  0.0694  0.2200  0.6124
 3354TIP3    H2 9999   0.234   6.451   3.754  1.1587  0.8740  0.7964
 3355TIP3   OH210000   0.677   5.501   2.111  0.8526  0.2173  0.5145
 3355TIP3    H110001   0.668   5.559   2.187  0.5338  1.3793 -0.4050
 3355TIP3    H210002   0.771   5.504   2.089  0.7706  0.6910  0.2281
 3356TIP3   OH210003   8.021   4.319   3.454 -0.4663  0.2116 -0.3502
 3356TIP3    H110004   8.114   4.302   3.470 -0.3808 -2.2184 -3.1047
 3356TIP3    H210005   7.977   4.287   3.533  0.9250  0.2655  0.4644
 3357TIP3   OH210006   6.769   2.675   3.435  0.2203 -0.0699 -0.3054
 3357TIP3    H110007   6.798   2.652   3.523  1.0542  0.1481 -0.5283
 3357TIP3    H210008   6.800   2.603   3.380  3.2000  1.7341 -1.0818
 3358TIP3   OH210009   0.203   3.751   2.135 -0.2282 -0.4041  0.0951
 3358TIP3    H110010   0.192   3.820   2.201  0.5687  0.8124 -1.0228
 3358TIP3    H210011   0.296   3.756   2.111 -0.8778  0.2906 -2.3544
 3359TIP3   OH210012   7.916   2.569   1.774 -0.0343  0.7720 -0.1958
 3359TIP3    H110013   7.938   2.638   1.711  0.6738  0.2051 -0.5770
 3359TIP3    H210014   7.889   2.617   1.853  1.6915  1.5010 -0.0221
 3360TIP3   OH210015   0.899   1.979   3.165  0.3367 -0.2823 -0.4082
 3360TIP3    H110016   0.911   2.024   3.081  2.5566  0.7049  0.4153
 3360TIP3    H210017   0.868   2.046   3.225 -0.2868 -0.7738 -0.1681
 3361TIP3   OH210018   0.139   1.545   4.168 -0.3320  0.5602 -0.3424
 3361TIP3    H110019   0.171   1.616   4.223 -0.7079  1.7050 -1.6019
 3361TIP3    H210020   0.141   1.468   4.226  2.2188  1.1169  0.3389
 3362TIP3   OH210021   0.598   0.808   3.669  0.2863 -0.4589  0.0204
 3362TIP3    H110022   0.528   0.759   3.713  1.3269 -1.6472  0.3591
 3362TIP3    H210023   0.615   0.759   3.589  0.9209 -0.3155  0.0710
 3363TIP3   OH210024   7.736   3.068   1.665 -0.1696 -0.1138 -0.2065
 3363TIP3    H110025   7.711   3.060   1.573  0.4458  1.1065 -0.4914
 3363TIP3    H210026   7.662   3.030   1.714 -0.8134 -0.1135 -1.1697
 3364TIP3   OH210027   0.290   2.824   4.599  0.3974 -0.4473 -0.3512
 3364TIP3    H110028   0.330   2.870   4.525 -1.9284  0.3117 -1.1750
 3364TIP3    H210029   0.207   2.792   4.565 -0.0331 -1.3906  1.5259
 3365TIP3   OH210030   7.450   0.810   2.373 -0.0354  0.2257  0.8657
 3365TIP3    H110031   7.537   0.782   2.344 -0.6797 -0.7009 -0.2270
 3365TIP3    H210032   7.459   0.822   2.468  1.2341 -0.0300  0.7853
 3366TIP3   OH210033   1.974   5.516   2.973  0.2079 -0.4867 -0.4999
 3366TIP3    H110034   1.932   5.599   2.994  0.9435 -0.2618  0.1259
 3366TIP3    H210035   2.064   5.526   3.005 -0.3510 -2.3887  1.8359
 3367TIP3   OH210036   0.907   4.529   3.908 -0.4460  0.1516 -0.5787
 3367TIP3    H110037   0.952   4.447   3.927 -0.8151  0.1588  0.3374
 3367TIP3    H210038   0.891   4.569   3.993 -2.1411  0.1735 -0.8832
 3368TIP3   OH210039   8.197   0.405   5.982  0.1935 -0.2474 -0.0853
 3368TIP3    H110040   8.273   0.356   6.015 -0.3608  0.2589  2.0324
 3368TIP3    H210041   8.123   0.347   5.996 -0.3262  0.7566  1.5094
 3369TIP3   OH210042   2.779   2.721   3.682  0.1878 -0.3606  0.0306
 3369TIP3    H110043   2.750   2.651   3.742 -0.9375  0.6667  0.7144
 3369TIP3    H210044   2.703   2.779   3.675 -0.0957 -1.0651 -3.3428
 3370TIP3   OH210045   0.542   0.662   4.345 -0.0157  0.5037  0.1921
 3370TIP3    H110046   0.620   0.694   4.299 -0.1273  0.3246 -0.1206
 3370TIP3    H210047   0.495   0.611   4.280  0.0577 -0.1427  0.6389
 3371TIP3   OH210048   3.036   4.164   1.583 -0.5184  0.0502 -0.3500
 3371TIP3    H110049   3.030   4.080   1.626  1.4630 -0.0736 -0.2721
 3371TIP3    H210050   2.987   4.153   1.501 -0.6666 -1.0172 -0.1168
 3372TIP3   OH210051   2.915   1.721   0.461  0.0852  0.2998 -0.3889
 3372TIP3    H110052   2.879   1.663   0.393 -1.9634 -2.0881  2.6331
 3372TIP3    H210053   3.009   1.718   0.446 -0.2789 -0.5961 -2.8186
 3373TIP3   OH210054   3.229   3.800   1.390  0.1210 -0.3743  0.0279
 3373TIP3    H110055   3.265   3.715   1.416  1.1348  0.9888  3.3262
 3373TIP3    H210056   3.134   3.788   1.395  0.2326 -1.4837 -0.2172
 3374TIP3   OH210057   2.693   3.235   1.385  0.3096  0.0193  0.0986
 3374TIP3    H110058   2.660   3.170   1.323  0.6604 -1.3019  1.2642
 3374TIP3    H210059   2.786   3.242   1.364  0.5582 -0.9080  0.9046
 3375TIP3   OH210060   3.103   4.233   2.892  0.0936  0.1529  0.1717
 3375TIP3    H110061   3.020   4.204   2.929 -0.4319  1.0654 -0.2651
 3375TIP3    H210062   3.145   4.154   2.860  0.1744 -0.5542  1.9360
 3376TIP3   OH210063   3.476   4.825   2.876 -0.2921 -0.1060 -0.3344
 3376TIP3    H110064   3.424   4.864   2.806 -1.6865 -1.5712 -0.1532
 3376TIP3    H210065   3.509   4.743   2.839 -1.7333 -1.3098  0.9490
 3377TIP3   OH210066   0.974   2.867   4.109 -0.6243 -0.7518 -0.4367
 3377TIP3    H110067   1.030   2.806   4.157 -0.3169 -0.7447 -0.7846
 3377TIP3    H210068   1.031   2.903   4.041 -1.1285 -0.9723 -0.9824
 3378TIP3   OH210069   2.977   2.824   3.504  0.6471 -0.2268 -0.2629
 3378TIP3    H110070   3.029   2.806   3.583 -0.8267 -1.5408  0.4449
 3378TIP3    H210071   2.887   2.808   3.531  0.1594 -1.2210 -2.3829
 3379TIP3   OH210072   3.221   4.882   3.851  0.1622 -0.0805 -1.0245
 3379TIP3    H110073   3.235   4.793   3.884 -2.0493  0.2765  1.0080
 3379TIP3    H210074   3.255   4.939   3.921 -0.2909  0.6769 -1.4134
 3380TIP3   OH210075   2.432   5.180   3.114  0.2071  0.3839 -0.2366
 3380TIP3    H110076   2.428   5.184   3.209  1.8769 -0.5562 -0.1030
 3380TIP3    H210077   2.404   5.091   3.093  1.3943  0.0646 -0.5034
 3381TIP3   OH210078   3.170   4.562   1.829 -0.7505  0.2642 -0.0831
 3381TIP3    H110079   3.203   4.474   1.852  3.3863  1.1903 -2.0195
 3381TIP3    H210080   3.130   4.550   1.743 -0.0972  0.2748 -0.3930
 3382TIP3   OH210081   1.498   2.586   2.449  0.2509 -0.5644  0.0310
 3382TIP3    H110082   1.426   2.525   2.438 -0.3258  0.4200 -1.8613
 3382TIP3    H210083   1.577   2.534   2.431 -0.0385 -1.3649  1.0247
 3383TIP3   OH210084   1.981   2.753   1.804 -0.4582  0.0337  0.0939
 3383TIP3    H110085   1.957   2.712   1.722 -0.9272  2.8203 -1.2332
 3383TIP3    H210086   1.902   2.800   1.832  0.4513  1.1839  0.7985
 3384TIP3   OH210087   2.835   4.595   2.942 -0.3268 -0.6552 -0.1073
 3384TIP3    H110088   2.834   4.531   2.871 -1.1360 -0.3898 -0.3392
 3384TIP3    H210089   2.832   4.680   2.898  0.0117 -0.4652  0.2258
 3385TIP3   OH210090   1.231   4.996   2.444 -1.2158 -0.2621  0.3868
 3385TIP3    H110091   1.232   5.071   2.504 -0.5869  0.7095 -0.8146
 3385TIP3    H210092   1.290   4.932   2.484  1.5758  1.5711 -0.6402
 3386TIP3   OH210093   3.741   2.992   0.683 -0.5142  0.4785  0.2427
 3386TIP3    H110094   3.670   3.032   0.633  0.6460  2.5624  0.2016
 3386TIP3    H210095   3.789   3.066   0.720  1.3240 -0.9123  0.7161
 3387TIP3   OH210096   3.322   4.314   3.060  0.5212 -1.0371 -0.3374
 3387TIP3    H110097   3.249   4.307   2.998 -0.5728 -1.4617  0.9696
 3387TIP3    H210098   3.353   4.224   3.072 -0.4824 -1.2139  1.1213
 3388TIP3   OH210099   3.564   4.742   3.284  0.1905  0.2442 -0.2905
 3388TIP3    H110100   3.545   4.683   3.211 -2.0391 -0.5498  0.8759
 3388TIP3    H210101   3.507   4.817   3.270 -0.4037 -0.0071  0.7324
 3389TIP3   OH210102   2.149   4.735   3.437 -0.5130 -0.4809  0.0316
 3389TIP3    H110103   2.139   4.804   3.503  2.2138 -1.6691  1.7867
 3389TIP3    H210104   2.059   4.715   3.410 -1.4765  2.3943  0.8775
 3390TIP3   OH210105   1.822   6.370   4.553  0.2802  0.0191 -0.0011
 3390TIP3    H110106   1.855   6.280   4.562  1.3308  0.3074 -0.7894
 3390TIP3    H210107   1.775   6.387   4.634 -0.9668 -1.6666 -0.3591
 3391TIP3   OH210108   2.867   3.260   3.211  0.0010 -0.2232 -0.3764
 3391TIP3    H110109   2.947   3.302   3.182 -0.5492  0.4277 -0.9477
 3391TIP3    H210110   2.835   3.315   3.282  0.1320 -0.5598 -0.0546
 3392TIP3   OH210111   3.340   3.077   4.926  0.0321 -0.5578 -0.2150
 3392TIP3    H110112   3.331   3.153   4.869 -0.0283  0.3168  0.9357
 3392TIP3    H210113   3.293   3.101   5.006  1.6187 -1.0220  0.8956
 3393TIP3   OH210114   0.784   3.058   4.374 -0.3579 -0.1371  0.4999
 3393TIP3    H110115   0.798   2.991   4.307 -0.3041 -0.8103  1.1811
 3393TIP3    H210116   0.768   3.138   4.324 -0.1054 -0.5871 -0.3195
 3394TIP3   OH210117   7.906   4.343   2.499 -0.4072 -0.1402 -0.2307
 3394TIP3    H110118   7.924   4.250   2.492  1.6497  0.3196 -1.4593
 3394TIP3    H210119   7.901   4.374   2.409 -1.0455  0.9338  0.1605
 3395TIP3   OH210120   3.311   1.730   2.790 -0.0881 -0.0222 -0.4082
 3395TIP3    H110121   3.273   1.817   2.788  0.2360  0.1490  0.6254
 3395TIP3    H210122   3.249   1.677   2.840  0.2046 -0.1339 -0.1546
 3396TIP3   OH210123   8.477   1.987   2.799 -0.0435 -0.7774 -0.1913
 3396TIP3    H110124   8.386   2.017   2.805 -0.1669 -1.4811  1.7696
 3396TIP3    H210125   8.526   2.048   2.854  0.3811 -1.5030  0.2465
 3397TIP3   OH210126   4.982   1.977   2.351 -0.1254  0.5037 -0.1554
 3397TIP3    H110127   4.937   2.031   2.416 -0.8439  0.1589 -0.3537
 3397TIP3    H210128   4.923   1.976   2.275  1.0474  1.5105 -1.1007
 3398TIP3   OH210129   1.281   3.565   1.834 -0.5411  0.4287 -0.1496
 3398TIP3    H110130   1.216   3.545   1.902 -0.6565  0.8857 -0.1291
 3398TIP3    H210131   1.364   3.570   1.880 -0.5796  0.4645 -0.0844
 3399TIP3   OH210132   2.176   3.760   3.371 -0.0138  0.1211  0.7063
 3399TIP3    H110133   2.157   3.737   3.462 -1.1582  0.3913  0.5387
 3399TIP3    H210134   2.151   3.682   3.321  1.6220 -0.4368  0.7086
 3400TIP3   OH210135   2.318   2.970   3.003 -0.1485  0.1197  0.4933
 3400TIP3    H110136   2.364   2.894   3.037  2.5184  1.3887 -0.1220
 3400TIP3    H210137   2.305   2.951   2.910 -0.3177  0.0113  0.5399
 3401TIP3   OH210138   2.850   2.462   3.014  0.0625 -1.0118 -0.4348
 3401TIP3    H110139   2.775   2.473   3.072 -0.3325 -2.4086 -0.6617
 3401TIP3    H210140   2.816   2.482   2.927 -0.1926 -2.1493 -0.6062
 3402TIP3   OH210141   1.485   3.408   1.647  0.0584  0.3448  0.1960
 3402TIP3    H110142   1.430   3.481   1.619  2.1259  1.7266 -0.3864
 3402TIP3    H210143   1.560   3.449   1.689  0.3730 -1.5288  1.5425
 3403TIP3   OH210144   2.303   2.743   3.230 -0.3610 -0.2647  0.3943
 3403TIP3    H110145   2.253   2.669   3.198 -1.4961  0.9746 -0.7695
 3403TIP3    H210146   2.386   2.738   3.181 -0.4281 -0.7593  0.3277
 3404TIP3   OH210147   4.089   1.804   2.847  0.1892 -1.0073 -0.3621
 3404TIP3    H110148   4.151   1.857   2.898 -0.5323  0.2385 -0.7472
 3404TIP3    H210149   4.144   1.743   2.798  1.3617  1.6916 -2.5845
 3405TIP3   OH210150   1.768   4.520   4.466  0.3333  0.3759 -0.1893
 3405TIP3    H110151   1.762   4.427   4.487  1.9296  0.6831  1.7444
 3405TIP3    H210152   1.826   4.524   4.390  1.0196 -0.1464  0.3017
 3406TIP3   OH210153   1.048   3.307   2.768 -0.5717  0.1249  0.1705
 3406TIP3    H110154   1.035   3.368   2.695 -0.1638  0.2173  0.1759
 3406TIP3    H210155   1.134   3.268   2.751  0.5221  1.7780  1.8031
 3407TIP3   OH210156   3.197   5.779   3.306  0.5509 -0.0910 -0.2377
 3407TIP3    H110157   3.123   5.795   3.247 -0.8844 -0.7877  1.3248
 3407TIP3    H210158   3.202   5.683   3.312  1.0112 -0.0296  0.3652
 3408TIP3   OH210159   2.121   5.191   3.810 -0.7020 -0.0601 -0.6821
 3408TIP3    H110160   2.102   5.119   3.869  1.3509  1.3242  1.7831
 3408TIP3    H210161   2.186   5.155   3.748 -2.1386 -1.2279 -1.5430
 3409TIP3   OH210162   3.338   4.595   1.568  0.4930  0.4023  0.1046
 3409TIP3    H110163   3.333   4.652   1.644 -0.0646  0.4410  0.0383
 3409TIP3    H210164   3.327   4.653   1.493  0.0315  0.2212  0.0323
 3410TIP3   OH210165   3.101   4.871   4.339  0.0603  0.3917  0.6780
 3410TIP3    H110166   3.075   4.925   4.265  0.0010 -1.0952 -0.4139
 3410TIP3    H210167   3.024   4.871   4.396 -0.4315  0.3574  0.0254
 3411TIP3   OH210168   5.497   4.535   1.373  0.3389 -0.0850  0.6243
 3411TIP3    H110169   5.425   4.488   1.330 -0.4442  0.5711  1.2042
 3411TIP3    H210170   5.555   4.465   1.404 -1.6504 -0.8121  2.9738
 3412TIP3   OH210171   1.444   5.038   3.858 -0.2562  0.2607  0.0939
 3412TIP3    H110172   1.359   5.080   3.842  0.3406  1.4085 -0.1198
 3412TIP3    H210173   1.487   5.040   3.773  0.7450  1.4278  0.6053
 3413TIP3   OH210174   2.892   2.967   2.893  0.1774  0.3469  0.2879
 3413TIP3    H110175   2.913   2.900   2.827  0.9935  2.9853 -2.2633
 3413TIP3    H210176   2.871   3.045   2.841  1.0656  2.5974  3.1903
 3414TIP3   OH210177   2.452   5.799   4.706 -0.1336  0.1186  0.2921
 3414TIP3    H110178   2.448   5.864   4.776  0.9170  0.9205 -0.3901
 3414TIP3    H210179   2.362   5.793   4.674  0.0596  2.4272 -0.7328
 3415TIP3   OH210180   4.339   3.149   2.294 -0.4517 -0.3944  0.4650
 3415TIP3    H110181   4.417   3.100   2.322 -1.8576 -1.9108  1.8495
 3415TIP3    H210182   4.370   3.205   2.223  2.3509  0.4895  2.2809
 3416TIP3   OH210183   1.508   4.381   4.280 -0.3486  0.1521 -0.8561
 3416TIP3    H110184   1.537   4.298   4.242  3.0646  1.1420 -0.6038
 3416TIP3    H210185   1.483   4.359   4.369  0.9845 -0.5474 -0.6407
 3417TIP3   OH210186   3.707   5.452   3.690  0.4965  0.0426  0.2937
 3417TIP3    H110187   3.695   5.470   3.783 -1.2174 -0.6884  0.2297
 3417TIP3    H210188   3.789   5.403   3.685  0.4552 -0.1459  1.4432
 3418TIP3   OH210189   1.538   3.758   2.908 -0.0782 -0.0429  0.2724
 3418TIP3    H110190   1.482   3.716   2.972  0.4556  0.5637  1.1540
 3418TIP3    H210191   1.627   3.733   2.934  0.2084  1.1482  0.4769
 3419TIP3   OH210192   1.232   4.678   2.249 -0.4483  0.3925  0.4183
 3419TIP3    H110193   1.287   4.684   2.327 -0.7669  2.5885  0.5090
 3419TIP3    H210194   1.290   4.705   2.177 -0.7775  0.5432  0.2108
 3420TIP3   OH210195   3.229   4.619   3.059 -0.0344 -0.3598 -0.1609
 3420TIP3    H110196   3.298   4.662   3.109 -0.8625 -0.5567  1.1703
 3420TIP3    H210197   3.270   4.539   3.026  0.7632  0.1833 -0.5132
 3421TIP3   OH210198   2.264   3.600   5.248 -0.0248  0.5669  0.2038
 3421TIP3    H110199   2.189   3.618   5.192 -0.2593  1.6537  0.8501
 3421TIP3    H210200   2.315   3.535   5.200 -0.0623  1.7104 -1.4190
 3422TIP3   OH210201   0.451   4.901   3.075  0.4920 -0.6691 -0.5672
 3422TIP3    H110202   0.452   4.878   3.168  0.2850 -4.0158 -1.3154
 3422TIP3    H210203   0.362   4.883   3.047  1.1067 -1.7587 -1.8754
 3423TIP3   OH210204   0.192   4.841   2.950 -0.5252 -0.2320 -0.3050
 3423TIP3    H110205   0.236   4.806   2.872 -0.3436 -0.9402  0.1134
 3423TIP3    H210206   0.200   4.771   3.015 -0.2768  0.5333  0.4912
 3424TIP3   OH210207   2.202   2.567   1.721  0.7004  0.1686  0.1884
 3424TIP3    H110208   2.236   2.573   1.810  0.7644  2.2934  0.0357
 3424TIP3    H210209   2.277   2.587   1.665  0.2277  0.6378 -0.2849
 3425TIP3   OH210210   2.553   5.611   4.294 -0.7689 -0.1211 -0.5568
 3425TIP3    H110211   2.586   5.650   4.213  1.7488 -0.8148  0.1098
 3425TIP3    H210212   2.625   5.557   4.326 -1.8302 -0.0530  2.0314
 3426TIP3   OH210213   0.879   4.307   3.212 -0.2287  0.0717  0.4967
 3426TIP3    H110214   0.824   4.338   3.139 -0.0275 -0.2403  0.2092
 3426TIP3    H210215   0.959   4.360   3.206  1.0545 -1.9923 -1.3607
 3427TIP3   OH210216   1.808   4.099   3.928  0.1858  0.3916  0.0831
 3427TIP3    H110217   1.887   4.046   3.939 -2.0819 -2.8234  1.7632
 3427TIP3    H210218   1.822   4.176   3.983  1.9427 -0.3636  0.7170
 3428TIP3   OH210219   2.958   4.803   2.189  0.2687  0.2147 -0.9037
 3428TIP3    H110220   2.940   4.878   2.131  0.8121  0.4914 -0.7205
 3428TIP3    H210221   2.884   4.801   2.249  0.6511  1.1118 -0.3898
 3429TIP3   OH210222   0.435   1.683   4.787  0.1757 -0.0690  0.8453
 3429TIP3    H110223   0.416   1.704   4.878 -0.3535 -0.8698  0.9147
 3429TIP3    H210224   0.518   1.727   4.770  0.5491 -0.3650  1.8673
 3430TIP3   OH210225   3.721   4.340   0.943  0.0787  0.1104 -0.1058
 3430TIP3    H110226   3.675   4.389   1.011  0.8012  0.8988 -0.1689
 3430TIP3    H210227   3.787   4.289   0.990  1.0567  1.2026 -0.2575
 3431TIP3   OH210228   4.439   2.761   1.765 -0.2467 -0.7863 -0.1101
 3431TIP3    H110229   4.446   2.668   1.787  1.5946 -0.7154 -0.3399
 3431TIP3    H210230   4.517   2.779   1.713  0.6948  1.4670  2.0155
 3432TIP3   OH210231   2.188   2.925   3.388  0.6389  0.7006 -0.1819
 3432TIP3    H110232   2.151   2.897   3.472 -0.6383  1.4265 -0.4855
 3432TIP3    H210233   2.234   2.848   3.355 -0.2287 -0.0925  0.4229
 3433TIP3   OH210234   1.164   2.900   2.750  0.0130 -0.1705  0.1397
 3433TIP3    H110235   1.175   2.811   2.717 -3.3376 -0.0432 -1.4672
 3433TIP3    H210236   1.191   2.956   2.678 -4.1800  0.0883 -1.3306
 3434TIP3   OH210237   2.529   3.202   1.867 -0.0725 -0.4692 -0.2233
 3434TIP3    H110238   2.440   3.229   1.888  0.1898 -0.4411  0.8521
 3434TIP3    H210239   2.581   3.282   1.878 -0.1262 -0.0913 -2.3355
 3435TIP3   OH210240   2.007   2.468   2.329  0.2104 -0.2199 -0.6309
 3435TIP3    H110241   1.994   2.396   2.267  1.9346 -0.0425 -1.2296
 3435TIP3    H210242   2.013   2.546   2.275 -0.2736  0.2001 -0.0863
 3436TIP3   OH210243   2.162   3.206   0.866  0.0652 -0.3259  0.1442
 3436TIP3    H110244   2.213   3.233   0.790 -0.3589  1.3660  0.4375
 3436TIP3    H210245   2.227   3.170   0.927  0.5326 -0.8147 -0.6424
 3437TIP3   OH210246   2.727   3.094   3.559 -0.0187  0.8606 -0.2869
 3437TIP3    H110247   2.654   3.037   3.585 -0.4429  1.1286 -0.8627
 3437TIP3    H210248   2.687   3.158   3.501  1.0631 -0.2621 -2.3273
 3438TIP3   OH210249   3.941   3.600   3.433 -0.1536  0.1188 -0.3704
 3438TIP3    H110250   3.879   3.595   3.359 -2.2417  1.4659  1.2445
 3438TIP3    H210251   3.898   3.552   3.503  2.6256 -2.6924 -0.5065
 3439TIP3   OH210252   1.550   5.133   2.186 -0.3490 -0.0600 -0.3620
 3439TIP3    H110253   1.556   5.139   2.281 -0.5628  3.2643 -0.5151
 3439TIP3    H210254   1.472   5.184   2.163  1.3083  1.5736 -2.5255
 3440TIP3   OH210255   7.986   3.192   3.096  0.0130  0.2913  0.4706
 3440TIP3    H110256   7.984   3.174   3.190  1.4665 -1.6536  0.1743
 3440TIP3    H210257   7.917   3.257   3.082 -0.2079  0.6204  2.8733
 3441TIP3   OH210258   1.907   2.622   2.837  0.4910  0.0691 -0.3368
 3441TIP3    H110259   1.831   2.666   2.875  0.5111  1.3519 -1.7060
 3441TIP3    H210260   1.958   2.693   2.798  1.9204 -0.8903 -0.2401
 3442TIP3   OH210261   2.327   3.004   2.723 -0.3574 -0.3694 -0.1970
 3442TIP3    H110262   2.273   2.969   2.653  0.5932 -3.0943  0.3530
 3442TIP3    H210263   2.416   3.000   2.690  0.1041 -1.6943  1.1427
 3443TIP3   OH210264   1.403   1.747   1.870 -0.7649 -0.2659 -0.7149
 3443TIP3    H110265   1.488   1.725   1.833 -1.1970  0.6796 -2.3431
 3443TIP3    H210266   1.421   1.824   1.926 -0.4208 -0.5735 -0.3962
 3444TIP3   OH210267   1.065   0.975   3.192 -0.7933  0.0808  0.2145
 3444TIP3    H110268   1.010   1.047   3.161 -0.1601  0.6151  0.3223
 3444TIP3    H210269   1.006   0.900   3.197 -1.3477  0.4735 -0.3729
 3445TIP3   OH210270   3.352   1.217   1.801 -0.2432 -0.2223 -0.5181
 3445TIP3    H110271   3.359   1.122   1.812 -0.6531 -0.2986 -0.9378
 3445TIP3    H210272   3.386   1.252   1.883 -0.4155 -0.7388 -0.2201
 3446TIP3   OH210273   1.890   4.950   5.485 -0.4510 -0.3727 -0.1913
 3446TIP3    H110274   1.896   4.876   5.425 -0.4843 -0.8393  0.3777
 3446TIP3    H210275   1.918   4.915   5.570 -0.1393  0.3479  0.0113
 3447TIP3   OH210276   2.619   3.337   3.454  0.0737  0.1891 -0.5670
 3447TIP3    H110277   2.601   3.422   3.494 -0.8161 -0.1882 -0.1611
 3447TIP3    H210278   2.559   3.333   3.379 -1.4953 -1.0380  0.7395
 3448TIP3   OH210279   1.931   3.876   2.697  0.2856  0.1591 -0.6109
 3448TIP3    H110280   1.938   3.781   2.700  0.2673  0.2242  2.0329
 3448TIP3    H210281   2.001   3.908   2.754 -0.2090  1.7190 -0.8495
 3449TIP3   OH210282   8.321   3.923   1.413 -0.4298 -0.2601 -0.2851
 3449TIP3    H110283   8.261   3.928   1.487 -0.3501  2.6737 -0.3872
 3449TIP3    H210284   8.409   3.928   1.452 -0.4075  2.9750 -0.6334
 3450TIP3   OH210285   3.102   3.656   0.424 -0.1607  0.0277 -0.2226
 3450TIP3    H110286   3.166   3.639   0.356  1.1541 -0.8519  1.2061
 3450TIP3    H210287   3.140   3.728   0.475 -0.2778 -0.5146  0.6462
 3451TIP3   OH210288   2.576   5.114   0.757  0.6859 -0.3436 -0.1899
 3451TIP3    H110289   2.520   5.042   0.788  0.9972 -0.4671  0.0910
 3451TIP3    H210290   2.605   5.085   0.671 -0.0596 -0.0670 -0.5414
 3452TIP3   OH210291   2.991   2.520   0.346 -0.7568 -0.5101  0.0556
 3452TIP3    H110292   2.983   2.577   0.423 -3.3972 -2.2248  1.1185
 3452TIP3    H210293   3.075   2.476   0.358  0.8372  2.3339 -0.2469
 3453TIP3   OH210294   1.730   2.437   2.428 -0.3346 -0.0569 -0.3614
 3453TIP3    H110295   1.812   2.447   2.381 -0.2725  0.2661 -0.1801
 3453TIP3    H210296   1.742   2.358   2.481 -0.3057 -0.2644 -0.6770
 3454TIP3   OH210297   3.394   5.136   4.449  0.1927  0.5517 -0.0062
 3454TIP3    H110298   3.449   5.058   4.439 -0.9321 -0.4629  1.6400
 3454TIP3    H210299   3.455   5.209   4.442  2.0580 -0.5939  3.5494
 3455TIP3   OH210300   2.995   2.206   2.951  0.3549  0.2613 -0.1688
 3455TIP3    H110301   2.929   2.262   2.992  0.5939  2.6213 -2.8289
 3455TIP3    H210302   2.946   2.145   2.897  0.2033 -0.5190  0.8387
 3456TIP3   OH210303   2.116   2.712   4.127 -0.3142 -0.3313  0.1218
 3456TIP3    H110304   2.163   2.673   4.053  0.3784 -1.2252  1.0226
 3456TIP3    H210305   2.183   2.758   4.177 -0.6939 -0.1705  0.4828
 3457TIP3   OH210306   0.658   5.921   3.085 -0.8290 -0.1155  0.3345
 3457TIP3    H110307   0.566   5.914   3.056 -0.6381 -1.0160 -0.0808
 3457TIP3    H210308   0.682   6.011   3.064 -0.9477 -0.5045 -1.6303
 3458TIP3   OH210309   7.892   4.140   4.843 -0.1847 -0.0837 -0.3895
 3458TIP3    H110310   7.814   4.123   4.790  1.0493  0.4425 -2.4081
 3458TIP3    H210311   7.864   4.209   4.904 -1.5854 -0.6401 -0.3677
 3459TIP3   OH210312   8.292   3.012   2.793  0.0116  0.1969 -0.1044
 3459TIP3    H110313   8.260   3.000   2.704 -0.5190  1.9237 -0.1672
 3459TIP3    H210314   8.273   2.929   2.837 -0.1930 -0.4797 -1.4525
 3460TIP3   OH210315   2.055   5.468   5.481 -0.2730  0.2135 -0.0149
 3460TIP3    H110316   2.016   5.540   5.431  0.7646  1.9373  1.6055
 3460TIP3    H210317   1.993   5.450   5.551  0.1935  0.5601  0.4861
 3461TIP3   OH210318   3.180   5.404   2.351 -0.0444 -0.0371  0.1738
 3461TIP3    H110319   3.181   5.309   2.346 -2.2129 -0.0541 -0.3910
 3461TIP3    H210320   3.199   5.434   2.263  0.7498  0.0539  0.3756
 3462TIP3   OH210321   1.877   5.337   4.533 -0.1807 -0.4243 -0.7907
 3462TIP3    H110322   1.863   5.356   4.441 -1.1219  0.9528 -0.3900
 3462TIP3    H210323   1.894   5.423   4.573 -1.6364 -0.7439  0.6059
 3463TIP3   OH210324   2.605   4.109   1.298 -0.5422 -0.3498  0.0858
 3463TIP3    H110325   2.529   4.056   1.272  1.3037 -2.4169 -1.2632
 3463TIP3    H210326   2.600   4.111   1.394 -3.2888  1.1008 -0.0206
 3464TIP3   OH210327   0.469   3.424   2.546  0.1973  0.5950  0.6852
 3464TIP3    H110328   0.436   3.425   2.635  2.2033  1.5041  1.4395
 3464TIP3    H210329   0.514   3.507   2.535 -1.3656  1.1941 -1.7210
 3465TIP3   OH210330   1.030   4.599   4.571 -0.4081  0.1415 -0.5888
 3465TIP3    H110331   1.060   4.509   4.579  0.8107  0.3730 -2.1184
 3465TIP3    H210332   1.083   4.648   4.634 -2.2844 -0.4244  1.5162
 3466TIP3   OH210333   0.124   2.896   2.031 -0.5417 -0.3499  0.2491
 3466TIP3    H110334   0.111   2.868   2.122  1.9700 -1.2020  0.3875
 3466TIP3    H210335   0.074   2.977   2.024  1.2185  1.0939  3.1608
 3467TIP3   OH210336   1.531   5.213   2.918  0.1704  0.1130 -0.0715
 3467TIP3    H110337   1.452   5.258   2.948  0.5709  0.1007  1.0156
 3467TIP3    H210338   1.537   5.235   2.825 -1.6235 -0.6573 -0.3853
 3468TIP3   OH210339   1.646   4.948   2.017  0.4070 -0.2602  0.5514
 3468TIP3    H110340   1.592   5.001   2.075 -0.6671 -0.9871  0.2232
 3468TIP3    H210341   1.724   4.928   2.069  0.4355  0.9109  0.9751
 3469TIP3   OH210342   1.019   3.909   5.618  0.0125 -0.0776 -0.1639
 3469TIP3    H110343   1.088   3.974   5.608 -0.1574  0.2266  0.5884
 3469TIP3    H210344   0.941   3.961   5.640 -0.1620 -0.5203  0.2655
 3470TIP3   OH210345   1.167   3.511   2.986  0.2389  0.5955  0.3859
 3470TIP3    H110346   1.077   3.544   2.977  0.6126  1.4281 -0.3655
 3470TIP3    H210347   1.191   3.482   2.898  0.2538 -0.8391  0.8489
 3471TIP3   OH210348   2.458   4.267   2.784  0.4479 -0.2496 -0.0395
 3471TIP3    H110349   2.437   4.194   2.842  0.7807 -0.5255 -0.2642
 3471TIP3    H210350   2.491   4.335   2.843  0.6841 -0.4910  0.1123
 3472TIP3   OH210351   3.688   3.623   3.309 -0.2807 -0.0006 -0.1515
 3472TIP3    H110352   3.636   3.543   3.320 -0.1265 -0.1675 -0.6234
 3472TIP3    H210353   3.638   3.676   3.247 -0.5201  0.3930  0.3696
 3473TIP3   OH210354   2.460   4.061   2.008  0.1720 -0.1688 -0.0669
 3473TIP3    H110355   2.378   4.083   2.053 -0.3714 -0.8163 -0.7364
 3473TIP3    H210356   2.528   4.083   2.071 -0.5943 -1.3160  1.1970
 3474TIP3   OH210357   8.437   2.083   3.549 -0.2405 -0.5478  0.1913
 3474TIP3    H110358   8.445   2.015   3.616 -0.7672 -0.8182 -0.0209
 3474TIP3    H210359   8.355   2.064   3.505 -1.3791  1.3433  1.4035
 3475TIP3   OH210360   4.723   4.490   3.239  0.3319 -0.1545 -0.7097
 3475TIP3    H110361   4.696   4.454   3.323  0.1650 -0.9967 -1.1188
 3475TIP3    H210362   4.736   4.584   3.256  0.6839 -0.3855  0.3424
 3476TIP3   OH210363   7.071   5.516   2.964  0.2160 -0.1156 -0.0533
 3476TIP3    H110364   7.167   5.518   2.966  0.2435  0.4475 -1.5415
 3476TIP3    H210365   7.050   5.425   2.939  0.3877 -0.0352 -0.5005
 3477TIP3   OH210366   1.902   6.780   4.757 -0.7541 -0.4115  0.3055
 3477TIP3    H110367   1.874   6.867   4.785 -0.1940 -0.0644 -0.1767
 3477TIP3    H210368   1.968   6.798   4.690 -0.4787 -1.2108  0.3645
 3478TIP3   OH210369   4.285   4.961   1.668  0.2195 -0.0173 -0.3601
 3478TIP3    H110370   4.358   4.945   1.607  1.6960  2.4933  0.6751
 3478TIP3    H210371   4.327   5.000   1.745 -2.1070  0.3539  0.7358
 3479TIP3   OH210372   1.514   6.440   4.081 -0.2063  0.3656  0.6321
 3479TIP3    H110373   1.549   6.368   4.134 -1.7112 -1.9706 -1.4009
 3479TIP3    H210374   1.591   6.479   4.040  0.6554  0.0487  1.9072
 3480TIP3   OH210375   2.611   2.632   3.906  0.5758 -0.1490  0.5563
 3480TIP3    H110376   2.591   2.724   3.892 -0.3424 -0.4617 -0.2624
 3480TIP3    H210377   2.555   2.605   3.979  2.0852  0.3558  1.9274
 3481TIP3   OH210378   4.220   3.860   3.895  0.0632  0.1288 -0.0172
 3481TIP3    H110379   4.292   3.904   3.851 -0.1112  1.5061  1.0471
 3481TIP3    H210380   4.144   3.876   3.840 -0.0202  1.2792  0.4245
 3482TIP3   OH210381   1.979   5.045   1.924 -0.0402  0.3719 -0.5209
 3482TIP3    H110382   2.065   5.008   1.941  0.0225  1.0896  0.8078
 3482TIP3    H210383   1.942   5.061   2.011 -1.0672  1.0917 -1.0746
 3483TIP3   OH210384   0.468   3.732   1.409 -0.1700  0.2884  0.1967
 3483TIP3    H110385   0.543   3.691   1.367 -0.5554 -0.0573 -0.1710
 3483TIP3    H210386   0.394   3.711   1.351 -0.3537  1.5897 -0.0607
 3484TIP3   OH210387   2.002   1.986   1.532  0.0079  0.0632  0.1171
 3484TIP3    H110388   1.915   1.946   1.538 -0.1457  0.4461  0.5289
 3484TIP3    H210389   2.050   1.951   1.607 -0.3580  1.1813  0.8900
 3485TIP3   OH210390   1.613   5.196   0.542 -0.7877 -0.0601 -0.2731
 3485TIP3    H110391   1.632   5.239   0.459  0.1750  0.9580  0.4699
 3485TIP3    H210392   1.557   5.257   0.589 -0.7046 -0.3058  0.1474
 3486TIP3   OH210393   1.727   3.690   2.307 -0.1133 -0.3125 -0.6154
 3486TIP3    H110394   1.755   3.774   2.345  0.3713  0.5787 -2.8964
 3486TIP3    H210395   1.809   3.646   2.285 -0.3939 -0.8528 -0.5840
 3487TIP3   OH210396   4.925   2.790   4.897  0.1601  0.2632  0.2892
 3487TIP3    H110397   5.002   2.790   4.840 -0.7436 -1.3625 -0.9821
 3487TIP3    H210398   4.858   2.743   4.847 -1.2120  0.3679  1.9717
 3488TIP3   OH210399   1.593   3.263   2.113  0.1537  1.0821  0.4613
 3488TIP3    H110400   1.538   3.335   2.144 -0.6323  0.2422  1.0733
 3488TIP3    H210401   1.557   3.240   2.027  1.2055  2.2418 -0.2988
 3489TIP3   OH210402   2.875   4.826   2.769  0.0621 -0.6368  0.1888
 3489TIP3    H110403   2.868   4.890   2.840 -0.3217 -0.0487 -0.3813
 3489TIP3    H210404   2.968   4.807   2.764  0.1736 -0.1545  0.3836
 3490TIP3   OH210405   7.305   5.669   1.280 -0.3826 -0.1708 -0.1158
 3490TIP3    H110406   7.237   5.706   1.336 -1.4730 -1.8695 -0.2895
 3490TIP3    H210407   7.341   5.596   1.330  0.6718  0.1189 -0.4250
 3491TIP3   OH210408   4.588   6.100   3.373  0.5603  0.3684  0.4472
 3491TIP3    H110409   4.680   6.078   3.387  0.7703  0.8358 -0.1643
 3491TIP3    H210410   4.541   6.019   3.392  1.1471 -0.0222  0.2523
 3492TIP3   OH210411   2.918   3.873   3.213 -0.1010 -0.2804 -0.0889
 3492TIP3    H110412   2.948   3.900   3.300  0.8187 -2.3622  0.2697
 3492TIP3    H210413   2.835   3.828   3.230  1.3620 -2.9982  0.0483
 3493TIP3   OH210414   3.189   6.476   3.221 -0.1504 -0.8972 -0.4981
 3493TIP3    H110415   3.238   6.552   3.253  1.1791 -1.1086 -2.0122
 3493TIP3    H210416   3.178   6.421   3.298 -0.4255  0.4442  0.4485
 3494TIP3   OH210417   3.144   4.497   3.577 -0.1150 -0.5073 -0.3877
 3494TIP3    H110418   3.148   4.443   3.656 -0.6628  0.2645  0.1821
 3494TIP3    H210419   3.109   4.581   3.608 -0.2235 -0.1633 -1.4324
 3495TIP3   OH210420   8.071   3.507   4.810 -0.1953  0.1468 -0.4754
 3495TIP3    H110421   8.156   3.473   4.784 -0.4659 -0.9204  0.0085
 3495TIP3    H210422   8.087   3.599   4.831  0.8445 -0.0589 -0.3479
 3496TIP3   OH210423   1.139   4.439   1.439 -0.5715 -0.0516  0.3583
 3496TIP3    H110424   1.214   4.498   1.442  0.2607 -1.1020  0.3383
 3496TIP3    H210425   1.065   4.492   1.471 -0.1133  1.4084 -0.9756
 3497TIP3   OH210426   1.625   4.899   4.010  0.5088  0.6105 -0.2747
 3497TIP3    H110427   1.560   4.949   3.960  0.7834  1.6982  0.4279
 3497TIP3    H210428   1.600   4.912   4.102  1.6974  1.0337  0.0059
 3498TIP3   OH210429   1.280   3.871   1.135  0.0846 -0.9453  0.1431
 3498TIP3    H110430   1.368   3.835   1.151  0.0257 -0.8334  0.7143
 3498TIP3    H210431   1.249   3.899   1.221 -0.4855 -0.9162 -0.0682
 3499TIP3   OH210432   1.519   5.146   2.448  0.0492  0.3975  0.0375
 3499TIP3    H110433   1.432   5.105   2.452 -0.4017  1.1554 -1.7173
 3499TIP3    H210434   1.513   5.221   2.508 -0.6302  0.6654 -0.3614
 3500TIP3   OH210435   7.337   2.940   0.790  0.0899 -0.0723 -0.2828
 3500TIP3    H110436   7.355   3.028   0.758 -1.0382  0.5474  0.7580
 3500TIP3    H210437   7.330   2.887   0.711  1.9555  0.5292 -0.8747
 3501TIP3   OH210438   1.261   4.507   5.656  0.0256 -0.4077  0.3201
 3501TIP3    H110439   1.294   4.585   5.700 -0.6932  0.1840 -0.1687
 3501TIP3    H210440   1.302   4.509   5.570 -0.6701 -0.0923 -0.0068
 3502TIP3   OH210441   2.262   3.298   1.885  0.0630  0.3383 -0.0030
 3502TIP3    H110442   2.240   3.290   1.977 -0.3561 -2.3353 -0.2943
 3502TIP3    H210443   2.195   3.356   1.849 -2.1924 -1.7531  0.6300
 3503TIP3   OH210444   3.954   3.684   2.736  0.2694 -0.1104 -0.3444
 3503TIP3    H110445   3.997   3.614   2.785  0.2064 -1.1620 -1.7589
 3503TIP3    H210446   3.876   3.705   2.789  0.4207 -0.9298  0.2239
 3504TIP3   OH210447   1.194   5.941   2.841 -0.3055 -0.1185  0.2528
 3504TIP3    H110448   1.216   5.853   2.871 -0.6809 -0.6107 -0.9207
 3504TIP3    H210449   1.103   5.953   2.867  0.2709  0.6157  2.0152
 3505TIP3   OH210450   0.751   2.777   4.446  0.3460 -0.1450  0.2658
 3505TIP3    H110451   0.754   2.872   4.435 -0.0563 -0.0506  0.9760
 3505TIP3    H210452   0.682   2.748   4.386 -0.5328  0.1690  1.1074
 3506TIP3   OH210453   1.824   3.263   4.777 -0.0302  0.1658  0.3062
 3506TIP3    H110454   1.782   3.187   4.738  2.1246 -0.8136 -0.1591
 3506TIP3    H210455   1.819   3.331   4.710 -1.2799  0.2010  0.4382
 3507TIP3   OH210456   2.128   3.938   0.984  0.3360 -0.1544  0.2807
 3507TIP3    H110457   2.130   3.845   1.006 -1.8956 -0.3394 -0.2153
 3507TIP3    H210458   2.094   3.941   0.895  0.6819  1.1389  0.1761
 3508TIP3   OH210459   1.859   4.757   3.959 -0.2789 -0.2005  0.0760
 3508TIP3    H110460   1.767   4.780   3.977 -1.6617 -2.8569 -3.0479
 3508TIP3    H210461   1.866   4.758   3.863  2.4024 -2.0001  0.1920
 3509TIP3   OH210462   2.293   2.621   0.401 -0.5372  0.6045 -0.0784
 3509TIP3    H110463   2.290   2.648   0.310  0.6069  0.2020 -0.2433
 3509TIP3    H210464   2.384   2.631   0.427 -0.4055 -1.4043  0.3633
 3510TIP3   OH210465   1.395   3.045   5.150  0.0587  0.3722 -0.0575
 3510TIP3    H110466   1.403   3.042   5.055 -2.4037  0.0510 -0.2906
 3510TIP3    H210467   1.354   3.130   5.168 -0.0244  0.1790  0.6847
 3511TIP3   OH210468   0.415   3.510   1.622  0.3316  0.3944 -0.2412
 3511TIP3    H110469   0.402   3.432   1.675 -0.6701  0.7835  0.1087
 3511TIP3    H210470   0.468   3.481   1.548  0.0903 -0.5771 -0.0354
 3512TIP3   OH210471   1.005   2.846   2.974 -0.0387  0.5207 -0.2615
 3512TIP3    H110472   0.932   2.790   2.951  0.4434 -0.2495  0.0448
 3512TIP3    H210473   1.060   2.849   2.895  0.2063  0.1336 -0.1038
 3513TIP3   OH210474   0.778   4.104   4.054 -0.1393 -0.2407 -0.3242
 3513TIP3    H110475   0.761   4.038   3.987  0.2660  0.2706 -0.9368
 3513TIP3    H210476   0.730   4.181   4.024  1.3932  0.5111 -0.8936
 3514TIP3   OH210477   2.410   3.006   5.301  0.2743 -0.0097  0.3539
 3514TIP3    H110478   2.400   3.064   5.226 -0.2621 -1.8703 -1.0612
 3514TIP3    H210479   2.458   2.931   5.266  2.4177  0.3037  2.5460
 3515TIP3   OH210480   4.495   3.553   2.222 -0.3783 -0.0028 -0.2951
 3515TIP3    H110481   4.559   3.504   2.274  0.6793  0.4457 -1.1503
 3515TIP3    H210482   4.483   3.635   2.270  1.3622  0.8402 -1.2497
 3516TIP3   OH210483   0.148   4.663   3.152  0.2424  0.4725  0.1523
 3516TIP3    H110484   0.142   4.599   3.223  1.5244  1.0435  0.7858
 3516TIP3    H210485   0.057   4.675   3.123 -0.1154 -0.8825  0.6957
 3517TIP3   OH210486   1.902   6.014   3.994  0.1162  0.0391  0.2839
 3517TIP3    H110487   1.844   5.940   3.978  0.7183 -0.6210  1.1119
 3517TIP3    H210488   1.844   6.084   4.025 -0.4306 -0.1433 -0.3300
 3518TIP3   OH210489   3.218   5.560   4.186 -0.0828 -0.3264  0.0507
 3518TIP3    H110490   3.273   5.489   4.154  1.3469  0.8868 -0.2656
 3518TIP3    H210491   3.262   5.591   4.265  1.1916  2.3433 -1.6090
 3519TIP3   OH210492   2.124   4.770   5.926  0.1481  0.3967 -0.1041
 3519TIP3    H110493   2.151   4.841   5.984 -3.2149 -0.8254  3.1409
 3519TIP3    H210494   2.152   4.690   5.973  0.9795 -0.5468 -2.1478
 3520TIP3   OH210495   2.116   4.254   4.342  0.2261  1.1143  0.3391
 3520TIP3    H110496   2.076   4.248   4.429  1.6026 -1.1175  0.8757
 3520TIP3    H210497   2.196   4.306   4.356 -0.4530  2.2435  0.0499
 3521TIP3   OH210498   2.307   3.093   4.492  1.0315 -0.5967  0.1092
 3521TIP3    H110499   2.246   3.125   4.558 -0.0273 -2.1102 -0.1140
 3521TIP3    H210500   2.385   3.069   4.542  1.3784  1.0820  0.4263
 3522TIP3   OH210501   2.046   0.874   3.495  0.1188 -0.0984  0.4765
 3522TIP3    H110502   1.957   0.853   3.525  0.3090  0.2441  1.3066
 3522TIP3    H210503   2.097   0.796   3.518 -0.5641 -1.6016 -2.8288
 3523TIP3   OH210504   1.650   6.110   2.392 -0.1453  0.1729 -0.6878
 3523TIP3    H110505   1.703   6.177   2.350  0.8585 -0.0577  0.2091
 3523TIP3    H210506   1.702   6.080   2.466 -0.6816 -1.4386 -0.9426
 3524TIP3   OH210507   1.274   3.084   2.144 -0.1333 -0.8167  0.4701
 3524TIP3    H110508   1.245   3.071   2.053 -2.9871 -0.0666  1.2237
 3524TIP3    H210509   1.212   3.032   2.196  2.5150 -2.6539  1.9266
 3525TIP3   OH210510   0.433   6.122   4.708 -0.2193  0.4871  0.1527
 3525TIP3    H110511   0.482   6.047   4.675 -0.8917 -0.1357  0.5496
 3525TIP3    H210512   0.343   6.104   4.684 -0.4409  0.9753  0.6126
 3526TIP3   OH210513   1.055   5.479   4.124  0.2556 -0.0091 -0.0929
 3526TIP3    H110514   1.094   5.564   4.103  0.9765 -0.3732 -0.2208
 3526TIP3    H210515   1.073   5.425   4.047 -0.2762 -0.2553 -0.0457
 3527TIP3   OH210516   2.263   7.426   3.455  0.5072 -0.0061 -0.2766
 3527TIP3    H110517   2.299   7.506   3.493  0.0848  1.0423 -2.0538
 3527TIP3    H210518   2.336   7.388   3.406  0.3417 -0.0180 -0.5143
 3528TIP3   OH210519   4.697   6.002   3.703 -0.5997 -0.5027 -0.4915
 3528TIP3    H110520   4.720   6.020   3.612 -0.6417 -2.1296 -0.8409
 3528TIP3    H210521   4.602   5.989   3.702 -1.3036  3.7341  0.5370
 3529TIP3   OH210522   1.862   4.572   4.753  0.3991 -0.0090  0.3360
 3529TIP3    H110523   1.800   4.570   4.827 -0.2355 -0.8838 -0.2117
 3529TIP3    H210524   1.818   4.626   4.687 -2.1779 -4.7152 -2.0886
 3530TIP3   OH210525   5.638   1.751   6.682 -0.1112  0.6376 -0.1126
 3530TIP3    H110526   5.621   1.737   6.775  0.9376  0.4798  0.0632
 3530TIP3    H210527   5.553   1.737   6.640 -0.0544 -1.9282  0.5373
 3531TIP3   OH210528   3.480   1.272   1.573 -0.4725 -0.3930  0.0815
 3531TIP3    H110529   3.407   1.271   1.510  1.2507 -0.3053 -1.9814
 3531TIP3    H210530   3.439   1.256   1.658 -2.8852 -0.3969 -1.0444
 3532TIP3   OH210531   1.862   3.640   3.282 -0.8034  0.2220 -0.5476
 3532TIP3    H110532   1.811   3.718   3.306  1.2634  1.9091 -1.4832
 3532TIP3    H210533   1.888   3.602   3.366 -0.8678  1.1947 -0.0820
 3533TIP3   OH210534   2.796   4.896   4.328  0.0626  0.0956 -0.0606
 3533TIP3    H110535   2.737   4.824   4.352  0.5868 -0.4009 -0.2568
 3533TIP3    H210536   2.798   4.952   4.405 -0.7145  0.1486 -0.0699
 3534TIP3   OH210537   4.342   3.473   2.531  0.0075  0.2137  0.8881
 3534TIP3    H110538   4.343   3.568   2.538  0.3788  0.2906 -0.1232
 3534TIP3    H210539   4.429   3.445   2.558  0.6742  0.3443 -1.0275
 3535TIP3   OH210540   1.501   3.141   2.333  0.0588  0.3599 -0.2889
 3535TIP3    H110541   1.424   3.109   2.287 -1.2001  1.4685  1.0130
 3535TIP3    H210542   1.544   3.200   2.271  0.2876 -0.8294 -1.2846
 3536TIP3   OH210543   2.873   1.542   2.743  0.0903 -0.0718 -0.8272
 3536TIP3    H110544   2.812   1.477   2.708  0.5373  0.2103 -2.1284
 3536TIP3    H210545   2.952   1.492   2.764  0.4339  0.0534 -1.8268
 3537TIP3   OH210546   2.335   4.929   2.893  0.1582 -0.1397  0.0415
 3537TIP3    H110547   2.289   4.922   2.977 -1.4917  1.1186 -0.7143
 3537TIP3    H210548   2.276   4.887   2.831  0.7453  0.1412 -0.7060
 3538TIP3   OH210549   1.480   4.546   3.087 -0.3185 -0.0277  0.1788
 3538TIP3    H110550   1.530   4.568   3.009 -0.5983 -2.8229 -0.8645
 3538TIP3    H210551   1.409   4.610   3.090 -0.0332  0.3969 -1.5850
 3539TIP3   OH210552   4.070   3.292   0.991  0.2411 -0.3119 -0.6934
 3539TIP3    H110553   4.139   3.359   0.996  0.9426 -1.1112  0.5048
 3539TIP3    H210554   3.989   3.341   1.006  0.6855  0.3863 -0.5210
 3540TIP3   OH210555   2.635   3.473   1.977 -0.3168  0.4700 -0.2833
 3540TIP3    H110556   2.701   3.531   2.014  1.4396 -2.2424  0.9484
 3540TIP3    H210557   2.622   3.505   1.888  1.8357  1.6814 -0.1873
 3541TIP3   OH210558   3.090   3.533   3.288 -0.1324 -0.0480  0.3016
 3541TIP3    H110559   3.063   3.563   3.374 -0.9840 -0.8467  0.3201
 3541TIP3    H210560   3.127   3.611   3.246 -0.0520  0.4275  1.2471
 3542TIP3   OH210561   2.913   4.523   4.311 -0.1360 -0.2516 -0.4271
 3542TIP3    H110562   2.864   4.458   4.362 -0.4290  0.7828  0.6519
 3542TIP3    H210563   2.907   4.603   4.364  2.3403  0.0115 -0.5204
 3543TIP3   OH210564   1.826   5.132   4.025  0.8044  0.1884 -0.4786
 3543TIP3    H110565   1.918   5.110   4.011  0.3038 -1.3762 -1.4522
 3543TIP3    H210566   1.782   5.048   4.035 -0.6930  0.8700 -1.1393
 3544TIP3   OH210567   3.405   1.039   4.360 -0.7855  0.3345  0.6821
 3544TIP3    H110568   3.478   0.978   4.345  0.0036  1.7306 -1.4222
 3544TIP3    H210569   3.406   1.055   4.454  0.8516 -0.6210  0.8489
 3545TIP3   OH210570   3.009   2.136   1.620  1.2098  0.0965 -0.7938
 3545TIP3    H110571   3.035   2.180   1.701  1.9193  1.3612 -1.6937
 3545TIP3    H210572   3.012   2.043   1.642  0.5711  0.4378  0.8729
 3546TIP3   OH210573   2.948   1.894   1.752  0.0663 -0.2942  0.4428
 3546TIP3    H110574   2.938   1.801   1.773 -0.6383  0.0871  1.8561
 3546TIP3    H210575   2.867   1.935   1.783 -0.0043  0.6649 -0.9577
 3547TIP3   OH210576   7.519   1.939   2.199 -0.3559 -0.0270 -0.1682
 3547TIP3    H110577   7.608   1.970   2.216 -1.2200  1.5693  1.6714
 3547TIP3    H210578   7.503   1.961   2.108  0.8151  0.4859 -0.2616
 3548TIP3   OH210579   3.247   2.089   5.096 -0.3756 -0.2179 -0.3973
 3548TIP3    H110580   3.165   2.133   5.120 -0.2530 -0.8412  1.2160
 3548TIP3    H210581   3.310   2.161   5.085 -0.6283  0.1365  0.4327
 3549TIP3   OH210582   3.740   3.278   0.525  0.2216  0.3069 -0.0784
 3549TIP3    H110583   3.779   3.351   0.574 -1.0614  0.9434  0.0075
 3549TIP3    H210584   3.647   3.283   0.544  0.1898 -1.7554  0.4365
 3550TIP3   OH210585   2.169   2.929   2.534 -0.1262 -0.3453  0.0987
 3550TIP3    H110586   2.144   2.841   2.503 -0.4033  0.0530 -0.8292
 3550TIP3    H210587   2.100   2.986   2.502  0.2612  0.2756  0.3604
 3551TIP3   OH210588   2.998   4.209   4.210 -0.6148  0.6169 -0.3733
 3551TIP3    H110589   2.994   4.211   4.305  0.4564  1.5880 -0.3376
 3551TIP3    H210590   2.907   4.214   4.182 -0.8779  1.4477  0.5951
 3552TIP3   OH210591   1.390   5.250   5.011 -0.1309  0.0498  0.0470
 3552TIP3    H110592   1.401   5.155   5.004  1.8229  0.2299  0.4606
 3552TIP3    H210593   1.307   5.261   5.057 -0.1723 -1.4630  0.3562
 3553TIP3   OH210594   1.152   4.077   5.136  0.1797 -0.2101  0.2924
 3553TIP3    H110595   1.248   4.074   5.130  0.3045  3.1033 -0.4995
 3553TIP3    H210596   1.132   4.169   5.151 -2.9412 -0.6964 -0.5482
 3554TIP3   OH210597   1.901   3.312   3.580 -0.0195 -0.4669 -0.0257
 3554TIP3    H110598   1.913   3.298   3.486  0.6218 -1.4799  0.2002
 3554TIP3    H210599   1.820   3.266   3.601  0.5607 -1.4106  0.1702
 3555TIP3   OH210600   2.429   4.612   4.557 -0.6343  0.0492 -0.6218
 3555TIP3    H110601   2.371   4.678   4.518 -1.1320  0.5550  0.9166
 3555TIP3    H210602   2.502   4.663   4.592 -0.4204 -0.3480 -0.4905
 3556TIP3   OH210603   0.811   3.797   4.531  0.0513  0.3579  0.1109
 3556TIP3    H110604   0.851   3.845   4.459  0.9589 -0.7410 -0.1279
 3556TIP3    H210605   0.738   3.853   4.560  1.2639  2.0131  0.0433
 3557TIP3   OH210606   2.732   5.222   3.262 -0.3955  0.3539  0.4183
 3557TIP3    H110607   2.730   5.228   3.166 -0.0123  0.3538  0.4067
 3557TIP3    H210608   2.692   5.303   3.292 -1.3018 -0.0303  0.2560
 3558TIP3   OH210609   1.474   5.343   3.236  0.1265 -0.1899 -0.0371
 3558TIP3    H110610   1.490   5.401   3.310  0.5352 -3.0297  2.2042
 3558TIP3    H210611   1.555   5.293   3.226 -1.3149 -2.6886  0.2710
 3559TIP3   OH210612   8.118   2.971   3.636  0.0686  0.7450 -0.7544
 3559TIP3    H110613   8.174   2.901   3.604 -1.6082 -1.4418  0.9284
 3559TIP3    H210614   8.179   3.040   3.663  1.7445 -0.0471 -2.4103
 3560TIP3   OH210615   1.370   5.732   2.985 -0.3467 -0.3661  0.0245
 3560TIP3    H110616   1.348   5.680   3.063 -0.2362  0.7761  0.8369
 3560TIP3    H210617   1.434   5.796   3.017 -0.7477  0.4887 -0.8830
 3561TIP3   OH210618   2.625   4.413   1.940  0.3393 -0.5765 -0.4442
 3561TIP3    H110619   2.701   4.423   1.881  1.0899 -2.3744  0.1627
 3561TIP3    H210620   2.553   4.391   1.881  1.2001 -2.8949 -0.7110
 3562TIP3   OH210621   3.372   4.896   2.612 -0.3354 -0.1766 -0.2781
 3562TIP3    H110622   3.314   4.846   2.555  1.1476 -1.1240 -0.9944
 3562TIP3    H210623   3.434   4.938   2.551  0.5178 -0.2243  0.5518
 3563TIP3   OH210624   1.568   4.098   2.147 -0.0799 -0.5730  0.2357
 3563TIP3    H110625   1.530   4.183   2.130 -0.3376 -0.8669 -0.6873
 3563TIP3    H210626   1.663   4.112   2.139  0.0010  0.0343  1.9939
 3564TIP3   OH210627   0.638   5.639   0.618 -0.0001 -0.3213  0.1135
 3564TIP3    H110628   0.575   5.643   0.546 -0.0708 -2.6020  0.0168
 3564TIP3    H210629   0.634   5.548   0.648  0.4539  0.4515  2.6125
 3565TIP3   OH210630   2.086   6.527   6.049  0.2714 -0.8384  0.0608
 3565TIP3    H110631   2.015   6.524   6.113  0.3686  2.1499  0.3415
 3565TIP3    H210632   2.053   6.476   5.975 -1.5022 -0.8451  0.8299
 3566TIP3   OH210633   0.910   3.061   2.736  0.9010  0.1011  0.0468
 3566TIP3    H110634   0.980   2.996   2.734  1.2104  0.4462 -0.9399
 3566TIP3    H210635   0.956   3.145   2.729  0.4692  0.3986  0.7271
 3567TIP3   OH210636   3.742   2.079   1.855 -0.2504  0.2746 -0.2415
 3567TIP3    H110637   3.744   1.983   1.853 -0.4840  0.2524  0.5004
 3567TIP3    H210638   3.702   2.104   1.771 -0.0072 -0.2652 -0.5231
 3568TIP3   OH210639   6.121   6.961   6.141  0.7132 -0.1473  0.0573
 3568TIP3    H110640   6.060   6.975   6.068 -0.5091 -1.0547  0.8763
 3568TIP3    H210641   6.158   6.874   6.124  2.8748  0.9744 -1.1906
 3569TIP3   OH210642   0.687   2.414   3.613 -0.2215  0.0611 -0.2892
 3569TIP3    H110643   0.779   2.396   3.634 -0.6105 -1.2472  0.3058
 3569TIP3    H210644   0.651   2.448   3.695  0.1650  2.3501 -1.0193
 3570TIP3   OH210645   1.672   1.767   3.656  0.3960 -0.5767  0.0540
 3570TIP3    H110646   1.638   1.856   3.670 -1.1269 -1.0681 -0.3981
 3570TIP3    H210647   1.751   1.763   3.709  0.6337  1.1531 -0.1475
 3571TIP3   OH210648   2.547   2.401   2.591  0.1333  0.3155  0.2772
 3571TIP3    H110649   2.537   2.318   2.544 -0.4284  0.8398 -0.5402
 3571TIP3    H210650   2.572   2.464   2.523 -2.8316  1.5571  0.2909
 3572TIP3   OH210651   2.841   3.181   3.828 -0.1940  0.0224 -0.0284
 3572TIP3    H110652   2.791   3.114   3.782 -0.2107 -0.4296  0.6304
 3572TIP3    H210653   2.775   3.233   3.875 -0.2181  0.7799 -0.8833
 3573TIP3   OH210654   2.602   1.644   2.859  0.6200  0.2854  0.1918
 3573TIP3    H110655   2.560   1.728   2.842  2.3933  1.6264  2.1416
 3573TIP3    H210656   2.695   1.662   2.852  0.9948 -1.6911 -0.0760
 3574TIP3   OH210657   1.707   4.925   3.367 -0.3424  0.3912  1.0755
 3574TIP3    H110658   1.752   4.844   3.343  0.1442  1.0525 -0.2559
 3574TIP3    H210659   1.659   4.951   3.288 -1.5793  0.6891  1.9080
 3575TIP3   OH210660   1.664   3.945   2.750 -0.8047 -0.4175 -0.4412
 3575TIP3    H110661   1.755   3.917   2.738 -0.0567  0.1544  3.3287
 3575TIP3    H210662   1.626   3.879   2.808 -2.5688 -0.1453 -1.2549
 3576TIP3   OH210663   2.874   3.808   1.602 -0.2100  0.5206 -0.4907
 3576TIP3    H110664   2.962   3.827   1.635 -0.3127  0.6023 -0.2596
 3576TIP3    H210665   2.873   3.714   1.589 -0.0374  0.5390 -0.6395
 3577TIP3   OH210666   2.235   6.487   1.860 -0.5867 -0.0153  0.6739
 3577TIP3    H110667   2.177   6.411   1.866  0.1262 -0.6835 -0.5926
 3577TIP3    H210668   2.284   6.487   1.942 -0.0824 -1.3751  0.3914
 3578TIP3   OH210669   3.085   3.422   3.045  0.5409  0.1740 -0.0604
 3578TIP3    H110670   3.082   3.486   3.116  0.1235  0.1276 -0.0326
 3578TIP3    H210671   3.152   3.455   2.985  1.7390 -0.4097  0.9409
 3579TIP3   OH210672   3.328   3.156   3.536  0.1533 -0.1931 -0.3058
 3579TIP3    H110673   3.342   3.247   3.510  0.0763 -0.9043 -3.0035
 3579TIP3    H210674   3.244   3.157   3.582  0.6080  1.2398  0.5083
 3580TIP3   OH210675   2.672   1.575   4.192 -0.5802  0.1580 -0.4915
 3580TIP3    H110676   2.585   1.604   4.163 -0.5923  0.0959 -0.5187
 3580TIP3    H210677   2.659   1.482   4.214 -0.2991 -0.1152 -1.4365
 3581TIP3   OH210678   0.108   3.555   2.837  0.2162 -0.2846  0.7267
 3581TIP3    H110679   0.116   3.575   2.930  3.2919 -1.0264  0.6972
 3581TIP3    H210680   0.190   3.585   2.799 -0.4106 -1.2848 -1.5000
 3582TIP3   OH210681   3.931   3.562   5.456  0.1886  0.2228  0.5393
 3582TIP3    H110682   3.897   3.651   5.443  0.0587  0.0419 -0.3647
 3582TIP3    H210683   3.964   3.563   5.546  1.6130  1.6683  0.0366
 3583TIP3   OH210684   2.355   5.174   4.171 -0.5951  0.1481 -1.1826
 3583TIP3    H110685   2.437   5.197   4.215 -0.2152 -2.0468 -0.6872
 3583TIP3    H210686   2.296   5.247   4.189  1.0161  1.3912 -0.9169
 3584TIP3   OH210687   4.352   3.562   3.518 -0.2925 -0.7751 -0.2342
 3584TIP3    H110688   4.286   3.626   3.491  0.0326 -0.8170 -1.1443
 3584TIP3    H210689   4.435   3.600   3.490  0.1948 -0.2065  1.8774
 3585TIP3   OH210690   5.770   4.916   3.461 -0.8909  0.2855  0.1081
 3585TIP3    H110691   5.739   4.860   3.533 -0.3482  0.8898  0.8282
 3585TIP3    H210692   5.731   5.001   3.480 -1.3897  0.2490 -0.7600
 3586TIP3   OH210693   3.653   3.574   4.810 -0.8135 -0.1136  0.3731
 3586TIP3    H110694   3.739   3.560   4.850  0.0201  1.9154 -0.6377
 3586TIP3    H210695   3.614   3.645   4.861 -1.5201 -0.4314  0.2731
 3587TIP3   OH210696   3.239   4.943   3.591  0.0908 -0.5501  0.0645
 3587TIP3    H110697   3.334   4.944   3.589  0.0806 -0.4953 -0.5049
 3587TIP3    H210698   3.217   4.937   3.684  0.6403  0.2248  0.2560
 3588TIP3   OH210699   2.577   3.950   0.721 -0.0641  0.2243 -0.1378
 3588TIP3    H110700   2.592   3.907   0.637 -1.7047  1.8681 -1.2891
 3588TIP3    H210701   2.654   4.007   0.732  2.3279 -3.1358  1.5858
 3589TIP3   OH210702   8.218   3.238   3.752  0.3348  0.7666  0.1516
 3589TIP3    H110703   8.184   3.312   3.803  1.1245  0.9759  0.3699
 3589TIP3    H210704   8.253   3.177   3.817  1.6119  1.1710 -0.1506
 3590TIP3   OH210705   2.836   4.827   3.356 -0.0387 -0.4450  0.4935
 3590TIP3    H110706   2.786   4.759   3.400 -1.3893  0.9404  1.1542
 3590TIP3    H210707   2.784   4.850   3.279 -0.4241  0.9809  1.1583
 3591TIP3   OH210708   3.732   3.684   4.240 -0.1302  0.4548  0.4162
 3591TIP3    H110709   3.638   3.689   4.251 -0.0542  0.7436  0.9539
 3591TIP3    H210710   3.756   3.766   4.195 -0.3091 -0.2484 -0.9689
 3592TIP3   OH210711   2.093   1.292   2.587 -0.2834 -0.3732 -0.3248
 3592TIP3    H110712   2.073   1.245   2.668  1.7139 -0.7205  0.0029
 3592TIP3    H210713   2.087   1.226   2.518  1.4184 -0.8807 -0.0052
 3593TIP3   OH210714   7.016   0.622   2.670  0.4824 -0.1011 -0.9755
 3593TIP3    H110715   6.924   0.647   2.674  0.5435 -0.0171  0.0521
 3593TIP3    H210716   7.060   0.698   2.631  0.1050 -0.1802 -1.5532
 3594TIP3   OH210717   3.585   3.353   3.343 -0.0203  0.6494  0.1479
 3594TIP3    H110718   3.494   3.360   3.373 -0.8813 -0.1426 -2.1103
 3594TIP3    H210719   3.618   3.273   3.383 -0.8940  0.0300 -0.3316
 3595TIP3   OH210720   0.737   3.622   1.756  0.0796 -0.1445  0.0919
 3595TIP3    H110721   0.804   3.669   1.805  0.9271 -1.4147  0.1587
 3595TIP3    H210722   0.719   3.545   1.809  0.1534 -0.9333 -1.0225
 3596TIP3   OH210723   4.201   1.387   1.325  0.2249  0.4237  0.0412
 3596TIP3    H110724   4.118   1.343   1.343  0.7549  0.1092  1.8997
 3596TIP3    H210725   4.194   1.417   1.234 -1.9469  0.4872  0.1974
 3597TIP3   OH210726   4.782   5.326   2.299 -0.2795 -0.5030  0.0480
 3597TIP3    H110727   4.688   5.334   2.315 -0.8266 -2.5001 -1.9440
 3597TIP3    H210728   4.795   5.358   2.210  0.6243 -2.0754 -0.4024
 3598TIP3   OH210729   2.829   2.748   3.168 -0.3247  0.2442 -0.9667
 3598TIP3    H110730   2.873   2.689   3.107 -1.2832 -0.4124 -1.0217
 3598TIP3    H210731   2.864   2.835   3.146  1.2975 -0.3132 -0.6962
 3599TIP3   OH210732   3.953   5.271   2.557 -0.3760 -0.0331 -0.1016
 3599TIP3    H110733   3.935   5.358   2.592  0.9158  0.1090  0.2448
 3599TIP3    H210734   3.941   5.280   2.463 -1.9020  0.0854  0.0891
 3600TIP3   OH210735   2.551   4.664   3.182 -0.6643 -0.1320 -0.0543
 3600TIP3    H110736   2.610   4.589   3.182 -0.3743  0.0815  1.4634
 3600TIP3    H210737   2.489   4.646   3.111  0.9715 -0.5526 -1.4019
 3601TIP3   OH210738   0.585   3.325   3.282  0.5378 -0.1821  0.3064
 3601TIP3    H110739   0.516   3.335   3.347 -0.0914 -1.9726 -0.0510
 3601TIP3    H210740   0.546   3.355   3.200  0.3437 -0.6952  0.2067
 3602TIP3   OH210741   3.664   3.328   3.792  0.7198  0.2002  0.0756
 3602TIP3    H110742   3.753   3.294   3.800  0.1789 -1.3044 -0.1120
 3602TIP3    H210743   3.653   3.345   3.699  0.1276 -1.5783 -0.1994
 3603TIP3   OH210744   5.040   6.222   3.826 -0.0958  0.6449 -0.2888
 3603TIP3    H110745   5.132   6.225   3.851  0.2183 -1.6065 -1.0994
 3603TIP3    H210746   4.997   6.281   3.889  1.7782  1.2622  0.4730
 3604TIP3   OH210747   2.520   4.553   3.843  0.1215  0.0973 -0.0838
 3604TIP3    H110748   2.602   4.580   3.800  0.8404  0.5174  1.4883
 3604TIP3    H210749   2.468   4.634   3.847  0.8566  0.5043  1.5484
 3605TIP3   OH210750   2.282   3.892   2.746 -0.1560  0.2018 -0.5072
 3605TIP3    H110751   2.291   3.959   2.814 -1.9473 -0.2842  0.2245
 3605TIP3    H210752   2.290   3.809   2.793 -0.1794 -0.1286 -1.0877
 3606TIP3   OH210753   1.345   5.543   2.372  0.1018  0.5870  0.4320
 3606TIP3    H110754   1.359   5.503   2.457 -1.6120 -2.6937 -0.7247
 3606TIP3    H210755   1.433   5.552   2.335  0.6526 -0.5187  1.4489
 3607TIP3   OH210756   4.341   2.637   3.562  0.5673  0.2907 -0.3224
 3607TIP3    H110757   4.330   2.694   3.486 -0.5485  1.6179  0.8130
 3607TIP3    H210758   4.409   2.679   3.615  0.3992  0.0797  0.0692
 3608TIP3   OH210759   4.053   4.311   3.072 -0.2212 -0.1415 -0.3262
 3608TIP3    H110760   4.139   4.319   3.113 -0.0257  1.1608 -0.9811
 3608TIP3    H210761   4.003   4.254   3.132  1.2998 -1.4890 -0.2960
 3609TIP3   OH210762   5.220   2.046   2.239 -0.2094 -0.3143  0.3462
 3609TIP3    H110763   5.227   2.121   2.180  0.1926 -1.5605 -1.2219
 3609TIP3    H210764   5.128   2.021   2.235 -0.1039 -0.6389 -0.0520
 3610TIP3   OH210765   6.538   2.717   3.085 -0.2784 -0.2712 -0.1475
 3610TIP3    H110766   6.538   2.806   3.122  0.1166  0.9241 -2.8708
 3610TIP3    H210767   6.472   2.720   3.016 -0.3339 -2.1382 -0.1936
 3611TIP3   OH210768   4.993   3.851   1.584 -0.2805 -0.5661  0.2103
 3611TIP3    H110769   5.002   3.810   1.670  3.3465  0.2824  0.3298
 3611TIP3    H210770   5.033   3.938   1.595 -1.8830  0.4518 -1.7356
 3612TIP3   OH210771   4.056   3.929   2.841  0.0142 -0.7645 -0.6737
 3612TIP3    H110772   4.076   3.989   2.769  2.1135 -1.7680 -0.9664
 3612TIP3    H210773   4.024   3.850   2.798 -2.0997 -0.1267 -0.3186
 3613TIP3   OH210774   5.242   3.438   2.574 -0.1713  0.4133  0.1174
 3613TIP3    H110775   5.180   3.510   2.586 -0.0155  0.6477 -0.4563
 3613TIP3    H210776   5.282   3.425   2.660 -2.7344 -1.3270  1.0952
 3614TIP3   OH210777   3.358   2.978   2.185  0.2081  0.6807  0.3998
 3614TIP3    H110778   3.431   2.925   2.152  1.3436  2.6587 -0.3804
 3614TIP3    H210779   3.393   3.068   2.187 -1.4421  1.3064  2.3302
 3615TIP3   OH210780   5.652   4.194   3.216  0.2297 -0.6512 -0.2061
 3615TIP3    H110781   5.687   4.177   3.128  0.1927 -1.3048 -0.0948
 3615TIP3    H210782   5.696   4.130   3.272  1.0649  0.4581  0.4460
 3616TIP3   OH210783   3.464   3.497   1.760 -0.1787  0.0749 -0.2073
 3616TIP3    H110784   3.517   3.418   1.758  0.6049  0.5984 -1.0026
 3616TIP3    H210785   3.507   3.553   1.825 -1.7091 -0.7899  1.6006
 3617TIP3   OH210786   5.355   5.056   3.328 -0.0551 -0.0508 -0.3959
 3617TIP3    H110787   5.333   4.963   3.332 -1.5955  0.2577 -0.9882
 3617TIP3    H210788   5.373   5.081   3.418  0.7180 -1.0068 -0.2858
 3618TIP3   OH210789   3.491   5.032   1.658 -0.6081  0.6276 -0.1793
 3618TIP3    H110790   3.586   5.045   1.655 -0.6277  0.5281 -1.3785
 3618TIP3    H210791   3.468   4.998   1.572 -1.3902 -1.7684  0.9478
 3619TIP3   OH210792   3.617   3.927   2.644  0.5593 -0.2427 -0.4664
 3619TIP3    H110793   3.684   3.971   2.697  1.5580 -0.3827 -1.5990
 3619TIP3    H210794   3.563   3.998   2.610  1.0497 -0.0091 -0.7722
 3620TIP3   OH210795   2.224   2.098   2.114 -0.2515 -0.5491  0.8265
 3620TIP3    H110796   2.237   2.118   2.207 -0.0095 -0.8160  0.8526
 3620TIP3    H210797   2.312   2.083   2.080 -0.3190 -0.1786  0.4884
 3621TIP3   OH210798   2.469   3.177   3.756 -0.0435 -0.1169 -0.4104
 3621TIP3    H110799   2.427   3.102   3.714 -0.3857  0.4081 -1.0278
 3621TIP3    H210800   2.432   3.253   3.710 -1.1935  0.5279  1.5178
 3622TIP3   OH210801   4.177   4.697   2.646  0.2248  0.0795 -0.1456
 3622TIP3    H110802   4.235   4.632   2.606  1.2004 -0.8184  2.5663
 3622TIP3    H210803   4.218   4.781   2.627  1.2181 -0.3980 -0.1504
 3623TIP3   OH210804   5.900   2.507   1.012  0.0992 -0.3680 -0.2637
 3623TIP3    H110805   5.873   2.581   1.066 -1.8538  0.1872 -1.9448
 3623TIP3    H210806   5.904   2.433   1.072 -1.6456  0.3159  0.7096
 3624TIP3   OH210807   2.910   3.557   4.307  0.0040  0.1430  0.3686
 3624TIP3    H110808   2.948   3.480   4.266  0.2990 -0.3697  1.5810
 3624TIP3    H210809   2.828   3.572   4.260  0.5795 -0.1188 -0.7335
 3625TIP3   OH210810   3.855   1.818   2.722 -0.1035  0.7409 -0.4437
 3625TIP3    H110811   3.933   1.830   2.777 -1.2941  0.1321  1.4326
 3625TIP3    H210812   3.876   1.863   2.640  2.6172 -0.2938 -0.3520
 3626TIP3   OH210813   4.096   5.509   2.846  0.2695  0.0661  0.0213
 3626TIP3    H110814   4.002   5.511   2.824  0.4658 -0.3455 -0.8611
 3626TIP3    H210815   4.134   5.578   2.791  0.6633 -0.5325 -0.4543
 3627TIP3   OH210816   6.266   2.084   3.039  0.4181  0.7165 -0.5519
 3627TIP3    H110817   6.321   2.159   3.057 -0.4021  1.0066  0.8616
 3627TIP3    H210818   6.178   2.121   3.027  0.2609  0.1226 -1.2744
 3628TIP3   OH210819   4.634   3.237   3.501 -0.4023  0.2710 -0.8339
 3628TIP3    H110820   4.626   3.262   3.593 -1.5519 -0.5200 -0.7166
 3628TIP3    H210821   4.701   3.297   3.466 -0.3525  0.9370  0.3713
 3629TIP3   OH210822   4.416   3.014   1.294  0.0628 -0.4030 -0.2447
 3629TIP3    H110823   4.331   2.971   1.310 -0.7654  0.5500 -1.9779
 3629TIP3    H210824   4.398   3.107   1.307  1.0783 -0.2811  0.3002
 3630TIP3   OH210825   3.542   2.631   2.377 -0.3430  0.1371  0.5135
 3630TIP3    H110826   3.537   2.543   2.413 -1.7471  0.3512  0.8771
 3630TIP3    H210827   3.585   2.620   2.292  0.8689 -0.6778  1.2218
 3631TIP3   OH210828   3.780   5.622   1.546  0.0314  0.5139 -0.0117
 3631TIP3    H110829   3.842   5.632   1.618  0.1711 -1.8255  0.2261
 3631TIP3    H210830   3.712   5.686   1.564  1.1024  1.3697  1.0854
 3632TIP3   OH210831   5.109   2.875   2.337 -0.4600 -0.4009 -0.2794
 3632TIP3    H110832   5.095   2.813   2.408 -1.2976 -1.4636 -1.3624
 3632TIP3    H210833   5.098   2.961   2.377 -0.0466 -0.9682  1.0650
 3633TIP3   OH210834   5.313   3.790   4.423  0.5121  0.1023 -0.0806
 3633TIP3    H110835   5.278   3.703   4.405  0.6030 -0.3218  1.7524
 3633TIP3    H210836   5.399   3.790   4.381 -0.0349 -0.2169 -1.2220
 3634TIP3   OH210837   3.050   4.207   0.754 -0.6360 -0.4223 -0.7678
 3634TIP3    H110838   3.114   4.214   0.684 -0.7669 -1.6539 -1.0290
 3634TIP3    H210839   3.082   4.264   0.823 -0.6671  1.0501 -1.9517
 3635TIP3   OH210840   2.706   5.328   0.453  0.1455 -0.1019  0.7470
 3635TIP3    H110841   2.633   5.381   0.484 -0.8399 -0.0365 -1.6003
 3635TIP3    H210842   2.777   5.347   0.514 -1.5360  0.4609  2.5689
 3636TIP3   OH210843   4.372   4.048   3.288 -0.0134 -0.0048 -0.2961
 3636TIP3    H110844   4.441   4.023   3.226 -2.2412 -0.3877 -2.7085
 3636TIP3    H210845   4.382   3.986   3.361  1.4183 -0.8177 -1.1583
 3637TIP3   OH210846   5.909   6.052   3.061  0.0559 -0.6042  0.4054
 3637TIP3    H110847   5.880   6.072   3.149  0.4100 -1.0131  0.6177
 3637TIP3    H210848   5.898   5.957   3.054 -0.3509 -0.5215 -0.1253
 3638TIP3   OH210849   5.422   5.969   2.633 -0.0983  0.3359 -0.2501
 3638TIP3    H110850   5.374   6.051   2.621 -0.3552  0.3854  1.1006
 3638TIP3    H210851   5.358   5.909   2.671  0.1025 -0.4839 -1.1730
 3639TIP3   OH210852   4.315   6.269   2.841  0.0528  0.1144 -0.1099
 3639TIP3    H110853   4.305   6.218   2.761 -0.0113  1.0373 -0.6969
 3639TIP3    H210854   4.347   6.354   2.811 -0.1116  0.5086  0.8269
 3640TIP3   OH210855   5.622   2.560   2.462  0.2899 -0.1735  0.1409
 3640TIP3    H110856   5.576   2.643   2.474  0.7424  0.1301 -0.1771
 3640TIP3    H210857   5.640   2.556   2.368  1.2110 -0.1186  0.3109
 3641TIP3   OH210858   4.531   3.543   3.282  0.1187  0.2859  0.2196
 3641TIP3    H110859   4.438   3.565   3.277 -0.1876  0.2024  3.8810
 3641TIP3    H210860   4.577   3.626   3.267 -0.5858  0.6487  0.0785
 3642TIP3   OH210861   5.653   1.385   1.979 -0.2643  0.2047 -0.3670
 3642TIP3    H110862   5.571   1.342   2.002  1.3665 -1.7690  1.9630
 3642TIP3    H210863   5.658   1.461   2.038  0.7085 -1.0599  1.2201
 3643TIP3   OH210864   2.533   1.400   2.319  0.0919  0.0770 -0.5453
 3643TIP3    H110865   2.466   1.372   2.381  0.9943  1.7849  1.2367
 3643TIP3    H210866   2.591   1.325   2.311 -1.3339 -0.9895 -1.1797
 3644TIP3   OH210867   1.288   3.051   0.222  0.4300  0.1555  0.4085
 3644TIP3    H110868   1.362   2.994   0.198 -0.8689 -1.3906 -0.0028
 3644TIP3    H210869   1.310   3.135   0.182  0.6137 -1.0681 -2.2098
 3645TIP3   OH210870   4.547   2.394   3.534  0.3444 -0.0982  0.4619
 3645TIP3    H110871   4.481   2.462   3.547 -1.2397 -1.8940  2.1313
 3645TIP3    H210872   4.508   2.335   3.470  1.4096  0.1352 -0.4297
 3646TIP3   OH210873   3.613   4.059   2.050  0.4874 -0.5638 -0.7899
 3646TIP3    H110874   3.578   4.016   1.972 -1.5067  1.3147 -0.9580
 3646TIP3    H210875   3.556   4.134   2.064  1.3510 -0.3767  1.9775
 3647TIP3   OH210876   4.856   4.353   1.695 -0.4862 -0.5574 -0.2387
 3647TIP3    H110877   4.935   4.391   1.732  0.4077 -2.0717 -0.5621
 3647TIP3    H210878   4.834   4.411   1.621 -0.4690  0.6341  0.6760
 3648TIP3   OH210879   4.546   3.798   3.497 -0.2777  0.1317 -0.4410
 3648TIP3    H110880   4.594   3.879   3.483  0.1450 -0.0221  0.0734
 3648TIP3    H210881   4.612   3.729   3.489  0.2797  0.1084  3.4671
 3649TIP3   OH210882   3.539   3.773   3.548  0.1132 -0.1724 -0.0295
 3649TIP3    H110883   3.483   3.800   3.476 -0.3860 -0.9300  0.0765
 3649TIP3    H210884   3.554   3.854   3.598 -0.7125  0.0715 -0.1732
 3650TIP3   OH210885   4.017   3.065   4.640  0.0644 -0.8120  0.7892
 3650TIP3    H110886   4.098   3.032   4.678 -0.9877 -0.6819  3.1910
 3650TIP3    H210887   3.976   3.116   4.710 -2.2803 -1.1777 -0.2708
 3651TIP3   OH210888   3.104   1.953   2.494  0.6239 -0.0788 -0.5986
 3651TIP3    H110889   3.019   1.925   2.459  0.2513 -0.9897  0.9844
 3651TIP3    H210890   3.107   1.914   2.581  1.7537  1.7519  0.1855
 3652TIP3   OH210891   3.495   4.562   3.666 -0.0477 -0.0933 -0.0017
 3652TIP3    H110892   3.510   4.517   3.583  1.5153 -0.4610  0.4599
 3652TIP3    H210893   3.534   4.504   3.732 -1.5380  0.0427  1.0406
 3653TIP3   OH210894   2.631   4.706   2.673 -0.4666 -0.5049  0.7794
 3653TIP3    H110895   2.670   4.619   2.684 -2.4390 -1.3943  0.9255
 3653TIP3    H210896   2.704   4.767   2.690  1.3204 -2.1190 -0.8235
 3654TIP3   OH210897   3.514   2.903   3.002 -0.3478 -0.0874  0.6098
 3654TIP3    H110898   3.598   2.945   3.021 -0.3839 -0.3869  1.4408
 3654TIP3    H210899   3.475   2.887   3.088 -1.3750  0.2891  0.2241
 3655TIP3   OH210900   6.480   4.732   2.967 -0.0278  0.2435  0.5804
 3655TIP3    H110901   6.469   4.676   3.044 -0.8445 -0.9654 -0.3947
 3655TIP3    H210902   6.392   4.766   2.950 -0.0066 -0.1276 -0.2842
 3656TIP3   OH210903   3.540   3.768   5.276 -0.0685 -0.2757 -0.0465
 3656TIP3    H110904   3.460   3.747   5.325 -0.2110 -0.7543 -0.4812
 3656TIP3    H210905   3.553   3.862   5.290 -0.4265 -0.2982  0.4395
 3657TIP3   OH210906   5.160   2.084   1.740  0.2490  0.7185  0.6605
 3657TIP3    H110907   5.169   2.017   1.807  0.1271 -0.1579 -0.1971
 3657TIP3    H210908   5.200   2.162   1.778 -1.1232  0.6408  2.3496
 3658TIP3   OH210909   4.581   3.998   2.836  0.0863 -0.1362 -0.2771
 3658TIP3    H110910   4.500   4.027   2.795 -0.9957  1.2002  2.6723
 3658TIP3    H210911   4.634   4.078   2.842  0.6686 -0.5346 -0.1087
 3659TIP3   OH210912   3.533   1.686   0.451 -0.0490 -0.1457  0.5337
 3659TIP3    H110913   3.584   1.765   0.469 -0.5786 -0.0907  1.8943
 3659TIP3    H210914   3.442   1.714   0.456 -0.2328 -0.4984 -0.6574
 3660TIP3   OH210915   3.610   6.072   0.714 -0.2114 -0.6594  0.0328
 3660TIP3    H110916   3.557   6.101   0.640 -0.8012  0.2961  0.8194
 3660TIP3    H210917   3.634   5.982   0.693 -2.5051 -1.2601 -0.1476
 3661TIP3   OH210918   2.998   3.966   5.224 -0.6363  0.4313  0.5794
 3661TIP3    H110919   2.991   4.027   5.297  0.3268 -0.3201  1.3038
 3661TIP3    H210920   3.092   3.959   5.207 -0.8516  0.5348 -0.6725
 3662TIP3   OH210921   3.315   5.613   2.721  0.0366  0.1502 -0.3296
 3662TIP3    H110922   3.241   5.667   2.694  0.3358 -0.3680 -2.2832
 3662TIP3    H210923   3.290   5.524   2.693  0.9370 -0.1859 -0.0689
 3663TIP3   OH210924   4.578   2.990   2.285 -0.2697  0.8053 -0.3623
 3663TIP3    H110925   4.576   2.948   2.199  1.5730  0.4663 -0.2520
 3663TIP3    H210926   4.657   3.043   2.284  0.9682 -0.9178  1.9172
 3664TIP3   OH210927   3.014   5.796   3.907  0.4069 -0.2321 -0.4714
 3664TIP3    H110928   2.954   5.813   3.835 -0.3637  0.3936  0.3119
 3664TIP3    H210929   3.011   5.701   3.919  0.6506 -0.3531 -1.3534
 3665TIP3   OH210930   5.194   4.452   2.660  0.0238  0.7272 -0.3434
 3665TIP3    H110931   5.182   4.448   2.755  0.5354  0.7990 -0.2754
 3665TIP3    H210932   5.184   4.545   2.638 -0.1569  0.7020 -0.3724
 3666TIP3   OH210933   4.889   6.086   2.685 -0.4399 -0.0415  0.2277
 3666TIP3    H110934   4.957   6.052   2.627 -1.6701  1.9602 -2.4962
 3666TIP3    H210935   4.935   6.107   2.767  2.0942  0.6266 -1.3117
 3667TIP3   OH210936   5.649   5.011   2.788  0.6127 -0.5792 -0.1142
 3667TIP3    H110937   5.668   5.011   2.882 -1.1425  0.4729  0.2715
 3667TIP3    H210938   5.735   5.015   2.746  1.3443  1.1332  1.4776
 3668TIP3   OH210939   3.914   7.041   4.126 -0.0744  0.0492  0.4401
 3668TIP3    H110940   3.837   7.017   4.177  0.4915  0.5932  1.5856
 3668TIP3    H210941   3.905   7.135   4.112 -0.3755 -0.1497 -0.7310
 3669TIP3   OH210942   6.621   3.761   3.585  0.3876  0.3575  0.4127
 3669TIP3    H110943   6.670   3.843   3.581  0.0933  0.5339  0.3338
 3669TIP3    H210944   6.625   3.735   3.677  0.0162  0.7535  0.5441
 3670TIP3   OH210945   3.326   3.426   3.441  0.2714  0.2078  0.3097
 3670TIP3    H110946   3.260   3.451   3.506  0.3522 -1.0575  0.8946
 3670TIP3    H210947   3.275   3.401   3.364  0.1265  0.6321  0.2661
 3671TIP3   OH210948   5.436   3.389   2.378 -0.4630  0.3100 -0.3947
 3671TIP3    H110949   5.409   3.427   2.295 -1.4262  0.7928  0.1332
 3671TIP3    H210950   5.364   3.407   2.438  0.0741 -0.3221  0.4665
 3672TIP3   OH210951   4.241   2.827   3.887 -0.2325 -0.1414 -0.9465
 3672TIP3    H110952   4.185   2.867   3.820 -0.0815 -0.5836 -1.3349
 3672TIP3    H210953   4.328   2.824   3.848 -0.0639 -0.0417 -0.5822
 3673TIP3   OH210954   4.668   3.777   3.180  1.1820  0.4312  0.2358
 3673TIP3    H110955   4.763   3.776   3.171  1.2832 -1.0071  1.2924
 3673TIP3    H210956   4.644   3.870   3.177  2.6491  0.8242  0.4092
 3674TIP3   OH210957   5.326   4.733   3.984  0.2523  0.2094 -0.2907
 3674TIP3    H110958   5.380   4.660   3.952 -1.2782 -1.4890  0.8638
 3674TIP3    H210959   5.256   4.741   3.920  0.1832  0.3730 -0.1925
 3675TIP3   OH210960   3.605   4.534   1.979 -0.6146  0.0886 -0.0217
 3675TIP3    H110961   3.651   4.606   1.936 -1.5196  2.0521  2.2242
 3675TIP3    H210962   3.673   4.471   2.001  0.8055  2.1698  1.6964
 3676TIP3   OH210963   3.727   2.966   4.738 -0.2085  0.3807 -0.1451
 3676TIP3    H110964   3.682   3.050   4.733 -0.0078  0.4722 -0.3904
 3676TIP3    H210965   3.657   2.901   4.728 -0.3433  0.5171 -0.1002
 3677TIP3   OH210966   5.971   4.923   4.806  0.3536  0.2078  0.2227
 3677TIP3    H110967   5.946   4.839   4.769  1.4073  0.4598 -1.0903
 3677TIP3    H210968   6.026   4.902   4.881 -1.0960 -0.2912  1.1680
 3678TIP3   OH210969   2.509   3.799   2.277 -0.1037 -0.0761 -0.1528
 3678TIP3    H110970   2.604   3.810   2.288 -0.2997 -0.2052  1.7739
 3678TIP3    H210971   2.472   3.827   2.361 -1.8743  1.2237 -1.3456
 3679TIP3   OH210972   4.732   7.248   5.920  0.3567 -0.6522 -0.2624
 3679TIP3    H110973   4.637   7.256   5.917  0.4782  0.7562 -0.8715
 3679TIP3    H210974   4.760   7.323   5.974  1.0690 -1.4540  0.4877
 3680TIP3   OH210975   2.286   4.048   2.981  0.8921  0.7380  0.3158
 3680TIP3    H110976   2.317   4.085   3.063 -0.7347  0.9097  0.8695
 3680TIP3    H210977   2.192   4.034   2.994  0.4954  1.2790 -1.6980
 3681TIP3   OH210978   3.763   4.626   1.542  0.0096  0.3932  0.5776
 3681TIP3    H110979   3.711   4.547   1.558  1.7623 -0.9704 -0.2567
 3681TIP3    H210980   3.841   4.614   1.596  0.6612  1.1775 -0.1831
 3682TIP3   OH210981   1.254   1.927   5.508  0.0644  0.1036  0.2609
 3682TIP3    H110982   1.243   1.872   5.431  1.4565 -1.7862  1.3551
 3682TIP3    H210983   1.211   2.010   5.485 -1.0411 -1.0118 -1.8621
 3683TIP3   OH210984   5.128   3.689   4.151  0.3420 -0.4725 -0.1449
 3683TIP3    H110985   5.216   3.669   4.119  0.3885  0.5820 -0.6924
 3683TIP3    H210986   5.140   3.765   4.209 -0.1236 -0.6997  0.2595
 3684TIP3   OH210987   6.421   2.462   2.209 -0.0321 -0.3907  0.4440
 3684TIP3    H110988   6.379   2.457   2.123  0.8113 -3.8823  0.1767
 3684TIP3    H210989   6.348   2.465   2.271 -0.6604 -1.1618 -0.2420
 3685TIP3   OH210990   5.126   5.180   3.825 -0.4128  0.1841  0.0120
 3685TIP3    H110991   5.079   5.097   3.821  0.3329 -0.1353 -3.8526
 3685TIP3    H210992   5.218   5.156   3.832 -0.1885  0.6768 -1.1836
 3686TIP3   OH210993   4.783   2.852   1.913 -0.0629 -0.5811 -0.6159
 3686TIP3    H110994   4.865   2.828   1.956 -0.1924 -2.0516 -1.1761
 3686TIP3    H210995   4.719   2.856   1.984  0.4036  0.2140 -0.2300
 3687TIP3   OH210996   2.164   1.223   2.157  0.2503  0.0266  0.3475
 3687TIP3    H110997   2.175   1.208   2.063  0.5507  0.4858  0.3069
 3687TIP3    H210998   2.076   1.259   2.166 -0.0830 -0.7611  0.3346
 3688TIP3   OH210999   2.751   4.191   2.616  0.1717  0.0692  0.0833
 3688TIP3    H111000   2.667   4.169   2.576 -0.0780 -0.0929  0.6986
 3688TIP3    H211001   2.741   4.281   2.645  0.5108  0.3441 -0.6177
 3689TIP3   OH211002   3.658   3.943   3.055 -0.0918 -0.7591 -0.3046
 3689TIP3    H111003   3.737   3.995   3.070 -0.4255 -0.6213  1.0704
 3689TIP3    H211004   3.687   3.872   2.997  1.1740 -1.0097  0.5997
 3690TIP3   OH211005   4.390   3.923   1.971 -0.3720 -0.6981  0.2249
 3690TIP3    H111006   4.351   3.995   2.020 -0.8258 -1.8992  1.6768
 3690TIP3    H211007   4.464   3.962   1.924 -0.6935  0.7209  0.8929
 3691TIP3   OH211008   1.785   4.096   0.844  0.5971 -0.1358 -0.8909
 3691TIP3    H111009   1.866   4.096   0.792 -0.5369 -0.4676 -2.7094
 3691TIP3    H211010   1.808   4.142   0.925  2.0290  1.7117 -2.2985
 3692TIP3   OH211011   3.198   2.529   2.910 -0.6358 -0.2147  0.3805
 3692TIP3    H111012   3.203   2.444   2.868  1.5864 -0.1173  0.4208
 3692TIP3    H211013   3.206   2.592   2.838 -2.5666 -0.0129  0.3150
 3693TIP3   OH211014   5.485   2.118   1.116 -0.0624 -0.1052  0.1445
 3693TIP3    H111015   5.438   2.077   1.188 -0.6243 -0.6470 -0.5200
 3693TIP3    H211016   5.538   2.048   1.078  1.7770  0.6449  1.2723
 3694TIP3   OH211017   4.854   3.521   2.498  0.0222  0.3477  0.2818
 3694TIP3    H111018   4.856   3.609   2.536  1.5507  0.6857 -0.5407
 3694TIP3    H211019   4.831   3.535   2.407 -0.9984 -0.2273  0.4474
 3695TIP3   OH211020   3.000   3.812   2.556  0.1897  0.8699 -0.2571
 3695TIP3    H111021   2.976   3.891   2.604 -0.4327 -0.7665  2.2118
 3695TIP3    H211022   3.096   3.817   2.548  0.2259  1.5232  0.5274
 3696TIP3   OH211023   4.315   2.766   3.297  0.0525 -0.1213  0.1491
 3696TIP3    H111024   4.353   2.847   3.261 -0.9037  0.1373 -0.3007
 3696TIP3    H211025   4.348   2.697   3.239 -1.7345  0.3307 -1.4761
 3697TIP3   OH211026   3.261   3.270   3.216 -0.0758 -0.3968  0.7656
 3697TIP3    H111027   3.193   3.221   3.261 -1.6647  0.4239 -0.6972
 3697TIP3    H211028   3.215   3.318   3.147  2.1817 -1.2269 -1.4294
 3698TIP3   OH211029   3.047   5.695   2.008 -1.1496  0.2037 -0.6341
 3698TIP3    H111030   2.984   5.706   2.080  0.9360  1.5209  1.0462
 3698TIP3    H211031   3.116   5.640   2.046 -1.2631 -1.2188 -2.4519
 3699TIP3   OH211032   4.261   2.289   1.897 -0.0001  0.1465 -0.1816
 3699TIP3    H111033   4.176   2.249   1.875  0.0564  0.1146 -0.3398
 3699TIP3    H211034   4.323   2.246   1.838 -0.0643  1.0498 -0.9136
 3700TIP3   OH211035   3.688   3.852   1.619  0.2823  0.1065  0.0412
 3700TIP3    H111036   3.712   3.900   1.539  0.6809 -0.6271 -0.2853
 3700TIP3    H211037   3.629   3.783   1.589  2.3367 -1.6858  0.0128
 3701TIP3   OH211038   3.674   3.262   1.239  1.1138  0.2637 -0.0810
 3701TIP3    H111039   3.726   3.310   1.304  0.7278  1.1021 -0.3772
 3701TIP3    H211040   3.723   3.270   1.158  0.6629  0.8434 -0.3055
 3702TIP3   OH211041   3.546   4.016   3.877  0.1625 -0.3064  0.0230
 3702TIP3    H111042   3.454   4.023   3.849  0.0307 -0.5620  0.3826
 3702TIP3    H211043   3.545   4.049   3.967  0.5764  0.4840 -0.2648
 3703TIP3   OH211044   3.604   2.899   0.922  0.2526  0.5163  0.3502
 3703TIP3    H111045   3.519   2.921   0.883 -0.4007  1.6214  2.3412
 3703TIP3    H211046   3.668   2.937   0.861 -0.6746  0.2100 -0.8467
 3704TIP3   OH211047   4.528   3.707   2.834 -0.5105  0.0986  0.1350
 3704TIP3    H111048   4.564   3.796   2.833  0.0000 -0.0999  0.7287
 3704TIP3    H211049   4.436   3.718   2.861 -0.6337  0.5096 -0.4479
 3705TIP3   OH211050   5.482   2.297   2.409  0.1973  0.5382 -0.0722
 3705TIP3    H111051   5.558   2.253   2.371  2.6158  2.4846  2.2956
 3705TIP3    H211052   5.428   2.321   2.334  1.3543 -1.8639 -1.7398
 3706TIP3   OH211053   3.046   3.234   3.551  0.3458 -0.2909  0.0374
 3706TIP3    H111054   3.000   3.275   3.479  0.7423  0.1066  0.0064
 3706TIP3    H211055   3.040   3.297   3.623 -2.2079 -1.7140  1.1711
 3707TIP3   OH211056   2.068   6.218   5.488 -0.1448 -0.2346  0.3167
 3707TIP3    H111057   2.071   6.207   5.583 -1.5364  1.1090  0.5443
 3707TIP3    H211058   2.047   6.310   5.475 -0.0212 -0.4157 -1.3031
 3708TIP3   OH211059   2.969   5.877   3.182 -0.4462  0.2574  0.2743
 3708TIP3    H111060   2.926   5.962   3.176  0.5544  0.6941 -0.9930
 3708TIP3    H211061   2.943   5.831   3.102  0.5184  0.0885  0.0516
 3709TIP3   OH211062   3.250   4.659   2.531  0.2954 -0.0157  0.4945
 3709TIP3    H111063   3.159   4.632   2.530 -0.3974  2.2313 -0.0688
 3709TIP3    H211064   3.275   4.664   2.438  0.8363 -0.1170  0.6290
 3710TIP3   OH211065   5.007   5.918   2.968 -0.4487 -0.6632  0.0727
 3710TIP3    H111066   4.944   5.990   2.977 -0.2707 -0.6059  0.9334
 3710TIP3    H211067   5.089   5.961   2.945 -0.2388 -0.5396  1.0199
 3711TIP3   OH211068   4.003   4.746   2.863  0.1503  0.1396  0.2234
 3711TIP3    H111069   4.058   4.755   2.785  1.2568 -0.3834  0.9265
 3711TIP3    H211070   3.921   4.790   2.840  0.1647 -0.6914 -1.5214
 3712TIP3   OH211071   2.444   2.098   5.982  0.1151  0.3258  0.1019
 3712TIP3    H111072   2.470   2.150   6.057 -1.1781  1.3479 -0.1521
 3712TIP3    H211073   2.488   2.014   5.995  1.2239  1.0533  1.1378
 3713TIP3   OH211074   3.681   1.561   1.774 -0.4113  0.5414 -0.0737
 3713TIP3    H111075   3.590   1.582   1.751 -0.5289 -0.7603 -0.7981
 3713TIP3    H211076   3.729   1.565   1.692 -0.1278 -0.3964  0.0359
 3714TIP3   OH211077   1.905   4.086   3.588  0.0041 -0.3658 -0.1012
 3714TIP3    H111078   1.834   4.143   3.619  0.0025 -0.5682  0.2684
 3714TIP3    H211079   1.952   4.140   3.524  0.4565  0.3210  0.7949
 3715TIP3   OH211080   2.599   3.953   3.028  0.0390 -0.5787 -0.3567
 3715TIP3    H111081   2.575   3.862   3.044 -0.4421 -0.4451 -0.3034
 3715TIP3    H211082   2.640   3.953   2.942  0.9336 -1.0003  0.0591
 3716TIP3   OH211083   3.820   4.361   3.267  0.0673 -0.2532 -0.2474
 3716TIP3    H111084   3.818   4.275   3.308 -1.9486  0.0877  0.4026
 3716TIP3    H211085   3.789   4.347   3.178 -0.0073 -0.2443 -0.2229
 3717TIP3   OH211086   1.379   5.852   5.415  0.5633 -0.0587 -0.3405
 3717TIP3    H111087   1.286   5.827   5.411  0.6205 -0.6188  1.2808
 3717TIP3    H211088   1.411   5.840   5.326 -0.4329 -1.8435 -0.4964
 3718TIP3   OH211089   5.261   1.530   1.978 -0.1027  0.3180 -0.8085
 3718TIP3    H111090   5.296   1.445   1.953 -0.9506  0.6386 -3.1538
 3718TIP3    H211091   5.279   1.587   1.904 -1.1512  1.7413 -0.0045
 3719TIP3   OH211092   2.653   4.199   3.122 -0.3999  0.7890 -0.1095
 3719TIP3    H111093   2.632   4.188   3.215 -0.7499  0.9605 -0.1659
 3719TIP3    H211094   2.631   4.116   3.082  0.9762  0.2628  0.1713
 3720TIP3   OH211095   2.920   5.151   2.826  0.2658  0.0590 -0.0978
 3720TIP3    H111096   2.872   5.211   2.884 -0.7375  0.8387 -1.6970
 3720TIP3    H211097   2.857   5.084   2.802  0.7488 -0.4083 -0.0577
 3721TIP3   OH211098   5.408   4.485   4.422 -0.6049 -0.4981  0.4356
 3721TIP3    H111099   5.441   4.415   4.365  0.2621 -0.4778  0.9071
 3721TIP3    H211100   5.456   4.474   4.503 -1.4784 -0.2079  0.9962
 3722TIP3   OH211101   6.143   1.649   1.583 -0.5379 -0.1432 -0.3533
 3722TIP3    H111102   6.238   1.662   1.589 -0.1962 -2.9574  1.2671
 3722TIP3    H211103   6.132   1.586   1.512 -1.4723  2.4982 -2.6007
 3723TIP3   OH211104   4.643   2.567   3.781 -0.6675  0.3947 -0.2012
 3723TIP3    H111105   4.705   2.494   3.781 -0.5197  0.5195  0.2002
 3723TIP3    H211106   4.652   2.606   3.694  1.1402  1.5358  0.4841
 3724TIP3   OH211107   3.817   2.458   4.362 -0.6230 -0.3340 -0.0232
 3724TIP3    H111108   3.801   2.405   4.285 -1.1818 -0.6422  0.3075
 3724TIP3    H211109   3.871   2.531   4.330 -0.6413 -0.5964 -0.6500
 3725TIP3   OH211110   3.375   3.599   3.797  0.0953 -0.0693 -0.6869
 3725TIP3    H111111   3.440   3.552   3.744  0.8778  0.0727  0.1271
 3725TIP3    H211112   3.369   3.548   3.878  0.1276  0.6202 -0.2476
 3726TIP3   OH211113   3.811   3.392   3.161 -0.1534 -0.4276 -0.2344
 3726TIP3    H111114   3.742   3.346   3.208 -0.5779  0.4858  0.0527
 3726TIP3    H211115   3.784   3.484   3.162 -0.3974 -0.4361 -2.6343
 3727TIP3   OH211116   2.328   4.077   1.660  0.0609  0.5922  0.4423
 3727TIP3    H111117   2.340   4.001   1.603 -1.7850 -0.4380  1.3750
 3727TIP3    H211118   2.336   4.152   1.601  1.7202 -0.3117 -0.5327
 3728TIP3   OH211119   2.594   4.934   3.202 -0.1368  0.4256  0.2304
 3728TIP3    H111120   2.556   4.847   3.210 -2.0424  0.8973 -2.6200
 3728TIP3    H211121   2.539   4.990   3.257  0.7979 -0.0499  1.6814
 3729TIP3   OH211122   3.224   0.817   4.356 -0.1190 -0.1245 -0.1244
 3729TIP3    H111123   3.287   0.745   4.356 -0.1583 -0.1730 -1.5698
 3729TIP3    H211124   3.276   0.895   4.340 -0.0452  0.2232  1.6904
 3730TIP3   OH211125   3.617   1.322   3.347 -0.1746  0.0840  0.1916
 3730TIP3    H111126   3.700   1.339   3.301 -1.2738  1.4338 -1.3818
 3730TIP3    H211127   3.579   1.409   3.359 -1.2980 -0.5155  1.0457
 3731TIP3   OH211128   2.555   4.044   4.131 -0.1644 -0.3994 -0.7341
 3731TIP3    H111129   2.477   4.030   4.077 -0.8342  0.9543 -0.1119
 3731TIP3    H211130   2.552   3.973   4.195 -1.4191  0.2246 -0.0909
 3732TIP3   OH211131   4.923   3.228   3.945  0.5051  0.2761 -0.3862
 3732TIP3    H111132   4.966   3.285   4.009 -0.3824  0.9054 -0.3421
 3732TIP3    H211133   4.923   3.279   3.864  0.3429  0.0545 -0.5255
 3733TIP3   OH211134   3.908   5.013   2.287  0.0749  0.3306 -0.8267
 3733TIP3    H111135   3.825   4.998   2.331  1.2291 -0.3832  1.2034
 3733TIP3    H211136   3.890   4.999   2.194 -1.6782 -1.4903 -0.2388
 3734TIP3   OH211137   3.331   3.809   4.010  0.5155 -0.5139  0.1278
 3734TIP3    H111138   3.319   3.902   3.989  2.4443  0.0768  1.4795
 3734TIP3    H211139   3.310   3.763   3.928 -1.1512  1.0306 -0.3618
 3735TIP3   OH211140   4.973   3.135   3.199 -0.0234 -0.0499 -0.7681
 3735TIP3    H111141   5.069   3.136   3.198 -0.0382  1.2447 -2.7578
 3735TIP3    H211142   4.948   3.145   3.107 -2.0687  0.4988 -0.1713
 3736TIP3   OH211143   3.149   5.445   1.655 -0.3478  0.0607  0.1880
 3736TIP3    H111144   3.174   5.532   1.623 -1.0794  0.6126  1.1011
 3736TIP3    H211145   3.192   5.437   1.741 -1.6649  0.2108  0.8682
 3737TIP3   OH211146   3.605   4.251   3.120  0.4513  0.3664 -0.3617
 3737TIP3    H111147   3.597   4.195   3.197 -1.0756  0.2867 -0.5576
 3737TIP3    H211148   3.636   4.192   3.051 -1.6779 -0.4125 -0.7080
 3738TIP3   OH211149   3.043   3.145   2.429 -0.3008  0.2933  0.0395
 3738TIP3    H111150   3.100   3.114   2.500 -0.0348  0.2481 -0.1916
 3738TIP3    H211151   3.024   3.236   2.452 -1.6263 -0.2331  1.0681
 3739TIP3   OH211152   4.800   2.631   4.227 -0.5048  0.1180 -0.8684
 3739TIP3    H111153   4.712   2.610   4.196 -0.6007  2.0686 -2.0017
 3739TIP3    H211154   4.841   2.677   4.154  0.9846  0.4564  0.1464
 3740TIP3   OH211155   5.115   3.206   1.316  0.2934  0.6997  0.4787
 3740TIP3    H111156   5.172   3.131   1.297  0.7114  0.7515  1.4728
 3740TIP3    H211157   5.028   3.178   1.288  0.7691  0.5149 -0.8060
 3741TIP3   OH211158   3.415   4.548   4.592  0.0990  0.0483 -0.3148
 3741TIP3    H111159   3.373   4.616   4.539 -3.8382 -0.8591  1.4892
 3741TIP3    H211160   3.344   4.510   4.642  3.1755 -1.4825  3.0596
 3742TIP3   OH211161   5.771   3.874   2.715  0.1209 -0.8168 -0.1406
 3742TIP3    H111162   5.756   3.865   2.621  0.4804  2.2305 -0.5322
 3742TIP3    H211163   5.699   3.929   2.746  0.6548 -0.8372  1.1677
 3743TIP3   OH211164   4.865   1.876   1.053  0.0311  0.0716 -0.2001
 3743TIP3    H111165   4.934   1.936   1.081 -0.5685  1.0297 -0.7575
 3743TIP3    H211166   4.797   1.932   1.016 -1.6790 -0.7679  1.6233
 3744TIP3   OH211167   4.654   4.043   1.897  0.2736  0.5476  0.3226
 3744TIP3    H111168   4.685   4.069   1.810  2.2672 -1.1770  0.4891
 3744TIP3    H211169   4.628   4.125   1.939 -0.5262  1.4293 -1.8060
 3745TIP3   OH211170   5.064   6.359   3.520 -0.5447 -0.1708 -0.5767
 3745TIP3    H111171   5.008   6.285   3.544  0.0068 -0.3264  0.2321
 3745TIP3    H211172   5.153   6.328   3.537 -0.3017  0.6114 -0.4230
 3746TIP3   OH211173   4.953   4.447   2.885 -0.3608 -0.4896  0.0050
 3746TIP3    H111174   4.890   4.386   2.923 -1.5635  0.6471 -0.1082
 3746TIP3    H211175   4.957   4.519   2.947 -0.5731  0.3001 -0.8876
 3747TIP3   OH211176   5.076   3.683   3.553 -0.1917  0.1349  0.0017
 3747TIP3    H111177   5.124   3.762   3.527 -0.3454 -0.1622 -1.2324
 3747TIP3    H211178   5.058   3.638   3.470 -1.7501 -0.2339  0.5255
 3748TIP3   OH211179   3.711   4.500   2.586 -0.0221 -0.2149  0.4542
 3748TIP3    H111180   3.804   4.504   2.563 -0.3502 -0.3667 -0.9924
 3748TIP3    H211181   3.666   4.509   2.502 -1.3528  1.9567  1.3559
 3749TIP3   OH211182   3.066   4.093   3.418 -0.2023  0.1323  0.3822
 3749TIP3    H111183   3.094   4.157   3.353 -0.9642  2.3281  2.1458
 3749TIP3    H211184   3.142   4.083   3.476 -0.2664 -0.1456  0.4184
 3750TIP3   OH211185   5.590   3.592   4.069 -0.0301 -0.4317 -0.4182
 3750TIP3    H111186   5.606   3.511   4.118  0.6259 -0.1071 -0.0829
 3750TIP3    H211187   5.497   3.589   4.046 -0.3723 -0.5364  0.9512
 3751TIP3   OH211188   4.886   4.689   5.577  0.6570 -0.6842  0.1126
 3751TIP3    H111189   4.845   4.774   5.556 -0.1498 -1.0314  0.2539
 3751TIP3    H211190   4.882   4.641   5.494  4.6266  0.7904 -1.0546
 3752TIP3   OH211191   8.420   5.192   6.444  0.1202 -0.6373 -0.5144
 3752TIP3    H111192   8.375   5.251   6.382 -3.5008 -1.6638  1.0024
 3752TIP3    H211193   8.456   5.251   6.511 -1.6748  0.0294 -0.1063
 3753TIP3   OH211194   8.438   2.616   1.449  0.2143  0.1641 -0.0487
 3753TIP3    H111195   8.475   2.586   1.367  0.6750  0.2565  0.1254
 3753TIP3    H211196   8.392   2.697   1.427  2.9844  1.9216  0.3378
 3754TIP3   OH211197   3.147   2.791   2.210  0.1010  0.4818 -0.6958
 3754TIP3    H111198   3.183   2.734   2.278 -0.6669  0.7349 -0.0754
 3754TIP3    H211199   3.208   2.865   2.206  1.5008 -0.6945 -2.0025
 3755TIP3   OH211200   6.008   3.775   2.386  0.4916  0.2220  0.0065
 3755TIP3    H111201   6.028   3.714   2.314 -0.1856 -0.3073  0.2618
 3755TIP3    H211202   6.089   3.779   2.437  0.4125 -0.7967  0.2245
 3756TIP3   OH211203   5.472   1.793   3.553  0.1962 -0.3654  0.8813
 3756TIP3    H111204   5.484   1.862   3.618 -0.0859  0.8820 -0.3441
 3756TIP3    H211205   5.422   1.835   3.483 -1.0950 -2.1908  0.6667
 3757TIP3   OH211206   6.453   1.342   2.967  0.0844  0.0602  0.5211
 3757TIP3    H111207   6.365   1.363   2.935  0.2441  0.6003  0.4423
 3757TIP3    H211208   6.491   1.288   2.897 -0.1508 -0.1000  0.5155
 3758TIP3   OH211209   5.406   3.023   2.652 -0.2645 -0.3600  0.1014
 3758TIP3    H111210   5.389   2.960   2.722 -2.8683 -1.4100 -1.4074
 3758TIP3    H211211   5.331   3.082   2.654  0.3278  0.4440 -0.9070
 3759TIP3   OH211212   1.526   3.978   2.384 -0.3875 -0.2505 -0.0249
 3759TIP3    H111213   1.615   3.942   2.386  0.4307  1.7759  1.8112
 3759TIP3    H211214   1.526   4.037   2.308  0.5385  1.3646  1.1850
 3760TIP3   OH211215   6.371   3.548   3.899 -0.2060 -0.0524  0.6034
 3760TIP3    H111216   6.388   3.474   3.957 -4.6899 -2.7878 -1.3179
 3760TIP3    H211217   6.297   3.593   3.938 -1.9155 -0.6929 -1.7901
 3761TIP3   OH211218   6.304   2.054   2.733 -0.2766 -0.0096 -0.4187
 3761TIP3    H111219   6.315   1.959   2.728  2.4584  0.3159 -0.9613
 3761TIP3    H211220   6.279   2.070   2.824  0.9282 -1.1112  0.1157
 3762TIP3   OH211221   1.921   1.737   3.077  0.1176 -0.0950  0.2942
 3762TIP3    H111222   1.970   1.808   3.118  0.4304  0.0783 -0.3681
 3762TIP3    H211223   1.829   1.757   3.096  0.2188  0.3533  0.3259
 3763TIP3   OH211224   3.622   2.801   1.380  0.2522  0.2291 -0.0226
 3763TIP3    H111225   3.640   2.873   1.441  0.1261 -0.4942  0.8684
 3763TIP3    H211226   3.652   2.723   1.425 -1.7871 -0.5711  0.0009
 3764TIP3   OH211227   2.393   3.802   4.000  0.5413  0.3214 -0.0006
 3764TIP3    H111228   2.304   3.815   4.032 -0.0362  0.7602 -1.7136
 3764TIP3    H211229   2.413   3.711   4.019 -0.9480 -0.2785 -1.1882
 3765TIP3   OH211230   3.215   3.791   4.699  0.2463 -0.8824 -0.4053
 3765TIP3    H111231   3.237   3.883   4.681 -0.1880 -0.5056  0.8719
 3765TIP3    H211232   3.182   3.757   4.617 -0.1713  0.2878 -0.7306
 3766TIP3   OH211233   4.173   2.611   2.765 -0.0406 -0.0304  0.0096
 3766TIP3    H111234   4.177   2.574   2.677 -2.0446 -0.0757 -0.0859
 3766TIP3    H211235   4.264   2.629   2.788  0.5488 -0.6120 -1.8130
 3767TIP3   OH211236   4.349   6.318   4.099 -0.2609  0.5477 -0.1536
 3767TIP3    H111237   4.431   6.275   4.122  0.3122  1.0202 -1.2936
 3767TIP3    H211238   4.312   6.344   4.184  0.9208  0.6254  0.3568
 3768TIP3   OH211239   2.571   6.711   1.072 -0.0271  0.0795  0.7843
 3768TIP3    H111240   2.621   6.653   1.130 -1.3029 -2.2319 -0.3286
 3768TIP3    H211241   2.631   6.730   1.000  0.7111  0.9116  1.6054
 3769TIP3   OH211242   3.294   5.363   2.591 -0.2107  0.8634 -0.1739
 3769TIP3    H111243   3.238   5.291   2.622  0.9148 -1.2390 -2.8315
 3769TIP3    H211244   3.250   5.396   2.513  0.0907  2.0282  0.1467
 3770TIP3   OH211245   3.009   4.342   3.328  0.4037  0.0728  0.1651
 3770TIP3    H111246   3.008   4.354   3.423  0.2678 -0.7701  0.2720
 3770TIP3    H211247   2.979   4.426   3.293  0.4980  0.4034  0.8604
 3771TIP3   OH211248   4.566   5.474   4.160  1.2917 -0.8818  0.6940
 3771TIP3    H111249   4.627   5.455   4.088  0.3582 -0.7160 -0.1459
 3771TIP3    H211250   4.547   5.389   4.199 -0.3628 -1.3184 -1.0186
 3772TIP3   OH211251   3.250   3.071   3.910 -0.5864  0.0285  1.0748
 3772TIP3    H111252   3.198   3.043   3.835  0.3035 -2.6457  1.4183
 3772TIP3    H211253   3.211   3.025   3.985  0.9657 -0.3960  1.6399
 3773TIP3   OH211254   4.439   3.488   4.456 -0.0072 -0.1598  0.3634
 3773TIP3    H111255   4.376   3.544   4.412 -0.3706 -1.3084 -0.6088
 3773TIP3    H211256   4.444   3.410   4.402  1.2382 -0.6581  1.1563
 3774TIP3   OH211257   4.154   4.334   2.749 -0.3782  0.0885 -0.0342
 3774TIP3    H111258   4.140   4.399   2.680 -0.4981 -0.6117 -0.6796
 3774TIP3    H211259   4.178   4.385   2.826  0.5394  0.8257 -0.8023
 3775TIP3   OH211260   4.986   3.985   0.629 -0.0741  0.4374  0.4968
 3775TIP3    H111261   4.913   4.019   0.681 -0.8348 -0.4327  0.0062
 3775TIP3    H211262   4.977   3.890   0.632 -2.0351  0.3409 -3.8077
 3776TIP3   OH211263   4.315   5.558   3.234  0.1356 -0.0252  0.2233
 3776TIP3    H111264   4.351   5.597   3.154 -0.2116 -0.7845 -0.2992
 3776TIP3    H211265   4.222   5.545   3.215 -0.0691  0.3599  0.9697
 3777TIP3   OH211266   3.427   4.046   1.412 -0.2443 -0.3948 -0.4017
 3777TIP3    H111267   3.377   4.003   1.482 -0.4435 -1.0721 -0.9514
 3777TIP3    H211268   3.404   4.139   1.420 -0.4881 -0.5076  0.2518
 3778TIP3   OH211269   6.577   1.088   2.896 -0.8759 -0.2218 -0.3273
 3778TIP3    H111270   6.647   1.152   2.899 -0.5043 -0.6498  0.3117
 3778TIP3    H211271   6.605   1.023   2.832 -0.3334 -0.7902  0.4737
 3779TIP3   OH211272   4.946   3.220   1.979 -0.2394  0.2945  0.2099
 3779TIP3    H111273   4.965   3.179   1.895 -0.8396  0.3213  0.0576
 3779TIP3    H211274   4.998   3.300   1.979  2.5153 -1.4364  1.3645
 3780TIP3   OH211275   5.188   3.005   4.739 -0.0405 -0.1041  0.1137
 3780TIP3    H111276   5.166   2.913   4.752  2.3004 -0.7766 -0.4112
 3780TIP3    H211277   5.184   3.043   4.827 -0.9504 -0.7045  0.3387
 3781TIP3   OH211278   1.505   4.065   3.372 -0.5645 -0.2126 -0.5040
 3781TIP3    H111279   1.454   4.038   3.449 -0.1256  1.0360  0.2297
 3781TIP3    H211280   1.473   4.153   3.352  0.1927 -0.0542 -1.0132
 3782TIP3   OH211281   1.662   2.471   2.989 -0.2425  0.0352 -0.6187
 3782TIP3    H111282   1.626   2.537   2.931 -2.5253 -0.5854  0.0340
 3782TIP3    H211283   1.616   2.390   2.966  2.6041 -1.4221 -1.5231
 3783TIP3   OH211284   4.752   3.000   2.640 -0.3834  0.1028  0.5521
 3783TIP3    H111285   4.844   2.980   2.658  0.3381 -0.1890 -3.0495
 3783TIP3    H211286   4.749   3.095   2.629 -0.1146 -0.0542 -1.0806
 3784TIP3   OH211287   3.722   3.168   4.317  0.1755 -0.3495 -0.0526
 3784TIP3    H111288   3.712   3.256   4.281 -0.0887 -0.1862  0.4288
 3784TIP3    H211289   3.651   3.117   4.277  1.1467 -0.6920 -1.4050
 3785TIP3   OH211290   6.071   3.118   2.770 -0.3962 -0.4540 -0.5145
 3785TIP3    H111291   6.104   3.032   2.798  1.4249  0.6479  0.7743
 3785TIP3    H211292   6.014   3.146   2.842 -0.5265 -0.3075 -0.6740
 3786TIP3   OH211293   2.150   4.697   1.631 -0.3039  0.3238  0.4824
 3786TIP3    H111294   2.124   4.783   1.665  0.5138  0.4984  0.6830
 3786TIP3    H211295   2.077   4.671   1.575 -0.1654  1.5591 -0.2975
 3787TIP3   OH211296   5.354   2.683   2.530  0.1916  0.5453  0.2797
 3787TIP3    H111297   5.325   2.722   2.613 -1.4454 -0.0649 -0.0018
 3787TIP3    H211298   5.366   2.758   2.471 -1.6976  0.7396  0.1232
 3788TIP3   OH211299   5.565   2.354   3.225  0.2676  0.6448 -0.5136
 3788TIP3    H111300   5.586   2.273   3.180 -0.8982 -0.0619  0.2041
 3788TIP3    H211301   5.472   2.368   3.208  0.5678  2.1020 -1.0558
 3789TIP3   OH211302   2.376   3.830   1.541 -0.2010 -0.3737 -0.1411
 3789TIP3    H111303   2.464   3.847   1.574 -0.8862  0.6549  1.2214
 3789TIP3    H211304   2.382   3.846   1.447  1.6389 -2.7264 -0.4717
 3790TIP3   OH211305   3.860   3.779   2.486 -0.2765  0.3208 -0.6926
 3790TIP3    H111306   3.891   3.734   2.564 -0.9815  0.3734 -0.3731
 3790TIP3    H211307   3.775   3.815   2.512  0.6197  2.5457 -0.6540
 3791TIP3   OH211308   0.962   0.180   3.654 -0.3149 -0.1577 -0.1737
 3791TIP3    H111309   0.945   0.255   3.711 -1.8160 -0.4791 -0.1857
 3791TIP3    H211310   1.036   0.207   3.600 -0.2673  0.9712  0.4496
 3792TIP3   OH211311   4.487   3.102   3.862  0.0140 -0.2492  0.4419
 3792TIP3    H111312   4.393   3.114   3.853  0.2952  1.7305 -0.0243
 3792TIP3    H211313   4.502   3.011   3.838 -1.8638 -0.7981  1.2482
 3793TIP3   OH211314   2.241   3.629   2.416 -0.2951 -0.6410  0.4607
 3793TIP3    H111315   2.146   3.639   2.430 -0.2133  1.6331 -0.3840
 3793TIP3    H211316   2.250   3.615   2.322  0.3426  1.3926  0.1955
 3794TIP3   OH211317   4.810   3.172   2.217  0.6054  0.2818  0.6324
 3794TIP3    H111318   4.822   3.207   2.129 -0.9429  0.5458  0.5096
 3794TIP3    H211319   4.899   3.157   2.249  1.2032  1.0128 -0.6375
 3795TIP3   OH211320   4.940   4.160   3.440  0.5752  0.0548 -0.1535
 3795TIP3    H111321   5.029   4.164   3.475  0.5145  1.5933 -0.1013
 3795TIP3    H211322   4.884   4.177   3.516  0.3203  0.7353 -0.4875
 3796TIP3   OH211323   5.257   4.770   2.499  0.0460 -0.9233  0.0330
 3796TIP3    H111324   5.194   4.828   2.541  0.9194 -0.0049  0.0990
 3796TIP3    H211325   5.310   4.828   2.444 -0.3398 -1.9385 -1.4506
 3797TIP3   OH211326   4.293   4.493   2.190  0.6870  0.0419 -0.2462
 3797TIP3    H111327   4.336   4.459   2.269  0.7759 -0.8660 -0.6802
 3797TIP3    H211328   4.356   4.476   2.120 -0.5395 -1.6879 -0.9537
 3798TIP3   OH211329   5.963   4.410   3.716 -0.3013 -0.0046 -0.4164
 3798TIP3    H111330   5.886   4.455   3.751 -1.1831 -0.1737 -2.0784
 3798TIP3    H211331   5.945   4.400   3.622  1.0125 -1.5459 -0.5372
 3799TIP3   OH211332   6.167   3.962   1.216 -0.3528  0.5981  0.1702
 3799TIP3    H111333   6.101   3.918   1.270  0.3557 -1.4736 -0.5935
 3799TIP3    H211334   6.162   3.918   1.132  2.6412 -0.2519  0.3706
 3800TIP3   OH211335   4.635   5.127   3.143 -0.1598 -0.0259 -0.2240
 3800TIP3    H111336   4.615   5.034   3.129  0.8946 -0.5595  1.6873
 3800TIP3    H211337   4.558   5.162   3.188  0.7216 -0.7216  1.8748
 3801TIP3   OH211338   4.801   3.366   3.334 -0.4217  0.2108 -0.6172
 3801TIP3    H111339   4.872   3.387   3.273 -0.4281 -1.0134 -1.0574
 3801TIP3    H211340   4.727   3.420   3.305 -1.0020 -1.7054 -2.8767
 3802TIP3   OH211341   3.586   5.314   2.191 -0.3738  0.4250  0.6879
 3802TIP3    H111342   3.533   5.235   2.201 -0.6198  0.3275 -1.0970
 3802TIP3    H211343   3.569   5.366   2.270  0.5546 -1.7412  2.3435
 3803TIP3   OH211344   3.379   6.760   2.802  0.1383 -0.9562  0.6896
 3803TIP3    H111345   3.399   6.833   2.860  3.1991 -0.1106 -1.3076
 3803TIP3    H211346   3.284   6.763   2.791  0.0822  1.9292  1.6798
 3804TIP3   OH211347   4.225   5.291   3.927  0.5682 -0.2528  0.0035
 3804TIP3    H111348   4.194   5.381   3.913 -0.1016 -0.9711 -3.4467
 3804TIP3    H211349   4.146   5.241   3.943  0.9421 -0.2822  1.9051
 3805TIP3   OH211350   6.711   4.945   0.360 -0.1387  0.1384  0.0221
 3805TIP3    H111351   6.635   4.944   0.418 -1.8524  0.3478 -2.1572
 3805TIP3    H211352   6.709   4.860   0.316  0.6299  0.3294 -0.3872
 3806TIP3   OH211353   7.119   4.088   3.060 -0.3909 -0.2055  0.4919
 3806TIP3    H111354   7.035   4.108   3.018 -0.5438 -1.8609 -0.0086
 3806TIP3    H211355   7.164   4.173   3.064 -2.3107  0.8106  1.3199
 3807TIP3   OH211356   6.588   2.998   1.921 -0.2963 -0.2983  0.5849
 3807TIP3    H111357   6.674   3.040   1.918  0.5455 -1.9245  1.4352
 3807TIP3    H211358   6.589   2.938   1.847  0.4538 -2.4466  2.2888
 3808TIP3   OH211359   6.062   3.378   4.118 -0.2081  0.7092  0.1376
 3808TIP3    H111360   6.007   3.421   4.052 -2.9646 -2.9904 -0.1355
 3808TIP3    H211361   6.131   3.335   4.068  0.5789  1.9368  0.1381
 3809TIP3   OH211362   5.044   3.441   3.253 -0.3900  0.0698  0.6008
 3809TIP3    H111363   5.104   3.399   3.192  0.1848 -0.0069  1.2058
 3809TIP3    H211364   5.086   3.524   3.274 -0.3386 -0.1138  1.2530
 3810TIP3   OH211365   6.397   2.589   1.665  0.2222  0.4929  0.0325
 3810TIP3    H111366   6.352   2.569   1.583 -0.1478  0.5608  0.2196
 3810TIP3    H211367   6.327   2.611   1.727  0.4611 -0.0788  0.5149
 3811TIP3   OH211368   6.573   6.984   2.832  0.5592  0.0934 -0.3359
 3811TIP3    H111369   6.640   7.052   2.843  0.5942 -0.1702  1.0910
 3811TIP3    H211370   6.506   7.026   2.777  0.1667  1.5926  1.2505
 3812TIP3   OH211371   6.412   2.981   3.902  0.0492  0.3253 -0.2215
 3812TIP3    H111372   6.486   2.989   3.842  0.3234 -2.3225 -0.3051
 3812TIP3    H211373   6.447   2.932   3.977 -1.5948 -0.9413 -0.2465
 3813TIP3   OH211374   4.745   4.872   1.155  0.2302 -0.2918  0.5012
 3813TIP3    H111375   4.669   4.862   1.098 -1.0300  0.0175  2.0740
 3813TIP3    H211376   4.748   4.966   1.173  0.9281 -0.3205  0.5318
 3814TIP3   OH211377   2.384   4.327   1.560  0.5339  0.1487  0.2519
 3814TIP3    H111378   2.400   4.414   1.596 -0.6682  1.1138 -1.4350
 3814TIP3    H211379   2.398   4.338   1.466 -0.7049 -1.2219 -0.1049
 3815TIP3   OH211380   4.036   3.288   3.552  0.4451 -0.3786 -0.2963
 3815TIP3    H111381   4.026   3.302   3.646  0.4189  0.3467 -0.4029
 3815TIP3    H211382   4.127   3.310   3.533  0.5609 -0.9221 -0.3718
 3816TIP3   OH211383   7.546   1.015   3.331 -0.4132 -0.0589  0.2739
 3816TIP3    H111384   7.557   1.107   3.354 -1.1498  0.2938 -0.7836
 3816TIP3    H211385   7.631   0.989   3.294  0.0862 -0.0644  1.3657
 3817TIP3   OH211386   5.047   6.023   3.633 -0.0137  0.0916  0.1710
 3817TIP3    H111387   4.967   6.054   3.591  0.5579 -0.0504 -1.0430
 3817TIP3    H211388   5.053   6.072   3.714 -1.6014 -0.2581  0.5132
 3818TIP3   OH211389   6.909   2.405   2.202 -0.2887 -0.0770 -0.4341
 3818TIP3    H111390   6.919   2.319   2.160  1.5906  0.5638 -1.3753
 3818TIP3    H211391   6.856   2.456   2.141  3.6811  1.3299 -2.8764
 3819TIP3   OH211392   5.600   5.146   0.964 -0.7233 -0.0754  0.0809
 3819TIP3    H111393   5.578   5.077   1.026  1.3275 -1.7156 -0.9537
 3819TIP3    H211394   5.583   5.108   0.878  1.2683  0.3331 -0.5383
 3820TIP3   OH211395   7.563   4.965   2.489  0.4979 -0.1298  0.3250
 3820TIP3    H111396   7.523   4.878   2.492  0.7518 -0.2206  1.2359
 3820TIP3    H211397   7.492   5.025   2.512  0.1719 -0.0410 -0.8945
 3821TIP3   OH211398   6.205   3.170   3.946  0.4672  0.1834 -0.5394
 3821TIP3    H111399   6.172   3.204   3.863 -0.9169 -0.8751 -0.4267
 3821TIP3    H211400   6.278   3.112   3.920  0.2304  0.0860 -0.9929
 3822TIP3   OH211401   3.387   6.407   0.166  0.5275  0.3337  0.0293
 3822TIP3    H111402   3.374   6.464   0.090  0.9940  0.1971 -0.1540
 3822TIP3    H211403   3.394   6.467   0.240 -0.9662  0.4213  0.1141
 3823TIP3   OH211404   7.852   6.165   1.233  0.1230  0.4143 -0.0850
 3823TIP3    H111405   7.768   6.177   1.277  0.0523 -2.0857  0.5781
 3823TIP3    H211406   7.895   6.251   1.238 -1.0686  0.9196  2.3994
 3824TIP3   OH211407   6.182   4.979   1.799 -0.1505  0.2588  0.4412
 3824TIP3    H111408   6.111   4.915   1.806  0.8918 -1.0762 -0.8681
 3824TIP3    H211409   6.224   4.960   1.715  0.2858  2.5793  0.0927
 3825TIP3   OH211410   4.508   4.937   0.634  0.6540 -0.0218  0.1185
 3825TIP3    H111411   4.560   5.014   0.656  0.5504  0.2014 -0.4035
 3825TIP3    H211412   4.424   4.951   0.677  1.6426 -1.2687  2.5350
 3826TIP3   OH211413   6.299   1.934   3.364 -0.2964 -0.6891 -0.3508
 3826TIP3    H111414   6.384   1.943   3.322 -1.5488 -3.3667 -3.6950
 3826TIP3    H211415   6.239   1.981   3.307 -1.3254 -0.1076  1.1716
 3827TIP3   OH211416   6.438   3.049   1.507 -0.0060  0.0376 -0.1755
 3827TIP3    H111417   6.533   3.037   1.512 -0.0210  0.3323  0.9951
 3827TIP3    H211418   6.426   3.144   1.508 -0.2704  0.0199 -1.3016
 3828TIP3   OH211419   5.741   6.172   0.761  0.4985  0.6666 -0.7200
 3828TIP3    H111420   5.747   6.237   0.831 -2.8099  1.5905 -1.2071
 3828TIP3    H211421   5.739   6.223   0.680 -1.3810 -0.0623 -1.1566
 3829TIP3   OH211422   6.172   5.994   2.551 -0.3677 -0.3118  0.5892
 3829TIP3    H111423   6.191   6.088   2.544  0.6028 -0.5166  0.4437
 3829TIP3    H211424   6.175   5.976   2.645 -0.5508 -0.1986  0.6168
 3830TIP3   OH211425   5.239   2.928   1.930 -0.1585 -0.1510  0.1817
 3830TIP3    H111426   5.207   2.898   1.845 -1.0041 -1.3414  0.9071
 3830TIP3    H211427   5.291   3.006   1.910  0.0977 -0.7279 -1.4885
 3831TIP3   OH211428   4.273   3.603   3.218  0.4094  0.0691  0.0210
 3831TIP3    H111429   4.217   3.664   3.265  0.2244  0.6925 -0.9913
 3831TIP3    H211430   4.215   3.532   3.192 -0.2170  1.3766 -2.2155
 3832TIP3   OH211431   4.417   3.672   1.664  0.1025 -0.0889  0.1688
 3832TIP3    H111432   4.404   3.651   1.756 -1.3318 -1.6478 -0.3554
 3832TIP3    H211433   4.404   3.589   1.619  1.5885  0.4993 -1.3697
 3833TIP3   OH211434   6.284   5.424   3.914 -0.0713  0.0270  0.6167
 3833TIP3    H111435   6.219   5.477   3.961 -1.1827  0.0649 -0.9093
 3833TIP3    H211436   6.304   5.352   3.974 -0.8085  0.5532  1.5046
 3834TIP3   OH211437   4.302   5.608   2.295  0.7160  0.3721 -0.1374
 3834TIP3    H111438   4.297   5.568   2.382  0.8104 -3.0114 -1.6066
 3834TIP3    H211439   4.396   5.621   2.279  0.7674  0.0164 -0.1341
 3835TIP3   OH211440   7.061   3.769   1.955 -0.2945  0.5761  0.4112
 3835TIP3    H111441   7.045   3.690   2.006  1.1215  0.7148  1.0989
 3835TIP3    H211442   7.152   3.761   1.927 -0.3191  1.6843 -0.0039
 3836TIP3   OH211443   7.579   3.537   3.229  0.3679  0.6773 -0.2521
 3836TIP3    H111444   7.491   3.503   3.248  1.2517 -1.3355  0.4366
 3836TIP3    H211445   7.564   3.626   3.198 -1.9907  0.0881 -0.9671
 3837TIP3   OH211446   3.331   5.351   0.343  0.2576 -0.2954 -0.5826
 3837TIP3    H111447   3.242   5.379   0.364  0.3125  0.1930 -0.9991
 3837TIP3    H211448   3.362   5.309   0.424 -0.9231 -1.9480 -0.9498
 3838TIP3   OH211449   5.443   3.662   3.427 -0.2490 -0.0734 -0.0127
 3838TIP3    H111450   5.410   3.750   3.442  2.9350  1.0426  0.6499
 3838TIP3    H211451   5.398   3.608   3.492 -0.4454  1.4553  1.1406
 3839TIP3   OH211452   5.615   2.246   0.741  0.3162 -0.2741  0.3642
 3839TIP3    H111453   5.704   2.253   0.777 -0.6710 -1.3930  3.1468
 3839TIP3    H211454   5.558   2.271   0.813 -1.6709  0.8705 -1.5278
 3840TIP3   OH211455   6.675   2.497   2.066 -0.4644 -0.3836  0.3868
 3840TIP3    H111456   6.593   2.462   2.101 -0.9702 -0.9601 -1.3364
 3840TIP3    H211457   6.689   2.449   1.984  1.0155  0.4944  0.1046
 3841TIP3   OH211458   2.915   3.867   0.184  0.1431  0.1888  0.1651
 3841TIP3    H111459   2.937   3.836   0.096  1.2303 -1.3930  0.9781
 3841TIP3    H211460   2.819   3.874   0.184  0.1432  0.4153 -1.1924
 3842TIP3   OH211461   5.495   3.802   2.985 -0.6349 -0.3106  0.5025
 3842TIP3    H111462   5.464   3.893   2.987 -0.9043 -0.4064  0.5877
 3842TIP3    H211463   5.471   3.771   2.898 -1.4376 -0.6186  0.8290
 3843TIP3   OH211464   3.543   5.059   2.473 -0.3381  0.2310  0.2795
 3843TIP3    H111465   3.565   5.130   2.532 -1.1853  0.0655  0.7982
 3843TIP3    H211466   3.482   5.097   2.410 -0.1531  0.1754  0.0668
 3844TIP3   OH211467   7.254   3.524   1.887  0.2210 -0.5785  0.0496
 3844TIP3    H111468   7.205   3.487   1.960  0.5773  1.1412  1.1953
 3844TIP3    H211469   7.264   3.451   1.825  0.5027 -2.2508  2.0107
 3845TIP3   OH211470   6.191   5.807   4.500 -0.0829 -0.0982  0.1311
 3845TIP3    H111471   6.257   5.809   4.431 -0.5426  0.7735 -0.2936
 3845TIP3    H211472   6.221   5.739   4.559 -0.2313 -1.5935 -1.4754
 3846TIP3   OH211473   3.668   3.313   1.714 -0.3743 -0.0487  0.1782
 3846TIP3    H111474   3.635   3.239   1.765  1.7081 -0.3193  1.2109
 3846TIP3    H211475   3.749   3.280   1.674 -0.3801  1.1129 -0.8240
 3847TIP3   OH211476   4.065   5.479   1.819  0.2904 -0.5565  0.0843
 3847TIP3    H111477   3.983   5.492   1.867 -0.0669 -1.0187 -0.3953
 3847TIP3    H211478   4.127   5.538   1.861 -0.2164 -0.4104  0.6332
 3848TIP3   OH211479   8.035   6.109   0.295  0.7269  0.5945  0.3357
 3848TIP3    H111480   7.976   6.060   0.237  2.5157  0.6432 -1.5857
 3848TIP3    H211481   7.989   6.112   0.379 -0.8556 -1.5755 -0.4028
 3849TIP3   OH211482   5.490   3.891   1.591  0.5398 -0.0896 -0.1166
 3849TIP3    H111483   5.571   3.865   1.636  0.3934 -0.2872  0.0326
 3849TIP3    H211484   5.520   3.950   1.521  1.0509 -2.0106 -1.5582
 3850TIP3   OH211485   6.101   4.175   2.061  0.8099  0.2282 -0.8568
 3850TIP3    H111486   6.067   4.136   1.981 -0.4567  0.1740 -0.3099
 3850TIP3    H211487   6.034   4.156   2.127  1.5470  0.8039  0.0747
 3851TIP3   OH211488   5.805   4.541   3.283  0.2233  0.0422  0.3669
 3851TIP3    H111489   5.737   4.505   3.226 -0.1214 -1.4500  1.6594
 3851TIP3    H211490   5.773   4.524   3.372  0.6653  2.4817  1.0123
 3852TIP3   OH211491   3.205   3.491   4.255 -0.0261  0.0316 -0.3029
 3852TIP3    H111492   3.152   3.563   4.221 -0.7722  1.1242  3.0297
 3852TIP3    H211493   3.142   3.422   4.276  0.2807 -0.1683 -0.0233
 3853TIP3   OH211494   5.326   1.699   4.383 -0.4321 -0.7184 -0.2877
 3853TIP3    H111495   5.421   1.712   4.381 -0.5922  0.4348 -2.1853
 3853TIP3    H211496   5.313   1.614   4.340 -0.2499 -0.9934  0.1965
 3854TIP3   OH211497   5.553   3.763   4.301 -0.0044  0.3926 -0.2808
 3854TIP3    H111498   5.609   3.827   4.345 -0.8470  0.6652  0.4174
 3854TIP3    H211499   5.601   3.739   4.222  0.6301  1.3758 -0.2026
 3855TIP3   OH211500   6.201   5.384   1.399  0.1235 -0.0928  0.0603
 3855TIP3    H111501   6.188   5.371   1.306 -0.9572  0.6471  0.0912
 3855TIP3    H211502   6.150   5.463   1.420  1.1771  0.3514  1.0767
 3856TIP3   OH211503   4.589   2.097   1.364 -0.2620 -0.3000  0.7674
 3856TIP3    H111504   4.621   2.174   1.318  0.9077  0.0516  2.1685
 3856TIP3    H211505   4.615   2.023   1.308  0.5367  0.1659  0.5257
 3857TIP3   OH211506   4.282   4.801   1.892 -0.1990 -0.6180  0.0773
 3857TIP3    H111507   4.248   4.786   1.803 -1.2791 -0.9892  0.5396
 3857TIP3    H211508   4.377   4.794   1.883  0.1660  4.4803 -2.0825
 3858TIP3   OH211509   4.462   4.382   2.375  0.1181 -0.7155  0.3255
 3858TIP3    H111510   4.503   4.389   2.461  0.1937 -0.4486  0.2668
 3858TIP3    H211511   4.522   4.327   2.324 -0.3773 -1.6493  0.7204
 3859TIP3   OH211512   5.252   4.791   2.149  0.2216  0.5644 -0.0430
 3859TIP3    H111513   5.224   4.882   2.148  0.8254  0.8371  2.7978
 3859TIP3    H211514   5.223   4.757   2.234 -1.7942 -2.5147 -1.8454
 3860TIP3   OH211515   5.941   3.851   2.057  0.4645  0.4352 -0.1496
 3860TIP3    H111516   5.856   3.808   2.047  0.0556  1.1582  0.1375
 3860TIP3    H211517   5.968   3.873   1.968 -0.1865  1.2014 -0.1754
 3861TIP3   OH211518   6.000   2.341   1.272 -0.7000  0.2336 -0.1022
 3861TIP3    H111519   5.985   2.379   1.359 -1.5367  0.0962 -0.1844
 3861TIP3    H211520   5.913   2.314   1.242 -0.6381  1.6440 -1.6323
 3862TIP3   OH211521   4.308   4.089   2.485 -0.1577  0.6596 -0.2494
 3862TIP3    H111522   4.296   4.128   2.399 -0.7560 -1.3939 -1.1355
 3862TIP3    H211523   4.344   4.002   2.467  0.0358  0.3348  1.5900
 3863TIP3   OH211524   4.396   3.613   1.309 -0.1897 -0.1044 -0.0821
 3863TIP3    H111525   4.491   3.622   1.298 -0.0769  0.6311  1.2855
 3863TIP3    H211526   4.386   3.545   1.376 -0.5561  1.0164  1.0271
 3864TIP3   OH211527   3.596   5.842   2.206  0.7168 -0.3561 -0.2586
 3864TIP3    H111528   3.514   5.822   2.251  0.9792 -1.3377 -0.2282
 3864TIP3    H211529   3.574   5.918   2.151 -0.3187 -0.8686 -0.5610
 3865TIP3   OH211530   6.061   2.823   3.245  0.2823 -0.0990 -0.1959
 3865TIP3    H111531   5.988   2.809   3.305  1.3981 -0.3419  1.1368
 3865TIP3    H211532   6.139   2.813   3.300  1.2935  1.7026 -1.2675
 3866TIP3   OH211533   5.117   2.790   0.970  0.3524 -0.6480 -0.3312
 3866TIP3    H111534   5.022   2.802   0.977  0.3200  0.0409 -1.8688
 3866TIP3    H211535   5.134   2.705   1.012 -0.9712 -0.8886 -0.2772
 3867TIP3   OH211536   5.842   3.706   2.990 -0.0926 -0.4353 -0.1823
 3867TIP3    H111537   5.795   3.623   2.980  0.1692 -0.5313 -0.6641
 3867TIP3    H211538   5.796   3.767   2.933  1.7985 -1.1493 -2.5377
 3868TIP3   OH211539   5.960   4.864   1.494 -0.4253 -0.3253  0.4295
 3868TIP3    H111540   5.871   4.835   1.477 -0.5314  0.6371 -0.6952
 3868TIP3    H211541   5.977   4.836   1.584 -0.6237 -3.5513 -0.4529
 3869TIP3   OH211542   5.720   4.320   1.421 -0.0727 -0.8520 -0.2718
 3869TIP3    H111543   5.661   4.257   1.379 -2.2637  0.0368  1.3725
 3869TIP3    H211544   5.761   4.271   1.492 -1.1078 -0.6822  0.4506
 3870TIP3   OH211545   5.845   3.725   0.846  0.4159 -0.0272 -0.7632
 3870TIP3    H111546   5.884   3.638   0.840 -0.8802 -0.5770 -1.2941
 3870TIP3    H211547   5.857   3.763   0.759  0.6668  0.1953 -0.6327
 3871TIP3   OH211548   4.656   3.639   1.382  0.5028 -0.8080 -0.1576
 3871TIP3    H111549   4.668   3.698   1.457  0.4855 -3.2670  1.8614
 3871TIP3    H211550   4.744   3.628   1.346  0.6974 -0.5079  0.2224
 3872TIP3   OH211551   6.959   5.108   4.091  0.1862 -0.0971  0.2342
 3872TIP3    H111552   6.950   5.080   4.000 -0.5113  4.4309 -1.2126
 3872TIP3    H211553   6.873   5.092   4.129  0.4372 -1.8842  0.0958
 3873TIP3   OH211554   4.837   5.039   3.934  0.4684 -0.3238  0.1674
 3873TIP3    H111555   4.814   5.093   4.009 -0.3475  2.6239 -2.0960
 3873TIP3    H211556   4.756   5.033   3.882  1.3483 -1.1535 -1.1640
 3874TIP3   OH211557   4.952   2.252   1.328  0.4849 -0.0664  0.1861
 3874TIP3    H111558   5.047   2.264   1.327  0.1954  2.4714 -0.2905
 3874TIP3    H211559   4.932   2.214   1.242  0.9558  0.3526 -0.1140
 3875TIP3   OH211560   5.430   3.138   3.078 -0.5391  0.0456 -0.8138
 3875TIP3    H111561   5.350   3.115   3.032 -1.2811 -1.8976  1.4068
 3875TIP3    H211562   5.438   3.074   3.149  0.7058  2.7730  1.6310
 3876TIP3   OH211563   4.594   3.463   4.694 -0.6553 -0.3186  0.8397
 3876TIP3    H111564   4.556   3.457   4.607 -0.5698 -1.4632  0.8714
 3876TIP3    H211565   4.532   3.518   4.743 -0.6193  0.4631  0.0316
 3877TIP3   OH211566   5.088   4.446   1.477  0.1401  0.4063  0.0123
 3877TIP3    H111567   5.177   4.433   1.511 -1.5298 -0.8934  4.1722
 3877TIP3    H211568   5.067   4.365   1.432  0.7834  0.4336 -0.3446
 3878TIP3   OH211569   7.229   3.746   3.522  0.1611 -0.2842  0.0176
 3878TIP3    H111570   7.205   3.801   3.447 -1.7828  0.1172  0.9043
 3878TIP3    H211571   7.277   3.805   3.580  0.4530 -0.2409 -0.2619
 3879TIP3   OH211572   3.690   2.988   1.544  0.6741 -0.2243 -0.4445
 3879TIP3    H111573   3.728   3.076   1.536  0.2521  0.3260  2.9288
 3879TIP3    H211574   3.750   2.942   1.602 -0.4163 -1.3887 -0.2322
 3880TIP3   OH211575   5.138   3.746   2.620 -0.2503  0.0992 -0.3977
 3880TIP3    H111576   5.055   3.793   2.627 -0.4820 -0.3809  0.1120
 3880TIP3    H211577   5.167   3.736   2.710 -0.8504 -1.8709 -0.3878
 3881TIP3   OH211578   5.771   3.911   0.551  0.1017 -0.7118  0.0527
 3881TIP3    H111579   5.802   3.972   0.484 -0.3261 -0.4031  0.1329
 3881TIP3    H211580   5.848   3.858   0.573  0.9962  1.0601  1.3611
 3882TIP3   OH211581   5.324   4.291   0.432  0.6298 -0.7511 -0.1694
 3882TIP3    H111582   5.236   4.289   0.394  0.8964 -0.8673 -0.7687
 3882TIP3    H211583   5.320   4.228   0.504  0.7365 -2.0527 -1.2975
 3883TIP3   OH211584   4.700   5.320   0.391 -0.0906  0.5032  0.0389
 3883TIP3    H111585   4.624   5.262   0.380  0.4885 -0.0486 -1.1923
 3883TIP3    H211586   4.673   5.382   0.459 -1.1895 -0.4343  0.4765
 3884TIP3   OH211587   4.198   5.161   4.338 -0.0801  0.2315  0.3016
 3884TIP3    H111588   4.167   5.071   4.331 -0.2440  0.2187  1.1347
 3884TIP3    H211589   4.147   5.198   4.410 -1.8311  1.7572 -1.6738
 3885TIP3   OH211590   4.685   2.570   2.029 -0.1883  0.5141  0.4158
 3885TIP3    H111591   4.755   2.510   2.001  0.3228  0.5778  1.5395
 3885TIP3    H211592   4.720   2.612   2.108 -0.9087  1.6323  0.1451
 3886TIP3   OH211593   6.417   5.419   3.222  0.2739  0.4709  0.1238
 3886TIP3    H111594   6.460   5.504   3.208 -1.6312  1.2582 -1.1321
 3886TIP3    H211595   6.476   5.372   3.281  0.7793  3.1449  1.8499
 3887TIP3   OH211596   6.613   3.449   2.383 -0.1205  0.0127  0.1031
 3887TIP3    H111597   6.665   3.513   2.431 -0.0768  0.0098  0.0593
 3887TIP3    H211598   6.675   3.408   2.323 -0.3051  0.4382 -0.3824
 3888TIP3   OH211599   7.260   3.666   2.216 -0.0261  0.4088 -0.4241
 3888TIP3    H111600   7.173   3.697   2.239  0.9185  1.7275  1.4586
 3888TIP3    H211601   7.310   3.745   2.197  0.6305 -0.3690 -2.0140
 3889TIP3   OH211602   6.044   5.543   2.363 -0.0296  0.4548  0.4626
 3889TIP3    H111603   6.081   5.455   2.365 -0.4201  0.3081  1.3191
 3889TIP3    H211604   6.012   5.554   2.274  2.4864  0.7626 -0.4492
 3890TIP3   OH211605   7.740   4.625   2.328  0.2514  0.2444  0.2739
 3890TIP3    H111606   7.826   4.641   2.366  0.4213 -0.2660  0.1038
 3890TIP3    H211607   7.739   4.679   2.248  0.7313 -0.3895 -0.1679
 3891TIP3   OH211608   6.257   4.817   1.091 -0.0175 -0.1977 -0.1867
 3891TIP3    H111609   6.219   4.796   1.176 -0.6665  0.0184 -0.4270
 3891TIP3    H211610   6.334   4.871   1.112 -0.6875  0.6148  0.2235
 3892TIP3   OH211611   5.175   5.650   4.478 -0.3191  0.1268 -0.2993
 3892TIP3    H111612   5.096   5.597   4.471 -1.2789  1.4220  0.4716
 3892TIP3    H211613   5.247   5.589   4.459 -1.3694 -1.5409  0.9523
 3893TIP3   OH211614   3.172   5.356   2.067 -0.1128  0.1470  0.1672
 3893TIP3    H111615   3.216   5.322   1.989 -0.5772 -0.5524  0.2028
 3893TIP3    H211616   3.079   5.340   2.051 -0.3857  1.9177 -0.0471
 3894TIP3   OH211617   5.984   6.997   0.137  0.3518  0.5601 -0.3849
 3894TIP3    H111618   5.936   6.949   0.205  0.3929 -0.0258 -0.7689
 3894TIP3    H211619   6.064   6.946   0.124  0.9553  1.3827  0.0544
 3895TIP3   OH211620   3.260   5.467   0.991 -0.1503 -0.1102  0.5311
 3895TIP3    H111621   3.175   5.452   0.949 -0.4281 -0.1230  1.0809
 3895TIP3    H211622   3.320   5.408   0.947  0.0708  1.5045 -1.4142
 3896TIP3   OH211623   5.279   4.332   1.990  0.4697  0.4574 -0.6706
 3896TIP3    H111624   5.230   4.414   1.996  0.6973  0.5150  0.4425
 3896TIP3    H211625   5.322   4.323   2.075  3.1096  0.8530 -1.9025
 3897TIP3   OH211626   5.574   4.002   3.494  0.0444  0.4959  0.1568
 3897TIP3    H111627   5.668   3.985   3.503 -0.6210 -2.8644  1.4590
 3897TIP3    H211628   5.553   3.975   3.405  0.1129  0.1579  0.2424
 3898TIP3   OH211629   6.532   5.194   1.946  0.1514  0.2974  0.1127
 3898TIP3    H111630   6.626   5.208   1.950 -0.2391  3.4722 -0.0701
 3898TIP3    H211631   6.498   5.237   2.025 -1.3457  1.4552 -1.1300
 3899TIP3   OH211632   6.182   6.176   0.886  0.4350  0.4435 -0.4050
 3899TIP3    H111633   6.220   6.262   0.866  0.2071  0.4089 -0.9880
 3899TIP3    H211634   6.158   6.182   0.979  0.8905  0.8301 -0.3045
 3900TIP3   OH211635   4.856   4.659   4.130 -0.3957 -0.5435 -0.0482
 3900TIP3    H111636   4.906   4.730   4.168  0.5951 -1.2973  0.0704
 3900TIP3    H211637   4.826   4.607   4.205 -1.2286 -0.1945 -0.1247
 3901TIP3   OH211638   6.881   3.981   2.004 -0.0305  0.1408 -0.4810
 3901TIP3    H111639   6.830   3.966   2.083 -1.1944 -0.8259 -1.3958
 3901TIP3    H211640   6.928   3.899   1.989 -2.1044 -0.7377 -2.4160
 3902TIP3   OH211641   4.970   3.720   0.673 -0.4102  0.0513  0.0235
 3902TIP3    H111642   5.039   3.690   0.732 -0.2460 -0.9262 -0.6533
 3902TIP3    H211643   4.905   3.649   0.676  0.4390 -0.8646 -2.3600
 3903TIP3   OH211644   4.709   3.844   2.118 -0.2850  0.1538 -0.0817
 3903TIP3    H111645   4.689   3.903   2.045 -0.8055 -0.5703 -0.5303
 3903TIP3    H211646   4.635   3.854   2.177 -0.5228 -0.2756 -0.3049
 3904TIP3   OH211647   3.770   3.148   3.467  0.0163 -0.6055  0.9057
 3904TIP3    H111648   3.779   3.065   3.514  0.7254 -0.2180  1.4549
 3904TIP3    H211649   3.853   3.193   3.481  0.3125 -0.5662 -0.8546
 3905TIP3   OH211650   5.182   3.937   3.384 -0.1432  0.0856  0.1647
 3905TIP3    H111651   5.190   3.945   3.479 -0.3195 -1.5030  0.3251
 3905TIP3    H211652   5.199   4.025   3.351  1.0904  0.4036  1.5866
 3906TIP3   OH211653   1.710   7.801   4.358  0.3620  0.0413 -0.0399
 3906TIP3    H111654   1.642   7.828   4.296  0.5639  0.2323 -0.1839
 3906TIP3    H211655   1.754   7.728   4.315 -0.5516 -0.8984  0.6004
 3907TIP3   OH211656   8.093   5.693   6.748  0.3949  0.0257  0.6439
 3907TIP3    H111657   8.101   5.666   6.839 -1.4429 -2.2559  0.1692
 3907TIP3    H211658   8.114   5.615   6.697 -0.5011  0.7340 -0.8625
 3908TIP3   OH211659   1.550   1.132   6.908  0.4885 -0.1870  0.0579
 3908TIP3    H111660   1.642   1.106   6.912  0.6293  0.5245  1.6061
 3908TIP3    H211661   1.509   1.066   6.851  1.4171 -2.0575  1.5147
 3909TIP3   OH211662   6.318   3.156   3.242  0.3840 -0.6050 -0.3117
 3909TIP3    H111663   6.239   3.191   3.200  0.0687  0.5199  1.1549
 3909TIP3    H211664   6.363   3.234   3.275  1.7574 -1.2995 -0.5499
 3910TIP3   OH211665   6.409   4.502   0.849  0.3574  0.3923  0.3595
 3910TIP3    H111666   6.319   4.523   0.874 -0.1858  0.0246 -1.1944
 3910TIP3    H211667   6.425   4.556   0.772  1.4478  0.4003  0.5915
 3911TIP3   OH211668   4.078   7.932   2.098  0.0194  0.6741  0.5052
 3911TIP3    H111669   4.137   7.984   2.043  0.8271  2.7977  3.2192
 3911TIP3    H211670   4.130   7.856   2.123 -0.0514  0.1446 -0.9310
 3912TIP3   OH211671   3.437   4.946   3.164 -0.5460 -0.0589 -0.1037
 3912TIP3    H111672   3.388   5.027   3.150 -1.3330 -0.3770  0.7207
 3912TIP3    H211673   3.438   4.903   3.079 -0.9571  0.3611 -0.3229
 3913TIP3   OH211674   5.047   4.999   2.328  0.1184 -0.2754  0.5080
 3913TIP3    H111675   5.014   5.043   2.406 -0.4980  1.0860 -0.4830
 3913TIP3    H211676   4.987   4.925   2.315 -0.5043  0.2080  0.6280
 3914TIP3   OH211677   7.057   3.798   2.351 -0.4233  0.0485  0.1737
 3914TIP3    H111678   7.115   3.768   2.421 -0.4095 -0.2378  0.0395
 3914TIP3    H211679   7.065   3.894   2.352  1.2907 -0.0652 -0.9139
 3915TIP3   OH211680   7.002   2.491   1.863  0.0550 -0.4665 -0.0607
 3915TIP3    H111681   6.952   2.524   1.789  0.8309  0.8466 -0.0103
 3915TIP3    H211682   7.088   2.532   1.855  0.1388 -0.2831  1.5750
 3916TIP3   OH211683   6.006   4.478   4.052  0.2189 -0.1248  0.1997
 3916TIP3    H111684   6.020   4.548   3.989 -2.0380  0.6080  0.4402
 3916TIP3    H211685   5.949   4.517   4.119  0.6679 -1.5640  1.4707
 3917TIP3   OH211686   4.483   4.700   2.523 -0.4471 -0.3978 -0.4977
 3917TIP3    H111687   4.442   4.775   2.566 -0.3052  0.6651 -2.1548
 3917TIP3    H211688   4.467   4.715   2.429  0.0687 -2.1555 -0.8893
 3918TIP3   OH211689   6.553   2.842   3.508 -0.0638  0.1364  0.1029
 3918TIP3    H111690   6.633   2.807   3.468  0.4768  1.0183  0.3985
 3918TIP3    H211691   6.543   2.794   3.590 -1.6094 -2.2472 -1.4148
 3919TIP3   OH211692   4.914   4.562   1.154 -0.5816  0.4090 -0.2611
 3919TIP3    H111693   4.835   4.546   1.101 -0.8324  1.3435 -0.1885
 3919TIP3    H211694   4.984   4.515   1.108 -0.9096  0.7424 -1.1222
 3920TIP3   OH211695   6.050   3.830   1.606  0.1636  0.0515  0.0370
 3920TIP3    H111696   6.075   3.742   1.576  1.0164 -0.1029  1.1599
 3920TIP3    H211697   5.961   3.842   1.575  0.5563 -0.6305 -1.4040
 3921TIP3   OH211698   5.907   5.685   3.438 -0.8219  0.0901  0.0016
 3921TIP3    H111699   5.911   5.616   3.504  0.5978 -0.2253 -0.3926
 3921TIP3    H211700   5.998   5.697   3.411 -0.7737  3.4931  1.4774
 3922TIP3   OH211701   7.140   6.253   2.746  0.5341  0.0923 -0.1824
 3922TIP3    H111702   7.058   6.226   2.788  0.0990 -1.5089 -1.9492
 3922TIP3    H211703   7.200   6.180   2.762  1.1116  0.5404 -0.2874
 3923TIP3   OH211704   3.916   2.195   0.638  0.2772 -0.1648 -0.2389
 3923TIP3    H111705   3.985   2.129   0.641  0.2150 -0.2561 -0.6556
 3923TIP3    H211706   3.944   2.263   0.698 -0.6205 -1.5003  1.7394
 3924TIP3   OH211707   4.940   4.269   2.486  0.1864 -0.0652  0.5104
 3924TIP3    H111708   4.951   4.354   2.529  2.1794  0.9153 -1.8335
 3924TIP3    H211709   4.993   4.275   2.407  1.0844 -3.8106  0.7239
 3925TIP3   OH211710   4.199   3.879   2.240 -0.0394 -0.1472  0.3491
 3925TIP3    H111711   4.280   3.857   2.286 -0.2679 -0.3139  0.6781
 3925TIP3    H211712   4.198   3.820   2.164  1.6984  2.0207 -1.4169
 3926TIP3   OH211713   5.370   5.160   3.587 -0.1962  0.4535  0.3810
 3926TIP3    H111714   5.359   5.242   3.636  0.6854  1.2410 -0.7207
 3926TIP3    H211715   5.464   5.152   3.574 -0.0732 -1.9245  2.4275
 3927TIP3   OH211716   4.809   3.715   3.657 -0.4963  0.4608  0.1422
 3927TIP3    H111717   4.829   3.806   3.676  0.0447  0.4284 -0.2623
 3927TIP3    H211718   4.893   3.676   3.632 -0.6552 -0.2328  0.6540
 3928TIP3   OH211719   5.876   2.699   3.396 -0.1866 -0.4155  0.0169
 3928TIP3    H111720   5.950   2.651   3.433 -0.8923 -1.8443 -0.3737
 3928TIP3    H211721   5.831   2.635   3.342 -2.7915 -0.1084  1.7261
 3929TIP3   OH211722   5.285   2.403   0.538 -0.5274  0.6861 -0.1446
 3929TIP3    H111723   5.376   2.420   0.561 -0.5288  0.9883 -0.3635
 3929TIP3    H211724   5.238   2.483   0.562 -0.5327  0.9975 -1.1803
 3930TIP3   OH211725   7.182   5.172   1.324  0.2582  0.4382 -0.4926
 3930TIP3    H111726   7.135   5.111   1.268 -0.0200 -1.7431  2.0139
 3930TIP3    H211727   7.273   5.167   1.295 -0.2962  1.3439 -2.4511
 3931TIP3   OH211728   5.635   3.259   2.197 -0.0275  0.0456  0.1391
 3931TIP3    H111729   5.644   3.212   2.114 -0.9455  2.3228 -1.2872
 3931TIP3    H211730   5.586   3.200   2.253 -0.0396 -1.2250 -1.1808
 3932TIP3   OH211731   6.807   3.449   1.294  0.1380 -0.5494 -0.3299
 3932TIP3    H111732   6.880   3.511   1.296  1.1751 -1.7387 -0.6678
 3932TIP3    H211733   6.790   3.428   1.385 -0.1876  0.1886 -0.2161
 3933TIP3   OH211734   6.028   5.122   3.407 -0.4619 -0.3490 -0.2930
 3933TIP3    H111735   5.956   5.119   3.470 -0.7946 -0.0985 -0.6558
 3933TIP3    H211736   6.083   5.047   3.429 -0.3109  0.0179  0.6097
 3934TIP3   OH211737   4.410   3.656   1.967 -0.6135  0.1573  0.4748
 3934TIP3    H111738   4.427   3.750   1.973 -0.9104  0.2055  0.5360
 3934TIP3    H211739   4.447   3.621   2.048  0.7473  0.0374 -0.1821
 3935TIP3   OH211740   6.540   4.891   1.970 -0.1431 -0.5019 -0.6067
 3935TIP3    H111741   6.635   4.888   1.958 -0.4478  0.0578 -3.8170
 3935TIP3    H211742   6.519   4.984   1.969 -0.8674 -0.6636 -1.6631
 3936TIP3   OH211743   5.926   4.293   0.708  0.1984  0.4065  0.6714
 3936TIP3    H111744   5.932   4.374   0.759 -1.2965  1.0433 -0.1249
 3936TIP3    H211745   5.919   4.323   0.617 -0.3437 -0.6155  0.3694
 3937TIP3   OH211746   3.608   4.543   3.938  0.6291  0.4599  0.0995
 3937TIP3    H111747   3.693   4.587   3.935  0.3822  0.9026 -0.4530
 3937TIP3    H211748   3.620   4.472   4.002  1.7545 -0.2104 -0.8272
 3938TIP3   OH211749   7.210   1.063   1.805  0.0915 -0.0452 -0.2336
 3938TIP3    H111750   7.302   1.089   1.818 -0.9914  2.8298  2.3807
 3938TIP3    H211751   7.171   1.136   1.757 -1.1562 -0.5095  0.0558
 3939TIP3   OH211752   3.809   4.064   2.754  0.1625 -0.2134  0.5329
 3939TIP3    H111753   3.799   4.145   2.804 -2.1886 -0.8356  1.1167
 3939TIP3    H211754   3.904   4.053   2.744  0.5623  1.3769  2.4479
 3940TIP3   OH211755   7.726   2.848   4.036 -0.1435  0.3063  0.0393
 3940TIP3    H111756   7.754   2.872   4.124 -0.6313  0.9294  0.0293
 3940TIP3    H211757   7.774   2.906   3.977 -0.8335  0.8256 -0.0226
 3941TIP3   OH211758   6.897   3.097   2.407  0.2344 -0.1800  0.1105
 3941TIP3    H111759   6.929   3.025   2.462  1.1651 -0.2055 -0.4603
 3941TIP3    H211760   6.812   3.119   2.445  1.0710  0.1246  1.8784
 3942TIP3   OH211761   5.204   4.038   4.165  0.0007 -0.1559  0.6070
 3942TIP3    H111762   5.284   3.990   4.143 -0.8425 -1.6176  0.6725
 3942TIP3    H211763   5.203   4.112   4.104  1.3595 -0.1420  0.5695
 3943TIP3   OH211764   5.597   4.618   0.138  0.1780  0.0681  0.0399
 3943TIP3    H111765   5.511   4.660   0.132  0.5712  1.0330  0.9096
 3943TIP3    H211766   5.600   4.585   0.228  0.9034  0.4514  0.1532
 3944TIP3   OH211767   5.616   3.214   3.699 -0.2074 -0.2933  0.5013
 3944TIP3    H111768   5.569   3.213   3.616  1.3398  0.9084 -0.3822
 3944TIP3    H211769   5.651   3.302   3.707  1.5032 -1.0236  1.3912
 3945TIP3   OH211770   5.016   3.487   2.854 -0.0955 -0.2746 -0.3775
 3945TIP3    H111771   4.923   3.503   2.843 -0.4251 -1.4293  0.6018
 3945TIP3    H211772   5.052   3.570   2.887 -0.8721 -0.0011 -0.2240
 3946TIP3   OH211773   6.077   5.529   4.086  0.1676  0.1720  0.2837
 3946TIP3    H111774   6.002   5.471   4.074 -0.7144  1.5168 -0.8265
 3946TIP3    H211775   6.073   5.554   4.178 -0.6559  0.1199  0.2635
 3947TIP3   OH211776   5.663   3.516   2.501  0.2603  0.1470 -0.0870
 3947TIP3    H111777   5.616   3.455   2.444 -1.5266  0.6693  0.8234
 3947TIP3    H211778   5.647   3.602   2.462  0.8506  0.2896 -0.0235
 3948TIP3   OH211779   5.820   3.243   3.136 -0.4140  0.0707  0.4870
 3948TIP3    H111780   5.888   3.176   3.135 -1.2019 -0.7712  1.9376
 3948TIP3    H211781   5.865   3.323   3.162 -0.3974 -1.0104  3.9895
 3949TIP3   OH211782   6.390   5.089   3.533  0.3138  0.4996  0.2327
 3949TIP3    H111783   6.369   5.011   3.481  1.1847 -1.3086  2.5213
 3949TIP3    H211784   6.331   5.084   3.609  3.0234 -0.0428  2.3695
 3950TIP3   OH211785   3.359   3.794   1.666  0.4607  0.0929 -0.2450
 3950TIP3    H111786   3.330   3.719   1.613  2.2550  0.0317 -1.1637
 3950TIP3    H211787   3.335   3.770   1.755 -1.0164 -0.5812 -0.8049
 3951TIP3   OH211788   5.163   2.568   1.087  0.1341 -0.6053  0.0141
 3951TIP3    H111789   5.112   2.489   1.069  0.1175 -0.6566  0.2807
 3951TIP3    H211790   5.254   2.539   1.087 -0.0112 -1.1619  2.8093
 3952TIP3   OH211791   2.165   5.483   3.392  0.2727 -0.4854 -0.1989
 3952TIP3    H111792   2.211   5.514   3.315 -1.3565  1.2837 -0.4836
 3952TIP3    H211793   2.228   5.493   3.463  1.8526 -2.3210 -1.2799
 3953TIP3   OH211794   3.650   4.813   3.718  0.0862  0.2566 -0.1125
 3953TIP3    H111795   3.704   4.796   3.640 -0.5987  1.5435 -0.8855
 3953TIP3    H211796   3.576   4.753   3.709  0.2454  0.0716 -0.2049
 3954TIP3   OH211797   6.799   4.714   0.838  0.4761 -0.2981  0.0127
 3954TIP3    H111798   6.834   4.802   0.848  1.1453 -0.1422 -3.1763
 3954TIP3    H211799   6.861   4.658   0.885  1.5212  0.6540 -0.1978
 3955TIP3   OH211800   5.676   5.010   3.071  0.3260  0.0035 -0.8207
 3955TIP3    H111801   5.636   5.072   3.132 -3.7590 -1.7624 -1.5486
 3955TIP3    H211802   5.703   4.937   3.127  0.5294  0.2269 -0.6214
 3956TIP3   OH211803   6.684   4.775   1.183  0.1848  0.3387  0.0716
 3956TIP3    H111804   6.766   4.763   1.231 -0.9148 -0.5901  1.7746
 3956TIP3    H211805   6.655   4.686   1.163  0.6263  0.7136 -2.3722
 3957TIP3   OH211806   5.362   5.014   3.038 -0.2483 -0.1404 -0.8812
 3957TIP3    H111807   5.395   4.925   3.050  0.5940  0.1864 -0.7066
 3957TIP3    H211808   5.365   5.052   3.125  1.9742  0.9203 -1.3908
 3958TIP3   OH211809   6.239   3.270   1.588  0.3255 -0.6824 -0.0509
 3958TIP3    H111810   6.282   3.244   1.669  0.3303  0.9577  0.4914
 3958TIP3    H211811   6.245   3.366   1.587  0.0304 -0.6666 -1.8221
 3959TIP3   OH211812   5.008   1.722   6.186  0.3094  0.1309 -0.3431
 3959TIP3    H111813   5.031   1.645   6.240  1.9206  0.9940  0.2408
 3959TIP3    H211814   4.923   1.750   6.220  0.2442 -0.7203  0.2144
 3960TIP3   OH211815   5.451   7.605   2.587 -1.3065  0.3222 -0.1416
 3960TIP3    H111816   5.507   7.680   2.607 -0.2515 -1.2133  2.7734
 3960TIP3    H211817   5.504   7.551   2.528 -0.2501 -0.4226  1.4700
 3961TIP3   OH211818   6.464   4.471   1.848 -0.0100 -0.7822 -0.0270
 3961TIP3    H111819   6.412   4.436   1.920 -0.0155  1.5612  1.1522
 3961TIP3    H211820   6.402   4.522   1.796  0.1958 -1.6760 -1.1764
 3962TIP3   OH211821   4.468   4.454   3.810  0.2571 -0.0880 -0.0313
 3962TIP3    H111822   4.500   4.434   3.898  0.4856 -0.6412 -0.2322
 3962TIP3    H211823   4.488   4.375   3.759  0.9449  0.5662 -0.7958
 3963TIP3   OH211824   5.800   2.897   3.890  0.2411 -0.5228 -0.4230
 3963TIP3    H111825   5.807   2.981   3.936  0.4179 -0.1205 -1.1739
 3963TIP3    H211826   5.843   2.834   3.948 -1.4566 -0.4286  0.9855
 3964TIP3   OH211827   4.244   3.189   3.775 -0.6673 -0.0391 -0.1954
 3964TIP3    H111828   4.259   3.236   3.693 -0.6885  1.3712  0.5860
 3964TIP3    H211829   4.166   3.136   3.759 -1.0256  0.6909 -0.8870
 3965TIP3   OH211830   6.386   5.188   2.636 -0.1576  0.1879 -0.2172
 3965TIP3    H111831   6.399   5.270   2.684  2.0807 -1.0760  1.4412
 3965TIP3    H211832   6.299   5.158   2.662  0.2891  0.4578  1.6245
 3966TIP3   OH211833   6.798   5.277   1.938  0.4642 -0.1119 -0.5052
 3966TIP3    H111834   6.870   5.339   1.951  0.7829 -0.0506 -2.3815
 3966TIP3    H211835   6.823   5.228   1.860 -2.0022  0.6073 -1.7932
 3967TIP3   OH211836   6.710   1.706   1.282  0.2135  0.7213  0.3921
 3967TIP3    H111837   6.656   1.713   1.203  0.6502  1.2212  0.1326
 3967TIP3    H211838   6.648   1.719   1.354 -0.4427 -1.2411  0.2008
 3968TIP3   OH211839   5.445   3.761   1.981 -0.6975 -0.2382 -0.0194
 3968TIP3    H111840   5.411   3.698   2.044 -0.8952 -0.0059  0.1097
 3968TIP3    H211841   5.457   3.842   2.031 -3.3243  0.7062 -0.8017
 3969TIP3   OH211842   7.041   5.224   3.171  0.0400 -0.3283  0.5690
 3969TIP3    H111843   6.976   5.163   3.206 -1.8372  0.3076 -1.6296
 3969TIP3    H211844   7.012   5.310   3.203 -0.9870  0.1043 -1.4049
 3970TIP3   OH211845   6.328   4.287   2.611  0.8682 -0.3048  0.0828
 3970TIP3    H111846   6.388   4.358   2.635  1.7761 -0.4302 -1.6663
 3970TIP3    H211847   6.384   4.225   2.564 -0.4339 -0.9417 -0.6264
 3971TIP3   OH211848   4.609   1.987   3.433 -0.2570 -0.2033 -0.2485
 3971TIP3    H111849   4.702   1.987   3.456 -0.1622 -0.1169 -0.6287
 3971TIP3    H211850   4.564   1.962   3.514 -0.0011  1.0311  0.2812
 3972TIP3   OH211851   7.271   2.534   1.783 -0.4613  0.0799  0.5740
 3972TIP3    H111852   7.362   2.557   1.803 -1.0639  0.8703  2.5232
 3972TIP3    H211853   7.256   2.572   1.696  0.8982  0.4179  0.4662
 3973TIP3   OH211854   0.872   0.749   6.930 -0.0063 -0.7124 -0.4620
 3973TIP3    H111855   0.825   0.678   6.973 -0.1406  1.1620  2.6385
 3973TIP3    H211856   0.805   0.816   6.914  0.6300 -0.1276 -0.7265
 3974TIP3   OH211857   6.640   3.187   2.482 -0.1444  0.1574 -0.2579
 3974TIP3    H111858   6.652   3.280   2.460 -0.7137  0.5696  1.0872
 3974TIP3    H211859   6.568   3.158   2.425 -0.3344  0.6964 -0.2977
 3975TIP3   OH211860   5.754   3.915   2.399 -0.4036  0.3962  0.1639
 3975TIP3    H111861   5.839   3.875   2.386 -0.1983  1.0260 -0.4809
 3975TIP3    H211862   5.765   4.006   2.370 -1.6203  0.1518 -1.1302
 3976TIP3   OH211863   8.152   4.929   2.784  0.4037 -0.0083  0.1624
 3976TIP3    H111864   8.185   4.998   2.843 -0.4441  0.3665  0.2117
 3976TIP3    H211865   8.078   4.970   2.740 -0.2059 -0.9593  0.3114
 3977TIP3   OH211866   2.808   0.307   6.934 -0.1329 -0.5210  0.6983
 3977TIP3    H111867   2.767   0.334   7.016 -2.5993 -0.5188 -0.4584
 3977TIP3    H211868   2.743   0.331   6.867  1.3684 -1.4771 -1.1336
 3978TIP3   OH211869   5.642   3.227   2.894  0.1270 -0.1349 -0.4918
 3978TIP3    H111870   5.595   3.217   2.977  0.3082  1.1345 -0.2207
 3978TIP3    H211871   5.724   3.179   2.907  0.0691 -0.1076 -0.0063
 3979TIP3   OH211872   5.333   4.314   1.564 -0.3733 -0.2703 -0.1995
 3979TIP3    H111873   5.368   4.389   1.611  1.7288 -1.5539  0.3692
 3979TIP3    H211874   5.379   4.313   1.480 -0.5678 -0.7824 -0.3091
 3980TIP3   OH211875   4.044   2.860   3.413  0.1211  0.2610 -0.1087
 3980TIP3    H111876   3.964   2.867   3.360  1.2176  0.2836 -1.7990
 3980TIP3    H211877   4.111   2.828   3.352  1.1733 -0.7468  1.5368
 3981TIP3   OH211878   5.638   5.113   5.140 -0.1825 -0.5091  0.1406
 3981TIP3    H111879   5.645   5.192   5.193 -1.3942 -0.9324  0.9349
 3981TIP3    H211880   5.631   5.145   5.050  0.4567  0.2472  0.3579
 3982TIP3   OH211881   5.667   3.454   3.330 -0.1412  0.9975  0.2403
 3982TIP3    H111882   5.669   3.368   3.373  2.6927  0.7081 -0.3650
 3982TIP3    H211883   5.574   3.476   3.324 -1.0837 -3.0637 -1.6571
 3983TIP3   OH211884   6.233   3.585   2.282  0.0364  0.5416 -0.0620
 3983TIP3    H111885   6.226   3.513   2.220 -1.2862  0.3731  0.2710
 3983TIP3    H211886   6.215   3.546   2.367 -2.1253  1.5194 -0.0399
 3984TIP3   OH211887   5.766   3.899   1.761 -0.5122 -0.1362  0.2690
 3984TIP3    H111888   5.793   3.849   1.684 -0.8861  0.4450 -0.2417
 3984TIP3    H211889   5.755   3.833   1.830 -0.4507 -0.6860 -0.2476
 3985TIP3   OH211890   7.837   2.310   4.145  0.3677 -0.6430  0.6208
 3985TIP3    H111891   7.853   2.216   4.133 -0.5133 -0.5610 -1.4333
 3985TIP3    H211892   7.799   2.338   4.062 -0.6453  1.2721  1.7078
 3986TIP3   OH211893   4.103   4.134   3.305 -0.9237 -0.1380  0.3648
 3986TIP3    H111894   4.105   4.097   3.393  0.1380 -0.6980  0.1185
 3986TIP3    H211895   4.192   4.121   3.272 -1.2553  0.2702 -0.7085
 3987TIP3   OH211896   5.685   4.535   1.781  0.1210 -0.2031  0.2377
 3987TIP3    H111897   5.673   4.616   1.830 -1.4758  0.4192 -1.0977
 3987TIP3    H211898   5.755   4.489   1.826  2.0232  2.5529  0.2069
 3988TIP3   OH211899   5.322   4.349   1.230  0.7784  0.4516  0.1395
 3988TIP3    H111900   5.234   4.374   1.200  0.3423 -0.5242  0.5633
 3988TIP3    H211901   5.320   4.253   1.230  1.8756  0.4235  0.0846
 3989TIP3   OH211902   7.507   5.365   2.302  0.2218  0.2264  0.0122
 3989TIP3    H111903   7.470   5.310   2.232 -0.1380 -1.1926  1.2920
 3989TIP3    H211904   7.435   5.422   2.328 -1.0795 -2.3299  2.2926
 3990TIP3   OH211905   5.573   5.685   2.453  0.2527 -0.3673 -0.1524
 3990TIP3    H111906   5.506   5.624   2.482  0.0321  0.4913  1.1677
 3990TIP3    H211907   5.656   5.645   2.480  0.1877 -0.7391 -0.5071
 3991TIP3   OH211908   5.604   3.831   3.893 -0.6126 -0.2517  0.4924
 3991TIP3    H111909   5.527   3.849   3.840 -0.3261  0.0484  0.1719
 3991TIP3    H211910   5.596   3.740   3.919 -1.6262  0.0730  1.3651
 3992TIP3   OH211911   4.722   4.317   1.930  0.5542  0.8955 -0.3519
 3992TIP3    H111912   4.787   4.263   1.976 -1.0763 -1.8053 -1.1402
 3992TIP3    H211913   4.746   4.310   1.838 -0.5888  0.2581 -0.5999
 3993TIP3   OH211914   7.071   5.449   1.440  0.4460  0.3634 -0.1248
 3993TIP3    H111915   7.125   5.370   1.448  0.5722  0.4840  0.2043
 3993TIP3    H211916   7.022   5.453   1.521 -2.0446 -1.2043 -1.4978
 3994TIP3   OH211917   6.670   4.233   3.720  0.2302  0.1710  0.0753
 3994TIP3    H111918   6.761   4.207   3.702  0.6903 -0.7068  3.2731
 3994TIP3    H211919   6.669   4.328   3.706  1.2296 -0.0479 -1.5686
 3995TIP3   OH211920   6.409   2.347   3.004  0.0377  0.6221  0.1745
 3995TIP3    H111921   6.342   2.415   3.007 -0.2789  0.2818  0.8613
 3995TIP3    H211922   6.472   2.378   2.938 -0.1539  1.5240  0.4082
 3996TIP3   OH211923   4.666   4.025   3.437 -0.1898 -0.5405  0.0087
 3996TIP3    H111924   4.725   4.053   3.367  1.1952 -1.4084  0.8019
 3996TIP3    H211925   4.706   4.060   3.517 -0.3133 -1.8115  0.6444
 3997TIP3   OH211926   6.536   5.727   6.916  0.0667 -0.7672 -0.4356
 3997TIP3    H111927   6.540   5.641   6.959  1.2965 -0.3807  0.2396
 3997TIP3    H211928   6.442   5.741   6.899 -0.3827 -1.2074  1.5747
 3998TIP3   OH211929   5.209   1.537   3.893  0.1607 -0.2494  0.7074
 3998TIP3    H111930   5.209   1.633   3.889 -0.6948 -0.3058 -1.2325
 3998TIP3    H211931   5.212   1.509   3.801  1.7844 -2.1009  1.2829
 3999TIP3   OH211932   6.439   2.476   3.318  0.3920 -0.1970  0.2432
 3999TIP3    H111933   6.362   2.488   3.263  1.1103 -0.4688 -0.8470
 3999TIP3    H211934   6.475   2.564   3.329  0.4285 -0.1815  0.0074
 4000TIP3   OH211935   5.450   3.525   3.043 -0.6502 -0.4376  0.1432
 4000TIP3    H111936   5.368   3.498   3.084 -0.5573  1.9311  2.0291
 4000TIP3    H211937   5.450   3.621   3.051  1.0950 -0.2142 -2.1536
 4001TIP3   OH211938   5.680   2.211   1.515 -0.1845  0.8812  0.4034
 4001TIP3    H111939   5.737   2.283   1.542  0.8580 -0.2561  1.3036
 4001TIP3    H211940   5.731   2.132   1.532 -2.3877 -0.2413  2.2578
 4002TIP3   OH211941   4.494   2.872   2.040  0.0562  0.0534  0.2819
 4002TIP3    H111942   4.489   2.811   1.967  2.1347 -0.1238  0.2403
 4002TIP3    H211943   4.522   2.954   2.000  2.9130 -0.4801  1.0246
 4003TIP3   OH211944   4.324   4.696   3.221 -0.0769 -0.0859  0.2714
 4003TIP3    H111945   4.272   4.669   3.145 -0.5452  0.3033  0.4494
 4003TIP3    H211946   4.306   4.629   3.288 -2.4537  1.4606  1.2426
 4004TIP3   OH211947   5.716   3.696   1.947 -0.0967 -0.6857  0.5811
 4004TIP3    H111948   5.738   3.617   1.995 -1.3368 -1.2396  0.2554
 4004TIP3    H211949   5.621   3.702   1.952 -0.1236  0.0380 -0.5651
 4005TIP3   OH211950   4.138   3.801   1.985 -0.1128 -0.2007  0.0340
 4005TIP3    H111951   4.218   3.764   1.948 -1.7013 -1.2564 -2.4420
 4005TIP3    H211952   4.148   3.895   1.977  1.2694 -0.2964  0.5804
 4006TIP3   OH211953   7.960   3.183   2.742 -0.0767 -0.7849 -0.4647
 4006TIP3    H111954   8.045   3.210   2.777 -0.9955  0.5028  0.8737
 4006TIP3    H211955   7.899   3.247   2.778 -1.3689 -0.5822 -2.9295
 4007TIP3   OH211956   6.715   4.660   2.482 -0.7344  0.1631  0.2991
 4007TIP3    H111957   6.767   4.699   2.412 -0.2380 -0.0191  0.5611
 4007TIP3    H211958   6.761   4.685   2.562 -0.4760 -0.8491  0.4765
 4008TIP3   OH211959   5.249   3.339   3.115 -0.2673  0.2121  0.1794
 4008TIP3    H111960   5.323   3.281   3.131 -0.1448  0.1122 -0.7443
 4008TIP3    H211961   5.230   3.330   3.022 -2.2834 -0.7380  0.6541
 4009TIP3   OH211962   6.005   2.099   2.667  0.3306  0.1402 -0.0147
 4009TIP3    H111963   6.050   2.014   2.661 -0.3633 -0.1831 -0.8952
 4009TIP3    H211964   5.968   2.101   2.755  0.0978 -0.6203 -0.0875
 4010TIP3   OH211965   6.862   2.148   3.310  0.4760  0.2343  0.4365
 4010TIP3    H111966   6.955   2.141   3.287  0.4904 -0.2442  0.6346
 4010TIP3    H211967   6.821   2.186   3.233  0.7181 -0.2220  0.0810
 4011TIP3   OH211968   5.741   5.537   3.002 -0.0970 -0.3852  0.1771
 4011TIP3    H111969   5.692   5.455   2.992 -0.4932 -0.2705  1.1414
 4011TIP3    H211970   5.814   5.514   3.059 -0.5795  0.0712  0.9935
 4012TIP3   OH211971   7.578   2.285   2.174 -0.8994 -0.5232  0.2303
 4012TIP3    H111972   7.487   2.309   2.188 -0.0753  1.8604  1.7097
 4012TIP3    H211973   7.623   2.307   2.256  1.4788  0.8878 -1.3655
 4013TIP3   OH211974   7.332   3.265   1.780  0.7115 -0.7621  0.3673
 4013TIP3    H111975   7.333   3.171   1.798  0.0882 -0.8307  0.0549
 4013TIP3    H211976   7.406   3.279   1.721 -0.0812 -1.2959 -0.7626
 4014TIP3   OH211977   5.768   5.380   3.395  0.0612 -0.0970 -0.0726
 4014TIP3    H111978   5.685   5.428   3.398 -0.0789 -0.3080 -0.4452
 4014TIP3    H211979   5.823   5.423   3.460  0.4797  1.5614 -1.4937
 4015TIP3   OH211980   7.968   5.275   1.272 -0.7513 -0.2017 -0.3290
 4015TIP3    H111981   8.054   5.240   1.298 -1.3015 -1.7054 -0.5171
 4015TIP3    H211982   7.932   5.210   1.213 -1.8269  0.6629 -0.6405
 4016TIP3   OH211983   7.482   6.912   0.421  0.8028  0.3587  0.1684
 4016TIP3    H111984   7.407   6.856   0.404  1.1067 -0.0910  0.2921
 4016TIP3    H211985   7.539   6.901   0.344  2.0299 -1.4339  1.2947
 4017TIP3   OH211986   5.148   2.157   0.552  0.1616  0.4645  0.4072
 4017TIP3    H111987   5.055   2.176   0.541 -0.0306  0.4364  1.8825
 4017TIP3    H211988   5.192   2.238   0.525 -0.2940  0.5207 -0.1680
 4018TIP3   OH211989   6.376   5.193   1.713  0.3740  0.1206  0.0492
 4018TIP3    H111990   6.434   5.186   1.789  0.0280  0.0102  0.3056
 4018TIP3    H211991   6.303   5.134   1.733  0.6835 -0.5509 -0.7368
 4019TIP3   OH211992   6.588   3.304   1.636  0.0133  0.5748 -0.2853
 4019TIP3    H111993   6.682   3.296   1.623  0.2411  2.3369  0.1158
 4019TIP3    H211994   6.579   3.374   1.701 -1.5622  0.2072 -0.0861
 4020TIP3   OH211995   3.783   2.318   6.386  0.7464  0.1391 -0.1493
 4020TIP3    H111996   3.692   2.342   6.402  0.4164 -1.3187  0.2434
 4020TIP3    H211997   3.786   2.298   6.293  0.6670  0.1759 -0.1597
 4021TIP3   OH211998   0.186   4.347   1.169  0.2105 -0.2731 -0.4390
 4021TIP3    H111999   0.103   4.317   1.205  0.4078 -0.8312 -0.4591
 4021TIP3    H212000   0.173   4.347   1.075  0.2847 -0.4905 -0.4473
 4022TIP3   OH212001   6.108   3.969   1.859 -0.2847  0.1609  0.2374
 4022TIP3    H112002   6.094   3.907   1.788  0.6066 -0.6261  0.7298
 4022TIP3    H212003   6.198   3.951   1.888 -0.6976  0.3800  1.6528
 4023TIP3   OH212004   7.112   4.654   0.678  0.6088 -0.4846 -0.0997
 4023TIP3    H112005   7.054   4.707   0.622 -1.9260 -1.9364  1.0770
 4023TIP3    H212006   7.183   4.714   0.701 -0.1048  1.1938 -2.0333
 4024TIP3   OH212007   7.552   2.721   2.390 -0.4542  0.1372 -0.1340
 4024TIP3    H112008   7.616   2.650   2.387  0.4250  0.8801  0.8407
 4024TIP3    H212009   7.470   2.680   2.359  0.1368 -1.1781 -0.0175
 4025TIP3   OH212010   8.232   3.520   1.613 -0.0534 -0.5327  0.2727
 4025TIP3    H112011   8.318   3.485   1.588 -0.6411 -2.1411  0.4815
 4025TIP3    H212012   8.238   3.536   1.707 -0.1980 -1.2971  0.4152
 4026TIP3   OH212013   7.304   2.865   3.220  0.1696 -0.3352 -0.2060
 4026TIP3    H112014   7.270   2.781   3.189  0.6773 -0.2666 -0.9659
 4026TIP3    H212015   7.315   2.917   3.140  1.1238 -0.0250  0.1199
 4027TIP3   OH212016   8.340   5.549   1.500  0.0172  0.1836 -0.6389
 4027TIP3    H112017   8.248   5.524   1.512  0.4240 -1.4081 -0.6911
 4027TIP3    H212018   8.372   5.489   1.433  1.0457  0.8509 -0.7481
 4028TIP3   OH212019   6.769   5.555   0.631  0.1973 -0.2898 -0.0737
 4028TIP3    H112020   6.805   5.474   0.667  1.9490  1.6490  2.7442
 4028TIP3    H212021   6.844   5.599   0.591 -0.2337  1.0651  0.5878
 4029TIP3   OH212022   7.463   4.709   2.511  0.0403  0.7571  0.5129
 4029TIP3    H112023   7.462   4.701   2.607 -2.1712 -1.1381  0.3847
 4029TIP3    H212024   7.517   4.635   2.482 -3.2413 -1.6008  0.1567
 4030TIP3   OH212025   1.448   5.369   3.738  0.3907 -0.2288  0.4554
 4030TIP3    H112026   1.504   5.298   3.705  2.0264  2.1260 -2.1057
 4030TIP3    H212027   1.379   5.377   3.672  1.8650  2.3771 -0.9082
 4031TIP3   OH212028   5.518   3.116   2.414 -0.0698  0.0491  0.5176
 4031TIP3    H112029   5.475   3.087   2.494  0.5788 -0.0977  0.8217
 4031TIP3    H212030   5.479   3.201   2.394 -1.0913 -0.4687  0.3179
 4032TIP3   OH212031   6.634   6.624   2.603  0.0944 -0.0140 -0.6177
 4032TIP3    H112032   6.569   6.644   2.670 -0.7635 -2.7233 -0.5472
 4032TIP3    H212033   6.672   6.708   2.579  0.3231  1.0163  3.1687
 4033TIP3   OH212034   7.374   5.551   1.876  0.5629 -0.6219  0.4135
 4033TIP3    H112035   7.406   5.613   1.810 -0.3551 -0.8771 -0.2869
 4033TIP3    H212036   7.401   5.589   1.960 -0.7172  1.1762  0.0391
 4034TIP3   OH212037   7.261   5.367   0.458  0.0916 -0.2789  0.2595
 4034TIP3    H112038   7.205   5.353   0.534  0.1568  0.7223  0.4935
 4034TIP3    H212039   7.273   5.280   0.420 -2.4825 -0.3942 -0.3834
 4035TIP3   OH212040   7.328   4.840   1.212  0.2827  0.3807 -0.2080
 4035TIP3    H112041   7.334   4.752   1.174  0.1368  0.2079  0.1729
 4035TIP3    H212042   7.253   4.880   1.169  1.2418  0.8538 -1.4882
 4036TIP3   OH212043   0.011   5.826   4.089 -0.1156 -0.0237  0.1522
 4036TIP3    H112044   0.106   5.837   4.089 -0.1778  0.4887  0.5290
 4036TIP3    H212045  -0.022   5.900   4.039 -0.4584  0.9820  1.8360
 4037TIP3   OH212046   8.040   5.372   1.001 -0.5933  0.5024  0.3151
 4037TIP3    H112047   8.117   5.316   0.992 -0.1630  1.1321  0.0567
 4037TIP3    H212048   7.993   5.336   1.077  0.5234  0.7846  1.1403
 4038TIP3   OH212049   8.447   4.116   0.984 -0.0667  0.2010 -0.6048
 4038TIP3    H112050   8.513   4.048   0.971  1.2315  1.2191  0.4299
 4038TIP3    H212051   8.452   4.136   1.077 -1.3233  0.8071 -0.6666
 4039TIP3   OH212052   7.152   3.450   2.364 -0.5763  0.7107  0.0035
 4039TIP3    H112053   7.207   3.510   2.314  0.3027  0.8190  1.0760
 4039TIP3    H212054   7.202   3.368   2.366 -0.9219  0.4998  0.1265
 4040TIP3   OH212055   8.277   4.152   2.507 -0.2243 -0.3208 -0.4190
 4040TIP3    H112056   8.322   4.124   2.427  1.1020 -1.6432  0.7704
 4040TIP3    H212057   8.209   4.212   2.476  1.1340  0.2363 -2.4294
 4041TIP3   OH212058   3.959   1.781   4.849 -0.6040  0.3352 -0.3329
 4041TIP3    H112059   3.984   1.738   4.767 -1.7717  1.0761 -1.0896
 4041TIP3    H212060   3.873   1.818   4.831 -1.2573 -0.2311  1.5091
 4042TIP3   OH212061   5.611   5.037   1.603  0.0084  0.0649 -0.0900
 4042TIP3    H112062   5.558   5.029   1.682  0.4263  1.1836  0.3043
 4042TIP3    H212063   5.563   4.986   1.537 -1.4752  0.9154  0.3031
 4043TIP3   OH212064   1.238   4.014   1.374  0.1566 -0.1715 -0.1512
 4043TIP3    H112065   1.296   4.046   1.443  0.5541 -1.1943 -0.0126
 4043TIP3    H212066   1.244   4.081   1.305  0.9546  0.0661  0.1460
 4044TIP3   OH212067   6.716   3.363   3.249 -0.6635  0.5285 -0.2867
 4044TIP3    H112068   6.722   3.390   3.340  1.6124  1.0670 -0.5791
 4044TIP3    H212069   6.655   3.426   3.209  0.3996  1.9171  0.2563
 4045TIP3   OH212070   0.400   4.253   1.588 -0.5031 -0.5069  0.1867
 4045TIP3    H112071   0.444   4.200   1.655 -0.0850 -0.0975  0.2382
 4045TIP3    H212072   0.390   4.339   1.628  1.5082  0.3004 -0.9752
 4046TIP3   OH212073   0.612   3.792   0.434  0.6764  0.3042 -0.0632
 4046TIP3    H112074   0.692   3.787   0.381  2.2371 -0.9097  2.3094
 4046TIP3    H212075   0.609   3.883   0.463  0.6851  0.5809 -0.9059
 4047TIP3   OH212076   7.525   4.180   4.358 -0.1474  0.1049 -0.1901
 4047TIP3    H112077   7.525   4.087   4.333 -1.0738  0.3704 -1.2098
 4047TIP3    H212078   7.582   4.222   4.294  1.9167 -0.0517  1.4860
 4048TIP3   OH212079   6.218   5.939   0.172  0.0880  0.4882 -0.1279
 4048TIP3    H112080   6.258   5.909   0.254 -0.6241  1.9095  0.7614
 4048TIP3    H212081   6.235   5.868   0.110  0.9857 -0.4372  1.1387
 4049TIP3   OH212082   5.890   4.764   2.843  0.0273  0.0785 -0.3602
 4049TIP3    H112083   5.920   4.752   2.753  0.9008  1.9138 -0.3415
 4049TIP3    H212084   5.971   4.775   2.894 -0.4994  0.0988  0.4770
 4050TIP3   OH212085   5.370   3.531   1.149  0.1414  1.0271 -1.1172
 4050TIP3    H112086   5.408   3.496   1.068 -0.0621  1.6890 -1.5049
 4050TIP3    H212087   5.281   3.495   1.150  1.3023 -1.9763  0.6989
 4051TIP3   OH212088   4.766   4.820   1.432  0.4244 -0.7980 -0.9013
 4051TIP3    H112089   4.753   4.802   1.339  1.0578  0.7228 -1.2975
 4051TIP3    H212090   4.813   4.903   1.434 -0.4178 -0.3376  0.8047
 4052TIP3   OH212091   4.071   5.754   3.221  0.0479  0.7161 -0.1589
 4052TIP3    H112092   4.024   5.697   3.159 -1.1060 -0.1764  1.4905
 4052TIP3    H212093   4.100   5.828   3.168  2.2425 -1.7272 -2.5385
 4053TIP3   OH212094   7.502   3.069   2.204  0.0388  0.0041 -0.5923
 4053TIP3    H112095   7.587   3.023   2.206  0.7219  1.3147  0.9053
 4053TIP3    H212096   7.506   3.121   2.124  0.9752  0.6590 -0.1302
 4054TIP3   OH212097   1.430   0.120   0.237  0.6899  0.3422 -0.0294
 4054TIP3    H112098   1.504   0.121   0.298  0.8070 -1.4845 -0.1070
 4054TIP3    H212099   1.356   0.090   0.290  0.1296  1.5592 -0.1058
 4055TIP3   OH212100   4.769   4.195   0.730 -0.3192  0.7898 -0.6342
 4055TIP3    H112101   4.852   4.225   0.767  0.2123 -1.4804  0.0700
 4055TIP3    H212102   4.724   4.154   0.803 -0.1981 -1.8054 -1.9681
 4056TIP3   OH212103   3.837   0.144   5.345  0.8133 -0.4557  0.1128
 4056TIP3    H112104   3.759   0.200   5.342  1.7725  0.9055  0.1479
 4056TIP3    H212105   3.813   0.067   5.295 -0.6996 -0.2274  0.4566
 4057TIP3   OH212106   5.999   4.218   2.437  0.6753 -0.2799  0.3254
 4057TIP3    H112107   5.957   4.169   2.367  1.0707  0.2605 -0.3027
 4057TIP3    H212108   6.020   4.153   2.504  0.4438 -0.8258 -0.1328
 4058TIP3   OH212109   6.372   4.098   1.963  0.2511  0.0068  0.0550
 4058TIP3    H112110   6.369   4.136   1.875  1.6074  0.1254  0.0567
 4058TIP3    H212111   6.286   4.119   2.001  1.0985  3.5041  0.2194
 4059TIP3   OH212112   0.260   2.279   0.099  0.3613  0.1388 -0.4136
 4059TIP3    H112113   0.343   2.289   0.145  0.7730  0.5261 -1.2316
 4059TIP3    H212114   0.258   2.187   0.074 -0.1295 -0.2141  0.8600
 4060TIP3   OH212115   1.114   3.268   2.435 -0.1928  0.0500  0.0198
 4060TIP3    H112116   1.029   3.276   2.391 -0.1787 -0.4667 -0.1040
 4060TIP3    H212117   1.128   3.173   2.443  0.3234  0.1343  0.1313
 4061TIP3   OH212118   6.512   2.831   0.514 -0.2524 -0.1002 -0.1189
 4061TIP3    H112119   6.565   2.885   0.573 -0.9993  0.5065  0.0140
 4061TIP3    H212120   6.455   2.894   0.470 -1.4721 -0.8283  0.3916
 4062TIP3   OH212121   7.458   3.088   2.746 -0.4606 -0.3252 -0.2227
 4062TIP3    H112122   7.474   3.179   2.720  1.0136 -0.6453 -0.4953
 4062TIP3    H212123   7.465   3.038   2.665  0.4543 -0.8820  0.1930
 4063TIP3   OH212124   7.685   2.704   0.260  0.1667  0.3238 -0.3502
 4063TIP3    H112125   7.601   2.658   0.264  0.7510 -0.5989  3.0976
 4063TIP3    H212126   7.748   2.638   0.231 -0.0255  0.5870 -1.3684
 4064TIP3   OH212127   7.199   4.403   1.441  0.9756  0.2086 -0.5450
 4064TIP3    H112128   7.161   4.376   1.524 -1.1195  0.9072 -1.2527
 4064TIP3    H212129   7.255   4.478   1.464  1.8367 -0.7198  0.4681
 4065TIP3   OH212130   0.147   4.369   2.167 -0.5452 -0.0483  0.0256
 4065TIP3    H112131   0.220   4.396   2.112 -0.7831  0.5137 -0.0222
 4065TIP3    H212132   0.115   4.451   2.205 -1.6077 -0.1934 -0.5316
 4066TIP3   OH212133   6.766   5.278   2.498 -0.4364 -0.4089 -0.2212
 4066TIP3    H112134   6.681   5.254   2.462 -1.0364  1.4291 -0.0728
 4066TIP3    H212135   6.754   5.367   2.530  1.1144 -0.6906  1.2124
 4067TIP3   OH212136   7.572   2.930   1.839  0.3458  0.2952  0.2334
 4067TIP3    H112137   7.553   2.837   1.847  0.3758  0.4598  2.4897
 4067TIP3    H212138   7.486   2.971   1.827  0.4337 -0.1106 -1.9576
 4068TIP3   OH212139   3.168   1.552   5.415 -0.5153  0.3953 -0.1274
 4068TIP3    H112140   3.094   1.605   5.385 -0.3782  0.2308 -0.7697
 4068TIP3    H212141   3.219   1.536   5.336  0.0636  0.2795  0.2689
 4069TIP3   OH212142   5.409   2.024   0.304  0.1601  0.0720 -0.2679
 4069TIP3    H112143   5.440   1.944   0.263  1.2427 -0.3395  1.3123
 4069TIP3    H212144   5.476   2.089   0.283  0.4549 -0.0129  0.4122
 4070TIP3   OH212145   6.353   2.877   2.043 -0.1980  0.3976 -0.6298
 4070TIP3    H112146   6.334   2.904   2.133  0.5469 -1.7395  0.1995
 4070TIP3    H212147   6.431   2.926   2.019  0.1790  0.2360  0.2558
 4071TIP3   OH212148   0.404   4.492   1.725  0.2953 -0.3286 -0.5894
 4071TIP3    H112149   0.363   4.549   1.660  0.0320  0.4559  0.2532
 4071TIP3    H212150   0.399   4.541   1.807  1.4433 -0.9185 -0.1515
 4072TIP3   OH212151   1.108   4.155   1.771 -0.7949 -0.0466 -0.1135
 4072TIP3    H112152   1.085   4.229   1.714 -0.1134 -0.5619 -1.0691
 4072TIP3    H212153   1.158   4.195   1.842  3.5446 -0.1028 -2.9731
 4073TIP3   OH212154   6.791   2.265   3.063 -0.4203  0.1600 -0.0079
 4073TIP3    H112155   6.740   2.215   2.998  0.0758 -0.9868  0.4880
 4073TIP3    H212156   6.849   2.320   3.010 -0.1419 -0.6420 -0.5398
 4074TIP3   OH212157   7.984   5.444   0.724 -0.7417  0.1250  0.1769
 4074TIP3    H112158   7.990   5.538   0.743 -2.6117  0.5295 -1.0922
 4074TIP3    H212159   8.039   5.403   0.790 -0.9950  2.0186  1.6127
 4075TIP3   OH212160   7.610   4.567   0.490  0.1665 -0.0350 -0.3551
 4075TIP3    H112161   7.521   4.560   0.455 -1.2658  1.4376  2.7681
 4075TIP3    H212162   7.626   4.662   0.495  0.4696 -0.1876  2.4345
 4076TIP3   OH212163   5.450   3.689   2.740 -0.2624  0.0847 -0.0379
 4076TIP3    H112164   5.418   3.599   2.743  0.3503 -0.0904  1.3491
 4076TIP3    H212165   5.518   3.688   2.672 -0.4474 -0.4419 -0.2146
 4077TIP3   OH212166   4.096   1.554   6.726  0.9599  0.4073  0.2600
 4077TIP3    H112167   4.085   1.590   6.638  0.4251  0.0261  0.1667
 4077TIP3    H212168   4.122   1.463   6.711 -0.2729  0.0090  0.4911
 4078TIP3   OH212169   0.706   2.833   3.298 -0.1496  0.0988 -0.1387
 4078TIP3    H112170   0.658   2.788   3.229 -0.1729  0.9125 -0.6572
 4078TIP3    H212171   0.730   2.917   3.260 -0.7210  0.8162  1.0664
 4079TIP3   OH212172   6.330   4.468   1.580 -0.4345 -0.0175  0.3063
 4079TIP3    H112173   6.381   4.533   1.531 -0.6883  1.2565  1.7225
 4079TIP3    H212174   6.350   4.385   1.536 -0.3872  1.0455 -1.7414
 4080TIP3   OH212175   4.824   2.221   1.078  0.1697 -0.4490 -0.5211
 4080TIP3    H112176   4.735   2.251   1.058  0.0880 -0.7949 -0.6831
 4080TIP3    H212177   4.831   2.137   1.032 -0.5702 -2.0511  2.1715
 4081TIP3   OH212178   7.792   4.336   0.341  0.2170  0.5511  0.2426
 4081TIP3    H112179   7.741   4.389   0.403  0.8570  0.9997  0.3857
 4081TIP3    H212180   7.866   4.304   0.392 -0.5839 -1.1709  0.3808
 4082TIP3   OH212181   5.848   5.847   1.279  0.3927 -0.5562  0.9974
 4082TIP3    H112182   5.903   5.780   1.318 -0.1116 -0.7157  1.4307
 4082TIP3    H212183   5.865   5.925   1.332  2.1937  0.1070 -0.4717
 4083TIP3   OH212184   7.043   3.185   1.744  0.1076 -0.0782  0.3679
 4083TIP3    H112185   7.040   3.162   1.651  1.8210 -0.7971  0.4726
 4083TIP3    H212186   7.137   3.186   1.765 -0.2712  0.0781  2.0833
 4084TIP3   OH212187   7.094   2.927   0.549  0.0420  0.0531 -0.0959
 4084TIP3    H112188   7.052   2.956   0.630  0.2114 -0.1450  0.0665
 4084TIP3    H212189   7.152   2.856   0.577  0.7758  0.5794 -0.2557
 4085TIP3   OH212190   0.702   3.493   2.820 -0.7868 -0.1192 -0.2076
 4085TIP3    H112191   0.675   3.504   2.728 -0.1535  0.0514 -0.3783
 4085TIP3    H212192   0.655   3.416   2.850 -0.4607 -0.5891 -0.8926
 4086TIP3   OH212193   6.842   5.141   0.610  0.4143 -0.7655  0.7670
 4086TIP3    H112194   6.838   5.216   0.668 -0.1763 -0.8309  0.8099
 4086TIP3    H212195   6.902   5.168   0.540  1.9568 -1.0608  1.9308
 4087TIP3   OH212196   6.735   3.316   2.113  0.6665 -1.1460 -0.1479
 4087TIP3    H112197   6.746   3.236   2.062  0.3945 -0.7677 -0.8108
 4087TIP3    H212198   6.803   3.311   2.180  0.4411 -2.0836  0.0141
 4088TIP3   OH212199   3.878   0.691   6.544  0.4895  0.4358  0.1657
 4088TIP3    H112200   3.863   0.738   6.626  0.9050  1.7201 -0.4809
 4088TIP3    H212201   3.868   0.757   6.476 -1.9515 -1.0346 -0.9827
 4089TIP3   OH212202   5.488   2.980   4.812  0.4090  0.6198 -0.0984
 4089TIP3    H112203   5.444   2.901   4.779  1.8866 -1.3801  2.4527
 4089TIP3    H212204   5.535   3.015   4.737  1.1440 -1.9860 -0.9148
 4090TIP3   OH212205   5.460   4.616   2.360  0.1792 -0.5801  0.5821
 4090TIP3    H112206   5.378   4.618   2.410  0.4502 -0.9308  1.0464
 4090TIP3    H212207   5.520   4.670   2.412  0.6731 -1.5362  1.0105
 4091TIP3   OH212208   7.670   5.640   3.051 -0.6040 -0.0196 -0.4788
 4091TIP3    H112209   7.627   5.555   3.066 -0.9333  0.2051 -0.1468
 4091TIP3    H212210   7.747   5.618   2.999 -1.5163 -0.3458 -1.7450
 4092TIP3   OH212211   0.063   5.683   1.540 -0.3872 -0.2048  0.3145
 4092TIP3    H112212   0.140   5.628   1.530 -0.5336 -0.0446 -1.8650
 4092TIP3    H212213  -0.011   5.623   1.538 -0.3779 -0.2912  1.7683
 4093TIP3   OH212214   6.674   4.130   0.032 -0.3560 -0.1960 -0.6864
 4093TIP3    H112215   6.734   4.204   0.045 -0.3540 -0.1890 -0.7346
 4093TIP3    H212216   6.647   4.105   0.120 -0.1211 -0.3321 -0.6543
 4094TIP3   OH212217   1.212   0.549   6.825 -0.2507 -0.3561 -0.4865
 4094TIP3    H112218   1.199   0.576   6.734 -0.4187 -0.4017 -0.4770
 4094TIP3    H212219   1.305   0.529   6.831 -0.0966  0.3644 -0.4511
 4095TIP3   OH212220   5.957   6.996   2.726  0.0447 -0.3409 -0.1931
 4095TIP3    H112221   6.019   7.044   2.671  1.1437 -2.2880 -0.7239
 4095TIP3    H212222   5.951   7.046   2.806 -0.1514  1.5703 -1.3791
 4096TIP3   OH212223   5.013   4.686   1.377 -0.0532 -0.0045 -0.3494
 4096TIP3    H112224   5.033   4.603   1.420  1.3513 -0.5521 -1.9814
 4096TIP3    H212225   4.979   4.660   1.291 -0.6343  1.0960 -0.4564
 4097TIP3   OH212226   6.450   5.309   0.769  0.2962 -0.3182 -0.3915
 4097TIP3    H112227   6.497   5.354   0.839 -1.2745  0.1736  0.3558
 4097TIP3    H212228   6.440   5.219   0.802 -1.9157  0.3253  0.7757
 4098TIP3   OH212229   6.039   5.368   1.156  0.2554  0.1943  0.6707
 4098TIP3    H112230   6.101   5.306   1.117 -1.2270  0.1130 -1.6607
 4098TIP3    H212231   5.975   5.312   1.201  1.8744  0.2816  3.1736
 4099TIP3   OH212232   3.227   0.492   6.629 -0.5217  0.2783  0.0518
 4099TIP3    H112233   3.187   0.431   6.691 -1.2607 -0.1453 -0.8302
 4099TIP3    H212234   3.319   0.467   6.627 -0.9587 -1.3424 -0.8914
 4100TIP3   OH212235   6.089   4.507   1.743 -0.4049  0.4423 -0.2811
 4100TIP3    H112236   6.159   4.469   1.689 -1.5704 -0.1712 -1.3840
 4100TIP3    H212237   6.008   4.479   1.701 -1.3699 -0.5356  2.0920
 4101TIP3   OH212238   7.684   2.394   6.495 -0.2804 -0.3308  0.6531
 4101TIP3    H112239   7.713   2.409   6.405 -1.0124 -0.5674  0.3747
 4101TIP3    H212240   7.678   2.299   6.504 -1.2529 -0.2802  0.6091
 4102TIP3   OH212241   4.895   5.731   3.478 -0.2920 -0.0595  0.2847
 4102TIP3    H112242   4.945   5.650   3.473  1.3929  0.9122  0.9295
 4102TIP3    H212243   4.804   5.703   3.489  0.0282 -1.8597 -1.3851
 4103TIP3   OH212244   5.684   4.225   2.088  0.2663 -0.4178  0.3692
 4103TIP3    H112245   5.613   4.263   2.140 -0.4231  0.0306 -0.8910
 4103TIP3    H212246   5.639   4.173   2.021  1.1517 -0.7035 -0.0033
 4104TIP3   OH212247   5.636   3.165   0.864  0.2477  0.4389  0.0821
 4104TIP3    H112248   5.560   3.111   0.844 -0.1497  0.5831  1.2008
 4104TIP3    H212249   5.695   3.150   0.790 -0.5880 -0.1671 -0.4801
 4105TIP3   OH212250   2.875   5.366   1.747 -0.0585  0.4964 -0.0326
 4105TIP3    H112251   2.958   5.382   1.702 -0.4051  0.9831 -0.5076
 4105TIP3    H212252   2.822   5.319   1.683 -1.1972  2.7675 -0.7808
 4106TIP3   OH212253   5.948   3.493   0.742 -0.1394  0.0181  0.2066
 4106TIP3    H112254   6.024   3.455   0.787  1.3976  2.1213 -0.5307
 4106TIP3    H212255   5.914   3.421   0.688  2.7547 -0.3384 -1.2384
 4107TIP3   OH212256   0.598   5.440   6.556  0.4539  0.6923 -0.2616
 4107TIP3    H112257   0.519   5.491   6.539  1.0543  1.4414 -0.8499
 4107TIP3    H212258   0.571   5.375   6.621 -0.2494  1.9917  0.7886
 4108TIP3   OH212259   1.738   6.495   6.114  0.1900 -0.2024 -0.5682
 4108TIP3    H112260   1.798   6.442   6.061 -0.4567 -0.5735 -0.9403
 4108TIP3    H212261   1.653   6.450   6.105 -0.3695  0.9139 -0.9278
 4109TIP3   OH212262   7.765   3.692   1.054 -0.0688 -0.7099 -0.2600
 4109TIP3    H112263   7.738   3.768   1.107  0.5517 -1.4140  1.0942
 4109TIP3    H212264   7.858   3.684   1.071  0.2513 -0.6231 -1.9218
 4110TIP3   OH212265   6.726   5.408   1.334 -0.4404 -0.5955 -0.5269
 4110TIP3    H112266   6.787   5.336   1.341  0.0131 -0.2145 -0.5427
 4110TIP3    H212267   6.781   5.486   1.325 -0.9238 -0.3864 -1.8711
 4111TIP3   OH212268   0.487   3.799   1.705 -0.1073  0.0480  0.0916
 4111TIP3    H112269   0.453   3.770   1.620  2.1651  2.3388 -1.6683
 4111TIP3    H212270   0.564   3.744   1.721 -0.8299 -0.7304  0.9332
 4112TIP3   OH212271   3.626   5.214   0.290  0.0830 -0.1796 -0.1657
 4112TIP3    H112272   3.625   5.223   0.385  0.2225 -0.1716 -0.1646
 4112TIP3    H212273   3.576   5.289   0.258 -0.9712 -0.8174 -0.0531
 4113TIP3   OH212274   5.165   4.076   2.288 -0.0001 -0.5443 -0.4295
 4113TIP3    H112275   5.141   4.169   2.289 -0.9594 -0.7895 -0.2306
 4113TIP3    H212276   5.094   4.034   2.241  1.3220 -0.9470 -2.1181
 4114TIP3   OH212277   7.936   4.200   0.748 -0.0035 -0.0984 -0.5016
 4114TIP3    H112278   7.983   4.130   0.702  0.3770  0.5368 -1.0982
 4114TIP3    H212279   7.895   4.250   0.678 -1.1474 -0.3479 -0.0088
 4115TIP3   OH212280   5.896   3.360   1.087 -0.2162 -0.7205  0.7663
 4115TIP3    H112281   5.963   3.367   1.019 -0.6747 -0.7088  0.3166
 4115TIP3    H212282   5.924   3.285   1.140 -0.7105 -1.7161 -0.3723
 4116TIP3   OH212283   0.988   6.003   6.784  0.4517 -0.2209 -0.2146
 4116TIP3    H112284   1.072   5.962   6.764 -0.3693 -1.2229 -1.7340
 4116TIP3    H212285   0.923   5.935   6.768 -0.7193  0.7957  0.0806
 4117TIP3   OH212286   0.854   5.026   1.932  0.5235 -0.2464  0.5368
 4117TIP3    H112287   0.819   4.962   1.870  0.8890 -0.8547  0.9554
 4117TIP3    H212288   0.945   5.000   1.945  0.9037  0.8277  0.1111
 4118TIP3   OH212289   8.180   3.414   0.837 -0.2285  0.8549 -0.1982
 4118TIP3    H112290   8.128   3.469   0.896 -1.7946 -2.3007  1.4928
 4118TIP3    H212291   8.213   3.344   0.893  2.8019  0.7252 -2.0408
 4119TIP3   OH212292   6.623   5.465   1.093 -0.3339  0.1927 -0.4884
 4119TIP3    H112293   6.635   5.432   1.182 -1.7286 -2.0492 -1.0940
 4119TIP3    H212294   6.556   5.534   1.102 -1.9688 -1.4008 -0.0482
 4120TIP3   OH212295   6.957   4.563   0.989  0.0748 -0.4503 -0.5746
 4120TIP3    H112296   6.978   4.491   0.929 -2.2271 -1.7940  0.1560
 4120TIP3    H212297   6.977   4.529   1.076  0.3353  0.3125 -0.3355
 4121TIP3   OH212298   2.493   3.699   3.055 -0.3946  0.0107  0.2252
 4121TIP3    H112299   2.461   3.701   3.145  1.7281  3.0297  0.9974
 4121TIP3    H212300   2.573   3.646   3.059 -0.1642  0.3555  0.1542
 4122TIP3   OH212301   5.948   5.635   0.250 -0.2952  0.5196 -0.2128
 4122TIP3    H112302   5.941   5.718   0.298 -0.5255 -1.0258  2.5723
 4122TIP3    H212303   5.871   5.585   0.277 -1.1515  0.0567 -3.2945
 4123TIP3   OH212304   7.293   5.999   0.800  0.3095 -0.0019 -0.0916
 4123TIP3    H112305   7.297   6.095   0.796  0.0423 -0.0727 -3.0241
 4123TIP3    H212306   7.210   5.980   0.845 -0.8827  1.1472 -1.7587
 4124TIP3   OH212307   6.915   4.606   1.598  0.6266 -0.0982 -0.3220
 4124TIP3    H112308   6.829   4.596   1.639  0.5813  1.5876  0.0437
 4124TIP3    H212309   6.962   4.527   1.623 -0.9249 -1.2085 -0.8088
 4125TIP3   OH212310   6.710   5.869   0.592  0.0990  0.3960 -0.2546
 4125TIP3    H112311   6.785   5.810   0.581 -0.9325 -0.4737 -2.9789
 4125TIP3    H212312   6.656   5.827   0.659 -0.1217 -1.2344 -1.4456
 4126TIP3   OH212313   0.396   8.004   4.657 -0.1791  0.1296 -0.1076
 4126TIP3    H112314   0.485   8.033   4.635  0.5105 -0.8491  1.3186
 4126TIP3    H212315   0.409   7.926   4.712 -1.9304 -0.2949 -0.2671
 4127TIP3   OH212316   8.070   3.453   0.059  0.1006 -0.4502  0.1546
 4127TIP3    H112317   8.087   3.459  -0.035 -0.1720  1.4624  0.2039
 4127TIP3    H212318   8.043   3.362   0.073  1.5580 -1.1463 -1.3614
 4128TIP3   OH212319   7.362   3.330   2.605 -0.1790 -0.0652 -0.1823
 4128TIP3    H112320   7.312   3.266   2.554 -1.4663  0.5893  0.2344
 4128TIP3    H212321   7.296   3.389   2.641  0.7197 -0.2762  1.9335
 4129TIP3   OH212322   6.007   4.495   0.243  0.0209  0.1560 -0.4734
 4129TIP3    H112323   6.093   4.498   0.200  1.6770  0.5732  2.7205
 4129TIP3    H212324   5.958   4.566   0.202  1.5736  0.5855 -1.6519
 4130TIP3   OH212325   7.504   2.471   1.472  0.5000 -0.8217  0.7836
 4130TIP3    H112326   7.592   2.459   1.439 -0.6744 -1.6849 -2.1616
 4130TIP3    H212327   7.481   2.385   1.509  0.2612 -1.1119 -0.0342
 4131TIP3   OH212328   4.368   0.797   4.288  0.1502 -0.1455 -0.3730
 4131TIP3    H112329   4.421   0.877   4.289 -0.9934  0.6330  0.9559
 4131TIP3    H212330   4.284   0.825   4.250 -0.7313 -0.3645  1.3422
 4132TIP3   OH212331   4.512   4.560   2.882 -0.0039 -0.1288 -0.0314
 4132TIP3    H112332   4.428   4.521   2.906 -0.0490  0.3221  0.5386
 4132TIP3    H212333   4.511   4.561   2.786  0.3356 -2.2653 -0.0898
 4133TIP3   OH212334   0.065   4.656   3.906  0.1214 -0.2305  0.2507
 4133TIP3    H112335   0.161   4.659   3.899  0.0398  1.1978 -0.4255
 4133TIP3    H212336   0.035   4.653   3.815 -0.4979  0.4518  0.4268
 4134TIP3   OH212337   8.000   5.298   3.379 -0.6641  0.1245  0.4736
 4134TIP3    H112338   8.090   5.279   3.404 -0.3333  1.5823  0.4758
 4134TIP3    H212339   8.008   5.362   3.307 -1.6509 -1.7934 -1.3927
 4135TIP3   OH212340   8.469   4.327   1.626  0.1095 -0.1178 -0.1370
 4135TIP3    H112341   8.520   4.275   1.564 -0.2777  0.4795 -0.9631
 4135TIP3    H212342   8.486   4.418   1.602 -0.8266  0.1018 -0.0107
 4136TIP3   OH212343   6.613   3.167   3.793  0.8380  0.5292 -0.1592
 4136TIP3    H112344   6.560   3.233   3.837  0.8156 -0.2492  1.0172
 4136TIP3    H212345   6.646   3.210   3.714  1.0015  1.9952  0.7023
 4137TIP3   OH212346   7.586   5.610   3.525  0.4255 -0.3131 -0.2875
 4137TIP3    H112347   7.636   5.651   3.454  0.5380 -1.5967 -0.9623
 4137TIP3    H212348   7.645   5.611   3.600  0.7574 -0.0606 -0.5494
 4138TIP3   OH212349   8.456   4.615   3.662  0.2148  0.1316  0.5644
 4138TIP3    H112350   8.455   4.599   3.567  0.0409 -1.4751  0.8167
 4138TIP3    H212351   8.371   4.653   3.681  0.4494  0.9611  0.0097
 4139TIP3   OH212352   6.823   4.211   2.368 -0.1558 -0.4869  0.2762
 4139TIP3    H112353   6.773   4.150   2.312 -2.4504  1.1941  0.4433
 4139TIP3    H212354   6.865   4.271   2.306 -1.1826  0.2262  0.2595
 4140TIP3   OH212355   5.854   4.117   0.098 -0.2211  0.3061 -0.3886
 4140TIP3    H112356   5.768   4.157   0.082 -0.0098  1.1560  0.5709
 4140TIP3    H212357   5.875   4.073   0.015 -1.2944  0.6249 -0.8440
 4141TIP3   OH212358   6.994   3.637   3.356  0.2379 -0.0432  0.4223
 4141TIP3    H112359   7.031   3.677   3.435  0.3857 -1.3078  1.0119
 4141TIP3    H212360   6.899   3.642   3.368  0.2543  0.4086  0.3543
 4142TIP3   OH212361   0.510   4.255   2.513 -0.0858  0.1787  0.2879
 4142TIP3    H112362   0.495   4.295   2.599 -1.0536 -2.5120  1.4229
 4142TIP3    H212363   0.424   4.252   2.473  0.2285  0.6204 -0.4299
 4143TIP3   OH212364   6.922   3.325   2.290  0.3062  0.2624  0.0893
 4143TIP3    H112365   6.981   3.382   2.339  1.1332 -0.5707  0.0850
 4143TIP3    H212366   6.930   3.240   2.333 -1.7837  0.4130  0.8050
 4144TIP3   OH212367   7.021   2.844   3.112  0.3153 -0.2034 -0.0570
 4144TIP3    H112368   7.028   2.875   3.202  0.2210  1.5630 -0.6399
 4144TIP3    H212369   6.945   2.784   3.113 -0.0436  0.2622  0.9025
 4145TIP3   OH212370   6.910   4.118   0.415 -0.3492  0.0361 -0.3422
 4145TIP3    H112371   6.935   4.182   0.348 -1.9122 -1.0444 -2.0032
 4145TIP3    H212372   6.951   4.037   0.388 -2.7908 -0.9431 -1.2600
 4146TIP3   OH212373   1.513   4.208   6.042  0.0191  0.0794  0.2319
 4146TIP3    H112374   1.440   4.147   6.044  0.6041 -0.6063  1.0818
 4146TIP3    H212375   1.495   4.270   6.113 -0.1645  0.4187 -0.1084
 4147TIP3   OH212376   2.894   0.339   5.423  0.1408 -0.2739  0.2949
 4147TIP3    H112377   2.939   0.255   5.432 -0.5587 -0.4977  1.8554
 4147TIP3    H212378   2.893   0.356   5.329  0.6940 -1.7853  0.0086
 4148TIP3   OH212379   7.990   6.407   0.975  0.2945 -0.0873  0.8188
 4148TIP3    H112380   7.972   6.444   1.061 -1.1176  0.2942  0.3776
 4148TIP3    H212381   8.022   6.481   0.923 -0.8217  0.1458  0.4444
 4149TIP3   OH212382   6.978   4.669   2.715 -0.5452 -0.2456  0.1318
 4149TIP3    H112383   7.038   4.621   2.659  0.8213  2.2841 -0.6257
 4149TIP3    H212384   7.011   4.655   2.804  1.6142  1.6648 -0.3244
 4150TIP3   OH212385   0.232   3.994   1.005  0.0008  0.2526  0.0314
 4150TIP3    H112386   0.318   3.968   0.972 -0.9308 -1.7076 -0.9893
 4150TIP3    H212387   0.243   4.001   1.099  1.3067  0.1127 -0.1002
 4151TIP3   OH212388   1.375   5.768   2.141 -0.1153 -0.5166 -0.5204
 4151TIP3    H112389   1.412   5.720   2.215 -0.6654 -0.8362 -0.4436
 4151TIP3    H212390   1.450   5.793   2.088  0.1257 -2.2977 -1.0515
 4152TIP3   OH212391   8.423   4.588   1.943  0.1416 -0.0376 -0.0028
 4152TIP3    H112392   8.417   4.493   1.941 -0.6566 -0.0373  1.6864
 4152TIP3    H212393   8.510   4.607   1.906  0.2393 -1.3954 -0.5093
 4153TIP3   OH212394   7.192   1.205   2.525 -0.0946 -0.4355 -0.6256
 4153TIP3    H112395   7.149   1.124   2.498  0.0580 -0.8040  0.2034
 4153TIP3    H212396   7.245   1.180   2.601  0.1612  0.3870 -0.5244
 4154TIP3   OH212397   6.148   4.482   2.382 -0.3971  0.1847  0.6807
 4154TIP3    H112398   6.220   4.462   2.322 -0.6690  0.7251  0.1735
 4154TIP3    H212399   6.090   4.406   2.376 -0.5749  0.3683  0.0283
 4155TIP3   OH212400   0.520   2.996   1.735  0.0491  0.0475  0.0768
 4155TIP3    H112401   0.535   3.088   1.712  0.3907 -0.4120 -1.5789
 4155TIP3    H212402   0.506   2.952   1.651 -2.0621 -1.0742  0.9994
 4156TIP3   OH212403   6.276   1.800   1.212  0.4973 -0.1668  0.2950
 4156TIP3    H112404   6.315   1.791   1.298 -1.5062  0.9575  1.3515
 4156TIP3    H212405   6.220   1.723   1.203  0.2661  0.0130  0.2183
 4157TIP3   OH212406   4.590   4.723   4.065  0.0420  0.2225  0.4523
 4157TIP3    H112407   4.684   4.705   4.069  0.2191  1.2634  1.1974
 4157TIP3    H212408   4.549   4.641   4.092  0.6709 -0.8152 -1.6133
 4158TIP3   OH212409   6.805   3.784   1.415 -0.7511 -0.1115 -0.0227
 4158TIP3    H112410   6.879   3.816   1.467  0.2378 -1.6049 -0.4693
 4158TIP3    H212411   6.727   3.813   1.463  0.0541  3.2132 -0.5800
 4159TIP3   OH212412   8.288   7.224   0.291  0.3928 -0.5894  0.1957
 4159TIP3    H112413   8.281   7.128   0.298 -0.5820 -0.6457 -1.2641
 4159TIP3    H212414   8.273   7.255   0.381  1.4073 -1.8295  0.8142
 4160TIP3   OH212415   6.655   4.569   0.615  0.0897 -0.1509 -0.1735
 4160TIP3    H112416   6.708   4.610   0.684  2.0493  0.5769 -2.0825
 4160TIP3    H212417   6.632   4.483   0.652  2.5967 -0.4943  0.7127
 4161TIP3   OH212418   6.221   4.420   1.987 -0.2372 -0.4158 -0.4051
 4161TIP3    H112419   6.161   4.453   1.921  0.2703  2.9065  0.6849
 4161TIP3    H212420   6.182   4.339   2.018 -2.7756  0.3067 -1.6323
 4162TIP3   OH212421   5.954   4.098   1.132  0.0198  0.6550 -0.1918
 4162TIP3    H112422   6.041   4.060   1.146 -0.6576 -1.1235 -0.6239
 4162TIP3    H212423   5.958   4.136   1.044  0.0726 -0.2770 -0.5983
 4163TIP3   OH212424   0.376   5.166   1.899 -0.0471  0.0362 -0.3202
 4163TIP3    H112425   0.426   5.233   1.947  0.3863 -1.1187  0.8698
 4163TIP3    H212426   0.437   5.136   1.831 -0.3676  1.0876 -1.0862
 4164TIP3   OH212427   2.550   0.743   6.086  0.3338  0.0465  0.3239
 4164TIP3    H112428   2.549   0.674   6.019  0.5515  0.0849  0.2827
 4164TIP3    H212429   2.619   0.803   6.058 -1.7529  1.8279 -1.2153
 4165TIP3   OH212430   6.227   5.652   2.662  0.2922  0.3783 -0.0232
 4165TIP3    H112431   6.164   5.593   2.622  0.7626 -0.8132  0.9604
 4165TIP3    H212432   6.174   5.715   2.711 -0.1913  0.4713 -0.6625
 4166TIP3   OH212433   8.421   6.207   3.706 -0.2838 -0.3566  0.0253
 4166TIP3    H112434   8.348   6.230   3.764  1.1378 -0.1781  1.8220
 4166TIP3    H212435   8.467   6.137   3.752  0.7760 -0.3401 -0.9799
 4167TIP3   OH212436   0.928   4.853   1.030  0.0342  0.0195 -0.4502
 4167TIP3    H112437   0.835   4.847   1.050 -0.3726 -0.2482 -2.3659
 4167TIP3    H212438   0.952   4.766   0.999  0.8823  0.1483 -0.1649
 4168TIP3   OH212439   4.981   5.289   1.794  0.1008 -0.6597 -0.3549
 4168TIP3    H112440   5.042   5.223   1.762 -0.4674 -1.4554  0.1587
 4168TIP3    H212441   4.926   5.310   1.719  1.8640  1.0808 -1.1946
 4169TIP3   OH212442   1.208   5.765   2.451 -0.2688 -0.4399 -0.3977
 4169TIP3    H112443   1.262   5.844   2.455  0.6407 -1.0864  0.2559
 4169TIP3    H212444   1.269   5.696   2.424 -0.5697 -1.3694  1.2713
 4170TIP3   OH212445   5.934   4.978   1.091 -0.4799  0.8266  0.1249
 4170TIP3    H112446   5.886   5.059   1.111 -0.5045  0.7865  0.2266
 4170TIP3    H212447   5.885   4.909   1.136 -1.1232  0.5929 -0.9064
 4171TIP3   OH212448   5.797   3.461   2.092 -0.2158  0.2306 -0.2753
 4171TIP3    H112449   5.883   3.443   2.130  0.2101  0.8401 -0.9370
 4171TIP3    H212450   5.736   3.411   2.146  0.3359  1.3118  1.3769
 4172TIP3   OH212451   5.845   5.107   1.861  0.7062  0.0493 -0.7690
 4172TIP3    H112452   5.868   5.135   1.950  2.2929 -0.2659 -1.0657
 4172TIP3    H212453   5.845   5.011   1.867 -4.7475 -0.0403  0.2653
 4173TIP3   OH212454   7.935   4.547   2.694 -0.2565 -0.9890 -0.1366
 4173TIP3    H112455   7.886   4.611   2.643  0.0323  0.1532  0.9869
 4173TIP3    H212456   7.952   4.475   2.633 -0.3873  0.1067 -1.4834
 4174TIP3   OH212457   7.230   3.796   0.285  0.1352  0.6600 -0.2304
 4174TIP3    H112458   7.308   3.802   0.230 -0.4659  0.0986 -1.1500
 4174TIP3    H212459   7.174   3.733   0.240 -0.6669  0.7438  0.6514
 4175TIP3   OH212460   7.540   2.818   1.247 -0.7301  0.2144 -0.2599
 4175TIP3    H112461   7.529   2.811   1.153 -2.4865  1.1101 -0.1417
 4175TIP3    H212462   7.619   2.767   1.266 -1.3396 -1.4238 -1.9777
 4176TIP3   OH212463   6.886   2.963   0.146  0.3112  0.2455 -0.5767
 4176TIP3    H112464   6.934   3.020   0.207 -1.6094  0.9488  0.3102
 4176TIP3    H212465   6.952   2.934   0.084  2.0281  0.6962  0.9852
 4177TIP3   OH212466   0.205   2.096   3.380 -0.1273 -0.7481  0.5439
 4177TIP3    H112467   0.245   2.017   3.416 -2.1675 -2.8579 -1.5456
 4177TIP3    H212468   0.133   2.116   3.440 -0.8136 -1.6892  0.0659
 4178TIP3   OH212469   6.512   6.315   1.439  0.4169 -0.4980  0.8626
 4178TIP3    H112470   6.564   6.295   1.517  1.1813  0.2456  0.5442
 4178TIP3    H212471   6.556   6.389   1.399  0.5717 -1.4900 -0.8204
 4179TIP3   OH212472   0.651   5.043   6.602  0.1685 -0.8727 -0.0778
 4179TIP3    H112473   0.729   5.070   6.649 -0.8757  0.4727  0.9197
 4179TIP3    H212474   0.578   5.067   6.660 -1.0279 -1.2814 -1.3777
 4180TIP3   OH212475   6.664   3.963   0.758  0.3448  0.0127 -0.3727
 4180TIP3    H112476   6.713   4.025   0.813  0.2266 -0.3818  0.1799
 4180TIP3    H212477   6.659   4.006   0.673  0.9704  0.4102 -0.2181
 4181TIP3   OH212478   6.289   3.017   2.945 -0.1397  0.0231  0.1387
 4181TIP3    H112479   6.301   2.935   2.898 -0.3347 -0.2013  0.4837
 4181TIP3    H212480   6.371   3.065   2.930 -0.0725 -0.1803 -0.1594
 4182TIP3   OH212481   6.757   5.152   3.271  0.1079 -0.1606  0.0109
 4182TIP3    H112482   6.784   5.060   3.260 -0.6419 -0.8171  3.1824
 4182TIP3    H212483   6.676   5.159   3.220 -0.7568 -1.7741  1.0904
 4183TIP3   OH212484   8.286   3.619   0.321 -0.1408  0.1293 -0.2874
 4183TIP3    H112485   8.295   3.583   0.409 -2.7731  0.8757  0.3549
 4183TIP3    H212486   8.305   3.546   0.263 -2.0439 -1.4258  0.9613
 4184TIP3   OH212487   0.368   5.109   4.266 -0.2181  0.7617  0.1184
 4184TIP3    H112488   0.334   5.177   4.209 -0.0469  0.7419 -0.0092
 4184TIP3    H212489   0.450   5.081   4.224  1.0863  2.3232  1.5582
 4185TIP3   OH212490   1.779   6.057   3.175 -0.2424 -0.2446  0.4073
 4185TIP3    H112491   1.762   6.072   3.268  1.5886  0.3824  0.6432
 4185TIP3    H212492   1.851   6.115   3.153  1.0152 -2.1978 -0.8058
 4186TIP3   OH212493   0.948   7.799   3.228 -0.4322  0.7929 -0.4616
 4186TIP3    H112494   1.034   7.841   3.218 -1.1273  2.6573  0.9938
 4186TIP3    H212495   0.951   7.758   3.314 -1.2356  1.4592 -0.1089
 4187TIP3   OH212496   1.857   0.061   2.234 -0.5109  0.6026  0.0290
 4187TIP3    H112497   1.769   0.065   2.272 -1.9719  1.0387 -3.2355
 4187TIP3    H212498   1.894   0.148   2.250 -1.4210  1.0579 -0.3243
 4188TIP3   OH212499   0.122   6.192   2.175  0.2842  0.3661 -0.2884
 4188TIP3    H112500   0.113   6.271   2.121 -0.2616  1.3871  1.2747
 4188TIP3    H212501   0.033   6.158   2.181  0.2909  0.4403  0.2365
 4189TIP3   OH212502   6.324   6.010   3.852  0.6351 -0.4745 -0.0416
 4189TIP3    H112503   6.290   5.993   3.940  0.2238 -1.1575 -0.3355
 4189TIP3    H212504   6.351   5.924   3.819  1.3837 -0.1362 -0.3417
 4190TIP3   OH212505   7.140   3.658   4.183 -0.2414  0.1278 -0.6948
 4190TIP3    H112506   7.224   3.653   4.138  0.1731 -2.0591  0.3026
 4190TIP3    H212507   7.162   3.656   4.276 -1.4298 -0.8802 -0.4315
 4191TIP3   OH212508   7.726   6.169   4.056  0.1982  0.1825  0.1228
 4191TIP3    H112509   7.659   6.100   4.060  0.0598  0.0746 -3.0843
 4191TIP3    H212510   7.809   6.121   4.063  0.0437  0.0348  1.1079
 4192TIP3   OH212511   0.134   6.853   2.358 -0.3900 -0.0269  0.0849
 4192TIP3    H112512   0.156   6.910   2.432 -0.1999  1.8036 -1.3557
 4192TIP3    H212513   0.217   6.811   2.336 -0.7288 -1.6351  1.7647
 4193TIP3   OH212514   0.481   5.441   1.730  0.4697  0.4362 -0.5468
 4193TIP3    H112515   0.431   5.445   1.812  1.6663 -0.5371  0.2577
 4193TIP3    H212516   0.422   5.476   1.664 -0.6430  0.9248  0.6801
 4194TIP3   OH212517   7.324   5.057   2.631 -0.1716 -0.0311  0.0214
 4194TIP3    H112518   7.262   4.986   2.616  0.8294 -0.5879 -1.5720
 4194TIP3    H212519   7.307   5.084   2.722 -1.5352 -1.3314  0.1807
 4195TIP3   OH212520   1.779   5.898   3.663 -0.5590  0.0306  0.6411
 4195TIP3    H112521   1.790   5.829   3.598 -0.1140 -0.2605  1.0253
 4195TIP3    H212522   1.810   5.860   3.745  0.0848  0.8093  0.7739
 4196TIP3   OH212523   2.113   5.589   3.949  0.2999  0.6375  0.2380
 4196TIP3    H112524   2.071   5.550   3.872  0.6326  1.5254 -0.3978
 4196TIP3    H212525   2.189   5.532   3.965 -0.4081 -0.2169  0.6115
 4197TIP3   OH212526   1.033   6.878   1.893  0.3503  0.1523 -0.2510
 4197TIP3    H112527   0.960   6.929   1.927 -0.5951 -1.3332  0.0014
 4197TIP3    H212528   1.072   6.839   1.971  0.0379 -0.8386 -0.5834
 4198TIP3   OH212529   2.226   6.773   2.550 -0.4474 -0.3317  0.1204
 4198TIP3    H112530   2.167   6.808   2.483 -1.4240  0.0576  1.1592
 4198TIP3    H212531   2.229   6.680   2.532 -1.1095 -0.3063 -0.1728
 4199TIP3   OH212532   1.870   4.981   2.174 -0.0411  0.0378 -0.2858
 4199TIP3    H112533   1.819   5.060   2.154 -1.1721 -1.0547 -1.7821
 4199TIP3    H212534   1.932   5.010   2.241 -0.8746  2.0414 -0.3281
 4200TIP3   OH212535   1.664   5.211   4.881 -0.5496 -0.5883  0.2970
 4200TIP3    H112536   1.641   5.118   4.877 -1.4375 -0.3358 -0.6557
 4200TIP3    H212537   1.706   5.228   4.796  1.0305 -0.4863  1.0836
 4201TIP3   OH212538   1.220   3.987   2.007  0.0704 -0.1578  0.6433
 4201TIP3    H112539   1.281   3.923   2.045 -0.5077 -0.8421  0.4218
 4201TIP3    H212540   1.147   3.934   1.975  0.4974  0.4045 -1.3532
 4202TIP3   OH212541   8.021   6.301   3.170 -0.1029  0.1466 -0.5551
 4202TIP3    H112542   7.926   6.298   3.179 -0.0547 -0.5665 -0.1951
 4202TIP3    H212543   8.037   6.359   3.095 -0.7743  1.0655  0.0085
 4203TIP3   OH212544   1.398   6.101   2.961 -0.1142 -0.1799 -0.2889
 4203TIP3    H112545   1.362   6.183   2.928 -0.5150 -0.1115  0.3118
 4203TIP3    H212546   1.341   6.033   2.925 -0.7666 -0.0814  0.5453
 4204TIP3   OH212547   1.172   5.694   3.730 -0.0427 -0.0799 -0.3000
 4204TIP3    H112548   1.132   5.761   3.676 -0.6167  1.0157  1.4401
 4204TIP3    H212549   1.259   5.728   3.750  0.0594 -0.3424 -0.2990
 4205TIP3   OH212550   1.314   6.705   4.404 -0.0962  0.2787  0.0121
 4205TIP3    H112551   1.318   6.645   4.329 -1.7101  0.3501 -0.1456
 4205TIP3    H212552   1.403   6.741   4.410 -0.5352  2.0999 -3.3587
 4206TIP3   OH212553   4.600   0.569   2.876 -0.1584  0.0615 -0.2917
 4206TIP3    H112554   4.579   0.494   2.820 -0.1713  0.2086 -0.4834
 4206TIP3    H212555   4.519   0.588   2.922 -0.1804  0.0169 -0.3120
 4207TIP3   OH212556   1.527   3.588   1.945 -0.4218 -0.0477 -0.0109
 4207TIP3    H112557   1.539   3.663   2.004 -1.0891  0.3442 -0.3673
 4207TIP3    H212558   1.596   3.527   1.970 -2.2102 -1.0102  2.9460
 4208TIP3   OH212559   0.563   5.151   1.691  0.0406 -0.4485  0.1736
 4208TIP3    H112560   0.538   5.231   1.644  1.9043  0.3304  0.4655
 4208TIP3    H212561   0.631   5.112   1.636  0.0802 -1.1327  0.7071
 4209TIP3   OH212562   0.675   6.475   2.250 -0.4731 -0.0854  0.2481
 4209TIP3    H112563   0.653   6.420   2.175 -1.9365  0.3408  0.3365
 4209TIP3    H212564   0.639   6.427   2.326  0.1510 -0.0534  0.5656
 4210TIP3   OH212565   0.398   6.007   3.886 -0.3285  0.0121 -0.6117
 4210TIP3    H112566   0.489   5.977   3.894 -0.0025  1.3586  1.3961
 4210TIP3    H212567   0.348   5.944   3.937 -0.3356 -0.0265 -0.6669
 4211TIP3   OH212568   1.049   5.458   2.335 -0.5268 -0.1647 -0.3973
 4211TIP3    H112569   1.009   5.488   2.253 -2.7290 -0.5078  0.5414
 4211TIP3    H212570   1.138   5.495   2.332 -1.1903  1.3869 -2.0758
 4212TIP3   OH212571   1.555   7.298   4.247 -0.4096  0.2921  0.3582
 4212TIP3    H112572   1.571   7.358   4.320  2.0388 -0.0614  0.1321
 4212TIP3    H212573   1.461   7.279   4.253 -0.7971  2.4385  1.7247
 4213TIP3   OH212574   0.409   6.487   4.213  0.0327  0.8697 -0.1481
 4213TIP3    H112575   0.390   6.431   4.288  0.5980 -1.4956 -1.7328
 4213TIP3    H212576   0.500   6.467   4.189  0.8451  3.7033  0.2625
 4214TIP3   OH212577   8.186   4.554   2.810 -0.1499  0.2898 -0.1149
 4214TIP3    H112578   8.240   4.504   2.748 -1.1694  0.1166 -0.8653
 4214TIP3    H212579   8.105   4.570   2.763 -1.0266 -0.0491  1.2666
 4215TIP3   OH212580   1.566   6.317   5.021  0.3388  0.2411 -0.4789
 4215TIP3    H112581   1.552   6.244   5.081 -0.2052  0.0853 -0.7870
 4215TIP3    H212582   1.506   6.300   4.948  0.1135  1.0549 -0.4952
 4216TIP3   OH212583   5.902   4.076   2.217  0.1372 -0.1501  0.5135
 4216TIP3    H112584   5.900   3.994   2.168  0.4446  0.7706 -1.0852
 4216TIP3    H212585   5.825   4.124   2.186  1.6540  1.4626 -0.9468
 4217TIP3   OH212586   7.697   6.292   4.650  0.4864  0.0808 -0.3361
 4217TIP3    H112587   7.661   6.281   4.562  1.0039 -0.8112 -0.4514
 4217TIP3    H212588   7.698   6.203   4.687 -0.0514  0.4966  0.7023
 4218TIP3   OH212589   0.094   3.948   6.045  0.2374  0.2022  0.0948
 4218TIP3    H112590   0.087   3.861   6.007  0.5805 -0.4196  1.4069
 4218TIP3    H212591   0.005   3.983   6.042 -0.3674 -1.1367  1.7028
 4219TIP3   OH212592   7.796   3.981   5.367 -0.4344 -0.0895  0.6159
 4219TIP3    H112593   7.715   3.972   5.317 -0.1883 -0.6410  0.3065
 4219TIP3    H212594   7.800   3.901   5.420 -0.3133  0.1410  0.9554
 4220TIP3   OH212595   1.502   3.199   6.647 -0.1650  0.4821 -0.4278
 4220TIP3    H112596   1.544   3.255   6.582 -1.7953  0.9244 -1.1224
 4220TIP3    H212597   1.572   3.141   6.678  1.2192  1.9962 -0.6723
 4221TIP3   OH212598   1.066   3.890   1.800 -0.2915 -0.1726  0.2800
 4221TIP3    H112599   1.096   3.978   1.777 -0.5294 -0.0742  0.3509
 4221TIP3    H212600   1.015   3.861   1.724 -0.8246  0.0347  0.5621
 4222TIP3   OH212601   2.249   7.238   2.730 -0.2161  0.8802 -0.1445
 4222TIP3    H112602   2.222   7.153   2.696  2.6301  0.2646 -1.0215
 4222TIP3    H212603   2.270   7.221   2.822 -3.2471  1.4870  0.6938
 4223TIP3   OH212604   1.148   4.548   2.580  0.1239  0.1347  0.2824
 4223TIP3    H112605   1.194   4.527   2.499 -0.3334 -1.2225  0.3490
 4223TIP3    H212606   1.217   4.570   2.642  0.7260 -2.0904  0.4438
 4224TIP3   OH212607   7.451   4.595   3.859 -0.1133  0.0229  0.4735
 4224TIP3    H112608   7.490   4.540   3.792  2.7748  2.6634 -0.1337
 4224TIP3    H212609   7.377   4.637   3.816  0.1329 -0.2897 -0.2561
 4225TIP3   OH212610   1.356   5.494   3.950  0.3276  0.3449 -0.2750
 4225TIP3    H112611   1.416   5.468   4.020 -1.2384 -0.4929  0.8094
 4225TIP3    H212612   1.391   5.452   3.872  0.8385 -0.6180  0.4509
 4226TIP3   OH212613   7.633   5.144   3.189 -0.0182 -0.2082  0.0686
 4226TIP3    H112614   7.648   5.056   3.222 -2.6002 -0.6031  0.2976
 4226TIP3    H212615   7.632   5.134   3.094 -2.4850 -0.8590  0.1277
 4227TIP3   OH212616   8.194   4.593   4.198  0.0616 -0.5011  0.2497
 4227TIP3    H112617   8.198   4.622   4.107  1.9862  3.0667  1.3386
 4227TIP3    H212618   8.270   4.535   4.208 -0.7238 -1.7052 -0.6197
 4228TIP3   OH212619   8.443   7.283   3.182  0.3103 -0.4445  0.3429
 4228TIP3    H112620   8.431   7.195   3.145  0.8065  0.3244 -1.7098
 4228TIP3    H212621   8.537   7.299   3.175  0.3604 -0.1514  1.6646
 4229TIP3   OH212622   8.106   3.454   3.214  0.2055  0.3922 -0.0901
 4229TIP3    H112623   8.016   3.434   3.188 -0.4011  0.9240  1.5846
 4229TIP3    H212624   8.150   3.369   3.212 -0.4794  0.0396 -0.3353
 4230TIP3   OH212625   0.532   6.945   4.722  0.4214 -0.3073 -0.2386
 4230TIP3    H112626   0.545   7.026   4.772 -0.2930 -0.3768  0.0685
 4230TIP3    H212627   0.621   6.915   4.702  0.7138 -0.1086  0.7244
 4231TIP3   OH212628   1.108   6.329   2.729 -0.0983  0.7281 -0.1344
 4231TIP3    H112629   1.086   6.403   2.672 -2.7718 -0.2353 -0.4130
 4231TIP3    H212630   1.106   6.253   2.672 -1.7255 -0.1059  1.0122
 4232TIP3   OH212631   1.397   4.665   2.451 -0.2332  0.5664 -0.0227
 4232TIP3    H112632   1.457   4.595   2.427  0.1105  0.7953  0.1655
 4232TIP3    H212633   1.441   4.711   2.522 -0.4856  0.9364 -0.1052
 4233TIP3   OH212634   7.729   5.433   2.831 -0.1422  0.1725 -0.4857
 4233TIP3    H112635   7.719   5.447   2.737 -1.9639  0.1060 -0.3156
 4233TIP3    H212636   7.688   5.349   2.848  3.0279 -1.3631 -0.0994
 4234TIP3   OH212637   1.428   6.403   3.175  0.3726  0.8302  0.5980
 4234TIP3    H112638   1.439   6.409   3.080  0.7748  2.1752  0.7264
 4234TIP3    H212639   1.506   6.356   3.204 -0.5202 -1.0031  0.1035
 4235TIP3   OH212640   2.382   5.959   4.062  0.4163  0.3014 -0.3518
 4235TIP3    H112641   2.456   5.964   4.122  0.3817  1.4712 -0.3944
 4235TIP3    H212642   2.385   5.870   4.027 -0.0644 -0.6679  2.0150
 4236TIP3   OH212643   8.474   5.680   0.438  0.2425  0.1574  0.6191
 4236TIP3    H112644   8.392   5.713   0.477 -0.0356 -0.3429  0.4622
 4236TIP3    H212645   8.445   5.612   0.377  0.7662  0.1215  0.4138
 4237TIP3   OH212646   7.750   6.216   2.783 -0.4730  0.6099 -0.1395
 4237TIP3    H112647   7.752   6.146   2.719  0.5078 -0.5826  1.1657
 4237TIP3    H212648   7.835   6.259   2.774 -0.7590  1.1263 -0.3849
 4238TIP3   OH212649   0.154   5.005   1.845 -0.1701  0.0951 -0.3938
 4238TIP3    H112650   0.150   4.980   1.937  0.3166  1.6052  0.0505
 4238TIP3    H212651   0.241   5.044   1.835 -1.4217  2.9225 -0.7011
 4239TIP3   OH212652   5.171   4.863   0.575 -0.2963 -0.4003  0.0993
 4239TIP3    H112653   5.188   4.942   0.524  1.4498  0.0132  1.2672
 4239TIP3    H212654   5.211   4.881   0.660  1.7192 -3.2235 -0.1810
 4240TIP3   OH212655   1.265   3.672   2.344 -0.0158 -0.2538  0.3118
 4240TIP3    H112656   1.289   3.580   2.345  1.2428  0.0622  0.1487
 4240TIP3    H212657   1.169   3.672   2.347 -0.0654 -1.5849 -0.7054
 4241TIP3   OH212658   1.252   7.565   2.852  0.8406  0.3314  0.3064
 4241TIP3    H112659   1.278   7.478   2.820  0.5988 -0.2073  1.5412
 4241TIP3    H212660   1.325   7.592   2.907 -0.2603 -0.2761  2.1021
 4242TIP3   OH212661   1.452   4.914   1.569  0.0422  0.0289  0.0266
 4242TIP3    H112662   1.541   4.886   1.549  1.2528  3.6100 -0.0877
 4242TIP3    H212663   1.423   4.855   1.638  2.7646 -0.8306  0.4927
 4243TIP3   OH212664   1.433   5.594   2.754  0.1874 -0.5466 -0.1480
 4243TIP3    H112665   1.433   5.598   2.850 -0.0788  0.4666 -0.1822
 4243TIP3    H212666   1.463   5.681   2.726 -2.7491  0.2902 -0.9921
 4244TIP3   OH212667   1.044   7.425   2.587 -0.2653  0.2687  0.0455
 4244TIP3    H112668   1.045   7.512   2.626 -2.3977  0.5854 -0.5494
 4244TIP3    H212669   0.964   7.384   2.619 -0.4545 -0.6259 -1.4958
 4245TIP3   OH212670   7.493   5.559   4.590 -0.2577 -0.2968 -0.0658
 4245TIP3    H112671   7.466   5.529   4.676  2.0059 -0.9592  0.4530
 4245TIP3    H212672   7.576   5.513   4.573  1.2402  2.5798 -0.9961
 4246TIP3   OH212673   7.899   4.587   1.847 -0.4368  0.2650  0.0745
 4246TIP3    H112674   7.889   4.651   1.777  0.7962 -0.2704 -0.5936
 4246TIP3    H212675   7.943   4.635   1.917 -0.7388  0.5096  0.1015
 4247TIP3   OH212676   1.196   5.339   3.592 -1.2864 -0.5105 -0.6208
 4247TIP3    H112677   1.185   5.281   3.668 -0.1579 -0.0771 -0.1018
 4247TIP3    H212678   1.117   5.393   3.591 -0.4503  0.8346  1.4488
 4248TIP3   OH212679   0.390   6.485   3.917  0.0509  0.2883 -0.6843
 4248TIP3    H112680   0.356   6.467   4.005  1.4958 -0.0080 -0.1664
 4248TIP3    H212681   0.470   6.535   3.932  0.1149  0.5504 -1.8549
 4249TIP3   OH212682   0.737   5.866   2.345  0.1294  0.4165 -0.1704
 4249TIP3    H112683   0.743   5.774   2.322  1.5130  0.7395 -1.2137
 4249TIP3    H212684   0.828   5.892   2.363 -0.0743  1.8769 -1.1402
 4250TIP3   OH212685   0.031   5.373   2.146  0.0627  0.0102  0.4204
 4250TIP3    H112686  -0.029   5.442   2.118  1.1252  0.3848 -1.0015
 4250TIP3    H212687   0.117   5.414   2.142  0.8018 -1.6452 -1.2989
 4251TIP3   OH212688   0.911   5.306   1.913 -0.3293  0.0525 -0.4546
 4251TIP3    H112689   0.849   5.348   1.853 -0.4745  0.7246  0.1608
 4251TIP3    H212690   0.874   5.220   1.929 -0.2600 -0.1577 -1.3761
 4252TIP3   OH212691   8.082   5.383   4.588 -0.3482 -0.6216 -0.2981
 4252TIP3    H112692   8.116   5.472   4.578  0.9417 -1.2476 -1.7028
 4252TIP3    H212693   8.126   5.348   4.665  2.2666 -1.3992 -2.0520
 4253TIP3   OH212694   0.490   5.584   4.148 -0.1519  0.3617  0.0695
 4253TIP3    H112695   0.475   5.603   4.241 -0.6410  3.0006 -0.5072
 4253TIP3    H212696   0.585   5.592   4.137 -0.0904  0.0290  0.3273
 4254TIP3   OH212697   7.854   4.694   4.065 -0.3425  0.0149 -0.3444
 4254TIP3    H112698   7.937   4.653   4.043 -0.6673 -0.7624 -0.1398
 4254TIP3    H212699   7.877   4.768   4.122  0.1783 -0.4340  0.0318
 4255TIP3   OH212700   1.381   5.681   4.310 -0.0152 -0.1916  0.3751
 4255TIP3    H112701   1.409   5.590   4.324  1.6748  0.1856 -0.4966
 4255TIP3    H212702   1.320   5.675   4.237 -2.2855 -1.0117  2.2685
 4256TIP3   OH212703   6.662   4.669   5.381  0.1985 -0.4541  0.3861
 4256TIP3    H112704   6.752   4.666   5.349  0.6503 -0.9463  1.6793
 4256TIP3    H212705   6.619   4.597   5.336 -0.1505  1.1726 -1.9651
 4257TIP3   OH212706   7.575   4.238   4.705 -0.0691  0.0290 -0.2154
 4257TIP3    H112707   7.663   4.268   4.683  0.5036 -2.0399 -0.7763
 4257TIP3    H212708   7.529   4.235   4.622  0.0923 -1.3027 -0.2667
 4258TIP3   OH212709   8.351   6.337   4.451 -0.4835  0.1431 -0.4097
 4258TIP3    H112710   8.294   6.354   4.527  0.1719  0.1691  0.0808
 4258TIP3    H212711   8.391   6.253   4.469 -1.4548 -0.5562 -1.4440
 4259TIP3   OH212712   8.369   2.581   4.774 -0.4449 -0.4464  0.3195
 4259TIP3    H112713   8.384   2.535   4.691 -1.4997  1.2497 -0.8518
 4259TIP3    H212714   8.314   2.521   4.825  0.2209 -1.5120 -0.2097
 4260TIP3   OH212715   7.218   4.477   4.085  0.5708 -0.4175  0.3083
 4260TIP3    H112716   7.172   4.526   4.153  1.3907  0.0170  0.5600
 4260TIP3    H212717   7.293   4.438   4.130  1.3284  0.1711 -0.4108
 4261TIP3   OH212718   8.066   3.947   2.251 -0.2538  0.1360  0.2447
 4261TIP3    H112719   8.161   3.950   2.251 -0.2841  2.1427  1.0109
 4261TIP3    H212720   8.044   3.865   2.296  1.1108  1.2882  3.1348
 4262TIP3   OH212721   1.059   6.597   2.646  0.3227  0.3802 -0.1245
 4262TIP3    H112722   1.034   6.634   2.561 -0.8696  0.1642  0.1188
 4262TIP3    H212723   0.985   6.618   2.704  0.1437 -1.3546  0.3096
 4263TIP3   OH212724   8.313   5.403   5.130  0.6256 -0.1837 -0.0724
 4263TIP3    H112725   8.375   5.330   5.138  0.7520 -0.0779 -0.0839
 4263TIP3    H212726   8.369   5.480   5.119  0.4948 -0.0749  0.0290
 4264TIP3   OH212727   1.759   5.075   2.574  0.1389 -0.4815  0.1435
 4264TIP3    H112728   1.832   5.115   2.527 -0.0724 -1.6957 -1.2926
 4264TIP3    H212729   1.681   5.106   2.528 -0.0019 -2.9326 -1.3734
 4265TIP3   OH212730   7.702   5.802   1.775  0.5345  0.8669  0.2632
 4265TIP3    H112731   7.777   5.748   1.802 -0.2254 -0.7326 -0.8159
 4265TIP3    H212732   7.652   5.746   1.716  0.2304  3.0670 -1.6278
 4266TIP3   OH212733   0.696   5.590   2.372  0.5135  0.1917  0.1916
 4266TIP3    H112734   0.621   5.554   2.420  1.2047 -0.4533  0.7913
 4266TIP3    H212735   0.763   5.603   2.439  0.4438  2.1943 -0.0784
 4267TIP3   OH212736   0.349   6.807   2.605  0.5032 -0.0352 -0.3122
 4267TIP3    H112737   0.315   6.731   2.652 -0.5416  0.3084 -0.4978
 4267TIP3    H212738   0.406   6.770   2.538  1.6918 -0.5449  0.9594
 4268TIP3   OH212739   8.098   5.847   4.147  0.3856  0.1198 -0.6402
 4268TIP3    H112740   8.182   5.816   4.181  0.6195  0.1938 -1.1467
 4268TIP3    H212741   8.036   5.828   4.216  0.7957 -0.0767 -0.3234
 4269TIP3   OH212742   1.288   4.840   1.779  0.2972 -0.5286 -0.3939
 4269TIP3    H112743   1.260   4.878   1.862  0.1915  0.2148 -0.7670
 4269TIP3    H212744   1.237   4.886   1.712  0.5221 -0.9804 -0.8924
 4270TIP3   OH212745   7.936   6.100   1.883  0.2931 -0.7415 -0.3587
 4270TIP3    H112746   8.018   6.051   1.881 -0.2298 -1.6035 -1.5418
 4270TIP3    H212747   7.915   6.115   1.791 -0.0539  0.8857 -0.0252
 4271TIP3   OH212748   2.535   7.342   3.602  0.0927 -0.3803 -0.6600
 4271TIP3    H112749   2.521   7.388   3.685  0.6935 -2.5803  0.7040
 4271TIP3    H212750   2.577   7.406   3.546  0.2148  0.9753  0.9337
 4272TIP3   OH212751   1.664   4.539   3.843  0.1426 -0.3291  0.0395
 4272TIP3    H112752   1.661   4.575   3.932 -0.4184 -0.5913  0.1215
 4272TIP3    H212753   1.640   4.447   3.853 -1.3296 -0.0150 -0.5775
 4273TIP3   OH212754   2.071   4.649   2.111  0.0159  0.3139 -0.1398
 4273TIP3    H112755   2.098   4.614   2.026 -1.9227  0.2370 -0.7582
 4273TIP3    H212756   2.119   4.731   2.120  0.7642 -0.0222 -0.9945
 4274TIP3   OH212757   1.192   4.030   2.705 -0.0517  0.1427 -0.2795
 4274TIP3    H112758   1.134   4.103   2.727 -0.4074  0.2980 -1.7040
 4274TIP3    H212759   1.268   4.071   2.663  0.1213 -0.2420 -0.3506
 4275TIP3   OH212760   0.455   7.676   4.465  0.0342 -0.3825  0.5321
 4275TIP3    H112761   0.361   7.664   4.455  0.1584  0.9871 -2.8019
 4275TIP3    H212762   0.473   7.763   4.428  2.6939 -0.9753  0.3140
 4276TIP3   OH212763   1.767   4.338   5.117  1.3255  0.1698  0.2758
 4276TIP3    H112764   1.809   4.424   5.109  2.6006 -0.4914 -0.1192
 4276TIP3    H212765   1.675   4.359   5.136  1.4176  1.6256 -0.7867
 4277TIP3   OH212766   4.450   0.716   6.306  0.2605 -0.3130 -0.4887
 4277TIP3    H112767   4.364   0.750   6.280 -0.1395 -0.2470  0.8966
 4277TIP3    H212768   4.439   0.621   6.303  0.6982 -0.3372 -2.0997
 4278TIP3   OH212769   0.766   4.737   4.635 -0.5006 -0.1333 -0.4966
 4278TIP3    H112770   0.806   4.796   4.699  1.0017  0.4245 -1.8976
 4278TIP3    H212771   0.833   4.670   4.619 -1.2621 -0.8543 -0.7044
 4279TIP3   OH212772   0.984   3.991   0.275  0.1125  0.8903  0.4981
 4279TIP3    H112773   1.021   3.959   0.194  0.3314  0.1639  0.8825
 4279TIP3    H212774   0.912   4.048   0.248  0.3507  0.8560 -0.2037
 4280TIP3   OH212775   8.502   5.656   2.627  0.2954 -0.2023 -0.4868
 4280TIP3    H112776   8.533   5.709   2.554  2.5515 -2.0629 -0.9407
 4280TIP3    H212777   8.458   5.582   2.585 -1.0752  0.2609  0.1085
 4281TIP3   OH212778   0.690   6.982   2.103 -0.6325  0.0193 -0.5924
 4281TIP3    H112779   0.731   6.997   2.189 -3.2824  2.0778  0.3832
 4281TIP3    H212780   0.655   6.893   2.109 -0.7035  0.1073  0.4195
 4282TIP3   OH212781   0.288   2.576   4.337 -0.4050 -0.0920  0.2676
 4282TIP3    H112782   0.267   2.517   4.264  0.3352 -0.1019  0.0630
 4282TIP3    H212783   0.204   2.616   4.360 -0.6499 -0.1058 -0.5761
 4283TIP3   OH212784   1.351   6.656   4.143 -0.4147  0.3139 -0.2056
 4283TIP3    H112785   1.303   6.670   4.061 -0.4978  1.1284 -0.0247
 4283TIP3    H212786   1.389   6.569   4.134  0.3530  0.7615 -1.5276
 4284TIP3   OH212787   1.986   5.950   2.405 -0.0538 -0.4524  0.3768
 4284TIP3    H112788   1.918   5.973   2.469  0.2034  0.3903  0.3581
 4284TIP3    H212789   2.044   6.026   2.404  0.0619 -0.5506 -0.7039
 4285TIP3   OH212790   6.849   5.939   1.950  0.6972  0.3924 -0.2180
 4285TIP3    H112791   6.806   5.942   2.035  1.0966  2.3983 -0.0512
 4285TIP3    H212792   6.825   5.854   1.913 -0.4580  0.0086  1.3826
 4286TIP3   OH212793   1.822   4.467   5.381  0.4625 -0.1289 -0.0716
 4286TIP3    H112794   1.890   4.534   5.376  1.0644 -0.9226 -3.7858
 4286TIP3    H212795   1.843   4.407   5.310 -1.6611 -2.7773  1.4477
 4287TIP3   OH212796   1.030   5.365   1.643  0.0556 -0.0230 -0.0814
 4287TIP3    H112797   1.029   5.301   1.715 -0.8131 -0.4426 -0.4565
 4287TIP3    H212798   0.945   5.409   1.649 -0.3228 -0.5731 -1.2952
 4288TIP3   OH212799   6.837   5.705   3.490 -0.3704 -0.2545 -0.4135
 4288TIP3    H112800   6.842   5.775   3.555 -1.9874 -0.7422  0.2606
 4288TIP3    H212801   6.782   5.639   3.530  1.1559 -1.9472 -1.0380
 4289TIP3   OH212802   1.356   6.312   4.806 -0.2003 -0.2626 -0.2984
 4289TIP3    H112803   1.390   6.286   4.720 -1.8420 -0.4361 -0.9020
 4289TIP3    H212804   1.368   6.407   4.808  0.7350 -0.3735 -0.3126
 4290TIP3   OH212805   0.452   5.426   3.284 -0.0375  0.3677  0.4238
 4290TIP3    H112806   0.535   5.381   3.279  0.3160  1.1184 -0.5024
 4290TIP3    H212807   0.430   5.449   3.194 -1.5506 -0.3540  0.5798
 4291TIP3   OH212808   0.297   5.139   3.204 -0.0555 -0.6327 -0.1033
 4291TIP3    H112809   0.342   5.085   3.268 -1.3923  1.2295  2.4788
 4291TIP3    H212810   0.363   5.202   3.174 -0.1038  0.1272  1.3705
 4292TIP3   OH212811   0.838   6.154   2.543 -1.0119  0.0689 -0.1710
 4292TIP3    H112812   0.920   6.106   2.529 -1.3095 -0.7867  0.9443
 4292TIP3    H212813   0.808   6.176   2.455  0.4104  0.3749 -0.5910
 4293TIP3   OH212814   8.385   4.832   2.120 -0.4164  0.1303 -0.6098
 4293TIP3    H112815   8.381   4.772   2.046  0.6049  1.8773 -2.1027
 4293TIP3    H212816   8.304   4.883   2.115 -2.4734 -2.6970  2.0850
 4294TIP3   OH212817   1.369   7.434   4.582  0.3257 -0.3446  0.3132
 4294TIP3    H112818   1.358   7.428   4.677  0.8743 -0.3723  0.3773
 4294TIP3    H212819   1.464   7.437   4.569  0.2718 -1.0652 -0.2786
 4295TIP3   OH212820   1.823   5.680   3.500 -0.5447  0.4233  0.2797
 4295TIP3    H112821   1.854   5.673   3.410  2.7591 -1.5074  1.4942
 4295TIP3    H212822   1.784   5.594   3.518  1.6791 -0.3361  1.6586
 4296TIP3   OH212823   1.867   5.670   1.993  0.3989 -0.0693 -0.0322
 4296TIP3    H112824   1.825   5.747   1.954 -0.2442 -1.6617 -2.6168
 4296TIP3    H212825   1.884   5.695   2.083 -1.3156  2.5146 -0.3717
 4297TIP3   OH212826   8.325   5.715   4.264  0.4571  0.0584  0.5626
 4297TIP3    H112827   8.303   5.633   4.221 -0.7573  0.5082  0.3157
 4297TIP3    H212828   8.397   5.751   4.212  0.9861 -0.8154  0.6600
 4298TIP3   OH212829   3.012   6.177   2.372  0.0075  0.1122  0.0062
 4298TIP3    H112830   2.953   6.234   2.323 -0.9613 -1.3760 -0.5804
 4298TIP3    H212831   3.010   6.211   2.461 -1.7570  0.0782 -0.0044
 4299TIP3   OH212832   1.160   7.134   3.844  0.2337  0.3223  0.1043
 4299TIP3    H112833   1.192   7.204   3.787 -0.0295  0.7171  0.4380
 4299TIP3    H212834   1.239   7.095   3.882  0.4619 -0.5902 -1.2907
 4300TIP3   OH212835   1.505   4.279   1.383  0.4578 -0.4335  0.2483
 4300TIP3    H112836   1.451   4.240   1.452 -1.4778  0.3543 -0.7732
 4300TIP3    H212837   1.450   4.276   1.305  2.2487 -0.4144 -1.0481
 4301TIP3   OH212838   1.765   5.223   3.318 -0.6932 -0.0467 -0.4673
 4301TIP3    H112839   1.851   5.236   3.358 -0.2961  1.7052 -1.8459
 4301TIP3    H212840   1.770   5.136   3.279  0.8665  0.4967 -1.5168
 4302TIP3   OH212841   7.179   2.953   6.706  0.3189 -0.0622 -0.0539
 4302TIP3    H112842   7.124   2.929   6.632  0.5639 -1.2225  0.1279
 4302TIP3    H212843   7.148   2.899   6.778 -0.4366  1.6401  0.9094
 4303TIP3   OH212844   0.757   6.428   2.644  0.2223  0.1787 -0.1920
 4303TIP3    H112845   0.671   6.400   2.613  0.5574 -0.9742 -0.1116
 4303TIP3    H212846   0.818   6.363   2.607  1.1223  1.2670 -0.6724
 4304TIP3   OH212847   3.303   6.150   2.487  0.1648  0.4847  0.2554
 4304TIP3    H112848   3.360   6.222   2.459 -2.7984  2.4962 -1.0105
 4304TIP3    H212849   3.223   6.194   2.517 -1.8371 -2.2717 -0.8074
 4305TIP3   OH212850   2.845   5.265   4.175 -0.4244  0.0983 -0.6865
 4305TIP3    H112851   2.904   5.322   4.224 -1.2836 -0.8763  1.5512
 4305TIP3    H212852   2.897   5.188   4.154  0.9421  1.8807 -4.2960
 4306TIP3   OH212853   0.643   6.116   3.582  0.1565  0.7641 -0.0645
 4306TIP3    H112854   0.675   6.079   3.500 -0.0317  0.0609  0.1771
 4306TIP3    H212855   0.689   6.067   3.650 -1.4178 -0.2554  0.2828
 4307TIP3   OH212856   1.590   5.208   3.560  0.3812  0.2988  0.6797
 4307TIP3    H112857   1.612   5.217   3.467 -2.5474  1.0252  0.0126
 4307TIP3    H212858   1.580   5.113   3.573  2.7410  0.0276  0.7713
 4308TIP3   OH212859   1.593   5.917   3.004 -0.4042  0.5362  0.0829
 4308TIP3    H112860   1.662   5.956   3.059 -1.5578 -0.2685  2.1504
 4308TIP3    H212861   1.538   5.991   2.980 -0.1775  0.8244  0.4332
 4309TIP3   OH212862   0.142   6.323   2.954 -0.1215  0.2361 -0.0413
 4309TIP3    H112863   0.217   6.346   2.898 -1.0329 -0.2929 -1.5292
 4309TIP3    H212864   0.152   6.377   3.032  1.6950  0.3196 -0.3105
 4310TIP3   OH212865   1.975   6.087   5.181 -0.3571 -0.2523  0.1891
 4310TIP3    H112866   1.896   6.140   5.185 -0.6176 -0.5501 -0.8801
 4310TIP3    H212867   2.021   6.105   5.263  0.1105  2.4650 -0.6346
 4311TIP3   OH212868   1.211   5.715   4.072  0.0626 -0.4736 -0.9009
 4311TIP3    H112869   1.185   5.797   4.031  0.0002 -1.5252 -3.0122
 4311TIP3    H212870   1.285   5.685   4.019  1.0453 -1.0455  0.7626
 4312TIP3   OH212871   3.516   6.609   0.619 -0.4158 -0.2670  0.4683
 4312TIP3    H112872   3.500   6.699   0.647 -0.1489  0.0863 -0.4809
 4312TIP3    H212873   3.603   6.588   0.654 -0.6735 -0.3111  1.0758
 4313TIP3   OH212874   1.891   7.228   3.302 -0.4780 -0.7989 -0.0864
 4313TIP3    H112875   1.822   7.252   3.365 -0.9059  3.1393 -1.9337
 4313TIP3    H212876   1.848   7.168   3.241 -1.4886 -0.5570  0.3755
 4314TIP3   OH212877   1.322   5.089   3.293  0.5487 -0.3493  0.1330
 4314TIP3    H112878   1.359   5.117   3.377  0.0808  1.2212 -0.1733
 4314TIP3    H212879   1.236   5.130   3.289  1.0418  0.6021 -1.6307
 4315TIP3   OH212880   1.847   4.445   3.005 -0.2805 -0.4119  0.3366
 4315TIP3    H112881   1.870   4.534   2.978 -1.0792  0.1304  1.4079
 4315TIP3    H212882   1.901   4.429   3.083  2.8116 -2.3662 -2.0986
 4316TIP3   OH212883   2.183   4.384   2.204  0.1311  0.4177  0.1904
 4316TIP3    H112884   2.123   4.403   2.276  1.1699  2.5759  0.5426
 4316TIP3    H212885   2.197   4.469   2.162  0.7586 -0.5575 -1.5893
 4317TIP3   OH212886   0.552   6.008   2.168  0.3486 -0.0068 -0.0253
 4317TIP3    H112887   0.625   5.950   2.192  0.5164  0.2021 -0.0338
 4317TIP3    H212888   0.505   5.958   2.101 -0.2142 -0.6502  0.8415
 4318TIP3   OH212889   3.609   7.173   2.664  0.7119  0.1572  0.1058
 4318TIP3    H112890   3.681   7.177   2.601  0.1792 -1.3054 -0.6306
 4318TIP3    H212891   3.568   7.259   2.659  1.5396  0.5224 -0.5221
 4319TIP3   OH212892   4.171   5.630   2.053 -0.3201  0.2878  0.2853
 4319TIP3    H112893   4.082   5.607   2.079 -0.6615  0.6262 -0.5830
 4319TIP3    H212894   4.221   5.631   2.135 -0.4704 -2.7234  0.4456
 4320TIP3   OH212895   1.649   5.687   4.413  0.2149 -0.1105 -0.0183
 4320TIP3    H112896   1.710   5.678   4.339  1.2995  2.6226  0.4783
 4320TIP3    H212897   1.570   5.725   4.375 -1.1237 -3.3258 -0.5981
 4321TIP3   OH212898   2.090   5.828   1.618  0.3303  0.1323  0.0627
 4321TIP3    H112899   2.121   5.827   1.528  4.5382  1.3842  1.3866
 4321TIP3    H212900   2.042   5.911   1.626  1.2785  0.7569 -0.6327
 4322TIP3   OH212901   1.784   6.953   3.499  0.2626 -0.1586  0.3480
 4322TIP3    H112902   1.745   7.033   3.463 -0.7443 -0.4903  0.6815
 4322TIP3    H212903   1.709   6.894   3.513  0.9639 -1.0462  0.3825
 4323TIP3   OH212904   2.050   7.648   4.875  0.5060  0.6583  0.0484
 4323TIP3    H112905   2.009   7.734   4.864 -0.8409 -0.0703 -0.8115
 4323TIP3    H212906   2.131   7.666   4.922  0.2514  2.4041 -0.1365
 4324TIP3   OH212907   0.934   5.952   0.867  0.1783  0.5357 -0.2220
 4324TIP3    H112908   0.933   5.882   0.802  1.4598  0.1436  0.1713
 4324TIP3    H212909   0.847   5.991   0.861 -0.5795 -1.1236 -0.4134
 4325TIP3   OH212910   8.240   5.795   1.620 -0.4345  0.2416 -0.3675
 4325TIP3    H112911   8.166   5.788   1.559 -0.2673 -1.3424 -0.4095
 4325TIP3    H212912   8.297   5.723   1.597  0.3785  0.5330  0.6894
 4326TIP3   OH212913   1.635   5.456   2.038 -0.4831  0.2121  0.1678
 4326TIP3    H112914   1.701   5.521   2.015 -0.1148  0.1295  0.9713
 4326TIP3    H212915   1.600   5.427   1.954  0.2786  0.4931 -0.2543
 4327TIP3   OH212916   2.202   6.067   3.867  0.2413  0.0531  0.0054
 4327TIP3    H112917   2.268   6.004   3.895  0.6740  0.5528  0.0999
 4327TIP3    H212918   2.125   6.044   3.920 -0.2665 -1.7277 -1.4347
 4328TIP3   OH212919   3.908   5.457   2.340  0.2085  0.1286  0.2703
 4328TIP3    H112920   3.919   5.552   2.339 -1.9262  0.4648  2.5270
 4328TIP3    H212921   3.826   5.441   2.293  1.3276 -0.7604 -1.4273
 4329TIP3   OH212922   3.287   6.055   4.053 -0.0897  0.3803  0.6470
 4329TIP3    H112923   3.255   5.972   4.087 -0.1784  0.0597 -0.2259
 4329TIP3    H212924   3.340   6.032   3.977 -2.0974  1.2838 -1.0706
 4330TIP3   OH212925   2.774   4.572   3.705 -0.8932  0.3325  0.0534
 4330TIP3    H112926   2.740   4.601   3.620  0.5054  0.6700 -0.4184
 4330TIP3    H212927   2.845   4.633   3.724 -0.1457 -0.7215  0.6861
 4331TIP3   OH212928   0.949   6.113   2.092 -0.2541 -0.5317  0.2944
 4331TIP3    H112929   1.036   6.091   2.125  1.1424  1.5778 -1.7750
 4331TIP3    H212930   0.951   6.088   1.999 -1.4733  0.5234 -0.0344
 4332TIP3   OH212931   1.938   6.406   2.043  0.2129  0.2628 -0.2600
 4332TIP3    H112932   1.847   6.425   2.019 -0.0810 -0.2923  0.3911
 4332TIP3    H212933   1.985   6.486   2.023 -0.2383  0.2002 -1.5827
 4333TIP3   OH212934   8.309   6.642   3.762  0.1782 -0.5528  0.1167
 4333TIP3    H112935   8.389   6.613   3.806 -0.0018  0.0933  0.9008
 4333TIP3    H212936   8.239   6.594   3.805 -0.2299  1.7632  2.1703
 4334TIP3   OH212937   1.664   6.357   2.227  0.3941 -0.0264  0.0025
 4334TIP3    H112938   1.656   6.431   2.287 -2.0751  0.3606 -0.7354
 4334TIP3    H212939   1.751   6.366   2.190  0.9321  1.2815  1.5243
 4335TIP3   OH212940   0.495   6.406   6.398 -0.1390  0.0528  0.1158
 4335TIP3    H112941   0.560   6.359   6.345  0.2073  0.7709 -0.1027
 4335TIP3    H212942   0.488   6.492   6.357 -0.5439  0.3014  0.6979
 4336TIP3   OH212943   1.640   7.022   2.146 -0.0919 -0.2591  0.5827
 4336TIP3    H112944   1.558   7.029   2.097 -0.3978  0.0560  1.1309
 4336TIP3    H212945   1.690   7.100   2.120  0.3428 -0.8280 -0.3060
 4337TIP3   OH212946   1.418   6.054   3.239  0.1363  0.3471  0.0443
 4337TIP3    H112947   1.446   6.143   3.260 -1.5373  1.0970 -0.8092
 4337TIP3    H212948   1.366   6.064   3.159 -3.1247 -0.8806  1.9320
 4338TIP3   OH212949   2.626   5.430   1.316 -0.3872  0.0959  0.2423
 4338TIP3    H112950   2.547   5.408   1.366 -0.4143  0.1187  0.2092
 4338TIP3    H212951   2.595   5.451   1.228 -0.4278  0.8157  0.4200
 4339TIP3   OH212952   4.891   0.557   3.758  0.1323  0.2474  0.2684
 4339TIP3    H112953   4.940   0.626   3.801 -1.2977  2.1326 -1.0265
 4339TIP3    H212954   4.803   0.562   3.797 -1.2654  2.1579 -2.8997
 4340TIP3   OH212955   2.722   5.826   1.952 -0.3840  0.6074 -0.1488
 4340TIP3    H112956   2.775   5.906   1.955 -1.2815  1.3047 -1.8842
 4340TIP3    H212957   2.756   5.778   1.876 -1.4561  0.5293 -0.5985
 4341TIP3   OH212958   2.224   4.867   5.382 -0.4858  0.2596  0.3837
 4341TIP3    H112959   2.261   4.799   5.327 -0.6152 -0.2752  0.9442
 4341TIP3    H212960   2.143   4.893   5.338 -0.1913  0.4004 -0.0824
 4342TIP3   OH212961   2.807   7.325   3.186  0.0839  0.3046  0.3963
 4342TIP3    H112962   2.832   7.291   3.272  0.2297  1.5540  0.8529
 4342TIP3    H212963   2.879   7.300   3.128 -0.0659 -0.6337  0.6048
 4343TIP3   OH212964   4.679   0.819   3.348  0.1925  0.5732  0.3710
 4343TIP3    H112965   4.600   0.873   3.348 -0.4186 -0.2866  1.9810
 4343TIP3    H212966   4.712   0.825   3.258 -1.2150  1.6477 -0.0933
 4344TIP3   OH212967   2.000   7.300   0.938  0.0563 -0.6248 -0.4665
 4344TIP3    H112968   1.993   7.309   0.843  0.8635 -0.0572 -0.4822
 4344TIP3    H212969   2.094   7.290   0.954  0.0585  0.6423  0.3888
 4345TIP3   OH212970   2.152   4.769   1.198  0.0304  0.2596  0.1350
 4345TIP3    H112971   2.123   4.747   1.109 -0.7860  1.6606  0.0436
 4345TIP3    H212972   2.079   4.740   1.254  1.1830 -2.0179  0.5154
 4346TIP3   OH212973   7.427   6.059   3.967 -0.6346  0.0915 -0.2393
 4346TIP3    H112974   7.377   5.984   3.934 -1.7609  1.3095 -1.3334
 4346TIP3    H212975   7.482   6.085   3.893 -1.4178  1.3274 -0.3998
 4347TIP3   OH212976   3.540   5.441   2.423  0.3837 -0.1252 -0.3231
 4347TIP3    H112977   3.525   5.530   2.391  1.9686  0.3234  0.1390
 4347TIP3    H212978   3.475   5.430   2.493 -2.5457 -0.8137 -2.9901
 4348TIP3   OH212979   0.136   5.168   0.607 -0.0000 -0.1795 -0.3810
 4348TIP3    H112980   0.144   5.227   0.532 -0.1182 -1.0805 -1.1182
 4348TIP3    H212981   0.225   5.158   0.639  0.3365 -1.3649 -1.6453
 4349TIP3   OH212982   3.793   5.448   1.872  0.1399 -0.6569 -0.3766
 4349TIP3    H112983   3.768   5.472   1.782  1.3758 -0.2673 -0.6209
 4349TIP3    H212984   3.773   5.525   1.924 -1.3706 -1.1719 -0.1516
 4350TIP3   OH212985   1.289   6.408   5.113  0.2913  0.0262 -0.3809
 4350TIP3    H112986   1.236   6.361   5.177 -0.1530  1.1480  0.0731
 4350TIP3    H212987   1.375   6.417   5.154 -0.3928  2.0065  0.6679
 4351TIP3   OH212988   1.719   5.439   3.589 -0.4928 -0.3897 -0.0130
 4351TIP3    H112989   1.670   5.400   3.662  0.2870 -2.2940 -0.4644
 4351TIP3    H212990   1.721   5.370   3.523  1.0736  0.3829 -0.7956
 4352TIP3   OH212991   0.761   4.197   3.729  0.4634  0.1406 -0.4737
 4352TIP3    H112992   0.763   4.246   3.647 -3.0754 -0.4034 -0.9790
 4352TIP3    H212993   0.723   4.257   3.792  1.2828 -0.1153  0.2708
 4353TIP3   OH212994   2.303   6.254   2.193 -0.6572  0.3350  0.0665
 4353TIP3    H112995   2.354   6.213   2.263 -2.3768  0.8225  1.6350
 4353TIP3    H212996   2.367   6.307   2.145  0.7187 -0.7068  0.7226
 4354TIP3   OH212997   3.729   3.637   2.895 -0.3694 -0.1899 -0.2068
 4354TIP3    H112998   3.669   3.568   2.925 -0.3734  0.1507  0.5545
 4354TIP3    H212999   3.801   3.635   2.958 -1.1450  1.5928  0.7560
 4355TIP3   OH213000   3.687   4.938   3.958  0.2945 -0.3848  0.2719
 4355TIP3    H113001   3.720   4.873   4.020  0.9393 -0.0508  0.2830
 4355TIP3    H213002   3.682   4.891   3.874  1.5551 -0.2258  0.0991
 4356TIP3   OH213003   2.360   7.294   4.833  0.3055 -0.3231  0.4029
 4356TIP3    H113004   2.299   7.235   4.877 -0.4822  1.8946  2.4327
 4356TIP3    H213005   2.317   7.318   4.751 -1.2092  0.5719  1.4390
 4357TIP3   OH213006   2.532   4.570   4.896  0.1318 -0.8726  0.9566
 4357TIP3    H113007   2.557   4.482   4.868 -1.0512 -0.4116 -1.6250
 4357TIP3    H213008   2.557   4.627   4.824  1.2336  0.9925  2.7590
 4358TIP3   OH213009   2.874   3.415   3.462  0.0012 -0.4069  0.2285
 4358TIP3    H113010   2.798   3.362   3.488 -0.6473  0.1233 -0.5376
 4358TIP3    H213011   2.881   3.481   3.531 -1.4851  0.7686 -0.6992
 4359TIP3   OH213012   0.579   6.112   5.501 -0.2071  0.4117 -0.4520
 4359TIP3    H113013   0.556   6.036   5.447 -1.2285 -0.6969  1.4956
 4359TIP3    H213014   0.673   6.122   5.489 -0.1649 -0.7701 -1.2048
 4360TIP3   OH213015   2.084   5.747   4.287 -0.0677  0.2323 -0.2727
 4360TIP3    H113016   2.016   5.688   4.254 -0.6945 -0.6849  2.5607
 4360TIP3    H213017   2.163   5.693   4.288  0.0176  0.3506 -0.5188
 4361TIP3   OH213018   2.447   6.335   6.281  0.2477  0.2322  0.8793
 4361TIP3    H113019   2.356   6.308   6.295 -0.0324  0.4558 -0.4307
 4361TIP3    H213020   2.499   6.270   6.329 -0.4610 -2.0742 -1.3555
 4362TIP3   OH213021   3.350   5.359   1.844 -0.0514  0.6646 -0.3522
 4362TIP3    H113022   3.345   5.266   1.864 -0.2201  0.2948 -2.0411
 4362TIP3    H213023   3.440   5.374   1.817  0.2485  1.2164  0.8991
 4363TIP3   OH213024   0.210   5.706   3.298  0.4603 -0.2384  0.5170
 4363TIP3    H113025   0.304   5.712   3.315  0.5537 -0.3442  0.0484
 4363TIP3    H213026   0.187   5.791   3.261  0.2715 -0.0324  1.0959
 4364TIP3   OH213027   4.349   4.929   2.610 -0.5511 -0.0426  0.4046
 4364TIP3    H113028   4.305   5.012   2.627 -1.0223 -0.2748  0.3129
 4364TIP3    H213029   4.434   4.954   2.573 -0.4110  0.4112  1.0223
 4365TIP3   OH213030   0.274   6.979   3.751  0.3762 -0.5771 -0.4383
 4365TIP3    H113031   0.231   6.990   3.836  0.4321 -1.1859 -0.3314
 4365TIP3    H213032   0.211   7.014   3.688  0.7127  0.7155 -0.0712
 4366TIP3   OH213033   1.900   5.543   5.174 -0.5198 -0.0506 -0.2432
 4366TIP3    H113034   1.911   5.606   5.103 -1.0960 -0.1535 -0.4241
 4366TIP3    H213035   1.956   5.469   5.150  0.6296  0.6491  0.2696
 4367TIP3   OH213036   0.885   6.018   4.996 -0.3254 -0.3556 -0.6584
 4367TIP3    H113037   0.832   5.972   4.931 -2.1398  1.0087 -0.1878
 4367TIP3    H213038   0.924   6.091   4.948  0.7977 -1.1144 -0.9055
 4368TIP3   OH213039   1.008   4.817   2.315  0.0487  0.3028  0.3066
 4368TIP3    H113040   1.088   4.765   2.308  0.3428  0.8266 -0.3249
 4368TIP3    H213041   1.039   4.907   2.323 -0.4248  0.3253  2.3140
 4369TIP3   OH213042   2.950   4.034   2.715  0.1417 -0.3544  0.5768
 4369TIP3    H113043   2.902   4.114   2.695 -1.5177 -1.4556 -0.0239
 4369TIP3    H213044   2.938   4.022   2.809  1.8055  0.9692  0.9757
 4370TIP3   OH213045   1.540   3.782   1.202 -0.7198 -0.5874  0.0076
 4370TIP3    H113046   1.601   3.725   1.155  1.6549  1.5583  0.3582
 4370TIP3    H213047   1.589   3.864   1.213 -3.5246  1.0224  0.7496
 4371TIP3   OH213048   2.237   8.030   1.919  0.3653 -0.2938  0.0032
 4371TIP3    H113049   2.147   8.012   1.947 -0.1764 -1.0713 -2.1337
 4371TIP3    H213050   2.289   7.961   1.959 -0.3732 -1.3094 -0.7716
 4372TIP3   OH213051   0.676   7.304   1.427 -0.1163 -0.1464 -0.0760
 4372TIP3    H113052   0.667   7.386   1.476 -0.2927  0.6890 -1.4664
 4372TIP3    H213053   0.601   7.305   1.367 -2.3587 -3.2046  2.4948
 4373TIP3   OH213054   1.481   6.191   2.179 -0.0082  0.5250  0.6492
 4373TIP3    H113055   1.553   6.250   2.201  2.1575 -1.4621 -0.9112
 4373TIP3    H213056   1.490   6.119   2.242 -0.1728 -0.1135 -0.0595
 4374TIP3   OH213057   1.555   4.587   4.624  0.3553  0.5734  0.4191
 4374TIP3    H113058   1.497   4.523   4.582  1.1652 -0.2439  0.5368
 4374TIP3    H213059   1.634   4.587   4.571  1.2371 -0.1869  1.6925
 4375TIP3   OH213060   2.932   5.782   3.640  0.5474  0.1490 -0.3443
 4375TIP3    H113061   2.982   5.711   3.602  0.0421 -0.1462 -0.4663
 4375TIP3    H213062   2.852   5.786   3.587 -0.1048 -0.1827  0.5913
 4376TIP3   OH213063   0.761   6.166   2.283  0.2763 -0.0150 -0.5888
 4376TIP3    H113064   0.820   6.138   2.213 -1.0099  0.2519 -1.7822
 4376TIP3    H213065   0.674   6.169   2.242 -0.5013  0.0576  1.0300
 4377TIP3   OH213066   1.084   4.652   1.221  0.7875 -0.4988  0.4572
 4377TIP3    H113067   1.170   4.641   1.262  1.3116  0.1224 -0.4734
 4377TIP3    H213068   1.075   4.577   1.163  0.7127 -0.5380  0.5186
 4378TIP3   OH213069   1.224   6.708   3.895  0.3934 -0.3202  0.1644
 4378TIP3    H113070   1.273   6.660   3.827  0.8406  0.3687 -0.0143
 4378TIP3    H213071   1.270   6.792   3.901 -2.1134  1.2575 -1.6341
 4379TIP3   OH213072   1.478   7.647   3.032  0.2307  0.2338  0.1926
 4379TIP3    H113073   1.519   7.733   3.038  0.8437 -0.1260  1.4940
 4379TIP3    H213074   1.532   7.598   2.971  0.2538  0.5722 -0.0579
 4380TIP3   OH213075   2.012   5.258   3.408 -0.1585 -0.1097  0.1560
 4380TIP3    H113076   2.072   5.331   3.392 -2.3218  1.6036 -0.4181
 4380TIP3    H213077   2.066   5.180   3.395  2.0672  1.3582  0.1753
 4381TIP3   OH213078   8.429   6.066   3.469 -0.2450  0.6092  0.4138
 4381TIP3    H113079   8.500   6.026   3.519  2.3540  2.5714 -1.5736
 4381TIP3    H213080   8.388   6.128   3.531  1.9889  1.9462  0.6063
 4382TIP3   OH213081   0.979   3.298   1.291 -0.6454 -0.2217 -0.0068
 4382TIP3    H113082   1.014   3.254   1.369  0.3875  1.7653  0.6849
 4382TIP3    H213083   1.055   3.309   1.234 -1.0418 -0.0287 -0.4982
 4383TIP3   OH213084   1.988   5.159   4.706 -0.1721 -0.3432  0.0141
 4383TIP3    H113085   1.985   5.236   4.650 -1.4828  0.5910  1.3333
 4383TIP3    H213086   2.069   5.169   4.756 -0.2675  0.1127  0.0803
 4384TIP3   OH213087   5.159   0.070   4.018 -0.1271 -0.3152 -0.3232
 4384TIP3    H113088   5.163   0.074   3.923  0.5335  0.0062 -0.2885
 4384TIP3    H213089   5.098   0.140   4.042  0.4387  0.2362 -0.4661
 4385TIP3   OH213090   1.690   6.882   2.578  0.0264  0.1165 -0.2522
 4385TIP3    H113091   1.601   6.876   2.543  0.2237 -1.2065 -0.5378
 4385TIP3    H213092   1.742   6.915   2.505  0.0565 -0.6264 -0.5672
 4386TIP3   OH213093   1.226   6.598   1.869  0.0812 -0.6838 -0.2619
 4386TIP3    H113094   1.155   6.659   1.851 -0.5947 -1.3353  0.1571
 4386TIP3    H213095   1.192   6.542   1.939  1.0550 -0.9189  0.0260
 4387TIP3   OH213096   4.430   7.299   2.635  0.0020 -0.3377  0.4863
 4387TIP3    H113097   4.412   7.218   2.683 -1.8011 -0.1032  0.2577
 4387TIP3    H213098   4.390   7.367   2.689  0.2704  0.2263 -0.0330
 4388TIP3   OH213099   1.803   3.924   2.424 -0.1660  0.1494 -0.5587
 4388TIP3    H113100   1.781   3.916   2.516 -0.2130  0.3432 -0.5531
 4388TIP3    H213101   1.889   3.965   2.423  0.9076 -2.0149 -0.5389
 4389TIP3   OH213102   3.076   5.456   2.766 -0.1385 -0.1182  0.0398
 4389TIP3    H113103   3.105   5.372   2.729  1.0746  0.0692  0.5658
 4389TIP3    H213104   2.981   5.457   2.749 -0.1399 -1.5061 -0.1481
 4390TIP3   OH213105   2.953   6.591   1.526 -0.0332 -0.0590  0.0128
 4390TIP3    H113106   2.896   6.668   1.528 -0.8939 -0.6802 -0.2781
 4390TIP3    H213107   2.928   6.541   1.604  0.6961  0.0748  0.3346
 4391TIP3   OH213108   2.244   5.544   3.070  0.4689  0.4064 -0.2682
 4391TIP3    H113109   2.274   5.470   3.017  0.4543  0.1380  0.0889
 4391TIP3    H213110   2.282   5.621   3.029  0.0692  0.2421 -0.9387
 4392TIP3   OH213111   4.023   1.235   6.820  0.5568 -0.2683  0.4574
 4392TIP3    H113112   4.046   1.165   6.758  0.0584 -0.1021  0.0836
 4392TIP3    H213113   4.101   1.245   6.875  1.5387  0.5226 -1.0283
 4393TIP3   OH213114   3.871   4.978   3.082  0.0244  0.5218  0.6651
 4393TIP3    H113115   3.861   4.936   2.997  1.4923  0.7023  0.4008
 4393TIP3    H213116   3.908   4.911   3.138  1.3268  1.1146  0.5292
 4394TIP3   OH213117   0.973   6.672   0.982  0.4443  0.1997  0.2108
 4394TIP3    H113118   1.023   6.628   1.052 -1.4125  0.3161  1.6499
 4394TIP3    H213119   0.959   6.761   1.016 -0.9148  0.1000 -0.0620
 4395TIP3   OH213120   1.506   5.348   2.651  0.2825 -0.3020  1.0888
 4395TIP3    H113121   1.461   5.424   2.687  0.2076 -0.1397  0.6526
 4395TIP3    H213122   1.595   5.380   2.634 -0.6323  0.6739 -2.2603
 4396TIP3   OH213123   3.831   4.355   1.416  0.2027  0.6703 -0.5845
 4396TIP3    H113124   3.753   4.374   1.469  0.1951  0.7405 -0.6205
 4396TIP3    H213125   3.904   4.365   1.477  0.0891 -0.8469 -0.1733
 4397TIP3   OH213126   1.561   5.034   3.159 -0.0655 -0.2214 -0.2476
 4397TIP3    H113127   1.482   5.037   3.212 -0.4856 -0.8296 -0.8223
 4397TIP3    H213128   1.546   5.100   3.090  0.9468  1.3529  1.0072
 4398TIP3   OH213129   3.260   6.889   1.624  0.1138 -0.3573 -0.3470
 4398TIP3    H113130   3.284   6.848   1.706 -1.4458 -0.4090  0.1060
 4398TIP3    H213131   3.218   6.972   1.650  2.0582  0.9379 -1.1904
 4399TIP3   OH213132   1.337   4.321   3.176  0.0345 -0.1863 -0.0227
 4399TIP3    H113133   1.393   4.397   3.162  1.3888 -1.0923  0.3366
 4399TIP3    H213134   1.356   4.263   3.102 -1.2399 -0.0300 -0.4793
 4400TIP3   OH213135   1.812   5.250   2.128 -0.4321  0.1698  0.4715
 4400TIP3    H113136   1.895   5.283   2.092  0.4612 -1.0979  1.3131
 4400TIP3    H213137   1.748   5.319   2.109  1.1263  1.8410  1.1154
 4401TIP3   OH213138   0.400   7.241   0.536 -0.4129 -0.2620 -0.3190
 4401TIP3    H113139   0.433   7.178   0.600 -0.7101  1.8252  1.9615
 4401TIP3    H213140   0.310   7.259   0.564 -0.0256  1.8721 -0.3236
 4402TIP3   OH213141   6.561   0.050   3.936  0.1608  0.5890  0.3507
 4402TIP3    H113142   6.491   0.094   3.887  0.4765  0.7046  0.0028
 4402TIP3    H213143   6.602   0.120   3.987  0.5994  0.6774 -0.1272
 4403TIP3   OH213144   0.291   5.156   2.912 -0.1945 -0.6186 -0.2130
 4403TIP3    H113145   0.320   5.244   2.937  1.9790 -0.9668 -1.3913
 4403TIP3    H213146   0.340   5.098   2.970 -0.5502 -1.1214 -0.4134
 4404TIP3   OH213147   1.776   5.393   2.667 -0.0960 -0.2868 -0.3352
 4404TIP3    H113148   1.833   5.362   2.596 -0.2968 -1.0674 -0.1654
 4404TIP3    H213149   1.803   5.342   2.743 -0.5082 -0.1129 -0.0703
 4405TIP3   OH213150   0.868   5.092   3.634  0.1584  0.0092  0.2875
 4405TIP3    H113151   0.925   5.038   3.579 -1.1724 -0.9624 -0.1737
 4405TIP3    H213152   0.882   5.060   3.723  0.3271 -0.2157  0.1800
 4406TIP3   OH213153   4.347   5.938   2.574 -0.2181  0.0950 -0.6703
 4406TIP3    H113154   4.357   6.032   2.588  0.6774  0.0713 -1.1790
 4406TIP3    H213155   4.417   5.914   2.514 -0.9519 -0.7517 -1.2074
 4407TIP3   OH213156   2.126   6.878   1.395  0.8601 -0.3209  0.7253
 4407TIP3    H113157   2.220   6.897   1.393  0.6880  0.5575  0.1055
 4407TIP3    H213158   2.103   6.867   1.303 -0.1605  2.3099  0.6010
 4408TIP3   OH213159   1.788   4.253   4.564  0.0682  0.4312  0.4629
 4408TIP3    H113160   1.879   4.224   4.556  0.8603  2.6529  1.1608
 4408TIP3    H213161   1.762   4.229   4.653 -1.0913 -2.9921 -0.7019
 4409TIP3   OH213162   3.217   5.966   5.084  0.0793 -0.4928  0.3031
 4409TIP3    H113163   3.308   5.966   5.055 -0.0607  3.6734 -0.3811
 4409TIP3    H213164   3.188   5.876   5.070  3.3106 -1.2749 -1.9622
 4410TIP3   OH213165   1.236   5.126   1.169 -0.0275 -0.0943  0.0816
 4410TIP3    H113166   1.219   5.180   1.247 -2.3460  0.9207 -1.1120
 4410TIP3    H213167   1.313   5.166   1.129 -0.4337  1.0176  0.3983
 4411TIP3   OH213168   2.833   6.889   1.157  0.1388 -0.6502 -0.4874
 4411TIP3    H113169   2.860   6.888   1.065  4.8615  0.9277  0.7100
 4411TIP3    H213170   2.874   6.811   1.195 -0.7531 -0.6235  0.5602
 4412TIP3   OH213171   3.454   4.176   2.625  0.4304  0.4225 -0.0574
 4412TIP3    H113172   3.467   4.217   2.539 -1.0790 -0.2981 -0.6441
 4412TIP3    H213173   3.410   4.243   2.677 -0.0889  0.3069 -0.3444
 4413TIP3   OH213174   1.366   4.548   2.752 -0.8141 -0.1001  0.3640
 4413TIP3    H113175   1.341   4.589   2.834  0.0438 -2.6346  1.9721
 4413TIP3    H213176   1.419   4.614   2.707 -1.3259  1.3364  1.8286
 4414TIP3   OH213177   2.130   4.640   3.893  0.4472 -0.2278 -0.4613
 4414TIP3    H113178   2.056   4.579   3.886 -0.5349  0.9094 -0.2141
 4414TIP3    H213179   2.156   4.635   3.985  0.1722 -0.0680 -0.3717
 4415TIP3   OH213180   1.340   6.622   2.687 -0.4358  0.4390 -0.0791
 4415TIP3    H113181   1.322   6.655   2.775 -0.2215  1.5131 -0.4314
 4415TIP3    H213182   1.254   6.601   2.650 -0.7224  2.1657 -0.4454
 4416TIP3   OH213183   8.030   5.532   0.427  0.0796  0.4415  0.3382
 4416TIP3    H113184   8.064   5.481   0.500  0.3565 -0.5667 -0.4829
 4416TIP3    H213185   7.935   5.517   0.428  0.4058 -1.9786 -1.2931
 4417TIP3   OH213186   3.166   6.786   2.425  0.6931 -0.1630 -0.3075
 4417TIP3    H113187   3.208   6.865   2.458  0.3646 -0.4125  0.7297
 4417TIP3    H213188   3.195   6.716   2.484 -1.9664 -0.1639  1.0967
 4418TIP3   OH213189   4.244   1.324   6.600  0.2568  0.2923 -0.3911
 4418TIP3    H113190   4.251   1.287   6.512 -1.4250 -0.8364 -0.0802
 4418TIP3    H213191   4.228   1.248   6.656 -1.3128  1.2608  0.5173
 4419TIP3   OH213192   0.777   5.283   3.927 -0.4691  0.2890 -0.4195
 4419TIP3    H113193   0.762   5.374   3.952 -1.1171  0.0609  0.0571
 4419TIP3    H213194   0.871   5.271   3.936 -0.6977  0.1205  2.3180
 4420TIP3   OH213195   0.135   8.000   1.257  0.0232  0.0433  0.1051
 4420TIP3    H113196   0.169   7.959   1.336 -0.4236 -1.3495 -0.4155
 4420TIP3    H213197   0.156   7.939   1.186  0.1122  1.1063 -0.8063
 4421TIP3   OH213198   0.818   5.769   2.037 -0.1192 -0.0133 -0.1156
 4421TIP3    H113199   0.750   5.719   1.992  0.5190  1.5226 -2.8549
 4421TIP3    H213200   0.880   5.703   2.068 -1.5366 -1.2212  0.1852
 4422TIP3   OH213201   2.351   6.062   1.195  0.3046 -0.2284 -0.1595
 4422TIP3    H113202   2.436   6.020   1.183  0.4924  0.3587 -0.9791
 4422TIP3    H213203   2.368   6.155   1.179 -1.1608 -0.5200 -4.1801
 4423TIP3   OH213204   4.016   5.465   3.104 -0.6341  0.1704 -0.2231
 4423TIP3    H113205   4.043   5.469   3.013  0.4346  2.1441  0.1543
 4423TIP3    H213206   4.033   5.374   3.130  0.6347  0.0196 -1.5185
 4424TIP3   OH213207   1.979   5.336   1.549 -0.0989  0.2840 -0.1193
 4424TIP3    H113208   2.017   5.418   1.579 -0.4873  0.7559 -0.8965
 4424TIP3    H213209   1.903   5.323   1.606  0.8383 -0.3325  1.0122
 4425TIP3   OH213210   0.351   3.268   1.752 -0.2207 -0.3373 -0.3575
 4425TIP3    H113211   0.288   3.272   1.824 -0.1671 -0.7338 -0.2857
 4425TIP3    H213212   0.323   3.193   1.700 -0.8498  0.5462 -1.3107
 4426TIP3   OH213213   7.949   6.720   1.810 -0.6330 -0.1116 -0.1403
 4426TIP3    H113214   7.946   6.704   1.904 -2.2941  0.1755 -0.1248
 4426TIP3    H213215   8.035   6.760   1.795  0.3463 -1.7607  0.9834
 4427TIP3   OH213216   3.304   4.719   4.432  1.5012 -0.4890  0.1428
 4427TIP3    H113217   3.234   4.783   4.420  0.5573 -0.7597  3.7755
 4427TIP3    H213218   3.384   4.771   4.434  1.2670  0.0074 -2.1500
 4428TIP3   OH213219   3.049   5.298   3.077 -0.3325 -0.4254  0.0047
 4428TIP3    H113220   3.037   5.205   3.095 -1.3143 -0.2395  0.3927
 4428TIP3    H213221   3.071   5.302   2.984 -0.7905 -1.0108 -0.1356
 4429TIP3   OH213222   1.398   6.439   0.623 -0.6956 -0.7863 -0.6347
 4429TIP3    H113223   1.316   6.489   0.615  0.1623  0.7629  0.0780
 4429TIP3    H213224   1.390   6.393   0.707  0.0166  0.9706  0.4124
 4430TIP3   OH213225   0.863   6.628   5.800 -0.1778 -0.1985  0.2839
 4430TIP3    H113226   0.942   6.663   5.841 -0.2478 -1.2609  1.3283
 4430TIP3    H213227   0.836   6.698   5.740  2.7166 -0.6483 -1.6702
 4431TIP3   OH213228   3.192   5.265   4.786 -0.0717  0.4607 -0.3814
 4431TIP3    H113229   3.287   5.257   4.791  0.0893  2.1338 -0.5748
 4431TIP3    H213230   3.169   5.234   4.699  0.3399  0.4831 -0.4955
 4432TIP3   OH213231   2.723   6.133   4.152  0.1482 -0.2620  0.6250
 4432TIP3    H113232   2.682   6.212   4.117 -1.2905 -0.8022  1.0321
 4432TIP3    H213233   2.670   6.110   4.228  0.2996 -1.8340  0.2823
 4433TIP3   OH213234   0.054   5.535   3.930 -0.3872  0.2629  0.1998
 4433TIP3    H113235   0.134   5.580   3.905 -1.0896  0.6124 -1.5053
 4433TIP3    H213236   0.009   5.597   3.988 -1.7531  2.2068 -2.8094
 4434TIP3   OH213237   2.987   5.032   4.116  0.2886 -0.0619  0.3548
 4434TIP3    H113238   3.017   5.050   4.027  0.8055  0.3850  0.6134
 4434TIP3    H213239   2.905   4.984   4.105  0.8852 -0.9260 -0.3650
 4435TIP3   OH213240   3.502   6.639   2.199  0.1265  0.1895  0.2642
 4435TIP3    H113241   3.549   6.574   2.252  0.4276  1.3385  1.4230
 4435TIP3    H213242   3.424   6.592   2.169  0.9004 -1.0523  0.1650
 4436TIP3   OH213243   0.150   4.201   1.460 -0.5680 -0.4020  0.0758
 4436TIP3    H113244   0.231   4.245   1.488 -0.6708 -0.3360  0.2708
 4436TIP3    H213245   0.141   4.128   1.522 -0.0113 -1.1310 -0.6869
 4437TIP3   OH213246   7.723   4.189   3.705  0.6327  0.3520 -0.1981
 4437TIP3    H113247   7.760   4.277   3.717  0.8047 -0.0614  2.6207
 4437TIP3    H213248   7.731   4.148   3.791 -0.5039 -2.0389 -1.1954
 4438TIP3   OH213249   1.774   5.467   3.974  0.3074  0.6290 -0.1456
 4438TIP3    H113250   1.692   5.432   4.008  0.2075  1.8317  0.8597
 4438TIP3    H213251   1.812   5.394   3.924 -1.0240 -0.1538 -0.0420
 4439TIP3   OH213252   2.949   6.181   4.327  0.6931 -0.2084 -0.0495
 4439TIP3    H113253   2.918   6.244   4.392  2.2215  1.2283 -0.6996
 4439TIP3    H213254   2.870   6.158   4.277 -0.1052  0.2475  0.9728
 4440TIP3   OH213255   1.516   5.643   4.649  0.1402 -0.1480 -0.2109
 4440TIP3    H113256   1.541   5.632   4.557  0.6561 -1.8763  0.1201
 4440TIP3    H213257   1.460   5.567   4.667 -0.6632  0.6410  0.6738
 4441TIP3   OH213258   0.223   4.349   4.139  0.3690 -0.1254  0.1771
 4441TIP3    H113259   0.226   4.256   4.115 -1.5940 -0.5169  1.2760
 4441TIP3    H213260   0.133   4.375   4.118  0.2942  0.9694  1.7556
 4442TIP3   OH213261   1.935   4.389   3.862 -0.6488 -0.4692 -0.5884
 4442TIP3    H113262   1.861   4.362   3.807 -2.6755  0.6271  1.4908
 4442TIP3    H213263   1.916   4.348   3.947  2.5651 -2.3983 -0.7161
 4443TIP3   OH213264   1.818   5.296   4.227 -0.7018 -0.4180  0.6223
 4443TIP3    H113265   1.789   5.231   4.291 -1.3375 -0.9617 -0.2064
 4443TIP3    H213266   1.807   5.253   4.142  0.4560  0.1682  0.1572
 4444TIP3   OH213267   2.386   7.630   3.563 -0.2511  0.4870  0.7187
 4444TIP3    H113268   2.475   7.601   3.581 -0.5332 -1.0244 -0.1933
 4444TIP3    H213269   2.396   7.717   3.524  0.7771  0.5852  1.1998
 4445TIP3   OH213270   2.163   6.620   3.328  0.1993  0.0743  0.5951
 4445TIP3    H113271   2.162   6.579   3.415  0.7709 -1.4754 -0.1044
 4445TIP3    H213272   2.124   6.706   3.342  0.5813 -0.0225  2.4582
 4446TIP3   OH213273   3.454   5.876   4.242  0.3223  0.1364 -0.0711
 4446TIP3    H113274   3.547   5.875   4.223  0.8194  0.6335  2.1596
 4446TIP3    H213275   3.447   5.918   4.328 -1.9556  0.1964 -0.2373
 4447TIP3   OH213276   2.365   4.629   2.697  0.3511 -0.0397  0.4902
 4447TIP3    H113277   2.340   4.718   2.672  0.9640  0.0009  0.0063
 4447TIP3    H213278   2.459   4.625   2.681 -0.1320 -1.6766 -2.2839
 4448TIP3   OH213279   1.531   3.644   5.252 -0.5324 -0.7141 -0.6550
 4448TIP3    H113280   1.461   3.619   5.313 -0.7618 -1.0890 -1.0744
 4448TIP3    H213281   1.563   3.562   5.217  0.5680 -0.5860  0.0201
 4449TIP3   OH213282   1.733   7.215   1.785  0.1177  0.3804 -0.5073
 4449TIP3    H113283   1.731   7.147   1.717 -0.8314  0.7243 -0.8408
 4449TIP3    H213284   1.784   7.177   1.856  0.8938 -0.0895 -1.3047
 4450TIP3   OH213285   2.200   4.862   2.549  0.5570 -0.2870  0.1646
 4450TIP3    H113286   2.149   4.784   2.571  0.5428 -0.3355 -0.0380
 4450TIP3    H213287   2.165   4.931   2.605  0.7110 -0.4764  0.5005
 4451TIP3   OH213288   0.738   6.153   2.953 -0.3769 -0.8666  0.3064
 4451TIP3    H113289   0.706   6.231   2.998  1.4422  0.9530 -1.5081
 4451TIP3    H213290   0.699   6.156   2.866 -0.3669 -2.0420  0.2455
 4452TIP3   OH213291   7.582   7.723   2.813 -0.1264 -0.0080  0.4121
 4452TIP3    H113292   7.645   7.686   2.751  0.9167 -0.9087  1.9659
 4452TIP3    H213293   7.586   7.818   2.798  0.7625 -0.1489 -0.2720
 4453TIP3   OH213294   5.161   0.654   1.893  0.3640 -0.0504  0.3922
 4453TIP3    H113295   5.142   0.632   1.984 -0.1099 -1.9731 -0.1472
 4453TIP3    H213296   5.255   0.639   1.883  0.5931  1.0775  0.8022
 4454TIP3   OH213297   3.156   3.741   3.133  0.2256 -0.2905  0.1279
 4454TIP3    H113298   3.169   3.735   3.039 -0.0047  1.2887 -0.0147
 4454TIP3    H213299   3.077   3.794   3.144  1.6750  1.7287  1.2239
 4455TIP3   OH213300   2.541   4.802   4.092 -0.9646  0.5412 -0.2848
 4455TIP3    H113301   2.512   4.737   4.155  0.4828 -3.4829 -3.5110
 4455TIP3    H213302   2.636   4.805   4.103 -0.6737 -0.3331 -2.2786
 4456TIP3   OH213303   0.813   5.230   2.599  0.2643 -0.8787 -0.1905
 4456TIP3    H113304   0.730   5.182   2.597  0.9269 -2.0386 -0.0141
 4456TIP3    H213305   0.868   5.180   2.658  0.6586  0.6245  0.7497
 4457TIP3   OH213306   3.149   6.009   1.173  0.3189 -0.2504  0.2720
 4457TIP3    H113307   3.231   6.037   1.132  0.1820  0.6898  0.6269
 4457TIP3    H213308   3.138   5.918   1.145 -0.2980  0.6613 -2.6019
 4458TIP3   OH213309   1.704   6.369   4.296 -0.0274 -0.0830  0.8825
 4458TIP3    H113310   1.777   6.369   4.234  0.1196 -0.1109  1.0528
 4458TIP3    H213311   1.746   6.380   4.382 -0.2400  0.1232  0.9610
 4459TIP3   OH213312   2.990   7.260   2.986 -0.5059 -0.0657 -0.2227
 4459TIP3    H113313   3.029   7.174   3.003 -1.4673 -0.2541  1.1509
 4459TIP3    H213314   2.952   7.252   2.898  0.9017 -0.4724 -0.8099
 4460TIP3   OH213315   1.270   5.931   0.021  0.1644 -0.1569  0.2978
 4460TIP3    H113316   1.306   5.990   0.087  1.4587 -0.4411 -0.1361
 4460TIP3    H213317   1.175   5.944   0.027  0.3277  0.6735  1.4017
 4461TIP3   OH213318   1.925   3.824   1.299 -0.3702  0.2793 -0.1526
 4461TIP3    H113319   1.982   3.869   1.236 -0.0558 -1.5312 -1.2114
 4461TIP3    H213320   1.859   3.781   1.244 -0.4984 -0.7588  0.8074
 4462TIP3   OH213321   2.937   5.407   3.639 -0.7090 -0.5469 -0.1586
 4462TIP3    H113322   2.891   5.432   3.719 -0.5468  0.1853 -0.2897
 4462TIP3    H213323   3.025   5.444   3.650 -0.3030 -1.5161 -0.1206
 4463TIP3   OH213324   0.087   5.743   1.167 -0.7997  0.3485 -0.1450
 4463TIP3    H113325   0.156   5.802   1.197 -0.2149  0.7937 -2.3237
 4463TIP3    H213326   0.092   5.668   1.226 -0.3701  1.6553  1.5247
 4464TIP3   OH213327   4.913   5.396   4.191 -0.3858  0.0325 -0.2429
 4464TIP3    H113328   4.845   5.338   4.158 -0.1850 -0.7379  0.6668
 4464TIP3    H213329   4.894   5.481   4.152 -0.9871 -0.5261 -1.1787
 4465TIP3   OH213330   0.954   5.527   2.062  0.0776  0.6444  0.0877
 4465TIP3    H113331   1.044   5.557   2.071 -0.7549  3.1729  0.2597
 4465TIP3    H213332   0.961   5.445   2.012  2.6698 -0.7260  2.5392
 4466TIP3   OH213333   2.129   4.206   3.785  0.0324 -0.4127  0.6949
 4466TIP3    H113334   2.063   4.275   3.785 -0.6921 -1.1086  1.2322
 4466TIP3    H213335   2.212   4.253   3.778 -0.4396  0.5353  1.4259
 4467TIP3   OH213336   3.939   5.783   0.970  0.1221 -0.4913  0.4447
 4467TIP3    H113337   3.959   5.839   0.895  1.2177  0.9865  1.8057
 4467TIP3    H213338   3.998   5.814   1.040 -1.0148 -1.6897  1.9713
 4468TIP3   OH213339   3.589   5.134   3.385  0.2887  0.3499  0.2026
 4468TIP3    H113340   3.594   5.220   3.343 -0.2762 -0.6543 -1.9838
 4468TIP3    H213341   3.621   5.073   3.318 -1.2760 -1.3743  0.9916
 4469TIP3   OH213342   2.809   6.669   3.500 -0.3164  0.2473  0.0625
 4469TIP3    H113343   2.735   6.628   3.544  0.3079 -2.0112 -0.9227
 4469TIP3    H213344   2.881   6.661   3.562 -0.0278 -0.7825 -0.3974
 4470TIP3   OH213345   1.832   6.292   4.873 -0.0533  0.5873 -0.6108
 4470TIP3    H113346   1.747   6.322   4.907  0.7779  2.4908 -0.1317
 4470TIP3    H213347   1.880   6.372   4.856  2.1352 -0.4745  0.3477
 4471TIP3   OH213348   2.705   5.410   3.474  0.5380 -0.0376  0.0805
 4471TIP3    H113349   2.797   5.403   3.502  0.5771 -1.0507 -0.3046
 4471TIP3    H213350   2.702   5.492   3.424  1.5668 -0.7409 -1.1637
 4472TIP3   OH213351   3.012   6.157   1.652  0.1204 -0.2401 -0.2226
 4472TIP3    H113352   2.983   6.066   1.653 -3.0502  0.7225  0.5007
 4472TIP3    H213353   3.044   6.171   1.562 -1.1936 -1.5387 -0.9139
 4473TIP3   OH213354   2.125   4.017   3.276 -0.6664  0.3608 -0.0909
 4473TIP3    H113355   2.133   3.929   3.314 -0.5460 -0.1280 -1.2321
 4473TIP3    H213356   2.032   4.025   3.255 -0.4349 -0.0264 -1.2594
 4474TIP3   OH213357   1.355   6.257   2.520 -0.1025  0.8807  0.4275
 4474TIP3    H113358   1.302   6.305   2.457  1.1171 -0.6714 -1.8246
 4474TIP3    H213359   1.445   6.285   2.504  0.2453  0.3392  1.3581
 4475TIP3   OH213360   1.896   6.701   4.156 -0.2021 -0.4573  0.1486
 4475TIP3    H113361   1.891   6.605   4.158 -2.6697 -0.3591  1.5123
 4475TIP3    H213362   1.866   6.727   4.243  0.5671  1.5686 -0.1747
 4476TIP3   OH213363   2.601   3.384   2.768 -0.2510  0.1037 -0.2420
 4476TIP3    H113364   2.637   3.435   2.841 -0.3862  1.9340 -1.4142
 4476TIP3    H213365   2.506   3.394   2.776 -0.3132 -0.5458 -0.0929
 4477TIP3   OH213366   3.076   3.017   3.719  0.6634  0.7835 -0.0116
 4477TIP3    H113367   2.997   2.969   3.744  1.3600 -0.0914  0.5176
 4477TIP3    H213368   3.048   3.073   3.646 -0.4107  0.3952  0.0940
 4478TIP3   OH213369   1.863   6.035   1.673 -0.2234 -0.5887 -0.3484
 4478TIP3    H113370   1.827   6.078   1.596  1.4270 -0.5889 -1.1509
 4478TIP3    H213371   1.846   6.096   1.745 -2.7225 -1.0718 -0.5072
 4479TIP3   OH213372   1.770   6.256   5.660  0.3965  0.5991  0.1104
 4479TIP3    H113373   1.833   6.214   5.601  0.5707 -0.2790  0.9005
 4479TIP3    H213374   1.691   6.202   5.654 -0.1489  1.4607 -0.5668
 4480TIP3   OH213375   1.383   6.694   6.110  0.4161  1.4489  0.2166
 4480TIP3    H113376   1.441   6.749   6.163  1.4224  1.2255 -0.6369
 4480TIP3    H213377   1.435   6.672   6.033 -0.6358  0.8258 -0.3213
 4481TIP3   OH213378   2.716   6.301   1.926 -0.4332  0.0790  0.6481
 4481TIP3    H113379   2.756   6.219   1.955  1.3726  0.6014 -0.2925
 4481TIP3    H213380   2.725   6.360   2.000  1.3751  0.4690  0.1248
 4482TIP3   OH213381   8.349   5.183   2.268  0.6631 -0.4726  0.3555
 4482TIP3    H113382   8.284   5.132   2.220  1.5766  0.0023 -1.4440
 4482TIP3    H213383   8.370   5.256   2.209  3.1813 -0.9041  0.6797
 4483TIP3   OH213384   3.266   7.708   2.867 -0.0366 -0.1230 -0.2053
 4483TIP3    H113385   3.352   7.732   2.903  1.0191 -1.0470 -2.0129
 4483TIP3    H213386   3.234   7.788   2.826  1.0986 -0.3910 -1.6619
 4484TIP3   OH213387   3.154   4.359   3.811 -0.6815  0.1754 -0.5169
 4484TIP3    H113388   3.065   4.326   3.816 -0.7570  0.2852 -1.0999
 4484TIP3    H213389   3.187   4.354   3.901 -1.6236  1.1086 -0.1062
 4485TIP3   OH213390   2.135   6.792   3.926  0.1514 -1.1849  0.2495
 4485TIP3    H113391   2.082   6.807   3.848 -0.0813 -1.3239  0.3793
 4485TIP3    H213392   2.099   6.852   3.991 -0.7206 -2.2067  0.7419
 4486TIP3   OH213393   1.575   4.562   1.498 -0.2317 -0.1607  0.8220
 4486TIP3    H113394   1.595   4.618   1.423  0.2087  0.2710  1.2603
 4486TIP3    H213395   1.508   4.501   1.465  0.8775 -0.8139 -0.2945
 4487TIP3   OH213396   2.085   5.784   3.495  0.2979  0.1893 -0.2453
 4487TIP3    H113397   2.101   5.874   3.526 -1.0322  0.0843  0.7874
 4487TIP3    H213398   2.006   5.757   3.541 -0.6403 -0.6801 -2.3270
 4488TIP3   OH213399   2.842   6.186   2.716  0.4421 -0.2786 -0.5074
 4488TIP3    H113400   2.781   6.260   2.719 -0.3121 -0.9244  0.0003
 4488TIP3    H213401   2.912   6.216   2.657 -0.9777 -0.0200 -2.1137
 4489TIP3   OH213402   1.957   6.496   2.972 -0.2727  0.0695  0.3075
 4489TIP3    H113403   1.876   6.474   2.927 -0.6320 -1.2515  1.5587
 4489TIP3    H213404   1.930   6.527   3.058  0.3590  3.4058 -0.6259
 4490TIP3   OH213405   2.422   6.177   0.367 -0.2650 -0.1853  0.2403
 4490TIP3    H113406   2.465   6.183   0.281  0.5291 -1.5745  0.5249
 4490TIP3    H213407   2.334   6.145   0.347 -0.1058 -0.4389 -0.0728
 4491TIP3   OH213408   1.267   5.298   2.989 -0.0225  0.2222  0.0750
 4491TIP3    H113409   1.281   5.356   3.064  0.4944  0.1857  0.0133
 4491TIP3    H213410   1.225   5.220   3.027  0.7001 -0.0079  0.4142
 4492TIP3   OH213411   0.416   5.274   2.681  0.0730 -0.0837  0.5257
 4492TIP3    H113412   0.417   5.370   2.688 -2.5238 -0.0314  0.5017
 4492TIP3    H213413   0.351   5.246   2.746  0.8388 -1.8447  0.5622
 4493TIP3   OH213414   2.153   6.121   5.760 -0.2188 -0.0489 -0.2674
 4493TIP3    H113415   2.136   6.165   5.843  0.4994  0.0198 -0.1515
 4493TIP3    H213416   2.212   6.180   5.713 -0.5147 -0.1518 -0.7684
 4494TIP3   OH213417   3.167   5.326   3.420  0.2994 -0.3633 -0.1078
 4494TIP3    H113418   3.173   5.381   3.341 -1.2789 -0.8711 -0.5982
 4494TIP3    H213419   3.237   5.261   3.409  0.3084 -0.2272 -0.9298
 4495TIP3   OH213420   2.384   6.348   3.479  0.3877  0.8848  0.0097
 4495TIP3    H113421   2.393   6.366   3.385  1.3168  1.8943  0.2778
 4495TIP3    H213422   2.432   6.267   3.493  0.0331  0.5983 -0.4306
 4496TIP3   OH213423   1.159   6.221   3.854 -0.1359  0.2023  0.0535
 4496TIP3    H113424   1.245   6.259   3.837 -0.9830  2.0162 -0.2898
 4496TIP3    H213425   1.120   6.212   3.767 -0.6596  0.2721  0.2812
 4497TIP3   OH213426   1.958   4.585   1.473  0.7173 -0.1620  0.1113
 4497TIP3    H113427   1.980   4.522   1.405  0.0157  0.2370 -0.5064
 4497TIP3    H213428   1.889   4.542   1.524  1.1695 -0.4197  0.5008
 4498TIP3   OH213429   1.893   5.260   2.438  0.4672  0.4017 -0.2160
 4498TIP3    H113430   1.822   5.274   2.375  0.8010  1.2590 -0.4029
 4498TIP3    H213431   1.954   5.332   2.422 -0.5041  1.9058  2.5826
 4499TIP3   OH213432   3.901   5.678   4.144 -0.8733  0.2913 -0.2531
 4499TIP3    H113433   3.940   5.636   4.221 -0.3037  0.1394 -0.6205
 4499TIP3    H213434   3.976   5.710   4.094 -1.2573  0.6837 -0.5791
 4500TIP3   OH213435   1.724   5.689   2.560 -0.1922 -0.0667 -0.0242
 4500TIP3    H113436   1.740   5.749   2.632  0.1317  1.0605 -1.0287
 4500TIP3    H213437   1.752   5.603   2.593  0.9537  0.6229  0.8061
 4501TIP3   OH213438   0.160   5.076   3.506 -0.4495 -0.3571 -0.0481
 4501TIP3    H113439   0.198   5.161   3.486 -1.6731 -0.0849 -1.3392
 4501TIP3    H213440   0.205   5.015   3.447 -0.3676 -0.4178  0.0769
 4502TIP3   OH213441   1.896   4.247   4.156 -0.2450 -0.0071 -0.1061
 4502TIP3    H113442   1.847   4.310   4.210  0.6070  0.1754  0.4590
 4502TIP3    H213443   1.981   4.240   4.199 -1.2441 -3.7431  1.5471
 4503TIP3   OH213444   1.298   2.660   2.126  0.0345 -0.3923 -0.6116
 4503TIP3    H113445   1.243   2.611   2.187  0.5007  0.5225  0.5902
 4503TIP3    H213446   1.369   2.695   2.181 -0.7485  2.3123 -1.2435
 4504TIP3   OH213447   1.484   5.007   4.515  0.0344  0.5851 -0.5558
 4504TIP3    H113448   1.406   4.994   4.569  0.2692 -0.4844 -0.4698
 4504TIP3    H213449   1.556   4.971   4.566  0.0853 -1.5657 -2.0702
 4505TIP3   OH213450   2.819   6.140   1.382  0.6019  0.1246  0.0127
 4505TIP3    H113451   2.848   6.050   1.366  1.4537  0.5592 -0.9265
 4505TIP3    H213452   2.738   6.130   1.432  1.7762 -1.1284  1.7225
 4506TIP3   OH213453   0.412   5.838   2.680  0.1244 -0.0729 -0.4885
 4506TIP3    H113454   0.433   5.919   2.725 -0.8885  0.5051 -1.0530
 4506TIP3    H213455   0.434   5.854   2.588  0.3259 -0.5829 -0.5352
 4507TIP3   OH213456   0.912   3.890   2.626  0.2791 -0.3822 -0.4757
 4507TIP3    H113457   0.956   3.858   2.547  1.4187 -2.1103  0.8509
 4507TIP3    H213458   0.978   3.886   2.695 -1.1689 -0.4137  0.9432
 4508TIP3   OH213459   3.907   6.070   2.902  0.0777 -0.1645  0.9287
 4508TIP3    H113460   3.977   6.056   2.965  0.8280 -1.1391 -0.1001
 4508TIP3    H213461   3.878   5.982   2.878 -0.7950  0.2147  0.5654
 4509TIP3   OH213462   2.368   5.104   3.700  0.1194  0.1439 -0.0903
 4509TIP3    H113463   2.433   5.172   3.720 -0.3481  0.8580 -0.9294
 4509TIP3    H213464   2.360   5.053   3.781  1.1811  0.5031  0.2475
 4510TIP3   OH213465   6.011   1.610   5.949 -0.2485 -0.0457  0.1372
 4510TIP3    H113466   5.993   1.584   6.039  1.6029  1.5185  0.9958
 4510TIP3    H213467   6.072   1.543   5.916 -0.2261 -0.1294  0.3469
 4511TIP3   OH213468   4.734   4.316   2.260  0.3468 -0.4544  0.1131
 4511TIP3    H113469   4.771   4.305   2.348 -1.3436  0.5159  0.9813
 4511TIP3    H213470   4.716   4.409   2.254 -1.0809 -0.7730 -0.6280
 4512TIP3   OH213471   3.975   3.677   1.761  0.2992 -0.4387 -0.3236
 4512TIP3    H113472   3.997   3.601   1.815  2.6158 -0.5466 -1.3913
 4512TIP3    H213473   4.004   3.752   1.812 -0.8971 -0.3076  0.1929
 4513TIP3   OH213474   3.200   6.154   2.837 -0.2771 -0.2350 -0.2898
 4513TIP3    H113475   3.166   6.166   2.926 -0.9631  1.4339 -0.7558
 4513TIP3    H213476   3.253   6.074   2.842  2.8356  1.8988  2.5085
 4514TIP3   OH213477   5.174   5.073   1.402 -0.1826 -0.0327  0.1830
 4514TIP3    H113478   5.083   5.073   1.431 -0.7191 -0.7550 -1.4210
 4514TIP3    H213479   5.185   4.990   1.356  1.2246  0.1481  0.1568
 4515TIP3   OH213480   2.303   6.136   3.021  0.0767 -0.0779  0.2734
 4515TIP3    H113481   2.334   6.194   2.951 -1.6378  0.8634  0.2827
 4515TIP3    H213482   2.361   6.155   3.094  0.4947  0.5199 -0.2064
 4516TIP3   OH213483   2.950   4.164   1.990 -0.2643 -0.2372 -0.6536
 4516TIP3    H113484   2.882   4.125   2.046 -0.0251  1.6190  1.0013
 4516TIP3    H213485   2.946   4.114   1.909 -2.8535 -0.8917 -0.1723
 4517TIP3   OH213486   2.432   5.349   1.126 -0.3879 -0.1735 -0.0849
 4517TIP3    H113487   2.434   5.254   1.114 -1.3059 -0.1362 -0.5779
 4517TIP3    H213488   2.342   5.369   1.150 -0.4641  0.6944 -1.0344
 4518TIP3   OH213489   1.503   6.940   0.401 -0.3623 -0.0753 -0.2529
 4518TIP3    H113490   1.539   6.857   0.369  0.9374  0.2397  0.3521
 4518TIP3    H213491   1.420   6.916   0.441 -0.1116 -1.0506 -0.3026
 4519TIP3   OH213492   5.291   6.247   1.744 -0.1260 -0.3642 -0.4536
 4519TIP3    H113493   5.350   6.288   1.807  0.0600 -0.2873 -0.6742
 4519TIP3    H213494   5.324   6.157   1.736  1.2228  0.2356 -2.0857
 4520TIP3   OH213495   3.316   5.114   3.400  0.2449 -0.7379  0.0738
 4520TIP3    H113496   3.284   5.043   3.455 -1.1540 -0.8416 -0.8467
 4520TIP3    H213497   3.411   5.099   3.395 -0.2068 -3.4470 -1.3276
 4521TIP3   OH213498   3.254   5.932   2.150  0.3719 -0.6522 -0.1437
 4521TIP3    H113499   3.215   5.856   2.106 -0.5988 -0.7270  0.8291
 4521TIP3    H213500   3.250   5.909   2.243  0.1134  0.5786  0.1478
 4522TIP3   OH213501   3.118   5.122   2.311 -0.4501 -0.0162  0.1573
 4522TIP3    H113502   3.076   5.074   2.382 -0.0669 -1.4804 -0.5913
 4522TIP3    H213503   3.073   5.093   2.232  0.6217 -0.0828 -0.4375
 4523TIP3   OH213504   0.275   1.395   6.745  0.5145 -0.2164 -0.3887
 4523TIP3    H113505   0.211   1.447   6.696  0.0818  0.1268  0.5219
 4523TIP3    H213506   0.273   1.309   6.704 -0.3780 -0.1429 -0.5050
 4524TIP3   OH213507   4.969   4.914   2.903 -0.8988 -0.4085 -0.1235
 4524TIP3    H113508   4.892   4.858   2.902 -0.6425 -0.7771  0.4201
 4524TIP3    H213509   5.028   4.872   2.965  0.3047 -0.8934 -1.5464
 4525TIP3   OH213510   3.463   4.246   1.753  0.3036 -0.4898  0.5933
 4525TIP3    H113511   3.502   4.160   1.769  0.1855 -0.4652  1.0011
 4525TIP3    H213512   3.373   4.237   1.782  0.2805 -0.2383  0.5978
 4526TIP3   OH213513   4.159   4.763   4.058 -0.2473  0.0181  0.2468
 4526TIP3    H113514   4.246   4.765   4.098  0.0570  1.6262 -0.4480
 4526TIP3    H213515   4.176   4.740   3.967 -0.4021  1.6739 -0.2141
 4527TIP3   OH213516   2.123   6.049   3.581  0.2917 -0.4789  0.2668
 4527TIP3    H113517   2.063   6.122   3.593  1.6850  0.4909  1.4447
 4527TIP3    H213518   2.166   6.038   3.666  2.9768 -0.0791 -0.9833
 4528TIP3   OH213519   5.270   0.348   3.836 -0.0028  0.5623  0.1980
 4528TIP3    H113520   5.311   0.320   3.917  1.0588 -2.4992 -1.3203
 4528TIP3    H213521   5.325   0.420   3.805  0.3149  0.9079  1.5397
 4529TIP3   OH213522   1.493   5.889   2.487  0.2138 -0.0499 -0.0649
 4529TIP3    H113523   1.523   5.971   2.448  0.5172 -0.5118 -0.8255
 4529TIP3    H213524   1.569   5.831   2.482 -0.3155 -0.7161 -0.5319
 4530TIP3   OH213525   4.442   6.223   2.043 -0.4335  0.6907  0.4385
 4530TIP3    H113526   4.537   6.232   2.031 -0.7015  3.3506  0.0333
 4530TIP3    H213527   4.405   6.257   1.961 -1.7252 -1.5561  0.0552
 4531TIP3   OH213528   3.833   4.502   3.659  0.0135  0.7764  0.0367
 4531TIP3    H113529   3.883   4.544   3.729  0.4039  0.6966 -0.1920
 4531TIP3    H213530   3.780   4.573   3.622  0.1968  0.9312  0.0701
 4532TIP3   OH213531   4.294   5.596   1.204  0.3311 -0.1557 -0.2130
 4532TIP3    H113532   4.314   5.671   1.260  1.3921 -0.5393 -0.0663
 4532TIP3    H213533   4.261   5.529   1.264 -0.0841 -0.0035 -0.2696
 4533TIP3   OH213534   1.392   4.486   0.421  0.0834 -0.3128  0.2137
 4533TIP3    H113535   1.454   4.528   0.480  1.9814 -1.1056 -1.1711
 4533TIP3    H213536   1.350   4.419   0.474 -0.1911  0.7684  1.3775
 4534TIP3   OH213537   4.980   5.487   3.622 -0.9124  0.2128  0.2678
 4534TIP3    H113538   4.966   5.469   3.715  0.2094  0.5218  0.5137
 4534TIP3    H213539   5.076   5.488   3.613 -1.0172 -1.6773 -1.2599
 4535TIP3   OH213540   4.462   4.171   3.760  0.7182  0.0886  0.4983
 4535TIP3    H113541   4.371   4.202   3.759  0.9249  0.7058 -0.7364
 4535TIP3    H213542   4.456   4.081   3.793 -0.3940 -0.0370 -0.0095
 4536TIP3   OH213543   4.775   3.772   2.573 -0.0351  0.0140 -0.4406
 4536TIP3    H113544   4.785   3.866   2.560 -1.0232  0.6215  2.6995
 4536TIP3    H213545   4.687   3.752   2.541 -0.8096  0.6839  1.1918
 4537TIP3   OH213546   2.427   4.262   2.225  0.5257  0.0306 -0.2251
 4537TIP3    H113547   2.355   4.324   2.215  0.2626 -0.0214  1.2378
 4537TIP3    H213548   2.505   4.316   2.224  0.2834  0.4400  1.3156
 4538TIP3   OH213549   4.746   6.832   3.155 -0.3367  0.1908  0.3298
 4538TIP3    H113550   4.682   6.869   3.094  0.3607  1.5913  0.4137
 4538TIP3    H213551   4.700   6.763   3.201 -1.9314  1.5036  0.7327
 4539TIP3   OH213552   5.116   6.331   2.791  0.0048  0.2744 -0.3424
 4539TIP3    H113553   5.045   6.284   2.834  0.3989 -0.1942 -0.2119
 4539TIP3    H213554   5.104   6.313   2.697  0.6771 -0.8037 -0.2268
 4540TIP3   OH213555   5.551   3.750   2.398  0.2011  0.1963  0.3019
 4540TIP3    H113556   5.494   3.827   2.402 -0.5045 -0.3348  0.6726
 4540TIP3    H213557   5.638   3.785   2.379 -0.2538  1.0165 -0.3018
 4541TIP3   OH213558   2.880   6.411   1.721  0.3415 -0.1948  0.0635
 4541TIP3    H113559   2.867   6.388   1.813  0.5975 -2.8807 -0.5023
 4541TIP3    H213560   2.920   6.332   1.683 -2.1106 -0.1127 -2.9023
 4542TIP3   OH213561   3.310   6.542   1.240  0.1956 -0.0701 -0.0842
 4542TIP3    H113562   3.293   6.600   1.314  0.5057  0.5952 -0.5282
 4542TIP3    H213563   3.338   6.460   1.279 -1.0541 -0.1938  0.5739
 4543TIP3   OH213564   3.373   5.108   1.937 -0.0207  0.0378  0.4267
 4543TIP3    H113565   3.400   5.091   2.027  0.6149 -1.4495 -0.0307
 4543TIP3    H213566   3.429   5.052   1.884 -1.7908 -0.6533 -0.7575
 4544TIP3   OH213567   4.811   7.824   3.986  0.5166  0.3468 -0.0642
 4544TIP3    H113568   4.815   7.822   4.082  1.1251 -0.5168 -0.1032
 4544TIP3    H213569   4.726   7.862   3.966  0.8963  1.7091  0.8239
 4545TIP3   OH213570   1.415   4.133   1.899 -0.6584 -0.0693  0.4331
 4545TIP3    H113571   1.474   4.060   1.882  0.2407  0.5753  0.7480
 4545TIP3    H213572   1.334   4.092   1.930  0.4842 -0.8535  2.5122
 4546TIP3   OH213573   1.416   6.841   2.121  0.1644 -0.1298  0.6206
 4546TIP3    H113574   1.326   6.834   2.091 -0.2676 -1.7391  2.2399
 4546TIP3    H213575   1.463   6.773   2.073  0.1427 -0.4869  1.0993
 4547TIP3   OH213576   4.074   6.236   1.739  0.1020 -0.7184  0.1707
 4547TIP3    H113577   4.085   6.320   1.783 -0.4707 -1.5013  1.8143
 4547TIP3    H213578   4.006   6.253   1.673 -0.2895  0.0051  0.7531
 4548TIP3   OH213579   4.377   5.809   1.363  0.1283 -0.1339 -0.2252
 4548TIP3    H113580   4.352   5.814   1.456 -1.0664  2.5952 -0.6305
 4548TIP3    H213581   4.472   5.821   1.363 -0.0228  1.2035  0.5866
 4549TIP3   OH213582   3.290   6.619   4.280  0.3753 -0.1212  0.7268
 4549TIP3    H113583   3.229   6.689   4.258 -0.3288  0.3058  3.9125
 4549TIP3    H213584   3.252   6.541   4.237 -0.3235  0.8690 -0.4944
 4550TIP3   OH213585   2.032   6.919   3.122  0.6565  0.1983  0.0572
 4550TIP3    H113586   2.122   6.951   3.122  1.0144 -0.7661 -0.9797
 4550TIP3    H213587   2.014   6.898   3.031 -0.0645 -1.1424  0.4945
 4551TIP3   OH213588   3.973   6.489   2.419  0.2838  0.4084  0.1254
 4551TIP3    H113589   3.953   6.551   2.349  1.2914 -0.1619 -0.6794
 4551TIP3    H213590   4.022   6.541   2.483 -0.1852  0.8023  0.1716
 4552TIP3   OH213591   4.123   6.844   0.199 -0.1988 -0.4836 -0.4541
 4552TIP3    H113592   4.171   6.829   0.281  0.1486  0.1318 -0.5454
 4552TIP3    H213593   4.131   6.761   0.151  1.3713 -0.1518 -0.7840
 4553TIP3   OH213594   4.353   5.909   3.726  0.0756 -0.3297  0.3925
 4553TIP3    H113595   4.261   5.934   3.719  0.1343 -0.4380 -0.8675
 4553TIP3    H213596   4.364   5.839   3.662  0.7336 -1.2291  1.4601
 4554TIP3   OH213597   3.133   5.681   2.935  0.0729 -0.5539  0.4233
 4554TIP3    H113598   3.118   5.642   3.022 -0.1418 -1.9252 -0.2191
 4554TIP3    H213599   3.143   5.606   2.877  0.4886  0.3678 -0.7011
 4555TIP3   OH213600   4.256   5.201   2.626  0.3898  0.2886  0.2733
 4555TIP3    H113601   4.338   5.249   2.631  0.5551  0.0834 -0.5422
 4555TIP3    H213602   4.208   5.241   2.554  0.2313 -0.3013  0.0453
 4556TIP3   OH213603   3.808   6.944   1.901 -0.1866 -0.1040 -0.0886
 4556TIP3    H113604   3.838   6.861   1.863 -1.0528 -0.5149  0.1037
 4556TIP3    H213605   3.738   6.918   1.961 -1.2034  0.8713 -0.8418
 4557TIP3   OH213606   3.704   6.203   1.071  0.0943 -0.8669 -0.0531
 4557TIP3    H113607   3.796   6.203   1.045 -0.2449  0.1798 -1.3171
 4557TIP3    H213608   3.694   6.125   1.126  1.2305 -2.1960 -1.6966
 4558TIP3   OH213609   2.286   3.649   1.819  0.1982 -0.3559 -0.1593
 4558TIP3    H113610   2.368   3.626   1.862 -0.6000  0.0992  1.6398
 4558TIP3    H213611   2.278   3.743   1.831 -0.0057 -0.2115 -1.3852
 4559TIP3   OH213612   4.584   5.049   2.538 -0.0554 -0.2585  0.1355
 4559TIP3    H113613   4.618   5.076   2.624 -0.0074 -0.0581  0.0525
 4559TIP3    H213614   4.605   5.121   2.480 -0.8528 -0.0195  0.1370
 4560TIP3   OH213615   5.620   7.522   2.341 -0.5001  0.5309  0.2397
 4560TIP3    H113616   5.635   7.608   2.302  0.4967  0.6872  0.9322
 4560TIP3    H213617   5.567   7.475   2.278  0.5365  1.0048 -1.0071
 4561TIP3   OH213618   4.326   5.759   1.645  0.5011 -0.3142  0.2105
 4561TIP3    H113619   4.234   5.758   1.671  0.2939  0.6789 -0.4312
 4561TIP3    H213620   4.362   5.837   1.688  0.4311  0.6892 -1.4931
 4562TIP3   OH213621   4.442   7.327   1.990  0.6823 -0.4590  0.0402
 4562TIP3    H113622   4.360   7.316   1.942  0.5257  1.2198 -0.1013
 4562TIP3    H213623   4.509   7.300   1.928  0.4303  1.0030 -0.8846
 4563TIP3   OH213624   2.558   2.491   3.657 -0.1247  0.3376  0.0193
 4563TIP3    H113625   2.565   2.516   3.749  1.2504 -0.3340  0.1109
 4563TIP3    H213626   2.479   2.537   3.625 -0.5991  0.5762  1.5125
 4564TIP3   OH213627   3.569   7.106   0.666 -0.1237 -0.2847  0.3299
 4564TIP3    H113628   3.549   7.186   0.715  0.3441 -0.8648  1.4825
 4564TIP3    H213629   3.650   7.073   0.706 -0.7687 -1.7878  0.4197
 4565TIP3   OH213630   4.748   4.692   2.941 -0.0861  0.0788  0.3324
 4565TIP3    H113631   4.712   4.614   2.898 -0.6566  0.8428 -0.6207
 4565TIP3    H213632   4.705   4.696   3.026  0.5225 -1.0631  0.7067
 4566TIP3   OH213633   3.074   7.332   1.648 -0.2343  0.2212 -0.5561
 4566TIP3    H113634   3.143   7.340   1.583 -0.0144  3.2149 -0.0128
 4566TIP3    H213635   3.009   7.396   1.623 -1.3201 -0.3232  0.7702
 4567TIP3   OH213636   4.787   5.579   2.427 -0.0297 -0.1485 -0.0349
 4567TIP3    H113637   4.832   5.595   2.510 -1.5860 -1.0334  1.0153
 4567TIP3    H213638   4.835   5.506   2.387  1.2520  0.8509 -0.3365
 4568TIP3   OH213639   4.585   7.639   2.893 -0.2240 -0.4661 -0.5211
 4568TIP3    H113640   4.666   7.589   2.898 -0.4093 -0.6850  0.4058
 4568TIP3    H213641   4.614   7.731   2.895 -0.0219 -0.5431  0.2889
 4569TIP3   OH213642   3.725   4.768   1.883 -0.6226 -0.3553 -0.1977
 4569TIP3    H113643   3.761   4.826   1.950 -1.1446  0.8624 -0.9491
 4569TIP3    H213644   3.795   4.706   1.865 -1.0112 -1.7002  2.5879
 4570TIP3   OH213645   4.125   5.109   2.836  0.1484  0.2745 -0.1719
 4570TIP3    H113646   4.139   5.165   2.760 -1.2099  0.5052 -0.2758
 4570TIP3    H213647   4.093   5.026   2.800  0.1362  0.1600  0.0994
 4571TIP3   OH213648   3.138   3.621   2.400 -0.0585  0.0803 -0.2541
 4571TIP3    H113649   3.058   3.667   2.424 -0.8537 -0.8605 -1.0632
 4571TIP3    H213650   3.170   3.585   2.482  0.4122  1.7966  0.3410
 4572TIP3   OH213651   2.365   6.297   4.413  0.3986 -0.0378 -0.9072
 4572TIP3    H113652   2.315   6.228   4.371  1.3849 -0.3034 -1.6723
 4572TIP3    H213653   2.416   6.253   4.481 -0.0949  0.1702 -0.3962
 4573TIP3   OH213654   5.152   3.419   1.473 -0.3666 -0.5033  0.3379
 4573TIP3    H113655   5.143   3.359   1.399  0.9880  0.2955 -0.5001
 4573TIP3    H213656   5.208   3.373   1.535  0.4239 -0.2414 -0.1727
 4574TIP3   OH213657   3.735   5.220   3.095  0.2491  0.4181  0.8922
 4574TIP3    H113658   3.795   5.145   3.103 -1.2738 -0.7131  1.9678
 4574TIP3    H213659   3.667   5.190   3.034 -0.0383  1.1451  0.8583
 4575TIP3   OH213660   4.512   4.763   3.801  0.0638  0.0035 -0.0129
 4575TIP3    H113661   4.476   4.676   3.780  0.4536 -0.1795  0.0718
 4575TIP3    H213662   4.541   4.755   3.892  0.4305  0.1124 -0.1204
 4576TIP3   OH213663   1.817   4.648   2.200 -0.2637 -0.0129  0.0198
 4576TIP3    H113664   1.908   4.627   2.179 -0.6355 -1.3397 -0.2628
 4576TIP3    H213665   1.814   4.744   2.199  0.9766  0.0244 -0.6037
 4577TIP3   OH213666   2.976   5.126   3.776 -0.4644  0.0283 -0.0171
 4577TIP3    H113667   3.068   5.151   3.789  0.4438 -2.1769 -1.8564
 4577TIP3    H213668   2.951   5.167   3.694 -0.9828  0.2441  0.2465
 4578TIP3   OH213669   3.133   5.851   1.454 -0.0743  0.2442 -0.3289
 4578TIP3    H113670   3.040   5.833   1.438  0.0062  0.7495 -1.4299
 4578TIP3    H213671   3.140   5.946   1.454  0.6697  0.2141 -1.7462
 4579TIP3   OH213672   3.029   5.416   4.315 -0.9027 -0.0496  0.3361
 4579TIP3    H113673   3.090   5.478   4.274 -1.0758 -0.4545 -0.5481
 4579TIP3    H213674   2.983   5.468   4.381  0.6554  0.1692  1.2722
 4580TIP3   OH213675   2.348   4.770   3.827  0.2419 -0.4914  0.1258
 4580TIP3    H113676   2.377   4.844   3.881 -1.1260 -0.2985  0.6126
 4580TIP3    H213677   2.262   4.747   3.862 -0.7514 -0.2546 -2.0784
 4581TIP3   OH213678   5.153   4.875   4.368 -0.3792  0.1812 -0.1912
 4581TIP3    H113679   5.171   4.920   4.285 -1.5510 -1.3417 -1.3026
 4581TIP3    H213680   5.189   4.787   4.355 -0.2697  0.0419  1.0512
 4582TIP3   OH213681   3.086   2.502   3.147  0.1099  0.1694  0.2448
 4582TIP3    H113682   3.137   2.528   3.069  0.5682 -3.1944 -0.6821
 4582TIP3    H213683   2.996   2.494   3.115  0.2756 -1.0807  0.0687
 4583TIP3   OH213684   1.193   4.080   0.438 -0.0348  0.0683 -0.4697
 4583TIP3    H113685   1.105   4.047   0.456  0.1118 -0.8562 -1.4068
 4583TIP3    H213686   1.248   4.039   0.505 -0.2910  0.5284  0.0230
 4584TIP3   OH213687   2.740   5.183   1.283  0.6001  0.2356 -0.0390
 4584TIP3    H113688   2.833   5.175   1.261  0.8942 -0.1899  1.2781
 4584TIP3    H213689   2.721   5.276   1.273  2.2970  1.1169  3.7382
 4585TIP3   OH213690   3.196   7.285   4.086 -0.2441  0.1606  0.5013
 4585TIP3    H113691   3.118   7.229   4.091 -1.0257  1.0798 -0.9536
 4585TIP3    H213692   3.231   7.270   3.998  0.2526  1.0294  0.5448
 4586TIP3   OH213693   5.009   3.725   1.036  0.5317 -0.7306  0.2772
 4586TIP3    H113694   5.027   3.665   0.964  0.7644  0.1024 -0.3794
 4586TIP3    H213695   5.093   3.737   1.079  0.2638 -1.7042  1.0580
 4587TIP3   OH213696   3.450   7.508   1.931 -0.6100 -0.2605 -0.1290
 4587TIP3    H113697   3.523   7.524   1.991 -0.4976 -3.2615  0.6096
 4587TIP3    H213698   3.452   7.582   1.871  0.6834  1.6441  2.1906
 4588TIP3   OH213699   2.354   6.283   3.809 -0.1485  0.0348 -0.0923
 4588TIP3    H113700   2.302   6.345   3.759 -0.1462  0.4398  0.4030
 4588TIP3    H213701   2.305   6.201   3.803  0.9508 -0.4752 -2.5406
 4589TIP3   OH213702   2.479   4.845   2.480  0.3319  0.6395  0.3561
 4589TIP3    H113703   2.513   4.825   2.567 -1.5542 -0.1048  0.9567
 4589TIP3    H213704   2.386   4.866   2.494 -0.4992 -1.4000 -1.6919
 4590TIP3   OH213705   3.112   3.924   1.731 -0.4887  0.0464  0.1071
 4590TIP3    H113706   3.203   3.936   1.703 -0.0795 -1.9102  0.5592
 4590TIP3    H213707   3.113   3.845   1.784 -2.3340  0.4244  0.7567
 4591TIP3   OH213708   3.520   4.562   3.070 -0.0218 -0.0417 -0.1816
 4591TIP3    H113709   3.511   4.563   2.974 -0.1509 -0.4980 -0.1745
 4591TIP3    H213710   3.503   4.472   3.095  0.4968 -0.0292  0.2274
 4592TIP3   OH213711   5.958  -0.005   1.920 -0.1347  0.1537 -0.1038
 4592TIP3    H113712   5.953   0.021   2.012 -2.6831  0.7650 -0.3812
 4592TIP3    H213713   5.964   0.078   1.872  1.4896 -0.1731 -0.5046
 4593TIP3   OH213714   3.696   5.691   4.755  0.1069 -0.0466  0.2123
 4593TIP3    H113715   3.669   5.740   4.677  0.7228 -1.0226 -0.6280
 4593TIP3    H213716   3.618   5.690   4.810 -0.6404 -0.1781 -0.8243
 4594TIP3   OH213717   3.358   2.889   1.415 -0.0526 -0.0194 -0.0507
 4594TIP3    H113718   3.317   2.891   1.329 -0.8961 -2.5619  0.2424
 4594TIP3    H213719   3.445   2.850   1.400  1.5174  3.4674 -0.3606
 4595TIP3   OH213720   4.149   6.698   4.101 -0.1965 -0.1113 -0.0801
 4595TIP3    H113721   4.146   6.793   4.108 -1.5478 -0.1938  0.7115
 4595TIP3    H213722   4.241   6.676   4.109  0.4226  1.2997 -2.8366
 4596TIP3   OH213723   3.876   5.045   4.176 -0.1452  0.0701  0.0722
 4596TIP3    H113724   3.818   5.064   4.103 -0.7008 -1.8865 -0.0419
 4596TIP3    H213725   3.964   5.056   4.141 -0.4259  0.7380 -0.4242
 4597TIP3   OH213726   4.093   4.600   3.071  0.4842  0.1706 -0.0461
 4597TIP3    H113727   4.022   4.586   3.133 -0.0781 -1.8018 -1.0747
 4597TIP3    H213728   4.051   4.640   2.995  1.0042  1.7112  0.4643
 4598TIP3   OH213729   3.574   6.276   1.573 -0.0480  0.5097 -0.3703
 4598TIP3    H113730   3.532   6.361   1.585 -2.7764 -0.6146 -1.4116
 4598TIP3    H213731   3.508   6.223   1.527  0.9733 -2.6373  1.6205
 4599TIP3   OH213732   4.555   5.263   1.431  0.1101  0.2473 -0.3322
 4599TIP3    H113733   4.494   5.320   1.384  0.4294  1.4657  0.6884
 4599TIP3    H213734   4.529   5.270   1.522  0.9692 -0.2325 -0.0415
 4600TIP3   OH213735   4.070   7.116   2.394  0.1772 -0.5259  0.0074
 4600TIP3    H113736   4.164   7.130   2.407 -0.3636  0.8278  2.8215
 4600TIP3    H213737   4.040   7.195   2.350  0.5147 -1.5236 -2.1366
 4601TIP3   OH213738   3.066   7.810   3.348  0.1608 -0.1558 -0.5436
 4601TIP3    H113739   3.005   7.873   3.308 -0.4069 -0.1503  0.3224
 4601TIP3    H213740   3.108   7.767   3.273 -1.3310 -0.5827 -1.1658
 4602TIP3   OH213741   2.482   5.103   3.405  0.5502 -0.4339  0.0945
 4602TIP3    H113742   2.498   5.037   3.472  0.8785  0.9892  1.4557
 4602TIP3    H213743   2.562   5.156   3.404  0.2064  0.0813 -0.8159
 4603TIP3   OH213744   3.715   6.093   4.072  0.4768  0.0284 -0.6094
 4603TIP3    H113745   3.645   6.086   4.008  1.2118 -1.1669 -1.2987
 4603TIP3    H213746   3.792   6.118   4.021  0.6177  1.1252  0.1135
 4604TIP3   OH213747   5.525   6.000   3.395 -0.3208 -0.5133 -0.1668
 4604TIP3    H113748   5.585   5.928   3.414 -1.9832 -2.2826 -1.4227
 4604TIP3    H213749   5.534   6.014   3.300 -1.1065 -0.0739 -0.1786
 4605TIP3   OH213750   3.299   5.504   3.278 -0.1886 -0.0297 -0.2009
 4605TIP3    H113751   3.384   5.533   3.312 -0.4426  0.2462  0.1982
 4605TIP3    H213752   3.322   5.447   3.204  0.3403  0.1652 -0.1943
 4606TIP3   OH213753   1.950   3.578   3.523  0.1561 -0.3934 -0.1004
 4606TIP3    H113754   2.017   3.618   3.579  2.6939 -1.8307 -2.0109
 4606TIP3    H213755   1.949   3.486   3.550 -0.6658 -0.4867 -0.4596
 4607TIP3   OH213756   1.496   5.669   1.263 -0.0791  0.2173  0.1289
 4607TIP3    H113757   1.561   5.676   1.193  0.7886 -1.4626  0.7395
 4607TIP3    H213758   1.425   5.618   1.225  0.3020 -0.5196  0.3915
 4608TIP3   OH213759   2.878   5.783   2.905 -0.0358 -0.8390  0.0782
 4608TIP3    H113760   2.825   5.757   2.829 -2.0927 -0.5573  1.3799
 4608TIP3    H213761   2.959   5.734   2.895  0.7185  0.9897 -3.5677
 4609TIP3   OH213762   4.284   5.344   2.931  0.0847  0.1941 -0.6344
 4609TIP3    H113763   4.219   5.396   2.884  0.7923  0.9193 -0.8108
 4609TIP3    H213764   4.260   5.253   2.913 -2.0060  0.4213  0.8312
 4610TIP3   OH213765   3.231   5.765   1.042  0.0310 -0.3041 -0.4281
 4610TIP3    H113766   3.254   5.807   0.959 -1.0367  0.0136 -0.5698
 4610TIP3    H213767   3.242   5.671   1.025  0.2074 -0.2156 -0.8076
 4611TIP3   OH213768   1.361   6.379   2.871 -0.2202 -0.6097  0.4510
 4611TIP3    H113769   1.388   6.363   2.780 -0.8645 -2.3217  0.5493
 4611TIP3    H213770   1.295   6.449   2.864  0.5024  0.0040 -0.2865
 4612TIP3   OH213771   5.376   7.245   0.148 -0.2787  0.1906 -0.4678
 4612TIP3    H113772   5.470   7.259   0.161 -0.6875  1.7455  0.8724
 4612TIP3    H213773   5.354   7.302   0.075 -0.4362  0.7924  0.0505
 4613TIP3   OH213774   1.286   6.725   0.817 -0.1324 -0.0784 -0.2623
 4613TIP3    H113775   1.306   6.766   0.901 -0.8396  1.0450 -0.6336
 4613TIP3    H213776   1.357   6.753   0.759 -0.1529 -0.0892 -0.2923
 4614TIP3   OH213777   3.659   5.238   2.658 -0.4466  0.7627 -0.0671
 4614TIP3    H113778   3.748   5.216   2.631 -0.6346  0.6519 -0.6037
 4614TIP3    H213779   3.660   5.333   2.670 -0.7121  1.0032 -1.8031
 4615TIP3   OH213780   2.983   5.704   2.497  0.4408  0.1210 -0.3405
 4615TIP3    H113781   2.943   5.627   2.538 -1.8456  1.5843  0.2798
 4615TIP3    H213782   3.024   5.751   2.569  0.1672  0.4627 -0.4060
 4616TIP3   OH213783   6.045   0.059   3.065 -0.0064  0.1783 -0.6568
 4616TIP3    H113784   6.053   0.154   3.077 -1.4020  0.3647 -1.0324
 4616TIP3    H213785   6.132   0.025   3.083  0.6840  1.6085 -1.1892
 4617TIP3   OH213786   1.792   5.342   1.771  0.1227  0.1018 -0.3447
 4617TIP3    H113787   1.718   5.401   1.755  0.1429  0.0909 -0.4774
 4617TIP3    H213788   1.751   5.257   1.788  0.0822  0.2164  0.1276
 4618TIP3   OH213789   3.218   6.690   1.439 -0.4058  0.2652  0.0044
 4618TIP3    H113790   3.232   6.752   1.510  0.5072 -0.2172  0.2513
 4618TIP3    H213791   3.125   6.665   1.446 -0.3213  0.2315  1.0022
 4619TIP3   OH213792   3.457   7.985   3.172 -0.1196  0.2702 -0.0284
 4619TIP3    H113793   3.506   7.965   3.252 -0.7869  1.3446  0.6716
 4619TIP3    H213794   3.477   8.077   3.154 -0.2584  0.1285 -0.8834
 4620TIP3   OH213795   2.288   6.880   1.641 -0.8860  0.6100 -0.2100
 4620TIP3    H113796   2.252   6.793   1.622 -0.4146  0.2471  0.5043
 4620TIP3    H213797   2.374   6.862   1.679 -1.5648  1.3021  1.7415
 4621TIP3   OH213798   4.457   4.604   1.335  0.4928  0.6441 -0.0627
 4621TIP3    H113799   4.451   4.684   1.282 -2.0853  0.5956  0.1023
 4621TIP3    H213800   4.453   4.636   1.426 -1.0306  0.3230 -0.0016
 4622TIP3   OH213801   4.524   4.907   2.844 -0.2761  0.2997 -0.2682
 4622TIP3    H113802   4.519   4.829   2.900  1.5576  0.3404 -0.0029
 4622TIP3    H213803   4.470   4.885   2.768 -0.2221 -1.0288  0.0512
 4623TIP3   OH213804   4.411   6.008   0.585 -0.3365 -0.2191  0.0594
 4623TIP3    H113805   4.317   6.025   0.586 -0.5973 -1.6597  0.4942
 4623TIP3    H213806   4.419   5.920   0.548  0.9382  0.4468 -1.3277
 4624TIP3   OH213807   4.173   6.562   3.314 -0.4307 -0.6504 -0.2943
 4624TIP3    H113808   4.250   6.506   3.314  0.9594  1.1980  1.1280
 4624TIP3    H213809   4.107   6.511   3.361  0.6040 -1.3594  0.4188
 4625TIP3   OH213810   4.370   5.513   1.473  0.0717  0.1191  0.2436
 4625TIP3    H113811   4.391   5.481   1.561  0.8478  1.0411  0.3913
 4625TIP3    H213812   4.353   5.606   1.485 -0.0197  0.2060 -0.5584
 4626TIP3   OH213813   3.307   2.876   3.463 -0.1452  0.0105  0.1391
 4626TIP3    H113814   3.213   2.865   3.475 -0.1190  0.3342  0.6122
 4626TIP3    H213815   3.323   2.970   3.476  0.1935  0.0126 -0.2636
 4627TIP3   OH213816   2.319   7.307   0.916  0.0395  0.0246 -0.3127
 4627TIP3    H113817   2.369   7.357   0.981  0.4493 -1.2399  0.3715
 4627TIP3    H213818   2.319   7.362   0.838 -0.4280  1.5601  0.7430
 4628TIP3   OH213819   2.518   6.030   4.317 -0.2542  0.5286 -0.0941
 4628TIP3    H113820   2.541   6.043   4.409 -0.0691  1.7616 -0.3039
 4628TIP3    H213821   2.433   5.985   4.320 -1.2766  2.4294  0.7070
 4629TIP3   OH213822   5.140   5.384   2.474 -0.3526  0.8947 -0.3030
 4629TIP3    H113823   5.057   5.404   2.516  1.1624  1.9618  2.2967
 4629TIP3    H213824   5.159   5.294   2.499 -0.4691  0.8276 -0.4551
 4630TIP3   OH213825   3.535   5.929   3.516 -0.3519  0.1819  0.1766
 4630TIP3    H113826   3.516   5.960   3.427  0.8223  1.8805  0.4865
 4630TIP3    H213827   3.463   5.870   3.537 -1.3549  0.8189 -1.3913
 4631TIP3   OH213828   7.973   1.490   6.671  0.1464  0.6306 -0.3446
 4631TIP3    H113829   8.058   1.494   6.627  0.1500  0.1683 -0.3794
 4631TIP3    H213830   7.984   1.543   6.749  0.8253 -0.3892  0.2521
 4632TIP3   OH213831   3.574   5.923   3.048  0.4104 -0.1101 -0.0599
 4632TIP3    H113832   3.597   5.862   2.977  1.5906 -1.9081  1.8328
 4632TIP3    H213833   3.645   5.914   3.112 -1.4585  0.2958  2.1261
 4633TIP3   OH213834   4.144   6.728   1.964 -1.1200  0.3601  0.2952
 4633TIP3    H113835   4.136   6.797   1.898 -1.1786 -1.1159 -1.2529
 4633TIP3    H213836   4.149   6.776   2.047  2.8092  2.4557 -1.0127
 4634TIP3   OH213837   2.991   5.002   3.132  0.3435  0.5757  0.4395
 4634TIP3    H113838   3.037   4.925   3.167  0.3255  1.5395  2.6408
 4634TIP3    H213839   2.943   5.037   3.206 -2.8720  0.4390 -1.4835
 4635TIP3   OH213840   1.080   7.324   3.366  0.6134  0.2900  0.3242
 4635TIP3    H113841   1.103   7.386   3.297 -0.0907  1.4297  1.1035
 4635TIP3    H213842   0.985   7.320   3.364  0.6519 -0.9465  0.1409
 4636TIP3   OH213843   4.945   6.662   3.277  0.5868 -0.1419 -0.5443
 4636TIP3    H113844   4.948   6.677   3.371  2.0576 -1.0930 -0.4298
 4636TIP3    H213845   4.908   6.743   3.241 -2.8601 -0.8883  1.0668
 4637TIP3   OH213846   4.806   7.988   4.826  0.4956 -0.1605 -0.0105
 4637TIP3    H113847   4.721   7.990   4.780 -0.1029  2.4458  1.0964
 4637TIP3    H213848   4.786   7.954   4.912  0.4821  0.8002  0.3752
 4638TIP3   OH213849   8.024   2.241   6.653 -0.1206  0.3692 -0.0448
 4638TIP3    H113850   7.942   2.278   6.685 -0.4235  0.5490 -1.0082
 4638TIP3    H213851   8.053   2.301   6.585 -1.1396 -1.6551 -2.3367
 4639TIP3   OH213852   6.782   0.370   3.456 -0.4918  0.3777 -0.0211
 4639TIP3    H113853   6.757   0.330   3.539  1.3264  0.8402  0.7874
 4639TIP3    H213854   6.794   0.463   3.477  0.9489  0.3229 -0.5607
 4640TIP3   OH213855   3.834   7.239   0.450  0.2021  0.0949 -0.4395
 4640TIP3    H113856   3.893   7.211   0.521 -0.2220 -1.4010 -0.6460
 4640TIP3    H213857   3.819   7.159   0.399 -0.2087  0.9642 -1.7027
 4641TIP3   OH213858   2.687   7.117   4.895 -0.3986  0.0339 -0.2915
 4641TIP3    H113859   2.644   7.117   4.980 -0.8528 -1.3814 -0.4972
 4641TIP3    H213860   2.779   7.099   4.915 -0.0515  2.0674  0.0696
 4642TIP3   OH213861   3.514   5.849   1.626 -0.4238  0.1125 -0.2589
 4642TIP3    H113862   3.500   5.838   1.532 -1.1121  1.2826 -0.3019
 4642TIP3    H213863   3.473   5.933   1.647  0.8668  0.4916  0.8389
 4643TIP3   OH213864   2.911   5.860   4.227 -0.4699  0.0859 -0.0693
 4643TIP3    H113865   3.003   5.848   4.201 -0.4594  0.6483 -0.3032
 4643TIP3    H213866   2.909   5.947   4.268 -0.9166  0.1145 -0.1496
 4644TIP3   OH213867   3.358   6.380   1.765  0.1313  0.1583 -0.0915
 4644TIP3    H113868   3.437   6.370   1.818 -2.4530  0.3847  4.0409
 4644TIP3    H213869   3.329   6.290   1.747  0.6521  0.0791 -0.5299
 4645TIP3   OH213870   6.288   0.063   4.208  0.0686 -0.3394 -0.0311
 4645TIP3    H113871   6.199   0.047   4.179  0.7267 -3.4203 -0.4955
 4645TIP3    H213872   6.324   0.123   4.142 -0.7129 -1.5466 -1.5974
 4646TIP3   OH213873   3.183   7.001   3.639 -0.4865 -0.2460  0.5164
 4646TIP3    H113874   3.104   6.950   3.655 -0.8312 -0.4751 -1.8150
 4646TIP3    H213875   3.173   7.034   3.550  2.7362 -1.6012 -0.4322
 4647TIP3   OH213876   2.384   5.558   1.488  0.5022 -0.4027 -0.1266
 4647TIP3    H113877   2.466   5.531   1.530  0.3524 -0.0922  0.3821
 4647TIP3    H213878   2.326   5.578   1.562  0.6606  1.4543 -0.4688
 4648TIP3   OH213879   4.993   6.197   3.312 -0.3232  0.4982 -0.2192
 4648TIP3    H113880   4.944   6.235   3.240  0.0591 -0.0097 -0.7508
 4648TIP3    H213881   4.989   6.262   3.382 -1.5263  0.5692 -0.3555
 4649TIP3   OH213882   3.418   4.304   2.378  0.2439 -0.0604 -0.1933
 4649TIP3    H113883   3.429   4.261   2.293  0.2036 -0.4408 -0.0022
 4649TIP3    H213884   3.471   4.384   2.370  0.1541 -0.0389 -0.6165
 4650TIP3   OH213885   5.069   7.009   3.497 -1.0615 -0.0423 -0.0239
 4650TIP3    H113886   5.066   6.953   3.575 -1.4586  0.5459  0.4011
 4650TIP3    H213887   5.150   7.058   3.506 -0.0695 -1.4745 -1.0684
 4651TIP3   OH213888   1.900   1.995   5.217  0.3369  0.3632 -0.2435
 4651TIP3    H113889   1.944   2.079   5.201  1.4981 -0.2951 -0.6255
 4651TIP3    H213890   1.807   2.015   5.210  0.6491  1.2075 -2.4697
 4652TIP3   OH213891   4.058   5.878   4.036 -0.1977  0.4967  0.1789
 4652TIP3    H113892   4.042   5.912   3.948  1.3125 -0.5416 -0.5099
 4652TIP3    H213893   4.115   5.943   4.078  0.6976  0.0288 -0.3000
 4653TIP3   OH213894   2.079   6.014   2.939  0.2407  0.1070 -0.3221
 4653TIP3    H113895   2.157   6.052   2.979  0.0307 -0.1414  0.3304
 4653TIP3    H213896   2.077   6.051   2.850 -0.4713  2.3092  0.5833
 4654TIP3   OH213897   2.420   5.758   2.399 -0.1510  0.2288  0.5534
 4654TIP3    H113898   2.440   5.668   2.376 -1.8470 -0.0421  0.0719
 4654TIP3    H213899   2.498   5.808   2.373  0.2766 -0.9042 -0.3378
 4655TIP3   OH213900   3.515   3.937   0.594 -0.3212  0.2489  0.2959
 4655TIP3    H113901   3.552   4.017   0.632 -0.4956  0.9429 -0.9666
 4655TIP3    H213902   3.589   3.876   0.592  0.1156  0.7717  0.1654
 4656TIP3   OH213903   4.277   5.368   3.613 -0.4702  0.2898  0.1868
 4656TIP3    H113904   4.335   5.295   3.634 -0.5839 -0.0923 -0.8149
 4656TIP3    H213905   4.322   5.445   3.647  1.3364  0.1837 -1.8723
 4657TIP3   OH213906   3.141   5.837   2.691  0.4896  0.0805 -0.1746
 4657TIP3    H113907   3.139   5.839   2.787 -0.5682 -0.2355 -0.1869
 4657TIP3    H213908   3.142   5.929   2.664 -4.6277  0.3301  0.0479
 4658TIP3   OH213909   2.313   5.358   1.851  0.2207 -0.0345  0.1644
 4658TIP3    H113910   2.386   5.410   1.817  0.9649 -1.5954 -0.7061
 4658TIP3    H213911   2.237   5.386   1.800  1.0072 -1.1853 -1.7019
 4659TIP3   OH213912   5.233   5.837   3.609 -0.1351  0.2534 -0.3044
 4659TIP3    H113913   5.168   5.907   3.615  0.7301  0.9835  0.8166
 4659TIP3    H213914   5.211   5.778   3.681 -0.8426 -0.6333 -1.2265
 4660TIP3   OH213915   4.080   4.740   4.825 -0.0771 -0.0721  0.0967
 4660TIP3    H113916   3.993   4.778   4.816  0.2197  0.1257 -2.2070
 4660TIP3    H213917   4.076   4.659   4.774  0.9028 -0.4149  0.5444
 4661TIP3   OH213918   5.157   5.396   4.330  0.0740  0.5886  0.4762
 4661TIP3    H113919   5.067   5.377   4.304 -0.1897  0.7448  1.2718
 4661TIP3    H213920   5.198   5.431   4.251 -0.1865 -0.7344 -0.2467
 4662TIP3   OH213921   3.450   3.722   3.189 -0.0101  0.1002 -0.1625
 4662TIP3    H113922   3.358   3.729   3.163 -0.1526  2.5026  0.8952
 4662TIP3    H213923   3.485   3.811   3.179  1.7306 -0.3979  1.1844
 4663TIP3   OH213924   6.464   3.079   5.455  0.5204 -0.6061 -0.2124
 4663TIP3    H113925   6.373   3.100   5.436  1.2577  0.7360 -2.4424
 4663TIP3    H213926   6.467   3.067   5.550 -2.4858 -3.3781 -0.3914
 4664TIP3   OH213927   4.061   5.251   4.624  0.2387 -0.0170  0.3018
 4664TIP3    H113928   3.988   5.270   4.565  0.9791 -0.1112 -0.6585
 4664TIP3    H213929   4.070   5.156   4.621  0.0537 -0.0529  0.8448
 4665TIP3   OH213930   2.529   7.989   1.525 -0.2062  0.6558 -0.3984
 4665TIP3    H113931   2.548   8.027   1.611  0.1717  1.1176 -0.6807
 4665TIP3    H213932   2.495   7.902   1.545  1.0579  0.2730  0.1810
 4666TIP3   OH213933   0.247   1.002   5.769  0.5079  0.3435 -0.1190
 4666TIP3    H113934   0.195   1.082   5.763  0.4771  0.3196 -0.1700
 4666TIP3    H213935   0.337   1.032   5.786  0.1470  0.3209  1.9480
 4667TIP3   OH213936   3.777   5.906   3.335 -0.6060 -0.1996  0.5426
 4667TIP3    H113937   3.836   5.978   3.314  0.8295 -1.1841  1.1899
 4667TIP3    H213938   3.726   5.937   3.410  2.1629 -1.0148  2.8189
 4668TIP3   OH213939   3.929   6.076   1.931  0.8173 -0.1527 -0.2890
 4668TIP3    H113940   3.977   6.148   1.892  1.6052 -0.5978 -0.1635
 4668TIP3    H213941   3.837   6.095   1.913  0.8505  1.9949  1.6249
 4669TIP3   OH213942   3.308   6.723   3.350 -0.6026  0.0446  0.2512
 4669TIP3    H113943   3.378   6.713   3.285 -0.8431 -0.3678  0.0546
 4669TIP3    H213944   3.355   6.729   3.434 -0.2830  0.7652  0.0311
 4670TIP3   OH213945   6.630   5.139   1.399  0.0971 -0.2421 -0.0367
 4670TIP3    H113946   6.620   5.234   1.390 -0.5204 -0.3563 -0.6010
 4670TIP3    H213947   6.623   5.124   1.494  1.0666  0.3651  0.1370
 4671TIP3   OH213948   2.413   6.864   3.899 -0.4073 -0.1566 -0.3883
 4671TIP3    H113949   2.389   6.957   3.900 -1.0121 -0.2840 -1.5242
 4671TIP3    H213950   2.332   6.818   3.918  0.2977 -0.4150  2.1604
 4672TIP3   OH213951   4.049   5.353   1.273 -0.1414 -0.1808 -0.3939
 4672TIP3    H113952   4.039   5.403   1.192  0.6237 -1.1485 -1.0945
 4672TIP3    H213953   3.972   5.297   1.277 -0.2210 -0.0722 -0.4120
 4673TIP3   OH213954   4.350   3.885   1.061  0.8895  0.1501  0.2286
 4673TIP3    H113955   4.313   3.953   1.004 -0.5175 -0.3090  0.5643
 4673TIP3    H213956   4.356   3.928   1.147 -0.0399 -0.1445  0.4506
 4674TIP3   OH213957   4.215   4.836   2.161 -0.4538  0.5901 -0.0602
 4674TIP3    H113958   4.249   4.812   2.074  0.7679  1.8963  0.0269
 4674TIP3    H213959   4.127   4.869   2.144 -2.0387 -3.4921 -0.2186
 4675TIP3   OH213960   5.443   5.303   2.332  0.0805 -0.7116  0.6535
 4675TIP3    H113961   5.380   5.231   2.336 -0.6373 -0.1342  0.0895
 4675TIP3    H213962   5.432   5.349   2.415 -2.0939  0.8760 -0.4476
 4676TIP3   OH213963   4.440   2.980   3.207  0.0746 -0.2451 -0.2988
 4676TIP3    H113964   4.511   3.016   3.259  1.0506  0.1800 -1.8955
 4676TIP3    H213965   4.465   2.997   3.116 -2.1654  0.1064 -0.8842
 4677TIP3   OH213966   5.172   3.236   0.887  0.1647 -0.1774  0.1417
 4677TIP3    H113967   5.224   3.261   0.811 -0.3484  0.5371  0.0146
 4677TIP3    H213968   5.204   3.149   0.911  1.1103  0.0682 -0.1986
 4678TIP3   OH213969   0.160   0.797   6.802 -0.1549  0.2734  0.2795
 4678TIP3    H113970   0.205   0.743   6.868 -0.7879 -0.7555 -0.1210
 4678TIP3    H213971   0.226   0.810   6.733  0.3065  0.8312  0.8143
 4679TIP3   OH213972   0.914   4.958   3.870 -0.0782 -0.0851 -0.2582
 4679TIP3    H113973   0.836   4.906   3.850 -1.0598  0.7914  1.1343
 4679TIP3    H213974   0.973   4.898   3.915 -0.4655 -0.4546 -0.2470
 4680TIP3   OH213975   5.015   4.805   1.052 -0.0388 -0.0023  0.0472
 4680TIP3    H113976   4.927   4.812   1.090  0.1411  0.7129  0.3373
 4680TIP3    H213977   5.004   4.747   0.977 -1.7943  4.1045 -3.0436
 4681TIP3   OH213978   4.974   6.595   2.589 -0.3730 -0.0484  0.4075
 4681TIP3    H113979   5.018   6.611   2.506 -2.1068 -0.3933 -0.6139
 4681TIP3    H213980   5.019   6.652   2.652  1.4083 -0.3002 -0.6018
 4682TIP3   OH213981   2.501   3.205   1.123 -0.5860  0.4169  0.0346
 4682TIP3    H113982   2.477   3.297   1.109  2.0993  1.2990  1.0458
 4682TIP3    H213983   2.454   3.180   1.203 -0.9663  1.0218  0.0021
 4683TIP3   OH213984   3.259   3.912   0.833  0.2862 -0.1110  0.1221
 4683TIP3    H113985   3.248   3.888   0.925 -0.7730 -1.4225 -0.3262
 4683TIP3    H213986   3.188   3.974   0.815  1.9853  2.0775  0.8254
 4684TIP3   OH213987   7.101   3.464   1.488 -0.7570 -0.3759 -0.8977
 4684TIP3    H113988   7.100   3.531   1.419  0.1413  1.1235  0.5119
 4684TIP3    H213989   7.062   3.507   1.564  0.1729 -1.3219  0.1394
 4685TIP3   OH213990   2.859   6.933   3.420 -0.0445 -0.3463  0.3472
 4685TIP3    H113991   2.942   6.908   3.379  0.7595  0.4306  1.4560
 4685TIP3    H213992   2.809   6.852   3.424  0.4372 -0.7167 -0.8306
 4686TIP3   OH213993   2.360   2.471   2.242 -0.0556 -0.5021 -0.0853
 4686TIP3    H113994   2.438   2.521   2.266  0.2669 -0.4334 -1.2830
 4686TIP3    H213995   2.307   2.470   2.322  1.2677 -0.7415  0.8021
 4687TIP3   OH213996   4.006   6.847   4.893  0.1225  0.0878  0.1373
 4687TIP3    H113997   4.038   6.792   4.821  1.8970 -1.0564  1.7621
 4687TIP3    H213998   3.943   6.792   4.939 -1.5981  1.0964 -0.9618
 4688TIP3   OH213999   2.579   3.371   3.124 -0.4346  0.9750  0.0963
 4688TIP3    H114000   2.576   3.298   3.062  0.1906  0.0565  1.1279
 4688TIP3    H214001   2.672   3.380   3.145 -0.6625  1.1225  1.0666
 4689TIP3   OH214002   3.223   5.750   1.672  0.1700 -0.1496  0.5153
 4689TIP3    H114003   3.194   5.786   1.588  0.0376 -0.9165  0.2302
 4689TIP3    H214004   3.319   5.753   1.668  0.1603  0.1349  0.4797
 4690TIP3   OH214005   3.733   5.681   2.032  0.0072 -0.6810 -0.1379
 4690TIP3    H114006   3.815   5.686   2.081  0.2800  0.8786 -0.7485
 4690TIP3    H214007   3.669   5.727   2.086 -0.2438 -0.9972 -0.1584
 4691TIP3   OH214008   5.657   5.044   2.288  0.5717  0.2561 -0.2916
 4691TIP3    H114009   5.640   5.083   2.202  0.3706  0.4349 -0.1699
 4691TIP3    H214010   5.737   4.993   2.275 -0.1110 -0.6852 -0.8981
 4692TIP3   OH214011   3.956   5.968   1.478  0.1758  0.2813  0.0506
 4692TIP3    H114012   3.988   5.937   1.563 -2.0298  0.4696  0.9788
 4692TIP3    H214013   3.912   5.893   1.440  0.1235  0.5454 -0.4115
 4693TIP3   OH214014   2.643   4.190   1.613  0.2914  0.3555 -0.4491
 4693TIP3    H114015   2.717   4.221   1.664 -0.3646  0.8313  0.2157
 4693TIP3    H214016   2.596   4.269   1.586  0.1535  0.0713 -1.0585
 4694TIP3   OH214017   2.647   7.018   1.321 -0.2915 -0.1655 -0.3401
 4694TIP3    H114018   2.718   6.977   1.272 -1.2080  0.6747 -2.4831
 4694TIP3    H214019   2.611   6.949   1.376  1.6418 -0.8010  0.1474
 4695TIP3   OH214020   2.042   4.442   2.484  0.0076  0.1313  0.3427
 4695TIP3    H114021   2.094   4.395   2.549  0.4945 -0.0718 -0.1861
 4695TIP3    H214022   1.953   4.410   2.497  0.1094  0.0475  0.8662
 4696TIP3   OH214023   5.294   7.131   4.275  0.6203 -0.2086  0.7470
 4696TIP3    H114024   5.366   7.158   4.332  1.5915 -0.1111 -0.5063
 4696TIP3    H214025   5.270   7.211   4.228  1.4991 -0.8356 -0.7972
 4697TIP3   OH214026   1.527   5.457   1.752  0.2879  0.2548  0.2931
 4697TIP3    H114027   1.475   5.408   1.688  0.6670  0.3270 -0.0683
 4697TIP3    H214028   1.536   5.545   1.714 -0.5252  0.6557  1.0124
 4698TIP3   OH214029   7.012   0.117   3.833  0.0800 -0.0062  0.6414
 4698TIP3    H114030   6.944   0.174   3.796 -1.2600 -1.0688  1.4129
 4698TIP3    H214031   7.040   0.062   3.759  0.0178  0.3520  0.3503
 4699TIP3   OH214032   5.895   1.670   1.942 -0.1782 -0.3994 -0.0715
 4699TIP3    H114033   5.932   1.721   1.870  0.7422 -1.6699 -0.5027
 4699TIP3    H214034   5.924   1.580   1.926 -2.1810 -1.1668  0.4036
 4700TIP3   OH214035   4.382   3.296   2.037  0.4524 -0.1179  0.0184
 4700TIP3    H114036   4.430   3.368   2.078 -0.2663  0.0352  0.6144
 4700TIP3    H214037   4.419   3.288   1.949  2.0276 -0.4595  0.7010
 4701TIP3   OH214038   2.947   7.205   2.702 -0.0303 -0.3471  0.2847
 4701TIP3    H114039   2.964   7.139   2.635  0.3089 -0.3142  0.3360
 4701TIP3    H214040   3.017   7.269   2.690 -0.2538 -0.0895  0.3524
 4702TIP3   OH214041   1.784   6.288   2.556  0.5537 -0.2489  0.1752
 4702TIP3    H114042   1.716   6.351   2.579  1.0720 -0.0099  1.1067
 4702TIP3    H214043   1.864   6.341   2.547  0.5861 -0.4940 -1.1205
 4703TIP3   OH214044   5.773   0.735   3.825  0.2585  0.2755 -0.3358
 4703TIP3    H114045   5.769   0.689   3.741 -1.0687  0.9939 -0.6787
 4703TIP3    H214046   5.766   0.665   3.890 -0.3446 -0.1467 -0.8401
 4704TIP3   OH214047   2.691   5.659   2.720 -0.1959 -0.3743  0.2174
 4704TIP3    H114048   2.741   5.585   2.686 -0.0707 -1.0352  1.7628
 4704TIP3    H214049   2.609   5.620   2.751 -0.2646  0.1830  0.7504
 4705TIP3   OH214050   3.830   7.776   1.642  0.1995 -0.1775  0.0336
 4705TIP3    H114051   3.884   7.854   1.627 -0.0502 -0.1825 -0.9006
 4705TIP3    H214052   3.890   7.713   1.684 -0.1266  1.2410  2.7614
 4706TIP3   OH214053   5.660   0.420   0.341 -0.1853 -0.1973 -0.4284
 4706TIP3    H114054   5.634   0.371   0.264  0.2814  0.0399 -0.7391
 4706TIP3    H214055   5.594   0.397   0.408  0.2247 -1.5017 -0.4603
 4707TIP3   OH214056   4.236   4.283   0.194  0.4202 -0.0311 -0.1817
 4707TIP3    H114057   4.220   4.294   0.100 -0.9448 -1.2390 -0.1196
 4707TIP3    H214058   4.219   4.190   0.210 -0.8395  0.4684  1.5238
 4708TIP3   OH214059   2.146   6.240   1.316 -0.3046  0.0003  0.8063
 4708TIP3    H114060   2.216   6.294   1.280 -0.5539  0.2052  0.6290
 4708TIP3    H214061   2.179   6.151   1.308  1.4217  0.2921  3.9033
 4709TIP3   OH214062   2.811   4.166   3.498  0.1415  0.2256  0.5690
 4709TIP3    H114063   2.749   4.100   3.467 -0.4438  0.7820  0.5466
 4709TIP3    H214064   2.891   4.149   3.449  0.0945 -0.6644  0.7843
 4710TIP3   OH214065   4.707   6.259   2.007 -0.7560  0.3715 -0.3000
 4710TIP3    H114066   4.722   6.206   2.085 -3.4547 -0.4844 -0.3058
 4710TIP3    H214067   4.699   6.349   2.039  3.8212  0.8640 -0.2824
 4711TIP3   OH214068   2.744   5.056   1.031  0.1804 -0.0711 -0.0787
 4711TIP3    H114069   2.664   5.056   0.979  0.6730 -0.3510 -0.8538
 4711TIP3    H214070   2.715   5.066   1.121 -0.5622  2.8203 -0.6046
 4712TIP3   OH214071   2.796   5.303   0.917 -0.4535 -0.7234 -0.0384
 4712TIP3    H114072   2.806   5.215   0.953 -1.4592 -1.1777 -0.8223
 4712TIP3    H214073   2.723   5.295   0.856  0.5926  0.2476 -1.4488
 4713TIP3   OH214074   1.254   3.962   2.323  0.1253 -0.1184  0.2408
 4713TIP3    H114075   1.344   3.959   2.356 -0.5833  1.5243  2.4400
 4713TIP3    H214076   1.231   3.870   2.309  1.3737 -0.7054  1.8959
 4714TIP3   OH214077   2.997   5.170   1.253  0.2353  0.2395 -0.8287
 4714TIP3    H114078   3.042   5.174   1.338  0.3087  0.2849 -0.8698
 4714TIP3    H214079   3.059   5.124   1.196 -0.6746 -1.6946 -0.3114
 4715TIP3   OH214080   1.453   2.185   2.527 -0.1436  0.2552 -0.2537
 4715TIP3    H114081   1.397   2.243   2.476  0.5818 -0.1085 -1.4951
 4715TIP3    H214082   1.393   2.121   2.565 -0.5060 -0.6205 -2.2505
 4716TIP3   OH214083   0.246   2.405   6.832 -0.0188 -0.3341  0.1201
 4716TIP3    H114084   0.270   2.314   6.854 -0.1652 -0.8711 -1.8530
 4716TIP3    H214085   0.199   2.398   6.749 -1.8849  1.3481  0.9858
 4717TIP3   OH214086   2.620   5.916   2.653  0.0446 -0.4364 -0.2099
 4717TIP3    H114087   2.627   5.820   2.652  2.6784 -0.3030  0.1232
 4717TIP3    H214088   2.650   5.941   2.740  0.9576  0.7593 -0.8517
 4718TIP3   OH214089   2.831   4.389   1.726  0.9375 -0.6809 -0.2128
 4718TIP3    H114090   2.910   4.336   1.726 -0.3457 -2.6507 -0.3413
 4718TIP3    H214091   2.824   4.423   1.636  1.6224 -0.5117 -0.2002
 4719TIP3   OH214092   2.547   5.844   1.129  0.2588  0.4345 -0.0907
 4719TIP3    H114093   2.480   5.838   1.061  0.9698  0.8624 -0.8293
 4719TIP3    H214094   2.602   5.767   1.116  1.6964  1.6592 -1.3949
 4720TIP3   OH214095   4.404   7.155   0.235 -0.3389  0.2469  0.8398
 4720TIP3    H114096   4.313   7.183   0.226 -0.4860 -0.6471 -0.6793
 4720TIP3    H214097   4.453   7.236   0.249 -0.9490  1.1493 -1.9088
 4721TIP3   OH214098   2.205   6.628   1.634  0.5771  1.0995 -0.1718
 4721TIP3    H114099   2.164   6.563   1.577  2.8872  0.2602 -0.9151
 4721TIP3    H214100   2.198   6.590   1.722  2.6439 -0.5774 -0.7005
 4722TIP3   OH214101   4.733   4.977   2.005 -0.1412  0.3877  0.2931
 4722TIP3    H114102   4.679   5.044   2.048 -0.9826 -0.3038  0.3336
 4722TIP3    H214103   4.821   5.016   2.002 -0.6445  1.5477  0.1839
 4723TIP3   OH214104   2.984   4.590   3.191  0.5661 -0.0035  0.2962
 4723TIP3    H114105   2.917   4.553   3.134  1.5317 -0.9559 -0.2581
 4723TIP3    H214106   3.063   4.590   3.137  1.0248  1.0629  0.9478
 4724TIP3   OH214107   7.875   2.344   6.182  0.4373 -0.0234 -0.4323
 4724TIP3    H114108   7.854   2.437   6.192 -0.3021 -0.1824 -0.5009
 4724TIP3    H214109   7.865   2.307   6.269 -0.8762 -0.3624 -0.7188
 4725TIP3   OH214110   2.968   5.129   3.411  0.1997  0.6537  0.0728
 4725TIP3    H114111   3.003   5.216   3.430 -1.9121  1.1196  1.9350
 4725TIP3    H214112   2.879   5.144   3.381 -0.8144 -0.9428  2.1279
 4726TIP3   OH214113   4.649   5.867   1.341  0.0257  0.2153  0.4998
 4726TIP3    H114114   4.655   5.941   1.280 -1.2156  0.8799  1.1559
 4726TIP3    H214115   4.740   5.844   1.360  0.4360  1.8861  0.6399
 4727TIP3   OH214116   4.847   5.306   2.733  0.4371 -0.3860  0.1899
 4727TIP3    H114117   4.915   5.299   2.799  0.5010  2.3766  0.4711
 4727TIP3    H214118   4.775   5.253   2.767  0.3278  1.2834  2.6389
 4728TIP3   OH214119   2.928   6.061   3.636 -0.1536  0.1172 -0.4975
 4728TIP3    H114120   2.950   6.104   3.719  1.0607  0.1587 -0.8384
 4728TIP3    H214121   2.949   5.969   3.651  0.1602  0.1427 -0.7986
 4729TIP3   OH214122   3.973   4.152   0.855 -0.2335  0.1570  0.7442
 4729TIP3    H114123   3.957   4.065   0.892 -0.1137  0.5038  1.6297
 4729TIP3    H214124   4.048   4.185   0.904 -1.2693  1.4033  1.5311
 4730TIP3   OH214125   4.471   5.766   5.193 -0.5034 -0.6708  0.2819
 4730TIP3    H114126   4.509   5.784   5.107 -3.6514  0.4830 -0.9713
 4730TIP3    H214127   4.453   5.672   5.193  0.1619 -0.7995 -0.0307
 4731TIP3   OH214128   5.711   6.451   3.794 -0.5782  0.5712 -0.3968
 4731TIP3    H114129   5.747   6.493   3.872 -0.9885  1.0590 -0.4686
 4731TIP3    H214130   5.763   6.371   3.783 -0.9328  0.1686  0.7523
 4732TIP3   OH214131   2.281   6.605   3.082 -0.4131  0.2901  0.1261
 4732TIP3    H114132   2.237   6.610   3.166 -0.1748  0.9965  0.2187
 4732TIP3    H214133   2.288   6.697   3.054 -1.0081  0.0155 -0.9322
 4733TIP3   OH214134   2.834   5.648   2.193  0.0552  0.0554  0.1717
 4733TIP3    H114135   2.751   5.648   2.146  0.3623  0.4592 -0.3801
 4733TIP3    H214136   2.820   5.707   2.267  0.3126  1.3062 -0.7641
 4734TIP3   OH214137   5.965   5.875   1.815  0.2116 -0.1266  1.0199
 4734TIP3    H114138   5.876   5.866   1.850  0.3066 -0.1113  1.2656
 4734TIP3    H214139   5.959   5.839   1.726 -0.1510  0.3054  0.8644
 4735TIP3   OH214140   5.240   7.105   2.901 -0.4592 -0.2017 -0.1098
 4735TIP3    H114141   5.298   7.077   2.972  0.1080  1.9968  0.3442
 4735TIP3    H214142   5.191   7.026   2.877  1.7925 -1.7909  0.3794
 4736TIP3   OH214143   7.615   5.489   0.750  0.0720 -0.7693  0.1351
 4736TIP3    H114144   7.554   5.451   0.814 -1.5953  0.5529 -0.6300
 4736TIP3    H214145   7.629   5.579   0.781 -0.7345 -0.1233 -1.3188
 4737TIP3   OH214146   7.595   4.464   2.472  0.6551 -0.3871 -0.6498
 4737TIP3    H114147   7.641   4.416   2.541  0.3233  1.2568  0.7358
 4737TIP3    H214148   7.664   4.513   2.427  0.6423 -0.1458 -0.4064
 4738TIP3   OH214149   7.597   0.468   4.323 -0.1140 -0.3454 -0.1759
 4738TIP3    H114150   7.536   0.480   4.251  0.4330  0.0682 -0.5703
 4738TIP3    H214151   7.656   0.399   4.293  1.2159  1.0573 -0.8666
 4739TIP3   OH214152   3.606   4.470   0.408 -0.1761  0.3963 -0.5743
 4739TIP3    H114153   3.575   4.519   0.483  0.0540  0.2969 -0.4125
 4739TIP3    H214154   3.541   4.401   0.395  0.2256 -0.1190  0.0709
 4740TIP3   OH214155   0.391   2.819   6.845 -0.1627  0.1376  0.5958
 4740TIP3    H114156   0.401   2.898   6.899  1.1187 -0.7351  1.6610
 4740TIP3    H214157   0.438   2.840   6.764  0.5357  0.3164  1.0440
 4741TIP3   OH214158   3.688   7.403   2.327 -0.2062 -0.8125  0.4966
 4741TIP3    H114159   3.666   7.428   2.416 -2.5849 -0.1093 -0.2506
 4741TIP3    H214160   3.614   7.349   2.298  0.2590 -0.5794 -1.2289
 4742TIP3   OH214161   6.931   3.202   1.236 -0.1815  0.0681 -0.4407
 4742TIP3    H114162   7.019   3.234   1.217 -0.8031  1.7832 -0.5492
 4742TIP3    H214163   6.887   3.276   1.279 -1.5198 -0.7978 -0.2878
 4743TIP3   OH214164   4.317   5.782   4.629 -0.2049 -0.1072  0.4474
 4743TIP3    H114165   4.403   5.743   4.639 -1.1167 -2.0542  0.9831
 4743TIP3    H214166   4.296   5.817   4.715 -0.0565  0.1757  0.3710
 4744TIP3   OH214167   4.019   6.264   2.277  0.5402 -0.3384 -0.3838
 4744TIP3    H114168   3.977   6.291   2.195  1.4578  0.0898 -0.7243
 4744TIP3    H214169   4.018   6.343   2.331 -0.5329 -0.7601  0.2251
 4745TIP3   OH214170   5.909   6.855   2.252  0.2072  0.3316  0.6782
 4745TIP3    H114171   5.881   6.914   2.321  0.0937  0.1689  0.7725
 4745TIP3    H214172   5.936   6.775   2.297  0.1023  0.2136  0.5342
 4746TIP3   OH214173   5.505   4.697   2.077 -0.0585  0.0869 -0.2692
 4746TIP3    H114174   5.551   4.693   2.160  0.0558 -0.2664 -0.3461
 4746TIP3    H214175   5.413   4.693   2.100  0.0018 -2.4153 -0.2673
 4747TIP3   OH214176   4.189   4.429   2.475 -0.0619  0.1985  0.2312
 4747TIP3    H114177   4.270   4.388   2.444  0.1757  0.7345  0.1376
 4747TIP3    H214178   4.120   4.381   2.429  0.2064 -0.2044  0.2453
 4748TIP3   OH214179   4.255   7.254   1.794  0.1485  0.3717 -0.3605
 4748TIP3    H114180   4.309   7.184   1.757  0.0963  0.3968 -0.4816
 4748TIP3    H214181   4.167   7.217   1.798  0.3315  0.0151  0.6555
 4749TIP3   OH214182   4.379   6.995   1.402  0.4533  0.2856 -0.0607
 4749TIP3    H114183   4.344   6.908   1.422 -1.0404  0.2552 -2.6098
 4749TIP3    H214184   4.319   7.056   1.444 -1.4609  0.1666 -2.4986
 4750TIP3   OH214185   4.251   5.929   0.875 -0.4075  0.1212  0.0780
 4750TIP3    H114186   4.295   6.001   0.831 -0.3042 -0.4115 -0.7074
 4750TIP3    H214187   4.266   5.853   0.819  0.3772 -0.7432  1.4067
 4751TIP3   OH214188   5.104   4.155   3.115 -0.3779 -0.1493 -0.3023
 4751TIP3    H114189   5.188   4.159   3.161 -0.1798 -1.4860 -0.5439
 4751TIP3    H214190   5.062   4.239   3.136  0.3682 -0.0933  1.0406
 4752TIP3   OH214191   3.146   5.209   4.509  0.3907 -0.3307  0.6697
 4752TIP3    H114192   3.235   5.198   4.478  0.8022  0.4318  1.5646
 4752TIP3    H214193   3.103   5.263   4.442  1.5335  2.1028  1.8571
 4753TIP3   OH214194   5.508   7.054   4.635  0.2374 -0.5041  0.2236
 4753TIP3    H114195   5.488   6.982   4.694  0.6405  0.4017  1.4791
 4753TIP3    H214196   5.599   7.077   4.654 -0.6482  2.0003  1.6447
 4754TIP3   OH214197   3.643   6.062   2.770  0.1642 -0.3023  0.1271
 4754TIP3    H114198   3.675   5.976   2.798 -0.9070 -1.1214 -1.0627
 4754TIP3    H214199   3.714   6.097   2.715  0.0626 -1.0245 -0.4773
 4755TIP3   OH214200   6.800   5.708   1.817  0.1961 -0.7727 -0.0563
 4755TIP3    H114201   6.736   5.683   1.751 -1.2845 -0.8619  1.3769
 4755TIP3    H214202   6.845   5.626   1.839  1.0550 -0.6439 -1.3241
 4756TIP3   OH214203   5.077   4.130   1.353  0.1417  0.7813  0.1860
 4756TIP3    H114204   5.160   4.119   1.306 -0.8519  0.0321 -1.4382
 4756TIP3    H214205   5.101   4.121   1.445  2.0329  1.6476 -0.1935
 4757TIP3   OH214206   4.893   2.522   1.367 -0.0693  0.0536 -0.1286
 4757TIP3    H114207   4.863   2.432   1.351 -1.4408  0.0237  2.2986
 4757TIP3    H214208   4.978   2.511   1.410 -1.4222 -0.2548  2.6411
 4758TIP3   OH214209   5.817   5.781   3.030  0.0308 -0.1229  0.0747
 4758TIP3    H114210   5.776   5.698   3.007 -0.3758 -0.2896  1.4095
 4758TIP3    H214211   5.910   5.760   3.041 -0.1989 -0.5511  1.1890
 4759TIP3   OH214212   5.866   5.053   2.653 -0.2371 -0.4342  0.0225
 4759TIP3    H114213   5.805   5.113   2.609 -1.7792 -1.1725  1.1121
 4759TIP3    H214214   5.888   4.989   2.585  0.1638  0.4333 -0.6828
 4760TIP3   OH214215   5.958   6.489   2.044 -0.5779 -0.6512 -0.1105
 4760TIP3    H114216   5.943   6.395   2.050  0.5928 -0.9220 -1.1685
 4760TIP3    H214217   5.996   6.513   2.128  0.7705 -1.4569 -0.4821
 4761TIP3   OH214218   4.191   5.212   0.895 -0.0186 -0.0097  0.1535
 4761TIP3    H114219   4.148   5.236   0.977  0.5479 -0.5322  0.6103
 4761TIP3    H214220   4.281   5.192   0.920  0.0351 -0.6533 -0.5202
 4762TIP3   OH214221   5.661   5.582   1.977 -0.7094  0.3587  0.4041
 4762TIP3    H114222   5.578   5.569   2.022 -1.1062 -0.2785 -0.5074
 4762TIP3    H214223   5.682   5.496   1.940  0.0453  0.6734  0.0971
 4763TIP3   OH214224   5.358   7.781   2.989 -0.4449  0.1747 -0.1787
 4763TIP3    H114225   5.413   7.834   2.932 -0.8400  0.8130  0.0175
 4763TIP3    H214226   5.277   7.769   2.939 -0.3667 -0.2142 -0.2092
 4764TIP3   OH214227   4.063   6.354   1.314 -0.1238  0.2717  0.1406
 4764TIP3    H114228   4.092   6.263   1.326  0.9911  0.7189  0.8898
 4764TIP3    H214229   4.131   6.393   1.259 -1.8783 -0.0070 -2.2740
 4765TIP3   OH214230   6.679   4.494   1.253  0.0110  0.0396 -0.1539
 4765TIP3    H114231   6.632   4.428   1.203  1.2303 -0.0655 -1.1827
 4765TIP3    H214232   6.767   4.457   1.266  0.0361  0.5195  1.1505
 4766TIP3   OH214233   4.290   4.923   0.180  0.5838  0.4514  0.0353
 4766TIP3    H114234   4.325   4.846   0.224  0.9771  1.1156  0.8900
 4766TIP3    H214235   4.322   4.916   0.090  0.6430 -0.3639  0.1181
 4767TIP3   OH214236   6.583   4.203   2.830  0.4561  0.4304  0.1188
 4767TIP3    H114237   6.620   4.238   2.749  0.8324 -1.3969 -0.5080
 4767TIP3    H214238   6.489   4.194   2.811  0.7583 -1.3655 -0.6407
 4768TIP3   OH214239   3.495   6.378   3.744  0.9210 -0.4358  0.4168
 4768TIP3    H114240   3.518   6.318   3.674  1.6059  1.8023 -1.3335
 4768TIP3    H214241   3.579   6.405   3.782  0.5641 -1.4770  1.9779
 4769TIP3   OH214242   0.006   1.054   2.560 -0.3496  0.1938  0.2079
 4769TIP3    H114243   0.031   1.131   2.510  0.8319 -0.5169 -0.3073
 4769TIP3    H214244   0.051   1.064   2.644 -0.3031  0.1245  0.1908
 4770TIP3   OH214245   6.886   4.527   3.401 -0.4312 -0.0572  0.0567
 4770TIP3    H114246   6.959   4.465   3.407 -0.3144  0.1687  1.1377
 4770TIP3    H214247   6.811   4.473   3.378 -0.3439 -0.6189  1.0708
 4771TIP3   OH214248   5.602   5.330   1.560 -0.2300  0.2758 -0.2800
 4771TIP3    H114249   5.614   5.237   1.578  0.3063  0.4173  0.0815
 4771TIP3    H214250   5.508   5.339   1.544 -0.1628 -0.4740 -1.1771
 4772TIP3   OH214251   3.242   4.300   4.133  0.4723  0.3150 -0.2255
 4772TIP3    H114252   3.156   4.259   4.131  0.7631 -0.3845  0.9905
 4772TIP3    H214253   3.233   4.372   4.196  1.3610 -1.1651  1.6548
 4773TIP3   OH214254   5.203   7.440   1.723  1.0142  0.0596 -0.2138
 4773TIP3    H114255   5.238   7.442   1.812  1.0769 -0.2295 -0.2296
 4773TIP3    H214256   5.111   7.417   1.734  1.1096 -0.3511 -0.2446
 4774TIP3   OH214257   8.337   0.092   2.589  0.0503 -0.3893  0.1444
 4774TIP3    H114258   8.427   0.059   2.588 -1.4131 -4.7367  1.4045
 4774TIP3    H214259   8.312   0.095   2.496  1.4466  0.8173 -0.2097
 4775TIP3   OH214260   5.040   4.780   0.244 -0.4189 -0.4097 -0.0727
 4775TIP3    H114261   5.021   4.820   0.159 -1.7934 -0.9705 -0.0463
 4775TIP3    H214262   4.953   4.765   0.283  0.1682 -1.0697  0.9987
 4776TIP3   OH214263   4.640   6.919   1.716  0.6268  0.0252 -0.4856
 4776TIP3    H114264   4.725   6.961   1.704 -0.6104  1.8218 -3.8191
 4776TIP3    H214265   4.626   6.870   1.634 -2.2475  1.1574 -0.7151
 4777TIP3   OH214266   3.136   6.439   0.491 -0.4466 -0.1759 -0.1972
 4777TIP3    H114267   3.216   6.425   0.440  0.9491  0.5853  1.7074
 4777TIP3    H214268   3.112   6.351   0.521 -1.0257 -0.5669 -1.7554
 4778TIP3   OH214269   4.689   6.011   2.145 -0.5878 -0.1760  0.0032
 4778TIP3    H114270   4.762   6.051   2.193 -0.3177  0.8709 -1.2500
 4778TIP3    H214271   4.623   5.993   2.212 -0.3899  1.6566  0.7095
 4779TIP3   OH214272   4.478   7.626   0.816  0.3707 -0.2089  0.2871
 4779TIP3    H114273   4.506   7.566   0.748  0.5388  0.5970 -0.3681
 4779TIP3    H214274   4.385   7.608   0.828  0.3201 -0.2855 -0.2301
 4780TIP3   OH214275   5.560   5.140   2.054 -0.2406 -0.3538  0.1525
 4780TIP3    H114276   5.472   5.175   2.071  0.3319  0.9584  0.4926
 4780TIP3    H214277   5.595   5.199   1.987  0.4040 -0.8385  0.0670
 4781TIP3   OH214278   3.289   4.832   0.002 -0.3316  0.3640  0.5847
 4781TIP3    H114279   3.264   4.759   0.059  0.0633  0.1489  0.4898
 4781TIP3    H214280   3.222   4.898   0.015 -1.8855 -0.8712 -0.9206
 4782TIP3   OH214281   4.617   5.158   2.823  0.1555 -0.1478 -0.3097
 4782TIP3    H114282   4.581   5.070   2.825  0.4641 -0.2672  0.8485
 4782TIP3    H214283   4.655   5.170   2.910  0.5218  0.9581 -0.6071
 4783TIP3   OH214284   6.050   5.928   3.721  0.3894  0.7147  0.0310
 4783TIP3    H114285   6.123   5.967   3.770 -0.8686  2.5420  0.5233
 4783TIP3    H214286   5.985   5.998   3.717 -1.1380 -0.7337 -0.8382
 4784TIP3   OH214287   8.264   5.837   2.201  0.5673 -0.1108 -0.4672
 4784TIP3    H114288   8.329   5.781   2.161  0.9888 -0.7315  1.0530
 4784TIP3    H214289   8.304   5.866   2.283 -0.3470  0.9659 -0.3854
 4785TIP3   OH214290   5.123   5.739   2.108  0.4432  0.0384  0.1665
 4785TIP3    H114291   5.166   5.712   2.027  1.5602  1.4422  0.2618
 4785TIP3    H214292   5.108   5.658   2.157 -1.5502 -0.9823 -2.0623
 4786TIP3   OH214293   4.704   6.585   0.706 -0.4895  0.6784  0.0740
 4786TIP3    H114294   4.789   6.550   0.680 -0.9645 -0.7688  0.4235
 4786TIP3    H214295   4.716   6.611   0.797 -0.9333 -1.3170  0.7309
 4787TIP3   OH214296   6.135   5.104   4.038 -0.2754 -0.1300  0.2660
 4787TIP3    H114297   6.071   5.037   4.063 -1.9492  0.7399 -1.5624
 4787TIP3    H214298   6.088   5.160   3.976  2.3459  0.3804 -1.3458
 4788TIP3   OH214299   5.235   6.939   0.257 -0.6097  0.2208 -0.0228
 4788TIP3    H114300   5.167   6.887   0.301  0.7579 -1.2599  0.3603
 4788TIP3    H214301   5.190   6.978   0.182 -2.1366  0.0698  0.7878
 4789TIP3   OH214302   5.843   4.445   2.503 -0.2944  0.1480  0.1894
 4789TIP3    H114303   5.868   4.359   2.467 -2.6101 -0.9542  1.0887
 4789TIP3    H214304   5.885   4.448   2.589  0.1668  0.1167 -0.0335
 4790TIP3   OH214305   4.734   4.657   3.633 -0.1923  0.5781 -0.2035
 4790TIP3    H114306   4.818   4.658   3.679  0.5614 -1.9703 -1.4273
 4790TIP3    H214307   4.674   4.702   3.692  1.6101  0.7957  1.5235
 4791TIP3   OH214308   8.070   4.787   1.299 -0.5622 -0.5559 -0.0157
 4791TIP3    H114309   8.094   4.703   1.339  0.3815 -0.3115 -0.0385
 4791TIP3    H214310   7.997   4.819   1.353 -1.0492 -1.4725 -0.1217
 4792TIP3   OH214311   4.060   6.512   1.541  0.1603 -0.1779 -0.8999
 4792TIP3    H114312   4.052   6.442   1.477  0.7902  1.2972 -2.6158
 4792TIP3    H214313   4.153   6.535   1.540  0.5506 -1.4064  1.9427
 4793TIP3   OH214314   4.491   2.676   0.882 -0.3060  0.0337  0.1810
 4793TIP3    H114315   4.456   2.601   0.930 -0.4164  0.3979  0.6767
 4793TIP3    H214316   4.535   2.729   0.949 -0.7887  0.7366 -0.0531
 4794TIP3   OH214317   4.079   4.095   2.626 -0.0161  0.1424  0.1704
 4794TIP3    H114318   4.147   4.088   2.559 -0.2809 -1.3669  0.0283
 4794TIP3    H214319   4.108   4.166   2.683  1.6020 -0.3840  0.0250
 4795TIP3   OH214320   6.335   5.046   0.837  0.1363 -0.2775 -0.1268
 4795TIP3    H114321   6.240   5.031   0.830  0.0646  0.3962 -0.5754
 4795TIP3    H214322   6.366   4.974   0.893 -1.1460  1.2848  2.7375
 4796TIP3   OH214323   6.761   5.196   3.530 -0.0132  0.5350  0.0589
 4796TIP3    H114324   6.842   5.248   3.528 -0.7203  1.7292  1.7000
 4796TIP3    H214325   6.745   5.173   3.438  1.0687  2.0351 -0.5207
 4797TIP3   OH214326   5.723   3.171   1.944 -0.1444  0.0130  0.2155
 4797TIP3    H114327   5.818   3.158   1.944 -0.1362  0.0020 -0.9804
 4797TIP3    H214328   5.709   3.249   1.890 -0.8328 -0.1665  0.1270
 4798TIP3   OH214329   3.420   6.043   1.124  0.8799  0.3216  0.0194
 4798TIP3    H114330   3.429   6.074   1.034 -0.2464 -0.3662 -0.3416
 4798TIP3    H214331   3.505   6.005   1.145  0.7877 -0.5925 -1.1850
 4799TIP3   OH214332   3.555   6.394   0.896  0.3022  0.0719 -0.4030
 4799TIP3    H114333   3.567   6.331   0.967 -1.1269 -0.6032 -0.7533
 4799TIP3    H214334   3.462   6.390   0.876  0.4812  1.1708 -1.4790
 4800TIP3   OH214335   4.691   4.126   0.970  0.1494  0.6738  0.1713
 4800TIP3    H114336   4.745   4.047   0.972 -0.9251 -0.0710  0.1816
 4800TIP3    H214337   4.623   4.111   1.036 -1.5881  0.4905 -1.6166
 4801TIP3   OH214338   5.267   5.434   1.727  0.4225 -0.0632  0.1352
 4801TIP3    H114339   5.200   5.478   1.780 -0.1696 -1.8118  0.8866
 4801TIP3    H214340   5.314   5.505   1.684 -0.5245  1.2950  1.2897
 4802TIP3   OH214341   5.528   7.536   1.644 -0.0092 -0.0920  0.4324
 4802TIP3    H114342   5.447   7.541   1.593 -0.1618  1.0217  0.7925
 4802TIP3    H214343   5.535   7.620   1.688  0.2283 -0.9733  2.1283
 4803TIP3   OH214344   4.662   5.963   2.750  0.4037 -0.0725  0.1869
 4803TIP3    H114345   4.644   5.935   2.661  1.4076 -0.4772  0.1107
 4803TIP3    H214346   4.744   6.011   2.745 -0.2534  1.1132  0.6624
 4804TIP3   OH214347   5.360   5.081   0.708  0.2394  0.1865  0.3399
 4804TIP3    H114348   5.351   5.141   0.634  1.6757  1.2524  1.0023
 4804TIP3    H214349   5.292   5.109   0.770 -0.9418 -0.6867 -0.5251
 4805TIP3   OH214350   5.260   4.067   1.882  0.6115  0.0354 -1.0541
 4805TIP3    H114351   5.308   4.017   1.948 -1.9311  0.7896  1.4363
 4805TIP3    H214352   5.272   4.158   1.908 -0.1685  0.3613 -1.8192
 4806TIP3   OH214353   5.908   6.850   2.984  0.1721  0.7816 -0.0426
 4806TIP3    H114354   5.862   6.855   2.900 -1.2922  1.4196  0.7907
 4806TIP3    H214355   5.844   6.879   3.049  2.0385  2.6296  1.0254
 4807TIP3   OH214356   5.021   6.521   1.390  0.1245 -0.0958 -0.0374
 4807TIP3    H114357   4.982   6.567   1.464 -2.8501 -2.6079  0.0490
 4807TIP3    H214358   5.080   6.457   1.430 -0.2684 -0.3731  0.1010
 4808TIP3   OH214359   6.165   5.140   1.997  0.1574  0.0469 -0.5326
 4808TIP3    H114360   6.169   5.072   1.930 -3.6668  0.6559 -1.4898
 4808TIP3    H214361   6.183   5.221   1.949  0.8482  0.1337 -0.1343
 4809TIP3   OH214362   5.722   3.201   1.651 -0.0020  0.6434 -0.2557
 4809TIP3    H114363   5.761   3.128   1.700 -0.7546  0.7032  0.4399
 4809TIP3    H214364   5.638   3.167   1.621 -1.9287  2.2855  2.9799
 4810TIP3   OH214365   6.472   0.492   2.534 -0.4286  0.0827 -0.7644
 4810TIP3    H114366   6.468   0.490   2.439  1.3286  0.4402 -0.8499
 4810TIP3    H214367   6.548   0.439   2.557 -0.3594  0.6664  0.4144
 4811TIP3   OH214368   5.465   5.538   2.177  0.0755 -0.5296  0.0647
 4811TIP3    H114369   5.382   5.579   2.202  0.3692  0.6773 -0.9300
 4811TIP3    H214370   5.457   5.448   2.209 -0.9947 -0.0115  1.3262
 4812TIP3   OH214371   3.960   6.117   3.281 -0.0790  0.2424 -0.0378
 4812TIP3    H114372   3.923   6.199   3.248  0.0821  0.4277  0.2419
 4812TIP3    H214373   4.054   6.133   3.287 -0.0842  0.1445  0.3247
 4813TIP3   OH214374   4.123   4.787   1.117 -0.2706 -0.0298 -0.1624
 4813TIP3    H114375   4.066   4.756   1.188 -0.4848  1.1529  0.1884
 4813TIP3    H214376   4.201   4.821   1.162 -0.2187  0.3213 -0.5195
 4814TIP3   OH214377   4.874   6.020   1.803  0.0743 -0.1263  0.4813
 4814TIP3    H114378   4.824   5.950   1.847 -0.9030  0.6589  0.6321
 4814TIP3    H214379   4.907   6.074   1.875  1.2915 -0.7370  0.3877
 4815TIP3   OH214380   5.467   7.277   4.433 -0.1750  0.2742 -0.9655
 4815TIP3    H114381   5.516   7.218   4.490 -1.1374 -0.9840 -1.4268
 4815TIP3    H214382   5.514   7.360   4.439  1.0601 -0.4654 -0.1268
 4816TIP3   OH214383   7.723   0.307   2.387 -0.6141 -0.4499 -0.2789
 4816TIP3    H114384   7.796   0.343   2.337 -1.3716  1.6059  0.0637
 4816TIP3    H214385   7.649   0.305   2.325 -0.5486 -1.6066 -0.3430
 4817TIP3   OH214386   5.725   5.841   1.936  0.9078 -0.7123  0.1869
 4817TIP3    H114387   5.733   5.872   2.026  0.1147 -0.1542  0.0728
 4817TIP3    H214388   5.703   5.748   1.945 -1.3487 -0.1676  0.6297
 4818TIP3   OH214389   5.726   7.296   2.873 -0.4210  0.4464  0.4569
 4818TIP3    H114390   5.635   7.298   2.842 -0.4787  3.1271  0.6986
 4818TIP3    H214391   5.731   7.365   2.939  1.9185  0.6858  0.0756
 4819TIP3   OH214392   6.714   5.084   0.060 -0.0578 -0.4524  0.2711
 4819TIP3    H114393   6.619   5.094   0.055  0.0818  0.7974 -0.0065
 4819TIP3    H214394   6.747   5.139  -0.011  0.8651 -1.0158  0.2642
 4820TIP3   OH214395   7.216   5.835   3.209 -0.2442 -0.2563 -0.2850
 4820TIP3    H114396   7.168   5.856   3.289 -1.1899  1.9086 -1.3585
 4820TIP3    H214397   7.220   5.740   3.207 -1.9977 -0.3931  1.2881
 4821TIP3   OH214398   5.250   5.508   2.833  0.1876 -0.3753  0.0904
 4821TIP3    H114399   5.158   5.501   2.859 -0.0659 -0.1654 -0.7282
 4821TIP3    H214400   5.299   5.486   2.912 -0.5654 -1.2780  0.3200
 4822TIP3   OH214401   3.937   4.606   1.885  0.0702 -0.1297  0.2675
 4822TIP3    H114402   3.959   4.599   1.978 -0.8701  2.5336  0.7215
 4822TIP3    H214403   4.013   4.571   1.840  0.7692 -0.9461  2.0224
 4823TIP3   OH214404   6.270   5.227   1.092 -0.0672  0.0827 -0.1466
 4823TIP3    H114405   6.297   5.160   1.028 -0.0936  0.4811 -0.5761
 4823TIP3    H214406   6.343   5.233   1.153  0.3356  0.3377 -0.6507
 4824TIP3   OH214407   5.178   7.500   2.391  0.0185 -0.3392 -0.0926
 4824TIP3    H114408   5.191   7.518   2.484 -0.9936 -0.9583  0.1696
 4824TIP3    H214409   5.175   7.586   2.350  1.0764 -0.0729  0.3497
 4825TIP3   OH214410   5.941   5.532   2.793  0.7410  0.1842 -1.0641
 4825TIP3    H114411   5.943   5.523   2.889 -1.0658 -0.4610 -1.0643
 4825TIP3    H214412   5.936   5.627   2.778  0.3351  0.2510 -0.5078
 4826TIP3   OH214413   5.492   6.518   3.252 -0.1880 -0.5567  0.3213
 4826TIP3    H114414   5.417   6.463   3.274 -3.0045  2.3942 -1.4101
 4826TIP3    H214415   5.475   6.601   3.297  2.7978 -0.2968  1.0499
 4827TIP3   OH214416   1.713   1.648   5.531  0.3509 -0.2339  0.1603
 4827TIP3    H114417   1.758   1.673   5.612 -0.8304 -0.4015  0.8777
 4827TIP3    H214418   1.660   1.724   5.508 -0.0956 -0.5587  0.1060
 4828TIP3   OH214419   5.375   6.157   1.412  0.0824  0.0420 -0.6611
 4828TIP3    H114420   5.458   6.195   1.439 -0.8177  1.3312  0.3795
 4828TIP3    H214421   5.379   6.066   1.441  0.5374  0.4992  0.7591
 4829TIP3   OH214422   3.586   4.394   4.438 -0.2592 -0.4583  0.0668
 4829TIP3    H114423   3.533   4.451   4.493 -1.4271 -0.9114 -0.5899
 4829TIP3    H214424   3.594   4.313   4.489  1.1719  0.1613  0.8771
 4830TIP3   OH214425   5.415   6.305   0.696 -0.7169  0.4641  0.1231
 4830TIP3    H114426   5.350   6.320   0.627 -0.5136 -1.8959 -0.6181
 4830TIP3    H214427   5.379   6.233   0.748  1.3555 -0.9910 -0.3988
 4831TIP3   OH214428   3.800   5.447   3.981  0.1884 -0.1102  0.3253
 4831TIP3    H114429   3.723   5.496   4.009  1.0119  0.0927  2.2606
 4831TIP3    H214430   3.874   5.504   4.003  0.9764 -0.8383 -0.3989
 4832TIP3   OH214431   5.220   5.472   0.599  0.1567  0.0490 -0.5677
 4832TIP3    H114432   5.199   5.438   0.685 -1.6351 -0.3438 -1.1456
 4832TIP3    H214433   5.146   5.447   0.544 -1.2385  4.6855 -1.0630
 4833TIP3   OH214434   4.108   4.572   0.710 -0.1088  0.2189 -0.0791
 4833TIP3    H114435   4.067   4.486   0.719  0.2425  0.1036  0.4859
 4833TIP3    H214436   4.176   4.573   0.778  2.3163 -0.4383 -2.3869
 4834TIP3   OH214437   4.088   5.085   1.122  0.0032  0.6094  0.3070
 4834TIP3    H114438   4.094   4.990   1.115  2.3938  0.8724 -2.3839
 4834TIP3    H214439   4.008   5.107   1.074  0.0009  0.0028  0.0166
 4835TIP3   OH214440   5.787   5.089   4.214  0.4672 -0.4290  0.0729
 4835TIP3    H114441   5.811   5.179   4.240  2.2600 -0.7905 -0.3094
 4835TIP3    H214442   5.844   5.033   4.267 -0.4227 -1.3526  0.0706
 4836TIP3   OH214443   3.898   6.047   0.809 -0.9176 -0.3627  0.4358
 4836TIP3    H114444   3.858   6.110   0.749 -0.8694 -0.4259  0.3361
 4836TIP3    H214445   3.923   6.098   0.886  0.1410 -0.0421 -0.1086
 4837TIP3   OH214446   4.720   6.013   3.002  0.6008 -0.5466  0.0452
 4837TIP3    H114447   4.685   5.998   2.914 -0.3480  0.4149  0.2471
 4837TIP3    H214448   4.693   5.936   3.052  1.4215 -1.2531 -0.5750
 4838TIP3   OH214449   4.208   3.489   2.843  0.0991 -0.1724  0.5411
 4838TIP3    H114450   4.296   3.457   2.825 -0.3427 -0.5683 -0.9842
 4838TIP3    H214451   4.221   3.581   2.867  0.7654  0.3194 -1.5886
 4839TIP3   OH214452   5.146   4.769   3.077 -0.2529  0.4174  0.0436
 4839TIP3    H114453   5.173   4.722   3.156  1.3827  0.6583 -0.3517
 4839TIP3    H214454   5.222   4.766   3.020 -0.0522  3.6010  0.0523
 4840TIP3   OH214455   5.612   5.730   1.508  0.2723  0.7123 -0.1021
 4840TIP3    H114456   5.583   5.753   1.420 -1.9483 -1.4626 -0.0057
 4840TIP3    H214457   5.671   5.656   1.496  0.9557  1.2140  0.1487
 4841TIP3   OH214458   4.669   5.128   0.765 -0.4995 -0.3222 -0.1154
 4841TIP3    H114459   4.714   5.213   0.765 -1.3563  0.1455  0.9428
 4841TIP3    H214460   4.738   5.065   0.743  0.4342  0.5126  0.3575
 4842TIP3   OH214461   2.208   5.023   0.548  0.2855  0.3282  0.1201
 4842TIP3    H114462   2.269   5.088   0.512 -1.3981  2.1692  0.5243
 4842TIP3    H214463   2.262   4.972   0.609  1.9684  0.4119 -1.2433
 4843TIP3   OH214464   4.686   4.602   2.285  0.2756  0.3706  0.0011
 4843TIP3    H114465   4.602   4.647   2.284 -0.5948 -1.2023 -2.2083
 4843TIP3    H214466   4.705   4.588   2.378 -1.5472  1.3845  0.5429
 4844TIP3   OH214467   5.973   6.882   3.532 -0.6130  0.0935  0.1444
 4844TIP3    H114468   5.960   6.790   3.510 -0.3376 -0.0894  0.7438
 4844TIP3    H214469   6.058   6.905   3.493 -1.2200  0.4174 -1.0122
 4845TIP3   OH214470   3.605   4.832   0.694 -0.5201  0.3280 -0.4069
 4845TIP3    H114471   3.540   4.771   0.661 -0.2759 -1.1499  1.7079
 4845TIP3    H214472   3.689   4.790   0.677 -0.2626  0.8609 -0.4844
 4846TIP3   OH214473   0.922   1.695   6.350  0.0217 -0.7706  0.2415
 4846TIP3    H114474   0.844   1.745   6.373  0.4408 -0.0875  0.1713
 4846TIP3    H214475   0.982   1.759   6.311  1.1636 -1.0219  1.5581
 4847TIP3   OH214476   4.430   7.190   3.146  0.4782  0.2580 -0.2278
 4847TIP3    H114477   4.372   7.209   3.073 -0.1852 -1.0406 -0.0582
 4847TIP3    H214478   4.371   7.175   3.220  1.0738 -0.0374  0.1929
 4848TIP3   OH214479   5.122   5.465   2.221  0.3376  0.3570 -0.1303
 4848TIP3    H114480   5.061   5.400   2.185 -0.5221  0.9671  0.2172
 4848TIP3    H214481   5.142   5.433   2.309  2.1733 -0.9544 -0.9829
 4849TIP3   OH214482   3.523   3.965   1.803  0.8975 -0.4503 -0.3391
 4849TIP3    H114483   3.597   3.938   1.749 -0.2776 -2.2132 -1.1472
 4849TIP3    H214484   3.446   3.931   1.756 -0.3804  0.9400  0.7061
 4850TIP3   OH214485   4.055   5.978   2.643  0.4891 -0.0662 -0.1093
 4850TIP3    H114486   4.147   5.956   2.632  0.5004 -0.9083  1.5282
 4850TIP3    H214487   4.017   5.901   2.685 -0.9870  0.2278 -0.8758
 4851TIP3   OH214488   3.531   7.779   2.890  0.3027  0.2221  0.1740
 4851TIP3    H114489   3.566   7.814   2.972  1.2189  0.6203 -0.3786
 4851TIP3    H214490   3.602   7.725   2.854 -0.5318 -0.9378  0.2374
 4852TIP3   OH214491   2.189   2.556   6.879 -0.0275  0.3571 -0.2905
 4852TIP3    H114492   2.279   2.584   6.864  0.5470 -1.0575  0.3777
 4852TIP3    H214493   2.156   2.533   6.792 -0.5934  3.2423 -0.8763
 4853TIP3   OH214494   7.559   2.485   3.846  0.3694  0.2486  0.3561
 4853TIP3    H114495   7.495   2.478   3.775  1.4211  1.5780 -0.7393
 4853TIP3    H214496   7.517   2.541   3.910 -0.4284 -0.6396  0.6265
 4854TIP3   OH214497   4.832   5.693   2.132  0.0680 -0.3665  0.0172
 4854TIP3    H114498   4.825   5.783   2.164 -0.8951 -0.8749  1.2573
 4854TIP3    H214499   4.926   5.682   2.115  0.2904  0.6548  0.4948
 4855TIP3   OH214500   2.556   6.058   1.718  0.1651 -0.1835 -0.6539
 4855TIP3    H114501   2.567   6.099   1.804  2.1954 -1.1503 -0.4436
 4855TIP3    H214502   2.608   5.978   1.722 -1.4402 -1.3388 -2.0700
 4856TIP3   OH214503   7.076  -0.008   2.476 -0.7797 -0.5353  0.2746
 4856TIP3    H114504   7.064   0.036   2.392  0.8528 -2.6686 -1.1270
 4856TIP3    H214505   7.148   0.039   2.518 -0.8885 -0.1249 -0.0027
 4857TIP3   OH214506   7.895   1.133   6.530  0.5081 -0.1542  0.0136
 4857TIP3    H114507   7.868   1.181   6.608  2.3538  0.2457  0.4286
 4857TIP3    H214508   7.878   1.042   6.551 -1.2785  0.1606 -0.0579
 4858TIP3   OH214509   5.684   7.759   2.100 -0.4984 -0.0292  0.1108
 4858TIP3    H114510   5.601   7.807   2.091 -0.0065  0.8510  0.1737
 4858TIP3    H214511   5.751   7.825   2.084  0.1725 -1.2400 -2.3170
 4859TIP3   OH214512   2.978   6.689   3.251 -0.0160  0.3508  0.5415
 4859TIP3    H114513   3.044   6.624   3.225  1.2639  1.4047  1.1006
 4859TIP3    H214514   2.953   6.664   3.340  0.3498  0.5129  0.6920
 4860TIP3   OH214515   3.671   6.332   0.134 -0.1180 -0.0985 -0.0686
 4860TIP3    H114516   3.686   6.238   0.143  0.4530 -0.0336 -0.2784
 4860TIP3    H214517   3.579   6.344   0.156  0.5952 -0.2713  3.3442
 4861TIP3   OH214518   6.870   3.576   2.120  0.7869 -0.3960  0.0768
 4861TIP3    H114519   6.827   3.491   2.107  0.5688 -0.3620  0.5611
 4861TIP3    H214520   6.827   3.634   2.057  0.6047 -0.5316  0.0757
 4862TIP3   OH214521   5.313   5.248   1.191 -0.4748 -0.5502  0.2200
 4862TIP3    H114522   5.233   5.240   1.244 -2.4068  1.7599 -2.2374
 4862TIP3    H214523   5.336   5.341   1.196  0.3455 -0.6424 -1.5025
 4863TIP3   OH214524   5.523   6.365   2.723 -0.4481 -0.2974 -0.1670
 4863TIP3    H114525   5.583   6.293   2.701 -2.5795 -1.9150 -0.8973
 4863TIP3    H214526   5.489   6.341   2.810  0.5684  1.0574  0.6297
 4864TIP3   OH214527   6.133   6.660   3.650  0.3101  0.4579 -0.1049
 4864TIP3    H114528   6.080   6.609   3.589 -0.8822  0.8909  0.5595
 4864TIP3    H214529   6.223   6.648   3.619  0.0296 -1.7353 -0.1774
 4865TIP3   OH214530   6.302   6.130   1.964 -0.5872 -0.2906  0.1764
 4865TIP3    H114531   6.266   6.042   1.968 -2.3571  0.4497  1.5630
 4865TIP3    H214532   6.238   6.179   1.911 -1.7972  1.0920  2.8303
 4866TIP3   OH214533   5.121   5.667   3.809 -0.0328  0.4526  0.5892
 4866TIP3    H114534   5.043   5.704   3.850 -0.6199 -0.5992  0.4506
 4866TIP3    H214535   5.113   5.573   3.824  0.7455  0.2519 -0.2354
 4867TIP3   OH214536   6.515   6.496   3.853  0.3459 -0.1722  0.1712
 4867TIP3    H114537   6.526   6.581   3.896 -0.3272 -0.3714  0.7489
 4867TIP3    H214538   6.604   6.461   3.847  0.3884 -0.4273  2.0148
 4868TIP3   OH214539   5.724   6.222   2.941  0.2242  0.2045  0.3485
 4868TIP3    H114540   5.742   6.310   2.974 -0.9210  1.3851 -2.0479
 4868TIP3    H214541   5.801   6.171   2.967  1.5239  2.2240  0.6047
 4869TIP3   OH214542   5.095   6.879   2.478 -0.0624  0.8170 -0.3143
 4869TIP3    H114543   5.183   6.913   2.492  0.3367  0.1428 -1.1268
 4869TIP3    H214544   5.108   6.798   2.430 -1.1694  1.1979 -1.2887
 4870TIP3   OH214545   3.762   2.148   2.275  0.3252 -0.0685 -0.3632
 4870TIP3    H114546   3.788   2.074   2.220  1.0519 -0.0529 -0.0563
 4870TIP3    H214547   3.798   2.225   2.229 -0.2555  0.0726 -0.5794
 4871TIP3   OH214548   6.245   5.119   3.755  0.6471 -0.5312  0.1606
 4871TIP3    H114549   6.255   5.127   3.850  1.3271 -1.0440  0.1415
 4871TIP3    H214550   6.186   5.190   3.730  3.5054  2.1101  0.4727
 4872TIP3   OH214551   4.593   5.742   4.210  1.0765 -0.0423 -0.5327
 4872TIP3    H114552   4.568   5.652   4.191 -0.4571  0.2423  0.1060
 4872TIP3    H214553   4.511   5.786   4.233  1.8215  1.4928 -0.7531
 4873TIP3   OH214554   5.541   5.514   3.400 -0.2398  0.5537 -0.2425
 4873TIP3    H114555   5.447   5.513   3.379 -0.0216  0.6913 -1.2557
 4873TIP3    H214556   5.558   5.603   3.428 -0.3053  0.6730 -0.5768
 4874TIP3   OH214557   5.976   5.417   3.129  0.2280 -0.2174 -0.7362
 4874TIP3    H114558   5.976   5.322   3.135  1.3703 -0.2561 -1.2217
 4874TIP3    H214559   5.993   5.447   3.218  1.2294 -0.4943 -0.8309
 4875TIP3   OH214560   5.776   6.427   3.288  0.2256  0.0711  0.5043
 4875TIP3    H114561   5.781   6.343   3.335 -2.4065  0.3016  1.2699
 4875TIP3    H214562   5.683   6.450   3.290  0.5805  1.8352 -1.8014
 4876TIP3   OH214563   5.119   3.693   1.388  0.2980 -0.3925 -0.4485
 4876TIP3    H114564   5.096   3.733   1.472  0.9643 -1.7146  0.3846
 4876TIP3    H214565   5.130   3.600   1.409  1.4457 -0.5690 -1.8212
 4877TIP3   OH214566   6.646   4.260   2.565  0.4337 -0.3137  0.2070
 4877TIP3    H114567   6.631   4.354   2.576 -0.6890 -0.3983 -0.5160
 4877TIP3    H214568   6.713   4.254   2.497 -1.0856 -0.0688 -1.3523
 4878TIP3   OH214569   5.583   5.375   2.716  0.2849  0.2850  0.2941
 4878TIP3    H114570   5.632   5.318   2.658 -0.8114  2.1128 -2.5214
 4878TIP3    H214571   5.516   5.319   2.755  1.1731 -1.0081 -0.0425
 4879TIP3   OH214572   5.104   6.657   2.326  0.2554 -0.2917 -0.3498
 4879TIP3    H114573   5.194   6.632   2.306  0.3416  0.3137 -0.7492
 4879TIP3    H214574   5.064   6.673   2.240  0.1076  0.5861 -0.1174
 4880TIP3   OH214575   4.545   5.491   0.535  0.4033  0.7498 -0.1503
 4880TIP3    H114576   4.475   5.515   0.474  0.1263  1.8256  0.5778
 4880TIP3    H214577   4.498   5.448   0.608  0.7198 -0.4287 -0.6259
 4881TIP3   OH214578   6.983   1.761   1.324 -0.1534  0.4875 -0.3277
 4881TIP3    H114579   7.023   1.716   1.249 -0.3219  0.5180 -0.4349
 4881TIP3    H214580   6.889   1.750   1.312 -0.1887  0.6772 -0.2355
 4882TIP3   OH214581   7.268   7.213   4.133 -0.4694  0.4774  0.1923
 4882TIP3    H114582   7.329   7.155   4.178 -0.8701 -0.1634 -0.0863
 4882TIP3    H214583   7.204   7.154   4.092  0.3414  0.9944 -1.8895
 4883TIP3   OH214584   5.947   6.399   1.771 -0.5549  0.1970  0.1083
 4883TIP3    H114585   5.909   6.466   1.828 -0.4462 -1.0103  1.6383
 4883TIP3    H214586   5.984   6.448   1.697 -1.3492  1.7294  0.7001
 4884TIP3   OH214587   7.438   4.275   2.293 -0.4941 -0.4625  0.0363
 4884TIP3    H114588   7.454   4.342   2.360 -0.5217 -0.2277 -0.1874
 4884TIP3    H214589   7.512   4.215   2.300  1.0744  1.2138 -1.7187
 4885TIP3   OH214590   6.923   7.133   3.202  0.0775  0.2562  0.2848
 4885TIP3    H114591   6.847   7.186   3.178 -0.0667 -0.8578 -1.8570
 4885TIP3    H214592   6.896   7.089   3.282 -1.1941  0.5901  0.0619
 4886TIP3   OH214593   0.390   0.961   1.048  0.3040 -0.0671 -0.1275
 4886TIP3    H114594   0.337   0.881   1.054  0.1337  0.0265 -0.3713
 4886TIP3    H214595   0.334   1.024   1.003  0.8741 -0.1772 -1.0021
 4887TIP3   OH214596   4.889   5.070   1.491 -0.0441 -0.1380  0.5005
 4887TIP3    H114597   4.874   5.162   1.512 -0.8060 -0.0480 -0.3996
 4887TIP3    H214598   4.897   5.027   1.576  0.1820  0.7379  0.9266
 4888TIP3   OH214599   4.518   7.281   1.078  0.4339 -0.3393  0.1754
 4888TIP3    H114600   4.431   7.242   1.084 -0.2710  1.0091 -0.8620
 4888TIP3    H214601   4.574   7.225   1.131 -0.4857 -2.9080 -1.4719
 4889TIP3   OH214602   7.440   4.231   1.595  0.2533 -0.0826 -0.0761
 4889TIP3    H114603   7.445   4.273   1.509 -0.1503  1.8319  0.8260
 4889TIP3    H214604   7.420   4.302   1.656  2.8353 -0.9979  1.9411
 4890TIP3   OH214605   1.186   1.907   6.428 -0.0086  0.2644  0.3429
 4890TIP3    H114606   1.094   1.905   6.456 -0.6147 -1.8472 -1.6298
 4890TIP3    H214607   1.231   1.850   6.490 -0.2573  0.2410  0.5045
 4891TIP3   OH214608   3.976   5.720   2.266 -0.3561  0.0028 -0.4465
 4891TIP3    H114609   3.939   5.808   2.270  0.7566  0.4643 -0.0376
 4891TIP3    H214610   4.067   5.731   2.294 -0.5199 -1.4609  0.6966
 4892TIP3   OH214611   5.292   6.105   3.155 -0.2248  0.8542 -0.3297
 4892TIP3    H114612   5.301   6.197   3.181  0.2390  0.0614  2.5757
 4892TIP3    H214613   5.375   6.065   3.180 -0.4981 -0.4041 -1.3758
 4893TIP3   OH214614   4.297   4.181   0.627  0.2315 -0.7901  0.3561
 4893TIP3    H114615   4.392   4.173   0.619  0.4874  0.4480  1.9491
 4893TIP3    H214616   4.271   4.236   0.553  1.2043  1.6496  1.7643
 4894TIP3   OH214617   5.603   6.380   2.470  0.2350 -0.8142  0.4084
 4894TIP3    H114618   5.567   6.366   2.558  0.6560 -1.9266  0.4066
 4894TIP3    H214619   5.672   6.315   2.462  1.3041  0.3772 -0.1272
 4895TIP3   OH214620   5.718   4.674   0.675  0.1670 -0.7114 -0.3956
 4895TIP3    H114621   5.711   4.728   0.754  0.9423  0.7396 -1.3138
 4895TIP3    H214622   5.633   4.630   0.668 -0.9562  1.4267 -0.3993
 4896TIP3   OH214623   3.437   4.786   1.797  0.0936 -0.1793  0.5710
 4896TIP3    H114624   3.525   4.751   1.809 -0.1118 -0.1772  2.0971
 4896TIP3    H214625   3.451   4.870   1.754  0.5767 -2.1808 -3.4461
 4897TIP3   OH214626   4.139   5.198   2.103 -0.8223 -0.0038 -0.3096
 4897TIP3    H114627   4.048   5.227   2.108 -0.9473  0.0441 -2.3029
 4897TIP3    H214628   4.134   5.102   2.109 -0.9484  0.0390  0.2538
 4898TIP3   OH214629   5.441   6.829   2.949  0.1189  0.1471  0.0559
 4898TIP3    H114630   5.468   6.744   2.983 -1.5490 -0.3797  0.1256
 4898TIP3    H214631   5.375   6.860   3.011  0.0451  1.0655 -0.4658
 4899TIP3   OH214632   5.762   6.174   3.858  0.8877 -0.0489 -0.3137
 4899TIP3    H114633   5.769   6.104   3.923 -1.8482 -0.4758 -0.4084
 4899TIP3    H214634   5.695   6.144   3.796  0.9493  1.8622 -1.3863
 4900TIP3   OH214635   7.225   6.104   2.235 -0.1454 -0.2061 -0.0921
 4900TIP3    H114636   7.297   6.118   2.297 -1.8883 -0.2532  1.9934
 4900TIP3    H214637   7.249   6.156   2.158  1.4935  0.8133  1.0754
 4901TIP3   OH214638   5.544   4.410   0.660  0.2902  0.4449 -0.0489
 4901TIP3    H114639   5.529   4.324   0.620 -1.3161  1.2576 -1.2784
 4901TIP3    H214640   5.514   4.399   0.751 -1.5333  0.1342 -0.6534
 4902TIP3   OH214641   5.892   0.090   3.523  0.1168 -0.4454  0.4823
 4902TIP3    H114642   5.820   0.144   3.558 -1.4613 -2.1881 -0.0020
 4902TIP3    H214643   5.852   0.039   3.453  2.0658 -0.7860 -0.4142
 4903TIP3   OH214644   5.042   4.902   2.623 -0.5777 -0.3588 -0.2450
 4903TIP3    H114645   5.024   4.990   2.591 -2.2928 -1.2186 -1.7344
 4903TIP3    H214646   5.046   4.911   2.718  1.6106  1.7095 -0.4944
 4904TIP3   OH214647   5.520   4.744   3.117  0.1774  0.0866  0.2753
 4904TIP3    H114648   5.594   4.719   3.061 -0.3303  0.0838 -0.4071
 4904TIP3    H214649   5.551   4.728   3.206  0.9825  0.0463 -0.0045
 4905TIP3   OH214650   3.314   3.773   0.576 -0.3762  0.3195 -0.4541
 4905TIP3    H114651   3.261   3.787   0.655 -2.5032 -0.6637 -1.6410
 4905TIP3    H214652   3.392   3.825   0.589 -1.7737  2.0405  1.2806
 4906TIP3   OH214653   2.054   5.250   0.567 -0.7606 -0.2461  0.1656
 4906TIP3    H114654   1.979   5.207   0.609 -0.8183  0.8332  1.1897
 4906TIP3    H214655   2.114   5.179   0.546 -1.0180 -0.8720  1.5037
 4907TIP3   OH214656   0.896   0.555   2.733  0.4231  0.0763  0.0899
 4907TIP3    H114657   0.803   0.580   2.731  0.3713  0.0940  1.8308
 4907TIP3    H214658   0.940   0.624   2.683 -0.4222  0.4747 -0.1178
 4908TIP3   OH214659   4.746   5.154   4.179 -0.3910 -0.0113 -0.0525
 4908TIP3    H114660   4.656   5.152   4.214 -0.2202  0.5913  0.4273
 4908TIP3    H214661   4.796   5.098   4.238 -0.3620  0.0026 -0.0636
 4909TIP3   OH214662   3.476   5.354   3.106  0.3757 -0.7335 -0.2027
 4909TIP3    H114663   3.569   5.346   3.129  0.2962  0.6662  0.6742
 4909TIP3    H214664   3.456   5.274   3.057  2.2960 -0.5854 -1.2794
 4910TIP3   OH214665   4.476   6.451   2.445 -0.2588 -0.1779 -0.0017
 4910TIP3    H114666   4.408   6.409   2.393 -0.2779 -0.9899  0.6645
 4910TIP3    H214667   4.557   6.408   2.418 -0.1282  0.1648 -0.1538
 4911TIP3   OH214668   4.630   6.481   2.891  0.8622  0.0320  0.5288
 4911TIP3    H114669   4.603   6.523   2.972  1.6712  3.0116 -0.6437
 4911TIP3    H214670   4.549   6.460   2.845  0.4334 -0.2905  1.4372
 4912TIP3   OH214671   0.496   2.054   0.998 -0.3659  0.0710  0.0420
 4912TIP3    H114672   0.438   2.129   0.988 -1.2415 -0.6158 -0.0818
 4912TIP3    H214673   0.467   2.011   1.078  2.3075  1.7412  1.9915
 4913TIP3   OH214674   6.040   5.944   1.450 -0.2996  0.3283  0.2620
 4913TIP3    H114675   6.128   5.949   1.412  0.5791  0.1619  2.2282
 4913TIP3    H214676   6.020   6.034   1.475 -1.3206  0.6230 -1.5036
 4914TIP3   OH214677   2.528   5.076   1.413  0.4232  0.4563  0.2357
 4914TIP3    H114678   2.444   5.074   1.367  0.0979  2.6431  0.6877
 4914TIP3    H214679   2.591   5.103   1.346  1.0191 -2.2486 -0.3873
 4915TIP3   OH214680   6.942   6.363   1.263  0.4348  0.2495 -0.4913
 4915TIP3    H114681   6.994   6.289   1.294 -0.9120  0.1590  1.7016
 4915TIP3    H214682   6.853   6.329   1.260 -0.1671  1.7348  0.3940
 4916TIP3   OH214683   6.234   6.842   0.142  0.5535  0.6170 -0.5397
 4916TIP3    H114684   6.219   6.810   0.231  0.1488  0.8771 -0.5131
 4916TIP3    H214685   6.284   6.773   0.100  0.2132  0.2190 -0.2961
 4917TIP3   OH214686   6.653   4.571   1.666 -0.5331  0.5355 -0.0031
 4917TIP3    H114687   6.610   4.552   1.582 -0.2262 -0.8217  0.1347
 4917TIP3    H214688   6.581   4.577   1.729 -0.5600 -2.1142  0.2978
 4918TIP3   OH214689   6.934   5.804   0.877  0.3947  0.1604 -0.1192
 4918TIP3    H114690   6.874   5.790   0.950 -1.2938 -0.4443 -1.5583
 4918TIP3    H214691   6.990   5.726   0.877 -1.0078 -0.8838 -0.7364
 4919TIP3   OH214692   4.799   6.404   2.694 -0.2702  0.3840 -0.1332
 4919TIP3    H114693   4.866   6.468   2.673 -0.6040  0.9262  0.4312
 4919TIP3    H214694   4.778   6.420   2.786 -0.7735 -0.1432 -0.1490
 4920TIP3   OH214695   4.234   4.431   1.409 -0.2073  0.0627  0.1725
 4920TIP3    H114696   4.271   4.516   1.385 -0.2505  0.4544  1.4371
 4920TIP3    H214697   4.307   4.384   1.450 -0.3065 -0.3242 -0.0940
 4921TIP3   OH214698   4.983   5.469   2.927 -0.1226  0.3640  0.0970
 4921TIP3    H114699   4.928   5.543   2.902  0.6021  1.5081  1.8202
 4921TIP3    H214700   5.000   5.481   3.020 -0.2615 -2.1604  0.5088
 4922TIP3   OH214701   5.687   5.722   4.022  0.0309  0.1048  0.2003
 4922TIP3    H114702   5.634   5.727   3.942  0.9984  0.8122 -0.4076
 4922TIP3    H214703   5.693   5.813   4.051 -0.5614 -0.1823  1.2551
 4923TIP3   OH214704   6.139   4.706   2.533  0.6554  0.7996  0.0348
 4923TIP3    H114705   6.233   4.693   2.538  0.6849  1.2933  0.9406
 4923TIP3    H214706   6.105   4.624   2.499  1.1796 -0.3409  2.1666
 4924TIP3   OH214707   5.805   4.830   3.213  0.2926 -0.2618 -1.0748
 4924TIP3    H114708   5.844   4.743   3.204 -1.8048 -1.4499  0.9651
 4924TIP3    H214709   5.809   4.850   3.306 -0.0610  1.4434 -1.4021
 4925TIP3   OH214710   4.556   5.625   2.228  0.2550  0.4290 -0.4835
 4925TIP3    H114711   4.648   5.609   2.246  0.3780  0.5223 -1.0151
 4925TIP3    H214712   4.547   5.613   2.133 -0.2034  0.7699 -0.4897
 4926TIP3   OH214713   4.687   3.216   1.400  0.0509 -0.7540 -0.0754
 4926TIP3    H114714   4.727   3.198   1.485  1.9349  0.1582 -0.7449
 4926TIP3    H214715   4.639   3.298   1.412  2.4178  0.7430 -0.5302
 4927TIP3   OH214716   3.728   5.881   2.461 -0.3537  0.1337  0.0082
 4927TIP3    H114717   3.754   5.959   2.509  0.2950  0.7355 -1.3082
 4927TIP3    H214718   3.717   5.910   2.371 -2.5409 -0.7796 -0.0478
 4928TIP3   OH214719   7.019   5.480   2.701 -0.7247  0.1142 -0.0952
 4928TIP3    H114720   7.003   5.415   2.770 -0.2141 -0.7558 -0.7746
 4928TIP3    H214721   7.114   5.481   2.690 -0.8461 -0.3586 -1.3360
 4929TIP3   OH214722   4.685   4.512   2.601 -0.1534 -0.6079 -0.9537
 4929TIP3    H114723   4.763   4.565   2.589 -0.1999 -0.7031 -1.7415
 4929TIP3    H214724   4.613   4.575   2.602 -0.3705 -0.7516 -3.5990
 4930TIP3   OH214725   4.352   5.282   3.212 -0.3801 -0.2839  0.0493
 4930TIP3    H114726   4.316   5.301   3.125  2.4140 -1.8572 -1.5172
 4930TIP3    H214727   4.387   5.365   3.243  1.2222 -0.3062 -1.6295
 4931TIP3   OH214728   5.123   4.421   1.010  0.6243  0.4832  0.1775
 4931TIP3    H114729   5.100   4.335   0.976  1.2589 -0.3352  1.7483
 4931TIP3    H214730   5.149   4.472   0.933  1.0818 -0.9985 -0.6669
 4932TIP3   OH214731   4.293   4.545   3.477 -0.1289 -0.1845 -0.3889
 4932TIP3    H114732   4.330   4.458   3.464  0.1008 -0.2851  0.9043
 4932TIP3    H214733   4.199   4.529   3.491 -0.1668 -0.1875 -0.6577
 4933TIP3   OH214734   5.326   5.287   1.464 -0.0847  0.4904 -0.8674
 4933TIP3    H114735   5.258   5.341   1.504 -0.4277  0.8447 -1.9095
 4933TIP3    H214736   5.279   5.227   1.406  0.5562  1.7654 -2.7858
 4934TIP3   OH214737   5.611   6.080   2.244  0.3066 -0.2015  0.5595
 4934TIP3    H114738   5.701   6.045   2.243  0.5523  0.4408  0.0755
 4934TIP3    H214739   5.562   6.018   2.298  1.1102 -0.3987  1.0760
 4935TIP3   OH214740   5.820   1.992   1.651  0.2353  0.1060 -0.5380
 4935TIP3    H114741   5.837   1.996   1.745 -0.7141 -1.1307 -0.2945
 4935TIP3    H214742   5.843   1.902   1.626 -0.2705  0.1851 -1.3243
 4936TIP3   OH214743   6.131   6.730   3.162  0.4450  0.6275  0.0649
 4936TIP3    H114744   6.159   6.643   3.132 -1.9165 -0.9619  2.2221
 4936TIP3    H214745   6.063   6.756   3.099 -1.0014 -0.4922  1.1210
 4937TIP3   OH214746   4.833   5.701   2.881 -0.7820  0.0912 -0.1371
 4937TIP3    H114747   4.895   5.744   2.940 -0.0724 -0.6756 -0.3093
 4937TIP3    H214748   4.747   5.715   2.921 -0.3991  0.3554  0.5989
 4938TIP3   OH214749   7.101   5.603   3.683  0.3341  0.3669 -0.3049
 4938TIP3    H114750   7.037   5.673   3.671  0.8121  0.8989  0.2380
 4938TIP3    H214751   7.183   5.638   3.648  0.1382 -0.6446 -1.8364
 4939TIP3   OH214752   7.186   4.478   2.012  0.3248  0.1128 -0.0536
 4939TIP3    H114753   7.202   4.396   1.965  1.4651  1.7268 -2.5524
 4939TIP3    H214754   7.268   4.495   2.059  0.6190  0.6112 -0.7520
 4940TIP3   OH214755   6.995   6.003   0.633  0.0902 -0.3036 -0.5314
 4940TIP3    H114756   6.912   5.955   0.627 -1.2889  1.9074  0.1540
 4940TIP3    H214757   7.052   5.947   0.685 -1.5484 -1.1191  0.4360
 4941TIP3   OH214758   7.128   7.515   1.579 -0.1203  0.3734 -0.1599
 4941TIP3    H114759   7.054   7.551   1.530 -0.1412 -0.3060 -0.6395
 4941TIP3    H214760   7.088   7.461   1.647 -0.0648 -1.1311 -1.2932
 4942TIP3   OH214761   6.645   6.733   1.990 -0.0458 -0.1423 -0.2361
 4942TIP3    H114762   6.667   6.729   2.083  1.6964 -0.1802 -0.6433
 4942TIP3    H214763   6.707   6.796   1.953 -1.5738  0.8711 -1.1520
 4943TIP3   OH214764   8.123   3.668   1.321  0.2851 -0.5311 -0.0849
 4943TIP3    H114765   8.108   3.635   1.410 -0.5916  0.5928  0.2087
 4943TIP3    H214766   8.081   3.755   1.321  1.6926  0.1658 -1.1053
 4944TIP3   OH214767   4.067   0.729   5.407  0.3235  0.5989 -0.1635
 4944TIP3    H114768   4.124   0.667   5.361  0.7540  0.0917  1.0290
 4944TIP3    H214769   4.126   0.799   5.434  0.1688  0.6395  0.0669
 4945TIP3   OH214770   5.203   5.611   1.275  0.4385  0.0781  0.1594
 4945TIP3    H114771   5.205   5.695   1.322  1.4894 -0.0475  0.3436
 4945TIP3    H214772   5.288   5.606   1.231 -1.2319  1.0561 -3.3095
 4946TIP3   OH214773   0.465   3.560   1.195  0.0721 -0.0466 -0.2474
 4946TIP3    H114774   0.518   3.551   1.116  0.1922  0.5364 -0.2404
 4946TIP3    H214775   0.382   3.596   1.163  0.2416  0.5058 -0.0688
 4947TIP3   OH214776   6.405   6.231   4.037 -0.2006 -0.1481 -0.1024
 4947TIP3    H114777   6.343   6.256   3.968  1.9887  1.5689 -1.4891
 4947TIP3    H214778   6.407   6.306   4.096  1.4598  0.3190 -0.7266
 4948TIP3   OH214779   6.806   7.326   1.430 -0.1253  0.1577 -0.0965
 4948TIP3    H114780   6.759   7.409   1.432 -0.8306 -0.2551  1.2361
 4948TIP3    H214781   6.842   7.317   1.518  0.1706 -0.8250 -0.3088
 4949TIP3   OH214782   5.778   7.393   0.474 -0.3499 -0.0163 -0.3441
 4949TIP3    H114783   5.860   7.385   0.522  0.0993  0.9324 -0.9554
 4949TIP3    H214784   5.743   7.304   0.473  0.6286 -0.4120 -0.0192
 4950TIP3   OH214785   4.930   7.401   1.747 -0.0324 -0.5942 -0.3070
 4950TIP3    H114786   4.921   7.433   1.657 -0.0615  2.6899  0.7938
 4950TIP3    H214787   4.842   7.412   1.785  0.5558  0.3734  0.8109
 4951TIP3   OH214788   5.990   6.289   1.313 -0.3694 -0.2638  0.1843
 4951TIP3    H114789   6.085   6.281   1.317 -0.2640  1.2804  1.6622
 4951TIP3    H214790   5.959   6.243   1.391 -0.7510  0.2091  0.3158
 4952TIP3   OH214791   6.503   7.964   2.401  0.0317  0.1558 -0.5034
 4952TIP3    H114792   6.516   7.884   2.452 -0.2484  0.3665 -0.1000
 4952TIP3    H214793   6.501   7.934   2.310 -3.1334 -0.7224 -0.2033
 4953TIP3   OH214794   4.937   4.756   1.963 -0.4735 -0.0686 -0.4689
 4953TIP3    H114795   4.856   4.804   1.948 -0.1249  0.2364 -1.3812
 4953TIP3    H214796   4.987   4.767   1.882 -0.4240 -2.0257 -0.7250
 4954TIP3   OH214797   8.152   5.683   2.476  0.2190  0.1029  0.9760
 4954TIP3    H114798   8.238   5.714   2.444 -0.1515  0.1046 -0.0481
 4954TIP3    H214799   8.105   5.764   2.499 -0.7714  0.3556 -1.7590
 4955TIP3   OH214800   1.843   2.471   5.444 -0.7134  0.4760 -0.0112
 4955TIP3    H114801   1.797   2.510   5.519  1.7049 -2.9523  3.4453
 4955TIP3    H214802   1.934   2.501   5.454  0.2293 -2.3417  0.1581
 4956TIP3   OH214803   5.850   6.845   0.672 -0.7294  0.1102  0.2424
 4956TIP3    H114804   5.938   6.833   0.638 -1.0308  1.0078 -0.9009
 4956TIP3    H214805   5.841   6.940   0.684 -1.5437  0.0310  0.3219
 4957TIP3   OH214806   6.654   6.493   1.278 -0.0515  0.5144 -0.9238
 4957TIP3    H114807   6.682   6.411   1.238 -0.1722 -0.1773  0.3906
 4957TIP3    H214808   6.660   6.558   1.207 -0.4066 -0.7084 -2.0906
 4958TIP3   OH214809   7.805   4.783   2.609  0.3764  0.4686 -0.6498
 4958TIP3    H114810   7.750   4.753   2.681  0.7012 -0.8288 -0.9231
 4958TIP3    H214811   7.764   4.864   2.579 -1.2943 -0.3802 -0.7457
 4959TIP3   OH214812   7.527   5.042   0.628 -0.0228 -0.4012  0.2098
 4959TIP3    H114813   7.488   5.112   0.576 -1.6360 -0.9193  0.7124
 4959TIP3    H214814   7.494   5.056   0.717  1.0254 -0.7848  0.6779
 4960TIP3   OH214815   6.141   7.261   1.430  0.0955  0.4440 -0.2408
 4960TIP3    H114816   6.069   7.200   1.443 -0.2261  1.0254  0.7601
 4960TIP3    H214817   6.102   7.336   1.386  0.2788  0.3837 -0.5127
 4961TIP3   OH214818   8.216   7.293   2.601 -0.3186  0.3676  0.2099
 4961TIP3    H114819   8.288   7.254   2.551 -1.6295 -0.4486 -1.1061
 4961TIP3    H214820   8.179   7.358   2.542 -0.1448  1.3967  1.2094
 4962TIP3   OH214821   5.341   5.955   1.601  0.3906 -0.1376 -0.1123
 4962TIP3    H114822   5.246   5.961   1.606  0.3284 -1.1995 -0.0636
 4962TIP3    H214823   5.369   5.938   1.691  0.5827 -0.4158 -0.2248
 4963TIP3   OH214824   5.848   4.680   0.156  0.0345  0.0825 -0.2009
 4963TIP3    H114825   5.854   4.775   0.159  0.2554  0.0911 -0.7217
 4963TIP3    H214826   5.754   4.662   0.149  0.0607  0.3247 -1.4455
 4964TIP3   OH214827   7.092   6.169   1.393 -0.1217 -0.0978 -0.6136
 4964TIP3    H114828   7.057   6.129   1.473  1.3612  0.6088  0.3997
 4964TIP3    H214829   7.146   6.101   1.354  1.6474  0.5538  0.6243
 4965TIP3   OH214830   6.953   5.731   0.486 -0.1088 -0.4981  0.0412
 4965TIP3    H114831   6.964   5.720   0.391  0.7335 -1.0585  0.1893
 4965TIP3    H214832   7.037   5.767   0.515 -1.1028  1.6656  0.2918
 4966TIP3   OH214833   7.469   7.187   2.702  0.3769 -0.4134 -0.4406
 4966TIP3    H114834   7.535   7.162   2.767  0.6020 -0.4630 -0.6907
 4966TIP3    H214835   7.411   7.111   2.698 -0.7028  0.2952  1.0563
 4967TIP3   OH214836   0.325   5.528   1.929 -0.3468  0.1319  0.6412
 4967TIP3    H114837   0.315   5.536   2.024  0.7069  1.7903  0.6336
 4967TIP3    H214838   0.281   5.606   1.894  0.6772  0.3770 -0.1289
 4968TIP3   OH214839   7.722   7.870   2.218 -0.2021 -0.1257  0.5185
 4968TIP3    H114840   7.688   7.808   2.153  0.4894 -0.7087  0.7065
 4968TIP3    H214841   7.659   7.943   2.217 -0.1224 -0.0503 -0.9208
 4969TIP3   OH214842   2.263   2.096   4.943  0.4998 -0.1086 -0.1164
 4969TIP3    H114843   2.204   2.022   4.929  0.3466 -0.0165  0.0387
 4969TIP3    H214844   2.224   2.167   4.891  0.1214  0.1363  0.5045
 4970TIP3   OH214845   6.046   6.116   0.057 -0.1515 -0.6334 -0.2530
 4970TIP3    H114846   6.086   6.083  -0.024  1.3176  0.3013  0.0649
 4970TIP3    H214847   6.088   6.066   0.127 -0.3132 -0.3786  0.0293
 4971TIP3   OH214848   0.648   0.084   2.539  0.4326 -0.1726 -0.1441
 4971TIP3    H114849   0.693   0.014   2.492  0.2075 -0.2293 -0.2730
 4971TIP3    H214850   0.691   0.164   2.510 -1.1193 -0.0065 -2.0704
 4972TIP3   OH214851   7.657   6.692   2.313  0.0797  0.0373 -0.1400
 4972TIP3    H114852   7.700   6.635   2.376  0.6202  0.1389 -0.4173
 4972TIP3    H214853   7.633   6.635   2.240  0.6533  0.1616 -0.4338
 4973TIP3   OH214854   6.082   4.991   0.855 -0.4764 -0.5069 -0.0969
 4973TIP3    H114855   6.028   4.914   0.835 -2.8300  0.7703  1.2450
 4973TIP3    H214856   6.052   5.020   0.940 -0.0310  2.2905 -0.8584
 4974TIP3   OH214857   1.145   6.779   2.151 -0.5079  0.0135 -0.2878
 4974TIP3    H114858   1.183   6.836   2.217  2.2579  0.5043 -2.1730
 4974TIP3    H214859   1.132   6.696   2.195 -1.7571  1.2351  1.6943
 4975TIP3   OH214860   6.883   6.642   1.360  0.2619 -0.2461  0.0009
 4975TIP3    H114861   6.814   6.638   1.426  0.6724 -1.3915  0.3698
 4975TIP3    H214862   6.885   6.555   1.321  0.5732  0.1809 -0.9680
 4976TIP3   OH214863   0.311   4.549   1.326 -0.0851  0.1182 -0.1844
 4976TIP3    H114864   0.236   4.494   1.303 -0.0256 -0.2380  0.4582
 4976TIP3    H214865   0.359   4.560   1.244 -1.0193  0.6221 -0.6668
 4977TIP3   OH214866   8.240   3.882   0.980 -0.1133  0.1517  0.1194
 4977TIP3    H114867   8.300   3.952   1.005 -0.9302  0.7503  0.3874
 4977TIP3    H214868   8.256   3.870   0.886  1.9560 -1.1594  0.5942
 4978TIP3   OH214869   0.248   7.483   2.637  0.0172 -0.7086 -0.0980
 4978TIP3    H114870   0.307   7.413   2.611  0.1861 -0.0246 -1.6155
 4978TIP3    H214871   0.300   7.538   2.696  1.2976  0.5334 -2.3381
 4979TIP3   OH214872   6.369   5.547   0.114 -0.1825  0.1381 -0.3103
 4979TIP3    H114873   6.333   5.464   0.083 -0.1971 -0.5200  1.4418
 4979TIP3    H214874   6.418   5.525   0.193 -0.1838  1.7906  0.1783
 4980TIP3   OH214875   7.518   5.924   0.974  0.1518 -0.0562 -0.0017
 4980TIP3    H114876   7.441   5.953   0.926  0.1168  0.2880  0.2635
 4980TIP3    H214877   7.523   5.982   1.049  1.4472  0.7828 -0.7262
 4981TIP3   OH214878   7.032   5.076   2.098 -0.2105  0.3689 -0.1164
 4981TIP3    H114879   6.997   5.163   2.116 -0.8369 -0.4032  2.6074
 4981TIP3    H214880   7.081   5.053   2.176 -0.8296 -2.1056 -0.4061
 4982TIP3   OH214881   4.664   0.693   6.874 -0.4298 -0.1958 -0.3481
 4982TIP3    H114882   4.592   0.636   6.900 -0.5749  0.5323  0.8732
 4982TIP3    H214883   4.691   0.736   6.955 -0.9028  2.1443 -1.4117
 4983TIP3   OH214884   6.344   7.157   2.198 -0.3154 -0.1435 -0.3273
 4983TIP3    H114885   6.360   7.064   2.186  1.2927  0.0968 -0.1854
 4983TIP3    H214886   6.339   7.168   2.293 -0.3187 -0.0644 -0.3365
 4984TIP3   OH214887   6.820   5.717   3.223  0.2580 -0.0360  0.1876
 4984TIP3    H114888   6.839   5.811   3.231  0.2675  0.0301 -0.5637
 4984TIP3    H214889   6.815   5.686   3.313  0.3064  0.6790  0.4410
 4985TIP3   OH214890   4.437   4.278   1.606  0.1302 -0.0248 -0.1303
 4985TIP3    H114891   4.523   4.244   1.633 -0.2729 -0.4008  0.7084
 4985TIP3    H214892   4.379   4.202   1.611 -0.5470  0.5339  0.6695
 4986TIP3   OH214893   6.030   7.192   2.521 -0.7149 -0.0303  0.3284
 4986TIP3    H114894   5.962   7.229   2.464 -0.2549  0.0217 -0.1954
 4986TIP3    H214895   6.063   7.267   2.571 -0.0598  0.2171 -0.4473
 4987TIP3   OH214896   3.078   0.378   6.858  0.1611 -0.2800  0.2502
 4987TIP3    H114897   3.127   0.416   6.930 -0.2868  0.4744  0.1673
 4987TIP3    H214898   3.022   0.312   6.899 -0.2413  0.2903  0.6260
 4988TIP3   OH214899   5.725   5.242   2.511  0.2788  0.6363  0.5751
 4988TIP3    H114900   5.698   5.230   2.420  1.3859 -1.6926  0.5275
 4988TIP3    H214901   5.753   5.334   2.516  1.5282  0.4240 -1.7879
 4989TIP3   OH214902   6.173   5.400   0.747 -0.6822 -0.1999 -0.0223
 4989TIP3    H114903   6.239   5.342   0.784 -1.7018 -0.1856  1.8996
 4989TIP3    H214904   6.221   5.479   0.723 -0.1081  0.1262  2.1110
 4990TIP3   OH214905   5.463   0.303   6.964  0.3461 -0.0961  0.3182
 4990TIP3    H114906   5.391   0.241   6.975  1.4991 -1.4463  0.4348
 4990TIP3    H214907   5.487   0.297   6.872  2.8454 -2.5804  1.0575
 4991TIP3   OH214908   4.612   2.859   6.672 -0.4555  0.0312 -0.3921
 4991TIP3    H114909   4.614   2.773   6.714  0.8074 -1.0962 -2.6624
 4991TIP3    H214910   4.635   2.920   6.741 -3.2993 -1.2117  1.7529
 4992TIP3   OH214911   6.497   7.664   3.208 -0.2776  0.0073  0.2896
 4992TIP3    H114912   6.584   7.649   3.247 -0.7805  2.2613  2.3649
 4992TIP3    H214913   6.444   7.590   3.239 -0.0431  0.5358  1.9675
 4993TIP3   OH214914   6.759   6.006   1.238 -0.5717 -0.5341 -0.8167
 4993TIP3    H114915   6.766   5.928   1.182 -2.1049 -1.4106  0.2014
 4993TIP3    H214916   6.748   5.972   1.326  1.2870  0.8522 -0.0128
 4994TIP3   OH214917   6.753   5.599   0.022  0.8430  0.0656  0.2711
 4994TIP3    H114918   6.780   5.624  -0.067 -1.5894 -0.0611 -0.5436
 4994TIP3    H214919   6.808   5.652   0.079  2.0213  0.6098 -1.3084
 4995TIP3   OH214920   8.234   5.626   4.597  0.2788  0.4945 -0.1782
 4995TIP3    H114921   8.240   5.624   4.693  0.5594  1.1742 -0.1775
 4995TIP3    H214922   8.164   5.688   4.579  0.3800  0.5371 -0.4190
 4996TIP3   OH214923   3.791   3.189   6.268 -0.3164 -0.6296 -0.1156
 4996TIP3    H114924   3.752   3.138   6.197 -0.2861 -0.3189 -0.3602
 4996TIP3    H214925   3.861   3.239   6.225 -2.1460  1.7703 -0.4417
 4997TIP3   OH214926   5.779   7.394   0.787 -0.5143 -0.0050  0.4325
 4997TIP3    H114927   5.825   7.472   0.756 -1.3653  0.5198  0.4521
 4997TIP3    H214928   5.728   7.426   0.862  1.0860 -1.1297  2.0157
 4998TIP3   OH214929   3.265   1.937   6.767 -0.2755 -0.4173 -0.2122
 4998TIP3    H114930   3.252   1.852   6.808  1.1683 -0.5124  0.0689
 4998TIP3    H214931   3.360   1.946   6.759 -0.4533  0.7176 -1.1802
 4999TIP3   OH214932   7.925   5.916   1.284 -0.0521 -0.2371 -0.4627
 4999TIP3    H114933   7.886   6.003   1.274  0.6387  0.1598  0.3431
 4999TIP3    H214934   7.880   5.878   1.359  1.4626  0.4186  0.7943
 5000TIP3   OH214935   5.552   6.056   3.068  0.6867  0.0511 -0.1711
 5000TIP3    H114936   5.601   6.123   3.022  1.1569 -1.1503 -1.4606
 5000TIP3    H214937   5.583   5.973   3.031 -0.5331 -0.8418  0.7313
 5001TIP3   OH214938   8.366   5.565   2.003  0.2199  0.1549  0.0301
 5001TIP3    H114939   8.409   5.621   1.938 -0.9672 -0.2710 -1.1478
 5001TIP3    H214940   8.289   5.531   1.958 -1.2768  0.7650  2.0240
 5002TIP3   OH214941   5.856   5.758   0.685 -0.3967  0.1877 -0.1099
 5002TIP3    H114942   5.774   5.726   0.725 -0.3061 -0.8102 -0.6941
 5002TIP3    H214943   5.916   5.768   0.758 -1.4266  2.1795  0.4956
 5003TIP3   OH214944   4.087   1.594   3.984  0.4661 -0.1512 -1.0266
 5003TIP3    H114945   4.045   1.589   3.899  1.3522  1.0999 -1.5539
 5003TIP3    H214946   4.076   1.507   4.022 -0.7117 -0.4462 -2.0388
 5004TIP3   OH214947   5.361   1.657   6.574  0.4750  0.4111 -0.5361
 5004TIP3    H114948   5.352   1.568   6.539  0.8610 -0.2354  0.9632
 5004TIP3    H214949   5.307   1.657   6.654  0.9771  1.3356 -0.1854
 5005TIP3   OH214950   6.556   6.599   3.411 -0.1350  0.0802  0.2616
 5005TIP3    H114951   6.516   6.646   3.483  0.7529  0.8682  0.2478
 5005TIP3    H214952   6.598   6.523   3.451 -1.4598 -0.6542  0.2976
 5006TIP3   OH214953   6.300   3.744   5.194 -0.9973  0.4785 -0.4483
 5006TIP3    H114954   6.255   3.741   5.109 -0.6919 -0.0462 -0.5922
 5006TIP3    H214955   6.246   3.803   5.247 -2.2916 -0.7289 -0.3837
 5007TIP3   OH214956   5.937   4.876   2.439 -0.0210  0.5308  0.6580
 5007TIP3    H114957   6.015   4.826   2.463  1.3070  2.3149  0.0971
 5007TIP3    H214958   5.948   4.895   2.346 -1.6237 -0.0731  0.3287
 5008TIP3   OH214959   8.444   7.405   2.379 -0.1024  0.4547  0.3625
 5008TIP3    H114960   8.428   7.499   2.391 -0.1456  0.5644 -0.5205
 5008TIP3    H214961   8.365   7.372   2.338  0.2660  0.2032 -0.1496
 5009TIP3   OH214962   6.860   7.624   1.536 -0.2456  0.1368  0.0495
 5009TIP3    H114963   6.898   7.678   1.468 -0.7461  0.0100 -0.3326
 5009TIP3    H214964   6.774   7.598   1.502 -0.5867  0.2422  0.8099
 5010TIP3   OH214965   8.046   5.437   1.449 -0.0005  0.2328 -0.2464
 5010TIP3    H114966   8.066   5.387   1.528 -1.4825  0.4571  0.2825
 5010TIP3    H214967   7.988   5.380   1.399 -0.3257  0.7375 -0.4403
 5011TIP3   OH214968   6.867   5.466   1.613 -0.2079  0.1540 -0.0155
 5011TIP3    H114969   6.777   5.498   1.610 -0.3926 -0.2202  1.1198
 5011TIP3    H214970   6.857   5.371   1.618  0.2100  0.1592  1.1503
 5012TIP3   OH214971   8.231   6.928   2.279  0.2094 -0.0553  0.3165
 5012TIP3    H114972   8.136   6.919   2.288  0.2907 -0.4160  0.8306
 5012TIP3    H214973   8.263   6.934   2.369  0.6144  0.7172  0.1226
 5013TIP3   OH214974   6.384   4.149   1.705 -0.1730  0.6162 -0.6091
 5013TIP3    H114975   6.479   4.152   1.713 -0.2128  2.5142 -0.6407
 5013TIP3    H214976   6.367   4.167   1.612 -0.4747 -2.4640 -1.2040
 5014TIP3   OH214977   4.396   4.877   1.234 -0.1579 -0.1219  0.5491
 5014TIP3    H114978   4.417   4.965   1.201  1.4556 -0.2162  1.2397
 5014TIP3    H214979   4.379   4.891   1.327  0.9927 -0.6416  0.8528
 5015TIP3   OH214980   7.536   6.614   1.341 -0.9235 -0.8136 -0.3131
 5015TIP3    H114981   7.470   6.606   1.272 -1.0655 -3.4529  0.0693
 5015TIP3    H214982   7.607   6.664   1.300 -0.8927 -2.5448 -2.4887
 5016TIP3   OH214983   6.621   6.090   0.396 -0.0335  0.0954  0.1550
 5016TIP3    H114984   6.653   6.002   0.420  0.2564  0.4621  1.1553
 5016TIP3    H214985   6.548   6.074   0.337  0.4970 -0.8111 -0.2680
 5017TIP3   OH214986   4.029   1.034   5.737 -0.0263  0.3225  0.1475
 5017TIP3    H114987   4.024   1.128   5.720  1.1914  0.5945  1.1664
 5017TIP3    H214988   3.938   1.008   5.753 -0.5781  0.9910 -1.7805
 5018TIP3   OH214989   6.424   4.854   0.054  0.2982  0.1881  0.3273
 5018TIP3    H114990   6.420   4.940   0.012 -0.8987 -0.6563 -1.3456
 5018TIP3    H214991   6.379   4.866   0.137  2.1991  1.7517  1.1694
 5019TIP3   OH214992   6.650   0.559   2.067 -0.3026  0.2512 -0.2336
 5019TIP3    H114993   6.664   0.465   2.054 -0.1136  0.2156  0.2120
 5019TIP3    H214994   6.606   0.588   1.988  1.7111  0.2335 -1.3892
 5020TIP3   OH214995   6.496   7.063   2.451  0.1457 -0.3891 -0.2047
 5020TIP3    H114996   6.537   6.979   2.435 -1.7519 -1.1264 -1.3778
 5020TIP3    H214997   6.431   7.046   2.519  1.3404  0.6535  1.2520
 5021TIP3   OH214998   7.609   7.581   2.424 -0.3187  0.1059 -0.4576
 5021TIP3    H114999   7.596   7.676   2.430 -0.2282  0.1184 -0.4599
 5021TIP3    H215000   7.521   7.544   2.433 -0.9301  0.3648 -4.2973
 5022TIP3   OH215001   5.106   5.988   2.550  0.2185 -0.0232  0.2121
 5022TIP3    H115002   5.182   6.039   2.523  0.2820 -0.3705 -0.2618
 5022TIP3    H215003   5.143   5.911   2.594  0.2319 -1.7304 -2.6724
 5023TIP3   OH215004   8.428   6.726   1.738  0.2205  0.6347 -0.1178
 5023TIP3    H115005   8.339   6.762   1.738  0.6397  1.6756 -0.3785
 5023TIP3    H215006   8.432   6.672   1.816 -1.1575 -0.6914 -0.9348
 5024TIP3   OH215007   2.854   1.382   1.602  0.1975  0.2327  0.0028
 5024TIP3    H115008   2.945   1.407   1.584  0.2229  0.2937  0.2160
 5024TIP3    H215009   2.859   1.325   1.678  0.2506 -1.3653 -1.1875
 5025TIP3   OH215010   4.105   2.122   2.496 -0.2201 -0.0718  0.0284
 5025TIP3    H115011   4.155   2.161   2.567 -0.0968 -0.6351  0.2608
 5025TIP3    H215012   4.085   2.194   2.437 -0.0325  0.3393  0.4670
 5026TIP3   OH215013   1.921  -0.019   2.797 -0.4272  0.5206 -0.5680
 5026TIP3    H115014   1.902  -0.024   2.703  0.0163 -0.1240 -0.6281
 5026TIP3    H215015   1.860   0.047   2.830 -1.5505 -0.2470 -1.0615
 5027TIP3   OH215016   7.296   5.954   1.768  0.2801  0.6321 -1.0386
 5027TIP3    H115017   7.378   5.919   1.802 -0.3067 -0.2578 -0.5190
 5027TIP3    H215018   7.232   5.937   1.837 -0.6210  0.0973 -1.9886
 5028TIP3   OH215019   6.111   6.048   4.420 -0.5036 -0.1631 -0.1245
 5028TIP3    H115020   6.123   5.962   4.459  1.4335  0.7120  1.2765
 5028TIP3    H215021   6.196   6.069   4.381 -1.0939  0.9243 -0.8560
 5029TIP3   OH215022   6.816   5.951   0.128 -0.0887  0.3059  0.4269
 5029TIP3    H115023   6.853   5.883   0.071 -2.0702 -0.4401 -0.0417
 5029TIP3    H215024   6.748   5.905   0.177 -1.7544  2.0517 -0.1999
 5030TIP3   OH215025   8.045   5.698   1.431  0.4073 -0.4708  0.1338
 5030TIP3    H115026   8.072   5.726   1.343 -0.1040 -0.9363 -0.1737
 5030TIP3    H215027   8.033   5.604   1.424  2.4903 -0.8532  1.2786
 5031TIP3   OH215028   7.722   4.647   1.547 -0.0997  0.3941 -0.5796
 5031TIP3    H115029   7.632   4.677   1.532 -0.0559  1.1967  0.6651
 5031TIP3    H215030   7.748   4.691   1.628  1.4618  0.2600 -1.0054
 5032TIP3   OH215031   7.947   3.477   2.155 -0.1482 -0.0630 -0.0159
 5032TIP3    H115032   7.866   3.458   2.203 -0.1278 -0.9849 -0.3388
 5032TIP3    H215033   8.014   3.429   2.203  0.4662  1.8347  1.0977
 5033TIP3   OH215034   7.350   6.455   2.178  0.1748 -0.5390 -0.9630
 5033TIP3    H115035   7.294   6.531   2.193  0.1989 -0.7587  0.2424
 5033TIP3    H215036   7.300   6.401   2.116 -0.3147 -0.0538 -0.9928
 5034TIP3   OH215037   5.699   5.649   1.128 -0.0998 -0.3395  0.4966
 5034TIP3    H115038   5.729   5.575   1.181  0.6722  1.1089  2.1249
 5034TIP3    H215039   5.763   5.718   1.145 -1.1142  0.8827 -0.5774
 5035TIP3   OH215040   8.058   4.520   2.192  0.4051 -0.2660 -0.5395
 5035TIP3    H115041   8.014   4.552   2.271  0.3861 -1.0528 -0.2205
 5035TIP3    H215042   8.065   4.596   2.135  0.8544  0.4225  0.4251
 5036TIP3   OH215043   0.576   6.323   1.677  0.8253 -0.4701 -0.4391
 5036TIP3    H115044   0.659   6.282   1.654  1.5902  0.2264  0.9678
 5036TIP3    H215045   0.566   6.394   1.613  1.3984 -0.4529 -0.5173
 5037TIP3   OH215046   6.848   6.888   1.549 -0.5302  0.0547  0.2361
 5037TIP3    H115047   6.788   6.933   1.489 -0.2276 -0.7256 -0.6590
 5037TIP3    H215048   6.933   6.892   1.505 -0.4364 -1.0911  0.3107
 5038TIP3   OH215049   8.387   4.919   3.106  0.7580  0.6949 -0.5394
 5038TIP3    H115050   8.336   4.995   3.077 -0.8520 -0.2880 -0.3356
 5038TIP3    H215051   8.477   4.940   3.081  0.4225  2.8674 -0.1015
 5039TIP3   OH215052   6.943   4.705   2.298  0.8448 -0.2970  0.0361
 5039TIP3    H115053   6.968   4.613   2.294 -2.0833 -1.1297 -0.7332
 5039TIP3    H215054   7.017   4.749   2.340  2.0260 -3.0754  0.9534
 5040TIP3   OH215055   7.430   4.807   1.852 -0.2716 -0.4474 -0.3698
 5040TIP3    H115056   7.361   4.857   1.897 -1.6952 -1.6218 -1.1798
 5040TIP3    H215057   7.384   4.732   1.815  1.2035 -0.4834 -2.1920
 5041TIP3   OH215058   4.993   1.655   6.942  0.6763  0.2832 -0.2165
 5041TIP3    H115059   4.907   1.613   6.941  1.2597 -1.0913  2.0183
 5041TIP3    H215060   4.988   1.723   6.875 -2.7185  1.3570  1.0305
 5042TIP3   OH215061   5.427   5.934   2.368 -0.0979  0.2130 -0.2968
 5042TIP3    H115062   5.467   5.848   2.378  2.1360  1.1136 -1.0131
 5042TIP3    H215063   5.421   5.968   2.458 -1.3600 -0.8188  0.0249
 5043TIP3   OH215064   4.516   5.297   2.628  0.3290 -0.2984 -0.0349
 5043TIP3    H115065   4.532   5.388   2.652  1.6889 -0.7066  0.6270
 5043TIP3    H215066   4.539   5.247   2.706 -3.7116 -0.9780  0.8305
 5044TIP3   OH215067   8.195   5.139   1.597 -0.1424 -0.0876  0.4717
 5044TIP3    H115068   8.139   5.199   1.647 -0.2316 -0.4479  0.8028
 5044TIP3    H215069   8.163   5.052   1.620  0.7305 -0.3107  0.8695
 5045TIP3   OH215070   7.565   3.518   2.568  1.5516  0.0320  0.1455
 5045TIP3    H115071   7.505   3.445   2.583  2.1900 -0.6687 -0.6261
 5045TIP3    H215072   7.518   3.595   2.599  0.5348 -0.6032  0.2026
 5046TIP3   OH215073   4.919   6.207   0.632 -0.3706 -0.2605  0.0829
 5046TIP3    H115074   4.910   6.183   0.725  2.3389 -1.6142  0.0477
 5046TIP3    H215075   4.843   6.167   0.589 -0.4192 -1.5626  1.3616
 5047TIP3   OH215076   6.267   6.290   1.293  0.8153  0.5238 -0.1922
 5047TIP3    H115077   6.312   6.279   1.209  2.0102  0.0794  0.4876
 5047TIP3    H215078   6.336   6.317   1.353  0.4503 -1.5090  1.1783
 5048TIP3   OH215079   0.373   5.614   2.421 -0.6038 -0.3082 -0.5646
 5048TIP3    H115080   0.419   5.698   2.414 -0.6789 -0.3439 -1.4910
 5048TIP3    H215081   0.374   5.595   2.515 -0.7067  0.7905 -0.3302
 5049TIP3   OH215082   7.160   5.247   1.008 -0.5359 -0.1212  0.2394
 5049TIP3    H115083   7.112   5.320   1.045 -1.2873 -0.5730  0.1552
 5049TIP3    H215084   7.139   5.173   1.066  1.1306 -0.0196  1.0114
 5050TIP3   OH215085   2.135   0.647   4.882 -0.0698  0.0789  0.1837
 5050TIP3    H115086   2.153   0.583   4.951 -1.2358  0.4394  0.8291
 5050TIP3    H215087   2.044   0.632   4.857  0.4397 -0.2814 -1.5389
 5051TIP3   OH215088   7.690   4.758   2.099 -0.2760 -0.4924 -0.1587
 5051TIP3    H115089   7.721   4.740   2.011 -0.1017  1.5366 -0.5438
 5051TIP3    H215090   7.596   4.774   2.089 -0.1493  0.3223 -0.0781
 5052TIP3   OH215091   3.760   0.249   6.587  0.7178  0.0790  0.2925
 5052TIP3    H115092   3.813   0.179   6.624  1.4373 -0.0798 -0.9897
 5052TIP3    H215093   3.806   0.330   6.609  0.4293  0.0877  0.8841
 5053TIP3   OH215094   4.299   1.598   6.226 -0.4673 -0.4050  0.4159
 5053TIP3    H115095   4.339   1.585   6.312  0.2209 -2.1600 -0.1509
 5053TIP3    H215096   4.355   1.664   6.184 -0.3722 -0.0925  1.0243
 5054TIP3   OH215097   7.448   6.926   1.148  0.3013 -0.5571  0.0948
 5054TIP3    H115098   7.436   6.899   1.239  0.3229 -1.4676 -0.1775
 5054TIP3    H215099   7.535   6.896   1.125  0.5471  0.2306 -0.0349
 5055TIP3   OH215100   8.368   6.473   3.040  0.0764 -0.1538  0.7198
 5055TIP3    H115101   8.425   6.495   2.966  2.0292 -0.4015  2.1256
 5055TIP3    H215102   8.409   6.397   3.081 -1.9946 -1.1715  0.9806
 5056TIP3   OH215103   8.090   6.933   0.904  0.1508  0.1938 -0.0434
 5056TIP3    H115104   8.053   7.020   0.896 -0.1414 -0.0525 -1.5398
 5056TIP3    H215105   8.179   6.942   0.870  0.6422  0.2357  1.2267
 5057TIP3   OH215106   1.017   0.796   3.444  0.2408  0.1442  0.2531
 5057TIP3    H115107   0.972   0.732   3.499  1.9937 -0.9257  0.4905
 5057TIP3    H215108   1.004   0.765   3.354 -0.0503  0.2156  0.2692
 5058TIP3   OH215109   6.485   6.689   1.527  0.3202 -0.3037  0.6837
 5058TIP3    H115110   6.454   6.663   1.440  2.6375  0.5170 -0.4147
 5058TIP3    H215111   6.426   6.761   1.552 -1.2481 -1.4619  0.4229
 5059TIP3   OH215112   6.969   6.139   2.293  0.7975 -0.3547  0.0720
 5059TIP3    H115113   7.061   6.117   2.282  0.7423 -0.4907 -0.1348
 5059TIP3    H215114   6.959   6.223   2.247  0.7522 -0.4912 -0.1650
 5060TIP3   OH215115   5.172   7.785   0.864 -0.3879 -0.0578  0.1574
 5060TIP3    H115116   5.119   7.823   0.794  0.7927  1.3086 -0.0051
 5060TIP3    H215117   5.184   7.856   0.927  0.0757 -0.7667  0.8755
 5061TIP3   OH215118   4.236   5.293   0.444 -0.4288  0.3471 -0.1054
 5061TIP3    H115119   4.201   5.206   0.465 -0.3427  0.9879  2.8646
 5061TIP3    H215120   4.216   5.305   0.351 -2.0410 -2.1084 -0.1218
 5062TIP3   OH215121   6.840   6.874   1.874  0.2931  0.4352  0.3390
 5062TIP3    H115122   6.821   6.870   1.781  1.8590 -0.3082  0.0426
 5062TIP3    H215123   6.929   6.908   1.879 -0.3489  2.0316  1.6326
 5063TIP3   OH215124   3.506   0.383   6.597  0.5192  0.2744  0.1304
 5063TIP3    H115125   3.553   0.334   6.664  3.2339  0.6241 -1.4646
 5063TIP3    H215126   3.548   0.358   6.514 -3.1768 -0.6601 -1.5644
 5064TIP3   OH215127   5.714   5.778   2.252 -0.3032 -0.2284  0.2663
 5064TIP3    H115128   5.696   5.689   2.220  1.3319 -0.7037  0.5839
 5064TIP3    H215129   5.668   5.783   2.335 -1.4989 -0.3088 -0.3831
 5065TIP3   OH215130   3.217   0.284   0.654  0.3077 -0.1624  0.1173
 5065TIP3    H115131   3.211   0.325   0.740  0.5451 -0.8733  0.4714
 5065TIP3    H215132   3.182   0.350   0.594 -0.1515  0.2143  0.7916
 5066TIP3   OH215133   6.087   6.012   2.130  0.4068 -0.1172  0.0022
 5066TIP3    H115134   6.133   5.966   2.199 -2.8940 -1.2493  1.5694
 5066TIP3    H215135   6.041   5.944   2.081  1.3943  0.8340 -2.3230
 5067TIP3   OH215136   7.465   5.693   2.092 -0.2082 -0.7652 -0.1694
 5067TIP3    H115137   7.518   5.772   2.084  0.0752 -0.8573  0.7305
 5067TIP3    H215138   7.378   5.724   2.117 -0.0581 -0.7435  0.3343
 5068TIP3   OH215139   5.612   6.799   0.480  0.0536  0.1002 -0.3719
 5068TIP3    H115140   5.651   6.827   0.563 -0.7610  0.8500 -0.2277
 5068TIP3    H215141   5.539   6.743   0.506 -0.7877  1.1007 -0.5421
 5069TIP3   OH215142   5.946   5.151   0.681  0.5902 -0.0419 -0.0752
 5069TIP3    H115143   5.905   5.204   0.749 -0.4799 -1.9607  0.8286
 5069TIP3    H215144   6.011   5.098   0.726  1.6777  0.5286 -0.9636
 5070TIP3   OH215145   5.878   2.743   0.826 -0.7073 -0.1556 -0.1243
 5070TIP3    H115146   5.894   2.688   0.902  1.2093  1.5940  0.7964
 5070TIP3    H215147   5.935   2.709   0.758 -0.9838 -0.5205 -0.1735
 5071TIP3   OH215148   6.874   5.419   1.017  0.2085 -0.1445 -0.4780
 5071TIP3    H115149   6.791   5.442   1.057 -1.3695  1.7469 -4.5248
 5071TIP3    H215150   6.935   5.487   1.048 -0.6391  0.5390 -0.2824
 5072TIP3   OH215151   5.951   5.530   2.109  0.0158  0.3217  0.3575
 5072TIP3    H115152   5.863   5.558   2.082 -0.6327 -2.1773 -0.2990
 5072TIP3    H215153   6.000   5.525   2.027 -0.4212 -2.1724  0.2138
 5073TIP3   OH215154   0.683   5.470   2.767 -0.1663 -0.0609  0.5855
 5073TIP3    H115155   0.728   5.496   2.686  0.1239  1.7281  1.2868
 5073TIP3    H215156   0.591   5.466   2.743  0.0135 -0.4667 -0.0576
 5074TIP3   OH215157   7.847   5.267   2.074 -0.2202  0.7342 -0.0804
 5074TIP3    H115158   7.773   5.323   2.098 -0.1269  1.2021 -0.8618
 5074TIP3    H215159   7.852   5.273   1.979  0.2308 -0.0531 -0.1174
 5075TIP3   OH215160   1.711   6.903   3.960  0.1087 -0.1260 -0.0505
 5075TIP3    H115161   1.629   6.887   4.007 -0.7070 -0.3250 -1.5091
 5075TIP3    H215162   1.727   6.821   3.913  0.4264  0.3912 -0.8475
 5076TIP3   OH215163   8.347   6.283   1.785 -0.6406  0.0431  0.0533
 5076TIP3    H115164   8.405   6.352   1.752 -2.2887  1.2196 -0.4114
 5076TIP3    H215165   8.342   6.299   1.879  0.2654 -0.4472  0.1970
 5077TIP3   OH215166   2.001   7.234   4.580 -0.2609  0.0303  0.2507
 5077TIP3    H115167   2.080   7.285   4.562 -0.1424 -0.2402 -0.0047
 5077TIP3    H215168   2.031   7.163   4.636 -0.3377 -0.0310  0.2138
 5078TIP3   OH215169   6.879   7.684   1.836  0.5552 -0.0264  0.9506
 5078TIP3    H115170   6.965   7.680   1.795 -0.2504 -2.3879 -0.6328
 5078TIP3    H215171   6.826   7.735   1.774  0.1633 -0.8518  0.5923
 5079TIP3   OH215172   8.415   6.651   2.340 -0.0808  0.2424  0.3655
 5079TIP3    H115173   8.491   6.708   2.329  1.3669 -1.3233  2.0129
 5079TIP3    H215174   8.441   6.568   2.300 -0.8177 -0.4100  1.2255
 5080TIP3   OH215175   4.146   1.872   1.275 -0.2530  0.0918 -0.4770
 5080TIP3    H115176   4.120   1.800   1.332 -0.7331  1.1843  0.7076
 5080TIP3    H215177   4.067   1.925   1.265  0.2786  0.8393 -0.7551
 5081TIP3   OH215178   8.364   7.649   2.536 -0.6255  0.1869  0.2319
 5081TIP3    H115179   8.287   7.667   2.483 -0.7939  0.0099  0.4168
 5081TIP3    H215180   8.423   7.723   2.520 -0.6417  0.0906 -0.2713
 5082TIP3   OH215181   1.210   6.053   0.533 -0.1013  0.1849 -0.3676
 5082TIP3    H115182   1.180   5.962   0.535 -0.5671  0.3631  2.0253
 5082TIP3    H215183   1.305   6.047   0.535 -0.1668 -0.2237  2.5867
 5083TIP3   OH215184   0.901   6.778   3.555 -0.0974  0.2623  0.1493
 5083TIP3    H115185   0.949   6.802   3.634  1.8184 -1.5734 -0.4269
 5083TIP3    H215186   0.928   6.843   3.490  0.6569 -0.0355  0.1638
 5084TIP3   OH215187   3.325   0.383   1.498  0.2993  0.0878  0.4422
 5084TIP3    H115188   3.349   0.299   1.538  0.0870  0.1070  0.6076
 5084TIP3    H215189   3.403   0.437   1.510  0.4244 -0.0743  0.3666
 5085TIP3   OH215190   0.526   7.035   4.119  0.1299 -0.7953  0.3329
 5085TIP3    H115191   0.518   7.097   4.047  0.1102 -0.6550  0.4560
 5085TIP3    H215192   0.459   7.062   4.182 -0.4155 -1.4326  0.0232
 5086TIP3   OH215193   8.067   6.661   0.916 -0.2793 -0.0272 -0.6667
 5086TIP3    H115194   8.084   6.755   0.920 -0.5767 -0.0164  0.3063
 5086TIP3    H215195   8.153   6.621   0.931 -0.5675  0.0672  1.3864
 5087TIP3   OH215196   7.594   7.340   2.991  0.2869  0.1023 -0.2112
 5087TIP3    H115197   7.647   7.330   2.911  0.0968  0.3170 -0.3685
 5087TIP3    H215198   7.617   7.265   3.045 -0.5708 -0.7609 -1.0356
 5088TIP3   OH215199   6.813   6.211   3.079 -0.1084  0.1730  0.7164
 5088TIP3    H115200   6.842   6.303   3.082 -1.7393  0.6671  1.9482
 5088TIP3    H215201   6.862   6.169   3.150  0.2167  0.2089  0.5156
 5089TIP3   OH215202   0.331   6.590   0.472 -0.2552  0.2224  0.1220
 5089TIP3    H115203   0.414   6.580   0.424  0.3248 -1.9408  1.5151
 5089TIP3    H215204   0.352   6.564   0.562 -2.1465  0.9091  0.7839
 5090TIP3   OH215205   0.039   7.883   2.865  0.3573 -0.2606  0.1538
 5090TIP3    H115206   0.042   7.789   2.849 -2.3571 -0.0977 -1.6315
 5090TIP3    H215207  -0.050   7.909   2.839  0.2426  2.3800  2.9039
 5091TIP3   OH215208   7.836   4.866   1.437 -0.1136  0.3069 -0.3053
 5091TIP3    H115209   7.817   4.948   1.483  1.1348  0.5215 -0.1494
 5091TIP3    H215210   7.770   4.804   1.469 -0.6022  1.0441  0.1331
 5092TIP3   OH215211   1.632   2.289   2.708 -0.1015 -0.4286  0.3442
 5092TIP3    H115212   1.573   2.260   2.638  0.0244 -0.1038  0.0999
 5092TIP3    H215213   1.718   2.294   2.665  0.0966 -0.8580  0.6860
 5093TIP3   OH215214   1.997   0.615   2.355  0.4141 -0.3192  0.2100
 5093TIP3    H115215   2.001   0.641   2.447  1.0234 -0.1883  0.1533
 5093TIP3    H215216   2.079   0.648   2.318  1.1446 -2.1769  0.1033
 5094TIP3   OH215217   7.731   7.132   0.808 -0.2139 -0.0912 -0.6984
 5094TIP3    H115218   7.655   7.101   0.759  1.2398 -2.3370 -1.6386
 5094TIP3    H215219   7.769   7.200   0.753 -0.1401 -0.7000 -1.4112
 5095TIP3   OH215220   8.316   7.933   2.713 -0.1662 -0.2125  0.2047
 5095TIP3    H115221   8.223   7.939   2.731 -0.1926 -0.8502  0.2733
 5095TIP3    H215222   8.326   7.971   2.625 -0.5000 -0.2441  0.1532
 5096TIP3   OH215223   1.889   0.300   0.073 -0.4869 -0.1906 -1.0454
 5096TIP3    H115224   1.812   0.293   0.129 -0.2972  0.2812 -0.7273
 5096TIP3    H215225   1.875   0.380   0.022  0.1338  0.3012 -0.4604
 5097TIP3   OH215226   0.525   7.820   2.700 -0.1120 -0.3989 -0.0589
 5097TIP3    H115227   0.599   7.766   2.672 -0.0364 -0.8761  1.0550
 5097TIP3    H215228   0.566   7.896   2.742 -0.2184  0.5095 -1.5634
 5098TIP3   OH215229   1.131   7.174   1.662 -0.2110 -0.1886  0.3467
 5098TIP3    H115230   1.105   7.084   1.643  0.4967  0.1961 -2.6922
 5098TIP3    H215231   1.067   7.204   1.727 -1.2111 -2.4543  0.4696
 5099TIP3   OH215232   1.707   5.083   1.775 -0.1523  0.1552  1.1253
 5099TIP3    H115233   1.655   5.049   1.848 -0.4342  2.5241  2.0549
 5099TIP3    H215234   1.797   5.058   1.795 -0.4441 -0.6656  1.4215
 5100TIP3   OH215235   7.723   7.129   2.442 -0.5793 -0.4231  0.0029
 5100TIP3    H115236   7.681   7.103   2.524 -1.4724  0.6980 -0.0647
 5100TIP3    H215237   7.816   7.137   2.463 -0.6793 -1.0001  0.6763
 5101TIP3   OH215238   7.731   6.176   2.103 -0.0337 -0.3067  0.2576
 5101TIP3    H115239   7.811   6.148   2.058  0.2480 -0.0086  0.5605
 5101TIP3    H215240   7.672   6.204   2.033  0.6494  0.7879  0.0978
 5102TIP3   OH215241   0.705   4.808   2.709 -0.1783 -0.0032 -0.3082
 5102TIP3    H115242   0.793   4.780   2.683  0.0135 -0.5559  0.8931
 5102TIP3    H215243   0.693   4.892   2.665  0.1686 -0.8459 -2.0766
 5103TIP3   OH215244   1.670   4.663   3.595 -0.2007 -0.2858  0.1855
 5103TIP3    H115245   1.699   4.590   3.540  2.8973  0.4184  0.7907
 5103TIP3    H215246   1.646   4.622   3.678 -0.8941 -0.8855 -0.3075
 5104TIP3   OH215247   7.336   6.407   2.589  0.6945  0.3852 -0.0204
 5104TIP3    H115248   7.286   6.341   2.638  0.5045  0.4166 -0.1717
 5104TIP3    H215249   7.359   6.473   2.654 -0.4167  0.9291 -0.1760
 5105TIP3   OH215250   0.479   5.970   1.378 -0.5872  0.5408 -0.6292
 5105TIP3    H115251   0.516   5.973   1.467 -0.3080 -0.5900 -0.6899
 5105TIP3    H215252   0.526   5.898   1.336 -1.8193  0.0415 -1.1892
 5106TIP3   OH215253   0.157   6.519   4.702  0.2467 -0.0150  0.4942
 5106TIP3    H115254   0.198   6.514   4.788  0.5657 -1.5787  0.2627
 5106TIP3    H215255   0.121   6.432   4.687 -1.3381  0.7383 -0.2184
 5107TIP3   OH215256   1.823   4.809   2.700 -0.2012 -0.2056  0.2702
 5107TIP3    H115257   1.828   4.885   2.642 -0.7689  0.4174  1.0340
 5107TIP3    H215258   1.907   4.765   2.689 -0.2491 -0.0091 -0.9165
 5108TIP3   OH215259   1.768   7.952   0.739 -0.1436  0.7180 -0.3850
 5108TIP3    H115260   1.706   7.956   0.666  0.5077 -1.6449 -1.1225
 5108TIP3    H215261   1.715   7.971   0.816 -1.7218 -0.7023 -1.0783
 5109TIP3   OH215262   0.081   6.893   2.108 -0.2407  0.1833 -0.3743
 5109TIP3    H115263   0.094   6.801   2.085  1.4423  0.0674  0.9185
 5109TIP3    H215264   0.094   6.897   2.203 -1.1376  1.6224 -0.2906
 5110TIP3   OH215265   2.397   7.302   1.771 -0.3553  0.4362  0.2210
 5110TIP3    H115266   2.428   7.325   1.859  1.0334  0.9256 -0.3745
 5110TIP3    H215267   2.339   7.374   1.747 -2.2942 -0.6470  1.4770
 5111TIP3   OH215268   3.806   0.313   0.968 -0.1888  0.0694 -0.4911
 5111TIP3    H115269   3.772   0.244   1.024 -1.0780  0.6702 -0.2627
 5111TIP3    H215270   3.877   0.273   0.919  0.4773 -0.5091  0.9380
 5112TIP3   OH215271   7.587   3.588   6.805  0.4494 -0.0970 -0.3302
 5112TIP3    H115272   7.530   3.560   6.876 -0.9257 -0.2753 -1.4637
 5112TIP3    H215273   7.622   3.672   6.834 -0.7941  0.2575  0.1956
 5113TIP3   OH215274   3.368   1.590   1.129 -0.3970 -0.1836  0.1577
 5113TIP3    H115275   3.328   1.642   1.060 -0.7438  0.4789  0.8558
 5113TIP3    H215276   3.315   1.510   1.133  0.7156 -1.0411 -1.5658
 5114TIP3   OH215277   2.813   0.472   3.696  0.7185  0.2758  0.0749
 5114TIP3    H115278   2.843   0.525   3.623  0.3205  1.1980  0.5760
 5114TIP3    H215279   2.718   0.469   3.687  0.8371 -1.6752 -0.8478
 5115TIP3   OH215280   7.095   1.262   6.885 -0.3497  0.2509 -0.3853
 5115TIP3    H115281   7.089   1.189   6.824 -0.7331  1.3330 -1.6869
 5115TIP3    H215282   7.184   1.294   6.875 -0.4466  0.4963 -0.4821
 5116TIP3   OH215283   2.614   7.090   3.568 -0.1507 -0.4015  0.5285
 5116TIP3    H115284   2.672   7.077   3.643 -2.3117 -1.4970  2.0478
 5116TIP3    H215285   2.607   7.185   3.559  0.9445 -0.2642  1.0358
 5117TIP3   OH215286   7.899   6.662   2.092 -0.4250  0.0965 -0.2936
 5117TIP3    H115287   7.806   6.656   2.113 -0.6678  2.3926 -0.6443
 5117TIP3    H215288   7.943   6.655   2.177 -0.8824 -1.1884 -0.1454
 5118TIP3   OH215289   1.365   6.938   3.914 -0.1466  0.6031  0.0473
 5118TIP3    H115290   1.428   7.004   3.882  2.3836 -1.1171  1.2999
 5118TIP3    H215291   1.391   6.924   4.005 -0.5040 -2.2741 -0.2782
 5119TIP3   OH215292   4.737   0.048   1.131 -0.4345 -0.4893 -0.6794
 5119TIP3    H115293   4.733  -0.047   1.116  1.8708 -0.4775 -1.5768
 5119TIP3    H215294   4.817   0.061   1.181 -1.9260  0.7750  1.4702
 5120TIP3   OH215295   5.257   1.579   6.857 -0.0599  0.6963  1.2270
 5120TIP3    H115296   5.168   1.617   6.860 -0.8108 -0.8408 -0.6089
 5120TIP3    H215297   5.288   1.585   6.948 -2.3602  0.5051  2.0720
 5121TIP3   OH215298   1.875   4.715   3.307  0.2628 -0.1931  0.0587
 5121TIP3    H115299   1.940   4.720   3.237 -1.3997  2.3253 -1.4005
 5121TIP3    H215300   1.839   4.627   3.300  0.9170 -0.3554 -1.5371
 5122TIP3   OH215301   0.217   7.032   1.774 -0.0597 -0.0604 -0.0653
 5122TIP3    H115302   0.300   7.026   1.820 -0.3153 -0.1591  0.3865
 5122TIP3    H215303   0.156   7.066   1.839  0.1236  2.1784 -1.0365
 5123TIP3   OH215304   0.923   3.919   1.249  0.3259 -0.4209 -0.5180
 5123TIP3    H115305   0.952   3.827   1.248  0.7766 -0.2813 -3.3539
 5123TIP3    H215306   0.891   3.932   1.338  3.0013 -2.4663  0.8219
 5124TIP3   OH215307   7.428   7.933   1.573 -0.2552  0.0129 -0.3863
 5124TIP3    H115308   7.409   7.857   1.627 -2.0838  0.9708  0.3790
 5124TIP3    H215309   7.373   8.003   1.609  1.7777  1.8569 -0.7212
 5125TIP3   OH215310   2.517   5.940   2.148 -0.3020 -0.1922  0.0746
 5125TIP3    H115311   2.567   5.906   2.073  1.7374 -0.8749  1.7106
 5125TIP3    H215312   2.572   6.009   2.184 -0.9925 -0.2764  1.3173
 5126TIP3   OH215313   8.376   7.391   0.964 -0.3831  0.4759  0.1729
 5126TIP3    H115314   8.318   7.394   0.888 -0.3905  2.3374  0.2257
 5126TIP3    H215315   8.353   7.310   1.009 -1.5049  0.1664 -0.9348
 5127TIP3   OH215316   0.058   6.649   1.367  0.2090 -0.3434  0.0105
 5127TIP3    H115317   0.145   6.631   1.332 -0.3502  2.2373 -2.9469
 5127TIP3    H215318   0.067   6.731   1.415 -0.9855  1.0439 -2.0776
 5128TIP3   OH215319   1.897   7.798   1.099 -0.0395 -0.0493  0.3164
 5128TIP3    H115320   1.891   7.748   1.017  2.7055 -2.0306  1.2353
 5128TIP3    H215321   1.894   7.731   1.168  2.7351  1.1145  1.6334
 5129TIP3   OH215322   0.137   6.083   1.526 -0.0197  0.1389 -0.0385
 5129TIP3    H115323   0.049   6.063   1.557 -0.2410  0.5798 -0.3759
 5129TIP3    H215324   0.132   6.175   1.498  0.6395  0.2712  0.2793
 5130TIP3   OH215325   2.512   6.743   1.790 -0.1825  0.4399  0.2758
 5130TIP3    H115326   2.537   6.653   1.767 -0.6374  0.4695 -0.3583
 5130TIP3    H215327   2.588   6.778   1.836  0.9210  0.5220 -1.5551
 5131TIP3   OH215328   1.724   7.893   0.220 -0.1487 -0.4283 -0.0327
 5131TIP3    H115329   1.719   7.977   0.176  0.0845 -0.5869 -0.3630
 5131TIP3    H215330   1.679   7.907   0.304 -1.8592 -0.5215 -0.9214
 5132TIP3   OH215331   4.458   0.117   0.143 -0.4727  0.2288 -0.3385
 5132TIP3    H115332   4.479   0.165   0.063 -0.4084 -2.0336 -1.7324
 5132TIP3    H215333   4.365   0.136   0.158 -0.4160  0.8849 -0.7881
 5133TIP3   OH215334   5.507   2.166   6.628  0.4145  0.1721  0.4151
 5133TIP3    H115335   5.450   2.142   6.702  0.5158 -1.0014  0.1286
 5133TIP3    H215336   5.457   2.232   6.580 -1.2295 -1.6674 -0.4807
 5134TIP3   OH215337   4.205   7.870   1.566  0.0422  0.3622 -0.3236
 5134TIP3    H115338   4.147   7.800   1.536 -0.2299  0.3631  0.1979
 5134TIP3    H215339   4.277   7.825   1.610 -0.6000  0.4411  0.8276
 5135TIP3   OH215340   1.656   6.161   3.958 -0.1339 -0.2532  0.1250
 5135TIP3    H115341   1.625   6.074   3.932 -1.0638  0.1210 -0.0336
 5135TIP3    H215342   1.700   6.195   3.880  0.0906 -0.5136  0.1365
 5136TIP3   OH215343   0.587   6.641   2.549  0.2124  0.0900 -0.1572
 5136TIP3    H115344   0.541   6.608   2.625  2.3103 -0.8096  0.7463
 5136TIP3    H215345   0.677   6.655   2.578  0.7830  0.8547 -2.1401
 5137TIP3   OH215346   0.810   0.875   1.263  0.4827 -0.0248  0.3904
 5137TIP3    H115347   0.861   0.825   1.326  1.1596  0.5473  0.3075
 5137TIP3    H215348   0.873   0.937   1.226 -0.2118  0.4935  0.0766
 5138TIP3   OH215349   0.061   7.151   1.558  0.1023  0.5980 -0.1411
 5138TIP3    H115350  -0.008   7.150   1.625 -0.3854 -1.4470 -0.6576
 5138TIP3    H215351   0.117   7.076   1.580  1.6231  1.6384 -0.3271
 5139TIP3   OH215352   8.051   7.387   2.342 -0.0058 -0.6657  0.4155
 5139TIP3    H115353   8.068   7.341   2.260 -2.6521 -1.0339  0.0255
 5139TIP3    H215354   8.014   7.472   2.316  0.6379 -0.1355  1.1973
 5140TIP3   OH215355   4.942   0.268   0.362  0.4925  0.6166 -0.1777
 5140TIP3    H115356   4.849   0.252   0.345  0.4747 -2.0055  2.0013
 5140TIP3    H215357   4.987   0.200   0.312  1.0979  0.3204  0.7748
 5141TIP3   OH215358   2.749   0.069   1.128  0.4135  0.0777  0.0860
 5141TIP3    H115359   2.810   0.057   1.202  1.7365 -1.3314 -1.1951
 5141TIP3    H215360   2.799   0.118   1.064  0.2376 -1.1324 -0.9988
 5142TIP3   OH215361   0.670   6.767   3.745  0.3225 -0.1576  0.8340
 5142TIP3    H115362   0.741   6.730   3.691 -0.9341 -1.6460  0.1499
 5142TIP3    H215363   0.689   6.738   3.834 -0.1742 -1.7721  0.4332
 5143TIP3   OH215364   5.841   3.040   6.532 -0.6386  0.1824  0.3521
 5143TIP3    H115365   5.932   3.067   6.527 -0.0299 -1.7095  0.9852
 5143TIP3    H215366   5.792   3.123   6.533  0.9287  1.2020 -1.9152
 5144TIP3   OH215367   2.241   2.194   1.058 -0.1135 -0.0428  0.3383
 5144TIP3    H115368   2.238   2.190   1.153 -2.5565 -1.8102  0.2166
 5144TIP3    H215369   2.244   2.103   1.029  1.1088  0.4695 -1.3014
 5145TIP3   OH215370   0.147   5.781   2.442 -0.4681  0.3432  0.4592
 5145TIP3    H115371   0.095   5.729   2.380  0.8000  2.1450 -2.2088
 5145TIP3    H215372   0.236   5.749   2.430 -0.1321  1.0666  1.0295
 5146TIP3   OH215373   2.964   7.027   1.355  0.6908  0.2041  0.3805
 5146TIP3    H115374   2.924   6.986   1.278 -0.1108 -1.1428  1.5060
 5146TIP3    H215375   3.007   7.106   1.320 -2.4032  1.3698 -0.9567
 5147TIP3   OH215376   1.807   0.222   2.821  0.4390  0.5614  0.1080
 5147TIP3    H115377   1.759   0.240   2.902  0.1766 -1.7815  0.5358
 5147TIP3    H215378   1.876   0.288   2.818 -0.5748  1.6968  1.4001
 5148TIP3   OH215379   6.233   5.419   1.987 -0.3346 -0.2548 -0.3214
 5148TIP3    H115380   6.161   5.461   1.939 -0.7590  0.5682  1.0284
 5148TIP3    H215381   6.311   5.443   1.938 -0.8205  0.0350 -0.9730
 5149TIP3   OH215382   6.123   3.036   6.513 -0.5089 -0.4650  0.1506
 5149TIP3    H115383   6.129   2.947   6.478 -2.7565 -1.9058  3.2748
 5149TIP3    H215384   6.209   3.052   6.553  0.4805 -0.5370 -1.8629
 5150TIP3   OH215385   0.085   7.873   1.627  0.9167  0.2489  0.1979
 5150TIP3    H115386   0.163   7.817   1.619  0.4384 -0.5560  1.0184
 5150TIP3    H215387   0.041   7.865   1.543  0.7492 -0.7781  0.3767
 5151TIP3   OH215388   8.376   5.090   0.225 -0.7325 -0.3620 -0.2891
 5151TIP3    H115389   8.324   5.015   0.196 -1.2025  0.4464 -1.5831
 5151TIP3    H215390   8.313   5.161   0.235 -0.1769  0.0728  0.1919
 5152TIP3   OH215391   0.565   7.084  -0.015 -0.8290  0.3183 -0.0686
 5152TIP3    H115392   0.571   7.128   0.070  1.7279 -1.1118  0.5508
 5152TIP3    H215393   0.506   7.011   0.000 -1.4313  0.8436  0.1317
 5153TIP3   OH215394   0.497   7.585   0.908  0.4443  0.1392 -0.3388
 5153TIP3    H115395   0.428   7.613   0.848  0.0255 -0.9909 -0.3926
 5153TIP3    H215396   0.578   7.600   0.859  0.1303 -0.2771 -0.9953
 5154TIP3   OH215397   0.591   7.484   1.648  0.0133 -0.5980  0.4945
 5154TIP3    H115398   0.611   7.460   1.739  0.0794  0.4260  0.7594
 5154TIP3    H215399   0.623   7.574   1.640 -2.4010  0.2506  0.2295
 5155TIP3   OH215400   1.601   6.096   0.348  0.7582  0.3441 -0.0417
 5155TIP3    H115401   1.605   6.101   0.253 -0.1224 -1.1200 -0.1711
 5155TIP3    H215402   1.539   6.165   0.373  0.6947  0.4757 -0.5608
 5156TIP3   OH215403   0.729   6.046   3.335  0.0563 -0.2928 -0.1429
 5156TIP3    H115404   0.812   6.048   3.287  0.4967 -1.7947  0.5247
 5156TIP3    H215405   0.666   6.011   3.273 -0.3324  1.8754 -1.0032
 5157TIP3   OH215406   2.328   7.218   2.987  0.2414 -0.3917 -0.6122
 5157TIP3    H115407   2.418   7.251   2.978  0.3901 -0.2689  1.1490
 5157TIP3    H215408   2.331   7.162   3.064 -1.2126 -0.3549 -0.5281
 5158TIP3   OH215409   1.625   7.082   4.385 -0.1898  0.8005  0.3280
 5158TIP3    H115410   1.590   7.151   4.329  2.4358  1.9532  0.0179
 5158TIP3    H215411   1.571   7.085   4.464 -1.2041  2.0420 -0.4031
 5159TIP3   OH215412   0.218   6.642   2.107 -0.0938 -0.3870 -0.0351
 5159TIP3    H115413   0.261   6.599   2.181 -1.7155 -0.6557  0.7709
 5159TIP3    H215414   0.185   6.570   2.053 -1.7873 -0.1725  0.7005
 5160TIP3   OH215415   7.849   5.585   1.914  0.3237 -0.4370 -0.4243
 5160TIP3    H115416   7.826   5.534   1.992 -2.4790 -0.1324 -1.0038
 5160TIP3    H215417   7.879   5.519   1.851 -0.9166 -1.1103 -0.3313
 5161TIP3   OH215418   1.769   5.770   1.727  0.2423  0.1546  0.1070
 5161TIP3    H115419   1.826   5.847   1.719  0.5309  0.0886  1.3829
 5161TIP3    H215420   1.682   5.807   1.739  0.5426  0.3198  1.9300
 5162TIP3   OH215421   0.697   7.667   2.283 -0.4608 -0.4025  0.3452
 5162TIP3    H115422   0.662   7.673   2.194  0.1038  0.3944  0.1753
 5162TIP3    H215423   0.788   7.695   2.275 -0.8352  1.1631  1.4361
 5163TIP3   OH215424   2.626   6.351   0.804  0.2081  0.6356  0.1508
 5163TIP3    H115425   2.630   6.405   0.725  0.8847  1.2842  0.6176
 5163TIP3    H215426   2.699   6.382   0.858  0.1376 -0.2271  0.7607
 5164TIP3   OH215427   7.819   7.955   1.927  0.5807  0.6287 -0.4933
 5164TIP3    H115428   7.783   8.022   1.986 -1.2981  0.8438 -1.8184
 5164TIP3    H215429   7.910   7.944   1.955  0.2008  1.9249  1.3500
 5165TIP3   OH215430   0.904   4.772   1.401  0.1402 -0.5702 -0.1064
 5165TIP3    H115431   0.973   4.753   1.337 -0.8370 -1.3351 -0.9605
 5165TIP3    H215432   0.823   4.742   1.358 -0.7416  0.4844  0.8008
 5166TIP3   OH215433   8.056   5.524   3.223 -0.1157  0.2014 -0.0918
 5166TIP3    H115434   8.148   5.544   3.240  0.4155 -3.0183  1.1953
 5166TIP3    H215435   8.039   5.562   3.137  2.2299  1.3877 -0.0784
 5167TIP3   OH215436   8.485   4.608   1.570 -0.3121 -0.1607  0.1616
 5167TIP3    H115437   8.575   4.640   1.571 -0.0855 -0.8041  1.8157
 5167TIP3    H215438   8.432   4.685   1.549  0.5506  0.3941  0.0169
 5168TIP3   OH215439   1.697   6.515   2.857  0.1913 -0.0127 -0.2641
 5168TIP3    H115440   1.624   6.513   2.795 -1.4418  0.4631  1.6232
 5168TIP3    H215441   1.711   6.609   2.873 -2.3547 -0.2056  3.4929
 5169TIP3   OH215442   7.684   6.830   4.098  0.4074  0.4607 -0.0255
 5169TIP3    H115443   7.625   6.873   4.160  1.0452  1.0597  0.1758
 5169TIP3    H215444   7.637   6.752   4.070 -0.3833  0.8173  0.3058
 5170TIP3   OH215445   0.364   7.897   2.507 -0.1621 -0.2392 -0.3971
 5170TIP3    H115446   0.347   7.986   2.537  0.6955 -0.5644  1.1376
 5170TIP3    H215447   0.415   7.857   2.578  1.0395 -1.3795 -1.8528
 5171TIP3   OH215448   2.313   5.339   2.910 -0.0748  0.3441 -0.6786
 5171TIP3    H115449   2.272   5.290   2.838  0.3869  0.5692 -1.0977
 5171TIP3    H215450   2.335   5.272   2.974 -1.4439  0.2639 -0.2810
 5172TIP3   OH215451   2.217   6.628   0.811  0.4915  0.2778  0.0225
 5172TIP3    H115452   2.202   6.534   0.796  0.5113  0.3377 -0.3970
 5172TIP3    H215453   2.312   6.638   0.800  0.2894  0.6175 -1.5294
 5173TIP3   OH215454   0.822   7.419   2.348 -0.4282  0.5833  0.5103
 5173TIP3    H115455   0.775   7.501   2.362 -1.1552  0.0686  1.1213
 5173TIP3    H215456   0.836   7.383   2.436 -0.4258 -0.1096  0.2357
 5174TIP3   OH215457   3.299   6.989   1.346  0.1545  0.4588  0.0683
 5174TIP3    H115458   3.316   6.928   1.417  0.1409 -0.4384 -0.6821
 5174TIP3    H215459   3.236   6.943   1.290 -0.9088  1.7201  0.2141
 5175TIP3   OH215460   2.766   0.102   1.686 -0.1741  0.7226  0.2923
 5175TIP3    H115461   2.815   0.019   1.687  0.1806  0.9146 -0.5995
 5175TIP3    H215462   2.726   0.107   1.773  0.0597 -0.2333  0.4659
 5176TIP3   OH215463   2.612   5.537   3.927  0.3856  0.4834 -0.9711
 5176TIP3    H115464   2.687   5.482   3.947  0.4820  0.8950 -0.1784
 5176TIP3    H215465   2.647   5.608   3.873  0.0760 -0.7777 -2.8744
 5177TIP3   OH215466   1.397   7.304   1.287 -0.3249  0.4566 -0.2908
 5177TIP3    H115467   1.339   7.313   1.362 -0.8572 -2.4581 -0.2598
 5177TIP3    H215468   1.483   7.285   1.324 -0.5487 -0.7925 -0.3648
 5178TIP3   OH215469   2.293   5.647   1.221 -0.4560  0.1929 -0.0714
 5178TIP3    H115470   2.338   5.612   1.298 -0.4228  0.8868  0.2334
 5178TIP3    H215471   2.241   5.574   1.188  0.8014 -0.5834 -0.3527
 5179TIP3   OH215472   0.578   6.724   2.141  0.4317  0.5822 -0.0986
 5179TIP3    H115473   0.488   6.718   2.173  0.0706  2.1308 -0.7284
 5179TIP3    H215474   0.630   6.670   2.201 -0.6465  1.1489  1.3694
 5180TIP3   OH215475   0.625   5.667   1.871 -0.0528  0.0757  0.2206
 5180TIP3    H115476   0.548   5.700   1.823 -0.4597  0.9278  1.4341
 5180TIP3    H215477   0.588   5.626   1.949  0.5950 -1.4956 -0.2823
 5181TIP3   OH215478   8.229   2.041   6.416  0.1188  0.0817 -0.3034
 5181TIP3    H115479   8.152   2.013   6.365  0.6831 -1.0565 -0.5469
 5181TIP3    H215480   8.277   2.099   6.357 -0.6454  0.9606 -0.0794
 5182TIP3   OH215481   5.522   0.129   3.404 -0.6272  0.1035 -0.9033
 5182TIP3    H115482   5.452   0.099   3.463 -1.5026 -0.0904 -2.0304
 5182TIP3    H215483   5.515   0.224   3.406 -0.5581  0.1018 -0.5693
 5183TIP3   OH215484   1.969   5.123   1.207  0.1442 -0.3227  0.2026
 5183TIP3    H115485   1.912   5.198   1.190  0.3926 -0.0968  0.3662
 5183TIP3    H215486   1.942   5.058   1.143  0.2674  0.0886 -0.2751
 5184TIP3   OH215487   3.136   0.589   1.104  0.3193  0.1863  0.2395
 5184TIP3    H115488   3.067   0.652   1.124  0.6219  0.5228  0.2340
 5184TIP3    H215489   3.096   0.504   1.120  0.4171  0.4343  1.9057
 5185TIP3   OH215490   1.695   6.560   4.785  0.4026  0.9036  0.2647
 5185TIP3    H115491   1.770   6.598   4.832  0.8851 -1.1778  1.2480
 5185TIP3    H215492   1.659   6.633   4.735  3.2822  1.8896 -0.4715
 5186TIP3   OH215493   6.273   4.138   6.336  0.1491 -0.7030  0.7541
 5186TIP3    H115494   6.222   4.193   6.276  1.2637 -0.2709  0.1741
 5186TIP3    H215495   6.239   4.050   6.323 -0.9682 -0.3083  0.9425
 5187TIP3   OH215496   1.827   6.023   2.616 -0.5773  0.2647 -0.5497
 5187TIP3    H115497   1.766   5.983   2.679  0.2958 -1.1392 -0.5679
 5187TIP3    H215498   1.826   6.116   2.637 -0.2210 -0.1934  1.6121
 5188TIP3   OH215499   7.159   3.566   6.527 -0.0070 -0.4900 -0.2861
 5188TIP3    H115500   7.254   3.553   6.534  0.1938  0.8798 -0.3417
 5188TIP3    H215501   7.145   3.604   6.440 -0.3643  1.2421  0.4948
 5189TIP3   OH215502   1.366   6.441   1.691  0.2590 -0.3291 -0.0421
 5189TIP3    H115503   1.327   6.481   1.770 -0.2802 -1.1289  0.1043
 5189TIP3    H215504   1.376   6.349   1.714  0.6133 -0.4595 -0.7241
 5190TIP3   OH215505   3.515  -0.028   1.828  0.0423  0.2075  0.0675
 5190TIP3    H115506   3.476   0.057   1.808  0.8805  0.3258 -1.1662
 5190TIP3    H215507   3.543  -0.022   1.919 -0.4323  1.0528  0.1530
 5191TIP3   OH215508   0.013   5.634   3.489 -0.2358 -0.1457 -0.2431
 5191TIP3    H115509   0.068   5.703   3.454 -1.1292  0.8444  0.2703
 5191TIP3    H215510   0.013   5.566   3.421  2.3600 -0.5778  0.1712
 5192TIP3   OH215511   8.183   5.899   3.768 -0.2318  0.5059  0.3162
 5192TIP3    H115512   8.179   5.985   3.725 -0.6604  1.4128  2.1159
 5192TIP3    H215513   8.100   5.858   3.749  1.4143 -1.1516 -3.7976
 5193TIP3   OH215514   1.610   5.575   1.490  0.3733  0.0732 -0.2382
 5193TIP3    H115515   1.586   5.598   1.400 -0.4792 -1.5498 -0.4373
 5193TIP3    H215516   1.699   5.608   1.500  0.4598  0.3008 -1.6599
 5194TIP3   OH215517   6.042   1.214   6.698  0.4973 -0.4031 -0.2300
 5194TIP3    H115518   5.965   1.168   6.666 -0.6119  0.8518  0.5618
 5194TIP3    H215519   6.039   1.203   6.793  0.1670  1.3395 -0.0227
 5195TIP3   OH215520   2.872   7.547   1.558 -0.5212  0.2370 -0.3150
 5195TIP3    H115521   2.857   7.641   1.574 -1.1344  0.1211 -0.2098
 5195TIP3    H215522   2.786   7.507   1.567 -0.4089 -0.2218 -1.2308
 5196TIP3   OH215523   8.097   2.626   5.571  0.0769  0.2721  0.4854
 5196TIP3    H115524   8.067   2.657   5.656  2.2875  0.7268  1.1305
 5196TIP3    H215525   8.166   2.687   5.546  0.6575 -0.8819 -0.8076
 5197TIP3   OH215526   2.157   5.558   2.721  0.1320 -0.1043  0.1131
 5197TIP3    H115527   2.077   5.527   2.762  1.1364 -1.9140  0.7476
 5197TIP3    H215528   2.128   5.593   2.637 -1.4237  0.0053  0.6784
 5198TIP3   OH215529   6.947   4.413   5.148 -0.6077  0.0907 -0.4277
 5198TIP3    H115530   6.962   4.505   5.130 -2.0005 -0.0583 -2.5054
 5198TIP3    H215531   6.896   4.413   5.230  1.3530  1.0181  0.8303
 5199TIP3   OH215532   0.446   6.309   2.775  0.1916  0.4355 -0.4016
 5199TIP3    H115533   0.461   6.403   2.768  3.2832 -0.1034 -2.2750
 5199TIP3    H215534   0.456   6.290   2.869  0.8744  1.7803 -0.1871
 5200TIP3   OH215535   5.559   0.329   2.008 -0.1195  0.3716 -0.7014
 5200TIP3    H115536   5.467   0.348   2.029 -0.0188 -0.0168  0.1149
 5200TIP3    H215537   5.556   0.242   1.969 -0.0135  0.0371  0.0274
 5201TIP3   OH215538   0.768   0.006   4.138  0.4551  0.0661 -0.6119
 5201TIP3    H115539   0.785   0.097   4.160  1.9247 -0.1932 -0.6569
 5201TIP3    H215540   0.834  -0.044   4.187  0.7754 -0.8483 -1.9377
 5202TIP3   OH215541   0.705   6.483   1.883 -0.1668 -0.0802 -0.4753
 5202TIP3    H115542   0.655   6.405   1.908 -0.3821 -0.4571 -1.9934
 5202TIP3    H215543   0.686   6.494   1.789  1.6923  0.4430 -0.8049
 5203TIP3   OH215544   0.334   6.470   2.585 -0.4400  0.1180  0.0190
 5203TIP3    H115545   0.244   6.493   2.608  0.4809  1.3791  2.4886
 5203TIP3    H215546   0.342   6.378   2.611 -1.1820 -0.2141 -0.8576
 5204TIP3   OH215547   6.031   5.699  -0.002 -0.2468  0.6496 -0.0162
 5204TIP3    H115548   6.013   5.692   0.092  1.7509 -0.5773  0.2948
 5204TIP3    H215549   5.945   5.709  -0.042 -1.5241 -3.2666  1.5451
 5205TIP3   OH215550   1.888   4.207   2.846  0.4793  0.6952  0.0316
 5205TIP3    H115551   1.806   4.183   2.804  1.7502  0.1085 -2.1543
 5205TIP3    H215552   1.866   4.285   2.899 -1.5798  0.1994 -0.0594
 5206TIP3   OH215553   0.898   7.192   0.066 -0.0547  0.2792 -0.5456
 5206TIP3    H115554   0.884   7.103   0.099  2.0490 -0.5977 -1.9255
 5206TIP3    H215555   0.827   7.243   0.105 -0.3008 -1.6312  1.6500
 5207TIP3   OH215556   7.400   7.052   3.164 -0.1901 -0.0885  0.1919
 5207TIP3    H115557   7.384   7.014   3.250 -2.5953 -1.9813 -1.0289
 5207TIP3    H215558   7.316   7.091   3.139  0.3355  0.0237 -1.4880
 5208TIP3   OH215559   0.916   3.718   3.822  0.3563  0.3150 -0.0709
 5208TIP3    H115560   1.011   3.726   3.834  0.8443 -1.1760 -2.5370
 5208TIP3    H215561   0.906   3.695   3.730 -2.4715  1.2984 -0.0488
 5209TIP3   OH215562   1.260   5.503   1.323  0.4838 -0.6685  0.3253
 5209TIP3    H115563   1.325   5.434   1.327 -0.4361 -1.4476  2.6924
 5209TIP3    H215564   1.258   5.540   1.411 -1.6520 -0.0946  0.0741
 5210TIP3   OH215565   2.861   0.205   0.691 -0.6614 -0.3397 -0.2032
 5210TIP3    H115566   2.813   0.145   0.633 -2.8221  1.9502 -0.8219
 5210TIP3    H215567   2.900   0.270   0.632  3.4033 -2.1639  0.2585
 5211TIP3   OH215568   5.096   0.530   0.866 -0.6178  0.0301  0.1995
 5211TIP3    H115569   5.013   0.546   0.912 -0.5045  0.6365  0.2021
 5211TIP3    H215570   5.119   0.616   0.829  0.1147 -0.0891  0.3765
 5212TIP3   OH215571   0.054   7.949   1.898 -0.0541 -0.0387 -0.1369
 5212TIP3    H115572   0.068   7.875   1.840  0.4728 -0.9635  1.1535
 5212TIP3    H215573   0.128   8.007   1.882  0.1912 -0.3810 -0.2450
 5213TIP3   OH215574   2.335   7.075   1.452 -0.2606  0.6179  0.1332
 5213TIP3    H115575   2.378   7.137   1.510 -0.5037  0.4361  0.5097
 5213TIP3    H215576   2.305   7.004   1.509  0.7121 -0.2377 -0.3923
 5214TIP3   OH215577   6.709   0.180   3.679  0.0944  0.3620  0.2861
 5214TIP3    H115578   6.642   0.152   3.741  1.4501 -1.2479  1.0782
 5214TIP3    H215579   6.714   0.109   3.615  0.6311  0.7355 -0.0972
 5215TIP3   OH215580   4.658   0.866   5.215 -0.3452  0.0909  0.8387
 5215TIP3    H115581   4.611   0.873   5.132  0.2223  1.6609  0.6434
 5215TIP3    H215582   4.715   0.942   5.217  2.2869 -1.8098  1.0469
 5216TIP3   OH215583   2.075   7.234   1.739 -0.4106 -0.3046  0.1933
 5216TIP3    H115584   2.118   7.315   1.711 -0.2656 -0.4527 -0.0190
 5216TIP3    H215585   2.068   7.182   1.659  0.1158 -0.7846  0.4580
 5217TIP3   OH215586   2.718   7.300   4.240 -0.6953  0.3585 -0.1547
 5217TIP3    H115587   2.746   7.333   4.155 -2.3627 -0.4386 -1.0439
 5217TIP3    H215588   2.797   7.263   4.279  0.3395  1.8328 -0.8292
 5218TIP3   OH215589   0.900   6.608   3.351  0.1241  0.0048  0.6673
 5218TIP3    H115590   0.935   6.635   3.436  0.8013  3.4459 -0.6378
 5218TIP3    H215591   0.811   6.645   3.349 -0.4683 -1.3938  0.4773
 5219TIP3   OH215592   1.436   7.330   1.796 -0.0645  0.0341 -0.2368
 5219TIP3    H115593   1.378   7.331   1.720 -1.8805 -1.4316  1.0741
 5219TIP3    H215594   1.505   7.268   1.773 -1.1621 -1.1772 -0.3122
 5220TIP3   OH215595   2.278   7.517   2.657 -0.7343 -0.3750  0.0317
 5220TIP3    H115596   2.360   7.551   2.692 -0.5009  0.0083 -0.8572
 5220TIP3    H215597   2.284   7.422   2.666  0.8625 -0.5279 -2.2382
 5221TIP3   OH215598   8.050   6.361   1.926 -0.1983  0.4218 -0.3662
 5221TIP3    H115599   7.978   6.419   1.903 -0.4205 -0.9722 -3.4990
 5221TIP3    H215600   8.011   6.273   1.925  0.9663 -0.1156  0.4376
 5222TIP3   OH215601   7.873   1.779   6.948  0.1509  0.4186 -0.4639
 5222TIP3    H115602   7.889   1.800   6.856  1.3601 -2.2561 -0.9013
 5222TIP3    H215603   7.778   1.792   6.958  0.0137  0.8604 -2.0628
 5223TIP3   OH215604   1.523   7.005   1.864 -0.3418 -0.3973 -0.5661
 5223TIP3    H115605   1.530   6.911   1.878 -0.1533 -0.3383 -0.2339
 5223TIP3    H215606   1.495   7.015   1.774  1.4619 -0.7243 -1.1815
 5224TIP3   OH215607   2.506   7.644   2.747 -0.1900  0.2214  0.8701
 5224TIP3    H115608   2.505   7.696   2.666  0.4174 -1.6193 -0.3504
 5224TIP3    H215609   2.594   7.607   2.751 -1.6755 -3.6656 -0.2557
 5225TIP3   OH215610   5.666   0.142   0.682  0.1538  0.1389  0.1409
 5225TIP3    H115611   5.682   0.157   0.589  0.7388  0.1154  0.2367
 5225TIP3    H215612   5.743   0.178   0.726  0.6220 -1.2680  0.5118
 5226TIP3   OH215613   6.591   2.574   6.493  1.0863 -0.1395  0.3659
 5226TIP3    H115614   6.497   2.565   6.480  0.9099  0.6936  1.0299
 5226TIP3    H215615   6.610   2.523   6.572  1.0102  0.5834  0.8563
 5227TIP3   OH215616   7.343   5.858   3.813 -0.0965  0.4687  0.3356
 5227TIP3    H115617   7.430   5.859   3.775  0.0170  0.9934  0.6074
 5227TIP3    H215618   7.285   5.889   3.743  0.2356  2.3914  0.8922
 5228TIP3   OH215619   8.443   7.419   1.978  0.0751 -0.0378  0.1235
 5228TIP3    H115620   8.516   7.413   2.039  1.1748 -1.7065 -1.3282
 5228TIP3    H215621   8.477   7.472   1.905 -0.5104  0.0719 -0.0739
 5229TIP3   OH215622   3.991   7.350   2.041 -0.2207  0.1946 -0.4299
 5229TIP3    H115623   4.027   7.394   1.964 -1.1782  1.6857 -0.0485
 5229TIP3    H215624   3.997   7.257   2.021  1.3691  0.5139 -1.4709
 5230TIP3   OH215625   1.136   7.058   1.050 -0.3368  0.0977 -0.1171
 5230TIP3    H115626   1.231   7.063   1.040 -0.3112 -0.6734 -0.2826
 5230TIP3    H215627   1.122   7.042   1.143 -0.3452  1.0513  0.0575
 5231TIP3   OH215628   2.725   4.076   2.187 -0.0314 -0.1916  0.0892
 5231TIP3    H115629   2.804   4.047   2.233  0.6159  0.1469 -0.7945
 5231TIP3    H215630   2.653   4.045   2.242  0.7221  0.9265  1.7675
 5232TIP3   OH215631   3.079   5.118   1.887 -0.1344  0.0981  0.2955
 5232TIP3    H115632   3.175   5.115   1.891 -0.1069  0.5045 -0.0158
 5232TIP3    H215633   3.054   5.031   1.856  0.0238 -0.6690  2.2702
 5233TIP3   OH215634   2.576   6.332   2.775  0.3088 -1.0697 -0.2589
 5233TIP3    H115635   2.608   6.320   2.865 -0.3307  0.4708  0.1915
 5233TIP3    H215636   2.491   6.374   2.786  0.7631  0.2367 -1.6349
 5234TIP3   OH215637   1.365   6.115   4.595 -0.1398 -0.1964  0.1721
 5234TIP3    H115638   1.385   6.054   4.666 -0.1019  0.3961  0.6685
 5234TIP3    H215639   1.409   6.076   4.518 -1.0942 -1.3984  0.2225
 5235TIP3   OH215640   6.446   0.660   4.940 -0.1338 -0.2224  0.1829
 5235TIP3    H115641   6.391   0.582   4.956 -0.0759 -0.4982 -0.8791
 5235TIP3    H215642   6.424   0.720   5.011  0.7676 -1.7109  1.7650
 5236TIP3   OH215643   7.338   2.410   6.676 -0.2415 -0.2444  0.6667
 5236TIP3    H115644   7.268   2.371   6.623  0.3552  0.0878 -0.3666
 5236TIP3    H215645   7.297   2.426   6.761 -1.4033 -0.1119  0.0866
 5237TIP3   OH215646   7.880   6.560   1.223 -0.1361  0.0893 -0.5859
 5237TIP3    H115647   7.944   6.589   1.288  0.7493 -0.2967 -1.2731
 5237TIP3    H215648   7.844   6.641   1.187 -0.8545  0.2973  0.6130
 5238TIP3   OH215649   0.948   6.727   1.423  0.2860 -0.5908  0.6416
 5238TIP3    H115650   1.030   6.693   1.387  0.1680  0.9234 -1.1374
 5238TIP3    H215651   0.881   6.695   1.363 -0.2789 -0.7211  1.3399
 5239TIP3   OH215652   0.405   6.768   1.618  0.7609  0.3412  0.2616
 5239TIP3    H115653   0.311   6.787   1.616  0.3644 -1.6084 -0.1412
 5239TIP3    H215654   0.416   6.705   1.689  2.2435  2.8728  2.3739
 5240TIP3   OH215655   0.652   7.106   0.256  0.2714 -0.2877 -0.1990
 5240TIP3    H115656   0.566   7.080   0.286 -0.6266  1.6211 -1.0239
 5240TIP3    H215657   0.686   7.164   0.324  0.5249 -0.3253 -0.2904
 5241TIP3   OH215658   7.973   5.833   3.396  0.1394  0.0405  0.2523
 5241TIP3    H115659   8.008   5.856   3.310  1.5350  0.4726  0.9225
 5241TIP3    H215660   8.046   5.788   3.441 -0.5225 -0.0571  1.2573
 5242TIP3   OH215661   0.191   6.537   3.180  0.1643 -0.8296  0.1170
 5242TIP3    H115662   0.107   6.582   3.196  1.2059  1.1711  0.1534
 5242TIP3    H215663   0.230   6.529   3.267  0.4564 -0.8420 -0.0170
 5243TIP3   OH215664   4.393   5.984   2.894 -0.0954 -0.2567 -0.8320
 5243TIP3    H115665   4.391   6.080   2.897  0.5905 -0.2782  0.2743
 5243TIP3    H215666   4.482   5.963   2.865  1.5269 -0.6579  4.0339
 5244TIP3   OH215667   1.976   5.982   4.255 -0.7100  0.0868 -0.2340
 5244TIP3    H115668   2.021   5.898   4.268 -2.0292 -0.5148  0.4429
 5244TIP3    H215669   1.939   5.975   4.167 -0.0258  0.3387 -0.5481
 5245TIP3   OH215670   7.130   1.913   6.777  0.4124  0.1780 -0.0691
 5245TIP3    H115671   7.058   1.920   6.840 -0.0595 -0.9806 -0.4613
 5245TIP3    H215672   7.099   1.848   6.713  0.9626  1.2195 -1.3991
 5246TIP3   OH215673   2.557   6.143   1.477  0.2030  0.0266  0.1660
 5246TIP3    H115674   2.507   6.225   1.486 -2.9520 -1.9022  0.9885
 5246TIP3    H215675   2.567   6.111   1.567 -0.2014 -1.3885 -0.2791
 5247TIP3   OH215676   8.435   7.616   0.639 -0.2612 -1.0393 -0.0629
 5247TIP3    H115677   8.455   7.651   0.726 -0.4781 -0.2131 -0.3440
 5247TIP3    H215678   8.342   7.595   0.642  0.3334 -3.8127  0.8680
 5248TIP3   OH215679   5.485   3.400   5.391 -0.5134  1.2204 -0.2118
 5248TIP3    H115680   5.448   3.323   5.434  1.0220  0.9849  0.7376
 5248TIP3    H215681   5.533   3.364   5.316  1.3153  1.1000  0.9887
 5249TIP3   OH215682   2.708   5.199   2.353 -0.4108 -0.0433 -0.4204
 5249TIP3    H115683   2.694   5.145   2.275 -1.7572  0.6706 -0.6942
 5249TIP3    H215684   2.757   5.275   2.321 -1.1292  0.3431 -0.6195
 5250TIP3   OH215685   0.641   7.834   1.447 -0.9872  0.0235 -1.0084
 5250TIP3    H115686   0.613   7.822   1.537  2.2251  1.8655  0.3185
 5250TIP3    H215687   0.696   7.758   1.429  0.8880  1.1873 -0.3203
 5251TIP3   OH215688   1.918   5.274   2.874 -0.6501  0.7489  0.1678
 5251TIP3    H115689   1.939   5.364   2.896 -0.2701  0.7004  0.0074
 5251TIP3    H215690   1.905   5.231   2.958 -0.7529  0.9338  0.2464
 5252TIP3   OH215691   0.085   5.610   0.913  0.0514  0.7838  0.1149
 5252TIP3    H115692   0.081   5.671   0.987 -0.9722  1.4279 -0.4380
 5252TIP3    H215693   0.062   5.525   0.950  4.1808  0.1368  1.4376
 5253TIP3   OH215694   3.539   7.822   1.400  0.0791  0.6016 -0.1383
 5253TIP3    H115695   3.486   7.872   1.462  1.0729  1.3435  0.1252
 5253TIP3    H215696   3.629   7.833   1.431  0.7629  2.1712 -2.4891
 5254TIP3   OH215697   1.341   6.713   5.117 -0.0641  0.1653  0.8278
 5254TIP3    H115698   1.295   6.764   5.183  0.2558 -0.9426  1.9243
 5254TIP3    H215699   1.278   6.646   5.090 -0.0344  0.3308  0.3356
 5255TIP3   OH215700   8.371   7.837   1.454 -0.4612 -0.2376  0.6915
 5255TIP3    H115701   8.371   7.764   1.393 -1.5840 -0.8604  1.4239
 5255TIP3    H215702   8.318   7.904   1.411 -0.5190 -0.3409  0.6039
 5256TIP3   OH215703   1.958   7.004   2.795 -0.4417 -0.1467  0.1829
 5256TIP3    H115704   1.947   7.068   2.724 -0.8778 -1.0226 -0.5464
 5256TIP3    H215705   2.049   6.976   2.789  0.8216  3.0471  2.7725
 5257TIP3   OH215706   5.806   1.906   3.108 -0.1223  0.1815  0.4400
 5257TIP3    H115707   5.751   1.878   3.181  1.0147  0.6752  1.5092
 5257TIP3    H215708   5.868   1.834   3.096  0.2339  0.4689  0.5320
 5258TIP3   OH215709   1.963   6.832   1.187 -0.2737 -0.4493 -0.0052
 5258TIP3    H115710   1.903   6.760   1.164  1.4920 -1.5289 -1.2985
 5258TIP3    H215711   2.035   6.824   1.125  0.6568  1.5647  0.7929
 5259TIP3   OH215712   5.862   3.511   6.610 -0.2274 -0.2030 -0.9673
 5259TIP3    H115713   5.922   3.467   6.550  0.6764  0.0271 -0.2468
 5259TIP3    H215714   5.790   3.450   6.622 -0.4352 -0.2412 -2.3085
 5260TIP3   OH215715   0.407   1.861   3.801 -0.2671 -0.0647  0.1420
 5260TIP3    H115716   0.348   1.793   3.834 -2.6769  1.2153 -1.3187
 5260TIP3    H215717   0.462   1.816   3.737 -1.4011 -0.8193 -0.3371
 5261TIP3   OH215718   1.030   4.209   6.920  0.5689  0.1119  0.4315
 5261TIP3    H115719   1.006   4.117   6.919  0.4422  0.1454 -0.2102
 5261TIP3    H215720   1.076   4.222   6.837  1.5972  0.3590  1.0370
 5262TIP3   OH215721   3.399   7.935   1.037 -0.7221  0.0981  0.2244
 5262TIP3    H115722   3.304   7.933   1.045 -0.6508 -1.3994  0.7896
 5262TIP3    H215723   3.427   7.996   1.106 -1.3112  1.2565 -0.5361
 5263TIP3   OH215724   7.713   4.307   6.728  0.3591 -0.2194  0.4331
 5263TIP3    H115725   7.668   4.315   6.812 -2.0570 -0.8227 -0.7592
 5263TIP3    H215726   7.701   4.392   6.686  0.7518 -0.2256  0.3070
 5264TIP3   OH215727   2.594   7.275   3.006 -0.0345  0.2114 -0.0331
 5264TIP3    H115728   2.673   7.295   3.056 -0.1205  0.5562 -0.0316
 5264TIP3    H215729   2.625   7.262   2.916  0.1757 -0.8378  0.1892
 5265TIP3   OH215730   4.594   6.967   1.218 -0.3795 -0.6119  0.3856
 5265TIP3    H115731   4.540   6.983   1.295  0.9066  3.1225  0.6262
 5265TIP3    H215732   4.666   6.912   1.249 -0.3284  0.1757  1.6583
 5266TIP3   OH215733   0.330   0.532   1.501 -0.2020 -0.1088 -0.1800
 5266TIP3    H115734   0.377   0.519   1.419 -0.6539 -1.0514 -0.2935
 5266TIP3    H215735   0.399   0.529   1.568  0.1935  0.8776 -0.5271
 5267TIP3   OH215736   3.183   6.760   0.312 -0.1662  0.0273  0.5617
 5267TIP3    H115737   3.127   6.686   0.335 -0.3852  0.1101  0.2973
 5267TIP3    H215738   3.175   6.767   0.217  2.5367 -1.7873  0.1283
 5268TIP3   OH215739   4.510   6.822   2.765  0.4207  0.2979  0.3187
 5268TIP3    H115740   4.589   6.780   2.801  1.1479  0.2938 -1.2439
 5268TIP3    H215741   4.507   6.792   2.674 -0.3769  1.7605 -0.1459
 5269TIP3   OH215742   3.392   6.744   1.849 -0.1625 -0.6121 -0.5788
 5269TIP3    H115743   3.480   6.711   1.835  0.4278 -0.8465  3.2049
 5269TIP3    H215744   3.335   6.667   1.842  0.3113 -1.0410  0.3239
 5270TIP3   OH215745   1.475   5.440   6.735 -0.1376 -0.2551  0.8847
 5270TIP3    H115746   1.469   5.422   6.829 -1.8284 -1.4834  0.5561
 5270TIP3    H215747   1.444   5.360   6.693 -1.6734  1.1197 -0.7002
 5271TIP3   OH215748   4.303   5.420   0.683 -0.5080 -0.0264  0.3738
 5271TIP3    H115749   4.260   5.391   0.603  0.0364 -0.4650  0.2353
 5271TIP3    H215750   4.296   5.345   0.743 -1.2884  0.4523  0.8867
 5272TIP3   OH215751   2.234   6.065   4.284  0.0848 -0.3195  0.2045
 5272TIP3    H115752   2.263   6.005   4.215 -0.6688  0.4675 -0.8295
 5272TIP3    H215753   2.141   6.044   4.296 -0.1535  0.5460 -0.0835
 5273TIP3   OH215754   1.321   2.608   6.405 -0.1395 -0.1261 -0.3885
 5273TIP3    H115755   1.299   2.670   6.474 -0.3363 -1.5107  0.8216
 5273TIP3    H215756   1.238   2.568   6.380 -0.0224  0.1187 -1.2013
 5274TIP3   OH215757   1.813   6.865   0.172  0.1254 -0.0251 -0.7592
 5274TIP3    H115758   1.748   6.811   0.218  1.4424  0.2399  1.4938
 5274TIP3    H215759   1.852   6.805   0.109  0.1578 -1.1960  0.3352
 5275TIP3   OH215760   6.689   0.388   1.174  0.2512 -0.1439 -0.4540
 5275TIP3    H115761   6.628   0.452   1.140 -0.2883 -0.2374  0.3183
 5275TIP3    H215762   6.640   0.306   1.178  0.0893 -0.0004  1.1180
 5276TIP3   OH215763   2.715   7.119   0.074  0.0424  0.2228  0.5179
 5276TIP3    H115764   2.778   7.171   0.125  0.9376  0.1753 -0.5069
 5276TIP3    H215765   2.734   7.142  -0.017 -1.1340 -0.1411  0.1735
 5277TIP3   OH215766   5.530   6.138   1.881  0.0993  0.0584  0.4212
 5277TIP3    H115767   5.586   6.194   1.827  0.6893 -0.2090  0.7495
 5277TIP3    H215768   5.580   6.124   1.961 -0.6792  0.2742  0.9579
 5278TIP3   OH215769   0.357   3.878   6.618 -0.1196  0.3410 -0.3830
 5278TIP3    H115770   0.280   3.831   6.585  0.7641 -1.6946  0.3595
 5278TIP3    H215771   0.430   3.819   6.602  0.9999  1.3889  0.7512
 5279TIP3   OH215772   6.653   6.916   3.712  0.4187 -0.1739 -0.2190
 5279TIP3    H115773   6.601   6.955   3.642 -0.5621 -1.2267 -0.0932
 5279TIP3    H215774   6.651   6.981   3.783 -0.9608 -0.3050 -0.1182
 5280TIP3   OH215775   2.614   7.576   1.830  0.3884 -0.4597  0.0334
 5280TIP3    H115776   2.597   7.623   1.749 -0.3460  0.6427  0.8077
 5280TIP3    H215777   2.649   7.643   1.890  1.6685 -1.4210  0.3804
 5281TIP3   OH215778   6.130   0.833   3.924  0.7683  0.0022  0.0727
 5281TIP3    H115779   6.127   0.871   3.836  1.5969  2.9296  1.2463
 5281TIP3    H215780   6.203   0.878   3.967  0.4656 -1.4983  2.2171
 5282TIP3   OH215781   5.467   0.339   1.571 -0.0992 -0.2772  0.0387
 5282TIP3    H115782   5.487   0.432   1.558  0.5716 -0.0931  2.1666
 5282TIP3    H215783   5.545   0.304   1.615 -1.4016 -1.2439  1.6284
 5283TIP3   OH215784   1.833   6.491   1.553  0.2983 -0.2104  0.0936
 5283TIP3    H115785   1.768   6.426   1.527  0.1876  0.6998 -2.0285
 5283TIP3    H215786   1.917   6.451   1.533  0.4404 -1.4920  3.0816
 5284TIP3   OH215787   2.033   5.437   3.732  0.5200 -0.0029 -0.1778
 5284TIP3    H115788   1.950   5.420   3.687  0.4346 -0.1148  0.0246
 5284TIP3    H215789   2.068   5.350   3.753 -0.1515  0.0641  1.2897
 5285TIP3   OH215790   6.487   1.388   1.705 -0.0398 -0.1640 -0.1181
 5285TIP3    H115791   6.528   1.463   1.662  1.1276 -1.2115 -0.8851
 5285TIP3    H215792   6.516   1.393   1.796 -4.4172  3.4099  1.2546
 5286TIP3   OH215793   4.132   7.402   1.103 -0.2332 -0.4631 -0.2807
 5286TIP3    H115794   4.212   7.445   1.134 -0.9910 -0.2508  1.4494
 5286TIP3    H215795   4.159   7.353   1.025  1.4747 -0.0208  0.0202
 5287TIP3   OH215796   2.115   6.981   2.279  0.1273 -0.0787 -0.7875
 5287TIP3    H115797   2.143   7.006   2.191  1.3031  0.7506 -0.1937
 5287TIP3    H215798   2.195   6.987   2.332 -0.8102  0.5619  0.5764
 5288TIP3   OH215799   2.654   7.568   2.363 -0.2798 -0.5106  0.4536
 5288TIP3    H115800   2.633   7.626   2.436  0.5882 -0.9398  1.0443
 5288TIP3    H215801   2.571   7.525   2.342 -1.0805  1.3727 -0.3804
 5289TIP3   OH215802   2.192   6.114   1.693 -0.4256  0.3458  0.1704
 5289TIP3    H115803   2.224   6.027   1.713  3.2316  2.0292  2.1528
 5289TIP3    H215804   2.164   6.150   1.777 -1.9029  1.0927 -0.6164
 5290TIP3   OH215805   5.484   0.871   3.731 -0.4938 -0.2276 -0.2898
 5290TIP3    H115806   5.555   0.929   3.759 -1.2027  0.6519 -0.2687
 5290TIP3    H215807   5.453   0.831   3.812  0.5942 -1.3397 -0.4131
 5291TIP3   OH215808   1.888   5.644   1.504  0.4633  0.5558 -0.8689
 5291TIP3    H115809   1.872   5.649   1.598  0.8886  0.7831 -0.8041
 5291TIP3    H215810   1.971   5.690   1.492  1.0599 -0.5903 -1.1865
 5292TIP3   OH215811   0.873   0.591   3.534 -0.0515  0.0443 -0.5988
 5292TIP3    H115812   0.793   0.630   3.499 -1.4343 -1.0376  1.2500
 5292TIP3    H215813   0.899   0.527   3.467 -1.2899 -0.2866 -0.7966
 5293TIP3   OH215814   2.130   6.129   0.383  0.6376 -0.5043 -0.3407
 5293TIP3    H115815   2.050   6.078   0.400 -0.0197  0.6351  0.0043
 5293TIP3    H215816   2.101   6.220   0.382  2.1477  0.0176  1.1145
 5294TIP3   OH215817   2.355   5.795   2.944 -0.1249 -0.6621  0.5988
 5294TIP3    H115818   2.313   5.776   2.860  1.5235 -2.0143  0.0541
 5294TIP3    H215819   2.340   5.889   2.957  0.3148 -0.2392 -1.6290
 5295TIP3   OH215820   1.891   6.558   2.463 -0.1252 -0.0871 -0.7903
 5295TIP3    H115821   1.799   6.582   2.468  0.2033  0.9031  1.3330
 5295TIP3    H215822   1.930   6.624   2.406 -0.3462  0.8712  0.1348
 5296TIP3   OH215823   8.206   3.441   6.577  1.0351  0.0974  0.5558
 5296TIP3    H115824   8.294   3.468   6.602  0.5123  1.5953  0.8642
 5296TIP3    H215825   8.215   3.406   6.488  1.8489  0.7782  0.3679
 5297TIP3   OH215826   3.001   7.759   2.988 -0.3431  0.5632 -0.0716
 5297TIP3    H115827   3.017   7.825   3.055  1.5007 -2.6978  2.8412
 5297TIP3    H215828   3.087   7.744   2.948 -0.9156  0.4828 -1.3079
 5298TIP3   OH215829   6.842   0.083   2.621  0.3522  0.2560  0.1852
 5298TIP3    H115830   6.768   0.071   2.561  0.1082  0.1616  0.5040
 5298TIP3    H215831   6.919   0.061   2.569  0.2046  0.9260 -0.3194
 5299TIP3   OH215832   2.560   6.952   0.239 -0.1788  0.4912  0.4115
 5299TIP3    H115833   2.640   6.906   0.265  0.0311  1.4120  1.4000
 5299TIP3    H215834   2.587   7.007   0.166 -0.3892 -0.7915 -0.6591
 5300TIP3   OH215835   1.432   5.872   3.606 -0.4304  0.3205 -0.7083
 5300TIP3    H115836   1.497   5.939   3.629 -0.8367  0.3058  0.5030
 5300TIP3    H215837   1.447   5.855   3.513  0.6909  0.9839 -0.6538
 5301TIP3   OH215838   3.309   5.923   2.927  0.5651  0.0404  0.5621
 5301TIP3    H115839   3.404   5.919   2.927  0.4807 -2.5265  0.1666
 5301TIP3    H215840   3.282   5.855   2.988 -1.0371 -0.2013 -0.3935
 5302TIP3   OH215841   1.831   6.980   2.347  0.2599  0.1223 -0.3361
 5302TIP3    H115842   1.786   7.022   2.274 -1.8293 -0.5446  0.5344
 5302TIP3    H215843   1.921   6.969   2.316  0.2917  3.1146 -1.4222
 5303TIP3   OH215844   6.215   0.333   1.530 -0.3663  0.0186  0.1012
 5303TIP3    H115845   6.123   0.358   1.543 -0.0620  0.5906  1.1253
 5303TIP3    H215846   6.238   0.371   1.445 -0.6268  1.1294  0.5303
 5304TIP3   OH215847   4.136   6.086   1.313 -0.3504 -0.3242 -0.3104
 5304TIP3    H115848   4.096   6.012   1.268 -2.3355 -0.4509  1.5685
 5304TIP3    H215849   4.105   6.078   1.403  1.3401  1.4527  0.4583
 5305TIP3   OH215850   5.437   0.697   2.615  0.4788  0.9572  0.2002
 5305TIP3    H115851   5.431   0.641   2.693  0.7644  0.2179 -0.2928
 5305TIP3    H215852   5.477   0.640   2.549  1.6851  2.0622 -0.0263
 5306TIP3   OH215853   3.298   7.252   1.085  0.4260  0.1683 -0.0817
 5306TIP3    H115854   3.336   7.333   1.051  0.7889  0.6048  1.2881
 5306TIP3    H215855   3.224   7.282   1.139  0.6001 -0.4111  0.4744
 5307TIP3   OH215856   3.814   7.510   2.937  0.0148  0.2084 -0.5378
 5307TIP3    H115857   3.856   7.426   2.918 -1.6569 -0.4759 -1.2549
 5307TIP3    H215858   3.887   7.571   2.946  1.2150 -1.1493 -0.8280
 5308TIP3   OH215859   6.413   0.319   4.170  0.2371  0.4464  0.3875
 5308TIP3    H115860   6.377   0.380   4.106 -1.6694 -1.3154 -0.2581
 5308TIP3    H215861   6.504   0.307   4.144 -0.3781  0.1966 -1.6884
 5309TIP3   OH215862   1.475   6.999   1.560  0.1824  0.2298 -0.2115
 5309TIP3    H115863   1.571   7.002   1.560  0.1973 -0.1640 -0.1593
 5309TIP3    H215864   1.449   7.051   1.484  0.3882  1.7189  0.7234
 5310TIP3   OH215865   2.594   6.767   1.402 -0.2633  0.3754  0.1751
 5310TIP3    H115866   2.537   6.782   1.326 -1.6524  0.7362  1.2582
 5310TIP3    H215867   2.570   6.680   1.433  1.1268 -0.2515 -0.4728
 5311TIP3   OH215868   5.930   1.057   6.433  0.5197 -0.3241  0.5541
 5311TIP3    H115869   5.871   1.015   6.497 -0.3934 -0.6923 -0.5211
 5311TIP3    H215870   6.018   1.035   6.465  0.1205  0.9716  2.6756
 5312TIP3   OH215871   1.107   6.129   0.766  0.7708  0.2176 -0.1977
 5312TIP3    H115872   1.062   6.056   0.810 -1.4730  1.2564 -0.6669
 5312TIP3    H215873   1.137   6.092   0.683 -1.4130  0.0921 -0.9698
 5313TIP3   OH215874   4.389   6.373   1.298  0.6062  0.0451  0.1695
 5313TIP3    H115875   4.430   6.403   1.379 -1.8261 -0.8262  1.7847
 5313TIP3    H215876   4.353   6.452   1.258 -1.9629 -0.0380  2.1867
 5314TIP3   OH215877   6.163   0.834   3.043  0.2798  0.3354  0.2789
 5314TIP3    H115878   6.213   0.916   3.046 -1.6636  1.6006 -0.3834
 5314TIP3    H215879   6.188   0.794   2.959  2.4902 -0.6050  1.3630
 5315TIP3   OH215880   2.439   6.636   0.409  0.0544  0.2200 -0.1530
 5315TIP3    H115881   2.511   6.640   0.346  0.7690  1.3696  0.7234
 5315TIP3    H215882   2.482   6.615   0.493 -0.2833  3.3938  0.8859
 5316TIP3   OH215883   5.847   1.060   3.002  0.5167  0.0558  0.0338
 5316TIP3    H115884   5.885   1.124   2.943  0.5243 -1.4831 -1.6842
 5316TIP3    H215885   5.755   1.086   3.011  0.7013  0.7333 -0.0618
 5317TIP3   OH215886   3.693   6.260   3.347  0.4642  0.3242 -0.2102
 5317TIP3    H115887   3.698   6.232   3.255 -0.5600 -0.1793 -0.1131
 5317TIP3    H215888   3.651   6.346   3.343 -1.1246 -0.4294 -0.0850
 5318TIP3   OH215889   3.483   7.884   1.857  0.2553 -0.0128  0.0453
 5318TIP3    H115890   3.523   7.809   1.813 -1.1584 -1.0025  0.3905
 5318TIP3    H215891   3.454   7.941   1.787  0.1740 -0.4142 -0.2466
 5319TIP3   OH215892   1.653   5.540   0.689 -1.2759  0.2119 -0.6471
 5319TIP3    H115893   1.673   5.624   0.730 -0.6722 -0.0226 -0.4587
 5319TIP3    H215894   1.609   5.564   0.607 -3.9178  0.6585  0.8354
 5320TIP3   OH215895   4.766   6.718   2.786  0.2400 -0.6115 -0.2319
 5320TIP3    H115896   4.789   6.670   2.706  1.1709 -1.9861  0.8271
 5320TIP3    H215897   4.833   6.693   2.850 -2.6725 -2.7093  2.1813
 5321TIP3   OH215898   4.858   7.795   1.018  0.0435  0.1092  0.4970
 5321TIP3    H115899   4.908   7.735   0.961  1.8018  1.3475  0.6847
 5321TIP3    H215900   4.859   7.878   0.971 -1.6662  0.2260  0.6380
 5322TIP3   OH215901   3.684   6.279   3.058  0.1421  0.0938  0.3845
 5322TIP3    H115902   3.600   6.269   3.013 -1.4218  0.0518  3.1565
 5322TIP3    H215903   3.745   6.224   3.009 -0.6691  2.4843 -3.4788
 5323TIP3   OH215904   6.018   0.513   1.280  0.2006 -0.1032 -0.6518
 5323TIP3    H115905   5.998   0.562   1.359  2.2388 -1.4267  0.7532
 5323TIP3    H215906   5.944   0.454   1.269 -0.2685  0.3422  0.0659
 5324TIP3   OH215907   7.798   0.379   1.980  0.3882  0.3648  0.0246
 5324TIP3    H115908   7.838   0.443   2.040  0.8621  1.3581 -1.3327
 5324TIP3    H215909   7.709   0.411   1.967  0.3570  0.2760  0.0181
 5325TIP3   OH215910   2.763   6.780   0.888 -0.4608  0.6279  0.3152
 5325TIP3    H115911   2.736   6.851   0.830  3.0061  1.6576 -0.1695
 5325TIP3    H215912   2.815   6.722   0.832 -1.4799 -1.1808  1.2014
 5326TIP3   OH215913   4.535   6.251   0.458  0.6918 -0.0451  0.2598
 5326TIP3    H115914   4.621   6.215   0.433 -0.5096 -3.2236  0.5115
 5326TIP3    H215915   4.483   6.174   0.481 -2.4486  1.7874 -0.5196
 5327TIP3   OH215916   3.046   7.257   1.185 -0.4824  0.2904  0.0215
 5327TIP3    H115917   3.016   7.331   1.236 -0.3582 -0.2613  0.8976
 5327TIP3    H215918   3.032   7.283   1.094 -1.5765  0.8929  0.3642
 5328TIP3   OH215919   2.247   7.054   2.067 -0.4051  0.1489  0.3286
 5328TIP3    H115920   2.193   7.030   1.991 -1.3412  0.5115  0.8678
 5328TIP3    H215921   2.324   6.997   2.060 -1.8645 -1.9378  0.7357
 5329TIP3   OH215922   3.356   7.822   3.451  0.4971 -0.0401  0.2228
 5329TIP3    H115923   3.451   7.824   3.453  0.5164  2.1710 -0.6491
 5329TIP3    H215924   3.334   7.797   3.361  0.2475 -0.8167  0.4969
 5330TIP3   OH215925   1.895   7.768   1.752  0.1866  0.4818 -0.1837
 5330TIP3    H115926   1.808   7.788   1.718  0.7263  1.0835 -1.2431
 5330TIP3    H215927   1.881   7.695   1.812 -1.5297  2.7668  2.2958
 5331TIP3   OH215928   5.382   6.966   1.873 -0.0466 -0.0310  0.3372
 5331TIP3    H115929   5.288   6.964   1.890 -0.1434  3.1423  0.5571
 5331TIP3    H215930   5.390   6.950   1.779 -1.0081  1.8095 -0.0835
 5332TIP3   OH215931   5.967   7.877   0.379 -0.0130  0.1851 -0.1692
 5332TIP3    H115932   5.879   7.915   0.383 -0.5902 -0.5385 -4.0925
 5332TIP3    H215933   5.953   7.783   0.386  0.3273  0.0234 -1.4314
 5333TIP3   OH215934   6.834   0.917   3.434 -0.0583  0.1416 -0.2782
 5333TIP3    H115935   6.838   0.976   3.359 -2.5124  2.2919  1.1991
 5333TIP3    H215936   6.907   0.943   3.489 -0.5416  1.1692 -0.1111
 5334TIP3   OH215937   3.699   7.491   2.058  0.1470  0.4730 -0.1542
 5334TIP3    H115938   3.767   7.555   2.036  2.4515 -1.7591  0.3246
 5334TIP3    H215939   3.717   7.466   2.148 -1.4209 -0.0343  0.0413
 5335TIP3   OH215940   5.416   1.010   0.729 -0.2910 -0.3798 -0.0457
 5335TIP3    H115941   5.449   0.934   0.777 -1.1121 -0.5682  0.2239
 5335TIP3    H215942   5.420   0.984   0.637 -0.8661 -0.8724  0.0649
 5336TIP3   OH215943   3.639   6.340   1.896  0.1091  0.0906 -0.3431
 5336TIP3    H115944   3.710   6.388   1.939  0.1572 -1.6429  1.5767
 5336TIP3    H215945   3.595   6.293   1.967 -0.9682 -1.3873 -1.9516
 5337TIP3   OH215946   7.177   1.864   4.425  0.2093 -0.0472 -0.0805
 5337TIP3    H115947   7.208   1.781   4.388 -0.1579  0.1496 -0.8296
 5337TIP3    H215948   7.137   1.839   4.509  1.2443 -0.4638  0.2981
 5338TIP3   OH215949   6.144   0.836   2.294 -0.3274 -0.4053  0.1003
 5338TIP3    H115950   6.230   0.873   2.315  0.0841 -1.6629  0.6896
 5338TIP3    H215951   6.133   0.763   2.356 -0.9800 -1.4575 -1.2159
 5339TIP3   OH215952   3.137   6.446   2.900 -0.7171  0.0992  0.0697
 5339TIP3    H115953   3.220   6.437   2.854 -0.8309 -1.5559  0.1663
 5339TIP3    H215954   3.161   6.455   2.992 -0.7044 -2.5445  0.3516
 5340TIP3   OH215955   3.866   5.715   0.477 -0.2451  0.1615  0.0723
 5340TIP3    H115956   3.842   5.627   0.448 -1.5690  0.8002 -0.8015
 5340TIP3    H215957   3.809   5.732   0.552  0.1213  0.2352  0.3418
 5341TIP3   OH215958   6.219   2.323   6.698  0.1239  0.1169 -0.3404
 5341TIP3    H115959   6.266   2.262   6.755  2.3820  0.7779 -1.4274
 5341TIP3    H215960   6.151   2.361   6.753  0.3677 -1.4672  1.0635
 5342TIP3   OH215961   4.202   0.559   2.029  0.0581 -0.3389 -0.5250
 5342TIP3    H115962   4.130   0.525   1.976  0.4318  0.4313 -1.5662
 5342TIP3    H215963   4.160   0.599   2.105 -0.5543 -0.6374 -0.7055
 5343TIP3   OH215964   3.671   6.675   1.805  0.4149 -0.2916  0.0086
 5343TIP3    H115965   3.673   6.695   1.899 -0.2044 -0.9726  0.1731
 5343TIP3    H215966   3.746   6.617   1.792  1.1463  0.6770 -0.1275
 5344TIP3   OH215967   7.783   0.912   0.075 -0.4075  0.1218  0.0769
 5344TIP3    H115968   7.823   0.988   0.033  1.5728 -0.7014  0.3768
 5344TIP3    H215969   7.771   0.939   0.167 -1.2154  0.6160 -0.1688
 5345TIP3   OH215970   0.327   1.050   2.267  0.1392  0.3616  0.2704
 5345TIP3    H115971   0.257   0.999   2.226 -0.5055  1.0747  0.4803
 5345TIP3    H215972   0.406   1.025   2.219 -0.4385  0.3874 -0.7045
 5346TIP3   OH215973   7.049   0.342   4.146  0.1393  0.2186 -0.1088
 5346TIP3    H115974   7.125   0.396   4.169  0.7626  0.7088 -3.1211
 5346TIP3    H215975   6.995   0.400   4.093 -0.9095 -1.0621 -0.4385
 5347TIP3   OH215976   2.103   6.986   0.715 -0.1906  0.1938  0.4866
 5347TIP3    H115977   2.173   7.014   0.773  1.4457 -1.9782 -0.3970
 5347TIP3    H215978   2.091   7.060   0.655  2.7742 -0.1852 -0.6412
 5348TIP3   OH215979   1.058   6.896   0.742 -0.1736  0.4097  0.3920
 5348TIP3    H115980   1.133   6.841   0.766  0.0465  0.6000  0.1394
 5348TIP3    H215981   1.002   6.894   0.820 -0.8104 -1.2282 -0.0820
 5349TIP3   OH215982   5.294   0.241   1.910 -0.5726 -0.0062 -0.1589
 5349TIP3    H115983   5.271   0.242   2.003  2.2798  1.5025  0.5532
 5349TIP3    H215984   5.229   0.298   1.869 -1.1355  0.2492  1.0561
 5350TIP3   OH215985   5.112   7.488   3.386  0.5447 -0.2239  0.5465
 5350TIP3    H115986   5.059   7.535   3.450 -0.3082 -0.4155 -0.0106
 5350TIP3    H215987   5.158   7.556   3.336  1.5216 -0.0841  1.6081
 5351TIP3   OH215988   2.216   7.576   1.361  0.6055 -0.1291 -0.2367
 5351TIP3    H115989   2.136   7.551   1.315  0.1069  0.1588  0.4666
 5351TIP3    H215990   2.205   7.670   1.378  0.8827 -0.1889  0.2713
 5352TIP3   OH215991   1.270   7.765   0.763 -0.0050 -0.3755  0.5092
 5352TIP3    H115992   1.213   7.748   0.688  1.7244 -1.1831 -0.6555
 5352TIP3    H215993   1.214   7.810   0.826 -1.6456 -0.1999 -1.0333
 5353TIP3   OH215994   6.544   3.904   6.789  0.7991 -0.3960 -0.1795
 5353TIP3    H115995   6.630   3.870   6.767  0.5149 -0.4919 -1.1776
 5353TIP3    H215996   6.487   3.827   6.791  0.9347 -0.4698  1.5312
 5354TIP3   OH215997   5.137   1.897   1.951 -0.4835  0.5941 -0.1724
 5354TIP3    H115998   5.130   1.875   2.044 -1.5724  1.9208  0.0642
 5354TIP3    H215999   5.143   1.812   1.908 -2.4238 -0.1423  0.9261
 5355TIP3   OH216000   6.771   0.200   0.593 -0.5674 -0.1476 -0.0049
 5355TIP3    H116001   6.791   0.231   0.504 -0.7228  1.2443  0.4412
 5355TIP3    H216002   6.685   0.236   0.613 -0.1009  0.3984  1.0936
 5356TIP3   OH216003   5.209   0.138   2.557 -0.1672  0.3505 -0.0707
 5356TIP3    H116004   5.272   0.102   2.494 -1.4137 -0.6883 -0.7433
 5356TIP3    H216005   5.132   0.159   2.504 -0.7727  0.6244  0.9172
 5357TIP3   OH216006   3.632   6.729   0.229 -0.0816 -0.0502 -0.5137
 5357TIP3    H116007   3.704   6.791   0.240  0.5892 -0.8239 -0.4781
 5357TIP3    H216008   3.585   6.761   0.152  1.1290 -0.3137 -1.3883
 5358TIP3   OH216009   7.302   0.919   3.051 -0.4337  0.2840 -0.1198
 5358TIP3    H116010   7.295   0.921   2.955  0.1539 -0.0209 -0.1732
 5358TIP3    H216011   7.327   0.829   3.070 -0.1851  0.4429  0.2972
 5359TIP3   OH216012   3.151   6.145   1.410 -0.1601 -0.3586 -0.2820
 5359TIP3    H116013   3.211   6.215   1.386 -2.3168  1.6336 -0.0677
 5359TIP3    H216014   3.124   6.106   1.326 -1.0389  0.9008 -0.6066
 5360TIP3   OH216015   0.155   2.694   6.655  0.1250 -0.0997  0.0777
 5360TIP3    H116016   0.118   2.609   6.630  0.9477  0.0552 -1.7761
 5360TIP3    H216017   0.222   2.672   6.720 -0.4938 -0.7532  0.5060
 5361TIP3   OH216018   3.607   7.342   3.240 -0.8221  0.2615 -0.4423
 5361TIP3    H116019   3.598   7.260   3.192  1.6945  1.4337 -3.0996
 5361TIP3    H216020   3.679   7.327   3.301  0.2253  0.7416 -1.5463
 5362TIP3   OH216021   4.859   5.784   0.062  1.2275 -0.5568 -0.0102
 5362TIP3    H116022   4.836   5.782   0.155 -0.1206  1.5277 -0.2766
 5362TIP3    H216023   4.938   5.839   0.059  0.2714  0.8219 -0.2801
 5363TIP3   OH216024   2.901   7.788   2.629  0.1437 -0.1817  0.0574
 5363TIP3    H116025   2.992   7.778   2.601  0.1615  1.3419 -0.4525
 5363TIP3    H216026   2.905   7.846   2.705 -0.2472 -1.5564  1.1626
 5364TIP3   OH216027   6.922   0.574   4.000  0.6663 -0.6626  0.4715
 5364TIP3    H116028   6.852   0.565   3.935 -0.3076 -1.8463  1.6545
 5364TIP3    H216029   7.002   0.585   3.948 -0.2350 -0.5663 -0.9093
 5365TIP3   OH216030   2.843   5.447   2.622  0.0169 -0.3086  0.4680
 5365TIP3    H116031   2.849   5.425   2.529 -0.4716  0.6504  0.2084
 5365TIP3    H216032   2.782   5.382   2.657 -1.2348  0.4531 -0.2538
 5366TIP3   OH216033   2.510   7.675   1.299 -0.0280 -0.0557 -0.3699
 5366TIP3    H116034   2.434   7.622   1.322  1.2166 -1.5707  0.3438
 5366TIP3    H216035   2.578   7.647   1.359  0.9069  1.7983 -0.5299
 5367TIP3   OH216036   5.943   2.674   3.038  0.1343  0.7247  0.2366
 5367TIP3    H116037   5.854   2.660   3.071  0.1060  0.0225 -0.1408
 5367TIP3    H216038   5.987   2.720   3.110 -0.4610  0.8791  0.5148
 5368TIP3   OH216039   0.201   0.386   0.636  0.4391 -0.9436  0.1690
 5368TIP3    H116040   0.230   0.370   0.546 -0.4215  0.3316 -0.3671
 5368TIP3    H216041   0.241   0.471   0.659 -0.0065 -0.8739  0.6928
 5369TIP3   OH216042   5.863   7.519   1.740 -0.4980 -0.0683 -0.1278
 5369TIP3    H116043   5.927   7.507   1.670 -0.5133  0.4942 -0.2394
 5369TIP3    H216044   5.849   7.614   1.744 -1.0351 -0.1586  0.1544
 5370TIP3   OH216045   3.453   7.285   2.292 -0.2786 -0.2287  0.3147
 5370TIP3    H116046   3.435   7.275   2.198 -0.0953  0.3490  0.2135
 5370TIP3    H216047   3.455   7.196   2.326 -0.3012 -0.4435 -0.2415
 5371TIP3   OH216048   3.864   6.903   3.868 -0.4181  0.3853  0.0125
 5371TIP3    H116049   3.804   6.966   3.908 -1.3469  0.7942 -1.9702
 5371TIP3    H216050   3.932   6.889   3.934 -1.8938  1.0513  1.7083
 5372TIP3   OH216051   1.711   7.423   1.568  0.3181  0.0942  0.1034
 5372TIP3    H116052   1.715   7.361   1.641 -3.8972 -1.4647 -0.8382
 5372TIP3    H216053   1.669   7.501   1.604  0.8806  0.4393  0.0227
 5373TIP3   OH216054   5.196   0.340   1.561 -0.4864  0.0981  0.3709
 5373TIP3    H116055   5.144   0.295   1.628  0.6349 -2.0797 -0.1817
 5373TIP3    H216056   5.286   0.313   1.579 -0.0777  0.1295 -1.5389
 5374TIP3   OH216057   1.426   7.609   2.366 -0.3767  0.5196  0.3335
 5374TIP3    H116058   1.459   7.598   2.455 -1.9969  0.9806  0.9970
 5374TIP3    H216059   1.483   7.553   2.312  2.1838  2.1091  1.2876
 5375TIP3   OH216060   1.905   7.381   4.271  0.1500 -0.0124  0.4200
 5375TIP3    H116061   1.816   7.371   4.236 -0.9278  2.4981  2.2642
 5375TIP3    H216062   1.962   7.350   4.201 -2.1555 -0.8122 -1.1669
 5376TIP3   OH216063   3.255   6.297   3.931  0.1657  0.5103  0.6560
 5376TIP3    H116064   3.241   6.225   3.992  1.0925  0.9643  1.4167
 5376TIP3    H216065   3.321   6.264   3.870  1.0228  0.9052  1.3523
 5377TIP3   OH216066   3.387   7.695   5.689 -0.5974 -0.5285 -0.2383
 5377TIP3    H116067   3.378   7.789   5.673  1.2991 -0.3383 -0.3790
 5377TIP3    H216068   3.351   7.653   5.611  0.1381  0.1396 -0.9489
 5378TIP3   OH216069   0.912   3.952   6.877 -0.1147 -0.2084  0.5821
 5378TIP3    H116070   0.988   3.913   6.835 -1.4397 -1.6671 -0.5200
 5378TIP3    H216071   0.842   3.946   6.812 -0.9634  1.9586  1.2237
 5379TIP3   OH216072   3.901   6.372   3.182 -0.4251 -0.3304 -0.2561
 5379TIP3    H116073   3.808   6.368   3.160  0.0021  1.2716 -2.5076
 5379TIP3    H216074   3.928   6.460   3.155  1.2377  0.0502  2.4829
 5380TIP3   OH216075   5.336   7.709   2.098 -0.5797 -0.5166 -0.0435
 5380TIP3    H116076   5.382   7.709   2.182 -0.6336 -1.9828 -0.0068
 5380TIP3    H216077   5.246   7.733   2.120  0.0099  1.7644 -0.0381
 5381TIP3   OH216078   5.135   7.368   0.767 -0.1711  0.3423 -0.0669
 5381TIP3    H116079   5.116   7.291   0.821  0.6887  0.3285  0.2185
 5381TIP3    H216080   5.194   7.335   0.699 -1.8837  0.1694 -1.5266
 5382TIP3   OH216081   6.678   1.190   2.386 -0.6028  0.0675  0.4226
 5382TIP3    H116082   6.676   1.102   2.425  1.4867 -1.4038 -2.5719
 5382TIP3    H216083   6.692   1.249   2.460 -0.9457 -2.2394  2.3741
 5383TIP3   OH216084   8.126   0.063   0.746 -0.1952 -0.1657 -0.1887
 5383TIP3    H116085   8.193   0.129   0.732 -1.0158  0.3186 -1.9884
 5383TIP3    H216086   8.150  -0.009   0.688 -1.1949 -0.0106 -0.8058
 5384TIP3   OH216087   2.507   4.753   5.703  0.3506  0.2518  0.0591
 5384TIP3    H116088   2.596   4.743   5.669  0.2165 -1.8142  0.2424
 5384TIP3    H216089   2.518   4.758   5.798  0.2094 -1.0829  0.1557
 5385TIP3   OH216090   4.031   7.561   1.857  0.3318 -0.0319 -0.2428
 5385TIP3    H116091   3.980   7.602   1.927 -0.0832  0.0471 -0.5922
 5385TIP3    H216092   3.965   7.523   1.798  0.7000 -1.1481  0.0421
 5386TIP3   OH216093   2.072   7.984   2.404  0.6262 -0.8281  0.3595
 5386TIP3    H116094   2.081   7.923   2.477 -0.6949 -1.3691  0.0790
 5386TIP3    H216095   1.981   7.977   2.377  1.3784 -1.5117 -2.1056
 5387TIP3   OH216096   5.448   0.047   3.850  0.2090  0.5801 -0.2815
 5387TIP3    H116097   5.372   0.004   3.811  0.7829  0.3935 -1.2317
 5387TIP3    H216098   5.517  -0.020   3.847  0.4486  0.7951  0.4318
 5388TIP3   OH216099   4.002   6.518   3.948  0.4266 -0.4847  0.0507
 5388TIP3    H116100   4.015   6.538   3.856 -2.8172 -0.4726 -0.4452
 5388TIP3    H216101   4.059   6.579   3.995  0.7690  0.6945 -1.8868
 5389TIP3   OH216102   5.268   5.585   0.316 -0.2345 -0.1034  0.4373
 5389TIP3    H116103   5.203   5.640   0.359 -0.1849 -1.1143  1.8278
 5389TIP3    H216104   5.261   5.500   0.360 -0.0249 -1.1057 -1.3920
 5390TIP3   OH216105   5.011   6.004   0.989  1.0448 -0.2765  0.0249
 5390TIP3    H116106   4.943   6.056   0.944  1.2959 -0.0102 -0.0479
 5390TIP3    H216107   4.985   5.913   0.973  1.1075 -0.1850 -0.6295
 5391TIP3   OH216108   3.127   6.179   3.090 -0.3320  0.3262 -0.2931
 5391TIP3    H116109   3.153   6.267   3.119  0.1966 -0.1595  0.7093
 5391TIP3    H216110   3.124   6.127   3.170  0.1937 -0.7867 -0.9910
 5392TIP3   OH216111   4.937   7.226   1.441  0.1257 -0.4511 -0.3216
 5392TIP3    H116112   4.990   7.206   1.363 -2.2120 -1.5101 -1.6769
 5392TIP3    H216113   4.957   7.318   1.460  2.8895 -0.9818 -0.4207
 5393TIP3   OH216114   4.356   0.634   3.461 -0.7977  0.0594 -0.0153
 5393TIP3    H116115   4.405   0.712   3.437 -0.2403 -0.7821 -1.6788
 5393TIP3    H216116   4.264   0.662   3.464 -0.4652  1.0969  0.8654
 5394TIP3   OH216117   5.434   6.935   2.485  0.4292 -0.0737 -0.1035
 5394TIP3    H116118   5.479   7.019   2.483 -0.5898  0.4771 -0.7460
 5394TIP3    H216119   5.479   6.882   2.419  2.0457 -0.5662  1.3644
 5395TIP3   OH216120   3.995   6.376   0.598 -0.7553 -0.3650 -0.0208
 5395TIP3    H116121   3.988   6.417   0.684 -0.1035 -0.2706 -0.0096
 5395TIP3    H216122   3.908   6.340   0.581 -1.0319  0.0841  0.4427
 5396TIP3   OH216123   2.898   6.361   3.040 -0.5505 -0.0528 -0.1069
 5396TIP3    H116124   2.937   6.273   3.034 -1.4900 -0.3984 -1.1786
 5396TIP3    H216125   2.947   6.414   2.978 -0.5529 -0.0292 -0.0890
 5397TIP3   OH216126   5.474   1.643   3.234  0.0699 -0.7131  0.5759
 5397TIP3    H116127   5.542   1.704   3.261 -1.3105  1.0891  0.0683
 5397TIP3    H216128   5.483   1.638   3.138 -1.1005  0.2686  0.4062
 5398TIP3   OH216129   4.190   6.181   0.616  0.0717 -0.4982 -0.3053
 5398TIP3    H116130   4.191   6.204   0.523 -0.3175  0.8900  0.0330
 5398TIP3    H216131   4.120   6.234   0.654  0.6481 -0.5872  0.9122
 5399TIP3   OH216132   4.280   4.956   0.804 -0.0813  0.4584  0.0175
 5399TIP3    H116133   4.242   4.907   0.730 -0.4251  0.5975  0.1003
 5399TIP3    H216134   4.214   5.021   0.825 -0.9803 -1.0274  1.9132
 5400TIP3   OH216135   1.680   6.717   3.233 -0.4978  0.1209  0.2388
 5400TIP3    H116136   1.616   6.700   3.303 -0.5294 -0.4810  0.0638
 5400TIP3    H216137   1.629   6.758   3.164 -0.3849  1.1206  0.7378
 5401TIP3   OH216138   2.943   6.387   1.331  0.6905 -0.3351 -0.1183
 5401TIP3    H116139   2.904   6.302   1.350  0.3731  0.2128  1.7318
 5401TIP3    H216140   2.947   6.431   1.415  1.5971  1.1818 -0.9370
 5402TIP3   OH216141   8.061   1.588   6.898 -0.3557  0.3111 -0.0134
 5402TIP3    H116142   7.999   1.652   6.933  0.1703  0.8489 -0.0634
 5402TIP3    H216143   8.137   1.594   6.956  0.1629  0.5727 -0.7142
 5403TIP3   OH216144   5.497   0.325   0.527 -0.6087 -0.4902 -0.3004
 5403TIP3    H116145   5.527   0.282   0.607 -1.2383 -0.4729 -0.0537
 5403TIP3    H216146   5.404   0.340   0.541 -0.3651  1.1009 -0.3192
 5404TIP3   OH216147   2.530   7.024   2.050 -0.1025  0.5680 -0.9997
 5404TIP3    H116148   2.535   7.119   2.034 -3.7085  0.6630 -1.9854
 5404TIP3    H216149   2.561   7.013   2.140 -1.7852  2.9740 -0.0755
 5405TIP3   OH216150   3.273   7.645   3.663 -0.0518 -0.5449 -0.0497
 5405TIP3    H116151   3.290   7.704   3.737 -3.2141 -0.3107  0.5336
 5405TIP3    H216152   3.257   7.703   3.589 -0.5978 -0.7034 -0.0591
 5406TIP3   OH216153   5.573   4.292   0.277  0.4882  0.4590 -0.6199
 5406TIP3    H116154   5.499   4.285   0.338  1.6969 -1.5080  0.7035
 5406TIP3    H216155   5.641   4.236   0.316  1.9622  0.6481 -2.8316
 5407TIP3   OH216156   3.040   6.247   0.803 -0.1310  0.2209  0.6390
 5407TIP3    H116157   2.951   6.235   0.771  0.1539  0.3230 -0.1934
 5407TIP3    H216158   3.035   6.225   0.896 -0.9253 -0.2399  0.4908
 5408TIP3   OH216159   7.959   2.866   6.810 -0.0025 -0.2736  0.7319
 5408TIP3    H116160   7.921   2.951   6.831 -2.1736 -0.8926 -0.5183
 5408TIP3    H216161   8.039   2.886   6.762 -1.1990  1.0930 -0.7526
 5409TIP3   OH216162   7.246   0.562   1.597 -0.0953  0.2672  0.3117
 5409TIP3    H116163   7.302   0.540   1.523  2.1553  1.9863  1.4514
 5409TIP3    H216164   7.182   0.624   1.561 -0.1410 -0.2874 -0.5823
 5410TIP3   OH216165   1.967   1.335   4.974  0.0990  0.3330 -0.0009
 5410TIP3    H116166   1.889   1.300   5.016  0.9229  0.4159  1.6855
 5410TIP3    H216167   1.936   1.412   4.926 -0.8410  0.4162  0.7243
 5411TIP3   OH216168   5.551   0.467   2.463  0.0521 -0.5946  0.6096
 5411TIP3    H116169   5.573   0.398   2.526 -1.2983 -0.4664  1.2382
 5411TIP3    H216170   5.491   0.424   2.401 -0.3233 -0.1491  0.6612
 5412TIP3   OH216171   0.383   3.121   6.102  0.4544 -0.0471  0.4746
 5412TIP3    H116172   0.420   3.099   6.187  1.7041 -1.3212 -0.3822
 5412TIP3    H216173   0.436   3.194   6.070  0.1159  0.2937  0.6770
 5413TIP3   OH216174   2.650   5.123   2.075 -0.2834 -0.0231 -0.1936
 5413TIP3    H116175   2.595   5.093   2.003  1.7306 -1.6037 -1.1433
 5413TIP3    H216176   2.624   5.213   2.089 -2.1601 -0.3277 -1.5202
 5414TIP3   OH216177   3.119   7.779   2.206 -0.3023  0.2368 -0.7714
 5414TIP3    H116178   3.090   7.828   2.129  1.0966 -0.0194 -1.4782
 5414TIP3    H216179   3.212   7.801   2.214 -0.8844  1.9422  2.1084
 5415TIP3   OH216180   2.498   6.943   3.357  0.1904  0.2704  0.0784
 5415TIP3    H116181   2.546   6.981   3.430  0.0738  1.3471 -0.3995
 5415TIP3    H216182   2.414   6.917   3.396  0.6630 -0.4702  0.6326
 5416TIP3   OH216183   7.125   0.047   1.912  0.3350  0.5037  0.0254
 5416TIP3    H116184   7.124   0.132   1.956 -2.0993  0.6035 -0.1570
 5416TIP3    H216185   7.195   0.054   1.848  0.5587  2.1600  0.4367
 5417TIP3   OH216186   7.012   7.240   1.237  0.7782  0.0973  0.1384
 5417TIP3    H116187   6.954   7.269   1.307  1.2601  0.2419  0.4826
 5417TIP3    H216188   6.957   7.237   1.159  0.8872  2.6610 -0.0569
 5418TIP3   OH216189   3.963   6.940   2.596  0.1202  0.6064  0.1069
 5418TIP3    H116190   4.016   6.999   2.543  2.5381 -2.0032 -0.5166
 5418TIP3    H216191   3.990   6.957   2.686  2.0271 -0.6208 -0.1973
 5419TIP3   OH216192   4.638   6.378   1.034 -0.2983 -0.9640  0.0496
 5419TIP3    H116193   4.715   6.395   1.089  0.1583 -0.9953 -0.5716
 5419TIP3    H216194   4.564   6.383   1.094  0.0534  0.6674  0.3611
 5420TIP3   OH216195   0.155   0.676   1.835 -0.1944 -0.3899 -0.4311
 5420TIP3    H116196   0.168   0.622   1.757 -0.6712 -0.1515 -0.6805
 5420TIP3    H216197   0.240   0.678   1.877 -0.2269 -1.5663 -0.2733
 5421TIP3   OH216198   7.175   1.246   1.292 -0.2466 -0.1253 -0.0190
 5421TIP3    H116199   7.260   1.221   1.256 -0.5197 -0.7534 -0.2333
 5421TIP3    H216200   7.112   1.192   1.245 -0.7023 -0.1910  0.6538
 5422TIP3   OH216201   6.736   0.811   2.138  0.0040 -0.0132 -0.3229
 5422TIP3    H116202   6.789   0.806   2.218  0.1746  0.1379 -0.4254
 5422TIP3    H216203   6.719   0.720   2.115  1.9995 -0.1158 -1.4772
 5423TIP3   OH216204   4.556   6.722   2.480 -0.7521  0.9882  0.4720
 5423TIP3    H116205   4.539   6.631   2.454  1.2084  0.0981  2.0660
 5423TIP3    H216206   4.639   6.744   2.437 -0.5784  1.5753  1.1002
 5424TIP3   OH216207   7.424   6.507   1.890  0.1665 -0.6131  0.0330
 5424TIP3    H116208   7.439   6.597   1.860  2.8803 -1.0644 -0.1134
 5424TIP3    H216209   7.331   6.504   1.913  0.1657  2.3872  0.5625
 5425TIP3   OH216210   4.561   6.707   0.482  0.3783  0.3520 -0.2108
 5425TIP3    H116211   4.556   6.659   0.565 -0.7178 -3.0506 -2.1524
 5425TIP3    H216212   4.511   6.788   0.498 -1.3237 -1.0725  1.9186
 5426TIP3   OH216213   5.426   5.013   1.847 -0.4846 -0.2523  0.2789
 5426TIP3    H116214   5.457   5.020   1.938 -2.3628 -0.5741  0.9541
 5426TIP3    H216215   5.344   5.062   1.846 -0.3815 -0.1019 -1.3065
 5427TIP3   OH216216   8.256   1.222   2.374 -0.6065  0.5933 -0.1676
 5427TIP3    H116217   8.188   1.250   2.435 -0.9367 -1.6349  0.5063
 5427TIP3    H216218   8.279   1.302   2.327 -0.1942  2.4034  2.9889
 5428TIP3   OH216219   4.737   6.138   0.888 -0.1877 -0.4210  0.3803
 5428TIP3    H116220   4.717   6.230   0.870  1.9245  0.1495  0.7817
 5428TIP3    H216221   4.655   6.092   0.871 -0.2726  1.0101 -3.5862
 5429TIP3   OH216222   5.587   7.502   1.939 -0.3823 -0.6314  0.3831
 5429TIP3    H116223   5.560   7.591   1.963  0.1475 -0.0348 -1.1417
 5429TIP3    H216224   5.508   7.449   1.951 -1.2309  0.3978 -0.4707
 5430TIP3   OH216225   4.754   6.657   1.514  0.5754  0.2646 -0.1649
 5430TIP3    H116226   4.814   6.698   1.577  1.6161  0.0854 -1.0344
 5430TIP3    H216227   4.752   6.717   1.440  1.3394 -0.7569 -1.0286
 5431TIP3   OH216228   5.628   0.913   2.499 -0.7641 -0.3344  0.3526
 5431TIP3    H116229   5.560   0.861   2.542 -0.9538  1.0382  1.7633
 5431TIP3    H216230   5.689   0.936   2.570  1.1359 -1.4739 -0.8677
 5432TIP3   OH216231   5.493   7.923   1.425  0.0631 -0.5418 -0.0558
 5432TIP3    H116232   5.416   7.968   1.389  0.4898  1.2412  1.1684
 5432TIP3    H216233   5.456   7.847   1.472 -0.6821 -1.3823 -1.9523
 5433TIP3   OH216234  -0.004   0.978   1.134 -0.2190 -0.3778 -0.3838
 5433TIP3    H116235   0.012   0.952   1.225  0.2037  0.4369 -0.2168
 5433TIP3    H216236   0.062   0.930   1.083 -0.3159 -0.6682 -0.2311
 5434TIP3   OH216237   4.197   6.903   1.741  0.4150 -0.3189  0.5236
 5434TIP3    H116238   4.183   6.965   1.670  0.9558 -1.9728 -1.0691
 5434TIP3    H216239   4.227   6.957   1.814 -0.5516  1.4603 -0.3535
 5435TIP3   OH216240   4.740   5.600   1.530 -0.7075  0.3234  0.7837
 5435TIP3    H116241   4.795   5.676   1.507 -1.5015  0.7526  0.2885
 5435TIP3    H216242   4.723   5.557   1.446 -2.3539  1.0312  0.7352
 5436TIP3   OH216243   2.700   5.612   3.300  0.0048 -0.7389  0.1716
 5436TIP3    H116244   2.706   5.692   3.352  1.0454 -1.9810  2.0363
 5436TIP3    H216245   2.670   5.641   3.214 -0.6522  1.5127  1.1241
 5437TIP3   OH216246   6.822   0.090   1.424  0.1858  0.0733 -0.7095
 5437TIP3    H116247   6.853   0.167   1.472  0.1721  0.9591 -2.0942
 5437TIP3    H216248   6.860   0.099   1.337  0.7047 -1.8247 -0.7178
 5438TIP3   OH216249   4.940   5.269   0.980 -0.0457  0.0296  0.3524
 5438TIP3    H116250   4.974   5.305   1.062  2.2499 -1.9821  0.3522
 5438TIP3    H216251   4.914   5.180   1.002 -2.8783  0.6386 -0.3112
 5439TIP3   OH216252   8.017   0.945   1.608 -0.6031 -0.7460 -0.3200
 5439TIP3    H116253   7.939   0.931   1.555 -1.9465  1.3488  1.0351
 5439TIP3    H216254   8.090   0.928   1.548 -2.0667 -1.8983 -1.8290
 5440TIP3   OH216255   2.582   5.208   6.901 -0.1950 -0.0796 -0.2503
 5440TIP3    H116256   2.633   5.146   6.848 -1.2744 -0.3066 -1.0272
 5440TIP3    H216257   2.620   5.293   6.880  1.4733 -0.4822  1.0183
 5441TIP3   OH216258   1.738   4.756   5.719 -0.5263 -0.2757  0.4340
 5441TIP3    H116259   1.790   4.676   5.720  0.5688  0.4338  2.0690
 5441TIP3    H216260   1.764   4.803   5.798 -1.7642  1.3105 -0.0657
 5442TIP3   OH216261   7.268   0.635   0.600  0.6871  0.0135 -0.4119
 5442TIP3    H116262   7.182   0.669   0.623  0.1263 -2.3110  1.1613
 5442TIP3    H216263   7.329   0.695   0.642 -0.1802  1.2418 -0.8861
 5443TIP3   OH216264   5.851   6.349   0.991  0.6665  0.3426 -0.3544
 5443TIP3    H116265   5.926   6.308   1.032  0.3797 -0.0974 -0.2720
 5443TIP3    H216266   5.811   6.402   1.060  1.2280  1.0326 -0.5492
 5444TIP3   OH216267   0.579   2.469   2.012 -0.0667  0.5969  0.2348
 5444TIP3    H116268   0.493   2.430   2.031  0.2765 -0.3396 -0.0831
 5444TIP3    H216269   0.589   2.458   1.917  1.5695 -1.7650  0.6279
 5445TIP3   OH216270   4.867   6.185   2.238 -0.3487 -0.8172  0.1023
 5445TIP3    H116271   4.892   6.230   2.318 -0.7314 -2.3912  1.1096
 5445TIP3    H216272   4.946   6.186   2.184  0.4999 -1.5496  1.3245
 5446TIP3   OH216273   0.373   1.109   3.149 -0.2509  0.2164  0.0976
 5446TIP3    H116274   0.404   1.038   3.093 -2.1047 -1.4424  1.1227
 5446TIP3    H216275   0.453   1.151   3.180  0.8472 -0.7368 -1.3667
 5447TIP3   OH216276   2.586   6.630   2.221  0.4360 -0.4457 -0.0169
 5447TIP3    H116277   2.542   6.712   2.240  0.8393 -0.2677  0.1672
 5447TIP3    H216278   2.631   6.607   2.303  2.9326  0.7948 -0.9905
 5448TIP3   OH216279   3.876   7.294   1.464 -0.3032 -0.1104  0.3058
 5448TIP3    H116280   3.811   7.224   1.474 -1.8046  1.5127  2.4010
 5448TIP3    H216281   3.888   7.303   1.370 -0.5493 -2.7606 -0.0042
 5449TIP3   OH216282   8.439   1.201   0.970 -0.3926 -0.2588 -0.4028
 5449TIP3    H116283   8.405   1.113   0.955 -2.5586  0.4236  0.3218
 5449TIP3    H216284   8.426   1.217   1.063  0.8610  0.4890 -0.3331
 5450TIP3   OH216285   3.392   6.129   0.861 -0.0048  0.0930 -0.4857
 5450TIP3    H116286   3.465   6.114   0.802  2.4720  1.7094  2.0202
 5450TIP3    H216287   3.378   6.224   0.859 -0.4038  0.0824  0.9097
 5451TIP3   OH216288   4.362   7.542   2.365  0.2405  0.0422 -0.6203
 5451TIP3    H116289   4.413   7.578   2.437  0.0937 -1.2173  0.1304
 5451TIP3    H216290   4.408   7.462   2.340 -1.4258 -1.2204  0.1967
 5452TIP3   OH216291   2.018   0.071   3.199 -0.0631 -0.0197 -0.1115
 5452TIP3    H116292   2.112   0.056   3.210  0.3884  2.0088 -0.9222
 5452TIP3    H216293   2.012   0.160   3.164 -2.2103 -0.6954 -1.5579
 5453TIP3   OH216294   1.335   0.158   3.087 -0.3533 -0.1573  0.0345
 5453TIP3    H116295   1.405   0.137   3.026  0.3218  0.3246  0.6362
 5453TIP3    H216296   1.341   0.090   3.155 -0.3921 -0.0465  0.1489
 5454TIP3   OH216297   2.723   5.846   3.488  0.5188  0.0166  0.4893
 5454TIP3    H116298   2.632   5.824   3.506  0.4915  0.3588  0.7796
 5454TIP3    H216299   2.734   5.934   3.525  1.2173 -0.3857  1.2320
 5455TIP3   OH216300   6.619   7.407   2.633 -0.1078 -0.2938 -0.6367
 5455TIP3    H116301   6.538   7.373   2.595  0.3019 -1.2084 -0.6939
 5455TIP3    H216302   6.688   7.376   2.574  0.3488 -0.0901 -0.2124
 5456TIP3   OH216303   3.179   6.704   0.666  0.2114  0.2517  0.1859
 5456TIP3    H116304   3.271   6.729   0.673  0.6445 -1.5637  1.4261
 5456TIP3    H216305   3.181   6.616   0.630 -0.9752 -0.2288  1.2369
 5457TIP3   OH216306   2.582   7.941   1.264  0.1052 -0.6582  0.3542
 5457TIP3    H116307   2.557   7.848   1.268 -0.9619 -0.4126 -0.4129
 5457TIP3    H216308   2.558   7.976   1.349  0.7646 -1.1452  0.7480
 5458TIP3   OH216309   5.684   5.330   1.866 -0.0051  0.1010 -0.3373
 5458TIP3    H116310   5.759   5.271   1.865 -0.0543 -0.0060  0.9124
 5458TIP3    H216311   5.647   5.324   1.778 -0.1601 -1.9252 -0.1592
 5459TIP3   OH216312   6.548   0.515   1.540  0.2651  0.3583 -0.2079
 5459TIP3    H116313   6.633   0.551   1.566  0.0750  1.4122 -0.9757
 5459TIP3    H216314   6.488   0.541   1.610  1.1157 -2.9522  1.8611
 5460TIP3   OH216315   2.772   0.952   6.476 -0.7611 -0.1304  0.1269
 5460TIP3    H116316   2.793   0.859   6.490 -0.2917  0.0469  0.6375
 5460TIP3    H216317   2.677   0.957   6.487 -0.6881 -0.4124  0.9206
 5461TIP3   OH216318   1.267   0.382   2.690 -0.3257 -0.3865 -0.3905
 5461TIP3    H116319   1.291   0.411   2.778 -0.7123 -0.3397 -0.3013
 5461TIP3    H216320   1.239   0.292   2.701 -0.4470 -0.3571 -0.4516
 5462TIP3   OH216321   5.314   7.535   1.333  0.0479 -0.1808 -0.4583
 5462TIP3    H116322   5.290   7.583   1.412  0.9211 -1.3397  0.5397
 5462TIP3    H216323   5.410   7.530   1.336 -0.0265 -2.1075 -0.4303
 5463TIP3   OH216324   7.289   1.081   2.224 -0.3486  0.0492  0.0715
 5463TIP3    H116325   7.344   1.159   2.230 -0.8769  0.4383 -0.0551
 5463TIP3    H216326   7.334   1.023   2.163 -0.5789  0.7759 -0.7891
 5464TIP3   OH216327   7.464   5.453   1.380 -0.0304  0.0310 -0.0752
 5464TIP3    H116328   7.526   5.498   1.323  1.3751  0.5639  1.8195
 5464TIP3    H216329   7.507   5.371   1.402  0.2832  0.6867  1.7712
 5465TIP3   OH216330   3.061   7.269   2.370 -0.2783  0.2299 -0.1697
 5465TIP3    H116331   3.100   7.190   2.334  0.7979  0.9573 -0.6329
 5465TIP3    H216332   3.096   7.340   2.315  0.8458  1.2956  1.8586
 5466TIP3   OH216333   4.808   7.686   1.738  0.0097  0.2776 -0.2064
 5466TIP3    H116334   4.757   7.651   1.666 -0.4114 -0.5957  0.5152
 5466TIP3    H216335   4.794   7.625   1.810 -0.6226  1.8202  1.0199
 5467TIP3   OH216336   2.690   6.423  -0.031  0.3084 -0.2175  0.2274
 5467TIP3    H116337   2.747   6.427   0.045  1.2556 -0.9562 -0.4306
 5467TIP3    H216338   2.602   6.419   0.004  0.7999 -1.8421  1.3053
 5468TIP3   OH216339   1.608   0.632   6.494 -0.0477  0.3918 -0.0510
 5468TIP3    H116340   1.641   0.713   6.533 -1.5765  0.4735  1.1043
 5468TIP3    H216341   1.520   0.654   6.465 -0.1661 -0.6397 -0.4894
 5469TIP3   OH216342   3.193   6.168   0.560  0.0411 -0.9269  0.2243
 5469TIP3    H116343   3.153   6.176   0.646 -0.2503  0.0769 -0.0034
 5469TIP3    H216344   3.172   6.079   0.532  0.5388 -1.4206  1.3893
 5470TIP3   OH216345   3.565   5.562   1.299  0.2383  0.3102 -0.1552
 5470TIP3    H116346   3.637   5.601   1.249  0.0439  0.8608 -0.0185
 5470TIP3    H216347   3.497   5.629   1.298 -0.4094 -0.3515 -0.5818
 5471TIP3   OH216348   5.434   6.698   2.685  0.1377 -0.1310 -0.2885
 5471TIP3    H116349   5.422   6.764   2.617  0.6532  1.2123  0.9080
 5471TIP3    H216350   5.382   6.729   2.758 -0.0525 -1.3463  0.1015
 5472TIP3   OH216351   4.878   7.539   2.304 -0.4556  0.6644 -0.0939
 5472TIP3    H116352   4.884   7.554   2.399  0.0945  1.8275 -0.3010
 5472TIP3    H216353   4.937   7.605   2.266  0.0463 -0.3944 -1.1931
 5473TIP3   OH216354   4.167   7.654   2.234 -0.5497  0.0656 -0.6983
 5473TIP3    H116355   4.209   7.637   2.150 -0.6024  0.4997 -0.8102
 5473TIP3    H216356   4.230   7.622   2.299  0.0507  0.8976 -0.8598
 5474TIP3   OH216357   3.447   7.272   0.139  0.3754 -0.2146  0.2755
 5474TIP3    H116358   3.473   7.341   0.078 -1.0751  1.5091  1.5164
 5474TIP3    H216359   3.529   7.241   0.177  1.0016  1.5400  0.4127
 5475TIP3   OH216360   5.797   5.979   1.020  0.2377  0.4437  0.4591
 5475TIP3    H116361   5.740   5.941   1.087 -0.6588 -0.4792 -0.8260
 5475TIP3    H216362   5.737   6.014   0.954  1.1330  0.9190 -0.1124
 5476TIP3   OH216363   2.898   6.369   0.170 -0.1641  0.6006 -0.3075
 5476TIP3    H116364   2.982   6.354   0.128  0.0035  0.1260  0.1947
 5476TIP3    H216365   2.879   6.288   0.217 -0.8072  0.7761 -0.2541
 5477TIP3   OH216366   4.465   6.455   0.676 -0.0119  0.3128 -0.5761
 5477TIP3    H116367   4.549   6.478   0.715  0.0389  0.2191 -0.6287
 5477TIP3    H216368   4.488   6.397   0.604 -0.2291 -1.2800  0.5941
 5478TIP3   OH216369   6.104   7.594   0.079  0.2774 -0.1806 -0.9981
 5478TIP3    H116370   6.105   7.562   0.169 -0.0614 -0.6017 -1.1449
 5478TIP3    H216371   6.189   7.568   0.043 -0.5443 -2.1103 -1.5421
 5479TIP3   OH216372   6.021   6.740   2.617  0.2125  0.3279  0.0984
 5479TIP3    H116373   5.986   6.806   2.675  0.8481  1.1273 -0.4129
 5479TIP3    H216374   6.098   6.781   2.577  0.9721 -0.9252  0.2302
 5480TIP3   OH216375   7.001   2.000   3.553 -0.1379 -0.4397  0.3638
 5480TIP3    H116376   6.954   1.984   3.635 -1.8802 -0.6132 -0.6386
 5480TIP3    H216377   6.986   1.921   3.501 -0.8274  0.5173 -0.9314
 5481TIP3   OH216378   8.094   0.785   2.677 -0.1488  0.0719 -0.1395
 5481TIP3    H116379   8.139   0.849   2.623  0.4457 -1.1141 -1.0710
 5481TIP3    H216380   8.014   0.765   2.629  0.0375 -0.4499 -0.2433
 5482TIP3   OH216381   3.625   6.645   1.039 -0.0035  0.0194  0.0163
 5482TIP3    H116382   3.607   6.597   1.120 -1.1579  0.0404 -0.2239
 5482TIP3    H216383   3.599   6.586   0.969 -0.4471  0.5877 -0.3024
 5483TIP3   OH216384   1.225   0.888   2.188  0.3403 -0.1219  0.1562
 5483TIP3    H116385   1.254   0.843   2.267  0.2379  2.3810  1.6499
 5483TIP3    H216386   1.306   0.922   2.149  0.0810  1.3547  0.8908
 5484TIP3   OH216387   0.888   2.235   5.422  0.1869  0.1246 -0.3020
 5484TIP3    H116388   0.875   2.197   5.510  0.9748  1.0257  0.2019
 5484TIP3    H216389   0.810   2.206   5.373 -0.2062 -0.4811  0.6508
 5485TIP3   OH216390   3.622   7.772   0.658  0.0360  0.3357  0.0324
 5485TIP3    H116391   3.661   7.761   0.571 -2.3938  1.9943 -1.3313
 5485TIP3    H216392   3.625   7.867   0.674  0.5130  0.0481  1.8018
 5486TIP3   OH216393   0.743   2.161   1.421  0.2179  0.0226  0.2148
 5486TIP3    H116394   0.819   2.121   1.379  0.2206 -1.2238  1.4017
 5486TIP3    H216395   0.675   2.094   1.415 -0.0759  0.2213  1.3069
 5487TIP3   OH216396   7.027   0.219   3.468 -0.4173 -0.7815  0.0679
 5487TIP3    H116397   7.023   0.178   3.381 -0.0928 -2.7540  0.9479
 5487TIP3    H216398   6.942   0.262   3.478 -0.6165 -0.8837 -1.0588
 5488TIP3   OH216399   4.302   7.702   1.121 -0.5250  0.3815  0.1125
 5488TIP3    H116400   4.207   7.711   1.128 -0.4012  0.2276  2.2712
 5488TIP3    H216401   4.322   7.621   1.168  0.5581 -0.3104 -1.4834
 5489TIP3   OH216402   6.961   1.630   0.754 -0.1844  0.2092  0.0601
 5489TIP3    H116403   6.942   1.656   0.664  0.4272  3.2303  0.7636
 5489TIP3    H216404   7.056   1.621   0.758  0.0486  2.7147  1.0320
 5490TIP3   OH216405   6.431   7.318   3.649 -0.1183  0.5981 -0.3050
 5490TIP3    H116406   6.413   7.326   3.742  0.0003 -1.8922 -0.0440
 5490TIP3    H216407   6.358   7.363   3.606 -0.7968  0.7141  0.9523
 5491TIP3   OH216408   1.713   2.790   6.512  0.2632  0.1568  0.7432
 5491TIP3    H116409   1.801   2.751   6.508 -0.1837 -0.8164  0.3187
 5491TIP3    H216410   1.653   2.716   6.502 -0.5888  1.0131 -0.6450
 5492TIP3   OH216411   4.671   4.400   0.975 -0.1739 -0.0130 -0.0052
 5492TIP3    H116412   4.664   4.305   0.962 -0.2738 -0.1544  1.0447
 5492TIP3    H216413   4.600   4.421   1.035 -0.2088  0.7435 -0.3142
 5493TIP3   OH216414   3.205   6.995   0.447  0.4378 -0.3850 -0.1616
 5493TIP3    H116415   3.163   6.919   0.409  0.9986  0.0329 -1.6404
 5493TIP3    H216416   3.298   6.981   0.432  0.6275  0.0351  0.5975
 5494TIP3   OH216417   6.426   6.344   0.619 -0.2107  0.7772  0.1646
 5494TIP3    H116418   6.388   6.370   0.535 -0.7292 -1.0971 -0.1893
 5494TIP3    H216419   6.381   6.263   0.642  0.9091  0.5432  1.5883
 5495TIP3   OH216420   2.408   3.103   6.368 -0.4383  0.1601 -0.6480
 5495TIP3    H116421   2.410   3.196   6.344 -0.6788 -0.0718 -1.5924
 5495TIP3    H216422   2.369   3.059   6.292 -1.8799 -0.5179  0.4551
 5496TIP3   OH216423   3.583   6.441   2.580  0.8606 -0.4064  0.3154
 5496TIP3    H116424   3.503   6.435   2.528  1.0345 -0.5897  0.0707
 5496TIP3    H216425   3.555   6.415   2.668  1.0759 -2.4915 -0.2112
 5497TIP3   OH216426   5.435   6.343   1.186 -0.2659  0.0762 -0.4855
 5497TIP3    H116427   5.470   6.423   1.225  1.7017 -0.9611 -0.0595
 5497TIP3    H216428   5.394   6.296   1.258  0.7311 -0.4367 -0.2481
 5498TIP3   OH216429   4.618   7.887   1.791  0.5579 -0.1442  0.1780
 5498TIP3    H116430   4.577   7.868   1.876 -0.6053 -2.7103 -0.8856
 5498TIP3    H216431   4.704   7.846   1.798  1.5933  2.1284  1.1168
 5499TIP3   OH216432   6.835   0.399   0.387  0.2433  0.4792  0.0789
 5499TIP3    H116433   6.920   0.386   0.429  0.2970  0.8445  0.0873
 5499TIP3    H216434   6.854   0.394   0.293  0.5837  2.3231  0.0295
 5500TIP3   OH216435   0.962   1.604   5.188  0.2135  0.1166 -0.3303
 5500TIP3    H116436   0.993   1.518   5.218  1.4225  0.9675  0.9360
 5500TIP3    H216437   0.997   1.613   5.099 -0.9655 -1.2129 -0.9484
 5501TIP3   OH216438   7.374   0.418   2.974 -0.4545  0.0840 -0.2023
 5501TIP3    H116439   7.374   0.441   2.881 -1.2317 -0.7731 -0.4232
 5501TIP3    H216440   7.427   0.338   2.979  1.7539  1.5321  0.4736
 5502TIP3   OH216441   7.510   1.586   2.934 -0.3869  0.1732 -0.4636
 5502TIP3    H116442   7.553   1.660   2.976 -0.2052  0.8934 -1.8990
 5502TIP3    H216443   7.560   1.571   2.854 -0.4987 -1.4208 -0.2566
 5503TIP3   OH216444   8.505   0.077   1.292  0.5858  0.1516 -0.1238
 5503TIP3    H116445   8.464   0.117   1.215 -0.5646  0.6169  0.7282
 5503TIP3    H216446   8.438   0.020   1.328  0.0387  2.2229  2.2738
 5504TIP3   OH216447   5.834   0.254   4.055  0.0126 -0.0439 -0.0715
 5504TIP3    H116448   5.776   0.249   3.978 -0.0848 -0.3375  0.0215
 5504TIP3    H216449   5.780   0.292   4.124  0.5298  1.6264 -0.5594
 5505TIP3   OH216450   0.378   0.382   3.371  0.8716 -0.1357 -0.0762
 5505TIP3    H116451   0.329   0.302   3.391  2.9622 -0.9366  2.0491
 5505TIP3    H216452   0.313   0.452   3.378 -0.5578 -1.4401 -0.0259
 5506TIP3   OH216453   3.441   7.969   2.615  0.2481  0.7538  0.1104
 5506TIP3    H116454   3.375   7.986   2.682 -2.1382  0.7749 -2.2057
 5506TIP3    H216455   3.497   8.047   2.617 -1.7614  2.2324 -0.1877
 5507TIP3   OH216456   5.220   6.554   1.690  0.1185 -0.4511  0.2926
 5507TIP3    H116457   5.231   6.464   1.660  0.7057 -0.7056  1.2446
 5507TIP3    H216458   5.267   6.607   1.625  0.8755 -0.9464  0.4281
 5508TIP3   OH216459   0.328   1.257   1.814  0.3228 -0.1938  0.0739
 5508TIP3    H116460   0.311   1.167   1.845 -0.3547 -0.0229  0.2240
 5508TIP3    H216461   0.245   1.284   1.774 -0.2489  1.2020  2.1276
 5509TIP3   OH216462   5.728   0.863   0.603 -0.0351 -0.2577  0.4006
 5509TIP3    H116463   5.800   0.803   0.586  1.4724  1.7897 -0.7706
 5509TIP3    H216464   5.704   0.897   0.517 -1.4506  0.1815  0.9406
 5510TIP3   OH216465   6.940   6.483   1.711 -0.2092  0.0431  0.2030
 5510TIP3    H116466   6.996   6.455   1.638 -0.3182  0.3935 -0.0135
 5510TIP3    H216467   6.874   6.539   1.670 -1.7354 -1.7206  0.1826
 5511TIP3   OH216468   0.312   0.210   2.288 -0.3634  0.1251  0.3479
 5511TIP3    H116469   0.342   0.204   2.378 -0.9383  1.2752  0.6191
 5511TIP3    H216470   0.278   0.299   2.279 -0.6878 -0.1071 -0.8842
 5512TIP3   OH216471   4.324   6.109   1.751 -0.0501  0.4850 -0.1578
 5512TIP3    H116472   4.372   6.097   1.669  0.6102 -0.2081  0.3347
 5512TIP3    H216473   4.241   6.148   1.723  0.2451  0.4367 -1.1414
 5513TIP3   OH216474   3.395   5.106   2.234 -0.1611  0.0150 -0.4270
 5513TIP3    H116475   3.426   5.016   2.221 -1.1439 -0.2809 -0.7811
 5513TIP3    H216476   3.302   5.097   2.255  0.0639  0.8639  1.0163
 5514TIP3   OH216477   5.863   7.175   3.548  0.0235  0.2096 -0.0976
 5514TIP3    H116478   5.779   7.205   3.513 -0.1228 -1.9016 -1.6875
 5514TIP3    H216479   5.844   7.088   3.584  2.0579 -1.5759 -3.0970
 5515TIP3   OH216480   5.197   7.618   2.620  1.0051 -0.5577  0.2132
 5515TIP3    H116481   5.291   7.625   2.635  1.0427  0.6628 -0.5295
 5515TIP3    H216482   5.165   7.708   2.628 -0.0177 -0.8890 -0.0845
 5516TIP3   OH216483   7.874   4.158   6.559 -0.4542  0.1329 -1.1946
 5516TIP3    H116484   7.862   4.064   6.573  2.6291 -0.0796  0.3443
 5516TIP3    H216485   7.821   4.199   6.627  0.4112 -0.5672 -0.0796
 5517TIP3   OH216486   3.711   6.677   2.483  0.5892 -0.0944  0.4867
 5517TIP3    H116487   3.689   6.587   2.460 -0.1963 -0.0360  0.9849
 5517TIP3    H216488   3.754   6.671   2.568  0.9778 -0.0498  0.2913
 5518TIP3   OH216489   1.410   6.573   1.433  0.0466  0.1042  0.3032
 5518TIP3    H116490   1.367   6.638   1.490  2.1132 -0.3697  2.4912
 5518TIP3    H216491   1.462   6.520   1.493  2.5405 -0.2526 -2.1050
 5519TIP3   OH216492   4.437   0.120   2.712  0.1995 -0.3529 -0.1961
 5519TIP3    H116493   4.374   0.185   2.681 -0.5698 -0.5375  0.9393
 5519TIP3    H216494   4.516   0.170   2.733 -0.5401  0.2949  1.1192
 5520TIP3   OH216495   7.799   7.470   3.625  0.5171  0.1018  0.2477
 5520TIP3    H116496   7.798   7.519   3.542  0.7369 -0.3704 -0.0357
 5520TIP3    H216497   7.722   7.414   3.620  0.9242 -0.4484  0.0450
 5521TIP3   OH216498   8.032   0.619   3.238  0.6743  0.4865 -0.3325
 5521TIP3    H116499   8.001   0.623   3.328 -0.0793  0.5678 -0.5970
 5521TIP3    H216500   8.064   0.707   3.220  0.9382  0.4380 -0.1074
 5522TIP3   OH216501   8.501   0.351   3.007  0.1711 -0.4106 -0.4026
 5522TIP3    H116502   8.513   0.270   2.957 -0.0140 -0.7388  0.0750
 5522TIP3    H216503   8.409   0.374   2.993  0.0637 -0.6143 -0.0586
 5523TIP3   OH216504   7.158   0.811   2.536 -0.8563  0.5254 -0.1589
 5523TIP3    H116505   7.126   0.880   2.478 -1.5081  0.4380  0.0897
 5523TIP3    H216506   7.178   0.737   2.478 -0.6052  0.7596 -0.3724
 5524TIP3   OH216507   6.840   6.211   0.960  0.4471 -0.2447 -0.7269
 5524TIP3    H116508   6.772   6.257   1.010  1.9429 -2.1782  3.2741
 5524TIP3    H216509   6.792   6.163   0.893 -2.0232 -0.2742  0.9942
 5525TIP3   OH216510   4.232   7.001   1.995 -0.0861 -0.5839  0.2632
 5525TIP3    H116511   4.284   7.043   2.064  0.9468  0.3185 -1.0416
 5525TIP3    H216512   4.141   7.013   2.023  0.2082  2.0429  0.2380
 5526TIP3   OH216513   7.030   2.943   1.290  0.8810  0.1199  0.1254
 5526TIP3    H116514   7.077   2.992   1.358  0.2385  1.6744 -0.5251
 5526TIP3    H216515   6.965   3.005   1.256  0.0743 -1.1825 -0.7503
 5527TIP3   OH216516   1.987   1.751   2.717 -0.6930  0.0107 -0.2440
 5527TIP3    H116517   2.061   1.691   2.712 -0.3828  0.4458 -0.8766
 5527TIP3    H216518   1.951   1.753   2.628 -1.3380 -0.0355  0.0073
 5528TIP3   OH216519   6.352   1.249   0.523  0.3900  0.1281 -0.3397
 5528TIP3    H116520   6.298   1.215   0.451  1.4851  0.4621 -1.3245
 5528TIP3    H216521   6.402   1.320   0.484  0.1347  1.0814  1.0469
 5529TIP3   OH216522   3.941   5.916   0.277  0.2810  0.3618 -0.0238
 5529TIP3    H116523   3.944   6.008   0.303 -1.1019  0.9410 -1.8557
 5529TIP3    H216524   3.929   5.868   0.359 -0.6060  1.9205  0.7737
 5530TIP3   OH216525   0.541   1.488   2.280 -0.0024 -0.3071  0.5742
 5530TIP3    H116526   0.546   1.457   2.189 -0.3647 -4.0157  1.7263
 5530TIP3    H216527   0.628   1.470   2.315 -0.2902 -0.1889  1.3501
 5531TIP3   OH216528   3.976   4.763   1.366  0.1713 -0.5084  0.9984
 5531TIP3    H116529   3.900   4.713   1.394 -1.1904  1.3139  0.6120
 5531TIP3    H216530   3.960   4.852   1.396  2.1035 -0.0597  0.8098
 5532TIP3   OH216531   6.037   5.637   1.429 -0.0524  0.2590  0.3860
 5532TIP3    H116532   5.956   5.589   1.447 -0.1472  0.5674  0.8188
 5532TIP3    H216533   6.055   5.684   1.511 -0.2649  1.3975 -0.1994
 5533TIP3   OH216534   5.565   7.795   1.747 -0.1648 -0.4372 -0.0994
 5533TIP3    H116535   5.518   7.845   1.814  0.2091 -0.3548  0.1033
 5533TIP3    H216536   5.652   7.834   1.744 -0.5787  0.4036 -1.5588
 5534TIP3   OH216537   1.593   0.846   6.869  0.1982 -0.5373 -0.1967
 5534TIP3    H116538   1.659   0.790   6.910 -0.3584 -0.3832  0.9239
 5534TIP3    H216539   1.612   0.841   6.775  2.6455  0.5606  0.1865
 5535TIP3   OH216540   3.712   6.778   1.470  0.1719  0.4008 -0.1553
 5535TIP3    H116541   3.747   6.694   1.439 -1.3123  0.3766 -1.8071
 5535TIP3    H216542   3.681   6.759   1.559  0.7559 -0.5290 -0.1319
 5536TIP3   OH216543   1.843  -0.028   3.388 -0.6305 -0.4657  0.1574
 5536TIP3    H116544   1.814   0.036   3.453 -3.4564  1.3474 -2.7014
 5536TIP3    H216545   1.910   0.018   3.337 -0.2003 -1.0017  0.2376
 5537TIP3   OH216546   5.086   7.705   3.779  0.1557  0.4403 -0.5728
 5537TIP3    H116547   5.071   7.767   3.850  0.9837  0.7820 -0.6935
 5537TIP3    H216548   5.110   7.759   3.703 -3.2022  0.2751 -1.8277
 5538TIP3   OH216549   2.112   7.845   3.580 -0.2634  0.1551 -0.1716
 5538TIP3    H116550   2.037   7.891   3.617 -0.8080  0.5537 -1.7219
 5538TIP3    H216551   2.125   7.769   3.637 -3.5366 -1.3887 -1.3339
 5539TIP3   OH216552   5.908   5.125   1.561 -0.0791 -0.1625 -0.7364
 5539TIP3    H116553   5.921   5.036   1.530 -0.3176  0.2882 -2.2126
 5539TIP3    H216554   5.841   5.118   1.629  1.7486 -1.4177  0.9760
 5540TIP3   OH216555   7.635   0.236   1.371  0.6277  0.0418 -0.1847
 5540TIP3    H116556   7.577   0.208   1.300  2.3580  1.8127 -2.3541
 5540TIP3    H216557   7.647   0.158   1.424  1.0383 -1.9252 -3.0652
 5541TIP3   OH216558   4.471   2.920   5.814 -0.0746  0.2280 -0.1561
 5541TIP3    H116559   4.542   2.959   5.865  0.3858 -1.4202  0.4986
 5541TIP3    H216560   4.396   2.922   5.873  0.7697 -2.8214  1.1002
 5542TIP3   OH216561   6.120   6.285   3.258 -0.7290  0.6691  0.0974
 5542TIP3    H116562   6.146   6.356   3.317  1.2077  1.6102 -1.8199
 5542TIP3    H216563   6.202   6.248   3.228 -1.7183 -1.6124  0.0871
 5543TIP3   OH216564   4.309   6.265   2.313  0.3145  0.4672 -0.2177
 5543TIP3    H116565   4.216   6.250   2.297  0.6142 -0.1403 -1.3901
 5543TIP3    H216566   4.352   6.242   2.231  1.6174 -0.3455  0.6787
 5544TIP3   OH216567   0.584   2.201   6.827  0.5434  0.1118  0.1383
 5544TIP3    H116568   0.589   2.115   6.869  1.9362 -0.2928 -0.8367
 5544TIP3    H216569   0.497   2.234   6.850 -0.8427 -2.4639 -1.2639
 5545TIP3   OH216570   0.220   3.129   6.560 -0.5642 -0.0362 -0.6512
 5545TIP3    H116571   0.292   3.171   6.605 -0.7705 -0.2905 -0.0782
 5545TIP3    H216572   0.196   3.055   6.616 -1.0839 -0.1174 -0.9727
 5546TIP3   OH216573   6.866   4.890   1.618  0.1959  0.5370  0.0459
 5546TIP3    H116574   6.773   4.908   1.608  0.1800 -0.2824 -1.3984
 5546TIP3    H216575   6.875   4.797   1.599  0.8581 -0.1324  3.4336
 5547TIP3   OH216576   4.296   5.682   0.747 -0.0259  0.1377  0.1987
 5547TIP3    H116577   4.303   5.587   0.746  2.3879  0.2706  0.8017
 5547TIP3    H216578   4.333   5.709   0.662 -0.6136  0.5284  0.0681
 5548TIP3   OH216579   3.607   7.659   1.727  0.4853  0.3568 -0.0543
 5548TIP3    H116580   3.666   7.709   1.670 -0.1973  2.1863  0.7771
 5548TIP3    H216581   3.565   7.596   1.669  1.1215  0.9808 -1.2160
 5549TIP3   OH216582   4.297   6.713   1.444 -0.1857 -0.7971 -0.0159
 5549TIP3    H116583   4.366   6.669   1.395 -2.0526 -2.4359 -1.2811
 5549TIP3    H216584   4.321   6.699   1.536  0.8670 -1.8514 -0.4283
 5550TIP3   OH216585   4.912   5.782   1.402  0.1149 -0.3315  0.2132
 5550TIP3    H116586   4.912   5.764   1.308  0.6630  1.4602 -0.1382
 5550TIP3    H216587   4.980   5.848   1.414  0.9595 -1.4923  2.0652
 5551TIP3   OH216588   5.062   5.967   1.589  0.7571 -0.0253  0.0162
 5551TIP3    H116589   5.080   6.055   1.623  1.7535 -0.8827  1.8200
 5551TIP3    H216590   4.995   5.933   1.648  0.5405 -0.5574 -0.5377
 5552TIP3   OH216591   0.155   0.093   1.740 -0.0082 -0.1566 -0.3400
 5552TIP3    H116592   0.096   0.109   1.813 -0.9482  1.3020 -1.3788
 5552TIP3    H216593   0.242   0.091   1.779 -0.6731 -1.7780  1.1377
 5553TIP3   OH216594   5.915   6.220   2.006  0.0207  0.4079 -0.0696
 5553TIP3    H116595   5.925   6.248   1.915 -0.3765  0.6719 -0.0344
 5553TIP3    H216596   5.995   6.171   2.025 -0.4320 -0.6893 -0.9431
 5554TIP3   OH216597   4.194   7.080   3.240 -0.4804 -0.0213  0.7303
 5554TIP3    H116598   4.202   7.037   3.155  1.6139  1.5574  0.0870
 5554TIP3    H216599   4.128   7.148   3.225 -1.6597 -1.0791  0.9740
 5555TIP3   OH216600   6.605   5.862   3.565 -0.5940  0.4079  0.0048
 5555TIP3    H116601   6.598   5.880   3.471  1.2290  0.7386 -0.0789
 5555TIP3    H216602   6.610   5.949   3.606  2.4247  0.2471  0.0755
 5556TIP3   OH216603   1.256   2.670   6.719  0.1605  0.3113 -0.2830
 5556TIP3    H116604   1.308   2.619   6.782 -0.7317  0.6527  0.7532
 5556TIP3    H216605   1.172   2.624   6.715  0.6294 -0.4467 -2.2203
 5557TIP3   OH216606   7.812   6.629   0.497  0.1070  0.4580  0.5751
 5557TIP3    H116607   7.740   6.586   0.451  0.2409  0.2852  0.5279
 5557TIP3    H216608   7.798   6.607   0.589  0.5633 -0.2502  0.4742
 5558TIP3   OH216609   8.280   1.144   1.222  0.1616 -0.4129  0.4355
 5558TIP3    H116610   8.344   1.090   1.176 -0.5246 -0.1465 -0.8580
 5558TIP3    H216611   8.202   1.141   1.167 -1.0093 -0.8831  2.0849
 5559TIP3   OH216612   0.708   2.788   1.787 -0.0557  0.2355 -0.1681
 5559TIP3    H116613   0.725   2.873   1.746 -1.1025 -0.5359 -2.2506
 5559TIP3    H216614   0.628   2.803   1.839 -0.0608  0.6012 -0.2756
 5560TIP3   OH216615   6.761   4.386   1.878 -0.4333 -0.1816  0.8309
 5560TIP3    H116616   6.796   4.468   1.844 -0.5274 -0.6148 -0.3194
 5560TIP3    H216617   6.669   4.404   1.896 -0.5615 -0.1558  0.1610
 5561TIP3   OH216618   6.199   6.484   3.073 -0.2721 -0.1267  0.4199
 5561TIP3    H116619   6.290   6.482   3.102 -0.1147  1.6337  0.0894
 5561TIP3    H216620   6.205   6.499   2.978 -0.9026 -0.6475  0.2930
 5562TIP3   OH216621   8.170   1.327   0.812 -0.4247  0.0912  0.3698
 5562TIP3    H116622   8.179   1.281   0.896 -1.0173 -0.0215  0.3720
 5562TIP3    H216623   8.224   1.277   0.751 -0.9604 -0.5292  0.4067
 5563TIP3   OH216624   1.933   2.022   3.220  0.6070  0.5486  0.2416
 5563TIP3    H116625   1.837   2.029   3.218  0.6134  2.2127  2.5595
 5563TIP3    H216626   1.962   2.083   3.152  0.0408 -0.4597 -0.9373
 5564TIP3   OH216627   4.738   6.503   2.325 -0.0255  0.0172 -0.0509
 5564TIP3    H116628   4.716   6.506   2.232  3.6953  0.3321 -1.0106
 5564TIP3    H216629   4.748   6.594   2.351 -3.0645  0.0321  1.2454
 5565TIP3   OH216630   0.837   0.185   1.132 -0.2540 -0.6316 -0.5764
 5565TIP3    H116631   0.832   0.178   1.036  0.7079 -1.0118 -0.6025
 5565TIP3    H216632   0.930   0.195   1.150 -0.6276  2.1710  0.1383
 5566TIP3   OH216633   5.804   7.738   3.226  0.4408  0.0674 -0.1180
 5566TIP3    H116634   5.772   7.810   3.172  0.3513  0.3526  0.3144
 5566TIP3    H216635   5.747   7.738   3.303  0.5774 -0.3278 -0.0134
 5567TIP3   OH216636   7.088   6.822   0.095  0.0590  0.2708 -0.1378
 5567TIP3    H116637   6.994   6.808   0.098  0.0967  0.3092  1.5532
 5567TIP3    H216638   7.101   6.879   0.019 -1.1572 -0.5802 -1.0027
 5568TIP3   OH216639   6.037   7.642   1.520  0.1184  0.0669 -0.7266
 5568TIP3    H116640   6.120   7.607   1.489  0.2897  0.6531 -0.9281
 5568TIP3    H216641   5.971   7.591   1.472  0.3689  0.2370 -1.2604
 5569TIP3   OH216642   6.775   7.176   2.924 -0.2700  0.0449 -0.2070
 5569TIP3    H116643   6.850   7.119   2.904 -0.5554  0.0501 -1.3239
 5569TIP3    H216644   6.805   7.264   2.903 -0.8130 -0.0295 -1.3649
 5570TIP3   OH216645   1.227   0.372   0.357  0.0918  0.2117  0.1152
 5570TIP3    H116646   1.224   0.286   0.315 -2.3913  0.7557 -0.8597
 5570TIP3    H216647   1.198   0.433   0.290  1.5711  1.8230  0.8842
 5571TIP3   OH216648   5.731   6.798   1.487 -0.0661 -0.4898  0.0730
 5571TIP3    H116649   5.737   6.840   1.401  0.3450 -1.6416 -0.4724
 5571TIP3    H216650   5.746   6.705   1.469  1.2584 -0.5795  1.5506
 5572TIP3   OH216651   3.835   0.587   2.639 -0.5008 -0.4588  0.3752
 5572TIP3    H116652   3.793   0.604   2.723 -2.0620 -0.4911 -0.3769
 5572TIP3    H216653   3.763   0.587   2.576  0.7019  0.0001 -1.0234
 5573TIP3   OH216654   6.929   6.901   2.202 -1.0176 -0.3701  0.5395
 5573TIP3    H116655   6.999   6.890   2.266 -2.1089 -1.4987  1.5855
 5573TIP3    H216656   6.948   6.836   2.134 -1.2006 -0.9065  0.9873
 5574TIP3   OH216657   2.017   0.363   3.922 -0.6081  0.4537  0.0882
 5574TIP3    H116658   1.955   0.363   3.994 -1.3326 -1.2295 -0.5095
 5574TIP3    H216659   1.973   0.410   3.851 -0.5181  0.7567  0.2352
 5575TIP3   OH216660   6.520   7.591   2.033 -0.6289  0.7002 -0.5498
 5575TIP3    H116661   6.431   7.561   2.048 -1.4925  3.2243 -0.3877
 5575TIP3    H216662   6.555   7.532   1.966 -2.1030 -0.8739  0.0553
 5576TIP3   OH216663   7.787   7.445   2.191 -0.3551  0.7517 -0.0187
 5576TIP3    H116664   7.803   7.386   2.118  0.4680  0.1853  0.6169
 5576TIP3    H216665   7.700   7.422   2.223  0.5782 -1.1660  1.2015
 5577TIP3   OH216666   0.444   0.550   1.791 -0.0222 -0.5811  0.4786
 5577TIP3    H116667   0.456   0.580   1.880 -0.4329 -0.7973  0.6104
 5577TIP3    H216668   0.379   0.479   1.798 -0.5161 -0.1891 -0.0619
 5578TIP3   OH216669   0.384   6.835   3.980 -0.0518  0.5395  0.6448
 5578TIP3    H116670   0.455   6.862   4.038  0.0411  0.1750  0.7013
 5578TIP3    H216671   0.399   6.883   3.899 -0.9280  2.0498  1.3679
 5579TIP3   OH216672   2.338   7.160   0.149  0.3323  0.2227  0.2639
 5579TIP3    H116673   2.348   7.096   0.219  0.0136 -2.2267 -1.8809
 5579TIP3    H216674   2.382   7.238   0.182  1.5442 -1.3757  2.5467
 5580TIP3   OH216675   0.628   0.609   2.619  0.6523 -0.1764 -0.7448
 5580TIP3    H116676   0.642   0.684   2.562 -0.7737  0.3588 -0.3948
 5580TIP3    H216677   0.618   0.535   2.559  0.0183  0.2436 -1.1638
 5581TIP3   OH216678   7.659   7.123   3.145  0.3503  0.4315 -0.0848
 5581TIP3    H116679   7.704   7.044   3.114  0.5942  0.6744 -0.3576
 5581TIP3    H216680   7.566   7.102   3.140  0.2330  1.4293 -3.7178
 5582TIP3   OH216681   5.658   6.371   1.724  0.1046  0.0906 -0.6741
 5582TIP3    H116682   5.638   6.461   1.750 -1.0809 -0.0459 -1.0653
 5582TIP3    H216683   5.752   6.363   1.738 -0.0973  0.7521  1.2985
 5583TIP3   OH216684   7.356   6.067   2.619  0.4066  0.6534 -0.3217
 5583TIP3    H116685   7.407   6.068   2.538  1.3149  0.4474  0.2402
 5583TIP3    H216686   7.409   6.016   2.680 -0.7739 -0.1221  0.0786
 5584TIP3   OH216687   0.612   0.341   1.559 -0.4703 -0.1382  0.2757
 5584TIP3    H116688   0.538   0.295   1.521  1.2413 -1.3085 -1.7477
 5584TIP3    H216689   0.653   0.386   1.485 -0.0010  1.7108  1.6091
 5585TIP3   OH216690   3.138   5.861   0.273  0.0012  0.5644 -0.5616
 5585TIP3    H116691   3.120   5.782   0.223 -0.2336  1.2522 -1.5840
 5585TIP3    H216692   3.183   5.830   0.352 -1.6218 -0.7363 -0.1170
 5586TIP3   OH216693   1.768   2.472   5.189 -0.1725  0.3262  0.2286
 5586TIP3    H116694   1.796   2.385   5.161  0.1131  0.3941  0.3083
 5586TIP3    H216695   1.802   2.482   5.278 -2.2439 -0.4361  1.1462
 5587TIP3   OH216696   3.604   3.430   2.145  0.1498 -0.1504  0.0817
 5587TIP3    H116697   3.676   3.412   2.085  0.1412  0.5723 -0.1488
 5587TIP3    H216698   3.647   3.463   2.225  0.3340 -3.2636  1.3601
 5588TIP3   OH216699   2.087   0.696   2.899  0.0809 -0.2344 -0.5861
 5588TIP3    H116700   2.148   0.622   2.897  1.1615  0.6463 -0.7233
 5588TIP3    H216701   2.141   0.772   2.880 -1.2642  0.4425 -1.8521
 5589TIP3   OH216702   4.833   4.372   6.425  0.3152  0.0254 -0.6264
 5589TIP3    H116703   4.840   4.277   6.423 -1.7518 -0.1696  0.1002
 5589TIP3    H216704   4.769   4.390   6.494 -0.2460  1.8644 -1.5843
 5590TIP3   OH216705   1.688   3.616   5.571  0.2300  0.3156  0.3167
 5590TIP3    H116706   1.638   3.693   5.546  0.0539 -0.3153 -1.3868
 5590TIP3    H216707   1.739   3.594   5.492 -0.8865 -2.1938  0.2344
 5591TIP3   OH216708   1.187   1.151   5.965 -0.2056  0.0736 -0.2046
 5591TIP3    H116709   1.222   1.214   6.029  0.1346  1.4970 -1.7554
 5591TIP3    H216710   1.106   1.119   6.005  0.7740 -0.2234  1.6173
 5592TIP3   OH216711   6.166   5.835   2.339 -0.4263  0.3861  0.2250
 5592TIP3    H116712   6.174   5.886   2.420 -0.9256 -0.6417  0.9346
 5592TIP3    H216713   6.126   5.752   2.366  0.6948 -0.5365 -0.8591
 5593TIP3   OH216714   5.057   5.429   0.069  0.6718  0.0711 -0.2525
 5593TIP3    H116715   5.114   5.376   0.126 -0.1902 -1.0152 -0.3968
 5593TIP3    H216716   5.008   5.484   0.130 -2.2614 -3.0325  0.3252
 5594TIP3   OH216717   3.346   0.272   4.384  0.0274  0.5065  0.8638
 5594TIP3    H116718   3.438   0.246   4.392  0.4300  1.8630  0.6804
 5594TIP3    H216719   3.326   0.263   4.291 -0.0906  0.0058  0.9362
 5595TIP3   OH216720   2.124   1.167   5.404 -0.1319  0.7111  0.4951
 5595TIP3    H116721   2.181   1.173   5.481  0.5293 -1.1688  0.1833
 5595TIP3    H216722   2.160   1.230   5.343  2.5942 -1.4748 -0.2732
 5596TIP3   OH216723   7.794   0.701   5.537 -0.1273 -0.1955  0.2086
 5596TIP3    H116724   7.834   0.651   5.608  0.4678 -0.6401 -0.4316
 5596TIP3    H216725   7.748   0.772   5.581 -1.0107 -1.3104  1.1379
 5597TIP3   OH216726   1.562   0.809   4.354 -0.2181 -0.2907 -0.0350
 5597TIP3    H116727   1.618   0.811   4.277 -0.9488  1.7027 -0.5494
 5597TIP3    H216728   1.494   0.744   4.333  0.3428 -0.7314 -0.5032
 5598TIP3   OH216729   3.188   0.177   2.836  0.4634 -0.1825 -0.1388
 5598TIP3    H116730   3.119   0.234   2.870  0.0970 -0.3003 -0.6836
 5598TIP3    H216731   3.265   0.199   2.888  0.5937  1.5556 -1.0326
 5599TIP3   OH216732   5.475   7.290   6.595 -0.1907 -0.5012 -0.3805
 5599TIP3    H116733   5.569   7.274   6.585 -0.3415 -1.2873 -0.5482
 5599TIP3    H216734   5.452   7.346   6.521 -0.1570 -1.5775 -1.2225
 5600TIP3   OH216735   1.927   0.624   3.852  0.2591  0.7090 -0.3798
 5600TIP3    H116736   1.919   0.579   3.767 -0.8157 -1.2422  0.7015
 5600TIP3    H216737   2.007   0.676   3.844  1.7249 -1.6127 -1.6463
 5601TIP3   OH216738   1.832   0.467   4.366  0.5378 -0.1154 -0.1743
 5601TIP3    H116739   1.770   0.491   4.435  1.0152 -0.1715  0.2733
 5601TIP3    H216740   1.910   0.519   4.384  0.1826  0.9097 -1.4717
 5602TIP3   OH216741   7.686   7.829   3.624  0.5550 -0.0156  0.2020
 5602TIP3    H116742   7.751   7.800   3.688  1.7244 -0.7364 -1.2814
 5602TIP3    H216743   7.713   7.787   3.542 -0.4993  1.4772 -0.9227
 5603TIP3   OH216744   3.832   0.795   5.826 -0.0212  0.2776  0.0147
 5603TIP3    H116745   3.758   0.739   5.851 -0.3360  0.0697 -1.3342
 5603TIP3    H216746   3.799   0.884   5.834  0.3641  0.2812  1.8047
 5604TIP3   OH216747   0.308   0.848   4.218 -0.0141 -0.3001 -0.0876
 5604TIP3    H116748   0.381   0.786   4.212 -1.1805 -1.6484 -0.5757
 5604TIP3    H216749   0.346   0.927   4.257  1.6622 -1.0482 -0.1914
 5605TIP3   OH216750   4.614   5.691   0.318 -0.1887  0.2383  0.0349
 5605TIP3    H116751   4.609   5.782   0.289  0.3360  0.8230  1.7200
 5605TIP3    H216752   4.526   5.656   0.302 -0.5552  1.2090 -0.1198
 5606TIP3   OH216753   4.030   5.584   0.731 -0.3547 -0.4538  0.6642
 5606TIP3    H116754   4.112   5.608   0.688  0.1868  0.3013  2.0982
 5606TIP3    H216755   3.963   5.634   0.685  0.3395  1.1033  1.3203
 5607TIP3   OH216756   0.840   1.871   6.011 -0.1354 -0.0986  0.3265
 5607TIP3    H116757   0.917   1.847   6.062  0.9462  0.3108 -1.0668
 5607TIP3    H216758   0.843   1.966   6.006 -2.2259  0.1251  2.4956
 5608TIP3   OH216759   3.244   4.029   1.142  0.6278  0.1531 -0.4280
 5608TIP3    H116760   3.219   4.101   1.200 -0.4290 -0.5775  0.0575
 5608TIP3    H216761   3.323   3.992   1.182  0.8467  0.6904 -0.3647
 5609TIP3   OH216762   7.847   6.658   3.938  0.4567 -0.3185  0.3144
 5609TIP3    H116763   7.803   6.721   3.996  1.7830 -0.4302  1.4593
 5609TIP3    H216764   7.838   6.696   3.851  1.9788  1.9226  1.0732
 5610TIP3   OH216765   1.526   2.074   6.017 -0.1473  0.1324  1.0673
 5610TIP3    H116766   1.559   2.013   6.084  1.4542  0.0287  0.2064
 5610TIP3    H216767   1.508   2.018   5.942  0.4374  0.5923  0.5841
 5611TIP3   OH216768   7.847   1.269   5.820 -0.3239  0.9041 -0.5910
 5611TIP3    H116769   7.916   1.205   5.805  0.9730  1.9688  0.6312
 5611TIP3    H216770   7.770   1.217   5.844  1.3903 -0.1303  2.9112
 5612TIP3   OH216771   2.188   1.321   5.646  0.2494  0.4482  0.1304
 5612TIP3    H116772   2.122   1.384   5.616 -0.6693 -1.0435 -1.0609
 5612TIP3    H216773   2.171   1.312   5.740 -1.1233  0.2419 -0.1186
 5613TIP3   OH216774   2.195   0.480   4.493  0.4593 -0.4137  0.0291
 5613TIP3    H116775   2.190   0.385   4.505  2.1739 -0.5999 -0.5333
 5613TIP3    H216776   2.191   0.515   4.582 -1.2166 -0.9434  0.1747
 5614TIP3   OH216777   3.905   5.609   0.189 -0.1295  0.4525  0.1879
 5614TIP3    H116778   3.830   5.561   0.225 -0.5359  0.2584 -0.8762
 5614TIP3    H216779   3.934   5.666   0.260 -0.9712  0.1562  0.7783
 5615TIP3   OH216780   8.481   6.709   3.229 -0.4151 -0.3622  0.2560
 5615TIP3    H116781   8.415   6.642   3.211 -1.8734  0.5694  2.0364
 5615TIP3    H216782   8.432   6.780   3.270  1.4534  0.9940  0.1646
 5616TIP3   OH216783   1.912   2.117   4.853  0.4525 -0.2604 -0.3945
 5616TIP3    H116784   1.944   2.040   4.901  1.3435  0.2348 -0.1917
 5616TIP3    H216785   1.978   2.133   4.785  0.8579  1.0048  0.2770
 5617TIP3   OH216786   2.359   3.267   4.293 -0.2184 -0.0266 -0.0731
 5617TIP3    H116787   2.348   3.215   4.373 -2.3583  2.4032  1.2774
 5617TIP3    H216788   2.453   3.283   4.288 -0.1753  0.7893  2.6545
 5618TIP3   OH216789   3.037   1.872   3.632 -0.2431 -0.0519 -0.4779
 5618TIP3    H116790   3.097   1.911   3.696  1.4166 -0.2415 -1.8951
 5618TIP3    H216791   3.027   1.781   3.662 -1.0269  0.3772  0.6067
 5619TIP3   OH216792   2.708   2.560   4.891 -0.1835 -0.0404 -0.1263
 5619TIP3    H116793   2.758   2.583   4.970  0.1347  2.1369 -0.9545
 5619TIP3    H216794   2.616   2.573   4.916 -0.1089  0.1978  0.0234
 5620TIP3   OH216795   2.563   3.091   5.091 -0.5377 -0.2299  0.2835
 5620TIP3    H116796   2.509   3.080   5.012  0.5837 -0.1823 -0.5073
 5620TIP3    H216797   2.578   3.185   5.097 -2.7038  0.0614  2.0039
 5621TIP3   OH216798   3.120   2.912   4.117 -0.0113  0.4565 -0.2372
 5621TIP3    H116799   3.139   2.901   4.210  0.8856 -0.4643 -0.5173
 5621TIP3    H216800   3.031   2.880   4.106  0.6227 -1.4323 -0.0566
 5622TIP3   OH216801   2.775   1.975   4.022  0.0814  0.5201 -0.0311
 5622TIP3    H116802   2.694   1.952   4.066 -0.3094 -1.3031 -1.6447
 5622TIP3    H216803   2.837   1.907   4.047 -0.0918 -0.4293 -2.0567
 5623TIP3   OH216804   5.171   7.098   5.509 -0.5348  0.7070 -0.6793
 5623TIP3    H116805   5.172   7.167   5.442 -0.4805  1.0633 -0.3173
 5623TIP3    H216806   5.078   7.088   5.531 -0.6408 -0.0322 -1.4362
 5624TIP3   OH216807   2.134   4.146   2.068 -0.0302  0.1156 -0.3589
 5624TIP3    H116808   2.156   4.222   2.123 -0.0220 -1.7444  2.3238
 5624TIP3    H216809   2.137   4.179   1.979  2.1322  2.7575  0.6192
 5625TIP3   OH216810   1.843   0.458   3.640  0.0830 -0.2159  0.3061
 5625TIP3    H116811   1.752   0.430   3.637  0.2172 -0.4990 -1.2646
 5625TIP3    H216812   1.892   0.384   3.604  0.8915  0.1436  0.6487
 5626TIP3   OH216813   4.115   4.057   1.891 -0.0617  0.5411  0.1732
 5626TIP3    H116814   4.033   4.032   1.849 -0.6902  0.6434  1.3259
 5626TIP3    H216815   4.107   4.151   1.907  0.2374  0.5298  0.3910
 5627TIP3   OH216816   0.971   0.798   4.701 -0.2227 -0.3477 -0.7051
 5627TIP3    H116817   1.047   0.807   4.644 -1.1122 -0.2164 -1.9128
 5627TIP3    H216818   0.949   0.887   4.728  1.6068 -0.6055  1.7937
 5628TIP3   OH216819   6.770   7.166   4.865  0.7380 -0.4676  0.6538
 5628TIP3    H116820   6.838   7.098   4.866  0.7914 -0.4138  0.8263
 5628TIP3    H216821   6.700   7.129   4.811  0.5780 -0.8443  1.1111
 5629TIP3   OH216822   2.858   1.432   6.402 -0.3237 -0.3832  0.0225
 5629TIP3    H116823   2.782   1.422   6.345 -0.4761  0.9469 -0.0324
 5629TIP3    H216824   2.823   1.426   6.491 -0.7457  1.6713  0.0255
 5630TIP3   OH216825   3.019   1.158   5.543 -0.0826 -0.3182 -1.0889
 5630TIP3    H116826   2.944   1.184   5.597 -0.1653  0.4282 -1.5655
 5630TIP3    H216827   3.090   1.217   5.569  1.3002 -2.9888  1.6037
 5631TIP3   OH216828   6.619   6.113   5.498 -0.0116 -0.0913  0.3097
 5631TIP3    H116829   6.599   6.142   5.587 -1.3424 -2.1611  0.7246
 5631TIP3    H216830   6.565   6.169   5.442 -1.3707 -0.6798  0.9996
 5632TIP3   OH216831   6.705   7.149   1.860 -0.2626  0.4385  0.5590
 5632TIP3    H116832   6.751   7.092   1.921  1.2467  0.8731 -0.1615
 5632TIP3    H216833   6.612   7.128   1.873  0.3069 -3.0912 -0.6209
 5633TIP3   OH216834   0.723   7.066   3.750 -0.4094  0.4543  0.0300
 5633TIP3    H116835   0.795   7.025   3.702 -0.4787 -0.0851  0.3823
 5633TIP3    H216836   0.736   7.037   3.841 -0.9352  0.5473  0.1343
 5634TIP3   OH216837   0.584   1.689   5.992  0.0182 -0.5623  0.1301
 5634TIP3    H116838   0.530   1.725   5.922 -0.5975  0.2076  0.9686
 5634TIP3    H216839   0.668   1.735   5.984 -0.2956  0.0595  0.3310
 5635TIP3   OH216840   1.136   0.235   2.054 -0.3669 -0.2635  0.9850
 5635TIP3    H116841   1.094   0.150   2.052  0.3003 -0.6219  1.6370
 5635TIP3    H216842   1.229   0.215   2.070  0.1519  0.4694 -1.0587
 5636TIP3   OH216843   2.282  -0.002   4.367  0.2392 -0.2908  0.3746
 5636TIP3    H116844   2.322  -0.051   4.440 -0.7012 -1.4222  0.1341
 5636TIP3    H216845   2.255   0.081   4.407 -1.2588 -1.3370  1.5815
 5637TIP3   OH216846   2.599   1.672   6.168 -0.1182  0.0454  0.5464
 5637TIP3    H116847   2.634   1.724   6.241 -0.1081 -0.4974  0.9325
 5637TIP3    H216848   2.612   1.581   6.195  2.4786 -0.2056 -1.3902
 5638TIP3   OH216849   2.365   0.902   6.276  0.0515 -0.0500 -0.2677
 5638TIP3    H116850   2.425   0.883   6.204 -0.8227  1.2919 -1.3671
 5638TIP3    H216851   2.420   0.937   6.345  0.8802 -1.2021 -0.3290
 5639TIP3   OH216852   3.033   2.425   4.483  0.0031  0.0185  0.3907
 5639TIP3    H116853   2.950   2.424   4.531 -0.5815  0.9208 -0.5700
 5639TIP3    H216854   3.017   2.485   4.410  0.3709 -2.4058 -1.7755
 5640TIP3   OH216855   6.851   7.939   3.764 -0.2866  0.1825  0.0741
 5640TIP3    H116856   6.817   7.912   3.679  1.0455 -0.8812 -0.1356
 5640TIP3    H216857   6.826   8.031   3.771  1.3026  0.8488 -2.3464
 5641TIP3   OH216858   1.906   1.812   4.223 -0.0466  0.1504  0.1163
 5641TIP3    H116859   1.882   1.885   4.166 -0.8341  0.1347  0.4143
 5641TIP3    H216860   1.822   1.782   4.260  0.0579 -2.0034 -1.3237
 5642TIP3   OH216861   5.729   7.576   5.269  0.4316  0.1510  0.0669
 5642TIP3    H116862   5.767   7.630   5.338 -0.6763  0.0352  0.7781
 5642TIP3    H216863   5.658   7.630   5.232 -0.0542 -0.4307  0.1378
 5643TIP3   OH216864   0.388   1.928   6.288  0.7361  0.7514 -0.7248
 5643TIP3    H116865   0.460   1.966   6.239  1.0869 -1.1867 -1.7392
 5643TIP3    H216866   0.417   1.839   6.310 -1.1675  0.0928 -0.7882
 5644TIP3   OH216867   1.973   1.639   4.630  0.2590 -0.0245 -0.3193
 5644TIP3    H116868   2.022   1.721   4.635  1.0811 -0.4892 -0.8162
 5644TIP3    H216869   1.997   1.602   4.546 -1.7162  0.2322 -1.0196
 5645TIP3   OH216870   4.823   7.276   5.034 -0.0245  0.1944 -0.6314
 5645TIP3    H116871   4.806   7.265   4.941 -0.5107  0.0658 -0.5266
 5645TIP3    H216872   4.890   7.344   5.038  0.8445 -0.6187 -1.1292
 5646TIP3   OH216873   4.471   0.314   6.824  0.0276  0.5458 -0.0196
 5646TIP3    H116874   4.483   0.398   6.868  0.6336  0.4080  0.0789
 5646TIP3    H216875   4.544   0.308   6.762 -0.1819  0.2293 -0.2405
 5647TIP3   OH216876   1.410   2.077   6.431 -0.0904 -0.5123 -0.0793
 5647TIP3    H116877   1.489   2.034   6.399  0.4948  0.0580  0.5808
 5647TIP3    H216878   1.338   2.023   6.398  0.5349 -0.5599 -1.3968
 5648TIP3   OH216879   1.624   3.494   2.729  0.2543  0.4514 -0.3851
 5648TIP3    H116880   1.566   3.556   2.685 -0.6490 -0.0950  0.0032
 5648TIP3    H216881   1.624   3.417   2.672  1.4773  0.8467 -0.9342
 5649TIP3   OH216882   1.598   1.803   6.861  0.1567 -0.2990  0.2416
 5649TIP3    H116883   1.591   1.741   6.788 -1.6136  1.6204 -1.2707
 5649TIP3    H216884   1.539   1.874   6.838  0.1812  0.7457  3.1885
 5650TIP3   OH216885   2.779   0.847   5.956 -0.1509 -0.4945 -0.2461
 5650TIP3    H116886   2.853   0.793   5.930  0.4836  0.7474 -1.0876
 5650TIP3    H216887   2.813   0.937   5.955 -0.7929 -0.1592  2.4336
 5651TIP3   OH216888   1.972   5.655   3.278  0.2664 -0.6420 -0.2592
 5651TIP3    H116889   2.011   5.578   3.321  2.2463 -0.7682 -2.2207
 5651TIP3    H216890   2.029   5.728   3.302 -1.4901  0.2371  1.4172
 5652TIP3   OH216891   2.706   6.488   1.196 -0.0042 -0.5878  0.1021
 5652TIP3    H116892   2.643   6.453   1.259  0.5535 -0.4412  0.7471
 5652TIP3    H216893   2.789   6.493   1.244 -0.3028  2.6316  0.3710
 5653TIP3   OH216894   2.718   0.028   4.135 -0.0473 -0.8720  0.2009
 5653TIP3    H116895   2.799   0.065   4.100  0.8319 -1.7312  1.2561
 5653TIP3    H216896   2.661   0.103   4.149  1.0694 -0.0970  0.6675
 5654TIP3   OH216897   3.122   0.594   4.549 -0.3941 -0.0107 -1.0480
 5654TIP3    H116898   3.170   0.650   4.489 -0.0431  0.2832 -0.5022
 5654TIP3    H216899   3.042   0.643   4.569  1.1356  1.5743  1.5357
 5655TIP3   OH216900   3.974   0.476   1.911  0.3191  0.0855 -0.2504
 5655TIP3    H116901   3.923   0.467   1.992 -1.0508  0.7233 -1.0429
 5655TIP3    H216902   3.930   0.419   1.848 -0.5224  2.0734 -1.4787
 5656TIP3   OH216903   5.986   5.854   4.084  0.1622 -0.0128 -0.9638
 5656TIP3    H116904   5.932   5.932   4.089 -0.3070 -0.4143  0.5824
 5656TIP3    H216905   6.070   5.881   4.122 -0.5456 -0.6887  1.1592
 5657TIP3   OH216906   6.395   7.893   4.579  0.3074  0.4238  0.0554
 5657TIP3    H116907   6.459   7.940   4.632 -0.9165  1.2601  0.8156
 5657TIP3    H216908   6.437   7.809   4.560  1.5021  0.8388  0.7856
 5658TIP3   OH216909   2.214   1.341   5.911  0.3290  0.5771 -0.2077
 5658TIP3    H116910   2.208   1.275   5.981  0.2788  0.5381 -0.2484
 5658TIP3    H216911   2.291   1.393   5.934 -0.8541  1.8371  0.9579
 5659TIP3   OH216912   2.192   1.459   3.577  0.0071 -0.1747 -0.2270
 5659TIP3    H116913   2.119   1.475   3.518  0.4186 -1.0151 -0.9716
 5659TIP3    H216914   2.166   1.501   3.660 -0.1959  1.7357 -1.2299
 5660TIP3   OH216915   1.136   7.122   2.680 -0.3740  0.6624 -0.1297
 5660TIP3    H116916   1.129   7.193   2.744 -1.6135  1.0609 -0.7008
 5660TIP3    H216917   1.158   7.045   2.732 -2.0884  0.8386  0.8833
 5661TIP3   OH216918   2.096   1.053   3.298  0.2520  0.4939 -0.0437
 5661TIP3    H116919   2.063   1.141   3.311  3.2525  1.7567 -0.5200
 5661TIP3    H216920   2.098   1.014   3.385 -0.5749  1.0826  0.2366
 5662TIP3   OH216921   2.438   2.543   6.093  0.1706 -0.4125  0.3885
 5662TIP3    H116922   2.343   2.545   6.085  0.0832 -1.3273  1.0890
 5662TIP3    H216923   2.470   2.591   6.016 -0.8449 -0.2512  0.0612
 5663TIP3   OH216924   6.937   6.057   4.162  0.2039 -0.1250  0.1217
 5663TIP3    H116925   7.002   6.087   4.224  0.5040  1.3114 -0.8666
 5663TIP3    H216926   6.917   5.967   4.189  1.1356  0.1065  1.5991
 5664TIP3   OH216927   3.486   1.024   6.475  0.2463 -0.0172  0.2431
 5664TIP3    H116928   3.468   1.113   6.446 -0.1031 -0.2301 -0.2105
 5664TIP3    H216929   3.498   0.974   6.394  0.0661 -0.4566  0.4824
 5665TIP3   OH216930   5.447   1.263   5.467  0.0730 -0.0019 -0.3645
 5665TIP3    H116931   5.486   1.207   5.399  1.4384  0.1594  0.2609
 5665TIP3    H216932   5.486   1.232   5.549  0.2286  1.3389  0.0728
 5666TIP3   OH216933   1.334   7.488   4.842 -0.4737 -0.2101 -0.2420
 5666TIP3    H116934   1.246   7.520   4.860 -0.4119  0.0581 -0.4162
 5666TIP3    H216935   1.385   7.567   4.822  0.1560 -0.1904  1.3173
 5667TIP3   OH216936   2.386   1.537   5.958  0.0845 -0.5324  0.3884
 5667TIP3    H116937   2.407   1.567   6.046  0.4084  0.3003  0.0296
 5667TIP3    H216938   2.355   1.615   5.912 -0.6319 -1.0740 -0.0678
 5668TIP3   OH216939   1.211   0.095   3.406  0.0778 -0.2153  0.0393
 5668TIP3    H116940   1.285   0.104   3.346 -0.2739  0.3432 -0.3167
 5668TIP3    H216941   1.196   0.001   3.412 -0.3144 -0.2473 -1.2827
 5669TIP3   OH216942   2.682   0.520   5.274 -0.5989  0.5631 -0.6713
 5669TIP3    H116943   2.769   0.517   5.233 -0.0872  2.5217  0.2294
 5669TIP3    H216944   2.662   0.428   5.293  1.2363  0.0823 -0.9629
 5670TIP3   OH216945   1.349   1.431   4.410  0.1464  0.0341  0.0103
 5670TIP3    H116946   1.401   1.484   4.350 -1.4364  1.3097 -0.2586
 5670TIP3    H216947   1.324   1.491   4.480 -0.5990 -0.6766  0.3609
 5671TIP3   OH216948   2.827   0.754   1.824 -0.8928  0.0949  0.4700
 5671TIP3    H116949   2.861   0.665   1.816 -0.2501  0.2966  0.9643
 5671TIP3    H216950   2.732   0.742   1.835 -0.9115 -0.4903 -0.2667
 5672TIP3   OH216951   3.843   0.968   2.576 -0.3098 -0.5307  0.0527
 5672TIP3    H116952   3.804   1.043   2.621 -1.7503 -1.0496 -0.3113
 5672TIP3    H216953   3.812   0.976   2.486  2.7975  0.6876 -0.9852
 5673TIP3   OH216954   1.806   7.913   6.424  0.4445 -0.5391  0.4204
 5673TIP3    H116955   1.881   7.958   6.464  1.3983 -1.6983 -0.0249
 5673TIP3    H216956   1.745   7.900   6.497  0.9925 -0.2224  0.9404
 5674TIP3   OH216957   1.330   2.368   5.768  0.0336  0.7454 -0.2386
 5674TIP3    H116958   1.399   2.358   5.833 -0.3589  0.0428  0.0857
 5674TIP3    H216959   1.295   2.456   5.783 -0.2333  0.4892  0.6853
 5675TIP3   OH216960   8.180   5.889   4.705 -0.0894 -0.6349 -0.2286
 5675TIP3    H116961   8.091   5.873   4.673 -0.6149  1.0172  0.3504
 5675TIP3    H216962   8.194   5.823   4.772 -1.1241 -0.5127  0.1112
 5676TIP3   OH216963   2.502   0.654   5.566  0.2658 -0.0006  0.3520
 5676TIP3    H116964   2.472   0.725   5.623  1.6395  0.9065 -0.0420
 5676TIP3    H216965   2.584   0.625   5.605  0.2306 -0.6809 -0.0784
 5677TIP3   OH216966   3.968   0.615   3.243 -0.0043  0.1268  0.4353
 5677TIP3    H116967   3.944   0.703   3.213  0.4661  0.1519  0.1214
 5677TIP3    H216968   4.052   0.598   3.200 -0.3827 -0.7079  0.0359
 5678TIP3   OH216969   2.520   2.397   6.657  0.4407  0.6652 -0.0711
 5678TIP3    H116970   2.425   2.405   6.668  0.6379  0.4441  1.9154
 5678TIP3    H216971   2.557   2.448   6.729  1.8371  0.1906 -0.4366
 5679TIP3   OH216972   8.420   7.637   3.501  0.3627 -0.0923  0.1514
 5679TIP3    H116973   8.347   7.668   3.446 -0.2117 -1.2181  0.2615
 5679TIP3    H216974   8.381   7.620   3.586  0.8223 -0.4238  0.2975
 5680TIP3   OH216975   1.826   7.894   3.627  0.4613  0.2741 -0.2615
 5680TIP3    H116976   1.736   7.919   3.604  1.2724  1.9079 -1.7756
 5680TIP3    H216977   1.829   7.900   3.723 -0.6729  1.5089 -0.2867
 5681TIP3   OH216978   2.583   1.421   6.272 -0.3567  0.4426  0.0551
 5681TIP3    H116979   2.531   1.404   6.350  2.2183 -0.7510  1.5611
 5681TIP3    H216980   2.565   1.346   6.215  0.0565 -0.2135  0.7746
 5682TIP3   OH216981   3.391   1.077   5.018 -0.1862 -0.1127  0.0533
 5682TIP3    H116982   3.417   1.153   4.966 -0.5768 -0.0308 -0.0258
 5682TIP3    H216983   3.393   1.108   5.108 -0.0205 -0.1039  0.0461
 5683TIP3   OH216984   1.030   7.971   3.848  0.0431 -0.0776 -0.2236
 5683TIP3    H116985   0.968   8.034   3.884 -1.1979 -0.5295 -1.5016
 5683TIP3    H216986   0.977   7.894   3.826  1.2312 -0.8747 -0.3809
 5684TIP3   OH216987   1.911   2.413   6.585 -0.1969 -0.2627  0.2666
 5684TIP3    H116988   1.951   2.352   6.524  1.3170  0.2579  0.7041
 5684TIP3    H216989   1.943   2.385   6.671 -0.1585  0.6282  0.5473
 5685TIP3   OH216990   7.565   3.199   0.048  0.1173  0.1719 -0.4197
 5685TIP3    H116991   7.646   3.179   0.096  2.3645 -1.5208 -4.6827
 5685TIP3    H216992   7.567   3.293   0.036  0.3472  0.4119  1.2738
 5686TIP3   OH216993   2.568   0.904   5.800 -0.6473 -0.0270 -0.0554
 5686TIP3    H116994   2.512   0.922   5.876  0.3034  2.2871  0.1517
 5686TIP3    H216995   2.653   0.881   5.838 -0.2120  0.9752 -0.4040
 5687TIP3   OH216996   5.700   7.750   2.538 -0.1202  0.2608  0.4620
 5687TIP3    H116997   5.755   7.672   2.545 -0.8061 -0.2727 -0.1002
 5687TIP3    H216998   5.762   7.823   2.539  0.6567 -0.3709 -0.9927
 5688TIP3   OH216999   4.136   1.559   4.398  0.5270  0.1687  0.0171
 5688TIP3    H117000   4.205   1.516   4.347 -0.0565  0.6720 -1.2155
 5688TIP3    H217001   4.074   1.488   4.419  0.7489 -0.0333 -0.0138
 5689TIP3   OH217002   3.372   1.401   4.471  0.3401  0.0015  0.6553
 5689TIP3    H117003   3.357   1.462   4.544  2.1964  1.1904  0.0766
 5689TIP3    H217004   3.284   1.384   4.437 -0.3386  1.3473  1.6525
 5690TIP3   OH217005   0.402   1.610   5.453 -0.4497 -0.1889 -0.2141
 5690TIP3    H117006   0.402   1.549   5.378 -3.5400 -3.9640  2.6410
 5690TIP3    H217007   0.456   1.567   5.519 -1.1325  1.0751  1.2079
 5691TIP3   OH217008   3.580   2.754   6.105  0.6536  0.2335  0.2224
 5691TIP3    H117009   3.625   2.776   6.024  1.7514  2.9033  1.5005
 5691TIP3    H217010   3.509   2.818   6.112 -0.7974 -1.3387  0.3139
 5692TIP3   OH217011   4.034   1.354   4.105 -0.3637  0.1197 -0.3695
 5692TIP3    H117012   3.972   1.293   4.065  1.5978 -0.3775 -2.7517
 5692TIP3    H217013   4.088   1.299   4.162 -1.3574  0.3765  0.8496
 5693TIP3   OH217014   2.317   1.660   5.596  0.2895 -0.5313  0.6432
 5693TIP3    H117015   2.297   1.717   5.522  1.5134 -0.1301  0.6001
 5693TIP3    H217016   2.366   1.587   5.557  0.5368 -0.5528  0.9883
 5694TIP3   OH217017   4.673   1.519   2.419  0.3810  0.4607 -0.0990
 5694TIP3    H117018   4.598   1.525   2.478  1.8264  1.4582  1.7211
 5694TIP3    H217019   4.640   1.475   2.341 -2.1845  1.3289  0.4707
 5695TIP3   OH217020   1.205   1.521   5.804  0.6314  0.3071 -0.2880
 5695TIP3    H117021   1.153   1.544   5.727 -0.1881 -0.7108 -0.0363
 5695TIP3    H217022   1.279   1.471   5.768 -1.2844 -2.7012 -0.1522
 5696TIP3   OH217023   3.561   1.526   6.688  0.6718 -0.0986  0.7263
 5696TIP3    H117024   3.643   1.506   6.733 -0.2245 -1.2848  1.8500
 5696TIP3    H217025   3.496   1.534   6.758 -0.3258  0.1427 -0.2081
 5697TIP3   OH217026   4.365   0.660   5.610  0.1743 -0.2823 -0.0986
 5697TIP3    H117027   4.417   0.703   5.542  0.3724  0.2246  0.3688
 5697TIP3    H217028   4.319   0.731   5.654  0.3455 -0.5626  0.5461
 5698TIP3   OH217029   4.867   1.430   3.402  0.4282 -0.4248  0.3865
 5698TIP3    H117030   4.812   1.366   3.447 -1.7016  0.0089 -1.4775
 5698TIP3    H217031   4.911   1.380   3.333 -0.2061 -0.1336 -0.2289
 5699TIP3   OH217032   3.814   1.380   2.532 -0.1377 -0.1807  0.4583
 5699TIP3    H117033   3.847   1.449   2.590  1.0424  0.7075 -1.2159
 5699TIP3    H217034   3.734   1.417   2.494  1.7004  1.2570 -2.1787
 5700TIP3   OH217035   2.812   0.513   4.837  0.2002 -0.1078 -0.6471
 5700TIP3    H117036   2.888   0.568   4.820 -0.0042  0.1149 -0.8621
 5700TIP3    H217037   2.812   0.499   4.932  0.5438 -0.1625 -0.6567
 5701TIP3   OH217038   8.197   2.111   5.124 -0.5933  0.1850  0.5718
 5701TIP3    H117039   8.283   2.079   5.154  0.4885  1.3871 -1.2050
 5701TIP3    H217040   8.173   2.052   5.053 -0.9905  0.2030  0.6875
 5702TIP3   OH217041   3.218   0.699   5.770 -0.4039  0.6502 -0.3726
 5702TIP3    H117042   3.285   0.677   5.835 -0.1677 -0.7024 -1.0558
 5702TIP3    H217043   3.188   0.786   5.795 -0.9291 -0.1971  2.0632
 5703TIP3   OH217044   4.589   0.353   5.820 -0.0634 -0.2051  0.1218
 5703TIP3    H117045   4.658   0.291   5.795 -0.4805 -1.3765  1.7878
 5703TIP3    H217046   4.616   0.436   5.781  2.0110 -0.7807  0.2799
 5704TIP3   OH217047   2.778   0.925   5.302  0.1651 -0.4838 -0.1027
 5704TIP3    H117048   2.737   0.959   5.222  1.2659 -0.3899 -0.6386
 5704TIP3    H217049   2.705   0.891   5.353 -0.7027  0.6021 -0.5847
 5705TIP3   OH217050   2.868   1.959   5.193  0.0372 -0.4902  0.3792
 5705TIP3    H117051   2.907   1.873   5.213  0.2473 -0.4364  0.2103
 5705TIP3    H217052   2.899   2.016   5.264 -0.1643 -0.5720  0.5324
 5706TIP3   OH217053   1.504   0.801   2.549  0.0176  0.8991  0.1113
 5706TIP3    H117054   1.523   0.879   2.497  2.0083 -0.5763 -1.4653
 5706TIP3    H217055   1.583   0.789   2.603  0.1541 -0.5691 -0.3901
 5707TIP3   OH217056   1.961   7.175   5.524  0.5820  0.4970 -0.2303
 5707TIP3    H117057   1.968   7.131   5.440  0.9581 -2.8669  1.4902
 5707TIP3    H217058   1.869   7.201   5.531 -0.1667 -2.0127 -0.3529
 5708TIP3   OH217059   4.145   1.131   1.940  0.2700 -0.0835  0.7759
 5708TIP3    H117060   4.146   1.049   1.891  0.3898  0.6464 -0.4635
 5708TIP3    H217061   4.230   1.171   1.923  0.2225  0.2891  1.3857
 5709TIP3   OH217062   5.109   1.133   4.172  0.0781 -0.0593 -0.0861
 5709TIP3    H117063   5.088   1.042   4.153 -2.4597  0.2770  0.9502
 5709TIP3    H217064   5.028   1.181   4.157  0.6949  1.6718  1.7740
 5710TIP3   OH217065   8.022   6.309   2.751  0.2843 -0.0801 -0.4101
 5710TIP3    H117066   8.059   6.346   2.671 -1.1062  1.5187 -0.3478
 5710TIP3    H217067   8.056   6.364   2.821 -1.1721  0.6110 -0.2355
 5711TIP3   OH217068   6.328   6.403   0.380 -0.4433 -0.0901 -0.3084
 5711TIP3    H117069   6.380   6.332   0.344 -0.0245  0.2913 -0.4598
 5711TIP3    H217070   6.239   6.387   0.347 -0.4322 -0.7590 -0.0222
 5712TIP3   OH217071   4.080   0.710   3.536 -0.3105 -0.1303  0.5120
 5712TIP3    H117072   4.103   0.770   3.607  0.5749 -2.0306  1.8780
 5712TIP3    H217073   4.021   0.646   3.578 -0.2847 -0.8968 -0.6068
 5713TIP3   OH217074   2.125   0.278   4.301  0.1527  0.4839  0.6917
 5713TIP3    H117075   2.108   0.241   4.388 -1.0234  0.2768  0.3660
 5713TIP3    H217076   2.177   0.357   4.320  1.3724 -0.4878  1.4678
 5714TIP3   OH217077   0.780   7.360   3.848 -0.0163  0.1325  0.0634
 5714TIP3    H117078   0.713   7.405   3.901 -0.1559  0.6513 -0.5470
 5714TIP3    H217079   0.755   7.268   3.851  0.5304  0.0142  1.7139
 5715TIP3   OH217080   7.852   7.968   2.819 -0.2070  0.0992  0.2420
 5715TIP3    H117081   7.822   7.892   2.868  1.8854 -0.2287  1.0551
 5715TIP3    H217082   7.772   8.016   2.797 -1.3803 -1.2885  1.4206
 5716TIP3   OH217083   2.240   2.310   6.601  0.2903  0.3706  0.1973
 5716TIP3    H117084   2.200   2.231   6.567  1.7580  0.3203 -1.4434
 5716TIP3    H217085   2.233   2.374   6.530  0.4665  1.2666  0.9644
 5717TIP3   OH217086   5.091   0.215   3.282 -0.2671  0.0153  0.1405
 5717TIP3    H117087   5.084   0.128   3.322 -1.2228 -1.5100 -3.2261
 5717TIP3    H217088   5.000   0.245   3.274  0.0104  0.9978  0.5261
 5718TIP3   OH217089   4.780   0.677   3.072 -0.2731  0.0462  0.1647
 5718TIP3    H117090   4.830   0.746   3.028 -2.8659  1.4264 -0.6972
 5718TIP3    H217091   4.731   0.635   3.001  0.9645 -2.4813  0.7357
 5719TIP3   OH217092   4.236   6.293   0.084 -0.7869  0.6361  0.3236
 5719TIP3    H117093   4.236   6.352   0.009 -1.0581  2.2734  1.5962
 5719TIP3    H217094   4.166   6.230   0.065  0.5172 -0.2126 -1.7478
 5720TIP3   OH217095   4.010   0.284   2.892 -0.1977  0.1643  0.2214
 5720TIP3    H117096   4.076   0.319   2.953 -0.5502 -1.9605  1.8538
 5720TIP3    H217097   4.047   0.301   2.806  1.4967  0.9515  1.0703
 5721TIP3   OH217098   1.178   1.592   6.455  0.5449 -0.3807  0.0091
 5721TIP3    H117099   1.181   1.496   6.449 -1.1417 -0.4457  0.0126
 5721TIP3    H217100   1.085   1.613   6.452  0.8977  1.2515  0.2756
 5722TIP3   OH217101   1.284   7.549   3.808  0.0991  0.4663 -0.2264
 5722TIP3    H117102   1.230   7.493   3.752 -1.9470 -1.2398  3.2804
 5722TIP3    H217103   1.359   7.495   3.831  0.6055  0.9382 -0.7399
 5723TIP3   OH217104   4.736   0.161   3.511  0.1192  0.4560 -0.0132
 5723TIP3    H117105   4.816   0.120   3.544  1.7662  1.1956 -2.8425
 5723TIP3    H217106   4.681   0.173   3.588  2.3476 -0.9445  1.8640
 5724TIP3   OH217107   4.306   0.487   3.942  0.2773  1.0954  0.8302
 5724TIP3    H117108   4.314   0.483   3.847 -0.8254 -1.5813  0.8080
 5724TIP3    H217109   4.213   0.497   3.959  0.3506  0.4629  1.6536
 5725TIP3   OH217110   3.123   1.428   6.354 -0.0949  0.2729 -0.2986
 5725TIP3    H117111   3.152   1.349   6.400 -0.2167 -0.5964 -1.6621
 5725TIP3    H217112   3.030   1.434   6.374  0.1659  0.7666  0.7951
 5726TIP3   OH217113   1.616   7.948   3.338  1.0154  0.5087 -0.2677
 5726TIP3    H117114   1.552   7.888   3.378  0.9598  0.9281  0.2861
 5726TIP3    H217115   1.699   7.899   3.341  1.1082  0.7029  0.8024
 5727TIP3   OH217116   3.518   0.784   4.361  0.0080 -0.0770 -0.2622
 5727TIP3    H117117   3.613   0.790   4.354  0.1399  1.3716  1.8937
 5727TIP3    H217118   3.503   0.756   4.452 -1.6189  0.7306 -0.2607
 5728TIP3   OH217119   3.238   0.199   3.639  0.4888  0.1936 -0.3168
 5728TIP3    H117120   3.319   0.249   3.631  1.6148 -1.5243  0.0783
 5728TIP3    H217121   3.213   0.179   3.548  2.2710 -2.0066 -0.3587
 5729TIP3   OH217122   7.641   7.529   4.166  0.8100  0.0585 -0.6574
 5729TIP3    H117123   7.721   7.567   4.130  1.0265 -1.2180 -1.5677
 5729TIP3    H217124   7.572   7.592   4.145  1.4419  0.7483 -0.6481
 5730TIP3   OH217125   1.098   7.040   1.324 -0.0673  0.1230 -0.4876
 5730TIP3    H117126   1.061   6.995   1.400 -1.0991  4.0694  1.4844
 5730TIP3    H217127   1.036   7.111   1.305  2.8008  2.4154 -1.7366
 5731TIP3   OH217128   3.597   0.875   3.928 -0.4983 -0.3814 -0.1346
 5731TIP3    H117129   3.640   0.887   4.013 -0.0901 -0.4797 -0.3250
 5731TIP3    H217130   3.531   0.944   3.924 -2.1133 -1.7928  1.2657
 5732TIP3   OH217131   1.220   0.960   4.188  0.2057  0.5087  1.1288
 5732TIP3    H117132   1.205   0.908   4.109 -1.0704  0.0355  1.6611
 5732TIP3    H217133   1.230   1.050   4.156  1.3542  0.0984  0.2983
 5733TIP3   OH217134   3.844   0.948   2.294  0.6314  0.4525 -0.0480
 5733TIP3    H117135   3.815   1.039   2.286 -1.1709 -0.2012 -1.0873
 5733TIP3    H217136   3.766   0.896   2.276  1.7853 -1.3225 -0.0321
 5734TIP3   OH217137   4.766   0.597   4.824  0.1032 -0.0061 -0.6670
 5734TIP3    H117138   4.791   0.543   4.749  2.8269  1.7167 -1.0616
 5734TIP3    H217139   4.820   0.564   4.896 -0.7108 -0.0430 -0.0729
 5735TIP3   OH217140   3.540   2.193   3.636 -0.0701 -0.2578 -0.7443
 5735TIP3    H117141   3.576   2.204   3.548  0.0731  0.0199 -0.6531
 5735TIP3    H217142   3.616   2.199   3.694 -0.1590 -0.4859 -0.6045
 5736TIP3   OH217143   4.095   0.285   4.243 -0.2242  0.7645 -0.2458
 5736TIP3    H117144   4.184   0.252   4.255 -0.1802  0.7301 -0.6524
 5736TIP3    H217145   4.102   0.345   4.169 -0.7932 -0.2543 -1.1452
 5737TIP3   OH217146   0.992   1.182   4.998 -0.6035 -0.4483  0.0253
 5737TIP3    H117147   1.007   1.090   4.977  1.0490 -0.1375 -0.2044
 5737TIP3    H217148   0.897   1.188   5.014 -0.8149 -2.0522 -0.5591
 5738TIP3   OH217149   2.765   1.313   4.134 -0.5294 -0.5324 -0.4748
 5738TIP3    H117150   2.823   1.372   4.182 -2.0973  0.9110 -0.3304
 5738TIP3    H217151   2.772   1.341   4.043 -0.8876 -0.4557 -0.4786
 5739TIP3   OH217152   0.184   1.580   3.452  0.4234  0.3290  0.2848
 5739TIP3    H117153   0.153   1.651   3.396  1.1056  0.2684 -0.1711
 5739TIP3    H217154   0.134   1.504   3.423  0.9230  0.2537 -0.3823
 5740TIP3   OH217155   1.613  -0.017   4.260  0.4538  0.0627 -0.0955
 5740TIP3    H117156   1.611   0.070   4.298 -1.8991  0.5109 -1.1303
 5740TIP3    H217157   1.670  -0.009   4.183  0.1912  0.7102 -0.2248
 5741TIP3   OH217158   8.243   2.240   4.300 -0.0864  0.6644  0.0307
 5741TIP3    H117159   8.261   2.172   4.235  0.6951 -0.8149  1.7324
 5741TIP3    H217160   8.318   2.299   4.294  0.2455  0.2380 -0.0451
 5742TIP3   OH217161   1.435   7.555   3.300  0.3896 -0.3264  0.5586
 5742TIP3    H117162   1.442   7.571   3.206  2.3731 -0.4942  0.6592
 5742TIP3    H217163   1.443   7.641   3.340  0.3362 -0.3531  0.6285
 5743TIP3   OH217164   7.263   4.855   0.443  0.6263  0.3785 -0.0594
 5743TIP3    H117165   7.314   4.907   0.505  0.2697 -1.3558  1.7399
 5743TIP3    H217166   7.172   4.868   0.469  0.3740  0.5815 -0.9986
 5744TIP3   OH217167   2.881   1.667   5.649  0.2914 -0.3225 -0.2087
 5744TIP3    H117168   2.816   1.688   5.716 -0.4312 -0.5036 -0.8429
 5744TIP3    H217169   2.935   1.598   5.688 -2.2220 -2.8542 -1.0453
 5745TIP3   OH217170   8.021   7.798   3.380  0.2919 -0.2580  0.5233
 5745TIP3    H117171   8.057   7.777   3.467  0.4619 -2.1868  0.0177
 5745TIP3    H217172   8.097   7.792   3.321  0.1394  0.8543  0.2108
 5746TIP3   OH217173   3.729   0.501   4.339 -0.6192  0.0010  0.1894
 5746TIP3    H117174   3.794   0.559   4.298  2.1060 -1.5864  2.0938
 5746TIP3    H217175   3.685   0.459   4.265  0.8582  0.7489 -1.1635
 5747TIP3   OH217176   2.211   1.378   5.282  0.5636 -0.5205 -0.0288
 5747TIP3    H117177   2.187   1.455   5.231  2.3979 -0.5988 -1.0909
 5747TIP3    H217178   2.283   1.408   5.338 -0.7663 -0.6959  1.8010
 5748TIP3   OH217179   4.298   1.480   3.062  0.0761  0.0102  0.1574
 5748TIP3    H117180   4.375   1.515   3.017  0.4364 -0.6415  0.2542
 5748TIP3    H217181   4.291   1.532   3.141  0.8416 -0.3838  0.4935
 5749TIP3   OH217182   0.612   7.505   4.017 -0.3548  0.0973 -0.1556
 5749TIP3    H117183   0.582   7.472   4.102 -0.8043  0.4188 -0.1851
 5749TIP3    H217184   0.581   7.595   4.015  0.4672  0.3792 -0.2685
 5750TIP3   OH217185   1.499   1.964   2.968  0.1583  0.0165  0.3961
 5750TIP3    H117186   1.557   1.906   2.919  1.2674  0.4613  1.1757
 5750TIP3    H217187   1.449   1.904   3.024 -0.0920 -0.3577 -0.2143
 5751TIP3   OH217188   3.852   0.713   5.562  0.2423 -0.3078  0.2597
 5751TIP3    H117189   3.878   0.735   5.651  0.7615  2.3995 -0.5129
 5751TIP3    H217190   3.933   0.712   5.512 -0.1845 -0.6188 -0.4412
 5752TIP3   OH217191   5.249   0.442   2.640 -0.1052 -0.5970 -0.4982
 5752TIP3    H117192   5.228   0.449   2.734  1.7948 -0.8620 -0.0356
 5752TIP3    H217193   5.247   0.348   2.623 -3.2597 -0.4312 -1.4295
 5753TIP3   OH217194   3.856   3.046   4.100 -0.2414 -0.2344  0.6484
 5753TIP3    H117195   3.932   2.992   4.117  0.3201  0.1348 -0.6482
 5753TIP3    H217196   3.826   3.073   4.187  0.3454 -1.4047  1.2255
 5754TIP3   OH217197   1.530   7.701   4.815 -0.3221 -0.4117  0.7325
 5754TIP3    H117198   1.532   7.787   4.857 -2.0279  0.4494 -0.8797
 5754TIP3    H217199   1.606   7.701   4.756 -1.2650  0.6717 -0.5160
 5755TIP3   OH217200   3.896   1.906   6.468  0.4795  0.1838  0.2340
 5755TIP3    H117201   3.938   1.823   6.490  0.4208  0.6895  2.3863
 5755TIP3    H217202   3.921   1.922   6.377  0.8875 -1.9391 -0.0659
 5756TIP3   OH217203   7.803   6.331   3.589  0.1285  0.0460  0.1935
 5756TIP3    H117204   7.885   6.374   3.617  0.6667 -0.2620 -0.9014
 5756TIP3    H217205   7.831   6.265   3.526 -0.7905 -1.3506  1.2209
 5757TIP3   OH217206   3.963   0.593   6.132  0.7575  0.7786  0.4465
 5757TIP3    H117207   4.028   0.625   6.195  2.4339  0.0338 -0.8839
 5757TIP3    H217208   3.988   0.632   6.049 -2.3619  2.9875  0.4695
 5758TIP3   OH217209   3.342   0.417   2.900 -0.0817 -0.1052 -0.0385
 5758TIP3    H117210   3.333   0.499   2.852  0.6449 -0.2245 -0.3944
 5758TIP3    H217211   3.351   0.443   2.991  2.7675  0.3926 -0.4067
 5759TIP3   OH217212   3.967   2.856   4.870 -0.4564 -0.0191  0.1972
 5759TIP3    H117213   3.942   2.895   4.953  1.0388 -0.8775  1.0661
 5759TIP3    H217214   3.899   2.885   4.809 -0.4327  2.3527  1.2348
 5760TIP3   OH217215   1.674   0.859   6.610  0.1605  0.1697 -0.1308
 5760TIP3    H117216   1.628   0.939   6.583 -1.4336 -0.7145 -0.0907
 5760TIP3    H217217   1.761   0.889   6.636 -0.0486  1.7429 -1.1889
 5761TIP3   OH217218   0.314   7.054   4.297  0.0650 -0.9448 -0.7042
 5761TIP3    H117219   0.227   7.080   4.267 -0.2817  1.3026  2.0049
 5761TIP3    H217220   0.308   6.960   4.313 -2.5225 -0.4529  1.4770
 5762TIP3   OH217221   3.538   1.724   5.530  0.2925 -0.4569  0.0586
 5762TIP3    H117222   3.497   1.638   5.524 -1.5480  0.4161 -0.3367
 5762TIP3    H217223   3.548   1.740   5.624  1.2665 -1.3902  0.1133
 5763TIP3   OH217224   3.577   0.951   5.524 -0.4162 -0.1780  0.0544
 5763TIP3    H117225   3.651   0.942   5.583 -0.8464 -1.7643  0.3663
 5763TIP3    H217226   3.514   1.005   5.572  0.8111  1.7588 -0.4881
 5764TIP3   OH217227   4.468   1.259   2.417 -0.2556  0.6058 -0.5841
 5764TIP3    H117228   4.446   1.264   2.324  0.2687 -0.9250 -0.8133
 5764TIP3    H217229   4.556   1.220   2.419 -0.5572 -0.0580  0.5607
 5765TIP3   OH217230   2.672   7.734   5.723 -0.5136  0.5403  0.8181
 5765TIP3    H117231   2.747   7.755   5.779 -0.4319  1.3796  0.4037
 5765TIP3    H217232   2.710   7.720   5.636 -0.6413 -0.7418  0.9576
 5766TIP3   OH217233   5.803  -0.019   3.191  0.1894 -0.0440  0.4941
 5766TIP3    H117234   5.733   0.044   3.174  0.7828  0.1258 -1.4685
 5766TIP3    H217235   5.880   0.018   3.147  0.9079 -1.4218  0.5631
 5767TIP3   OH217236   7.749   3.865   0.691  0.3425 -0.6021  0.1484
 5767TIP3    H117237   7.768   3.927   0.762 -0.3317 -0.5720  0.3049
 5767TIP3    H217238   7.828   3.812   0.685  0.8873  0.1995  0.0865
 5768TIP3   OH217239   4.211   2.532   6.381 -0.2727 -0.0847 -0.0260
 5768TIP3    H117240   4.126   2.515   6.423 -0.5073 -0.9744 -0.8262
 5768TIP3    H217241   4.216   2.465   6.312  0.7732  0.4067 -0.4219
 5769TIP3   OH217242   3.044   0.451   4.115 -0.2033  0.8113  0.3809
 5769TIP3    H117243   3.074   0.410   4.034  0.3870  1.0497  0.4798
 5769TIP3    H217244   3.087   0.537   4.116 -0.2931  0.8492  0.8942
 5770TIP3   OH217245   3.147   1.224   5.205 -0.1197  0.1410 -1.0662
 5770TIP3    H117246   3.083   1.156   5.227  0.1922  0.0492 -0.4230
 5770TIP3    H217247   3.219   1.209   5.266  1.9867 -1.7698 -3.8578
 5771TIP3   OH217248   3.651   0.398   3.749 -0.3708 -0.0773 -0.0113
 5771TIP3    H117249   3.619   0.391   3.839 -3.7700 -1.6622 -1.2542
 5771TIP3    H217250   3.621   0.484   3.720 -2.0395 -0.8381 -0.6004
 5772TIP3   OH217251   2.202   1.613   5.133  0.1897 -0.5375  0.5110
 5772TIP3    H117252   2.108   1.624   5.120 -0.0363 -2.2893  0.4979
 5772TIP3    H217253   2.242   1.654   5.056 -0.5997 -0.5283  0.0999
 5773TIP3   OH217254   1.415   1.253   4.695 -0.0054  0.1029  0.1586
 5773TIP3    H117255   1.402   1.194   4.621  0.1446  2.6362 -1.9086
 5773TIP3    H217256   1.327   1.270   4.728 -0.0773 -0.9377  0.5403
 5774TIP3   OH217257   1.892   3.572   2.725  0.0622  0.3697  0.5852
 5774TIP3    H117258   1.796   3.571   2.725 -0.0009  1.8709  2.4674
 5774TIP3    H217259   1.917   3.479   2.731 -1.2120 -0.1673 -1.9059
 5775TIP3   OH217260   3.059   1.490   5.777  0.3109  0.3818 -0.0497
 5775TIP3    H117261   3.001   1.483   5.853 -0.2236 -0.4904 -0.5384
 5775TIP3    H217262   3.147   1.498   5.815  0.0206  0.1803  0.6685
 5776TIP3   OH217263   2.750   4.314   6.327 -0.1533 -0.0893  0.6780
 5776TIP3    H117264   2.668   4.266   6.324 -0.0129 -0.4930  2.8471
 5776TIP3    H217265   2.816   4.248   6.348 -0.1644  1.1840  5.2257
 5777TIP3   OH217266   6.425   5.785  -0.011  0.2669  0.3000  0.3175
 5777TIP3    H117267   6.512   5.805   0.023 -0.1734  1.4701  0.7650
 5777TIP3    H217268   6.406   5.697   0.023  2.1499 -0.8615 -1.5589
 5778TIP3   OH217269   4.874   0.776   4.586  0.2818  0.2447  0.5834
 5778TIP3    H117270   4.868   0.686   4.616 -0.0677  0.3287  0.7603
 5778TIP3    H217271   4.831   0.777   4.500 -0.3678  0.4001  0.9121
 5779TIP3   OH217272   2.391   7.847   4.101 -0.6310  0.5861  0.5668
 5779TIP3    H117273   2.306   7.820   4.137 -0.2357  0.7495  1.6267
 5779TIP3    H217274   2.378   7.937   4.072 -1.3978 -0.0632 -1.1720
 5780TIP3   OH217275   5.612   1.063   6.366  0.5417  0.4708 -0.0108
 5780TIP3    H117276   5.588   1.132   6.304  1.0957  0.8780  0.2280
 5780TIP3    H217277   5.707   1.067   6.371  0.4833  0.7297  1.1845
 5781TIP3   OH217278   2.240   1.146   6.669  0.1630 -0.0535 -0.4179
 5781TIP3    H117279   2.172   1.167   6.733 -0.5394  0.9978 -1.4793
 5781TIP3    H217280   2.321   1.179   6.708 -0.3522  1.1321 -0.3245
 5782TIP3   OH217281   3.204   0.153   3.367  0.6629  0.0139  0.5075
 5782TIP3    H117282   3.136   0.095   3.333  0.1981  0.1145  1.2398
 5782TIP3    H217283   3.281   0.135   3.313 -0.1436  0.4131 -0.8092
 5783TIP3   OH217284   0.179   5.261   4.759 -0.1123  0.0157 -1.1374
 5783TIP3    H117285   0.264   5.241   4.720  0.5180  2.0997 -0.8405
 5783TIP3    H217286   0.182   5.220   4.845 -0.2539 -1.7476 -1.9295
 5784TIP3   OH217287   0.694   5.923   4.805 -0.7505 -0.0371  0.2522
 5784TIP3    H117288   0.630   5.855   4.825  2.2500 -3.1092 -0.1743
 5784TIP3    H217289   0.670   5.954   4.717 -3.1092  0.6571  1.1160
 5785TIP3   OH217290   4.785   5.948   0.591 -0.0484 -0.0440  0.1933
 5785TIP3    H117291   4.742   5.874   0.548 -0.1416 -0.3792  0.8603
 5785TIP3    H217292   4.878   5.927   0.585 -0.0896 -0.4033  0.7020
 5786TIP3   OH217293   7.336   4.515   0.101  0.6004  0.1696  0.0060
 5786TIP3    H117294   7.404   4.496   0.165  1.6903  2.0947 -0.5496
 5786TIP3    H217295   7.270   4.564   0.151  0.2339 -0.5612  0.2423
 5787TIP3   OH217296   3.645   0.350   5.362 -0.4258 -0.4397 -0.4306
 5787TIP3    H117297   3.637   0.422   5.425 -0.7585  0.0855 -1.0652
 5787TIP3    H217298   3.556   0.319   5.349 -0.5529  0.4110 -1.7334
 5788TIP3   OH217299   3.939   0.617   4.242  0.0036  0.3641 -0.0228
 5788TIP3    H117300   4.026   0.619   4.280 -0.3200 -0.3821  0.7811
 5788TIP3    H217301   3.936   0.692   4.182  0.8329  0.9905  0.7257
 5789TIP3   OH217302   2.054   7.126   6.541 -0.0071  0.5920 -0.6580
 5789TIP3    H117303   2.076   7.060   6.606  1.2058  1.2549 -0.3804
 5789TIP3    H217304   2.093   7.093   6.460  0.3895  0.8505 -0.5713
 5790TIP3   OH217305   4.061   0.646   6.861 -0.0544 -0.1093  0.4921
 5790TIP3    H117306   3.968   0.637   6.839  0.3069  0.1262 -1.2010
 5790TIP3    H217307   4.078   0.576   6.924 -0.9533 -1.3515 -0.6147
 5791TIP3   OH217308   4.964   2.748   4.029  0.2631  0.3213 -0.3492
 5791TIP3    H117309   4.987   2.695   3.953  1.8241 -1.0211  1.0300
 5791TIP3    H217310   5.031   2.817   4.031 -0.0275  0.6114 -0.4141
 5792TIP3   OH217311   3.521   0.200   3.594 -0.7762  0.7786 -0.1401
 5792TIP3    H117312   3.551   0.222   3.506  0.0302 -0.3862 -0.1661
 5792TIP3    H217313   3.572   0.258   3.651 -0.6634  0.9176 -0.3791
 5793TIP3   OH217314   5.387   1.154   5.052 -0.2977 -0.0340 -0.2718
 5793TIP3    H117315   5.442   1.184   5.125 -0.7968  0.5142 -0.1070
 5793TIP3    H217316   5.301   1.142   5.092 -0.6329  0.5019 -0.8204
 5794TIP3   OH217317   1.564   7.991   3.722 -0.0354  0.5018 -0.1488
 5794TIP3    H117318   1.531   7.910   3.759 -0.7772  0.3392 -1.1402
 5794TIP3    H217319   1.486   8.037   3.691  0.5655  0.6422 -1.4804
 5795TIP3   OH217320   2.945   0.274   4.941 -0.3478 -0.5211  0.7307
 5795TIP3    H117321   3.027   0.271   4.891  0.1564 -0.9735  1.5722
 5795TIP3    H217322   2.878   0.242   4.880  0.3504 -1.6101  0.5191
 5796TIP3   OH217323   4.056   0.476   4.021  0.0796 -0.1083 -0.6883
 5796TIP3    H117324   3.991   0.535   4.060  0.1599 -1.8817  2.2790
 5796TIP3    H217325   4.005   0.416   3.967 -0.6227 -0.6016  0.5053
 5797TIP3   OH217326   3.457   5.761   0.191 -0.2318  0.3129  0.1978
 5797TIP3    H117327   3.429   5.760   0.283  0.4116 -1.1917  0.3947
 5797TIP3    H217328   3.375   5.762   0.142 -0.5899  0.3057  0.7893
 5798TIP3   OH217329   4.028   2.070   5.807 -0.0686 -0.3679  0.2267
 5798TIP3    H117330   3.963   2.008   5.773 -0.1790 -0.7340  1.1026
 5798TIP3    H217331   4.027   2.142   5.744  0.0986 -1.2790 -0.8249
 5799TIP3   OH217332   4.037   0.342   6.867  0.8095  1.0051  0.4893
 5799TIP3    H117333   4.103   0.281   6.835 -1.9451 -1.2832 -1.1579
 5799TIP3    H217334   3.991   0.371   6.788 -1.3619  1.0372  1.7133
 5800TIP3   OH217335   3.296   0.979   3.760 -0.4219  0.0163 -0.1243
 5800TIP3    H117336   3.258   1.012   3.841 -0.9354 -1.6450  0.3417
 5800TIP3    H217337   3.333   1.056   3.718  0.0456  0.8783  1.7906
 5801TIP3   OH217338   4.548   2.626   1.385  0.6266  0.0582  0.0891
 5801TIP3    H117339   4.598   2.643   1.305 -1.1333  1.1536 -0.8343
 5801TIP3    H217340   4.581   2.689   1.448 -0.1615  1.3907 -0.7900
 5802TIP3   OH217341   3.060   0.650   3.043 -0.4022  0.0809 -0.6250
 5802TIP3    H117342   3.109   0.605   2.973 -2.4206 -1.5874 -1.0017
 5802TIP3    H217343   3.099   0.616   3.124 -1.5353 -2.0185 -0.9106
 5803TIP3   OH217344   2.811   2.105   3.249  0.8259  0.0953 -0.3475
 5803TIP3    H117345   2.820   2.163   3.324  1.0202  0.1859 -0.4389
 5803TIP3    H217346   2.797   2.018   3.287  0.6837  0.1792 -0.2094
 5804TIP3   OH217347   0.682   6.961   2.762 -0.1689  0.5268 -0.1750
 5804TIP3    H117348   0.671   7.051   2.794 -1.3015  0.9542 -1.7200
 5804TIP3    H217349   0.604   6.915   2.792  0.0408  0.2454 -0.0544
 5805TIP3   OH217350   3.060   2.335   5.607  1.0561 -0.6704  0.0335
 5805TIP3    H117351   3.142   2.363   5.650  1.1307 -0.9589  0.0832
 5805TIP3    H217352   3.089   2.281   5.533  0.9275 -0.0843 -0.4453
 5806TIP3   OH217353   6.646   7.903   4.290 -0.0443 -0.0607 -0.5932
 5806TIP3    H117354   6.700   7.835   4.249  1.3570  0.9656 -0.4925
 5806TIP3    H217355   6.611   7.862   4.369  2.8918  0.1073  0.8712
 5807TIP3   OH217356   3.933   0.847   3.099 -0.2651 -0.7271 -0.1117
 5807TIP3    H117357   3.995   0.839   3.026 -0.3505  2.2321 -0.5769
 5807TIP3    H217358   3.969   0.919   3.152 -2.3113 -0.2416  0.6351
 5808TIP3   OH217359   5.051   3.520   4.544 -0.0866 -0.4002  0.1030
 5808TIP3    H117360   5.103   3.535   4.622  0.3563 -0.3008 -0.2133
 5808TIP3    H217361   5.113   3.523   4.472 -0.6855  0.7688 -0.3767
 5809TIP3   OH217362   2.736   1.806   4.404  0.2086 -0.2506  0.0175
 5809TIP3    H117363   2.821   1.843   4.378  0.0382 -0.5777 -1.0701
 5809TIP3    H217364   2.698   1.776   4.321 -0.4271 -1.2246  0.6572
 5810TIP3   OH217365   3.705   2.632   4.827 -0.0629  0.2709  0.2502
 5810TIP3    H117366   3.641   2.693   4.791 -0.5289  0.0778  0.7492
 5810TIP3    H217367   3.687   2.630   4.921  1.9113  1.6726  0.6903
 5811TIP3   OH217368   4.598   1.965   4.631  0.1218 -0.3098  0.2068
 5811TIP3    H117369   4.512   1.950   4.592  0.4524  1.1101 -1.1195
 5811TIP3    H217370   4.585   2.041   4.689  0.7794  0.8216 -1.0963
 5812TIP3   OH217371   1.538   7.889   4.178 -0.0543  0.7193 -0.0061
 5812TIP3    H117372   1.539   7.966   4.122 -0.8202  1.3765  0.8715
 5812TIP3    H217373   1.491   7.823   4.128 -0.0408  1.0533 -0.4587
 5813TIP3   OH217374   1.179   7.890   3.135  0.5424  0.0247 -0.5690
 5813TIP3    H117375   1.254   7.948   3.147 -0.2818  1.0308 -0.2246
 5813TIP3    H217376   1.172   7.879   3.041  0.6642  0.5447 -0.6405
 5814TIP3   OH217377   4.388   0.266   2.980  0.0814 -0.5825  0.1542
 5814TIP3    H117378   4.306   0.315   2.971  0.6791  0.2845 -0.5423
 5814TIP3    H217379   4.415   0.282   3.070  1.1466  1.7420 -0.5575
 5815TIP3   OH217380   5.541   1.630   2.959  0.3001 -0.3546  0.6987
 5815TIP3    H117381   5.515   1.694   2.892  1.8996  0.2207  0.6146
 5815TIP3    H217382   5.517   1.545   2.921 -0.2798  0.0696  0.0897
 5816TIP3   OH217383   3.119   7.676   6.672  0.0762  0.2060 -0.8330
 5816TIP3    H117384   3.046   7.678   6.611  0.3446 -2.0451 -1.2809
 5816TIP3    H217385   3.089   7.726   6.748 -1.4077  0.4382 -1.5584
 5817TIP3   OH217386   4.607   2.228   4.739  0.4497 -0.1933  0.3091
 5817TIP3    H117387   4.677   2.263   4.793 -0.4887  0.6017  1.0334
 5817TIP3    H217388   4.618   2.272   4.654 -0.2001  1.2473  0.9476
 5818TIP3   OH217389   2.525   7.534   6.735  0.2751 -0.8747  0.0892
 5818TIP3    H117390   2.451   7.475   6.724  0.2542 -0.8807  0.2614
 5818TIP3    H217391   2.593   7.499   6.677 -0.1365 -0.4020 -0.6828
 5819TIP3   OH217392   4.896   0.085   3.723  0.2393 -0.1246  0.1511
 5819TIP3    H117393   4.930   0.157   3.777  2.0539 -0.9108  0.1063
 5819TIP3    H217394   4.808   0.069   3.757 -0.7306  2.9656 -0.7077
 5820TIP3   OH217395   4.477   1.357   6.108  0.4337 -0.1192 -0.2884
 5820TIP3    H117396   4.474   1.432   6.048 -0.1488  1.0478  1.1461
 5820TIP3    H217397   4.412   1.379   6.175  3.6835  0.3860  2.8079
 5821TIP3   OH217398   0.739   7.115   5.013 -1.0173  0.2327  0.4562
 5821TIP3    H117399   0.737   7.039   5.071  0.0591  0.3165  0.6194
 5821TIP3    H217400   0.786   7.182   5.064 -0.9546  0.6317 -0.1277
 5822TIP3   OH217401   6.210   1.286   6.034 -0.0209 -0.6261  0.2791
 5822TIP3    H117402   6.211   1.231   6.112 -1.3291 -0.5092  0.3801
 5822TIP3    H217403   6.210   1.224   5.961  2.6085 -0.7393  0.3269
 5823TIP3   OH217404   3.394   0.490   4.806  0.7267 -0.1988 -0.3349
 5823TIP3    H117405   3.481   0.510   4.771  0.9682 -0.7932 -0.0929
 5823TIP3    H217406   3.366   0.413   4.758  1.3338 -1.4002  1.1845
 5824TIP3   OH217407   5.524   0.015   4.930  0.7891  0.3002 -0.0008
 5824TIP3    H117408   5.555   0.090   4.981  0.0530  0.9000 -0.4287
 5824TIP3    H217409   5.571   0.022   4.847  1.6086 -0.3948  0.3857
 5825TIP3   OH217410   7.346   0.613   6.894  0.3603  0.0416 -0.1522
 5825TIP3    H117411   7.319   0.564   6.971  1.4989  2.4085  1.8098
 5825TIP3    H217412   7.395   0.549   6.841 -0.5615 -1.6420  0.9764
 5826TIP3   OH217413   5.070   1.786   4.903 -0.0922 -0.2292  0.2261
 5826TIP3    H117414   5.150   1.768   4.855  0.4486  0.3771  0.9008
 5826TIP3    H217415   5.069   1.881   4.915 -0.4921 -0.3169  0.9394
 5827TIP3   OH217416   5.480   0.903   4.434 -0.3826 -0.0767 -0.2851
 5827TIP3    H117417   5.572   0.891   4.458 -0.2968  1.6203  0.2644
 5827TIP3    H217418   5.437   0.929   4.516 -0.7595  2.2619 -1.2021
 5828TIP3   OH217419   0.196   6.639   4.073 -0.0674 -0.3570  0.1362
 5828TIP3    H117420   0.251   6.696   4.020 -0.3249  0.7468  1.0356
 5828TIP3    H217421   0.253   6.608   4.143 -0.2448 -0.2166  0.3462
 5829TIP3   OH217422   3.118   2.281   6.538  0.0545 -0.3983  0.0018
 5829TIP3    H117423   3.120   2.186   6.548 -1.6478 -0.3455  1.2400
 5829TIP3    H217424   3.142   2.297   6.447  0.5921 -2.0038 -0.1497
 5830TIP3   OH217425   4.330   0.002   2.437  0.6713 -0.0140  0.2886
 5830TIP3    H117426   4.313   0.093   2.461 -1.0038 -0.0550 -0.6751
 5830TIP3    H217427   4.302  -0.004   2.346  2.5011 -1.0491 -0.2289
 5831TIP3   OH217428   6.812   0.604   3.183 -0.1137 -0.2623 -0.1765
 5831TIP3    H117429   6.809   0.587   3.277  0.1437  1.2348  0.1273
 5831TIP3    H217430   6.776   0.525   3.143 -3.4960  0.4139  1.3502
 5832TIP3   OH217431   5.694   1.417   4.635  0.1055  0.5595  0.6371
 5832TIP3    H117432   5.604   1.448   4.623 -0.3720 -0.9826  0.0923
 5832TIP3    H217433   5.721   1.453   4.720 -0.3877  2.4856  0.0036
 5833TIP3   OH217434   5.566   1.243   4.853  0.0103 -0.2466  0.0358
 5833TIP3    H117435   5.652   1.202   4.855  0.3937  0.5014 -0.7208
 5833TIP3    H217436   5.519   1.203   4.926  0.7112 -1.2725 -0.0553
 5834TIP3   OH217437   8.090   3.981   0.625 -0.2535  0.4099 -0.6004
 5834TIP3    H117438   8.155   3.923   0.665 -0.7164  0.0587 -0.3589
 5834TIP3    H217439   8.099   3.966   0.531  0.3058  0.6725 -0.5910
 5835TIP3   OH217440   1.595   7.592   2.601  0.0163 -0.6724  0.3448
 5835TIP3    H117441   1.575   7.686   2.601 -0.1292 -0.7022  0.4898
 5835TIP3    H217442   1.674   7.584   2.654  0.4832 -0.5372 -0.3360
 5836TIP3   OH217443   3.367   6.637   4.970  0.6093  0.2127 -0.8434
 5836TIP3    H117444   3.300   6.607   4.908  0.0678 -0.8486  0.2377
 5836TIP3    H217445   3.393   6.558   5.017 -0.1397  1.2557  1.3867
 5837TIP3   OH217446   1.799   7.949   5.669  0.0671  0.8663  0.4540
 5837TIP3    H117447   1.775   7.902   5.589  0.8091 -0.4458  0.9805
 5837TIP3    H217448   1.718   7.991   5.698 -0.1033  1.7734 -1.2431
 5838TIP3   OH217449   4.513   1.165   1.571 -0.2136 -0.3431 -0.2096
 5838TIP3    H117450   4.602   1.158   1.538  0.0974  0.4939  0.4316
 5838TIP3    H217451   4.485   1.254   1.547 -0.2102  0.0517  1.1865
 5839TIP3   OH217452   1.864   7.868   4.963 -0.0243 -0.1748  0.0698
 5839TIP3    H117453   1.797   7.848   5.028 -0.0940 -1.4099 -0.3631
 5839TIP3    H217454   1.942   7.892   5.014 -0.6965  0.9727  0.5752
 5840TIP3   OH217455   5.127   0.848   2.564  0.4277  0.3809 -0.0445
 5840TIP3    H117456   5.161   0.780   2.506  0.4314  1.3646 -1.1960
 5840TIP3    H217457   5.114   0.924   2.508  0.1189  1.2441  1.1785
 5841TIP3   OH217458   5.842   1.719   6.189 -0.3613 -0.4732  0.5634
 5841TIP3    H117459   5.936   1.700   6.192 -0.4312 -0.8425  0.5062
 5841TIP3    H217460   5.809   1.686   6.273 -0.3617  0.0876  0.7819
 5842TIP3   OH217461   4.506   1.121   5.317  0.0427 -0.9352  0.3352
 5842TIP3    H117462   4.430   1.080   5.275  0.0906 -0.6561 -0.0229
 5842TIP3    H217463   4.491   1.215   5.307 -0.7956 -0.8078  2.4270
 5843TIP3   OH217464   2.034   6.904   5.642 -0.5450 -0.0513  0.1187
 5843TIP3    H117465   1.965   6.848   5.678  0.3393 -0.3640  1.3506
 5843TIP3    H217466   2.006   6.993   5.665 -1.0592 -0.1039 -0.2960
 5844TIP3   OH217467   5.147   1.617   5.752  0.1155  0.7204  0.0140
 5844TIP3    H117468   5.234   1.581   5.767 -1.3567 -2.1502  2.1273
 5844TIP3    H217469   5.103   1.552   5.698 -2.1789 -0.0982  2.7792
 5845TIP3   OH217470   3.153   2.737   6.204 -0.0904  0.1944  0.6653
 5845TIP3    H117471   3.094   2.782   6.265 -0.8793 -2.2218  1.7610
 5845TIP3    H217472   3.098   2.714   6.130  0.1687  0.5302  0.3696
 5846TIP3   OH217473   2.934   4.823   0.728  0.7082  0.0715  0.3565
 5846TIP3    H117474   2.952   4.736   0.763  2.2954 -0.7955 -2.4503
 5846TIP3    H217475   3.006   4.877   0.760  0.2602  0.1473  1.2676
 5847TIP3   OH217476   4.152   2.385   3.163 -0.1081  0.4119 -0.0392
 5847TIP3    H117477   4.057   2.391   3.171 -0.1217  0.4960 -0.2640
 5847TIP3    H217478   4.166   2.312   3.102 -0.0131 -0.0197  0.4907
 5848TIP3   OH217479   7.981   6.066   0.558 -0.3150 -0.3828 -0.5942
 5848TIP3    H117480   7.967   6.158   0.581  0.9180 -0.2649 -0.2716
 5848TIP3    H217481   8.071   6.048   0.586 -0.0882 -1.3139 -1.8781
 5849TIP3   OH217482   5.649   0.951   3.289 -0.2664 -0.0247 -0.1983
 5849TIP3    H117483   5.660   1.045   3.302 -1.2606 -0.1505  1.7120
 5849TIP3    H217484   5.630   0.943   3.195  0.3031  1.6189 -0.4813
 5850TIP3   OH217485   4.831   0.217   4.368 -0.1279  0.0261 -0.4486
 5850TIP3    H117486   4.752   0.267   4.344 -0.4156 -0.1510  0.1176
 5850TIP3    H217487   4.799   0.149   4.428  0.6577  0.7641  0.8250
 5851TIP3   OH217488   1.053   7.810   4.911  0.3082  0.5037  0.0556
 5851TIP3    H117489   0.995   7.741   4.879 -0.8743  1.7485 -0.5307
 5851TIP3    H217490   1.126   7.811   4.850  1.3989 -1.6429  1.2745
 5852TIP3   OH217491   2.102   3.007   3.862  0.1937  0.0100 -0.4393
 5852TIP3    H117492   2.079   3.099   3.845  0.1611  0.3150  1.1694
 5852TIP3    H217493   2.156   3.010   3.940 -1.1896 -1.4870  0.6119
 5853TIP3   OH217494   5.392   1.623   4.924  0.1221 -0.4614  0.3912
 5853TIP3    H117495   5.407   1.717   4.915 -2.0397 -0.2177 -1.1538
 5853TIP3    H217496   5.341   1.614   5.005  2.4864 -0.5843  1.8929
 5854TIP3   OH217497   6.094   1.581   4.855 -0.3809 -0.4010 -0.2185
 5854TIP3    H117498   6.101   1.518   4.926 -1.2761  0.3015  0.5137
 5854TIP3    H217499   6.128   1.535   4.778 -1.6105 -1.9703  0.1657
 5855TIP3   OH217500   3.438   1.424   3.818  0.1423 -0.1907  0.5731
 5855TIP3    H117501   3.485   1.448   3.898 -1.1876  0.0859  1.2831
 5855TIP3    H217502   3.384   1.500   3.798  0.1085 -0.4488 -0.3210
 5856TIP3   OH217503   8.496   4.372   0.223  0.1048 -0.3057  0.1483
 5856TIP3    H117504   8.470   4.398   0.135  1.2703  1.2450  0.2322
 5856TIP3    H217505   8.483   4.277   0.226 -0.5814 -0.2613 -1.4629
 5857TIP3   OH217506   5.983   0.521   4.629 -0.2787 -0.2034 -0.0437
 5857TIP3    H117507   6.002   0.436   4.589  0.1188 -0.3135  0.3703
 5857TIP3    H217508   5.889   0.519   4.647 -0.8071  0.5539 -2.5985
 5858TIP3   OH217509   5.850   1.690   2.772 -0.9408  0.3910 -0.3310
 5858TIP3    H117510   5.833   1.695   2.866 -0.4968  1.7523 -0.3221
 5858TIP3    H217511   5.854   1.596   2.754  4.4693 -0.0225  2.0115
 5859TIP3   OH217512   6.456   0.243   4.985  0.3700  0.1133  0.0281
 5859TIP3    H117513   6.451   0.181   4.912  1.0586 -1.5551  1.3518
 5859TIP3    H217514   6.406   0.201   5.055  1.6444  0.5964  1.2587
 5860TIP3   OH217515   3.076   1.243   4.438  0.5313 -0.3721  0.5878
 5860TIP3    H117516   3.001   1.287   4.477  0.7921 -1.0849  1.9115
 5860TIP3    H217517   3.080   1.157   4.481  2.2302 -0.2612  0.7063
 5861TIP3   OH217518   0.456   4.406   0.535 -0.3605  0.2904  0.5351
 5861TIP3    H117519   0.531   4.372   0.485 -1.4082 -0.9887 -0.2005
 5861TIP3    H217520   0.423   4.479   0.483  0.9060  1.4383  1.3083
 5862TIP3   OH217521   5.877   0.455   2.394 -0.0626 -0.0741 -0.7061
 5862TIP3    H117522   5.871   0.550   2.379 -0.0654  0.4745  2.3960
 5862TIP3    H217523   5.804   0.436   2.452 -0.2692 -2.0632 -1.6041
 5863TIP3   OH217524   3.327   1.470   5.855 -0.4098 -0.0280 -0.3085
 5863TIP3    H117525   3.369   1.384   5.859 -3.7706 -1.6885  1.0729
 5863TIP3    H217526   3.379   1.524   5.914  0.7406 -1.5499  0.1155
 5864TIP3   OH217527   1.164   6.314   3.169  0.2021  0.3645 -0.4292
 5864TIP3    H117528   1.246   6.357   3.146 -0.1992  0.3756 -1.9081
 5864TIP3    H217529   1.136   6.271   3.088 -0.1269 -1.4806  0.6442
 5865TIP3   OH217530   6.019   1.505   6.627  0.4624 -0.7265 -0.0547
 5865TIP3    H117531   6.114   1.515   6.621  0.6403 -1.3618  1.3826
 5865TIP3    H217532   6.006   1.410   6.634 -0.2966 -0.6500 -0.3592
 5866TIP3   OH217533   7.001   1.798   4.983 -0.1958 -0.0840  0.4991
 5866TIP3    H117534   6.967   1.711   5.005  1.1697 -0.9900 -0.8980
 5866TIP3    H217535   7.081   1.806   5.035  0.1215 -0.0050 -0.0011
 5867TIP3   OH217536   4.482   1.106   3.716  0.2461 -0.2291 -0.3882
 5867TIP3    H117537   4.524   1.020   3.714 -2.4486 -1.6110 -0.5127
 5867TIP3    H217538   4.400   1.093   3.669  0.0482  2.5847 -0.8882
 5868TIP3   OH217539   4.507   3.695   5.265  0.2128 -0.1971  0.2963
 5868TIP3    H117540   4.564   3.752   5.212 -0.4502  1.9711  1.8605
 5868TIP3    H217541   4.478   3.751   5.337 -0.9563 -2.3686  1.5424
 5869TIP3   OH217542   5.230   0.259   4.652 -0.5545 -0.1626 -0.0400
 5869TIP3    H117543   5.195   0.191   4.711  0.5060  0.4322  1.3096
 5869TIP3    H217544   5.180   0.249   4.571 -2.1268 -0.9318  1.0014
 5870TIP3   OH217545   4.958   2.263   2.306  0.4465 -0.3168  0.0338
 5870TIP3    H117546   4.945   2.292   2.396 -1.0436  1.2013 -0.6358
 5870TIP3    H217547   4.871   2.232   2.279  0.6227  0.2597 -1.2156
 5871TIP3   OH217548   8.075   4.731   5.123 -0.0214 -0.1362  0.4571
 5871TIP3    H117549   8.004   4.742   5.060  0.3731 -0.3277 -0.0237
 5871TIP3    H217550   8.078   4.814   5.171 -1.2485 -0.4983  1.1836
 5872TIP3   OH217551   3.475   1.619   6.033 -0.5593  0.5438  0.1148
 5872TIP3    H117552   3.404   1.653   6.087  0.0166  0.3022  1.0415
 5872TIP3    H217553   3.545   1.600   6.096 -0.3835 -1.0590 -0.5505
 5873TIP3   OH217554   6.500   1.375   5.614  0.5520 -0.1494 -0.3028
 5873TIP3    H117555   6.504   1.426   5.696  0.8514 -0.2410 -0.2606
 5873TIP3    H217556   6.459   1.293   5.640  0.3383 -0.0455 -0.3106
 5874TIP3   OH217557   5.924   1.664   5.126  0.1945  0.1190 -0.2898
 5874TIP3    H117558   5.876   1.743   5.103 -0.3016 -0.1078 -0.0408
 5874TIP3    H217559   5.934   1.617   5.042 -1.2159 -0.4872 -0.1404
 5875TIP3   OH217560   2.813   0.594   5.525 -0.1493 -0.3915  0.2840
 5875TIP3    H117561   2.833   0.504   5.500 -2.7969 -0.8331 -0.4232
 5875TIP3    H217562   2.838   0.646   5.449  1.8251 -0.4516  0.8716
 5876TIP3   OH217563   6.397   1.175   6.607  0.6297 -0.0518  0.4688
 5876TIP3    H117564   6.383   1.129   6.525  0.2676  0.2240  0.3728
 5876TIP3    H217565   6.470   1.235   6.589  1.5947 -1.1068  0.8113
 5877TIP3   OH217566   4.168   1.430   5.492  0.0907  0.5665 -0.2748
 5877TIP3    H117567   4.096   1.488   5.467 -1.3620 -1.0611  0.1243
 5877TIP3    H217568   4.236   1.490   5.523 -0.1595  2.2803 -2.8621
 5878TIP3   OH217569   4.907   0.480   4.608 -0.0831  0.3738 -0.7331
 5878TIP3    H117570   4.920   0.433   4.526  0.2483 -2.9775  1.1040
 5878TIP3    H217571   4.989   0.527   4.623  0.1528  0.3330 -1.9078
 5879TIP3   OH217572   5.585   0.063   4.657  0.1380  0.3151 -0.2381
 5879TIP3    H117573   5.586  -0.010   4.596 -0.8317 -0.2304  0.3875
 5879TIP3    H217574   5.513   0.119   4.627  0.4795  0.7044 -0.3464
 5880TIP3   OH217575   4.861   0.359   2.559 -0.0294 -0.0157  0.4229
 5880TIP3    H117576   4.861   0.354   2.654 -3.5973  0.8240  0.5335
 5880TIP3    H217577   4.768   0.350   2.534  0.7335  0.5819 -2.9089
 5881TIP3   OH217578   0.149   3.193   0.973 -0.0869  0.0323 -0.4890
 5881TIP3    H117579   0.088   3.245   1.025 -1.0537 -0.1273 -1.4418
 5881TIP3    H217580   0.145   3.105   1.013  0.6397  0.3770  0.3646
 5882TIP3   OH217581   5.396   1.960   4.880  0.1045  0.2187 -0.0734
 5882TIP3    H117582   5.380   1.900   4.807 -1.8288  1.0526 -0.3628
 5882TIP3    H217583   5.309   1.990   4.906  0.6261 -1.1423  3.5343
 5883TIP3   OH217584   4.117   2.325   4.842 -0.0242 -0.1756 -0.1914
 5883TIP3    H117585   4.192   2.306   4.786 -0.2274 -0.4387 -0.3779
 5883TIP3    H217586   4.083   2.408   4.810  0.0146 -0.1987 -0.2934
 5884TIP3   OH217587   3.241   7.984   3.696  0.5019  0.3798  0.1278
 5884TIP3    H117588   3.183   8.021   3.630  0.7740  0.4459 -0.0739
 5884TIP3    H217589   3.311   7.942   3.646  0.5634  0.1945  0.3679
 5885TIP3   OH217590   4.338   1.007   4.607 -0.0842 -0.4686 -0.2007
 5885TIP3    H117591   4.423   0.980   4.642  0.3818  1.0129 -0.1212
 5885TIP3    H217592   4.292   0.925   4.588  1.2354 -1.2856  0.0586
 5886TIP3   OH217593   4.857   2.045   4.571 -0.4940 -0.6845 -0.3278
 5886TIP3    H117594   4.865   2.083   4.659  0.7343 -1.3709 -0.1364
 5886TIP3    H217595   4.763   2.031   4.560 -0.7524  0.3570  0.4756
 5887TIP3   OH217596   5.203   0.210   6.633  0.2719 -0.2268  0.0108
 5887TIP3    H117597   5.281   0.246   6.674  1.0414 -1.7867 -0.0377
 5887TIP3    H217598   5.140   0.202   6.704  0.1587  0.9889  0.0585
 5888TIP3   OH217599   5.023   1.559   5.091 -0.0430  0.2197  0.2677
 5888TIP3    H117600   5.096   1.600   5.137 -0.2654 -0.6688  1.4400
 5888TIP3    H217601   5.023   1.600   5.005  0.2816  2.0359  1.1070
 5889TIP3   OH217602   6.397   0.333   5.479  0.3681 -0.0917 -0.7604
 5889TIP3    H117603   6.333   0.286   5.427 -0.0855 -0.0909 -0.2052
 5889TIP3    H217604   6.381   0.426   5.460 -0.8436 -0.0040  0.5666
 5890TIP3   OH217605   5.393   2.634   5.169  0.0877 -0.4827  0.4797
 5890TIP3    H117606   5.417   2.724   5.146  0.4842 -0.5266  0.7143
 5890TIP3    H217607   5.340   2.644   5.248 -0.7102 -0.3830 -0.0597
 5891TIP3   OH217608   4.205   3.291   4.043  0.1045 -0.5890  0.0171
 5891TIP3    H117609   4.224   3.384   4.035 -0.4108 -0.5985 -1.7498
 5891TIP3    H217610   4.222   3.255   3.956 -0.9736 -1.8902  0.3041
 5892TIP3   OH217611   5.256   1.121   2.761 -0.0364 -0.2313 -0.6480
 5892TIP3    H117612   5.324   1.062   2.729 -0.0653 -0.8216  0.3907
 5892TIP3    H217613   5.276   1.134   2.853 -1.4098 -0.5100 -0.2976
 5893TIP3   OH217614   2.970   1.173   6.562  0.0264 -0.5280  0.2154
 5893TIP3    H117615   2.895   1.117   6.579 -0.3229 -0.4275 -0.9601
 5893TIP3    H217616   2.964   1.194   6.469  0.8124  0.4964  0.3853
 5894TIP3   OH217617   4.264   0.912   5.678 -0.2457 -0.1678 -0.2860
 5894TIP3    H117618   4.250   0.926   5.584 -0.7056 -1.0106 -0.3514
 5894TIP3    H217619   4.184   0.945   5.719 -0.7016 -1.2204 -0.3201
 5895TIP3   OH217620   4.093   1.501   5.002  0.0091 -0.1421  0.1070
 5895TIP3    H117621   3.999   1.485   4.997  0.0963 -0.2343 -1.4754
 5895TIP3    H217622   4.106   1.584   4.956  0.4123  1.1395  2.4457
 5896TIP3   OH217623   3.847   2.212   4.710 -0.0986 -0.2233 -0.0460
 5896TIP3    H117624   3.881   2.136   4.663  0.8624  0.3758 -0.3316
 5896TIP3    H217625   3.917   2.235   4.771 -0.6372  0.0588  0.4709
 5897TIP3   OH217626   8.152   4.821   0.696 -0.3067 -0.4780 -0.5247
 5897TIP3    H117627   8.211   4.801   0.623  1.4975 -0.9741  1.0201
 5897TIP3    H217628   8.182   4.764   0.767 -0.7715  1.3834  1.2134
 5898TIP3   OH217629   4.068   2.230   5.384 -0.2569  0.2793 -0.5113
 5898TIP3    H117630   4.023   2.312   5.364 -0.2156  0.1181 -1.2621
 5898TIP3    H217631   4.004   2.180   5.436  0.3171  1.4464  1.3572
 5899TIP3   OH217632   5.280   1.740   6.080  0.3341 -0.4393 -0.4125
 5899TIP3    H117633   5.185   1.732   6.075 -0.0630 -0.0079  3.8841
 5899TIP3    H217634   5.313   1.653   6.055 -1.2713 -1.0216 -0.5550
 5900TIP3   OH217635   3.115   7.636   5.856  0.1012 -0.1608 -0.0753
 5900TIP3    H117636   3.080   7.571   5.796 -1.5280  0.2727  0.3674
 5900TIP3    H217637   3.043   7.654   5.916  0.6593  1.7423  0.0606
 5901TIP3   OH217638   5.927   2.255   4.312  0.0221 -0.5488 -0.5000
 5901TIP3    H117639   5.842   2.283   4.344 -0.8046  0.2419 -3.2452
 5901TIP3    H217640   5.912   2.166   4.278  0.2585 -0.3842 -1.0457
 5902TIP3   OH217641   5.549   7.179   1.800 -0.4671 -0.4476  0.0269
 5902TIP3    H117642   5.592   7.115   1.744 -1.5790  0.3027 -1.7081
 5902TIP3    H217643   5.484   7.127   1.849 -1.0956 -0.7251 -1.0814
 5903TIP3   OH217644   4.066   8.016   4.493 -0.2552 -0.2983 -0.1789
 5903TIP3    H117645   4.016   8.071   4.552  0.6723 -0.3248  0.6537
 5903TIP3    H217646   4.006   7.945   4.469 -0.6828 -0.2075  0.6130
 5904TIP3   OH217647   4.251   1.534   4.680  0.3694 -0.1645  0.1616
 5904TIP3    H117648   4.198   1.545   4.601 -1.3979  0.8815  1.4695
 5904TIP3    H217649   4.287   1.446   4.672  1.3055  0.3910 -2.4455
 5905TIP3   OH217650   8.351   5.122   3.857 -0.1328 -0.2163 -0.2083
 5905TIP3    H117651   8.284   5.096   3.793  1.0141 -0.7760 -1.2063
 5905TIP3    H217652   8.415   5.172   3.805 -0.4519  1.4917  0.9933
 5906TIP3   OH217653   3.714   1.130   5.028  0.2838  0.0564  0.2487
 5906TIP3    H117654   3.692   1.068   5.098  0.8891  0.3248  0.6881
 5906TIP3    H217655   3.718   1.077   4.949  0.8807 -0.4843  0.6380
 5907TIP3   OH217656   1.785   6.746   5.786 -0.0537  0.1945  0.1868
 5907TIP3    H117657   1.731   6.688   5.840  0.2817  0.0804  0.4083
 5907TIP3    H217658   1.819   6.811   5.848  2.8686 -1.7705  0.7368
 5908TIP3   OH217659   1.684   7.526   2.890 -0.1736 -0.6022 -0.5860
 5908TIP3    H117660   1.754   7.548   2.952 -1.1373  0.2658  0.2251
 5908TIP3    H217661   1.705   7.438   2.859  0.5740 -0.8658  0.6447
 5909TIP3   OH217662   5.325   0.688   3.032 -0.2985 -0.0928 -0.0132
 5909TIP3    H117663   5.286   0.711   3.117  0.1809  1.7971 -0.2875
 5909TIP3    H217664   5.251   0.688   2.971 -0.3416  0.4289  0.0419
 5910TIP3   OH217665   7.145   1.510   6.346 -0.5885  0.1160  0.1322
 5910TIP3    H117666   7.187   1.433   6.307  1.3430  0.3414  1.6622
 5910TIP3    H217667   7.080   1.473   6.407 -0.4271 -0.2840  0.0637
 5911TIP3   OH217668   5.208   1.314   2.223  0.2131 -0.0120  0.1585
 5911TIP3    H117669   5.200   1.348   2.312  0.1338  0.4919 -0.0410
 5911TIP3    H217670   5.137   1.357   2.175  0.6325  0.1800 -0.2939
 5912TIP3   OH217671   3.136   6.794   4.118  0.1837 -0.1987  0.4306
 5912TIP3    H117672   3.172   6.806   4.030 -1.4137  0.6155 -0.1242
 5912TIP3    H217673   3.043   6.777   4.104  0.4101 -2.8100  1.8128
 5913TIP3   OH217674   5.449   1.530   4.637 -0.5574  0.0160 -0.2147
 5913TIP3    H117675   5.372   1.474   4.628 -1.5748  1.2891  0.4505
 5913TIP3    H217676   5.433   1.580   4.717  0.7340  0.6428 -0.3440
 5914TIP3   OH217677   0.760   1.454   6.418 -0.2103  0.4322 -0.1176
 5914TIP3    H117678   0.789   1.533   6.373  1.0513  0.4740  0.7634
 5914TIP3    H217679   0.805   1.455   6.502 -0.3956 -1.0759  0.0214
 5915TIP3   OH217680   1.064   1.873   6.180 -0.2369  0.4050 -0.2635
 5915TIP3    H117681   1.105   1.927   6.112 -1.0673 -0.3688 -1.3783
 5915TIP3    H217682   1.127   1.874   6.252  1.4819 -0.3002 -1.7399
 5916TIP3   OH217683   6.351   1.148   6.312 -0.1803 -0.3884  0.0136
 5916TIP3    H117684   6.284   1.192   6.365  0.1839  0.6412 -0.3576
 5916TIP3    H217685   6.407   1.219   6.280 -0.0284 -1.0510 -1.2456
 5917TIP3   OH217686   5.730   1.671   3.860  0.0324  0.0683  0.0971
 5917TIP3    H117687   5.746   1.725   3.937  0.7315 -0.3523  0.2474
 5917TIP3    H217688   5.787   1.595   3.871 -0.4728 -0.3899 -0.4279
 5918TIP3   OH217689   0.263   4.675   1.565 -0.3705 -0.0079 -1.1285
 5918TIP3    H117690   0.261   4.769   1.547 -0.4637  0.4194  1.0257
 5918TIP3    H217691   0.297   4.636   1.484 -0.2632  1.8752 -2.0140
 5919TIP3   OH217692   4.188   0.412   4.873  0.0543 -0.5039 -0.3808
 5919TIP3    H117693   4.243   0.468   4.817  0.1759 -0.6911 -0.4485
 5919TIP3    H217694   4.106   0.402   4.823  0.0896 -0.5120 -0.4371
 5920TIP3   OH217695   5.872   6.557   0.690  0.0454 -0.0528  0.4578
 5920TIP3    H117696   5.805   6.624   0.677  0.6914  0.6315  0.6313
 5920TIP3    H217697   5.823   6.478   0.715 -0.6117  0.7105  1.5920
 5921TIP3   OH217698   3.380   6.800   4.659  0.2507  0.1460  0.4652
 5921TIP3    H117699   3.472   6.774   4.657  0.8235  2.1193  0.1577
 5921TIP3    H217700   3.332   6.717   4.660  1.9965 -0.9102 -0.5911
 5922TIP3   OH217701   3.098   0.657   6.469 -0.5236 -0.2558 -0.4177
 5922TIP3    H117702   3.159   0.678   6.399 -0.4345 -0.3730 -0.3750
 5922TIP3    H217703   3.136   0.580   6.512  0.3166  0.8388  0.8262
 5923TIP3   OH217704   5.301   1.147   3.056 -0.2269 -0.1480  0.1953
 5923TIP3    H117705   5.285   1.230   3.102  0.7359  0.4334 -0.5009
 5923TIP3    H217706   5.250   1.083   3.105 -0.0637  0.6526  1.4455
 5924TIP3   OH217707   5.284   1.183   3.951 -0.5920 -0.7992  0.7716
 5924TIP3    H117708   5.221   1.173   4.022  0.8460  2.6782  2.6434
 5924TIP3    H217709   5.370   1.184   3.995  0.4970 -1.2136 -1.2826
 5925TIP3   OH217710   7.130   4.058   0.262 -0.3516 -0.3328  0.0041
 5925TIP3    H117711   7.163   3.970   0.277  0.4993 -0.1034 -0.4472
 5925TIP3    H217712   7.204   4.115   0.284 -0.9114  0.2660  0.3361
 5926TIP3   OH217713   2.104   1.524   4.096  0.3289 -0.1066 -0.5835
 5926TIP3    H117714   2.083   1.430   4.097 -0.4967  0.0857  0.5907
 5926TIP3    H217715   2.200   1.526   4.099  0.4442 -0.9227 -2.3331
 5927TIP3   OH217716   5.989   3.719   0.613  0.0291  0.0230 -0.1150
 5927TIP3    H117717   5.973   3.633   0.651  0.5942  0.8827  2.1488
 5927TIP3    H217718   6.082   3.717   0.590 -0.5343 -0.8421 -2.4190
 5928TIP3   OH217719   4.880   1.666   5.361 -0.8921  0.0198 -0.0191
 5928TIP3    H117720   4.851   1.626   5.279 -0.6671 -0.0394 -0.0713
 5928TIP3    H217721   4.799   1.688   5.407 -1.0312 -2.2190  0.8601
 5929TIP3   OH217722   5.145   2.049   4.986 -0.2643  0.2459  0.0195
 5929TIP3    H117723   5.156   2.143   5.002 -3.0971  0.4235  1.2097
 5929TIP3    H217724   5.100   2.016   5.064 -1.2206 -1.6884 -1.3077
 5930TIP3   OH217725   4.365   1.842   4.929 -0.1438 -0.3104 -0.3893
 5930TIP3    H117726   4.393   1.907   4.993 -3.5254  0.4590  0.4009
 5930TIP3    H217727   4.384   1.758   4.971 -0.3642  0.1884  0.7435
 5931TIP3   OH217728   1.295   7.294   4.274  1.0659 -0.0141  0.6367
 5931TIP3    H117729   1.224   7.248   4.228  0.6057  1.1181  0.2077
 5931TIP3    H217730   1.251   7.366   4.319  1.7302 -0.2202  1.6266
 5932TIP3   OH217731   2.071   6.910   6.699 -0.0279  0.0299  0.0484
 5932TIP3    H117732   2.023   6.832   6.671  0.8772 -0.6216  0.2546
 5932TIP3    H217733   2.147   6.875   6.746 -0.2343  1.0647  1.1750
 5933TIP3   OH217734   4.723   0.194   5.630 -0.1362  0.2196 -0.4911
 5933TIP3    H117735   4.679   0.109   5.625 -0.7399  0.5382 -0.7833
 5933TIP3    H217736   4.716   0.229   5.541 -1.1826  1.2029 -0.0347
 5934TIP3   OH217737   4.827   2.259   4.323  0.3967  0.1979 -0.7952
 5934TIP3    H117738   4.818   2.206   4.244 -1.4832  0.1822 -0.5968
 5934TIP3    H217739   4.805   2.200   4.395  4.1855 -0.3904 -0.0137
 5935TIP3   OH217740   3.611   1.262   5.326 -0.4336  0.1114 -0.1901
 5935TIP3    H117741   3.659   1.337   5.291  0.3435 -0.6051 -0.6659
 5935TIP3    H217742   3.667   1.187   5.307 -1.2517 -0.5997  0.2083
 5936TIP3   OH217743   4.109   3.631   6.198 -0.2250  0.2248 -0.3902
 5936TIP3    H117744   4.142   3.638   6.109  2.6169 -0.0300  0.5994
 5936TIP3    H217745   4.115   3.538   6.220  0.8690  0.5357  0.6996
 5937TIP3   OH217746   1.435   7.881   4.470  0.0362 -0.2397  0.3876
 5937TIP3    H117747   1.432   7.787   4.453  2.7950 -0.1118 -1.0561
 5937TIP3    H217748   1.423   7.921   4.384  1.5584  0.6762  0.5909
 5938TIP3   OH217749   4.967   1.309   6.132 -0.4917  0.0642  0.6861
 5938TIP3    H117750   4.900   1.374   6.112 -0.3523  0.6771  2.1916
 5938TIP3    H217751   5.028   1.354   6.190  2.3277  0.1487 -2.2240
 5939TIP3   OH217752   4.567   1.011   4.054 -0.2676 -0.6765 -1.0762
 5939TIP3    H117753   4.559   0.994   4.148 -1.5721 -1.3863 -1.2998
 5939TIP3    H217754   4.630   1.083   4.048 -1.1259  0.2340  0.4287
 5940TIP3   OH217755   7.325   1.710   5.399  0.9775  0.2071  0.3000
 5940TIP3    H117756   7.329   1.622   5.362 -0.8380  0.9879 -1.9392
 5940TIP3    H217757   7.416   1.734   5.416  1.4057 -2.5177  2.0679
 5941TIP3   OH217758   6.771   1.608   4.381 -0.2167 -0.9569 -0.0632
 5941TIP3    H117759   6.792   1.516   4.401  2.9221 -0.0914  0.9363
 5941TIP3    H217760   6.836   1.634   4.316 -0.3797  0.8813  0.4888
 5942TIP3   OH217761   6.640   0.884   6.683 -0.1128 -0.1732  0.3226
 5942TIP3    H117762   6.556   0.912   6.718  0.6271  0.3584  1.7125
 5942TIP3    H217763   6.627   0.792   6.660 -1.0638 -0.1024  0.5534
 5943TIP3   OH217764   0.538   0.623   3.142  0.4177 -0.3851 -0.2745
 5943TIP3    H117765   0.446   0.624   3.116  0.5050  0.6909 -0.5893
 5943TIP3    H217766   0.569   0.536   3.120 -0.4556 -0.6639 -0.4192
 5944TIP3   OH217767   4.297   1.147   4.229 -0.3910 -0.2577 -0.0989
 5944TIP3    H117768   4.265   1.125   4.142 -1.2642 -1.0264  0.4028
 5944TIP3    H217769   4.218   1.150   4.284 -0.2617  3.6677 -0.0245
 5945TIP3   OH217770   6.614   1.092   4.581 -0.0267  0.0936  0.2565
 5945TIP3    H117771   6.603   1.006   4.621 -0.8491  0.7320  1.4573
 5945TIP3    H217772   6.534   1.139   4.604  0.6882  1.3830  0.1468
 5946TIP3   OH217773   3.507   1.680   5.157 -0.5942 -0.3999 -0.1013
 5946TIP3    H117774   3.462   1.763   5.176 -1.0420 -0.3240 -1.4451
 5946TIP3    H217775   3.448   1.613   5.191 -0.5471 -0.1978  0.3855
 5947TIP3   OH217776   5.598   7.284   3.488 -0.8436  0.2931 -0.3232
 5947TIP3    H117777   5.572   7.246   3.405 -1.2158  0.4676 -0.2885
 5947TIP3    H217778   5.532   7.253   3.550 -0.5902  0.1963 -0.1005
 5948TIP3   OH217779   2.703   7.773   2.005 -0.4687 -0.6456  0.0223
 5948TIP3    H117780   2.771   7.837   2.025 -1.9057  0.1688  2.4508
 5948TIP3    H217781   2.732   7.693   2.048  0.3601 -1.1263 -1.3869
 5949TIP3   OH217782   6.177   1.363   2.927  0.1641 -0.2191  0.1597
 5949TIP3    H117783   6.158   1.332   2.838 -0.2471 -0.0939  0.2028
 5949TIP3    H217784   6.098   1.411   2.953  0.6699  0.5954  0.2149
 5950TIP3   OH217785   1.031   6.911   4.824 -0.3508 -0.3539  0.2820
 5950TIP3    H117786   1.124   6.926   4.807 -0.4767 -0.4560 -0.5228
 5950TIP3    H217787   0.988   6.990   4.793 -0.7477 -1.2278 -1.4425
 5951TIP3   OH217788   3.720   7.534   5.380  0.0633 -0.3971 -0.0501
 5951TIP3    H117789   3.671   7.615   5.378  1.8713  0.7109 -0.4938
 5951TIP3    H217790   3.683   7.481   5.309  0.7788  1.1922 -1.6442
 5952TIP3   OH217791   5.283   2.525   4.279  0.6071  0.0858 -0.4354
 5952TIP3    H117792   5.285   2.552   4.188  0.5321  0.0161 -0.4577
 5952TIP3    H217793   5.200   2.479   4.289  0.3753  0.5506 -0.2026
 5953TIP3   OH217794   3.619   0.181   4.961 -0.9050  0.0308 -0.2120
 5953TIP3    H117795   3.529   0.166   4.992  0.2941 -2.1538  2.3746
 5953TIP3    H217796   3.639   0.270   4.989 -1.4399 -0.3222  1.3838
 5954TIP3   OH217797   5.825   0.399   6.174  0.7982  0.3767 -0.0490
 5954TIP3    H117798   5.802   0.307   6.164 -1.9472  0.9811  0.2922
 5954TIP3    H217799   5.814   0.418   6.267 -1.4588  1.6999 -0.5370
 5955TIP3   OH217800   2.856   7.949   4.414  0.0976 -0.1370  0.8278
 5955TIP3    H117801   2.894   7.861   4.420  0.9209  0.1933  0.5622
 5955TIP3    H217802   2.775   7.937   4.365  1.4708 -0.3796 -1.4739
 5956TIP3   OH217803   7.102   4.181   0.957  0.5065  0.2739  0.0543
 5956TIP3    H117804   7.069   4.242   0.892 -1.6374 -1.0697 -0.1540
 5956TIP3    H217805   7.128   4.237   1.031 -0.2648  1.5278 -0.6043
 5957TIP3   OH217806   4.690   1.587   4.044 -0.0941 -0.5593  0.5027
 5957TIP3    H117807   4.714   1.534   3.968 -1.7874 -0.1139 -0.3761
 5957TIP3    H217808   4.596   1.571   4.056 -0.0008 -0.0597  2.0672
 5958TIP3   OH217809   5.857   1.937   5.522  0.1159  0.6115  0.5280
 5958TIP3    H117810   5.915   1.865   5.544 -0.5319  0.6422  2.3638
 5958TIP3    H217811   5.916   2.008   5.496  0.7985 -0.1083  0.0844
 5959TIP3   OH217812   3.496   0.746   5.343 -0.0277 -0.0369 -0.0766
 5959TIP3    H117813   3.443   0.674   5.378 -0.8325  0.6132  0.0637
 5959TIP3    H217814   3.506   0.807   5.416  4.3552 -2.0061  1.1207
 5960TIP3   OH217815   3.258   2.610   4.583 -0.1610 -0.1119  0.0020
 5960TIP3    H117816   3.222   2.695   4.607 -1.7846 -0.4788 -1.0272
 5960TIP3    H217817   3.183   2.562   4.548  1.5539 -0.4700 -3.3471
 5961TIP3   OH217818   4.422   3.382   6.652  0.0020  0.0461 -0.2329
 5961TIP3    H117819   4.395   3.311   6.594 -0.1128  0.7522 -1.0589
 5961TIP3    H217820   4.493   3.425   6.605 -1.4380  1.8775 -0.7907
 5962TIP3   OH217821   4.928   0.843   2.918  0.6965  0.2537 -0.3937
 5962TIP3    H117822   4.906   0.907   2.850 -2.0056 -1.0826 -0.8142
 5962TIP3    H217823   4.991   0.785   2.876  1.1570  1.0688 -0.8492
 5963TIP3   OH217824   6.715   6.352   0.389 -0.0610  0.1834  0.2147
 5963TIP3    H117825   6.810   6.348   0.389 -0.0475  0.3049  1.1652
 5963TIP3    H217826   6.687   6.262   0.408 -0.1883 -0.3486 -2.3522
 5964TIP3   OH217827   3.866   2.856   6.917  0.4922  0.2673 -0.3181
 5964TIP3    H117828   3.804   2.907   6.865  0.2737 -0.8786 -1.2145
 5964TIP3    H217829   3.945   2.853   6.863  0.3121 -0.8098 -0.5374
 5965TIP3   OH217830   4.478   1.624   5.243  0.6724 -0.4276 -0.5173
 5965TIP3    H117831   4.433   1.694   5.291 -0.9339 -0.8038 -1.4174
 5965TIP3    H217832   4.422   1.607   5.167  1.3167 -2.3065 -0.6078
 5966TIP3   OH217833   4.015   2.177   6.057  0.4042 -0.0465  0.3348
 5966TIP3    H117834   4.021   2.125   5.978  1.0634  0.7254 -0.1276
 5966TIP3    H217835   3.924   2.208   6.058  0.8836  1.4909 -1.1229
 5967TIP3   OH217836   5.753   3.908   5.960  0.2459 -0.0469 -0.5040
 5967TIP3    H117837   5.775   3.989   6.005  1.5240 -0.4406 -0.4084
 5967TIP3    H217838   5.714   3.937   5.877 -0.8076  0.6623  0.2316
 5968TIP3   OH217839   3.593   0.353   4.534  0.6012 -0.6666 -0.2621
 5968TIP3    H117840   3.651   0.397   4.472 -0.3122  0.4787 -0.3026
 5968TIP3    H217841   3.606   0.400   4.616  0.9791 -1.4840  0.1575
 5969TIP3   OH217842   4.824   0.026   4.109 -0.8997 -0.4458 -0.3280
 5969TIP3    H117843   4.778   0.090   4.055 -0.2783 -0.9361 -1.4514
 5969TIP3    H217844   4.789   0.039   4.197 -3.7275 -1.3069 -1.2979
 5970TIP3   OH217845   4.358   1.557   4.992  0.0542  0.2534  0.6764
 5970TIP3    H117846   4.362   1.513   4.907  2.4869  0.1941  0.7803
 5970TIP3    H217847   4.270   1.538   5.025 -0.8731  0.1772 -1.7574
 5971TIP3   OH217848   1.938   7.857   4.712  0.2100  0.3823 -0.2977
 5971TIP3    H117849   1.894   7.852   4.797 -0.3761  0.1722 -0.6129
 5971TIP3    H217850   2.028   7.883   4.734  0.4023 -0.8628  0.4903
 5972TIP3   OH217851   4.339   1.226   5.697  0.1111  0.1168  0.3775
 5972TIP3    H117852   4.395   1.270   5.761 -0.9854  0.2209  1.2664
 5972TIP3    H217853   4.366   1.263   5.613  2.1591 -0.6564  0.6688
 5973TIP3   OH217854   7.488   2.680   5.020  0.4885  0.3855  0.0791
 5973TIP3    H117855   7.502   2.586   5.033 -1.0096 -0.0402 -1.2952
 5973TIP3    H217856   7.405   2.699   5.064  0.1132  0.7907 -0.7870
 5974TIP3   OH217857   4.661   2.988   6.019 -0.1385  0.0126  0.3498
 5974TIP3    H117858   4.751   2.957   6.030 -0.0988  0.0344  0.0857
 5974TIP3    H217859   4.619   2.970   6.103 -0.7393 -2.7390 -0.5210
 5975TIP3   OH217860   5.857   3.134   5.100  0.7990 -0.3033 -0.3622
 5975TIP3    H117861   5.873   3.226   5.083  0.4915 -0.0030  0.8893
 5975TIP3    H217862   5.775   3.114   5.055  0.6853  0.1262 -0.3415
 5976TIP3   OH217863   5.895   0.511   3.401 -0.7213 -0.4750  0.1781
 5976TIP3    H117864   5.980   0.479   3.432 -1.1438  1.0060  3.0992
 5976TIP3    H217865   5.909   0.604   3.387 -2.0434 -0.0526  1.5223
 5977TIP3   OH217866   8.400   0.648   3.604  0.7245 -0.0456 -0.5256
 5977TIP3    H117867   8.391   0.699   3.524 -0.1794 -1.3395 -1.2827
 5977TIP3    H217868   8.374   0.708   3.674 -0.3077  0.5436 -1.3945
 5978TIP3   OH217869   4.134   1.051   4.865  0.5094 -0.1816  0.7697
 5978TIP3    H117870   4.190   1.020   4.794  0.2470  1.2670 -0.0736
 5978TIP3    H217871   4.068   1.107   4.822 -0.5490 -0.4842  1.9587
 5979TIP3   OH217872   3.738   7.750   3.306 -0.2384  0.2327 -0.4780
 5979TIP3    H117873   3.703   7.702   3.232  0.6869  0.3683 -1.0115
 5979TIP3    H217874   3.726   7.692   3.381 -1.0707  0.0506 -0.7495
 5980TIP3   OH217875   5.515   0.906   5.992 -0.2992  0.7574 -0.5432
 5980TIP3    H117876   5.608   0.905   5.966 -0.2225  1.1209 -0.2913
 5980TIP3    H217877   5.503   0.824   6.039  0.0335  0.9607 -0.1012
 5981TIP3   OH217878   5.122   1.662   3.440 -0.0830  0.3079  0.5113
 5981TIP3    H117879   5.027   1.651   3.430  0.2575 -0.7989 -2.0702
 5981TIP3    H217880   5.146   1.725   3.373  1.0292  0.4855  1.0655
 5982TIP3   OH217881   6.285   0.447   1.986  0.3527  0.1293  0.1771
 5982TIP3    H117882   6.203   0.474   2.029 -0.1278  0.7055 -1.1007
 5982TIP3    H217883   6.261   0.368   1.937  0.4598  0.5551 -0.5572
 5983TIP3   OH217884   7.226   0.396   5.448 -0.5066 -0.4176 -0.1671
 5983TIP3    H117885   7.253   0.368   5.361  0.3799 -1.9795  0.5743
 5983TIP3    H217886   7.309   0.411   5.495 -0.9656  2.1525 -0.1116
 5984TIP3   OH217887   3.424   7.969   5.604  0.2167  0.3063 -0.1419
 5984TIP3    H117888   3.365   7.942   5.534  1.1232 -1.3852 -0.2637
 5984TIP3    H217889   3.496   8.013   5.558  1.5325 -2.0890 -0.4104
 5985TIP3   OH217890   7.508   0.993   5.109  0.2179 -0.9991 -0.2608
 5985TIP3    H117891   7.561   0.955   5.039  2.5407  0.2639  0.7248
 5985TIP3    H217892   7.532   1.086   5.109 -1.8927 -0.4277  0.3613
 5986TIP3   OH217893   3.860   6.493   1.745 -0.1694  0.1933 -0.1325
 5986TIP3    H117894   3.934   6.527   1.694  1.9515 -2.0531  1.3592
 5986TIP3    H217895   3.815   6.434   1.684  0.2187  0.3172 -0.5441
 5987TIP3   OH217896   8.133   0.366   4.323  0.0544  0.0445 -0.0515
 5987TIP3    H117897   8.188   0.445   4.325 -1.1272  0.8514  1.3143
 5987TIP3    H217898   8.081   0.371   4.403 -0.4938 -1.8118 -0.2741
 5988TIP3   OH217899   5.214   1.397   5.510 -0.1687  0.3277  0.8104
 5988TIP3    H117900   5.286   1.371   5.453 -0.7372  0.2251  0.1247
 5988TIP3    H217901   5.168   1.315   5.530  1.1596  0.0788  3.0274
 5989TIP3   OH217902   3.908   6.654   2.192 -0.4339 -0.2988  0.0697
 5989TIP3    H117903   3.824   6.687   2.161 -0.6026  0.7440  1.5982
 5989TIP3    H217904   3.940   6.721   2.253  1.8714 -0.2931 -1.0797
 5990TIP3   OH217905   7.752   1.367   4.179 -0.1616 -0.4722 -0.1625
 5990TIP3    H117906   7.784   1.444   4.227 -0.3294  0.4225 -1.4726
 5990TIP3    H217907   7.686   1.402   4.120  0.4340 -1.4856 -1.4403
 5991TIP3   OH217908   6.194   1.235   4.132  0.4092 -0.0403  0.4372
 5991TIP3    H117909   6.171   1.309   4.076 -1.0502 -1.7464 -1.2703
 5991TIP3    H217910   6.111   1.210   4.174  1.0780 -0.1370  1.7489
 5992TIP3   OH217911   3.358   7.494   5.885  0.0912 -0.2238 -0.3362
 5992TIP3    H117912   3.329   7.440   5.959  0.9855 -0.0389  0.1555
 5992TIP3    H217913   3.286   7.555   5.870 -0.0260 -0.1544  0.4929
 5993TIP3   OH217914   5.773   1.128   4.579  0.3541 -0.0758  0.8428
 5993TIP3    H117915   5.715   1.193   4.617 -0.1686 -0.7816  1.2553
 5993TIP3    H217916   5.820   1.175   4.510 -0.9661  0.3992  0.2615
 5994TIP3   OH217917   7.023   2.307   3.781  0.6488 -0.2792  0.2216
 5994TIP3    H117918   7.102   2.355   3.806  0.8730 -0.3176 -0.4215
 5994TIP3    H217919   7.014   2.322   3.687  0.2415 -0.7859  0.1792
 5995TIP3   OH217920   7.411   1.571   4.099 -0.2959  0.1470  0.1748
 5995TIP3    H117921   7.384   1.492   4.146 -1.6707  1.1167  1.0227
 5995TIP3    H217922   7.479   1.540   4.038 -0.1756 -1.5232  1.1261
 5996TIP3   OH217923   0.368   2.996   3.962 -0.2129 -0.0936  0.1321
 5996TIP3    H117924   0.363   3.063   4.030 -0.9889 -0.1128  0.1057
 5996TIP3    H217925   0.282   2.953   3.964  0.5450 -1.6504  0.7165
 5997TIP3   OH217926   7.419   1.932   6.423 -0.0073  0.3058  0.4034
 5997TIP3    H117927   7.431   1.880   6.343 -0.0982  1.1016 -0.1329
 5997TIP3    H217928   7.411   2.022   6.392 -1.2125  0.4967  1.2188
 5998TIP3   OH217929   3.982   2.120   3.867 -0.1466 -0.0050 -0.6443
 5998TIP3    H117930   4.020   2.196   3.824 -0.4385  0.1558 -0.6166
 5998TIP3    H217931   4.038   2.105   3.943  0.0664  0.0194 -0.7942
 5999TIP3   OH217932   4.604   7.580   3.878 -0.1055  0.1176 -0.0652
 5999TIP3    H117933   4.688   7.573   3.831  0.5435  0.8572  0.9604
 5999TIP3    H217934   4.610   7.512   3.945 -0.9726 -0.8408 -0.9423
 6000TIP3   OH217935   6.453   2.666   5.367  0.3178 -0.0792  0.1515
 6000TIP3    H117936   6.496   2.617   5.297  0.3664  0.8730 -0.4989
 6000TIP3    H217937   6.486   2.755   5.357  0.9877 -0.1053  1.9244
 6001TIP3   OH217938   7.418   1.479   4.580  0.2505  0.5060  0.5687
 6001TIP3    H117939   7.380   1.516   4.500 -2.1188 -0.9951  0.9312
 6001TIP3    H217940   7.367   1.519   4.651  0.7519  0.0221  1.2022
 6002TIP3   OH217941   5.147   4.233   4.781  0.1474 -0.1141  0.2558
 6002TIP3    H117942   5.236   4.220   4.749  0.4027  0.5171  0.7082
 6002TIP3    H217943   5.117   4.145   4.805  1.3149 -0.0932  1.8656
 6003TIP3   OH217944   6.734   0.685   4.188 -0.6000  0.2618  0.0230
 6003TIP3    H117945   6.722   0.608   4.243  0.1170 -0.6323 -1.0571
 6003TIP3    H217946   6.784   0.654   4.113 -0.2000  1.8085 -0.3713
 6004TIP3   OH217947   4.574   0.159   4.904 -0.6020 -0.1484 -0.3142
 6004TIP3    H117948   4.540   0.205   4.980 -1.4682  2.4162 -2.1683
 6004TIP3    H217949   4.667   0.181   4.902 -0.2965 -1.2685  0.6758
 6005TIP3   OH217950   1.148   1.674   4.050 -0.9020  0.0354  0.3602
 6005TIP3    H117951   1.065   1.669   4.002 -1.3397 -0.7112  1.1846
 6005TIP3    H217952   1.132   1.625   4.131 -0.1706  1.2551  1.2648
 6006TIP3   OH217953   1.883   7.735   6.245 -0.3912  0.3159  0.8030
 6006TIP3    H117954   1.846   7.786   6.317  1.9946  1.1526  1.4845
 6006TIP3    H217955   1.969   7.773   6.231 -0.0744 -1.1004 -1.2325
 6007TIP3   OH217956   6.106   0.818   5.192 -0.1468 -0.3142  0.0319
 6007TIP3    H117957   6.034   0.825   5.130 -0.3238  1.0870  0.3911
 6007TIP3    H217958   6.071   0.854   5.274  1.1362  0.8763  0.0654
 6008TIP3   OH217959   7.106   0.421   3.138 -0.3070 -0.6520  0.0235
 6008TIP3    H117960   7.069   0.353   3.195  0.5516 -1.0465  0.1147
 6008TIP3    H217961   7.196   0.393   3.122  0.6764  1.4990  1.6773
 6009TIP3   OH217962   7.375   0.263   5.853 -0.1101  0.1508  0.2748
 6009TIP3    H117963   7.400   0.186   5.905  0.6086  0.8049  0.9244
 6009TIP3    H217964   7.326   0.318   5.914 -2.3305 -0.6563 -0.7188
 6010TIP3   OH217965   6.966   1.648   4.155  0.0167 -0.2143 -0.3234
 6010TIP3    H117966   7.037   1.712   4.152 -1.2212  1.2048  0.2075
 6010TIP3    H217967   7.010   1.563   4.147  1.8109  0.6184  0.4535
 6011TIP3   OH217968   6.768   2.192   6.212 -0.1149  1.1745  0.4552
 6011TIP3    H117969   6.689   2.148   6.180 -0.4018  1.5007  0.7043
 6011TIP3    H217970   6.835   2.124   6.213 -0.2322  1.0420 -0.3517
 6012TIP3   OH217971   4.747   0.691   2.646  0.0748  0.2082  0.8223
 6012TIP3    H117972   4.716   0.641   2.722 -0.5179  0.5650  0.8222
 6012TIP3    H217973   4.744   0.782   2.675 -0.9405  0.4137  0.1099
 6013TIP3   OH217974   0.590   1.267   2.911 -0.0683  0.8487  0.1943
 6013TIP3    H117975   0.594   1.176   2.938  1.2360  1.2311  1.3950
 6013TIP3    H217976   0.627   1.316   2.985  0.4432  2.2292 -0.9354
 6014TIP3   OH217977   4.574   1.606   5.973  0.0898 -0.2109 -0.2032
 6014TIP3    H117978   4.521   1.686   5.974  1.0995  0.4595 -0.0094
 6014TIP3    H217979   4.638   1.620   5.904  0.4047 -0.7691 -0.0243
 6015TIP3   OH217980   5.772   1.559   5.526 -0.2784  0.0658  0.6071
 6015TIP3    H117981   5.722   1.626   5.479  0.8064 -0.6203 -1.5929
 6015TIP3    H217982   5.811   1.605   5.600  0.9550  2.0127 -1.2202
 6016TIP3   OH217983   7.794   2.327   5.146  0.0960 -0.4831  0.0734
 6016TIP3    H117984   7.860   2.300   5.209  1.1327  0.5292 -0.5608
 6016TIP3    H217985   7.829   2.407   5.107 -0.8544 -0.7058 -1.2777
 6017TIP3   OH217986   6.327   1.698   6.912  0.3224 -0.2815 -0.3501
 6017TIP3    H117987   6.365   1.629   6.966 -0.7915 -1.2282 -0.7517
 6017TIP3    H217988   6.237   1.669   6.896 -0.0089  1.0295 -0.9316
 6018TIP3   OH217989   5.442   1.924   3.803 -0.1223 -0.4036  0.6392
 6018TIP3    H117990   5.373   1.859   3.789  0.7832 -1.2040 -0.0748
 6018TIP3    H217991   5.394   2.004   3.826 -1.2441 -1.2371  1.2291
 6019TIP3   OH217992   5.823   2.003   5.830  0.3462 -0.4414  0.1267
 6019TIP3    H117993   5.898   2.052   5.796  1.5023 -1.8172  0.6161
 6019TIP3    H217994   5.748   2.037   5.782  1.0783  1.8983  0.5790
 6020TIP3   OH217995   6.031   0.811   4.661 -0.0335  1.0161  0.1330
 6020TIP3    H117996   6.081   0.785   4.584 -0.9743  0.6212 -0.3559
 6020TIP3    H217997   5.994   0.729   4.694  0.6746  1.1321  1.2293
 6021TIP3   OH217998   1.618   1.253   4.300 -0.4605 -0.1258 -0.0000
 6021TIP3    H117999   1.627   1.185   4.367  0.9177 -0.7123 -0.7702
 6021TIP3    H218000   1.622   1.335   4.350  0.9284 -0.5513  0.6134
 6022TIP3   OH218001   5.107   2.291   5.320  0.4232 -0.5302 -0.0626
 6022TIP3    H118002   5.165   2.283   5.245 -2.0750 -0.9669 -2.0147
 6022TIP3    H218003   5.102   2.386   5.337  1.3342 -0.4630 -0.1373
 6023TIP3   OH218004   5.193   2.023   6.533  0.6181  0.7235  0.3827
 6023TIP3    H118005   5.242   1.953   6.490 -2.3776 -1.8612  0.9816
 6023TIP3    H218006   5.174   1.989   6.620 -1.1689  2.1621  0.5908
 6024TIP3   OH218007   5.248   7.767   5.476 -0.0776 -0.3290 -1.2052
 6024TIP3    H118008   5.199   7.732   5.550 -1.8102  1.4491 -1.4456
 6024TIP3    H218009   5.181   7.805   5.419  1.5717  2.0551 -1.6398
 6025TIP3   OH218010   6.775   1.198   3.794  0.8388  0.3392  0.3774
 6025TIP3    H118011   6.827   1.213   3.715 -1.5902  1.5354 -1.0646
 6025TIP3    H218012   6.796   1.273   3.851  1.4128  0.3012  0.2148
 6026TIP3   OH218013   5.865   1.804   4.097  0.7935  0.3726  0.4082
 6026TIP3    H118014   5.838   1.892   4.123  0.4751  0.3034  0.3122
 6026TIP3    H218015   5.957   1.798   4.124  1.1896  1.1712 -0.6765
 6027TIP3   OH218016   5.182   7.268   3.232  0.0463 -0.1756 -0.7079
 6027TIP3    H118017   5.154   7.197   3.289  1.1030 -0.0223  0.0160
 6027TIP3    H218018   5.193   7.343   3.290 -1.5247  0.7092 -1.5450
 6028TIP3   OH218019   6.896   1.379   3.186 -0.2049 -0.1827 -0.3519
 6028TIP3    H118020   6.867   1.470   3.190  0.9497  0.2754 -2.0085
 6028TIP3    H218021   6.817   1.328   3.206 -0.8151  1.1721  0.7509
 6029TIP3   OH218022   8.212   1.344   4.271  0.7008 -0.4649 -0.4075
 6029TIP3    H118023   8.217   1.431   4.233  1.7565 -0.0953  0.5640
 6029TIP3    H218024   8.277   1.293   4.223  1.7022 -0.1197  0.5757
 6030TIP3   OH218025   5.066   7.391   4.743  0.0994  0.1134 -0.1292
 6030TIP3    H118026   4.976   7.370   4.768 -0.0826  1.7976  0.6448
 6030TIP3    H218027   5.096   7.312   4.697 -1.3336 -0.9575  0.7039
 6031TIP3   OH218028   1.790   7.926   3.895  0.6202 -0.0059  0.1845
 6031TIP3    H118029   1.841   7.891   3.968  0.0384 -1.2332  0.0188
 6031TIP3    H218030   1.712   7.871   3.891 -0.6775  1.8028  0.3558
 6032TIP3   OH218031   5.892   0.385   4.944 -0.5834 -0.0233 -0.0593
 6032TIP3    H118032   5.948   0.434   5.004 -1.2824 -1.6726  2.0214
 6032TIP3    H218033   5.951   0.324   4.900 -0.3289 -0.0003  0.2491
 6033TIP3   OH218034   6.643   0.208   6.330 -0.0100 -0.0161 -0.0774
 6033TIP3    H118035   6.721   0.202   6.386 -0.6715 -1.4922  0.7118
 6033TIP3    H218036   6.601   0.123   6.338 -2.5462  1.2591  0.7467
 6034TIP3   OH218037   4.762   0.281   3.953 -0.2367  0.0695  0.0361
 6034TIP3    H118038   4.838   0.301   3.898 -0.6677  0.8294 -0.2948
 6034TIP3    H218039   4.694   0.342   3.923 -0.3284  0.8444  1.7346
 6035TIP3   OH218040   3.171   7.339   4.375  0.0920 -0.7254  0.7105
 6035TIP3    H118041   3.181   7.284   4.297 -1.8434  0.1286 -0.1756
 6035TIP3    H218042   3.085   7.315   4.411 -0.7972  1.6819  0.3066
 6036TIP3   OH218043   4.094   7.595   4.915  0.0292  0.2682 -0.2493
 6036TIP3    H118044   4.112   7.504   4.890  1.5418  0.5475 -0.2057
 6036TIP3    H218045   4.006   7.592   4.953 -0.1427 -1.0891 -0.7140
 6037TIP3   OH218046   4.645   2.357   4.510  0.4236  0.3886 -0.0612
 6037TIP3    H118047   4.620   2.319   4.426  0.5371  1.7217 -0.7113
 6037TIP3    H218048   4.725   2.406   4.491 -0.6222  2.3096  0.3815
 6038TIP3   OH218049   7.030   0.992   4.764  0.0111  0.1632 -0.0428
 6038TIP3    H118050   6.950   0.982   4.815  0.5136 -1.7815  0.4137
 6038TIP3    H218051   7.075   0.908   4.773  1.7975  1.0000 -0.8104
 6039TIP3   OH218052   4.291   6.192   4.752 -0.1195 -0.3857 -0.1743
 6039TIP3    H118053   4.327   6.112   4.789  0.6190  0.0509  0.0493
 6039TIP3    H218054   4.325   6.262   4.808 -0.7052  0.0936 -0.4103
 6040TIP3   OH218055   7.383   1.174   4.279 -0.2906 -0.3474  0.0440
 6040TIP3    H118056   7.471   1.186   4.314 -0.3446  1.3856 -0.3828
 6040TIP3    H218057   7.394   1.108   4.210  1.1953  1.8714 -1.8980
 6041TIP3   OH218058   5.977   0.563   5.405 -0.1309  0.2099 -0.3389
 6041TIP3    H118059   5.898   0.600   5.444 -0.1105 -0.0236 -0.0683
 6041TIP3    H218060   6.049   0.611   5.446 -0.0844 -0.4440  0.3754
 6042TIP3   OH218061   0.202   2.545   5.324 -0.1713  0.3580 -0.0884
 6042TIP3    H118062   0.296   2.533   5.340 -0.4739  0.2362  1.6053
 6042TIP3    H218063   0.192   2.530   5.230  1.5689  0.7624 -0.3547
 6043TIP3   OH218064   4.934   6.623   1.737  0.0765 -0.1090  0.3670
 6043TIP3    H118065   4.963   6.540   1.776  0.9883  0.4138  0.8332
 6043TIP3    H218066   5.016   6.670   1.718 -0.4063  0.2979 -0.7484
 6044TIP3   OH218067   8.405   2.679   5.449  0.0618 -0.3271  0.3483
 6044TIP3    H118068   8.432   2.588   5.458 -0.5441 -0.6604 -1.0879
 6044TIP3    H218069   8.403   2.694   5.354  0.0829  1.1557  0.5728
 6045TIP3   OH218070   8.236   0.460   3.065  0.0618 -0.1381 -0.2370
 6045TIP3    H118071   8.225   0.494   2.976  0.7695  0.9509  0.0742
 6045TIP3    H218072   8.180   0.516   3.119 -0.0288 -0.5136  0.0534
 6046TIP3   OH218073   5.283   1.517   3.583  0.3453 -0.0919  0.3879
 6046TIP3    H118074   5.225   1.575   3.535 -0.1805 -2.5451 -2.0668
 6046TIP3    H218075   5.371   1.553   3.568  0.0886 -0.2654 -1.6242
 6047TIP3   OH218076   3.822   7.851   2.759 -0.2433  0.2639  0.6629
 6047TIP3    H118077   3.881   7.775   2.756 -0.3685  0.1250  1.5258
 6047TIP3    H218078   3.842   7.900   2.679  0.4332 -0.2333  0.5204
 6048TIP3   OH218079   2.768   6.747   5.189 -0.3851  0.2894  0.6019
 6048TIP3    H118080   2.703   6.715   5.252  1.0250 -0.7164  1.5772
 6048TIP3    H218081   2.839   6.781   5.244  0.6807 -0.2072 -0.4627
 6049TIP3   OH218082   1.105   5.254   0.728 -0.0433  0.2783 -0.1324
 6049TIP3    H118083   1.054   5.231   0.805  0.7843 -0.4711  0.2078
 6049TIP3    H218084   1.103   5.175   0.673 -0.5098  0.7600 -0.8018
 6050TIP3   OH218085   8.088   3.418   5.373 -0.3841 -0.6134 -0.0181
 6050TIP3    H118086   8.131   3.440   5.290  0.5506 -0.2445  0.5593
 6050TIP3    H218087   7.994   3.424   5.354 -0.1626  0.2242 -0.8434
 6051TIP3   OH218088   7.334   0.629   4.564 -0.3615  0.5033 -0.1640
 6051TIP3    H118089   7.426   0.603   4.558  0.6453  3.7812  0.1576
 6051TIP3    H218090   7.325   0.702   4.503 -2.6625  0.5377  0.1553
 6052TIP3   OH218091   8.277   3.428   4.638 -0.3360  0.0134  0.1886
 6052TIP3    H118092   8.217   3.419   4.564 -0.0084 -0.4336 -0.0246
 6052TIP3    H218093   8.362   3.443   4.598 -0.1504 -0.2785  0.4752
 6053TIP3   OH218094   6.015   0.971   3.513 -0.2498 -0.5380  0.2912
 6053TIP3    H118095   5.955   1.043   3.492  0.5798 -0.3356 -1.4352
 6053TIP3    H218096   5.966   0.892   3.489 -1.5643 -0.6428  3.1595
 6054TIP3   OH218097   5.348   7.865   4.587  0.1841  0.8817  0.1871
 6054TIP3    H118098   5.341   7.855   4.492 -0.7698  1.0097  0.2390
 6054TIP3    H218099   5.438   7.896   4.602  0.7764 -0.4719 -0.5574
 6055TIP3   OH218100   4.704   7.816   3.677 -0.1113  0.1168  0.2930
 6055TIP3    H118101   4.652   7.828   3.757  1.0890 -0.0917  1.1218
 6055TIP3    H218102   4.647   7.766   3.619 -0.2593 -1.5939  1.8264
 6056TIP3   OH218103   6.955   0.391   5.566  0.1694  0.7798  0.0898
 6056TIP3    H118104   6.915   0.478   5.558  1.1396  1.1188 -1.2717
 6056TIP3    H218105   7.041   0.400   5.525  0.6902 -0.5670  0.8599
 6057TIP3   OH218106   0.857   4.387   0.522 -0.2662 -0.0164  0.1682
 6057TIP3    H118107   0.927   4.357   0.465  0.6304  0.5003  0.9600
 6057TIP3    H218108   0.781   4.400   0.465  0.4359 -0.1048 -0.7784
 6058TIP3   OH218109   5.419   3.012   6.505 -0.0556 -0.5052  0.4554
 6058TIP3    H118110   5.421   3.104   6.531 -0.7333  0.0147 -1.3033
 6058TIP3    H218111   5.432   3.013   6.410 -0.1758 -2.2154  0.4068
 6059TIP3   OH218112   6.377   0.488   3.696 -0.3540 -0.4461  0.2081
 6059TIP3    H118113   6.319   0.529   3.760  0.9396  1.6404  0.1084
 6059TIP3    H218114   6.449   0.551   3.686  0.1089 -1.3381 -2.3375
 6060TIP3   OH218115   4.748   2.157   5.069  0.7255  0.3333 -0.1080
 6060TIP3    H118116   4.783   2.179   5.156  0.8334 -0.8588  0.1692
 6060TIP3    H218117   4.665   2.204   5.064  0.3172 -0.2426  0.9966
 6061TIP3   OH218118   6.483   0.141   2.550 -0.0624  0.1315 -0.2837
 6061TIP3    H118119   6.547   0.077   2.518  0.2583  0.2660  0.0827
 6061TIP3    H218120   6.481   0.208   2.481 -2.0046 -1.3378 -1.6888
 6062TIP3   OH218121   0.833   5.430   1.037  0.6760 -0.6704  0.1335
 6062TIP3    H118122   0.884   5.494   0.987  2.1483 -1.3363  0.7736
 6062TIP3    H218123   0.892   5.400   1.105 -0.3721 -1.9192  0.5118
 6063TIP3   OH218124   6.217   1.827   2.939 -0.5780 -0.0841  0.4108
 6063TIP3    H118125   6.203   1.763   3.009 -1.0158 -0.3129  0.1191
 6063TIP3    H218126   6.229   1.910   2.984 -0.3619 -0.3134  0.7783
 6064TIP3   OH218127   4.627   7.952   3.268 -0.3270  0.2006  0.1232
 6064TIP3    H118128   4.598   7.897   3.195 -0.9437  0.5346  0.1116
 6064TIP3    H218129   4.715   7.921   3.289 -0.6001 -0.6628 -0.0076
 6065TIP3   OH218130   3.402   7.474   4.683  0.1800  0.4621 -0.4715
 6065TIP3    H118131   3.344   7.408   4.720  1.0333 -0.9745 -1.6116
 6065TIP3    H218132   3.404   7.454   4.589  3.3073 -0.2417 -0.3218
 6066TIP3   OH218133   4.645   0.522   3.275 -0.2457 -0.3627 -0.2172
 6066TIP3    H118134   4.634   0.605   3.321  1.0075 -0.5511  0.4367
 6066TIP3    H218135   4.689   0.546   3.194 -1.5902 -0.1585 -0.9102
 6067TIP3   OH218136   0.294   1.403   4.740 -0.1380  0.1615 -0.7150
 6067TIP3    H118137   0.363   1.467   4.761 -1.5778  1.5321 -0.0942
 6067TIP3    H218138   0.232   1.411   4.812  0.4976 -3.1757  0.2708
 6068TIP3   OH218139   6.987   0.168   2.296 -0.2087 -0.1627 -0.2306
 6068TIP3    H118140   6.895   0.167   2.271 -0.1343 -0.3499 -0.4982
 6068TIP3    H218141   6.992   0.231   2.368 -0.5477 -0.1648 -0.2047
 6069TIP3   OH218142   6.740   0.169   4.701 -0.1232  0.2174 -0.4271
 6069TIP3    H118143   6.767   0.239   4.642  0.9892  0.3400  0.2186
 6069TIP3    H218144   6.644   0.172   4.699 -0.0885  1.4256 -0.7943
 6070TIP3   OH218145   6.467   0.670   5.762 -0.6093 -0.0682  0.0851
 6070TIP3    H118146   6.408   0.740   5.790 -1.6182 -1.1203  0.5961
 6070TIP3    H218147   6.469   0.609   5.836 -0.1853 -0.8786 -0.5914
 6071TIP3   OH218148   5.175   1.637   5.407  0.2986  0.2643  0.2392
 6071TIP3    H118149   5.155   1.549   5.440 -0.7071  0.2915 -0.2758
 6071TIP3    H218150   5.236   1.673   5.471  1.2519 -1.0616  0.0999
 6072TIP3   OH218151   5.262   1.099   5.642  0.4198  0.3364  0.0964
 6072TIP3    H118152   5.216   1.120   5.724  0.1209 -0.9462  0.2811
 6072TIP3    H218153   5.352   1.079   5.670  0.8570  1.9190 -0.1492
 6073TIP3   OH218154   3.311   7.664   3.216 -0.0718  0.5929 -0.1032
 6073TIP3    H118155   3.384   7.675   3.154 -0.4342  0.1999 -0.6079
 6073TIP3    H218156   3.255   7.598   3.175 -0.5515  0.6633  0.4347
 6074TIP3   OH218157   6.795   0.625   3.730 -0.6416  0.1006 -0.0142
 6074TIP3    H118158   6.702   0.648   3.727 -0.5313  0.6563  0.6218
 6074TIP3    H218159   6.831   0.658   3.648 -0.8801  0.4648  0.0243
 6075TIP3   OH218160   2.604   5.737   0.424  0.3178 -0.4331 -0.2486
 6075TIP3    H118161   2.578   5.652   0.461  0.7293 -0.3217  0.3026
 6075TIP3    H218162   2.523   5.774   0.389 -0.1525 -0.3691  0.8865
 6076TIP3   OH218163   5.077   1.344   3.603 -0.6461 -0.4377 -0.4306
 6076TIP3    H118164   5.006   1.407   3.592 -0.7351  0.2271  3.3958
 6076TIP3    H218165   5.157   1.397   3.592 -0.7263  0.3479  2.3451
 6077TIP3   OH218166   7.179   1.329   5.733  0.5280  0.6079 -0.0780
 6077TIP3    H118167   7.139   1.291   5.811  1.2584  0.4828  0.2419
 6077TIP3    H218168   7.152   1.271   5.662 -0.3080  0.8364  0.0455
 6078TIP3   OH218169   1.630   6.139   0.057 -0.0856  0.3069  0.7575
 6078TIP3    H118170   1.565   6.079   0.020  0.7214 -0.7427  1.0064
 6078TIP3    H218171   1.711   6.088   0.058  0.6265  1.4383  0.9085
 6079TIP3   OH218172   8.217   1.974   3.439 -0.5404  0.2638 -0.0017
 6079TIP3    H118173   8.222   1.881   3.416 -0.1751 -0.0042  1.1126
 6079TIP3    H218174   8.124   1.989   3.456 -0.8304  0.4869 -1.6650
 6080TIP3   OH218175   1.363   5.592   0.228 -0.0180 -0.3202  0.6091
 6080TIP3    H118176   1.325   5.505   0.223  0.5782 -0.6016  0.8613
 6080TIP3    H218177   1.290   5.649   0.253  0.0495 -1.0931  2.6385
 6081TIP3   OH218178   0.373   0.771   4.529  0.0012  0.0301  0.1178
 6081TIP3    H118179   0.289   0.743   4.491  0.5817 -0.9222 -0.4909
 6081TIP3    H218180   0.437   0.758   4.459  1.1298 -2.0108  1.4706
 6082TIP3   OH218181   6.293   1.567   6.067 -0.1967  0.1028  0.2990
 6082TIP3    H118182   6.362   1.596   6.007 -0.8543  1.9419  0.3777
 6082TIP3    H218183   6.276   1.476   6.043 -0.1653  0.6902 -2.0587
 6083TIP3   OH218184   5.369   1.455   5.784  0.7035  0.4103 -0.2079
 6083TIP3    H118185   5.349   1.425   5.695 -0.4575  1.6511 -0.3697
 6083TIP3    H218186   5.444   1.514   5.773  0.8598  0.1955 -0.2996
 6084TIP3   OH218187   3.834   7.820   4.442 -0.3076  0.1091 -0.3671
 6084TIP3    H118188   3.875   7.758   4.503  1.4463  0.6430 -0.9617
 6084TIP3    H218189   3.754   7.777   4.414 -0.0403 -1.0850  0.6545
 6085TIP3   OH218190   1.145   7.330   0.048 -0.3601 -0.0268  0.4316
 6085TIP3    H118191   1.057   7.296   0.060 -1.2509  1.6729 -0.9816
 6085TIP3    H218192   1.178   7.284  -0.029 -0.6383  0.4807  0.0006
 6086TIP3   OH218193   6.923   1.265   3.568 -0.5502  0.0513 -0.1572
 6086TIP3    H118194   7.005   1.227   3.600  0.7565 -1.0932 -4.5641
 6086TIP3    H218195   6.948   1.352   3.536 -1.1711 -0.0650 -0.9639
 6087TIP3   OH218196   7.662   2.717   2.933  0.2099  0.0619  0.0518
 6087TIP3    H118197   7.688   2.628   2.908  1.5159  0.2529  0.6821
 6087TIP3    H218198   7.602   2.745   2.864  1.6726 -0.4238 -1.4386
 6088TIP3   OH218199   6.682   2.417   6.699 -0.0424  0.3986  0.0949
 6088TIP3    H118200   6.700   2.358   6.626  1.3352  1.3708 -0.3738
 6088TIP3    H218201   6.693   2.362   6.777 -1.6188 -0.6665 -0.4118
 6089TIP3   OH218202   6.124   0.538   2.905 -0.0055 -0.3421  0.0818
 6089TIP3    H118203   6.055   0.515   2.968  0.2066 -1.3920 -0.0675
 6089TIP3    H218204   6.085   0.520   2.819  1.7974 -4.8205  0.0918
 6090TIP3   OH218205   7.047   0.522   5.032  0.0918 -0.2429 -0.2043
 6090TIP3    H118206   7.029   0.430   5.010 -1.7731  0.0853 -0.1377
 6090TIP3    H218207   7.082   0.559   4.951 -0.8552 -0.5759 -0.7767
 6091TIP3   OH218208   4.292   7.659   4.584 -1.1593  0.3001 -0.2577
 6091TIP3    H118209   4.326   7.681   4.497 -0.5726 -1.2600 -0.4401
 6091TIP3    H218210   4.321   7.731   4.640  2.9744 -1.1952 -0.3088
 6092TIP3   OH218211   8.190   0.680   5.943 -0.1471  0.0257  0.2964
 6092TIP3    H118212   8.225   0.695   5.855  0.6142  0.0494  0.6027
 6092TIP3    H218213   8.188   0.585   5.952 -1.6187 -0.0175 -0.2970
 6093TIP3   OH218214   5.034   2.891   6.370 -0.2203 -0.2368 -0.5015
 6093TIP3    H118215   4.967   2.855   6.428  0.1666 -1.2220 -0.6426
 6093TIP3    H218216   5.117   2.873   6.416  0.1138 -1.3759 -1.5210
 6094TIP3   OH218217   0.509   1.069   3.973 -0.3321 -0.2161  0.5605
 6094TIP3    H118218   0.424   1.107   3.999  0.7123  3.3672 -0.9152
 6094TIP3    H218219   0.567   1.090   4.046  0.0145  0.1568  0.1780
 6095TIP3   OH218220   3.211   7.719   4.582  0.3895  0.3533 -0.6062
 6095TIP3    H118221   3.277   7.753   4.641  0.5039 -0.5411 -0.2041
 6095TIP3    H218222   3.129   7.724   4.631  0.3104  0.6130 -0.7656
 6096TIP3   OH218223   5.879   6.839   4.380  0.0186  0.1392  0.3097
 6096TIP3    H118224   5.967   6.876   4.374  0.6718 -1.4889 -0.2809
 6096TIP3    H218225   5.843   6.877   4.461  1.5068  0.3000  0.9131
 6097TIP3   OH218226   6.695   1.656   5.304 -0.2913  0.5879  0.0464
 6097TIP3    H118227   6.735   1.569   5.293  1.1436  1.1884  0.3229
 6097TIP3    H218228   6.651   1.673   5.221  1.0593  0.3970 -0.7228
 6098TIP3   OH218229   7.492   2.365   3.303 -0.1179  0.2135  0.5265
 6098TIP3    H118230   7.500   2.435   3.238 -1.9341  1.1893  1.3404
 6098TIP3    H218231   7.530   2.402   3.383  1.5876 -0.7830  0.2076
 6099TIP3   OH218232   4.895   1.610   2.664 -0.2219 -0.6465 -0.7065
 6099TIP3    H118233   4.944   1.592   2.584 -0.5477  0.8548 -1.2570
 6099TIP3    H218234   4.820   1.552   2.660 -0.2017 -0.6238 -1.4671
 6100TIP3   OH218235   6.159   3.701   4.003  0.2521  0.2962  0.0615
 6100TIP3    H118236   6.097   3.707   4.076  1.1504  4.2983  0.6583
 6100TIP3    H218237   6.112   3.740   3.929  1.7158  2.6695  0.3288
 6101TIP3   OH218238   7.132   1.354   6.041  0.4100 -0.2560 -0.4274
 6101TIP3    H118239   7.102   1.442   6.017 -1.1087 -0.6442  0.0441
 6101TIP3    H218240   7.221   1.368   6.073  0.5524  0.9790 -1.3199
 6102TIP3   OH218241   7.740   2.691   3.765  0.0273  0.3006  0.5468
 6102TIP3    H118242   7.785   2.728   3.840  1.6587 -3.1727  1.4062
 6102TIP3    H218243   7.685   2.622   3.802 -0.6716 -0.1369 -1.2470
 6103TIP3   OH218244   7.024   0.845   3.979  0.4028  0.1417  0.4994
 6103TIP3    H118245   7.032   0.774   4.043 -1.3503 -0.3238  0.2103
 6103TIP3    H218246   6.932   0.872   3.984 -0.2307 -1.1918 -3.2168
 6104TIP3   OH218247   1.523   6.704   0.248  0.8325 -0.0294  0.1570
 6104TIP3    H118248   1.574   6.695   0.168  1.2350  1.4991  0.2389
 6104TIP3    H218249   1.439   6.740   0.220  0.3840 -1.0082  0.2282
 6105TIP3   OH218250   0.162   0.526   4.105  0.5507  0.1192  0.1947
 6105TIP3    H118251   0.196   0.438   4.089 -0.8903 -0.5820  0.8703
 6105TIP3    H218252   0.067   0.516   4.103  0.3633  1.5970  0.6379
 6106TIP3   OH218253   0.413   0.735   2.712  0.2974 -0.3851  0.5639
 6106TIP3    H118254   0.382   0.787   2.638 -1.3465 -1.7209  0.2883
 6106TIP3    H218255   0.487   0.685   2.678  0.2829 -0.1250  0.1550
 6107TIP3   OH218256   7.112   3.370   2.880  0.0744 -0.1595 -0.1292
 6107TIP3    H118257   7.155   3.307   2.938  0.8420 -0.2741 -0.8084
 6107TIP3    H218258   7.025   3.332   2.865  0.3310 -0.7800 -0.0909
 6108TIP3   OH218259   4.368   7.821   5.507  0.6951 -0.1949  0.1275
 6108TIP3    H118260   4.304   7.800   5.576  1.5797  0.5216  1.1921
 6108TIP3    H218261   4.345   7.910   5.480 -0.3142 -0.8695 -1.2704
 6109TIP3   OH218262   7.318   0.649   3.117  0.1111  0.7460 -0.1989
 6109TIP3    H118263   7.224   0.651   3.132  0.5594  0.3612  2.9502
 6109TIP3    H218264   7.333   0.567   3.069 -0.9563 -0.0753  0.8355
 6110TIP3   OH218265   1.209   0.115   2.742 -0.2474 -0.0143  0.3548
 6110TIP3    H118266   1.157   0.063   2.680  0.1937  0.2482 -0.2385
 6110TIP3    H218267   1.189   0.077   2.828 -1.5465  0.1831  0.1570
 6111TIP3   OH218268   1.397   1.102   4.452  0.0860  0.2934 -0.5673
 6111TIP3    H118269   1.372   1.167   4.387 -2.1967  0.7543  0.7263
 6111TIP3    H218270   1.386   1.018   4.408 -0.6869  0.6394 -1.0413
 6112TIP3   OH218271   5.275   2.200   6.154 -0.3404  0.1541  0.2069
 6112TIP3    H118272   5.258   2.113   6.190 -1.8473  0.1972 -0.3792
 6112TIP3    H218273   5.342   2.237   6.212 -1.0024 -0.6890  1.5286
 6113TIP3   OH218274   6.725   0.931   6.195 -0.2318  0.5096 -0.2200
 6113TIP3    H118275   6.651   0.910   6.139 -1.3591  2.4693  0.4941
 6113TIP3    H218276   6.771   1.001   6.149  2.2356 -1.8178 -1.5066
 6114TIP3   OH218277   0.139   0.048   4.363 -0.3166  0.3295 -0.1315
 6114TIP3    H118278   0.144   0.100   4.283 -1.0588 -0.5339 -0.7685
 6114TIP3    H218279   0.211  -0.015   4.356 -1.2624 -0.7080 -0.8570
 6115TIP3   OH218280   3.839   6.414   0.841  0.4201  0.6766 -0.3140
 6115TIP3    H118281   3.827   6.369   0.925  0.7793  0.3812 -0.4194
 6115TIP3    H218282   3.750   6.425   0.806  0.4554 -1.9516 -1.3366
 6116TIP3   OH218283   3.630   7.405   3.802 -0.6235  0.2537 -0.6456
 6116TIP3    H118284   3.657   7.497   3.799 -2.5963  0.8229 -2.1101
 6116TIP3    H218285   3.573   7.395   3.726 -2.9233 -1.3682  1.2390
 6117TIP3   OH218286   5.816   7.497   3.056  0.5286  0.2425 -0.3184
 6117TIP3    H118287   5.768   7.575   3.084 -0.6489 -0.5929  0.0183
 6117TIP3    H218288   5.874   7.477   3.129 -2.2770 -1.7229  1.4598
 6118TIP3   OH218289   7.331   0.278   5.184 -0.7670  0.1447  0.4989
 6118TIP3    H118290   7.376   0.231   5.254 -1.5057  0.5234  1.2346
 6118TIP3    H218291   7.272   0.213   5.146 -0.2169 -0.1172  0.0912
 6119TIP3   OH218292   3.405   7.432   4.416 -0.3822 -0.0047 -0.0565
 6119TIP3    H118293   3.315   7.406   4.401  0.0719 -1.0655 -1.0139
 6119TIP3    H218294   3.455   7.391   4.346  0.4519  3.0613 -1.3647
 6120TIP3   OH218295   6.653   4.966   2.885  0.2373 -0.3053 -0.1125
 6120TIP3    H118296   6.597   4.888   2.879  0.0416 -0.1865  0.1649
 6120TIP3    H218297   6.685   4.978   2.796  0.0567 -0.5496 -0.2138
 6121TIP3   OH218298   0.974   4.606   0.912  0.5778 -0.2816  0.9989
 6121TIP3    H118299   1.007   4.628   0.824 -0.2609  0.0817  0.7728
 6121TIP3    H218300   0.890   4.564   0.896  1.2925 -1.9400  1.5432
 6122TIP3   OH218301   5.067   5.833   4.252 -0.0948  0.3299  0.2165
 6122TIP3    H118302   5.131   5.905   4.259 -0.6442  0.8926 -0.4645
 6122TIP3    H218303   5.113   5.757   4.289 -0.0036  1.3355  2.2476
 6123TIP3   OH218304   8.420   3.032   5.424  0.1945 -0.2826 -0.2899
 6123TIP3    H118305   8.390   2.948   5.461  2.7189  0.5569  4.0346
 6123TIP3    H218306   8.365   3.097   5.468  1.3774  0.5921 -0.1069
 6124TIP3   OH218307   0.864   6.255   1.241  0.2605 -0.1391 -0.0823
 6124TIP3    H118308   0.930   6.315   1.276  0.7419  0.2749 -1.6532
 6124TIP3    H218309   0.885   6.248   1.148  0.2470 -2.7910  0.0619
 6125TIP3   OH218310   7.370   2.953   5.716  0.0038 -0.0552 -0.0142
 6125TIP3    H118311   7.404   3.042   5.728  0.9284 -0.5917  1.5582
 6125TIP3    H218312   7.289   2.951   5.768  0.3625 -0.3423  0.5354
 6126TIP3   OH218313   6.430   4.730   2.497  0.1932 -0.0783 -0.5958
 6126TIP3    H118314   6.409   4.791   2.426  0.9469 -0.0870 -0.8286
 6126TIP3    H218315   6.524   4.717   2.490  0.3549  0.3299  0.7371
 6127TIP3   OH218316   0.534   0.616   6.725  0.1284 -0.0133  0.1763
 6127TIP3    H118317   0.617   0.569   6.731 -0.3753 -0.7680  1.6143
 6127TIP3    H218318   0.531   0.669   6.805 -1.6262 -1.4404  1.0863
 6128TIP3   OH218319   3.901   3.392   4.546  0.1857 -0.2972 -0.0434
 6128TIP3    H118320   3.914   3.299   4.529 -0.9504 -0.7989  1.7313
 6128TIP3    H218321   3.807   3.405   4.542  0.1630  0.3143  1.9042
 6129TIP3   OH218322   7.872   5.310   0.231 -0.0565  0.5493 -0.0097
 6129TIP3    H118323   7.797   5.275   0.280 -1.2673  2.0713 -0.7327
 6129TIP3    H218324   7.852   5.403   0.220  0.5228  0.3956 -2.7826
 6130TIP3   OH218325   6.938   1.511   5.064 -0.8813  0.0236  0.1890
 6130TIP3    H118326   7.000   1.527   5.136 -1.9859 -0.0772  1.1745
 6130TIP3    H218327   6.880   1.443   5.097 -2.8230  1.5941  0.0758
 6131TIP3   OH218328   5.129   1.498   4.622 -0.2491 -0.0620 -0.4795
 6131TIP3    H118329   5.158   1.438   4.690  1.4186 -0.3266 -1.3922
 6131TIP3    H218330   5.130   1.445   4.542  0.0489  0.8423 -1.0849
 6132TIP3   OH218331   4.849   1.073   6.206 -0.3227  0.0115 -0.0665
 6132TIP3    H118332   4.904   1.151   6.210 -1.1732  0.6376 -0.3516
 6132TIP3    H218333   4.780   1.096   6.143 -1.1688 -0.5901  0.6404
 6133TIP3   OH218334   0.068   2.466   3.886 -0.3641 -0.5638 -0.2477
 6133TIP3    H118335   0.104   2.434   3.969  1.7585  0.0429 -0.8948
 6133TIP3    H218336   0.074   2.390   3.828 -2.8112 -1.2991  0.3904
 6134TIP3   OH218337   7.677   1.745   4.476 -0.2905 -0.0385  0.4334
 6134TIP3    H118338   7.615   1.741   4.549 -0.1738 -3.1222  0.4233
 6134TIP3    H218339   7.763   1.738   4.517 -0.2408 -2.2339  0.0206
 6135TIP3   OH218340   7.479   0.372   1.548 -0.1737 -0.0464  0.4180
 6135TIP3    H118341   7.417   0.300   1.560 -0.1606 -0.3271 -1.1718
 6135TIP3    H218342   7.530   0.347   1.471  1.6865  0.3551  1.4791
 6136TIP3   OH218343   6.947   0.889   5.381 -0.4599 -0.3455  0.7283
 6136TIP3    H118344   6.951   0.795   5.366  0.7367 -0.3869  1.2999
 6136TIP3    H218345   7.004   0.926   5.313 -0.5410 -0.0675  0.8128
 6137TIP3   OH218346   6.807   2.174   4.396  0.1934 -0.7127 -0.0629
 6137TIP3    H118347   6.757   2.255   4.408  1.1128 -0.0535 -0.6106
 6137TIP3    H218348   6.897   2.199   4.416  0.9903 -0.7991 -3.3967
 6138TIP3   OH218349   6.270   7.894   3.971 -0.3957  0.6029  0.2848
 6138TIP3    H118350   6.340   7.926   4.028  0.5000 -0.3176 -0.2907
 6138TIP3    H218351   6.218   7.837   4.026 -0.8421  1.4797  0.7802
 6139TIP3   OH218352   0.734   0.314   5.324  0.0972 -0.3108  0.2295
 6139TIP3    H118353   0.766   0.393   5.369 -0.0117 -1.2861  2.0775
 6139TIP3    H218354   0.666   0.347   5.264  0.2240  1.0307  0.7942
 6140TIP3   OH218355   6.714   0.829   4.498  0.0886  0.5903 -0.6332
 6140TIP3    H118356   6.691   0.752   4.446  0.3041 -0.5702  0.9718
 6140TIP3    H218357   6.759   0.887   4.436  1.3531 -1.2501 -1.4786
 6141TIP3   OH218358   7.712   3.222   5.588  0.2172  0.3537 -0.1464
 6141TIP3    H118359   7.780   3.289   5.588 -0.1209  0.7272 -1.5778
 6141TIP3    H218360   7.645   3.256   5.528 -1.1510 -0.0797  1.0999
 6142TIP3   OH218361   0.212   2.397   4.121 -0.5518  0.3916 -0.1713
 6142TIP3    H118362   0.211   2.311   4.165 -1.7147  0.2012 -0.5317
 6142TIP3    H218363   0.300   2.405   4.086 -0.4145 -0.6511 -0.0932
 6143TIP3   OH218364   7.363   1.209   2.819 -0.4609 -1.0218 -0.0917
 6143TIP3    H118365   7.301   1.274   2.787 -0.6422 -1.8651 -1.4923
 6143TIP3    H218366   7.312   1.156   2.880 -0.6330 -0.5907  0.1404
 6144TIP3   OH218367   0.043   1.898   4.016  0.1295 -0.4390  0.7007
 6144TIP3    H118368   0.106   1.968   4.034 -0.2732  0.1598 -0.2188
 6144TIP3    H218369   0.095   1.818   4.024  1.1490  0.0775 -0.5831
 6145TIP3   OH218370   7.478   1.780   4.662  0.0611 -0.0207  0.0318
 6145TIP3    H118371   7.454   1.856   4.717  0.4031 -0.2242  0.4659
 6145TIP3    H218372   7.415   1.713   4.687 -0.1399  0.0692 -0.2348
 6146TIP3   OH218373   8.001   1.042   4.423  0.2808  0.0102 -0.5002
 6146TIP3    H118374   8.005   1.088   4.339 -0.7983 -1.0072 -1.1390
 6146TIP3    H218375   7.947   1.099   4.479  1.6377  1.0581 -0.2389
 6147TIP3   OH218376   8.231   0.127   5.639 -0.0063  0.2683  0.1361
 6147TIP3    H118377   8.284   0.192   5.593  0.6379  0.0538  0.5682
 6147TIP3    H218378   8.149   0.173   5.658  0.0864  0.6562 -0.3858
 6148TIP3   OH218379   6.777   1.800   4.575 -0.0845  0.8020 -0.5787
 6148TIP3    H118380   6.742   1.730   4.631 -1.8657  1.0890 -1.2799
 6148TIP3    H218381   6.821   1.753   4.503 -0.1924  0.4091 -0.3905
 6149TIP3   OH218382   5.644   1.297   5.244 -0.1757 -0.4558 -0.3532
 6149TIP3    H118383   5.598   1.379   5.263  0.2753 -0.4212  0.6098
 6149TIP3    H218384   5.582   1.228   5.266 -0.1621 -0.3926 -0.1212
 6150TIP3   OH218385   8.010   2.242   3.353  0.0162 -0.2171 -0.1173
 6150TIP3    H118386   8.077   2.275   3.413  0.3844 -0.5709 -0.3333
 6150TIP3    H218387   7.927   2.253   3.400  0.3892 -1.3318  0.8025
 6151TIP3   OH218388   3.492   8.020   5.863  0.2053  0.0589 -0.0429
 6151TIP3    H118389   3.409   8.003   5.907 -0.0323  2.1618  0.3740
 6151TIP3    H218390   3.472   8.007   5.770 -0.9508  1.7663 -0.0647
 6152TIP3   OH218391   0.945   0.923   0.863 -0.1490  0.0306  0.1899
 6152TIP3    H118392   0.962   0.920   0.957  0.1054  2.9485  0.2788
 6152TIP3    H218393   0.886   0.849   0.847  0.7476 -1.2195  2.4139
 6153TIP3   OH218394   7.880   1.061   2.552  0.1089 -0.8899  0.6419
 6153TIP3    H118395   7.784   1.065   2.551  0.1196 -0.6380 -0.2012
 6153TIP3    H218396   7.901   0.976   2.513  0.2538  0.1261 -1.6274
 6154TIP3   OH218397   7.655   2.197   4.742  0.1003  0.0676  0.5960
 6154TIP3    H118398   7.627   2.139   4.812  1.7560 -0.9706  0.4368
 6154TIP3    H218399   7.743   2.167   4.720  0.2266  1.4034 -0.8293
 6155TIP3   OH218400   6.900   3.114   4.638 -0.0612 -0.0383  0.4585
 6155TIP3    H118401   6.964   3.170   4.594  0.7614 -1.7377 -0.5653
 6155TIP3    H218402   6.933   3.025   4.623 -1.4260 -0.7951  1.9212
 6156TIP3   OH218403   6.819   0.611   5.170 -0.4403 -0.3283  1.2624
 6156TIP3    H118404   6.770   0.529   5.172 -1.9836  0.5275  0.1994
 6156TIP3    H218405   6.896   0.592   5.117 -1.3758 -0.7933  0.0521
 6157TIP3   OH218406   7.054   2.269   4.454  0.7873  0.3369  0.4593
 6157TIP3    H118407   7.103   2.342   4.416  0.1110  1.4788  1.7524
 6157TIP3    H218408   7.080   2.268   4.546  0.2713 -0.6234  0.6012
 6158TIP3   OH218409   1.546   2.779   5.918 -0.2089  0.2220 -0.0891
 6158TIP3    H118410   1.511   2.868   5.913  2.1097  1.1571 -0.0686
 6158TIP3    H218411   1.558   2.764   6.011 -0.9940 -0.2846 -0.0655
 6159TIP3   OH218412   7.619   0.996   5.361 -0.0590  0.0308  0.1812
 6159TIP3    H118413   7.677   0.921   5.351 -0.8300 -0.5064 -0.2479
 6159TIP3    H218414   7.584   1.012   5.274  0.6672  1.3515  0.1174
 6160TIP3   OH218415   8.030   2.467   3.180  0.1009 -0.0183 -0.3155
 6160TIP3    H118416   8.022   2.451   3.086  3.4233 -0.2031 -0.6287
 6160TIP3    H218417   8.032   2.379   3.219  0.8662  0.0153 -0.2820
 6161TIP3   OH218418   7.466   0.800   1.904 -0.6749 -0.5790 -0.0889
 6161TIP3    H118419   7.497   0.838   1.823  0.0473 -3.4826 -1.2445
 6161TIP3    H218420   7.506   0.713   1.907 -0.4211 -0.4231  3.5336
 6162TIP3   OH218421   2.022   1.551   2.248 -0.8860  0.1485  0.2577
 6162TIP3    H118422   2.053   1.608   2.318 -1.2859 -0.7424  1.1729
 6162TIP3    H218423   1.959   1.493   2.290  0.3644 -1.7513 -0.3768
 6163TIP3   OH218424   8.259   0.596   4.377  0.0395  0.3439  0.5121
 6163TIP3    H118425   8.190   0.661   4.363 -0.0216  0.8539  2.9322
 6163TIP3    H218426   8.307   0.628   4.454  0.9444 -1.6991  0.8343
 6164TIP3   OH218427   7.073   3.412   4.794  0.5720 -0.1056 -0.4965
 6164TIP3    H118428   7.158   3.446   4.821  0.4864  0.7270 -1.2594
 6164TIP3    H218429   7.094   3.341   4.733  0.7269  0.3224 -0.9514
 6165TIP3   OH218430   0.046   3.143   4.526  0.3058 -0.2588 -0.4752
 6165TIP3    H118431   0.095   3.125   4.606  1.9658  0.0895 -1.3838
 6165TIP3    H218432   0.039   3.239   4.524 -0.9073 -0.3311 -0.0760
 6166TIP3   OH218433   8.095   2.859   2.322  0.3231  0.5713  0.4171
 6166TIP3    H118434   8.063   2.888   2.236 -1.4543  0.8652  1.1668
 6166TIP3    H218435   8.186   2.833   2.306  0.2654  1.4201 -1.3852
 6167TIP3   OH218436   8.268   2.029   4.152 -0.8118 -0.8445  0.1166
 6167TIP3    H118437   8.193   1.971   4.150 -0.4317 -1.3268 -1.9867
 6167TIP3    H218438   8.342   1.973   4.125 -0.4091  0.5264 -1.7142
 6168TIP3   OH218439   7.318   0.091   3.850  0.0271 -0.1019  0.2976
 6168TIP3    H118440   7.357   0.003   3.851 -0.3327 -0.2590  0.7904
 6168TIP3    H218441   7.228   0.077   3.879 -0.3437  0.2860 -0.6692
 6169TIP3   OH218442   6.437   3.985   2.199 -0.1166  0.0140 -0.1410
 6169TIP3    H118443   6.367   3.920   2.204  0.8305 -1.0059 -0.0455
 6169TIP3    H218444   6.425   4.026   2.113 -3.1381  2.5080  1.3508
 6170TIP3   OH218445   7.082   0.949   3.574 -0.7159  0.0320  0.3300
 6170TIP3    H118446   7.157   0.954   3.515 -1.4396 -0.5691 -0.6361
 6170TIP3    H218447   7.115   0.901   3.650  0.1426  0.6014  0.3298
 6171TIP3   OH218448   0.175   0.691   5.787  0.2241 -0.1150  0.9372
 6171TIP3    H118449   0.164   0.786   5.784 -1.3149 -0.2892  0.4922
 6171TIP3    H218450   0.269   0.678   5.795  0.6188  1.4253 -0.8322
 6172TIP3   OH218451   2.201   2.542   4.583  0.0455  0.1920 -0.0407
 6172TIP3    H118452   2.284   2.587   4.572  0.9052 -1.5308 -0.8044
 6172TIP3    H218453   2.225   2.455   4.615 -1.4513 -0.3369 -0.2971
 6173TIP3   OH218454   7.779   0.926   4.857  0.2565  0.3362  0.1212
 6173TIP3    H118455   7.794   0.852   4.916  1.7894  0.9992  0.5976
 6173TIP3    H218456   7.721   0.892   4.789  1.0869 -1.3460  0.2375
 6174TIP3   OH218457   0.294   2.433   5.780 -0.0413  0.0273 -0.0734
 6174TIP3    H118458   0.357   2.363   5.794 -0.0313  0.3048  1.3100
 6174TIP3    H218459   0.215   2.388   5.750  0.2510 -0.4919 -0.0708
 6175TIP3   OH218460   0.316   3.460   4.470  0.2564 -0.0495 -0.1383
 6175TIP3    H118461   0.351   3.401   4.536 -0.4413  0.0707  0.3421
 6175TIP3    H218462   0.324   3.410   4.388  0.2165 -0.5783  0.1754
 6176TIP3   OH218463   2.044   2.864   2.776  0.0140 -0.4261  0.5349
 6176TIP3    H118464   2.013   2.954   2.780 -0.6686 -0.5641 -1.1217
 6176TIP3    H218465   2.093   2.859   2.693 -1.4102 -2.0045 -0.2553
 6177TIP3   OH218466   1.937   1.341   5.957 -0.3147  0.0720  0.0821
 6177TIP3    H118467   2.028   1.314   5.944 -0.7425 -1.3224 -0.0534
 6177TIP3    H218468   1.901   1.345   5.869 -0.4755  0.3130  0.1596
 6178TIP3   OH218469   1.769   0.427   5.085 -0.4242  0.5672 -0.2242
 6178TIP3    H118470   1.700   0.415   5.020 -1.0460  2.6887  0.0123
 6178TIP3    H218471   1.723   0.438   5.168  0.3205 -0.8746  0.4014
 6179TIP3   OH218472   0.336   0.898   5.024  0.0488 -0.5846  0.4027
 6179TIP3    H118473   0.294   0.856   4.950 -1.2615  0.1388  0.7142
 6179TIP3    H218474   0.427   0.869   5.020  0.2080  0.1404 -1.9917
 6180TIP3   OH218475   1.779   3.969   4.241 -0.0105 -0.1093  0.7381
 6180TIP3    H118476   1.806   3.878   4.228 -1.7577 -0.6960  1.0765
 6180TIP3    H218477   1.810   3.990   4.329 -0.3637 -0.6792  1.0054
 6181TIP3   OH218478   2.621   5.662   0.127  0.2155  0.4116 -0.2630
 6181TIP3    H118479   2.697   5.626   0.174 -0.3796  1.1126  1.2316
 6181TIP3    H218480   2.598   5.741   0.174  0.0679  1.5489 -2.1949
 6182TIP3   OH218481   6.924   1.760   6.584  0.3646  0.4268 -0.3651
 6182TIP3    H118482   6.860   1.696   6.556 -0.3542  0.7096  0.6000
 6182TIP3    H218483   7.004   1.736   6.538 -0.0239 -0.8726 -0.3750
 6183TIP3   OH218484   2.439   2.476   2.887  0.7890  0.4441  0.1766
 6183TIP3    H118485   2.410   2.567   2.875 -0.6799 -0.0063  0.2581
 6183TIP3    H218486   2.466   2.447   2.800  0.6827  0.7602  0.0376
 6184TIP3   OH218487   1.058   1.578   5.552 -0.2493  0.5097 -0.2037
 6184TIP3    H118488   1.042   1.657   5.500  2.4421  1.4906  0.3619
 6184TIP3    H218489   1.044   1.506   5.491 -0.6831  1.5137 -1.3072
 6185TIP3   OH218490   1.659   0.817   4.601  0.3826  0.0463 -0.6941
 6185TIP3    H118491   1.613   0.792   4.522  0.0512  1.9334 -1.1089
 6185TIP3    H218492   1.590   0.843   4.662  0.7354  0.2068 -0.3615
 6186TIP3   OH218493   2.146   0.762   6.199 -0.0793  0.0090  0.4225
 6186TIP3    H118494   2.206   0.826   6.239  1.1573 -1.1623  0.4721
 6186TIP3    H218495   2.199   0.719   6.132 -0.5856 -1.7131  1.1216
 6187TIP3   OH218496   0.445   1.691   6.438  0.2520  0.1862 -0.2272
 6187TIP3    H118497   0.498   1.629   6.487  2.2878  1.8872 -0.1737
 6187TIP3    H218498   0.358   1.686   6.477  1.4449  0.4177  2.5766
 6188TIP3   OH218499   3.235   1.604   6.679 -0.2469  0.5580  0.6577
 6188TIP3    H118500   3.150   1.562   6.670  0.6985 -1.5169  1.1236
 6188TIP3    H218501   3.249   1.610   6.774  0.7080 -0.3628  0.5890
 6189TIP3   OH218502   7.454   1.505   5.800 -0.1171 -0.3923  0.0503
 6189TIP3    H118503   7.541   1.545   5.801 -0.1485 -0.3247 -0.0315
 6189TIP3    H218504   7.455   1.445   5.875  0.7167 -1.8950 -1.1150
 6190TIP3   OH218505   0.888   2.030   5.043  0.6597  0.0018 -0.2117
 6190TIP3    H118506   0.818   2.002   5.102  0.4395  0.5267 -0.2206
 6190TIP3    H218507   0.864   1.991   4.959  0.3304  0.2420 -0.2339
 6191TIP3   OH218508   3.010   3.032   5.520  0.0755 -0.0812  0.3700
 6191TIP3    H118509   2.933   3.075   5.482 -0.4217  0.5548  2.0077
 6191TIP3    H218510   3.062   3.104   5.556  0.3801 -0.6549  1.0976
 6192TIP3   OH218511   6.602   7.531   3.554 -0.1635 -0.0364 -0.1093
 6192TIP3    H118512   6.553   7.455   3.586 -3.3806  1.5358 -1.1320
 6192TIP3    H218513   6.535   7.593   3.525  2.4472  2.2587 -1.4933
 6193TIP3   OH218514   3.071   4.668   5.085 -0.2475 -0.0205 -0.6523
 6193TIP3    H118515   3.009   4.639   5.018  0.0364 -1.7232 -0.1929
 6193TIP3    H218516   3.154   4.629   5.060 -0.0856 -0.4899  0.5519
 6194TIP3   OH218517   2.006   1.863   3.727  0.3165 -0.6445 -0.0357
 6194TIP3    H118518   2.100   1.872   3.744  0.2653 -1.7324  0.8719
 6194TIP3    H218519   2.000   1.855   3.632  1.1595 -0.7145 -0.0888
 6195TIP3   OH218520   1.866   5.725   3.978 -0.1610 -0.3585 -0.6327
 6195TIP3    H118521   1.957   5.696   3.972 -0.0249  0.2367 -1.4200
 6195TIP3    H218522   1.815   5.651   3.948 -0.0639 -1.4599  1.7515
 6196TIP3   OH218523   0.030   2.869   6.454  0.0564  0.0557 -0.0097
 6196TIP3    H118524   0.120   2.889   6.428 -0.3579  2.1217  0.0207
 6196TIP3    H218525   0.038   2.822   6.537  1.1472 -0.9014 -0.6578
 6197TIP3   OH218526   1.674   2.730   5.565  0.1816 -0.1530  0.0302
 6197TIP3    H118527   1.590   2.690   5.544 -0.8637  1.6951  0.5471
 6197TIP3    H218528   1.704   2.687   5.645 -1.3432  0.6827  1.0675
 6198TIP3   OH218529   1.121   2.134   5.171 -0.3823 -0.5383 -0.2930
 6198TIP3    H118530   1.107   2.227   5.155  1.0593 -0.6533 -2.2621
 6198TIP3    H218531   1.037   2.093   5.148 -1.7543  0.4491  2.6329
 6199TIP3   OH218532   2.088   4.002   5.324 -0.3129  0.1088 -0.0700
 6199TIP3    H118533   2.031   4.045   5.260  0.0424  1.2158  0.3545
 6199TIP3    H218534   2.152   4.068   5.348  0.1643 -0.6207  0.6920
 6200TIP3   OH218535   2.653   2.026   3.018  0.8548  0.4523  0.1912
 6200TIP3    H118536   2.689   2.023   3.106 -0.8604  0.7280  0.9178
 6200TIP3    H218537   2.602   2.107   3.015  0.2808  0.0648 -0.7903
 6201TIP3   OH218538   0.944   2.726   5.573  0.2888  0.3211  0.6552
 6201TIP3    H118539   1.038   2.709   5.583  0.1592  0.3391  1.9783
 6201TIP3    H218540   0.910   2.724   5.663 -1.3047 -1.6753  0.0439
 6202TIP3   OH218541   1.487   0.859   5.215  0.0042  0.0106  0.3657
 6202TIP3    H118542   1.428   0.795   5.255  0.5631 -0.7340  0.0010
 6202TIP3    H218543   1.489   0.932   5.277  0.7197 -1.0566  1.6043
 6203TIP3   OH218544   2.511   2.143   5.373 -0.1077 -0.0803 -0.1126
 6203TIP3    H118545   2.473   2.215   5.323  0.3331 -0.1686 -0.5680
 6203TIP3    H218546   2.515   2.070   5.312 -0.8201 -0.5868  0.4239
 6204TIP3   OH218547   3.122   2.579   5.159  0.1742  0.1557 -0.1843
 6204TIP3    H118548   3.104   2.666   5.125  1.4914  0.4054 -0.2890
 6204TIP3    H218549   3.167   2.595   5.243 -1.7657 -0.4403  0.9884
 6205TIP3   OH218550   0.740   3.019   3.836 -0.1176  0.1318 -0.3326
 6205TIP3    H118551   0.675   2.963   3.794 -1.4457  1.8524 -0.6302
 6205TIP3    H218552   0.810   3.028   3.771 -0.3662 -0.3717 -0.6671
 6206TIP3   OH218553   0.630   1.419   6.902 -0.8094  0.3647 -0.2771
 6206TIP3    H118554   0.689   1.354   6.865 -0.0716  0.6860  0.3354
 6206TIP3    H218555   0.686   1.478   6.952 -1.5740  0.9862 -0.1337
 6207TIP3   OH218556   3.729   6.512   0.367 -0.4276  0.2428  0.1230
 6207TIP3    H118557   3.739   6.541   0.276 -0.5412 -1.1500 -0.3487
 6207TIP3    H218558   3.649   6.555   0.397 -0.9469 -0.0729 -0.7652
 6208TIP3   OH218559   8.250   1.744   6.344  0.0458 -0.3714  0.5981
 6208TIP3    H118560   8.323   1.759   6.403 -0.0154  1.4038  0.2451
 6208TIP3    H218561   8.220   1.832   6.320 -0.8788 -1.0738 -0.8764
 6209TIP3   OH218562   2.098   3.570   4.587 -0.0333  0.3940  0.4458
 6209TIP3    H118563   2.069   3.662   4.586  0.7730  0.6596 -2.8610
 6209TIP3    H218564   2.025   3.521   4.549  0.3953 -0.0628  0.2093
 6210TIP3   OH218565   0.720   1.344   6.076  0.4645  0.6840  0.1548
 6210TIP3    H118566   0.684   1.428   6.104 -0.0839  0.7467 -0.7237
 6210TIP3    H218567   0.644   1.290   6.058  0.7929 -0.5874  2.3440
 6211TIP3   OH218568   2.006   3.314   4.376 -0.2267 -0.3913  0.1503
 6211TIP3    H118569   1.980   3.353   4.459 -1.5577  0.8650 -0.8305
 6211TIP3    H218570   2.032   3.388   4.322  0.5530 -1.1926 -0.5834
 6212TIP3   OH218571   0.865   2.824   5.864  0.9543  0.0333  0.2681
 6212TIP3    H118572   0.935   2.833   5.928  0.3027 -0.9516  1.1464
 6212TIP3    H218573   0.853   2.729   5.854 -0.7053  0.1882  0.6573
 6213TIP3   OH218574   1.081   1.387   5.339  0.0219 -0.1156  0.1789
 6213TIP3    H118575   1.104   1.311   5.392 -0.8361 -0.6456 -0.1935
 6213TIP3    H218576   1.164   1.412   5.297  0.5595 -0.1125  1.2097
 6214TIP3   OH218577   4.861   5.692   1.134 -0.2498  0.2788 -0.1646
 6214TIP3    H118578   4.824   5.752   1.070  0.3893 -0.1021 -0.9039
 6214TIP3    H218579   4.947   5.668   1.097 -0.4912 -1.0685  0.1259
 6215TIP3   OH218580   3.057   2.925   5.769 -0.5117 -0.2320 -0.3486
 6215TIP3    H118581   3.115   2.882   5.706 -1.7810 -1.8826 -0.4102
 6215TIP3    H218582   2.995   2.973   5.715 -1.0381 -0.9037 -0.3443
 6216TIP3   OH218583   0.469   1.833   5.788 -0.3148 -0.0804 -0.2237
 6216TIP3    H118584   0.452   1.789   5.704  0.4504 -0.2162 -0.3203
 6216TIP3    H218585   0.543   1.891   5.769 -0.0001 -0.2710  0.4066
 6217TIP3   OH218586   8.183   2.226   4.604 -0.2268  0.3323 -0.0023
 6217TIP3    H118587   8.265   2.204   4.649 -0.5376  0.8899  0.8587
 6217TIP3    H218588   8.208   2.238   4.513  0.8601  1.6619  0.4591
 6218TIP3   OH218589   2.185   4.468   2.838 -0.4281 -0.0256  0.0679
 6218TIP3    H118590   2.246   4.534   2.805 -1.0745  1.2250  1.2892
 6218TIP3    H218591   2.230   4.431   2.914 -1.2968  1.1437  1.1799
 6219TIP3   OH218592   8.141   3.864   4.131 -0.4226 -0.2162 -0.1212
 6219TIP3    H118593   8.087   3.897   4.059 -1.4191 -1.1051  0.2127
 6219TIP3    H218594   8.122   3.771   4.135 -0.5677 -0.1389  1.4514
 6220TIP3   OH218595   0.738   1.183   6.355 -0.6832 -0.5532 -0.0206
 6220TIP3    H118596   0.643   1.183   6.369 -0.7583 -0.5859 -0.5305
 6220TIP3    H218597   0.759   1.274   6.334 -0.6114 -0.5637  0.0041
 6221TIP3   OH218598   0.927   0.913   5.467  0.2010 -0.0066  0.9627
 6221TIP3    H118599   0.901   1.002   5.492  0.4535  0.2961  0.1461
 6221TIP3    H218600   0.930   0.865   5.550  0.5648  0.8785  1.4626
 6222TIP3   OH218601   2.008   2.631   4.871 -0.0951  0.1833 -0.0284
 6222TIP3    H118602   2.058   2.609   4.950 -0.2697 -0.4527 -0.0980
 6222TIP3    H218603   1.976   2.547   4.838 -0.6973  0.5279 -0.3273
 6223TIP3   OH218604   1.952   2.660   4.557  0.0091  0.3663 -0.1907
 6223TIP3    H118605   2.020   2.617   4.610 -0.5592 -0.0991  0.1666
 6223TIP3    H218606   2.000   2.726   4.507  0.2808  2.0220  2.1914
 6224TIP3   OH218607   2.906   2.725   6.421  0.1911  0.0660 -0.0590
 6224TIP3    H118608   2.881   2.656   6.482  0.6773  0.7007  0.8706
 6224TIP3    H218609   2.938   2.796   6.477 -0.0023  0.9212 -1.0161
 6225TIP3   OH218610   7.198   0.764   5.338 -0.3077 -0.1348  0.4670
 6225TIP3    H118611   7.257   0.697   5.302  0.4429  0.4844  0.5210
 6225TIP3    H218612   7.140   0.716   5.396 -0.6103 -0.9374 -0.4746
 6226TIP3   OH218613   0.219   2.665   5.906 -0.3000  1.0103  0.0811
 6226TIP3    H118614   0.242   2.740   5.850 -1.0338  0.7067 -0.6405
 6226TIP3    H218615   0.261   2.590   5.863 -1.6916  0.6235 -0.6291
 6227TIP3   OH218616   0.792   2.134   6.330  0.0553  0.5795  0.3198
 6227TIP3    H118617   0.838   2.160   6.250 -0.3362  2.1553  0.5778
 6227TIP3    H218618   0.770   2.217   6.373 -1.2789 -0.1994  1.1917
 6228TIP3   OH218619   0.620   1.850   4.682  0.1277  0.6826  0.6521
 6228TIP3    H118620   0.589   1.931   4.640 -0.1433  0.0957 -0.3056
 6228TIP3    H218621   0.692   1.878   4.738 -0.1632  1.6362  0.5549
 6229TIP3   OH218622   0.358   4.147   4.632  0.2751 -0.0972  0.1679
 6229TIP3    H118623   0.262   4.145   4.625  0.3562 -1.4892 -0.8149
 6229TIP3    H218624   0.389   4.110   4.549  1.7072  1.7790 -0.1480
 6230TIP3   OH218625   2.548   3.577   3.622 -0.1059  0.0126  0.2155
 6230TIP3    H118626   2.582   3.665   3.613 -1.5994  0.6952  1.0668
 6230TIP3    H218627   2.567   3.552   3.712 -2.0544  0.4987  0.7746
 6231TIP3   OH218628   0.553   2.728   4.281 -0.1655  0.3786  0.5670
 6231TIP3    H118629   0.610   2.718   4.205 -0.4378  2.5242  0.0242
 6231TIP3    H218630   0.477   2.674   4.261  0.6695 -0.6828  0.2491
 6232TIP3   OH218631   1.396   5.716   0.784 -0.9726 -0.1183  0.1248
 6232TIP3    H118632   1.411   5.789   0.725  1.4821 -0.5478  0.1877
 6232TIP3    H218633   1.374   5.642   0.727 -0.8302  0.0075 -0.0919
 6233TIP3   OH218634   6.474   1.583   4.290  0.1413  0.4324  0.3064
 6233TIP3    H118635   6.396   1.638   4.277  0.1509  1.0515  2.6302
 6233TIP3    H218636   6.541   1.643   4.320  0.5694 -0.6133  1.5009
 6234TIP3   OH218637   7.633   1.229   5.163  0.3213 -0.5294  0.5804
 6234TIP3    H118638   7.657   1.224   5.256  0.9705  0.2692  0.4665
 6234TIP3    H218639   7.714   1.205   5.117  0.3273  0.1892  0.2139
 6235TIP3   OH218640   2.110   2.399   5.562  0.5622  0.5945  0.2848
 6235TIP3    H118641   2.202   2.384   5.584  0.5300  0.1850  0.1409
 6235TIP3    H218642   2.100   2.495   5.563  0.5896  0.5900  1.9491
 6236TIP3   OH218643   1.141   1.320   6.404 -0.1725 -0.4139  0.8459
 6236TIP3    H118644   1.074   1.286   6.463 -0.6397 -1.5197 -0.2801
 6236TIP3    H218645   1.094   1.335   6.321  0.4903  0.9968  0.7181
 6237TIP3   OH218646   7.573   1.994   5.224 -0.2954 -0.2634 -0.1850
 6237TIP3    H118647   7.607   2.046   5.296 -0.2826 -0.0376 -0.3536
 6237TIP3    H218648   7.503   1.942   5.262 -0.7462  0.3574 -0.1606
 6238TIP3   OH218649   4.110   5.877   0.073  0.3921 -0.1083  0.0741
 6238TIP3    H118650   4.036   5.895   0.130  0.3212 -0.0033 -0.0516
 6238TIP3    H218651   4.187   5.905   0.123  0.2862  0.4876 -0.0987
 6239TIP3   OH218652   1.675   3.058   5.523  0.0771 -0.0140  0.3297
 6239TIP3    H118653   1.585   3.047   5.552 -0.0846  1.7439  0.5797
 6239TIP3    H218654   1.673   3.042   5.429 -0.5308  0.2026  0.3063
 6240TIP3   OH218655   2.784   2.264   3.597 -0.1501 -0.5689  0.2534
 6240TIP3    H118656   2.732   2.341   3.621  0.7595  0.3548 -0.6613
 6240TIP3    H218657   2.720   2.194   3.588 -0.8824 -0.1448  2.0101
 6241TIP3   OH218658   7.864   1.018   6.188 -0.3633 -0.6282  0.1667
 6241TIP3    H118659   7.912   1.092   6.227 -0.0397  0.3388 -2.0356
 6241TIP3    H218660   7.926   0.980   6.126 -0.5682 -2.7200  1.2238
 6242TIP3   OH218661   8.402   2.494   4.301 -0.9026  0.3991  0.4935
 6242TIP3    H118662   8.360   2.482   4.216  0.2351  0.9708 -0.1619
 6242TIP3    H218663   8.362   2.572   4.338 -1.2408  0.2756  0.3872
 6243TIP3   OH218664   0.631   0.114   4.910  0.2564  0.1678 -0.2887
 6243TIP3    H118665   0.547   0.097   4.870 -0.6038  0.7219  1.2201
 6243TIP3    H218666   0.636   0.210   4.916  0.7770  0.1240  0.0726
 6244TIP3   OH218667   0.431   0.270   4.748 -0.2920 -0.2563  0.0361
 6244TIP3    H118668   0.484   0.315   4.813  0.6230  0.5554 -1.2321
 6244TIP3    H218669   0.476   0.286   4.665 -0.9814 -1.9407 -0.7040
 6245TIP3   OH218670   8.376   2.412   5.364 -0.4212 -0.1858  0.1056
 6245TIP3    H118671   8.309   2.469   5.325 -0.1583  0.7194  0.9515
 6245TIP3    H218672   8.327   2.339   5.401 -0.9008  0.1894  0.2227
 6246TIP3   OH218673   2.867   2.647   4.075 -0.0165  0.5212  0.1335
 6246TIP3    H118674   2.869   2.732   4.031  0.5912  0.5218  0.1544
 6246TIP3    H218675   2.827   2.588   4.010 -0.8045  0.9021  0.2728
 6247TIP3   OH218676   1.058   0.914   4.392  0.1391  0.3262 -0.0444
 6247TIP3    H118677   1.118   0.879   4.458 -0.3611 -0.2306  0.1157
 6247TIP3    H218678   1.116   0.946   4.322  0.6370  0.1753  0.2992
 6248TIP3   OH218679   1.564   1.907   6.287 -1.0963 -0.3278  0.6016
 6248TIP3    H118680   1.494   1.842   6.278 -1.9903  1.0220 -3.1232
 6248TIP3    H218681   1.644   1.856   6.292 -1.9895 -1.7951  0.3057
 6249TIP3   OH218682   1.860   1.613   3.951 -0.8214  0.3378  0.4118
 6249TIP3    H118683   1.918   1.577   4.018 -1.7450  1.4661  1.8238
 6249TIP3    H218684   1.814   1.684   3.994 -0.5321  1.8974 -1.7784
 6250TIP3   OH218685   0.467   4.060   4.384 -0.2091  0.0598  0.0213
 6250TIP3    H118686   0.459   4.098   4.297 -0.1237  2.1247  0.8946
 6250TIP3    H218687   0.509   3.975   4.369 -0.1183  0.4284 -1.9290
 6251TIP3   OH218688   1.237   1.968   5.806 -0.4640  0.0774 -0.1740
 6251TIP3    H118689   1.224   1.888   5.857 -1.5406  0.5359  0.3048
 6251TIP3    H218690   1.220   1.942   5.715  2.8080 -1.0488 -0.5040
 6252TIP3   OH218691   0.844   1.145   5.938  0.4489  0.1528  0.0218
 6252TIP3    H118692   0.787   1.187   6.002  0.3204  0.0037  0.0063
 6252TIP3    H218693   0.879   1.068   5.983  1.2185  0.6525  0.2759
 6253TIP3   OH218694   1.180   0.980   6.784  0.2829  0.3287 -0.0689
 6253TIP3    H118695   1.170   0.975   6.879 -1.1166  0.9566 -0.1751
 6253TIP3    H218696   1.162   1.072   6.763 -2.2311 -0.4065 -1.2563
 6254TIP3   OH218697   7.887   7.681   4.080 -0.1688  0.3348 -0.4460
 6254TIP3    H118698   7.819   7.683   4.012  0.1601  0.4217 -0.7753
 6254TIP3    H218699   7.909   7.773   4.094  0.0594  0.2921 -0.5201
 6255TIP3   OH218700   2.415   3.005   4.831  0.3597  0.2184 -0.0593
 6255TIP3    H118701   2.349   3.073   4.817  0.3763  0.3310  0.4089
 6255TIP3    H218702   2.373   2.925   4.800 -0.2749  0.1673  0.9421
 6256TIP3   OH218703   1.544   2.382   4.096  0.0304 -0.3777 -0.3001
 6256TIP3    H118704   1.622   2.369   4.042  0.3588  0.7392 -0.1148
 6256TIP3    H218705   1.511   2.468   4.070 -0.1247 -0.0688  0.8645
 6257TIP3   OH218706   2.412   0.819   2.467 -0.1257 -0.1618 -0.3003
 6257TIP3    H118707   2.501   0.847   2.445 -0.0151  2.3191  2.9287
 6257TIP3    H218708   2.358   0.851   2.395  1.0854  1.8846 -0.3320
 6258TIP3   OH218709   1.328   3.315   6.435 -0.4193  0.1704 -0.1551
 6258TIP3    H118710   1.256   3.374   6.460  1.0046  0.8993  2.4241
 6258TIP3    H218711   1.329   3.248   6.503  0.2347 -0.8490 -1.1534
 6259TIP3   OH218712   0.331   0.722   4.788 -0.1358 -0.5324  0.5409
 6259TIP3    H118713   0.362   0.750   4.702 -0.3473 -1.3140  0.2115
 6259TIP3    H218714   0.262   0.659   4.769  0.1431 -1.0633  1.2855
 6260TIP3   OH218715   0.672   0.213   4.558  0.0847 -0.5699 -0.1119
 6260TIP3    H118716   0.755   0.216   4.509 -0.1243 -1.3714 -0.5292
 6260TIP3    H218717   0.654   0.304   4.580  0.7289 -0.3131 -0.6191
 6261TIP3   OH218718   2.085   3.119   4.671 -0.2598 -0.4378 -0.0997
 6261TIP3    H118719   2.062   3.210   4.689  0.8549 -0.5247  1.8886
 6261TIP3    H218720   2.001   3.076   4.654 -0.7532  1.0343 -1.5533
 6262TIP3   OH218721   7.801   3.391   5.339 -0.3601 -0.1152 -0.2235
 6262TIP3    H118722   7.753   3.308   5.350 -0.8443 -0.0896 -2.0330
 6262TIP3    H218723   7.738   3.458   5.364 -0.6018 -0.1913 -0.6261
 6263TIP3   OH218724   3.317   2.541   6.557  0.3115 -0.1294  1.0747
 6263TIP3    H118725   3.249   2.474   6.564 -0.0392  0.2131  1.0023
 6263TIP3    H218726   3.336   2.566   6.648  0.2198 -0.1099  1.0890
 6264TIP3   OH218727   0.756   4.330   3.484  0.0515  0.3362 -0.3096
 6264TIP3    H118728   0.756   4.425   3.485  2.3569  0.3677  0.8134
 6264TIP3    H218729   0.798   4.306   3.402  2.5170  0.3753  0.8837
 6265TIP3   OH218730   6.676   0.755   1.061  0.0746 -0.0049 -0.5812
 6265TIP3    H118731   6.646   0.842   1.087  0.9136  0.0009  0.4083
 6265TIP3    H218732   6.720   0.720   1.139 -0.1997 -1.2896 -0.9850
 6266TIP3   OH218733   1.351   2.203   3.513 -0.2268 -0.4518  0.3239
 6266TIP3    H118734   1.374   2.266   3.581 -2.0164  1.0617 -0.4184
 6266TIP3    H218735   1.325   2.124   3.560  0.9869 -0.2764  1.3058
 6267TIP3   OH218736   3.029   2.864   6.627 -0.3686  0.3185 -0.4911
 6267TIP3    H118737   3.018   2.959   6.630 -1.7746  0.1046  2.2889
 6267TIP3    H218738   3.100   2.846   6.689  0.3779 -0.3927 -1.5382
 6268TIP3   OH218739   3.685   5.937   1.175 -0.0002  0.2247  0.1473
 6268TIP3    H118740   3.745   5.895   1.236 -0.9482 -0.5715  0.5473
 6268TIP3    H218741   3.674   5.874   1.104  0.4829  0.8190 -0.4556
 6269TIP3   OH218742   0.740   2.116   4.108  0.3899  0.2271  0.2237
 6269TIP3    H118743   0.784   2.074   4.182 -1.0332 -0.7724  0.5333
 6269TIP3    H218744   0.715   2.202   4.140  1.2511  0.4308  0.3570
 6270TIP3   OH218745   2.812   2.597   5.170 -0.6089  0.2051 -0.3890
 6270TIP3    H118746   2.803   2.635   5.257 -0.4290  0.1082 -0.3276
 6270TIP3    H218747   2.906   2.604   5.150  0.0394 -3.2276  1.0219
 6271TIP3   OH218748   8.010   2.582   5.295  0.1466 -0.0447  0.4165
 6271TIP3    H118749   8.015   2.597   5.390  0.0114  0.3567  0.3608
 6271TIP3    H218750   8.013   2.487   5.286  1.2822 -0.0381  0.7504
 6272TIP3   OH218751   8.290   0.685   5.679  1.0279 -0.7289 -0.4143
 6272TIP3    H118752   8.302   0.742   5.603 -0.7363  0.0571 -0.1312
 6272TIP3    H218753   8.345   0.609   5.661  0.6316 -0.5641 -2.4731
 6273TIP3   OH218754   0.333   2.540   4.597  0.0730 -0.0302  0.0539
 6273TIP3    H118755   0.339   2.634   4.613  2.3874 -0.1980  0.3432
 6273TIP3    H218756   0.312   2.533   4.503 -1.2145  0.7780  0.2745
 6274TIP3   OH218757   0.961   3.191   5.427 -0.3284 -0.1294 -0.3206
 6274TIP3    H118758   0.933   3.110   5.469 -0.4366 -1.1026 -2.2332
 6274TIP3    H218759   0.935   3.182   5.336  2.1783  0.8409 -1.1994
 6275TIP3   OH218760   2.403   1.432   6.509 -0.2593  0.7709  0.2810
 6275TIP3    H118761   2.366   1.503   6.562 -0.3394  0.1855  1.0141
 6275TIP3    H218762   2.470   1.393   6.565 -1.0170 -0.4797  0.3142
 6276TIP3   OH218763   1.786   1.896   6.024 -0.7835 -0.9873 -0.6276
 6276TIP3    H118764   1.706   1.861   5.985 -1.9262 -0.1382  0.8854
 6276TIP3    H218765   1.830   1.941   5.952 -1.9970 -0.9001 -1.3335
 6277TIP3   OH218766   1.001   3.483   5.390 -0.7213 -0.5286 -0.2317
 6277TIP3    H118767   0.962   3.403   5.425 -0.7250 -0.0017  1.0165
 6277TIP3    H218768   0.961   3.494   5.304 -1.7749 -1.1076  0.1722
 6278TIP3   OH218769   1.663   1.946   5.518 -0.1760 -0.7588  0.5112
 6278TIP3    H118770   1.613   2.027   5.505  0.7104  0.0359  1.8758
 6278TIP3    H218771   1.674   1.910   5.430  0.1667  1.0725 -0.2190
 6279TIP3   OH218772   2.487   1.920   4.091  0.4631 -0.2485  0.0994
 6279TIP3    H118773   2.442   1.971   4.157 -0.1665 -1.1373  0.3711
 6279TIP3    H218774   2.457   1.830   4.106  0.5302 -0.4984 -1.2080
 6280TIP3   OH218775   0.166   1.266   5.803  0.2226  0.4195  0.1376
 6280TIP3    H118776   0.106   1.307   5.740 -0.7081 -0.8554  0.1547
 6280TIP3    H218777   0.161   1.321   5.881  1.3821  2.0141 -0.8872
 6281TIP3   OH218778   2.044   2.171   3.774  0.9704  0.2679  0.1296
 6281TIP3    H118779   1.985   2.103   3.805 -0.6113  1.3781 -0.3873
 6281TIP3    H218780   2.048   2.159   3.679  1.4103  0.3402  0.1344
 6282TIP3   OH218781   5.842   1.112   2.679 -0.2449 -0.0055 -0.3642
 6282TIP3    H118782   5.899   1.050   2.725 -1.0884 -1.0975 -0.7956
 6282TIP3    H218783   5.859   1.096   2.587  0.3377  1.1598 -0.4624
 6283TIP3   OH218784   6.807   3.636   5.362 -0.1328 -0.0369  0.1314
 6283TIP3    H118785   6.836   3.715   5.409  0.1222  0.8040 -1.3909
 6283TIP3    H218786   6.717   3.654   5.337 -0.4001 -0.6473  0.6502
 6284TIP3   OH218787   6.733   4.916   2.355  0.6169 -0.0984  0.2911
 6284TIP3    H118788   6.682   4.997   2.349 -1.2214 -1.0182  2.5168
 6284TIP3    H218789   6.753   4.894   2.264 -1.0471  1.5236 -0.5138
 6285TIP3   OH218790   1.217   2.683   5.545  0.4379  0.4613  0.2992
 6285TIP3    H118791   1.277   2.744   5.502  0.7488  0.3095  0.5121
 6285TIP3    H218792   1.260   2.661   5.628  0.9670 -1.0776 -0.3595
 6286TIP3   OH218793   1.621   2.948   5.252 -0.3487  0.1565 -0.1988
 6286TIP3    H118794   1.606   2.854   5.242  0.7784  0.0538 -1.0687
 6286TIP3    H218795   1.553   2.989   5.198  0.2035 -0.2067 -1.1844
 6287TIP3   OH218796   3.473   7.054   2.422  0.8610 -0.0749  0.0172
 6287TIP3    H118797   3.484   6.960   2.432 -1.9312 -0.2168  2.7295
 6287TIP3    H218798   3.528   7.092   2.490 -0.0111  0.0896  0.6473
 6288TIP3   OH218799   8.306   2.291   2.553  0.4186  0.1484 -0.4496
 6288TIP3    H118800   8.213   2.314   2.547  0.0353 -1.0306  0.8081
 6288TIP3    H218801   8.312   2.204   2.515  0.8664 -0.0984  0.1744
 6289TIP3   OH218802   8.379   5.238   4.715  0.4195 -0.1317 -0.0938
 6289TIP3    H118803   8.471   5.262   4.702 -0.1954  1.8184 -1.1451
 6289TIP3    H218804   8.343   5.311   4.767 -1.0958  0.3459 -1.7736
 6290TIP3   OH218805   1.121   4.878   4.167 -0.3789  0.4197  0.7460
 6290TIP3    H118806   1.074   4.805   4.207 -0.2599  0.2287  0.5394
 6290TIP3    H218807   1.058   4.950   4.168 -0.9174 -0.0341 -0.1668
 6291TIP3   OH218808   0.405   1.156   5.137  0.0665  0.3491 -0.3205
 6291TIP3    H118809   0.386   1.150   5.230 -0.3365  0.7904 -0.3762
 6291TIP3    H218810   0.368   1.075   5.100 -0.3344  0.4754 -0.1946
 6292TIP3   OH218811   8.374   3.000   4.261  0.4177  0.0575 -0.3359
 6292TIP3    H118812   8.448   2.939   4.264  0.2038 -0.2059 -0.3300
 6292TIP3    H218813   8.409   3.083   4.293  1.1138  0.3574 -1.8241
 6293TIP3   OH218814   0.600   2.039   5.678 -0.0457  0.1927 -0.4354
 6293TIP3    H118815   0.582   2.008   5.589 -0.1724  1.7703 -0.9716
 6293TIP3    H218816   0.688   2.076   5.673  0.4749 -0.9103  0.4254
 6294TIP3   OH218817   1.394   1.733   3.937  0.8415 -0.2360 -0.2822
 6294TIP3    H118818   1.319   1.720   3.996  0.2398  0.7031 -0.8465
 6294TIP3    H218819   1.402   1.650   3.890  1.2918 -0.9773  1.0765
 6295TIP3   OH218820   0.668   3.920   2.724 -0.1651 -0.1872 -0.4282
 6295TIP3    H118821   0.756   3.938   2.692 -1.2004  0.8233 -2.8458
 6295TIP3    H218822   0.664   3.964   2.809  0.4651  2.9650 -1.9724
 6296TIP3   OH218823   0.885   2.889   4.774  0.0673 -0.2399  0.1123
 6296TIP3    H118824   0.972   2.891   4.815 -0.2871 -0.3913  0.8869
 6296TIP3    H218825   0.864   2.796   4.765  0.4414 -0.2186 -1.0749
 6297TIP3   OH218826   1.906   0.388   4.701 -0.1586  0.4149 -0.1114
 6297TIP3    H118827   1.896   0.477   4.668  1.1039  0.9201  0.8641
 6297TIP3    H218828   1.829   0.373   4.755 -1.1064  0.3845 -1.4449
 6298TIP3   OH218829   1.422   2.836   5.455  0.0427  0.0014  0.6995
 6298TIP3    H118830   1.509   2.817   5.419 -0.8837  1.0616 -2.2681
 6298TIP3    H218831   1.430   2.922   5.494 -0.2611  1.2112 -1.8156
 6299TIP3   OH218832   4.813   7.304   5.339 -0.4342  0.4094  0.0405
 6299TIP3    H118833   4.829   7.240   5.270 -1.5074  0.3231 -0.1365
 6299TIP3    H218834   4.844   7.387   5.303  0.8517  0.0290  0.2261
 6300TIP3   OH218835   5.759   4.892   0.391 -0.1298  0.4609 -0.1164
 6300TIP3    H118836   5.824   4.888   0.461  0.4702 -0.7603 -0.7344
 6300TIP3    H218837   5.700   4.964   0.416  0.2669  0.2347  1.4632
 6301TIP3   OH218838   0.606   0.038   3.760  0.2150 -0.7414  0.7809
 6301TIP3    H118839   0.646  -0.011   3.831  0.0080 -0.7898  0.8638
 6301TIP3    H218840   0.511   0.025   3.771  0.0539  1.2774  1.9714
 6302TIP3   OH218841   2.185   1.761   6.434  0.7005 -0.0298  0.6795
 6302TIP3    H118842   2.267   1.805   6.411  1.3462 -1.9504 -0.9420
 6302TIP3    H218843   2.201   1.723   6.520  1.6821 -0.7185  0.2030
 6303TIP3   OH218844   2.052   1.919   4.935 -0.4663 -0.0286 -0.2304
 6303TIP3    H118845   2.059   1.850   4.869  0.1147  0.5802 -0.8092
 6303TIP3    H218846   2.046   1.872   5.018  1.5014 -0.7659 -0.4823
 6304TIP3   OH218847   0.679   1.800   6.502 -0.3328  0.0736  0.2838
 6304TIP3    H118848   0.654   1.815   6.593 -0.4366 -0.7555  0.3978
 6304TIP3    H218849   0.595   1.794   6.455 -0.2577  1.9348 -0.1103
 6305TIP3   OH218850   1.650   0.607   5.624 -0.1972  0.2671  0.2061
 6305TIP3    H118851   1.685   0.619   5.713  1.5196  2.4542 -0.7153
 6305TIP3    H218852   1.724   0.572   5.574  0.3437  3.5597 -1.4357
 6306TIP3   OH218853   6.600   5.829   0.246 -0.0761  0.2967 -0.4124
 6306TIP3    H118854   6.628   5.738   0.249 -0.0473  0.3028 -0.4910
 6306TIP3    H218855   6.509   5.827   0.274  0.3185  0.4184  0.8867
 6307TIP3   OH218856   2.441   4.576   1.699  0.2663 -0.5811  0.0991
 6307TIP3    H118857   2.497   4.609   1.769  0.9900 -2.0806  0.2513
 6307TIP3    H218858   2.416   4.653   1.649  1.1728  0.2933  0.9868
 6308TIP3   OH218859   3.068   2.139   5.399 -0.0872 -0.2979  0.1324
 6308TIP3    H118860   3.156   2.144   5.362  0.3206  0.4044  1.1766
 6308TIP3    H218861   3.064   2.053   5.440  0.0400 -0.4109 -0.0920
 6309TIP3   OH218862   0.440   2.959   4.436 -0.1191 -0.6661  0.0397
 6309TIP3    H118863   0.405   3.015   4.366  0.4733  1.1044  1.1296
 6309TIP3    H218864   0.473   2.882   4.390 -1.8088 -0.5649 -1.4051
 6310TIP3   OH218865   0.375   2.400   6.472  0.1527 -0.0601  0.8432
 6310TIP3    H118866   0.294   2.405   6.524  0.1441  0.1483  0.8106
 6310TIP3    H218867   0.396   2.306   6.470  0.4204 -0.0161  1.6362
 6311TIP3   OH218868   6.512   3.304   3.988 -0.6491 -0.2111 -0.4178
 6311TIP3    H118869   6.459   3.230   4.017 -0.1361  0.0638  1.2636
 6311TIP3    H218870   6.554   3.337   4.068  0.0476  1.1617 -1.3237
 6312TIP3   OH218871   0.171   2.655   5.042 -0.0713  0.3841  0.0019
 6312TIP3    H118872   0.155   2.580   4.986  1.0998  0.3103 -0.2308
 6312TIP3    H218873   0.226   2.714   4.990  0.6565  0.5111  0.8978
 6313TIP3   OH218874   1.171   2.183   5.442 -0.6753  0.2694  0.2506
 6313TIP3    H118875   1.171   2.173   5.347 -0.2849  1.9172  0.0686
 6313TIP3    H218876   1.084   2.215   5.463 -0.3927  0.9973  0.3233
 6314TIP3   OH218877   1.419   0.706   5.421  0.0911  0.5872  0.3243
 6314TIP3    H118878   1.496   0.697   5.479  1.3706 -0.7253 -1.5412
 6314TIP3    H218879   1.345   0.712   5.481  1.3767 -0.8811  2.1211
 6315TIP3   OH218880   2.807   3.635   6.001  0.1055 -0.5359  0.4590
 6315TIP3    H118881   2.766   3.693   5.937  0.4790 -0.8789 -0.0939
 6315TIP3    H218882   2.788   3.547   5.969 -0.2481 -0.7245  1.1627
 6316TIP3   OH218883   2.825   3.692   3.671  0.1299 -0.1255  0.4045
 6316TIP3    H118884   2.850   3.778   3.705  2.2136 -0.0470 -1.1954
 6316TIP3    H218885   2.862   3.630   3.733 -2.3432  0.1137  2.1774
 6317TIP3   OH218886   1.774   1.442   6.222 -0.4269  0.3768 -0.1100
 6317TIP3    H118887   1.714   1.368   6.213 -2.7252  2.1213  0.3402
 6317TIP3    H218888   1.817   1.448   6.137 -0.2938 -1.3977 -0.1907
 6318TIP3   OH218889   3.015   3.819   3.878  0.3055  0.1434  0.0463
 6318TIP3    H118890   2.980   3.867   3.953  0.3576 -1.5807  1.1830
 6318TIP3    H218891   2.996   3.727   3.897  0.4919 -0.3271 -1.9613
 6319TIP3   OH218892   8.335   4.371   5.290  0.0658  0.5041  0.2804
 6319TIP3    H118893   8.360   4.279   5.278 -0.1153  0.6350 -1.1657
 6319TIP3    H218894   8.389   4.402   5.363  0.5450 -0.5850  0.3903
 6320TIP3   OH218895   0.451   2.506   5.533  0.2025  0.1740  0.2303
 6320TIP3    H118896   0.445   2.598   5.505  3.3446 -0.7648 -3.9630
 6320TIP3    H218897   0.489   2.510   5.621  2.1494  2.8287 -0.6678
 6321TIP3   OH218898   0.199   1.715   4.593 -0.0145  0.5781  0.0057
 6321TIP3    H118899   0.287   1.713   4.632 -0.5731  0.0028  1.2820
 6321TIP3    H218900   0.163   1.628   4.611 -0.8858  0.8520 -0.3924
 6322TIP3   OH218901   1.440   2.792   2.620  0.2490 -0.1081  0.2497
 6322TIP3    H118902   1.512   2.850   2.596 -0.0572  0.6984  1.2754
 6322TIP3    H218903   1.441   2.724   2.552  0.8766  0.8476 -0.7178
 6323TIP3   OH218904   7.957   2.143   6.012 -0.0753 -0.2576  0.3519
 6323TIP3    H118905   7.919   2.210   6.068 -1.5833  0.7942 -1.8769
 6323TIP3    H218906   8.047   2.173   5.997 -1.0509  1.9091 -1.5187
 6324TIP3   OH218907   1.726   2.662   4.417  1.5375  0.2274 -0.0106
 6324TIP3    H118908   1.789   2.662   4.489  2.2940 -0.7333 -0.6639
 6324TIP3    H218909   1.773   2.622   4.344  0.0665 -0.7844 -0.4262
 6325TIP3   OH218910   2.841   6.095   0.434 -0.0576 -0.1093  0.4396
 6325TIP3    H118911   2.806   6.025   0.489 -0.4980  0.7656  1.2681
 6325TIP3    H218912   2.839   6.173   0.488 -0.6338  0.7962 -0.8474
 6326TIP3   OH218913   2.530   0.779   4.763  0.1565 -0.5489 -0.6620
 6326TIP3    H118914   2.612   0.827   4.773 -1.5013  2.1871  0.2772
 6326TIP3    H218915   2.476   0.809   4.836 -2.4276 -0.7821 -2.4409
 6327TIP3   OH218916   1.416   2.190   4.484  0.1705  0.3156 -0.3395
 6327TIP3    H118917   1.491   2.142   4.451  0.2769 -1.6467  2.5635
 6327TIP3    H218918   1.450   2.278   4.503  1.3728 -0.1267 -0.4006
 6328TIP3   OH218919   0.623   0.061   5.395  0.6910 -0.0092  0.9953
 6328TIP3    H118920   0.669   0.145   5.385  0.7885  0.0810  2.1830
 6328TIP3    H218921   0.536   0.085   5.426 -0.7037 -0.0795 -2.6452
 6329TIP3   OH218922   1.747   0.614   6.201  0.1675 -0.0879  0.7817
 6329TIP3    H118923   1.702   0.567   6.271 -1.5901  0.9707  0.3782
 6329TIP3    H218924   1.764   0.701   6.237  0.1978  0.1274  0.2567
 6330TIP3   OH218925   0.160   3.431   5.267 -0.4593 -0.1064  0.9479
 6330TIP3    H118926   0.103   3.358   5.243 -0.8265  0.5650 -0.2742
 6330TIP3    H218927   0.122   3.466   5.347  0.3916 -1.9716  2.1954
 6331TIP3   OH218928   5.110   5.930   0.064 -0.2388 -0.2091 -0.2291
 6331TIP3    H118929   5.157   5.985   0.002  2.1456 -1.0510  0.7533
 6331TIP3    H218930   5.063   5.991   0.120  0.4357  0.7065 -0.6538
 6332TIP3   OH218931   2.993   5.480   0.860 -0.2092 -0.6067  0.2531
 6332TIP3    H118932   2.964   5.547   0.923  0.8083 -1.6586  1.8785
 6332TIP3    H218933   2.956   5.398   0.893 -0.1799 -1.0731 -0.8654
 6333TIP3   OH218934   2.288   2.792   4.324 -0.3066  0.0033 -0.3603
 6333TIP3    H118935   2.221   2.860   4.332 -1.0542 -0.6275 -1.1274
 6333TIP3    H218936   2.280   2.741   4.405  0.2699  0.8341  0.2247
 6334TIP3   OH218937   7.568   3.401   3.538 -0.1516 -0.1451  0.0995
 6334TIP3    H118938   7.600   3.485   3.571  0.4727 -0.4154  0.1912
 6334TIP3    H218939   7.483   3.422   3.499  0.1506  0.5954 -0.1847
 6335TIP3   OH218940   7.918   0.999   5.838 -0.6675 -0.5158  0.4967
 6335TIP3    H118941   7.924   0.933   5.907 -0.9423 -1.1272 -0.0592
 6335TIP3    H218942   7.966   0.961   5.764 -2.8893 -1.1819 -0.6688
 6336TIP3   OH218943   8.045   2.964   4.471 -0.2516  0.0460  0.0426
 6336TIP3    H118944   7.974   2.999   4.525 -1.0516  1.6446 -1.9745
 6336TIP3    H218945   8.124   2.984   4.520 -1.1397 -1.3961  2.1299
 6337TIP3   OH218946   1.652   1.747   4.968 -0.1089 -0.0146  0.1082
 6337TIP3    H118947   1.695   1.669   4.932  2.9899  1.1437  1.1857
 6337TIP3    H218948   1.663   1.814   4.900  0.2018  0.4121  0.5745
 6338TIP3   OH218949   8.103   3.727   6.553 -0.4274  0.6337 -0.0763
 6338TIP3    H118950   8.103   3.636   6.584  0.8795  0.2352 -1.1758
 6338TIP3    H218951   8.108   3.719   6.458  1.5980  1.8676 -0.0884
 6339TIP3   OH218952   4.491   4.547   0.421  0.2920 -0.4938 -0.1103
 6339TIP3    H118953   4.524   4.536   0.510  0.3274  1.8490  0.1853
 6339TIP3    H218954   4.402   4.511   0.424  0.6518 -1.3570  0.5901
 6340TIP3   OH218955   5.048   5.916   0.488 -0.2943 -0.0845 -0.0034
 6340TIP3    H118956   5.040   5.822   0.469  1.0054 -0.2553  0.2560
 6340TIP3    H218957   5.036   5.958   0.403  0.4173 -0.5684 -0.3495
 6341TIP3   OH218958   0.280   3.143   5.616  0.5958  0.0784  0.0237
 6341TIP3    H118959   0.277   3.052   5.645  1.2976 -0.0669 -0.3511
 6341TIP3    H218960   0.274   3.138   5.520 -0.6258  0.4962  0.0689
 6342TIP3   OH218961   1.929   2.528   6.156 -0.3218 -0.2498  0.1141
 6342TIP3    H118962   1.923   2.624   6.164  0.1553 -0.2131  0.0277
 6342TIP3    H218963   1.945   2.513   6.063  2.0498 -0.2969  0.5170
 6343TIP3   OH218964   1.069   3.155   6.315  0.0590  0.0989  0.4443
 6343TIP3    H118965   1.087   3.237   6.268 -1.2756 -0.5898 -1.2928
 6343TIP3    H218966   1.156   3.118   6.331  0.5455 -0.2532 -2.6035
 6344TIP3   OH218967   6.856   4.477   6.641 -0.1776 -0.5380 -0.4095
 6344TIP3    H118968   6.807   4.463   6.560  0.3707 -1.6798 -0.5482
 6344TIP3    H218969   6.894   4.565   6.631 -1.0531 -0.2063 -0.8877
 6345TIP3   OH218970   1.811   3.645   4.744  0.1750 -0.3821  0.2454
 6345TIP3    H118971   1.782   3.630   4.834 -1.1575 -1.5202 -0.3721
 6345TIP3    H218972   1.812   3.741   4.736 -0.5096 -0.2849  1.2038
 6346TIP3   OH218973   4.984   7.159   1.893 -0.2591 -0.0838  0.2125
 6346TIP3    H118974   4.974   7.254   1.889  2.3514  0.2630  1.0521
 6346TIP3    H218975   5.043   7.144   1.967 -0.9398 -2.3963  0.3282
 6347TIP3   OH218976   2.161   3.526   5.517  0.2287 -0.1528  0.0125
 6347TIP3    H118977   2.229   3.519   5.450 -0.0414 -0.5464 -0.2206
 6347TIP3    H218978   2.137   3.619   5.517 -1.3914 -0.5295 -2.0553
 6348TIP3   OH218979   1.829   1.239   4.696  0.2935 -0.0123 -0.2981
 6348TIP3    H118980   1.920   1.209   4.694  0.2038 -0.2251 -1.9257
 6348TIP3    H218981   1.789   1.197   4.620 -1.0997  0.3036  0.2532
 6349TIP3   OH218982   1.520   1.276   5.257  0.5423  0.1979 -0.0549
 6349TIP3    H118983   1.514   1.342   5.326 -2.0045 -0.4297  0.3810
 6349TIP3    H218984   1.523   1.192   5.305 -2.8270 -0.3427 -0.6246
 6350TIP3   OH218985   1.687   2.968   2.648  0.3373 -0.3255 -0.4903
 6350TIP3    H118986   1.740   3.018   2.710 -0.9271  1.4704 -0.8069
 6350TIP3    H218987   1.739   2.889   2.629  2.7631  1.2674 -0.6444
 6351TIP3   OH218988   1.958   1.713   5.175 -0.3267 -0.3629 -0.4226
 6351TIP3    H118989   1.884   1.657   5.200  0.2574 -0.6172  0.7702
 6351TIP3    H218990   1.938   1.798   5.215  0.9843 -0.9825  1.6031
 6352TIP3   OH218991   1.667   2.290   4.327  0.2923  0.3320  0.3940
 6352TIP3    H118992   1.604   2.340   4.275  0.2527  0.0381  0.1604
 6352TIP3    H218993   1.725   2.250   4.263  0.2249 -0.0584  0.5708
 6353TIP3   OH218994   0.625   1.380   2.016  0.1958  0.7959  0.1877
 6353TIP3    H118995   0.694   1.321   1.984 -0.1297 -0.0589  1.0532
 6353TIP3    H218996   0.575   1.403   1.937 -0.5510 -1.2394  0.0474
 6354TIP3   OH218997   0.685   1.785   4.289  0.2287  0.1112 -0.3696
 6354TIP3    H118998   0.605   1.835   4.308  1.0944  1.3251  0.1567
 6354TIP3    H218999   0.655   1.695   4.278 -0.8215 -0.0515  3.2593
 6355TIP3   OH219000   0.222   1.810   4.303 -0.0669  0.1926 -0.0716
 6355TIP3    H119001   0.312   1.838   4.289  0.5854 -1.5147  0.5762
 6355TIP3    H219002   0.218   1.790   4.396 -1.1215  0.2307 -0.1028
 6356TIP3   OH219003   7.983   2.052   3.835  0.3848  0.1043  0.3441
 6356TIP3    H119004   7.913   2.118   3.841  0.0489 -0.2115 -0.0848
 6356TIP3    H219005   8.048   2.092   3.778  1.3996  1.1508  2.1879
 6357TIP3   OH219006   0.718   1.804   2.872 -0.0252 -0.5274  0.0605
 6357TIP3    H119007   0.687   1.894   2.874 -1.4871 -1.0142  0.6052
 6357TIP3    H219008   0.805   1.808   2.833  0.0324  1.1440  0.3540
 6358TIP3   OH219009   1.504   2.474   4.551  0.8003 -0.5311  0.5454
 6358TIP3    H119010   1.510   2.476   4.646  0.4454  0.6797  0.5523
 6358TIP3    H219011   1.583   2.520   4.521  1.4568 -1.8480  0.2289
 6359TIP3   OH219012   3.889   3.340   5.760  0.3139 -0.1033  0.1844
 6359TIP3    H119013   3.960   3.398   5.734  0.4169  0.0062  0.7083
 6359TIP3    H219014   3.835   3.332   5.681 -0.7624  2.2587  0.6166
 6360TIP3   OH219015   1.673   2.968   3.880 -0.2196 -0.1830  0.1031
 6360TIP3    H119016   1.757   2.947   3.922 -0.3133  0.9313  0.8863
 6360TIP3    H219017   1.620   2.889   3.890  0.3279 -0.4846  0.6756
 6361TIP3   OH219018   3.916   2.516   5.080 -0.5239 -0.0238 -0.0503
 6361TIP3    H119019   3.927   2.509   4.985 -0.6896  2.5860 -0.2909
 6361TIP3    H219020   3.871   2.599   5.094  1.4152  0.6859  2.4400
 6362TIP3   OH219021   3.982   2.529   2.998  0.4534  0.2649  0.0334
 6362TIP3    H119022   4.059   2.476   3.020  0.3794 -0.0405 -0.4498
 6362TIP3    H219023   3.969   2.515   2.904 -1.0207 -0.7873  0.3674
 6363TIP3   OH219024   2.290   1.084   5.750 -0.3897 -0.1039  0.0186
 6363TIP3    H119025   2.322   1.163   5.708 -0.5053 -0.6128 -1.0340
 6363TIP3    H219026   2.199   1.077   5.724  0.2928 -1.9731 -2.0635
 6364TIP3   OH219027   8.181   6.175   5.035 -1.0871  0.3103 -0.3825
 6364TIP3    H119028   8.134   6.253   5.004 -1.4692  0.4108  0.4361
 6364TIP3    H219029   8.222   6.139   4.956 -0.1873  1.8218 -0.6142
 6365TIP3   OH219030   1.848   1.330   4.129  0.7509  0.7224  0.3442
 6365TIP3    H119031   1.768   1.309   4.177  0.4302 -0.1659 -0.5626
 6365TIP3    H219032   1.820   1.341   4.038  1.8314 -0.9101 -0.2114
 6366TIP3   OH219033   2.631   0.803   2.911 -0.0931  0.3862  0.0034
 6366TIP3    H119034   2.548   0.778   2.952  0.4821  1.5591  1.9977
 6366TIP3    H219035   2.690   0.729   2.929  0.2849  1.0808  1.7844
 6367TIP3   OH219036   3.096   2.509   4.851 -0.2607 -0.1303  0.2901
 6367TIP3    H119037   3.033   2.572   4.886 -0.9027  0.9324 -2.6186
 6367TIP3    H219038   3.181   2.549   4.867 -0.6377  1.2413 -0.9565
 6368TIP3   OH219039   2.879   1.529   6.016  0.3956 -0.3291 -0.0348
 6368TIP3    H119040   2.804   1.470   6.011  1.8031 -2.1781 -0.2717
 6368TIP3    H219041   2.843   1.616   6.002 -1.7489 -1.1391  0.3093
 6369TIP3   OH219042   2.153   1.952   5.468 -0.1032  0.7142 -0.7998
 6369TIP3    H119043   2.226   1.909   5.424 -0.5248  0.7504 -1.5410
 6369TIP3    H219044   2.082   1.951   5.404 -0.9474  0.1503  0.1138
 6370TIP3   OH219045   2.460   2.685   5.524  0.1647 -0.0383  0.2815
 6370TIP3    H119046   2.383   2.741   5.523  0.2332  0.0875  1.5528
 6370TIP3    H219047   2.485   2.677   5.431 -0.7604  0.7454 -0.0456
 6371TIP3   OH219048   3.650   2.605   3.356 -0.0845  0.2411 -0.8896
 6371TIP3    H119049   3.575   2.554   3.326  2.0845 -3.0924 -0.9375
 6371TIP3    H219050   3.657   2.585   3.449  0.6525  0.6029 -0.8629
 6372TIP3   OH219051   1.434   0.954   6.076 -0.0355  0.3499  0.1206
 6372TIP3    H119052   1.374   1.012   6.028 -0.9589 -0.4652  0.2819
 6372TIP3    H219053   1.388   0.934   6.157 -0.8752 -2.7478 -1.0827
 6373TIP3   OH219054   4.423   3.266   2.989  0.3229 -0.2735  0.5082
 6373TIP3    H119055   4.492   3.330   3.003  0.0070  0.1320  0.2365
 6373TIP3    H219056   4.351   3.316   2.950 -1.2685 -0.0336  3.5625
 6374TIP3   OH219057   3.034   0.959   4.640  0.3079 -0.2586  0.3453
 6374TIP3    H119058   3.061   0.950   4.731 -0.4087 -2.0283  0.4102
 6374TIP3    H219059   2.978   0.883   4.624  0.5512 -0.0582 -1.6134
 6375TIP3   OH219060   2.846   2.432   4.683  0.2490  0.1772 -0.2447
 6375TIP3    H119061   2.939   2.423   4.703  0.1723  0.0214  0.0472
 6375TIP3    H219062   2.809   2.476   4.759 -0.6425 -3.3976  1.5106
 6376TIP3   OH219063   2.627   3.817   3.844  0.6812  0.1771  0.3528
 6376TIP3    H119064   2.542   3.816   3.889  1.0906  2.0050  1.2394
 6376TIP3    H219065   2.676   3.744   3.881  0.5864  0.9580  2.0381
 6377TIP3   OH219066   4.088   1.223   3.256 -0.2441 -0.0696 -0.5960
 6377TIP3    H119067   4.101   1.128   3.264  0.7105  0.1960  1.2109
 6377TIP3    H219068   4.141   1.247   3.180  1.8110 -0.5874  0.6074
 6378TIP3   OH219069   2.369   3.708   4.927 -0.2672  0.6024 -0.1603
 6378TIP3    H119070   2.282   3.697   4.890 -0.0707 -1.9739  0.0566
 6378TIP3    H219071   2.366   3.793   4.971 -2.3400  0.9943 -1.0089
 6379TIP3   OH219072   2.970   5.051   5.907  0.2989  0.6916 -0.0694
 6379TIP3    H119073   3.051   5.078   5.864  0.2605  1.5140  0.3593
 6379TIP3    H219074   2.996   4.975   5.960  0.8141  1.0021  0.1350
 6380TIP3   OH219075   2.048   1.948   1.986 -0.2355 -0.2967  0.1933
 6380TIP3    H119076   1.975   2.003   1.958 -0.2256 -0.7254 -0.6899
 6380TIP3    H219077   2.106   2.007   2.033 -0.7306  0.2318  0.1402
 6381TIP3   OH219078   3.713   2.203   3.864  0.1782 -0.1449  0.2649
 6381TIP3    H119079   3.786   2.144   3.880  1.0313  0.5475 -0.9923
 6381TIP3    H219080   3.753   2.288   3.846 -0.7773 -0.2322 -2.6499
 6382TIP3   OH219081   2.264   2.798   6.036 -0.2229 -0.5006 -0.1252
 6382TIP3    H119082   2.188   2.848   6.005 -0.2075 -0.5740 -0.2815
 6382TIP3    H219083   2.240   2.706   6.020  0.7009 -0.4285 -1.9821
 6383TIP3   OH219084   4.184   0.587   4.380 -0.7794  0.0055 -0.7880
 6383TIP3    H119085   4.221   0.499   4.387 -0.2564  0.2666 -0.2405
 6383TIP3    H219086   4.253   0.639   4.338  0.3163  0.9929  2.1639
 6384TIP3   OH219087   2.853   2.814   4.737  0.0636 -0.0835 -0.4765
 6384TIP3    H119088   2.796   2.748   4.776  0.9740 -0.7196 -0.2144
 6384TIP3    H219089   2.915   2.837   4.806  0.8514 -0.2416 -1.1270
 6385TIP3   OH219090   4.215   1.061   3.649  0.2215  0.0878 -0.1965
 6385TIP3    H119091   4.235   1.007   3.572  0.5976 -0.7022  0.4508
 6385TIP3    H219092   4.128   1.032   3.677  0.3956 -0.1386  0.1126
 6386TIP3   OH219093   2.859   1.579   4.561 -1.1093 -0.9963  0.2583
 6386TIP3    H119094   2.913   1.579   4.482  1.3461 -0.6398  1.8467
 6386TIP3    H219095   2.794   1.647   4.546 -0.0947 -0.2950 -1.0857
 6387TIP3   OH219096   0.943   7.343   4.511 -0.0941  0.0641  0.0510
 6387TIP3    H119097   0.872   7.402   4.534 -0.0821  0.6822 -1.4632
 6387TIP3    H219098   0.996   7.392   4.448 -0.5397 -1.8267 -1.8496
 6388TIP3   OH219099   3.388   3.460   4.023 -0.1043 -0.5513 -0.1555
 6388TIP3    H119100   3.450   3.396   4.057 -0.2468 -0.2829  0.6417
 6388TIP3    H219101   3.331   3.479   4.098 -0.3912  0.1027 -0.5339
 6389TIP3   OH219102   3.860   1.383   3.232  0.3360  0.1404  0.3535
 6389TIP3    H119103   3.950   1.354   3.243  0.8794  1.5960 -0.2330
 6389TIP3    H219104   3.836   1.356   3.143 -0.8239 -2.9067  1.5239
 6390TIP3   OH219105   2.479   3.041   4.048  0.3411 -0.4284  0.7374
 6390TIP3    H119106   2.510   3.125   4.080  0.3972 -0.8969  1.9153
 6390TIP3    H219107   2.386   3.056   4.027  0.3576 -0.0698  0.9260
 6391TIP3   OH219108   1.727   3.455   4.066  0.5822  0.1047 -0.4296
 6391TIP3    H119109   1.666   3.468   3.993 -0.8156 -1.5968  0.3991
 6391TIP3    H219110   1.736   3.360   4.073  3.2536  0.3090 -0.4338
 6392TIP3   OH219111   1.956   0.962   3.979  0.0108  0.3975 -0.3597
 6392TIP3    H119112   2.000   1.024   3.921  0.5053 -0.5575 -1.0131
 6392TIP3    H219113   1.879   0.934   3.929  0.5589 -0.5972 -0.6616
 6393TIP3   OH219114   8.390   3.625   4.013 -0.5508 -0.4003 -0.3852
 6393TIP3    H119115   8.458   3.581   3.961 -0.2279 -3.4887  2.4390
 6393TIP3    H219116   8.434   3.702   4.049  0.7454 -1.0778 -0.4890
 6394TIP3   OH219117   3.396   0.779   3.602  0.3021  0.8860 -0.4404
 6394TIP3    H119118   3.347   0.856   3.633 -3.0356 -0.8956 -1.0305
 6394TIP3    H219119   3.446   0.751   3.678 -1.3344  1.4865  0.9140
 6395TIP3   OH219120   2.009   4.158   5.114 -0.0444 -0.0994 -0.2670
 6395TIP3    H119121   1.955   4.236   5.117 -1.9114 -1.3768  0.0420
 6395TIP3    H219122   2.026   4.143   5.021 -2.3455 -1.0864 -0.5630
 6396TIP3   OH219123   2.198   3.796   6.147 -0.6807 -0.3028 -0.1389
 6396TIP3    H119124   2.111   3.833   6.163 -0.5012 -0.8358  2.1443
 6396TIP3    H219125   2.193   3.707   6.182  1.6314  0.6107  2.6490
 6397TIP3   OH219126   3.034   0.978   5.322 -0.2673 -0.0982 -0.4608
 6397TIP3    H119127   3.045   1.038   5.396 -0.7616  1.7752 -1.8683
 6397TIP3    H219128   2.942   0.953   5.324 -0.2939  0.0002 -0.4984
 6398TIP3   OH219129   5.101   7.930   5.763 -0.1637 -0.2391 -0.2070
 6398TIP3    H119130   5.128   7.839   5.749  0.3813 -0.1463  0.1955
 6398TIP3    H219131   5.111   7.971   5.677 -2.4975 -1.0680 -0.8933
 6399TIP3   OH219132   2.841   1.286   4.642 -0.6458  0.2236  0.4422
 6399TIP3    H119133   2.874   1.372   4.667 -1.2896  0.2686  1.1828
 6399TIP3    H219134   2.862   1.230   4.717 -1.7492  0.1333  0.6914
 6400TIP3   OH219135   3.221   2.868   4.381 -0.0735 -0.3589  0.0126
 6400TIP3    H119136   3.132   2.847   4.409 -0.2139  1.4816  0.9688
 6400TIP3    H219137   3.255   2.926   4.448  2.2514 -1.8452  0.1973
 6401TIP3   OH219138   4.697   1.480   3.789 -0.2469  0.3549  0.4488
 6401TIP3    H119139   4.638   1.425   3.840  0.9437 -0.1047  1.3497
 6401TIP3    H219140   4.776   1.427   3.776  0.6627  1.5842  0.7750
 6402TIP3   OH219141   3.064   0.935   4.165  0.2277 -0.0402  0.4650
 6402TIP3    H119142   2.973   0.947   4.191 -0.0028  0.7859 -0.6640
 6402TIP3    H219143   3.104   0.888   4.238 -0.7519  0.8718  1.6112
 6403TIP3   OH219144   4.624   3.446   3.035  0.4149 -0.1094  0.2170
 6403TIP3    H119145   4.645   3.523   2.982  1.0179  0.3511  1.1030
 6403TIP3    H219146   4.610   3.481   3.123  0.0365 -0.9411  0.4982
 6404TIP3   OH219147   1.297   1.552   5.312  0.4493 -0.2858  0.2239
 6404TIP3    H119148   1.331   1.518   5.394  0.4615 -1.5429 -0.2873
 6404TIP3    H219149   1.372   1.550   5.252  0.5764  1.1258  0.3271
 6405TIP3   OH219150   1.081   3.179   4.858 -0.5566 -0.0350 -0.0726
 6405TIP3    H119151   1.020   3.156   4.788 -1.0346 -2.0161  0.9557
 6405TIP3    H219152   1.070   3.273   4.871 -1.6564  0.0401 -1.5116
 6406TIP3   OH219153   5.723   2.356   6.073  0.3121  0.1449 -0.1369
 6406TIP3    H119154   5.694   2.416   6.142  0.6900  0.8638 -0.6012
 6406TIP3    H219155   5.644   2.335   6.024  0.2923  0.8019 -0.3898
 6407TIP3   OH219156   2.692   2.759   6.278  0.2837 -0.5771  0.3825
 6407TIP3    H119157   2.779   2.745   6.316  0.1470 -1.6083  0.3073
 6407TIP3    H219158   2.677   2.683   6.222 -0.3445 -0.0200 -0.2170
 6408TIP3   OH219159   2.501   1.940   4.533  0.0675  0.2243  0.0050
 6408TIP3    H119160   2.486   1.876   4.603  0.6952  0.1593  0.0812
 6408TIP3    H219161   2.579   1.908   4.487  0.0273  0.6069 -0.3362
 6409TIP3   OH219162   1.855   5.062   3.594 -0.2911  0.4032  0.3145
 6409TIP3    H119163   1.939   5.100   3.570 -0.8495  1.4829 -0.0287
 6409TIP3    H219164   1.800   5.074   3.515 -0.7896 -0.1735  0.5705
 6410TIP3   OH219165   1.630   0.369   4.842  0.0505 -0.0167 -0.0792
 6410TIP3    H119166   1.573   0.292   4.847 -1.4010  1.0990  1.0038
 6410TIP3    H219167   1.572   0.441   4.817  0.5152  1.5653  3.1085
 6411TIP3   OH219168   2.133   3.035   1.926 -0.0103 -0.3160 -0.2688
 6411TIP3    H119169   2.056   3.078   1.965 -0.5008 -1.7794  0.4155
 6411TIP3    H219170   2.192   3.020   2.001  0.8656  0.6084 -0.7567
 6412TIP3   OH219171   2.158   1.155   6.108 -0.0466  0.0053  0.2061
 6412TIP3    H119172   2.065   1.135   6.107  0.1508 -0.8880 -0.6324
 6412TIP3    H219173   2.183   1.146   6.200 -0.3452 -1.9035  0.1202
 6413TIP3   OH219174   1.358   4.090   4.495  0.0583  0.0307  0.3894
 6413TIP3    H119175   1.291   4.062   4.557  1.1298 -1.1054  1.0309
 6413TIP3    H219176   1.344   4.035   4.418 -1.1536  1.3159 -0.3448
 6414TIP3   OH219177   2.908   0.302   4.608 -0.1454  0.2725  0.2778
 6414TIP3    H119178   2.943   0.321   4.521 -0.3860  1.4856  0.4394
 6414TIP3    H219179   2.962   0.354   4.667 -0.3958 -0.0593  0.8009
 6415TIP3   OH219180   3.379   2.910   6.105  0.7146 -0.3096  0.0767
 6415TIP3    H119181   3.295   2.867   6.120  0.4618 -0.5105 -1.7587
 6415TIP3    H219182   3.358   3.003   6.101  0.3251 -0.4616 -1.8609
 6416TIP3   OH219183   1.042   7.354   5.409  0.2262 -0.2886  0.1109
 6416TIP3    H119184   0.954   7.369   5.442 -0.2434 -0.8585 -0.8616
 6416TIP3    H219185   1.098   7.409   5.463 -0.8148  0.6526  0.2308
 6417TIP3   OH219186   2.657   2.483   3.186 -0.2982  0.3153 -0.1388
 6417TIP3    H119187   2.666   2.508   3.278 -1.8937 -0.7134  0.3238
 6417TIP3    H219188   2.562   2.482   3.170 -0.1087 -0.9973 -1.3609
 6418TIP3   OH219189   2.946   0.963   3.901  0.3223 -0.0556 -0.3372
 6418TIP3    H119190   2.892   0.885   3.918 -0.5189  0.1150 -2.1082
 6418TIP3    H219191   3.004   0.969   3.977 -0.4615 -1.6890  0.4163
 6419TIP3   OH219192   1.855   3.825   3.679  0.7551  0.1194 -0.6231
 6419TIP3    H119193   1.878   3.915   3.654 -0.3564  0.2883 -1.0653
 6419TIP3    H219194   1.917   3.771   3.631  3.2462  0.7615  1.7911
 6420TIP3   OH219195   2.325   3.426   4.544  0.3634 -0.1889 -0.4197
 6420TIP3    H119196   2.239   3.459   4.570  1.1651  0.8608  0.9720
 6420TIP3    H219197   2.324   3.429   4.448  0.1156  3.2286 -0.3789
 6421TIP3   OH219198   3.548   1.796   4.622 -0.4843 -0.1789 -0.0219
 6421TIP3    H119199   3.547   1.734   4.694 -0.4929 -1.6806 -1.2765
 6421TIP3    H219200   3.468   1.847   4.633 -1.5202 -1.7518 -0.0978
 6422TIP3   OH219201   2.078   2.985   4.349  0.4806  0.9527 -0.0618
 6422TIP3    H119202   1.984   3.002   4.346  0.3571  0.2067 -0.4484
 6422TIP3    H219203   2.111   3.043   4.418 -0.0911  1.9946 -0.6673
 6423TIP3   OH219204   2.048   1.110   4.543  0.0799 -0.1191  0.5465
 6423TIP3    H119205   2.126   1.159   4.517 -0.3577  0.3372  0.0651
 6423TIP3    H219206   2.063   1.021   4.511  0.2272  0.0633  0.1068
 6424TIP3   OH219207   2.256   3.216   1.595 -0.2701 -0.1956 -0.1461
 6424TIP3    H119208   2.289   3.156   1.663 -0.2352 -2.7500 -2.3198
 6424TIP3    H219209   2.161   3.212   1.604 -0.3096 -1.4866 -0.9965
 6425TIP3   OH219210   3.130   1.309   3.402  0.0267 -0.4137 -0.0244
 6425TIP3    H119211   3.111   1.271   3.487 -0.7509  0.5832  0.2567
 6425TIP3    H219212   3.054   1.285   3.348 -0.9176  1.4545  0.4060
 6426TIP3   OH219213   4.361   5.537   0.336 -0.3116  0.1306 -0.5519
 6426TIP3    H119214   4.353   5.442   0.343  2.6267 -0.2494 -1.3517
 6426TIP3    H219215   4.348   5.555   0.243 -1.1973  0.5547 -0.3466
 6427TIP3   OH219216   1.744   1.490   4.458  0.0962 -0.5982  0.5083
 6427TIP3    H119217   1.763   1.485   4.551  1.0366 -0.1300  0.3471
 6427TIP3    H219218   1.830   1.502   4.417 -0.4286  0.3092 -0.3310
 6428TIP3   OH219219   2.298   2.180   3.684 -0.0949 -0.6415 -0.8112
 6428TIP3    H119220   2.212   2.194   3.723 -0.3203 -0.3601 -1.4047
 6428TIP3    H219221   2.349   2.138   3.753 -0.8162 -1.1483 -0.5807
 6429TIP3   OH219222   4.031   0.025   5.942  0.1847 -0.1911  0.5493
 6429TIP3    H119223   4.071   0.100   5.898 -1.1933  1.1603  1.5293
 6429TIP3    H219224   4.021  -0.041   5.874  0.8159  0.7611 -0.4802
 6430TIP3   OH219225   2.001   2.147   5.630  0.0294  0.2406 -0.3052
 6430TIP3    H119226   2.044   2.232   5.619 -1.9067  1.1622 -1.0460
 6430TIP3    H219227   2.023   2.098   5.551 -0.5964  0.8669 -0.8783
 6431TIP3   OH219228   2.507   0.952   3.172 -0.1398 -0.0916 -0.5193
 6431TIP3    H119229   2.506   0.857   3.157  0.0984 -0.2902  0.6636
 6431TIP3    H219230   2.437   0.986   3.117 -2.1793 -1.2957  1.2556
 6432TIP3   OH219231   0.446   2.194   5.840  0.3756  0.0456 -0.7491
 6432TIP3    H119232   0.367   2.145   5.864 -0.2875  0.8526 -1.2889
 6432TIP3    H219233   0.497   2.133   5.788  0.8465 -1.0180  0.9058
 6433TIP3   OH219234   2.278   2.461   2.498 -0.0002  0.1983  0.2099
 6433TIP3    H119235   2.368   2.436   2.519  0.3175 -2.2477 -3.5669
 6433TIP3    H219236   2.224   2.400   2.548  0.5613 -0.9181 -0.5223
 6434TIP3   OH219237   0.843   2.152   0.111 -0.2900  0.4360  0.6872
 6434TIP3    H119238   0.759   2.116   0.084 -0.2223  1.8838 -1.6440
 6434TIP3    H219239   0.866   2.104   0.190 -1.2239 -3.0743 -1.0784
 6435TIP3   OH219240   0.878   1.468   6.673  0.1666  0.2029 -0.2649
 6435TIP3    H119241   0.794   1.433   6.702  0.6981  0.2856  1.4359
 6435TIP3    H219242   0.939   1.445   6.744  1.2487  1.4510 -0.7788
 6436TIP3   OH219243   3.883   1.112   4.688  0.0633 -0.3465  0.2306
 6436TIP3    H119244   3.864   1.043   4.624 -1.4209 -0.1561  0.4522
 6436TIP3    H219245   3.804   1.166   4.689  1.1437  1.2602  0.2108
 6437TIP3   OH219246   2.890   1.494   3.095 -0.1681 -0.5123 -0.2563
 6437TIP3    H119247   2.834   1.565   3.127  1.6502  0.3161  1.1970
 6437TIP3    H219248   2.920   1.524   3.010 -0.4586 -0.1312 -0.2276
 6438TIP3   OH219249   3.105   3.236   5.180  0.4024 -0.3942  0.1559
 6438TIP3    H119250   3.141   3.309   5.129  0.7812 -0.4217  0.3806
 6438TIP3    H219251   3.182   3.190   5.214  0.2625 -2.6810 -2.4284
 6439TIP3   OH219252   2.398   2.304   4.182  0.0077 -0.4189 -0.4063
 6439TIP3    H119253   2.402   2.231   4.243  0.5809 -0.8824 -0.9834
 6439TIP3    H219254   2.314   2.294   4.138 -0.8706  0.5203  1.0324
 6440TIP3   OH219255   3.680   2.502   3.616 -0.1689 -0.0663 -0.2474
 6440TIP3    H119256   3.702   2.424   3.564 -1.7140  0.6914 -2.1174
 6440TIP3    H219257   3.737   2.497   3.693  1.9270 -1.4382 -1.8342
 6441TIP3   OH219258   2.708   0.653   3.939  0.0164  0.0149 -0.4326
 6441TIP3    H119259   2.793   0.623   3.907 -1.0772 -1.9526 -1.5532
 6441TIP3    H219260   2.662   0.682   3.860 -0.3550  1.1511  0.1842
 6442TIP3   OH219261   4.116   3.158   5.038  0.1356 -0.0388  0.7047
 6442TIP3    H119262   4.156   3.097   4.976 -0.2268  0.5664 -0.1325
 6442TIP3    H219263   4.027   3.170   5.007 -0.0260  0.3397  1.2923
 6443TIP3   OH219264   3.725   0.556   2.947 -0.2888 -0.3586  0.0996
 6443TIP3    H119265   3.689   0.508   3.022  0.9088 -1.6481 -0.1274
 6443TIP3    H219266   3.700   0.504   2.871  1.6703 -1.0802 -0.0921
 6444TIP3   OH219267   1.412   4.356   4.542  0.1084  0.5223 -0.0635
 6444TIP3    H119268   1.389   4.264   4.524 -2.3051  1.0454  0.1713
 6444TIP3    H219269   1.446   4.355   4.631 -1.9651  0.1451  0.7583
 6445TIP3   OH219270   1.768   2.272   3.908  0.6125  0.6621 -0.0810
 6445TIP3    H119271   1.773   2.176   3.909  2.9060  0.7677  0.6428
 6445TIP3    H219272   1.764   2.295   3.816 -2.2864 -0.2013 -0.2287
 6446TIP3   OH219273   3.819   1.894   3.531  0.2124  0.1883 -0.0500
 6446TIP3    H119274   3.790   1.830   3.465 -1.5210  0.0578  0.7881
 6446TIP3    H219275   3.812   1.846   3.614  0.8600  0.8357  0.3765
 6447TIP3   OH219276   3.037   1.714   5.133  0.2232 -0.4141  0.2775
 6447TIP3    H119277   3.075   1.748   5.052 -1.5288  0.5475 -0.1667
 6447TIP3    H219278   2.989   1.635   5.105 -2.8409  1.5323 -0.1782
 6448TIP3   OH219279   3.214   4.083   2.439  0.1551  0.2720 -0.0250
 6448TIP3    H119280   3.259   4.004   2.408 -1.1185 -0.9927  1.2877
 6448TIP3    H219281   3.279   4.152   2.432  1.8016 -1.2128  0.3430
 6449TIP3   OH219282   3.610   2.579   5.082  0.7465 -0.2483  0.3816
 6449TIP3    H119283   3.524   2.554   5.048  0.8997  0.8940 -0.8777
 6449TIP3    H219284   3.629   2.512   5.148 -0.9519 -0.7081  0.4456
 6450TIP3   OH219285   2.206   3.552   6.328  0.0496  0.5771 -0.4914
 6450TIP3    H119286   2.124   3.524   6.369 -0.5775 -1.1262 -2.8272
 6450TIP3    H219287   2.228   3.481   6.268  1.4276  2.5837 -2.4202
 6451TIP3   OH219288   3.242   0.573   3.721 -0.0715  0.4170 -0.1048
 6451TIP3    H119289   3.291   0.598   3.643  0.2818 -2.5258 -0.8819
 6451TIP3    H219290   3.305   0.581   3.792  0.9349 -1.1796 -0.7843
 6452TIP3   OH219291   2.775   5.593   6.042 -0.4486  0.3574 -0.6935
 6452TIP3    H119292   2.848   5.651   6.061  0.3449 -1.0660  0.6710
 6452TIP3    H219293   2.810   5.529   5.980 -1.1353  0.9001 -1.6634
 6453TIP3   OH219294   3.124   2.097   3.484  0.0981  0.4893  0.5311
 6453TIP3    H119295   3.078   2.019   3.515 -1.8194  1.0379 -0.8959
 6453TIP3    H219296   3.212   2.065   3.462 -0.7324 -1.3320 -0.2519
 6454TIP3   OH219297   0.911   2.569   5.846 -0.2935  0.2624  0.9827
 6454TIP3    H119298   0.967   2.527   5.911 -0.6871  2.2664  2.6547
 6454TIP3    H219299   0.834   2.511   5.840  0.0822 -0.3226  1.7471
 6455TIP3   OH219300   8.454   4.157   4.795  0.8526  0.2808  0.2484
 6455TIP3    H119301   8.430   4.215   4.868 -4.5432 -0.5318 -0.6608
 6455TIP3    H219302   8.421   4.071   4.821  0.0561 -0.2977 -2.5720
 6456TIP3   OH219303   3.288   3.667   5.743 -0.0766  0.0388 -0.1748
 6456TIP3    H119304   3.227   3.597   5.719 -0.8310  0.3140  0.8769
 6456TIP3    H219305   3.326   3.637   5.826  0.3937  0.3816 -0.2682
 6457TIP3   OH219306   1.641   2.957   6.707  0.0420 -0.5631 -0.4287
 6457TIP3    H119307   1.661   2.924   6.619 -0.5891 -1.5312 -0.2140
 6457TIP3    H219308   1.716   2.929   6.760  0.0914 -0.5810 -0.5072
 6458TIP3   OH219309   3.418   2.672   6.768  0.8173 -0.2186 -0.0941
 6458TIP3    H119310   3.408   2.766   6.751  2.8680 -0.2581 -1.6228
 6458TIP3    H219311   3.465   2.669   6.852 -0.8565  0.0616  0.8931
 6459TIP3   OH219312   2.214   3.034   4.108  0.7324 -0.1298  0.0767
 6459TIP3    H119313   2.149   2.982   4.155  1.2234 -0.7900  0.0422
 6459TIP3    H219314   2.250   3.092   4.174  0.2109  0.1329  0.1296
 6460TIP3   OH219315   5.463   6.019  -0.018  0.1313  0.4269 -0.2256
 6460TIP3    H119316   5.550   6.015   0.020 -0.4182  1.5576  1.2201
 6460TIP3    H219317   5.411   6.067   0.047 -1.2956  0.7206 -1.5574
 6461TIP3   OH219318   2.205   2.958   5.674 -0.5284 -0.2743  0.2100
 6461TIP3    H119319   2.270   3.011   5.627  0.2891 -0.4547  1.1299
 6461TIP3    H219320   2.128   3.015   5.680 -0.5271 -0.1135 -1.0201
 6462TIP3   OH219321   2.551   2.330   4.832 -0.1006  0.1852 -0.7220
 6462TIP3    H119322   2.626   2.379   4.800  1.1517 -0.5958  0.9663
 6462TIP3    H219323   2.560   2.331   4.927 -1.7989 -0.5808 -0.5348
 6463TIP3   OH219324   1.585   3.440   4.320 -0.3226 -0.4424  0.5941
 6463TIP3    H119325   1.563   3.349   4.335  1.7988 -0.7984  1.6913
 6463TIP3    H219326   1.638   3.439   4.240 -0.0107 -0.2110  0.7971
 6464TIP3   OH219327   8.327   1.679   2.096  0.1104  0.9502  0.0046
 6464TIP3    H119328   8.278   1.747   2.143  1.4016  2.2269 -0.4502
 6464TIP3    H219329   8.367   1.726   2.023  1.5604 -0.1859  0.0647
 6465TIP3   OH219330   2.547   2.125   3.546  1.1098  0.4555  0.6309
 6465TIP3    H119331   2.488   2.188   3.590 -0.9764 -0.7554 -0.3813
 6465TIP3    H219332   2.498   2.043   3.545  1.7755  0.0437 -2.5211
 6466TIP3   OH219333   2.938   1.915   2.083  0.0915 -0.4810  0.1615
 6466TIP3    H119334   3.014   1.868   2.050  0.2655 -0.1749  0.1263
 6466TIP3    H219335   2.935   1.894   2.177  1.1012  0.7204  0.4696
 6467TIP3   OH219336   0.009   0.472   5.126 -0.0549  0.1310 -0.1149
 6467TIP3    H119337  -0.064   0.418   5.099  0.2222 -0.3371  0.0712
 6467TIP3    H219338   0.086   0.428   5.092  0.2359 -0.0432  0.7601
 6468TIP3   OH219339   2.042   1.534   6.816  0.0387 -0.1219  0.1695
 6468TIP3    H119340   2.100   1.467   6.853 -0.4623 -0.7125 -0.1101
 6468TIP3    H219341   2.028   1.596   6.888 -1.8111 -1.8398  1.3561
 6469TIP3   OH219342   4.441   1.385   2.793  0.1503 -0.3866  0.0683
 6469TIP3    H119343   4.404   1.297   2.799  1.9992 -1.1816  0.2872
 6469TIP3    H219344   4.535   1.371   2.803  0.7347  1.3141 -2.8010
 6470TIP3   OH219345   2.327   1.145   4.447  0.0156 -0.5880 -0.1833
 6470TIP3    H119346   2.363   1.233   4.441 -2.4765  0.4477 -0.6029
 6470TIP3    H219347   2.358   1.101   4.368  1.1256 -0.0427 -0.0588
 6471TIP3   OH219348   2.853   3.015   4.305  0.0868  0.1330 -0.2941
 6471TIP3    H119349   2.904   2.942   4.341 -0.2092  0.9632  1.8791
 6471TIP3    H219350   2.782   2.974   4.256  0.7360 -1.0371 -0.2562
 6472TIP3   OH219351   2.430   0.939   5.183 -0.6841  0.5653  0.1713
 6472TIP3    H119352   2.444   0.847   5.207 -1.0381  1.1459  2.7192
 6472TIP3    H219353   2.356   0.938   5.122 -0.4886 -0.8579 -0.0472
 6473TIP3   OH219354   0.001   7.883   3.152  0.2429 -0.3335  0.2887
 6473TIP3    H119355   0.072   7.907   3.093 -0.5186  0.0783 -0.4812
 6473TIP3    H219356  -0.036   7.803   3.113  0.6826 -0.9102  1.0376
 6474TIP3   OH219357   1.713   3.858   3.363  0.1603  0.1468 -0.6937
 6474TIP3    H119358   1.627   3.886   3.332 -0.6235 -0.3062  0.9772
 6474TIP3    H219359   1.694   3.808   3.443  1.9285 -0.5138 -0.6667
 6475TIP3   OH219360   3.172   0.975   5.728  0.1894  0.1835 -0.9123
 6475TIP3    H119361   3.118   1.013   5.658  1.8811  1.6465 -1.4601
 6475TIP3    H219362   3.151   1.026   5.806 -0.3484 -0.2592 -0.7634
 6476TIP3   OH219363   4.171   1.959   5.477  0.4791  0.1015  0.3220
 6476TIP3    H119364   4.094   1.910   5.507  0.6443 -0.1041  0.4181
 6476TIP3    H219365   4.183   2.027   5.543 -0.0930  0.6322 -0.1187
 6477TIP3   OH219366   4.622   2.886   4.105 -0.1550 -0.2403 -0.3682
 6477TIP3    H119367   4.658   2.975   4.106 -0.4333 -0.1296  0.2257
 6477TIP3    H219368   4.550   2.889   4.168  2.2672 -1.9294  2.5540
 6478TIP3   OH219369   3.155   1.798   5.665 -0.2038  0.0829 -0.2343
 6478TIP3    H119370   3.142   1.706   5.642  2.6271 -0.2041 -0.7921
 6478TIP3    H219371   3.198   1.836   5.589  0.5155  1.3771  0.8069
 6479TIP3   OH219372   0.157   3.600   3.098 -0.2528 -0.1997 -0.3077
 6479TIP3    H119373   0.212   3.538   3.146 -0.8039  0.5652  1.3538
 6479TIP3    H219374   0.114   3.651   3.166 -2.1268 -0.0028 -1.6093
 6480TIP3   OH219375   3.000   3.038   3.300  0.2915  0.3468  0.0470
 6480TIP3    H119376   2.930   3.101   3.284 -0.8804 -1.5405 -2.6144
 6480TIP3    H219377   2.957   2.967   3.348  0.3682 -0.7060 -1.3898
 6481TIP3   OH219378   1.341   3.063   4.873 -0.2920  0.0859 -0.5080
 6481TIP3    H119379   1.255   3.098   4.850 -0.3562  0.1040 -0.2458
 6481TIP3    H219380   1.358   2.995   4.807 -0.7191 -0.2465 -0.2837
 6482TIP3   OH219381   1.757   5.248   3.788  0.3055 -0.0995  0.5304
 6482TIP3    H119382   1.774   5.182   3.721 -0.8536 -0.2162  0.3265
 6482TIP3    H219383   1.778   5.205   3.870  1.4917 -0.0423  0.2644
 6483TIP3   OH219384   0.590   3.261   6.560  0.3344  0.2239 -0.1129
 6483TIP3    H119385   0.673   3.309   6.558  0.2875  0.2697 -1.2858
 6483TIP3    H219386   0.523   3.329   6.556  0.2325  0.1711  0.5572
 6484TIP3   OH219387   1.100   3.384   4.578 -0.2623  0.4226  0.1210
 6484TIP3    H119388   1.166   3.334   4.530  0.5037  1.9159 -0.4313
 6484TIP3    H219389   1.023   3.328   4.579  0.1702 -0.2456 -1.6016
 6485TIP3   OH219390   1.508   0.894   3.687  0.5227 -0.0498 -0.2562
 6485TIP3    H119391   1.444   0.963   3.700  0.9585  0.5619 -1.3061
 6485TIP3    H219392   1.504   0.874   3.593  0.1377 -1.7114  0.0864
 6486TIP3   OH219393   2.477   0.878   4.006  0.3500  0.3712 -0.2373
 6486TIP3    H119394   2.461   0.790   4.043  0.5525  1.3632  2.3244
 6486TIP3    H219395   2.456   0.869   3.913  0.4130 -2.4132 -0.0357
 6487TIP3   OH219396   1.255   4.831   3.425 -0.3115  0.8104  0.0192
 6487TIP3    H119397   1.283   4.796   3.510 -0.0001  0.0974 -0.3701
 6487TIP3    H219398   1.330   4.817   3.368 -0.4001  1.5971 -0.2927
 6488TIP3   OH219399   1.867   2.864   5.421  0.0527  0.1064 -0.0753
 6488TIP3    H119400   1.895   2.936   5.477  1.7571 -0.9824  0.5041
 6488TIP3    H219401   1.792   2.826   5.467 -0.5384  1.1851 -0.1357
 6489TIP3   OH219402   3.140   1.494   2.544  0.3531 -0.5269  0.0771
 6489TIP3    H119403   3.130   1.558   2.614 -0.6740 -1.4434  0.7824
 6489TIP3    H219404   3.192   1.423   2.582  0.1187 -0.8498 -0.1922
 6490TIP3   OH219405   3.543   3.449   5.092 -0.3734 -0.0406 -0.5069
 6490TIP3    H119406   3.608   3.495   5.144 -0.8159  1.0501 -0.9197
 6490TIP3    H219407   3.540   3.496   5.009 -2.2627  0.4276 -0.1939
 6491TIP3   OH219408   1.513   3.676   2.543  0.0276  0.0453 -0.0641
 6491TIP3    H119409   1.448   3.700   2.609 -0.0342 -0.5073  0.0815
 6491TIP3    H219410   1.480   3.714   2.462  0.5616  1.4974  0.3846
 6492TIP3   OH219411   2.649   1.845   5.482 -0.0687  0.7187 -0.2952
 6492TIP3    H119412   2.594   1.885   5.414 -1.9946 -0.2997  0.6071
 6492TIP3    H219413   2.655   1.753   5.457  0.6559  0.6931 -0.0142
 6493TIP3   OH219414   3.825   4.196   5.082  0.7871  0.0050 -0.0352
 6493TIP3    H119415   3.866   4.283   5.082  1.7304 -0.4198 -1.3402
 6493TIP3    H219416   3.770   4.196   5.003  1.2709 -0.7935 -0.3744
 6494TIP3   OH219417   2.810   1.036   3.180 -0.1626 -0.3056 -0.4998
 6494TIP3    H119418   2.838   1.119   3.220 -0.3076 -0.7936  0.6267
 6494TIP3    H219419   2.757   1.063   3.105  2.5829  0.6403 -2.1893
 6495TIP3   OH219420   2.711   1.366   2.623  0.3736  0.1069  0.3117
 6495TIP3    H119421   2.762   1.285   2.618 -0.6532 -0.5342  0.0558
 6495TIP3    H219422   2.623   1.340   2.595  0.5059  1.7166 -1.6543
 6496TIP3   OH219423   2.688   0.624   4.344  0.4071 -0.5034 -0.1731
 6496TIP3    H119424   2.713   0.542   4.301  0.3787  0.1592 -1.4605
 6496TIP3    H219425   2.610   0.601   4.395 -0.1753 -1.0600 -1.2940
 6497TIP3   OH219426   2.797   2.033   5.995 -1.0668 -0.2318  0.3984
 6497TIP3    H119427   2.806   2.075   6.080 -1.6829 -2.6981  1.7191
 6497TIP3    H219428   2.772   2.105   5.936  2.8564  2.2144  1.4845
 6498TIP3   OH219429   4.992   2.870   2.066 -0.1911  0.2459 -0.2226
 6498TIP3    H119430   5.075   2.904   2.033 -0.0775  0.9835  0.7790
 6498TIP3    H219431   5.000   2.876   2.162 -1.4910  0.5599 -0.1168
 6499TIP3   OH219432   2.554   2.968   4.534  0.6981 -0.3707 -0.3670
 6499TIP3    H119433   2.616   2.940   4.466  1.4485  0.3990 -0.0213
 6499TIP3    H219434   2.607   3.022   4.593 -0.5607  1.2757 -0.7091
 6500TIP3   OH219435   2.623   0.280   3.893  0.2999  0.2927 -0.0287
 6500TIP3    H119436   2.713   0.246   3.892  0.3043  0.1637  2.2349
 6500TIP3    H219437   2.605   0.301   3.801  1.8583 -1.7148 -0.8526
 6501TIP3   OH219438   3.713   0.113   4.036  0.3307 -0.5497 -0.2333
 6501TIP3    H119439   3.779   0.122   4.104  0.8394  0.1217 -0.8168
 6501TIP3    H219440   3.654   0.188   4.049  1.3170  0.4520 -1.5077
 6502TIP3   OH219441   5.600   6.119   1.189  0.1369 -0.1814  0.2880
 6502TIP3    H119442   5.649   6.150   1.266  1.5098 -0.6410 -0.3865
 6502TIP3    H219443   5.550   6.195   1.160  2.8077  1.1744 -0.8456
 6503TIP3   OH219444   1.516   6.890   6.240 -0.4525  0.0249 -0.1840
 6503TIP3    H119445   1.494   6.931   6.323 -1.0277 -2.3054  0.8567
 6503TIP3    H219446   1.499   6.957   6.174 -0.0044  1.8896  1.5548
 6504TIP3   OH219447   1.937   3.266   5.446 -0.1573  0.0443  0.9497
 6504TIP3    H119448   1.845   3.294   5.443 -0.4122 -0.7182  1.2351
 6504TIP3    H219449   1.985   3.342   5.480 -0.6452  0.5407  0.5286
 6505TIP3   OH219450   6.051   4.213   0.293  0.1608  0.1179  0.0408
 6505TIP3    H119451   5.994   4.177   0.225 -0.4923  1.2121 -0.0125
 6505TIP3    H219452   6.058   4.306   0.270 -1.2485  0.8070  2.2980
 6506TIP3   OH219453   1.463   2.256   3.025 -0.7244 -0.8032 -0.0289
 6506TIP3    H119454   1.382   2.250   3.075 -2.5652  1.1010 -2.6890
 6506TIP3    H219455   1.492   2.165   3.014 -1.8897 -1.4181  1.8748
 6507TIP3   OH219456   3.307   2.342   5.348 -0.2521  0.0173  0.1840
 6507TIP3    H119457   3.299   2.423   5.398 -0.9876  0.2282 -0.2561
 6507TIP3    H219458   3.276   2.365   5.260  0.2318 -0.5574 -0.1416
 6508TIP3   OH219459   2.573   1.569   5.113  0.4186 -0.3295  0.5750
 6508TIP3    H119460   2.529   1.653   5.101 -0.7388 -0.8435  1.0992
 6508TIP3    H219461   2.559   1.522   5.031 -0.2826 -0.6063  0.8470
 6509TIP3   OH219462   3.020   1.637   4.756  0.2991 -0.5842 -0.3512
 6509TIP3    H119463   3.044   1.728   4.737 -0.2623 -0.1312  1.0341
 6509TIP3    H219464   2.952   1.617   4.691 -0.4267  0.3902  0.0842
 6510TIP3   OH219465   3.061   0.313   4.365 -0.1142  0.1469  0.3157
 6510TIP3    H119466   3.041   0.359   4.283 -0.1827 -2.7684 -1.3436
 6510TIP3    H219467   3.154   0.328   4.379  0.2020 -0.4424 -1.0355
 6511TIP3   OH219468   6.875   4.326   0.202  0.1728  0.0174 -0.3315
 6511TIP3    H119469   6.844   4.405   0.247 -1.0597 -0.8804  0.4342
 6511TIP3    H219470   6.858   4.344   0.109 -0.6737  0.4175 -0.1129
 6512TIP3   OH219471   3.451   1.108   3.385  0.2903 -0.3264 -0.5811
 6512TIP3    H119472   3.494   1.184   3.348 -1.4035  0.1979 -1.4979
 6512TIP3    H219473   3.480   1.106   3.476 -2.3573  3.4665  0.4442
 6513TIP3   OH219474   1.042   3.866   3.525  0.5494 -0.2088  0.3373
 6513TIP3    H119475   0.994   3.783   3.533  0.9022 -0.3744  0.7606
 6513TIP3    H219476   0.999   3.911   3.452  1.5217 -1.5477 -1.1105
 6514TIP3   OH219477   0.670   4.063   5.041 -0.2814 -0.1599  0.0545
 6514TIP3    H119478   0.717   4.058   4.958  0.7722 -1.8287  0.7129
 6514TIP3    H219479   0.652   3.971   5.064 -1.1937  0.3192  1.2891
 6515TIP3   OH219480   1.589   3.853   5.485  0.3200  0.1207 -0.0465
 6515TIP3    H119481   1.566   3.946   5.487 -1.4782 -0.3279  0.6857
 6515TIP3    H219482   1.647   3.845   5.409  0.2672  1.7746 -0.2902
 6516TIP3   OH219483   3.985   2.550   4.796  0.0846  0.3303  0.0335
 6516TIP3    H119484   4.005   2.532   4.704 -1.5069 -2.2390  0.1306
 6516TIP3    H219485   3.895   2.583   4.795  0.4229  1.2962  0.5924
 6517TIP3   OH219486   3.375   3.764   6.291  0.4976  0.1579  0.0821
 6517TIP3    H119487   3.440   3.802   6.231 -1.9325  0.8586 -2.1682
 6517TIP3    H219488   3.390   3.670   6.285  2.3974  0.3836  0.8790
 6518TIP3   OH219489   2.627   3.606   4.994 -0.4398  0.1724 -0.3057
 6518TIP3    H119490   2.688   3.676   5.017 -1.5463  0.8522  0.6621
 6518TIP3    H219491   2.550   3.653   4.961 -0.5141 -0.6613 -1.3344
 6519TIP3   OH219492   4.092   1.172   4.385  0.9306 -0.4879 -0.4399
 6519TIP3    H119493   4.041   1.197   4.463  1.0306  1.6458 -1.0267
 6519TIP3    H219494   4.048   1.095   4.351  0.6246 -1.1885  1.4917
 6520TIP3   OH219495   3.953   1.673   3.058  0.2452  0.0269 -0.4701
 6520TIP3    H119496   3.918   1.636   2.977 -1.7869  0.2669  0.2820
 6520TIP3    H219497   4.048   1.659   3.051  0.1472  0.2843 -3.0004
 6521TIP3   OH219498   3.268   0.966   3.249  0.1720 -0.3932  0.0904
 6521TIP3    H119499   3.320   1.005   3.319 -1.1698  1.2132  0.2422
 6521TIP3    H219500   3.188   0.936   3.293 -1.3360  1.9697 -0.9285
 6522TIP3   OH219501   1.956   3.865   5.055  0.6756  0.3591  0.5128
 6522TIP3    H119502   1.974   3.953   5.089 -0.2917  0.1324  1.6312
 6522TIP3    H219503   2.003   3.862   4.972  1.1210  1.7647  0.6966
 6523TIP3   OH219504   2.951   0.126   3.660  0.5139  0.1271 -0.3598
 6523TIP3    H119505   3.043   0.142   3.681  0.4898 -0.7526  0.4644
 6523TIP3    H219506   2.912   0.214   3.658  1.1988  0.4512  0.0913
 6524TIP3   OH219507   3.245   1.481   4.066  0.0239 -0.1034  0.0990
 6524TIP3    H119508   3.243   1.537   3.988  0.8819 -0.3470 -0.1131
 6524TIP3    H219509   3.312   1.521   4.122 -0.4677 -0.0293  0.6382
 6525TIP3   OH219510   1.421   2.492   5.065  0.0667 -0.0800  0.5245
 6525TIP3    H119511   1.413   2.404   5.103 -1.4290 -0.0351  0.3468
 6525TIP3    H219512   1.400   2.551   5.137 -0.0772  0.0953  0.3381
 6526TIP3   OH219513   3.307   2.802   6.426  0.0061 -0.1057  0.4858
 6526TIP3    H119514   3.286   2.775   6.336 -3.4848  0.9334  0.9091
 6526TIP3    H219515   3.323   2.721   6.473 -0.5622 -0.8010 -0.5117
 6527TIP3   OH219516   1.688   2.557   5.772  0.4694  0.3022 -0.6302
 6527TIP3    H119517   1.690   2.462   5.760 -1.8008  0.3394 -1.4652
 6527TIP3    H219518   1.603   2.575   5.812  1.0444  1.9564 -0.1004
 6528TIP3   OH219519   3.014   2.471   3.771  0.8421  0.2302  0.9114
 6528TIP3    H119520   3.052   2.554   3.743  1.0946 -0.3026 -0.3625
 6528TIP3    H219521   3.056   2.453   3.855  2.9860 -0.0521 -0.1823
 6529TIP3   OH219522   3.117   3.652   5.218  0.2310 -0.1234  0.2167
 6529TIP3    H119523   3.049   3.678   5.155  0.3864  0.6778  0.3751
 6529TIP3    H219524   3.177   3.596   5.168  2.1195  3.0803 -1.2228
 6530TIP3   OH219525   2.652   1.027   5.086  0.2494 -0.3677 -0.8564
 6530TIP3    H119526   2.641   1.121   5.103  2.1210 -0.4212  0.8987
 6530TIP3    H219527   2.566   0.989   5.103 -0.1466  0.8385 -0.1238
 6531TIP3   OH219528   2.332   1.782   5.313  0.0187  0.2092  0.0162
 6531TIP3    H119529   2.288   1.720   5.255 -1.9895  1.4615  0.1735
 6531TIP3    H219530   2.404   1.817   5.261 -1.6257  1.1604 -1.6876
 6532TIP3   OH219531   4.349   2.630   4.346  0.2443  0.3069 -0.0062
 6532TIP3    H119532   4.347   2.716   4.305  2.0880  0.4899  0.2388
 6532TIP3    H219533   4.414   2.581   4.296 -0.2964 -0.7155  0.2845
 6533TIP3   OH219534   2.118   1.852   4.676 -0.5612  0.0470  0.4104
 6533TIP3    H119535   2.103   1.946   4.671  0.7289  0.3818  2.2554
 6533TIP3    H219536   2.161   1.830   4.594  0.1570  1.2818  0.4408
 6534TIP3   OH219537   2.327   2.073   4.315 -0.4285 -0.5763  0.1178
 6534TIP3    H119538   2.352   2.058   4.406  0.4301 -0.8672 -0.1591
 6534TIP3    H219539   2.242   2.029   4.306  0.2268 -1.9088  0.3602
 6535TIP3   OH219540   3.806   1.959   5.263  0.1843 -0.3524  0.2087
 6535TIP3    H119541   3.784   1.867   5.272  0.0305 -0.2628  0.7553
 6535TIP3    H219542   3.899   1.959   5.237  0.0859 -0.6670 -0.1473
 6536TIP3   OH219543   6.235   7.311   4.978 -0.6752  0.3321  0.7896
 6536TIP3    H119544   6.286   7.347   4.905 -0.9435 -0.2937  0.2899
 6536TIP3    H219545   6.170   7.379   4.997 -0.5015  0.5687  0.5537
 6537TIP3   OH219546   5.032   3.226   4.666  0.3967 -0.0086  0.5616
 6537TIP3    H119547   5.071   3.290   4.607 -1.1461  0.1597 -0.2914
 6537TIP3    H219548   5.091   3.151   4.663  1.4065  0.7803  0.3901
 6538TIP3   OH219549   3.523   2.244   3.229 -0.3530  0.1580 -1.2967
 6538TIP3    H119550   3.594   2.280   3.175  0.0350 -0.2964 -1.1031
 6538TIP3    H219551   3.452   2.307   3.221  0.3674  1.0537 -0.8273
 6539TIP3   OH219552   3.566   2.408   5.559 -0.2777 -0.0089  0.2894
 6539TIP3    H119553   3.650   2.370   5.586 -0.1444  0.0027 -0.1082
 6539TIP3    H219554   3.513   2.333   5.533 -0.0636  0.0650 -0.3610
 6540TIP3   OH219555   2.070   2.630   2.552 -0.2951  0.0517 -0.1281
 6540TIP3    H119556   2.049   2.581   2.473 -0.6645  0.4554 -0.2821
 6540TIP3    H219557   2.160   2.604   2.573 -0.7136 -1.1550  0.1551
 6541TIP3   OH219558   3.068   3.021   6.083 -0.1155 -0.4312  0.4044
 6541TIP3    H119559   3.050   2.939   6.036 -2.7948  0.3639 -0.0329
 6541TIP3    H219560   3.144   3.058   6.039 -0.6580 -1.2569 -1.2636
 6542TIP3   OH219561   4.868   3.630   5.610  0.2048 -0.5539 -0.0054
 6542TIP3    H119562   4.785   3.676   5.612  0.2261 -0.5256  0.5982
 6542TIP3    H219563   4.926   3.683   5.666  0.9178 -0.0346 -1.2251
 6543TIP3   OH219564   3.331   2.921   6.672  0.2220  0.3731 -0.3955
 6543TIP3    H119565   3.306   2.872   6.594  0.5028 -1.3129  0.5560
 6543TIP3    H219566   3.390   2.989   6.639 -1.0038  0.7553 -1.8626
 6544TIP3   OH219567   2.824   4.753   6.544  0.4527  0.1119  1.0307
 6544TIP3    H119568   2.820   4.842   6.509 -0.1837 -0.2998  0.0392
 6544TIP3    H219569   2.854   4.700   6.470  0.9128 -0.4809  1.6472
 6545TIP3   OH219570   4.936   7.648   0.117  0.2966  0.0171 -0.0446
 6545TIP3    H119571   4.877   7.673   0.045 -0.4568  1.9896  1.2322
 6545TIP3    H219572   4.993   7.723   0.128  0.3433 -0.2339  1.5032
 6546TIP3   OH219573   1.242   3.295   6.021 -0.3695 -0.7632  0.2096
 6546TIP3    H119574   1.161   3.338   6.046 -1.9095 -3.1507 -0.5388
 6546TIP3    H219575   1.299   3.304   6.097 -0.6715  2.4056  0.1370
 6547TIP3   OH219576   1.634   4.610   4.112 -0.3560  0.0051  0.9960
 6547TIP3    H119577   1.581   4.546   4.160 -1.5086  0.3651  0.2047
 6547TIP3    H219578   1.589   4.694   4.125 -1.0434  0.0079 -1.2401
 6548TIP3   OH219579   4.227   3.082   4.223  0.1972 -0.3360 -0.1320
 6548TIP3    H119580   4.210   3.145   4.153 -1.5856 -0.5222  0.1173
 6548TIP3    H219581   4.156   3.096   4.286  1.3543 -0.6886  1.2842
 6549TIP3   OH219582   6.353   7.044   0.448  0.0879  0.0168  0.5185
 6549TIP3    H119583   6.264   7.051   0.413  0.2781  1.0395  0.2246
 6549TIP3    H219584   6.362   6.951   0.471 -0.6221 -0.3426 -0.5836
 6550TIP3   OH219585   1.998   3.132   5.687 -0.4974 -0.0223  0.3862
 6550TIP3    H119586   1.970   3.165   5.602 -2.5382 -0.9590  0.6657
 6550TIP3    H219587   1.938   3.173   5.749  1.2139  0.9454  1.4257
 6551TIP3   OH219588   3.591   4.214   5.817 -0.1162  0.1889  0.0351
 6551TIP3    H119589   3.588   4.124   5.785 -0.1685  0.0395  0.4607
 6551TIP3    H219590   3.530   4.261   5.761 -1.3468 -0.3775  0.8845
 6552TIP3   OH219591   1.178   3.038   4.312 -0.2008 -0.2837 -1.0763
 6552TIP3    H119592   1.152   2.959   4.359  0.4207  0.0722 -0.1063
 6552TIP3    H219593   1.229   3.088   4.376  0.5894  0.2559 -2.0996
 6553TIP3   OH219594   4.556   1.635   3.028 -0.0066 -0.6567 -0.0484
 6553TIP3    H119595   4.610   1.557   3.032 -0.6401 -1.1367 -0.6823
 6553TIP3    H219596   4.582   1.687   3.105 -0.2902 -1.9559  0.9410
 6554TIP3   OH219597   5.320   2.390   3.621  0.2081 -0.0104  0.6490
 6554TIP3    H119598   5.368   2.310   3.598 -1.2183  0.0238 -2.6948
 6554TIP3    H219599   5.248   2.359   3.676 -1.6999 -1.4301 -2.5217
 6555TIP3   OH219600   3.215   1.345   5.594 -0.1977  0.2609  0.0128
 6555TIP3    H119601   3.206   1.398   5.515 -1.6731 -0.7742 -0.5308
 6555TIP3    H219602   3.155   1.385   5.657 -1.1060 -0.5673 -0.3090
 6556TIP3   OH219603   2.811   0.741   5.044  0.3047  0.2477  0.0650
 6556TIP3    H119604   2.768   0.801   4.983  0.5905  0.8694  0.4772
 6556TIP3    H219605   2.742   0.713   5.104  0.1570  0.1068 -0.1703
 6557TIP3   OH219606   4.017   0.312   5.184 -0.2852  0.2760  0.6464
 6557TIP3    H119607   3.959   0.374   5.139  0.1465  1.8955  2.2366
 6557TIP3    H219608   3.963   0.276   5.255  0.0253  0.2382  0.8651
 6558TIP3   OH219609   0.471   7.942   4.358  0.2417  0.7197 -0.3891
 6558TIP3    H119610   0.378   7.966   4.358  0.3806  1.3260 -1.5448
 6558TIP3    H219611   0.511   8.000   4.423 -0.5899 -1.3083  2.0146
 6559TIP3   OH219612   2.757   0.891   4.382 -0.3902  0.1265  0.2264
 6559TIP3    H119613   2.765   0.929   4.295 -2.2509  0.3786  0.1402
 6559TIP3    H219614   2.708   0.809   4.368 -1.3043  0.5078  1.0963
 6560TIP3   OH219615   0.152   0.250   4.801  0.0293 -0.4247 -0.4668
 6560TIP3    H119616   0.116   0.285   4.720 -0.5111  0.4019  0.1212
 6560TIP3    H219617   0.240   0.288   4.807 -0.5703  0.8862  0.1891
 6561TIP3   OH219618   2.329   0.880   4.578  0.1305 -0.3649 -0.1485
 6561TIP3    H119619   2.409   0.874   4.630 -0.1606  0.3922  0.3978
 6561TIP3    H219620   2.341   0.959   4.524 -0.0856 -0.4572 -0.3337
 6562TIP3   OH219621   2.100   2.323   4.368 -0.5236 -0.3407 -0.1734
 6562TIP3    H119622   2.145   2.315   4.284  0.5730 -1.8172  0.5324
 6562TIP3    H219623   2.156   2.380   4.420 -1.3296  0.7787 -0.5050
 6563TIP3   OH219624   1.420   3.251   5.816 -0.0936  0.4455 -0.1915
 6563TIP3    H119625   1.348   3.260   5.877  0.5086  0.7583  0.4781
 6563TIP3    H219626   1.449   3.341   5.799  0.7325  0.2727  0.2635
 6564TIP3   OH219627   3.327   1.995   3.714  0.0674  0.1595  0.7613
 6564TIP3    H119628   3.373   1.934   3.772  2.4210  1.3689  0.2184
 6564TIP3    H219629   3.389   2.066   3.699 -1.4027  1.0718 -1.2786
 6565TIP3   OH219630   3.000   1.777   6.255  0.0098  0.1252 -0.2461
 6565TIP3    H119631   3.012   1.744   6.165 -0.3750  0.2522 -0.3430
 6565TIP3    H219632   3.073   1.838   6.267  0.1986 -0.0679 -0.3897
 6566TIP3   OH219633   3.359   0.612   4.222  0.6025 -0.3538  0.0274
 6566TIP3    H119634   3.405   0.538   4.183  0.0741 -0.7576  0.1653
 6566TIP3    H219635   3.429   0.673   4.249  1.0094 -0.5533 -0.5770
 6567TIP3   OH219636   2.797   3.204   4.495  0.1517  0.0840  0.0297
 6567TIP3    H119637   2.820   3.126   4.446  1.6764  0.7298 -0.3094
 6567TIP3    H219638   2.750   3.171   4.572 -0.9127 -1.0245 -1.0576
 6568TIP3   OH219639   4.543   4.645   0.057 -0.1503 -0.2717 -0.3177
 6568TIP3    H119640   4.548   4.629   0.151 -0.9251  0.3633 -0.1631
 6568TIP3    H219641   4.628   4.682   0.034 -0.3729  0.6856  0.3605
 6569TIP3   OH219642   4.118   3.463   5.670 -0.2518 -0.2117 -0.1889
 6569TIP3    H119643   4.118   3.557   5.684 -0.0099 -0.3902  1.0271
 6569TIP3    H219644   4.211   3.438   5.672 -0.3097 -0.4729 -0.5733
 6570TIP3   OH219645   5.810   3.725   4.914 -0.1344 -0.1032 -0.1103
 6570TIP3    H119646   5.730   3.750   4.960  1.5713  0.4513  2.6784
 6570TIP3    H219647   5.831   3.638   4.948  1.0377  0.2235  0.0330
 6571TIP3   OH219648   3.738   1.493   5.211 -0.1143  0.5058  0.1528
 6571TIP3    H119649   3.759   1.468   5.120  0.2373 -0.6437  0.5363
 6571TIP3    H219650   3.670   1.559   5.203 -0.7852 -0.3034 -0.9284
 6572TIP3   OH219651   3.262   3.453   5.075  0.5056 -0.4906  0.1452
 6572TIP3    H119652   3.354   3.452   5.102  0.6613 -2.0253 -0.3985
 6572TIP3    H219653   3.263   3.490   4.987  0.4618  0.5997  0.5942
 6573TIP3   OH219654   5.951   2.472   5.936 -0.2651 -0.2900  0.3225
 6573TIP3    H119655   5.982   2.542   5.993  0.0471 -0.9377  0.9480
 6573TIP3    H219656   5.883   2.428   5.987  0.1410 -0.9841  0.2628
 6574TIP3   OH219657   6.015   3.099   5.563  0.1876  0.6871 -0.6560
 6574TIP3    H119658   5.963   3.038   5.616 -0.6193  1.3458 -0.6923
 6574TIP3    H219659   5.951   3.150   5.514  0.8009  2.2734  0.1416
 6575TIP3   OH219660   2.792   3.183   2.255 -0.4453  0.0238  0.2186
 6575TIP3    H119661   2.872   3.137   2.281 -1.5760 -2.2249 -0.1117
 6575TIP3    H219662   2.738   3.184   2.334 -1.5130 -1.6353 -0.4696
 6576TIP3   OH219663   3.751   0.908   4.877 -0.0463 -0.8069  0.1400
 6576TIP3    H119664   3.739   0.818   4.907  0.5431 -1.1196 -0.5485
 6576TIP3    H219665   3.846   0.920   4.875 -0.1237  0.5907  2.4378
 6577TIP3   OH219666   3.092   2.089   5.893  0.1794 -0.3008 -0.5362
 6577TIP3    H119667   3.101   2.065   5.985  0.4658  1.4462 -0.0855
 6577TIP3    H219668   3.006   2.055   5.868 -0.0461 -0.5111  0.4833
 6578TIP3   OH219669   5.473   1.102   6.609 -0.1634 -0.4236 -0.1124
 6578TIP3    H119670   5.506   1.190   6.623 -2.0102  0.0967  1.3073
 6578TIP3    H219671   5.528   1.065   6.540 -1.0909  2.8059 -2.7220
 6579TIP3   OH219672   3.719   1.913   4.416 -0.6209  0.0969  0.1656
 6579TIP3    H119673   3.689   1.995   4.456 -0.8793 -0.3387  0.8744
 6579TIP3    H219674   3.662   1.846   4.453  0.6667 -0.6260  0.8933
 6580TIP3   OH219675   4.346   1.410   4.282 -0.4255 -0.2548 -0.1469
 6580TIP3    H119676   4.363   1.320   4.254 -2.7755 -0.5917 -0.6611
 6580TIP3    H219677   4.373   1.412   4.374  1.3197 -0.9713 -0.6336
 6581TIP3   OH219678   5.973   2.199   6.866 -0.0079 -0.3268 -0.0166
 6581TIP3    H119679   5.973   2.172   6.957 -0.6968 -0.3549 -0.0172
 6581TIP3    H219680   5.956   2.118   6.817 -0.5803 -0.1604 -0.1064
 6582TIP3   OH219681   4.098   1.323   2.417 -0.4568 -0.0412  0.4260
 6582TIP3    H119682   4.005   1.304   2.433 -1.6710  2.4385 -3.0659
 6582TIP3    H219683   4.126   1.256   2.355 -0.7003  0.7855 -0.5979
 6583TIP3   OH219684   4.202   2.029   3.290  0.3250  0.1928  0.1350
 6583TIP3    H119685   4.162   2.116   3.296  2.3705  1.3619 -2.3884
 6583TIP3    H219686   4.285   2.038   3.338 -0.1894 -0.8614  1.2562
 6584TIP3   OH219687   4.553   1.667   4.434  0.0885  0.3281  0.4727
 6584TIP3    H119688   4.486   1.605   4.405  0.6142 -0.8453  1.7425
 6584TIP3    H219689   4.524   1.751   4.399 -0.8966 -0.5293 -0.8463
 6585TIP3   OH219690   4.535   2.599   4.121  0.0383 -0.1761  0.0483
 6585TIP3    H119691   4.519   2.525   4.062 -0.4735  0.3662 -0.5026
 6585TIP3    H219692   4.474   2.666   4.092  0.0436  0.2300  0.9709
 6586TIP3   OH219693   4.128   3.799   4.516  0.1716 -0.1250 -0.4460
 6586TIP3    H119694   4.128   3.879   4.462 -0.3795  0.7385  0.8185
 6586TIP3    H219695   4.060   3.745   4.476  1.4006 -0.5120 -2.0836
 6587TIP3   OH219696   7.639   3.864   4.992  0.3516 -0.3785  0.3514
 6587TIP3    H119697   7.619   3.930   5.058 -0.8861  0.4504 -0.8340
 6587TIP3    H219698   7.593   3.786   5.022 -0.7735  0.1914  0.1122
 6588TIP3   OH219699   6.645   3.133   6.737  0.1035 -0.3852  0.0716
 6588TIP3    H119700   6.626   3.156   6.828 -0.9720 -1.3086  0.0937
 6588TIP3    H219701   6.704   3.057   6.743  0.3333 -0.2125  0.0017
 6589TIP3   OH219702   3.805   1.361   2.197 -0.0428  0.1569  0.5342
 6589TIP3    H119703   3.750   1.349   2.275 -0.6249 -1.2344 -0.0572
 6589TIP3    H219704   3.769   1.438   2.154 -2.4216 -1.4649 -0.5142
 6590TIP3   OH219705   3.078   2.805   5.385  0.9213  0.0455  0.3150
 6590TIP3    H119706   3.050   2.888   5.422  2.0766  0.7310 -0.3569
 6590TIP3    H219707   3.009   2.743   5.411  0.6313  0.9554  1.7718
 6591TIP3   OH219708   5.354   2.687   5.987 -0.3844  0.1743 -0.0569
 6591TIP3    H119709   5.363   2.766   5.935 -1.2367  0.2721 -0.0598
 6591TIP3    H219710   5.441   2.648   5.986  0.3164  1.6672  0.8413
 6592TIP3   OH219711   7.820   4.719   1.167 -0.1614 -0.2479 -0.0092
 6592TIP3    H119712   7.819   4.653   1.236 -0.6277  2.5547  2.7188
 6592TIP3    H219713   7.912   4.744   1.159 -0.6375  2.5143  2.6589
 6593TIP3   OH219714   8.199   4.590   0.069  0.3002 -0.1502  0.3923
 6593TIP3    H119715   8.282   4.555   0.100  0.6416  0.9284  0.7156
 6593TIP3    H219716   8.133   4.536   0.112  0.8329 -1.2887 -0.2134
 6594TIP3   OH219717   6.914   4.781   4.644  0.1034  0.1621 -0.0608
 6594TIP3    H119718   6.911   4.749   4.553 -0.5431  1.0446 -0.3579
 6594TIP3    H219719   7.006   4.775   4.668  0.2754 -0.1334 -0.7579
 6595TIP3   OH219720   3.291   1.841   5.223  0.5128 -0.5933 -0.2389
 6595TIP3    H119721   3.226   1.776   5.196  0.2520 -0.4777  0.1053
 6595TIP3    H219722   3.280   1.914   5.162  0.4325 -0.6406 -0.2809
 6596TIP3   OH219723   5.615   4.605   4.949 -0.0560  0.7992  0.4732
 6596TIP3    H119724   5.601   4.524   4.998  1.3642  1.3403  1.8063
 6596TIP3    H219725   5.527   4.639   4.934 -0.6588 -0.9319 -0.0109
 6597TIP3   OH219726   3.698   3.062   6.033 -0.8273  0.2490 -0.1056
 6597TIP3    H119727   3.717   3.139   5.979  0.0370  0.7921  0.9356
 6597TIP3    H219728   3.666   2.996   5.971 -0.6463  1.1232 -1.1491
 6598TIP3   OH219729   5.983   3.513   5.275 -0.0142 -0.1346  0.4953
 6598TIP3    H119730   5.956   3.491   5.185 -1.3559 -1.1566  1.1374
 6598TIP3    H219731   5.914   3.478   5.330  0.8751  0.3762  1.9577
 6599TIP3   OH219732   3.610   2.119   5.356  0.2314  0.1117 -0.3488
 6599TIP3    H119733   3.674   2.050   5.339  2.5653  2.1109  0.1313
 6599TIP3    H219734   3.581   2.103   5.446  2.1911  0.8551  0.4380
 6600TIP3   OH219735   3.299   2.424   5.729  0.2244  0.7113  0.5199
 6600TIP3    H119736   3.335   2.479   5.798 -0.3237  2.2487 -0.3887
 6600TIP3    H219737   3.373   2.407   5.670  0.2495  0.9718  0.4785
 6601TIP3   OH219738   2.825   4.655   5.434  0.0373 -0.0665  0.1107
 6601TIP3    H119739   2.772   4.724   5.394  0.4845  0.7388  0.9001
 6601TIP3    H219740   2.843   4.594   5.362 -1.1743  0.1299 -0.3665
 6602TIP3   OH219741   3.704   0.416   5.088 -0.4738  0.5153  0.0261
 6602TIP3    H119742   3.713   0.511   5.090  2.6536  0.2677  0.1039
 6602TIP3    H219743   3.689   0.391   5.179 -0.0110  0.8346  0.1901
 6603TIP3   OH219744   4.077   2.860   4.110  0.0685  0.1403 -0.0147
 6603TIP3    H119745   4.134   2.867   4.034 -0.1829  1.2379 -0.1148
 6603TIP3    H219746   4.136   2.847   4.184  0.2947 -1.2210 -0.4376
 6604TIP3   OH219747   5.419   2.076   2.863 -0.0961 -0.6329  0.3810
 6604TIP3    H119748   5.428   1.983   2.843 -0.4283 -0.9600  1.6891
 6604TIP3    H219749   5.326   2.096   2.851 -0.2890 -0.8227  1.5441
 6605TIP3   OH219750   4.358   4.627   6.578 -0.0187 -0.2219  0.0708
 6605TIP3    H119751   4.293   4.561   6.602  0.5451 -1.0376 -0.6241
 6605TIP3    H219752   4.374   4.612   6.484 -0.0390  1.0340 -0.1460
 6606TIP3   OH219753   2.896   1.361   5.305 -0.4358 -0.1221  0.8729
 6606TIP3    H119754   2.904   1.302   5.380 -1.3881 -2.6332 -0.9661
 6606TIP3    H219755   2.973   1.344   5.252 -1.1601 -0.3471 -0.1137
 6607TIP3   OH219756   3.635   0.585   4.693 -0.1788 -0.0490  0.0447
 6607TIP3    H119757   3.712   0.577   4.750  0.3695 -0.2719 -0.7156
 6607TIP3    H219758   3.650   0.667   4.645  1.3816 -1.8282 -2.6994
 6608TIP3   OH219759   1.419   2.263   5.230 -0.3284  0.2434 -0.6271
 6608TIP3    H119760   1.342   2.274   5.287 -0.0613 -0.8355 -0.0337
 6608TIP3    H219761   1.425   2.168   5.217  0.5500  0.3718 -1.1548
 6609TIP3   OH219762   7.248   1.016   3.311  0.1359 -0.2712  0.3774
 6609TIP3    H119763   7.230   0.983   3.223 -0.6678 -1.2851  0.9152
 6609TIP3    H219764   7.343   1.020   3.317  0.1865  0.5511 -0.8108
 6610TIP3   OH219765   3.083   1.061   3.538 -0.2150  0.0298  0.7565
 6610TIP3    H119766   3.078   0.985   3.595 -1.2513  0.3095  1.0441
 6610TIP3    H219767   3.171   1.057   3.500 -0.8165 -2.2110 -0.4817
 6611TIP3   OH219768   6.551   2.415   3.629 -0.0915  0.3744  0.3136
 6611TIP3    H119769   6.604   2.339   3.605 -2.0879 -1.1937  0.7950
 6611TIP3    H219770   6.610   2.470   3.680  1.3990 -0.8013 -0.1028
 6612TIP3   OH219771   4.184   4.224   3.830  0.6655  0.1653 -0.0405
 6612TIP3    H119772   4.138   4.242   3.748 -2.1672  0.6839  1.6066
 6612TIP3    H219773   4.183   4.307   3.877  0.8296 -0.5377  1.2264
 6613TIP3   OH219774   3.057   1.907   4.719  0.3360 -0.8987  0.1565
 6613TIP3    H119775   3.022   1.939   4.636 -1.2849 -1.4082  0.6211
 6613TIP3    H219776   2.988   1.926   4.783  0.4301 -2.8926  0.9031
 6614TIP3   OH219777   3.301   1.875   4.873 -0.2490 -0.5265 -0.1748
 6614TIP3    H119778   3.313   1.952   4.927  1.6599 -0.2371 -0.9766
 6614TIP3    H219779   3.217   1.889   4.829 -0.5177  0.4748  0.6525
 6615TIP3   OH219780   3.942   1.538   5.668  0.3688  0.2886 -0.1844
 6615TIP3    H119781   3.926   1.553   5.575  0.6179 -1.4554 -0.5164
 6615TIP3    H219782   3.866   1.488   5.698  0.7913 -0.0684  0.3037
 6616TIP3   OH219783   3.665   2.373   5.276  0.0873 -0.4669 -0.0577
 6616TIP3    H119784   3.663   2.282   5.306  0.5608 -0.3400  0.3568
 6616TIP3    H219785   3.741   2.411   5.319  0.5778 -0.1879 -1.1516
 6617TIP3   OH219786   3.468   4.580   4.232  0.2050  0.1728 -0.4076
 6617TIP3    H119787   3.491   4.555   4.321 -1.7393  2.2021  0.7077
 6617TIP3    H219788   3.372   4.579   4.230  0.2148 -0.4332 -2.6598
 6618TIP3   OH219789   3.727   1.175   4.287  0.2075  0.0225 -0.7464
 6618TIP3    H119790   3.680   1.173   4.204  2.0586  1.5439 -1.8624
 6618TIP3    H219791   3.781   1.096   4.285 -0.4759 -0.4537 -0.5421
 6619TIP3   OH219792   4.231   1.223   3.024 -0.5633 -0.6352 -0.1448
 6619TIP3    H119793   4.265   1.312   3.026  0.6734 -1.0798 -0.6881
 6619TIP3    H219794   4.182   1.218   2.941  2.6429 -1.5963 -2.0627
 6620TIP3   OH219795   7.597   1.269   6.397  0.4576  0.7820 -0.3838
 6620TIP3    H119796   7.607   1.301   6.308 -0.5334  0.8055 -0.4896
 6620TIP3    H219797   7.559   1.343   6.445 -2.3015 -0.3461 -0.7378
 6621TIP3   OH219798   3.316   1.016   4.618  0.7163 -0.9639 -0.1765
 6621TIP3    H119799   3.225   1.037   4.594  0.3842 -0.7434  1.2533
 6621TIP3    H219800   3.312   0.924   4.647  0.6253 -0.4258  1.5379
 6622TIP3   OH219801   3.843   0.592   4.875  0.4076  0.2001  0.0913
 6622TIP3    H119802   3.894   0.670   4.852 -1.5965  1.5598  0.1593
 6622TIP3    H219803   3.867   0.574   4.966 -0.8084  2.1023  0.8034
 6623TIP3   OH219804   4.219   0.496   5.217 -0.1132  0.6843  0.6519
 6623TIP3    H119805   4.149   0.434   5.201  1.8373 -1.4821  0.2494
 6623TIP3    H219806   4.260   0.466   5.298  0.5497  1.7269  0.7125
 6624TIP3   OH219807   3.920   0.331   4.455  0.2751  0.4078  0.0300
 6624TIP3    H119808   3.858   0.394   4.420  1.1430  0.1794 -2.0041
 6624TIP3    H219809   3.999   0.342   4.401  0.8995 -1.4650  0.5121
 6625TIP3   OH219810   5.228   2.828   6.567 -0.6935 -0.6140 -0.5222
 6625TIP3    H119811   5.167   2.855   6.636  0.9618 -2.2489  1.6499
 6625TIP3    H219812   5.300   2.891   6.573 -0.6680 -0.6002 -0.9581
 6626TIP3   OH219813   4.699   3.513   2.742 -0.4002  0.9135 -0.4821
 6626TIP3    H119814   4.729   3.523   2.652  1.9052  1.8530  0.3685
 6626TIP3    H219815   4.624   3.572   2.750 -2.2745 -1.0913 -2.4828
 6627TIP3   OH219816   3.465   4.314   6.290 -0.6069 -0.5549  0.2059
 6627TIP3    H119817   3.558   4.296   6.297 -0.7729 -2.0423 -1.1472
 6627TIP3    H219818   3.425   4.262   6.359 -0.5096 -0.5023  0.3022
 6628TIP3   OH219819   5.429   2.917   5.145 -0.0092  0.1781 -0.0649
 6628TIP3    H119820   5.514   2.961   5.139 -1.1635  2.3124 -1.3511
 6628TIP3    H219821   5.368   2.986   5.168 -2.1843 -0.3626 -3.8756
 6629TIP3   OH219822   4.471   2.426   5.809 -0.0988 -0.0019  0.1322
 6629TIP3    H119823   4.543   2.391   5.861 -0.6106 -1.3349 -0.0370
 6629TIP3    H219824   4.514   2.470   5.736  0.6050  1.2636  1.2950
 6630TIP3   OH219825   5.285   4.421   6.308 -0.0370  0.1927  0.3633
 6630TIP3    H119826   5.253   4.442   6.396  1.1757  0.9465  0.6319
 6630TIP3    H219827   5.375   4.453   6.307  0.5114 -1.3521 -0.5918
 6631TIP3   OH219828   5.070   2.612   5.233 -0.5220 -0.0822  0.4667
 6631TIP3    H119829   5.063   2.705   5.209 -0.1895 -0.3983 -0.8736
 6631TIP3    H219830   5.004   2.601   5.302  0.2334  1.4097  1.4737
 6632TIP3   OH219831   3.172   1.167   5.933  0.5082 -0.4039 -0.5421
 6632TIP3    H119832   3.139   1.257   5.937 -1.7576 -1.2310  0.9338
 6632TIP3    H219833   3.223   1.157   6.013 -1.2522 -1.1348  0.5131
 6633TIP3   OH219834   5.669   0.575   3.206 -0.2597  0.0118 -0.0141
 6633TIP3    H119835   5.624   0.646   3.252  1.4458  1.8407 -1.0857
 6633TIP3    H219836   5.747   0.616   3.169  0.2896 -2.2334 -1.4476
 6634TIP3   OH219837   3.868   2.910   1.731 -0.1772  0.4038  0.0901
 6634TIP3    H119838   3.900   2.979   1.789  0.9339  0.3190 -0.4087
 6634TIP3    H219839   3.922   2.834   1.752  0.6740  0.5541 -1.4933
 6635TIP3   OH219840   3.599   0.849   4.652 -0.1988 -0.6272 -0.0239
 6635TIP3    H119841   3.554   0.930   4.630 -1.3272 -0.8683  1.3515
 6635TIP3    H219842   3.647   0.869   4.732  1.0125 -0.7957 -0.6827
 6636TIP3   OH219843   3.635   2.086   5.041  0.3619  0.6520  0.3583
 6636TIP3    H119844   3.703   2.067   5.105  0.6342 -1.3134 -0.4811
 6636TIP3    H219845   3.553   2.082   5.091  0.7075  0.9166  0.9427
 6637TIP3   OH219846   3.416   2.546   1.772  0.3018  0.4890 -0.0532
 6637TIP3    H119847   3.360   2.616   1.739  1.0093  1.6132  1.0713
 6637TIP3    H219848   3.368   2.509   1.846 -0.4104 -0.7315 -1.1108
 6638TIP3   OH219849   3.984   5.375   3.626 -0.2014  0.0014 -0.3266
 6638TIP3    H119850   3.938   5.307   3.578  0.0259  0.3654 -1.0688
 6638TIP3    H219851   4.070   5.381   3.584 -0.3953  1.0735 -0.5926
 6639TIP3   OH219852   5.529   0.506   4.188  0.3889  0.5647 -0.0887
 6639TIP3    H119853   5.585   0.439   4.227  0.7217  0.3766 -0.8854
 6639TIP3    H219854   5.454   0.457   4.153 -0.6767  0.8974  1.6763
 6640TIP3   OH219855   3.506   1.048   3.069  0.1699  0.5795 -0.0750
 6640TIP3    H119856   3.473   1.056   3.158  1.1056 -0.0505  0.3395
 6640TIP3    H219857   3.535   0.957   3.061  0.1695  0.6478 -0.9951
 6641TIP3   OH219858   5.056   2.534   4.968  0.4753  0.4872 -0.2370
 6641TIP3    H119859   5.053   2.559   5.060  0.8190 -1.2732  0.2843
 6641TIP3    H219860   5.079   2.614   4.921 -1.5903  1.8542  1.0017
 6642TIP3   OH219861   6.977   7.312   0.137  0.0822 -0.0459 -0.0913
 6642TIP3    H119862   7.033   7.238   0.112  0.9654  0.0718  1.4749
 6642TIP3    H219863   7.035   7.388   0.135 -0.4394  0.3547 -0.1657
 6643TIP3   OH219864   1.672   8.006   2.145  0.3057  0.4091  0.1775
 6643TIP3    H119865   1.732   8.075   2.172  0.2993 -0.5345  2.7844
 6643TIP3    H219866   1.728   7.930   2.127  0.0969  0.2777  0.0708
 6644TIP3   OH219867   4.176   2.431   4.089  0.4270 -0.1159 -0.5039
 6644TIP3    H119868   4.250   2.453   4.033  0.2664 -0.6186 -0.9156
 6644TIP3    H219869   4.101   2.473   4.047  0.1666 -1.2023 -1.1340
 6645TIP3   OH219870   3.582   1.306   6.171  0.5531  0.3985  0.1413
 6645TIP3    H119871   3.514   1.337   6.230 -0.3169  0.7019 -0.9920
 6645TIP3    H219872   3.651   1.372   6.177  0.2669  0.6703  0.4493
 6646TIP3   OH219873   7.272   1.913   3.777 -0.3398 -0.3551 -0.3330
 6646TIP3    H119874   7.258   1.825   3.742  0.3657 -0.0207 -1.4655
 6646TIP3    H219875   7.185   1.943   3.803 -0.5449 -1.5015  0.3450
 6647TIP3   OH219876   5.688   1.118   2.287 -0.3489 -0.4066  0.2358
 6647TIP3    H119877   5.613   1.078   2.243  2.1903 -3.5324 -1.4171
 6647TIP3    H219878   5.712   1.056   2.355  1.7612 -0.2281 -0.3241
 6648TIP3   OH219879   6.181   3.360   4.852 -0.0309 -0.0507 -0.2368
 6648TIP3    H119880   6.216   3.312   4.927  0.5236 -1.7287 -1.5485
 6648TIP3    H219881   6.092   3.386   4.879  0.6290  0.5027  1.4739
 6649TIP3   OH219882   3.799   1.946   4.143 -0.1092 -0.1726  0.0691
 6649TIP3    H119883   3.878   1.897   4.165 -0.6721 -0.9295  0.4458
 6649TIP3    H219884   3.745   1.941   4.222  0.0166  1.4599  0.2715
 6650TIP3   OH219885   3.394   2.475   3.234 -0.0428 -0.7193 -0.5789
 6650TIP3    H119886   3.397   2.550   3.175  1.5022  1.0349  1.6661
 6650TIP3    H219887   3.325   2.497   3.297  0.2793 -1.2667 -0.0305
 6651TIP3   OH219888   1.969   2.296   6.836  0.8154 -0.0799 -0.0149
 6651TIP3    H119889   1.932   2.212   6.864 -0.6920  1.4212  2.7476
 6651TIP3    H219890   2.000   2.337   6.917 -1.9193  3.6202 -0.6948
 6652TIP3   OH219891   4.937   2.828   6.899 -0.2083 -0.2650  0.0593
 6652TIP3    H119892   4.992   2.768   6.950 -1.7657 -1.5038  0.3313
 6652TIP3    H219893   4.903   2.890   6.963  2.4010  1.7337 -0.4146
 6653TIP3   OH219894   5.585   3.156   5.020  0.0015 -0.0048  0.1624
 6653TIP3    H119895   5.504   3.200   4.995 -0.1685 -1.2614 -1.4994
 6653TIP3    H219896   5.593   3.082   4.961  1.9817 -0.3452  0.7988
 6654TIP3   OH219897   7.012   2.350   3.446  0.2846 -0.5103 -0.3156
 6654TIP3    H119898   7.048   2.305   3.370  0.3766  1.5024 -1.5101
 6654TIP3    H219899   6.917   2.346   3.434  0.2994 -0.1920 -0.5324
 6655TIP3   OH219900   5.599   2.897   6.680 -0.0796  0.0320  0.0777
 6655TIP3    H119901   5.691   2.883   6.659  0.1262  0.8578  0.4105
 6655TIP3    H219902   5.562   2.938   6.602 -0.1542 -0.2430 -0.0323
 6656TIP3   OH219903   4.886   3.369   6.635 -0.5452  0.7105 -0.2155
 6656TIP3    H119904   4.908   3.462   6.626 -0.0399  0.9000  2.5265
 6656TIP3    H219905   4.959   3.323   6.593  0.8511  1.5081  1.3145
 6657TIP3   OH219906   5.046   0.770   5.287  0.2746 -0.6897 -0.2439
 6657TIP3    H119907   5.061   0.724   5.370 -0.6428  0.3860  0.5454
 6657TIP3    H219908   5.124   0.825   5.276 -0.3428  0.4000  0.7599
 6658TIP3   OH219909   3.656   2.841   4.375 -0.3828 -0.0611 -0.2613
 6658TIP3    H119910   3.620   2.900   4.309 -0.5698 -0.4408 -0.5056
 6658TIP3    H219911   3.581   2.791   4.406 -0.3703  0.4178  0.5635
 6659TIP3   OH219912   0.816   7.969   3.653 -0.0657 -0.2521  0.2777
 6659TIP3    H119913   0.906   7.979   3.622  0.0979 -0.9471  0.5221
 6659TIP3    H219914   0.774   8.051   3.629 -0.1483 -1.0437 -2.4984
 6660TIP3   OH219915   3.885   1.859   3.841 -0.2333 -0.6258 -0.1594
 6660TIP3    H119916   3.953   1.822   3.785 -0.4923  0.0821 -0.9698
 6660TIP3    H219917   3.918   1.946   3.863 -0.0927 -0.9372  0.8750
 6661TIP3   OH219918   4.489   2.806   4.613 -0.1058  0.1014 -0.7396
 6661TIP3    H119919   4.529   2.894   4.615 -1.7621  0.8877 -1.7293
 6661TIP3    H219920   4.564   2.746   4.617  1.2805  1.5293 -3.8063
 6662TIP3   OH219921   4.236   3.404   4.825  0.9200 -0.5581 -0.1790
 6662TIP3    H119922   4.240   3.310   4.844 -0.0583 -0.3695  0.9860
 6662TIP3    H219923   4.222   3.408   4.730 -1.4214 -1.6487  0.0774
 6663TIP3   OH219924   5.228   2.391   4.659 -0.0892 -0.1662  0.7001
 6663TIP3    H119925   5.247   2.353   4.745 -0.6151  2.3089  1.9402
 6663TIP3    H219926   5.261   2.480   4.664 -0.9158  0.2871 -1.3890
 6664TIP3   OH219927   1.969   7.647   4.366  0.1335 -0.7348 -0.3454
 6664TIP3    H119928   2.017   7.638   4.449 -1.0335  0.6828  0.5136
 6664TIP3    H219929   1.935   7.559   4.348  2.3921 -1.5964 -0.5854
 6665TIP3   OH219930   5.580   3.018   5.394 -0.1787  0.5032 -0.3887
 6665TIP3    H119931   5.577   2.925   5.373  1.3521 -0.1016  1.8663
 6665TIP3    H219932   5.514   3.058   5.338 -1.1310 -1.9923 -1.0947
 6666TIP3   OH219933   5.429   3.763   4.674  0.0388 -0.5473  0.0498
 6666TIP3    H119934   5.509   3.812   4.657  0.7558 -1.6575  0.1579
 6666TIP3    H219935   5.378   3.773   4.594 -0.6858  1.9607  0.7777
 6667TIP3   OH219936   5.555   1.644   2.614  0.1299  0.4235 -0.0956
 6667TIP3    H119937   5.501   1.577   2.656  0.7599 -1.5148 -2.2229
 6667TIP3    H219938   5.493   1.700   2.568 -0.1852 -1.2221 -1.7346
 6668TIP3   OH219939   3.893   2.262   4.158 -0.3392 -0.5624  0.2259
 6668TIP3    H119940   3.902   2.169   4.135  2.2489 -0.5495  1.1180
 6668TIP3    H219941   3.980   2.288   4.186 -1.1561  2.0577  0.3771
 6669TIP3   OH219942   3.401   2.346   4.331  0.1107 -0.0908 -0.0545
 6669TIP3    H119943   3.486   2.346   4.286 -0.2932 -0.2573 -0.8218
 6669TIP3    H219944   3.390   2.437   4.360  0.5399 -0.0631  0.0248
 6670TIP3   OH219945   4.202   3.102   2.009 -0.2990 -0.4134  0.1884
 6670TIP3    H119946   4.276   3.041   2.011  0.5960  0.6716  0.8281
 6670TIP3    H219947   4.238   3.184   2.043 -1.3783  0.5879 -1.0631
 6671TIP3   OH219948   3.305   1.213   2.932  0.3161  0.1291  0.1302
 6671TIP3    H119949   3.368   1.150   2.970 -0.9859 -0.9562  0.5271
 6671TIP3    H219950   3.271   1.260   3.008 -0.2689 -0.1445  0.0352
 6672TIP3   OH219951   3.247   1.194   4.217 -0.9111  0.0833 -0.2763
 6672TIP3    H119952   3.311   1.139   4.264 -2.1742 -0.8306  0.4033
 6672TIP3    H219953   3.175   1.205   4.279 -0.7464  2.4352 -0.4651
 6673TIP3   OH219954   4.426   1.169   1.907 -0.4792  0.4391 -1.0626
 6673TIP3    H119955   4.480   1.219   1.846  0.8629  0.0317 -0.2334
 6673TIP3    H219956   4.455   1.078   1.896  0.2701  0.4372  0.6301
 6674TIP3   OH219957   3.258   3.088   2.884 -0.3588 -0.1287  0.1984
 6674TIP3    H119958   3.298   3.022   2.826  1.6776  0.1585  1.2093
 6674TIP3    H219959   3.242   3.041   2.966 -0.8981  0.0866  0.2151
 6675TIP3   OH219960   5.283   2.767   3.161  0.0685  0.3352 -0.1158
 6675TIP3    H119961   5.269   2.776   3.067 -1.3656 -0.6370 -0.0132
 6675TIP3    H219962   5.368   2.725   3.169 -0.1025 -0.1945 -1.0024
 6676TIP3   OH219963   4.099   3.415   3.218 -0.1537 -0.0200  0.6144
 6676TIP3    H119964   4.150   3.335   3.233 -0.0279  0.0828  0.7392
 6676TIP3    H219965   4.009   3.390   3.237 -0.0831 -0.0694  0.8913
 6677TIP3   OH219966   5.208   0.666   5.528 -0.1287 -0.4785  0.3755
 6677TIP3    H119967   5.290   0.669   5.478 -0.1428  1.9876  0.3985
 6677TIP3    H219968   5.214   0.742   5.586 -2.5645 -0.1159  0.1865
 6678TIP3   OH219969   1.914   7.407   4.925  0.3184  0.4932  0.1286
 6678TIP3    H119970   1.874   7.398   4.838  0.2671  2.0126 -0.0137
 6678TIP3    H219971   1.984   7.471   4.912 -0.6167  1.8051  1.5229
 6679TIP3   OH219972   4.317   3.107   4.501 -0.6855 -0.1449  0.3679
 6679TIP3    H119973   4.267   3.181   4.536 -0.4660  0.0124  0.3502
 6679TIP3    H219974   4.375   3.146   4.435  0.2716 -0.1427  1.1861
 6680TIP3   OH219975   3.850   0.076   4.480  0.5216  0.1493 -0.1921
 6680TIP3    H119976   3.871   0.167   4.458 -0.4473  0.3363 -0.3432
 6680TIP3    H219977   3.816   0.080   4.569  0.8113 -0.1171 -0.0669
 6681TIP3   OH219978   6.272   1.890   3.654  0.3850 -0.0261  0.6795
 6681TIP3    H119979   6.345   1.949   3.673  2.7078 -2.4352 -0.4418
 6681TIP3    H219980   6.256   1.901   3.560  0.6230 -0.9255  0.5271
 6682TIP3   OH219981   4.020   2.375   5.743 -0.2991  0.2089 -0.3787
 6682TIP3    H119982   4.074   2.328   5.806  1.4005 -0.5668 -2.3182
 6682TIP3    H219983   3.997   2.457   5.787  1.9426  0.2772  0.7745
 6683TIP3   OH219984   5.276   2.293   5.557 -0.4767 -0.2228  0.5954
 6683TIP3    H119985   5.218   2.278   5.482  0.5004 -0.0983 -0.1913
 6683TIP3    H219986   5.236   2.366   5.604 -1.4352 -0.7109  0.5527
 6684TIP3   OH219987   5.046   3.164   4.290  0.0431 -0.3608  0.2176
 6684TIP3    H119988   5.001   3.244   4.262  2.1000  0.3278 -1.2793
 6684TIP3    H219989   4.977   3.099   4.300 -1.5324  1.2930  0.3050
 6685TIP3   OH219990   5.715   3.487   3.067  0.5256 -0.7135 -0.1121
 6685TIP3    H119991   5.625   3.488   3.036  1.3135 -0.1681 -2.4709
 6685TIP3    H219992   5.707   3.478   3.162 -2.0049 -0.3093 -0.2435
 6686TIP3   OH219993   4.697   2.449   2.612  0.2844  0.2333 -0.3974
 6686TIP3    H119994   4.641   2.474   2.538  0.9022  0.3964 -0.8100
 6686TIP3    H219995   4.665   2.363   2.638 -0.5564  0.5850 -0.2502
 6687TIP3   OH219996   3.409   2.538   4.879  0.0206  0.5012 -0.4731
 6687TIP3    H119997   3.469   2.466   4.856  0.7675  1.1310 -0.5216
 6687TIP3    H219998   3.404   2.591   4.799 -0.1868  0.7410 -0.3000
 6688TIP3   OH219999   2.439   3.656   6.003  0.0159 -0.5133 -0.0021
 6688TIP3    H120000   2.445   3.613   5.918 -0.4939  0.4798 -0.5543
 6688TIP3    H220001   2.373   3.605   6.051  1.3562 -1.9660  0.3637
 6689TIP3   OH220002   4.152   2.075   4.095 -0.1277 -0.1294 -0.1911
 6689TIP3    H120003   4.212   2.149   4.107 -0.2107  0.0706 -1.0292
 6689TIP3    H220004   4.157   2.027   4.178 -0.2156  0.9208  0.4293
 6690TIP3   OH220005   3.983   1.404   3.760 -0.6401  0.1819 -0.2165
 6690TIP3    H120006   3.908   1.346   3.768 -1.4741  0.9009 -2.4311
 6690TIP3    H220007   4.015   1.390   3.670  1.3470  0.5117  0.4131
 6691TIP3   OH220008   2.683   3.335   6.735 -0.4122  0.0620 -0.4831
 6691TIP3    H120009   2.730   3.273   6.679 -0.2328  0.4947 -0.8162
 6691TIP3    H220010   2.601   3.290   6.758  0.8005 -1.3123  1.3211
 6692TIP3   OH220011   4.811   2.266   5.316  0.3416  0.5710 -0.0274
 6692TIP3    H120012   4.902   2.290   5.329  0.2327  0.1988  1.5300
 6692TIP3    H220013   4.770   2.345   5.281  0.8771  1.3401  1.0519
 6693TIP3   OH220014   3.170   4.354   5.379  0.4917 -0.4243  0.0797
 6693TIP3    H120015   3.152   4.260   5.382 -0.2234 -0.4224 -2.7078
 6693TIP3    H220016   3.083   4.394   5.373  0.8396  0.3401  0.1540
 6694TIP3   OH220017   4.072   1.783   3.427  0.1486  0.6911  0.2139
 6694TIP3    H120018   3.985   1.750   3.401 -0.5832  2.4974  0.3297
 6694TIP3    H220019   4.096   1.844   3.357  0.3424  1.8741  1.2996
 6695TIP3   OH220020   3.565   2.675   5.437 -0.2344  0.4486  0.5499
 6695TIP3    H120021   3.587   2.601   5.493  0.0350 -0.4699 -0.7450
 6695TIP3    H220022   3.649   2.712   5.410 -0.3487  0.5628  0.3445
 6696TIP3   OH220023   4.522   1.370   4.494 -0.1682 -0.5448 -0.6360
 6696TIP3    H120024   4.611   1.337   4.489  1.0025  2.2565  0.8330
 6696TIP3    H220025   4.481   1.316   4.562  0.5723 -1.4193 -0.8695
 6697TIP3   OH220026   3.332   0.760   4.689 -0.6641  0.0805 -0.5192
 6697TIP3    H120027   3.318   0.665   4.694 -1.3715  0.1905 -0.2914
 6697TIP3    H220028   3.427   0.770   4.690 -0.4955 -0.3085  5.7789
 6698TIP3   OH220029   4.737   3.220   4.517 -0.1427 -0.0722 -0.1517
 6698TIP3    H120030   4.823   3.229   4.558 -0.9644  0.5550  1.4849
 6698TIP3    H220031   4.689   3.161   4.574 -0.9796  0.0015 -0.7695
 6699TIP3   OH220032   2.689   3.051   6.329  0.5566 -0.2436 -0.8828
 6699TIP3    H120033   2.596   3.074   6.321  0.6123  0.2947  0.0090
 6699TIP3    H220034   2.694   2.960   6.301 -0.4023 -0.5981  0.1108
 6700TIP3   OH220035   3.516   1.832   3.385  0.5458 -0.6416 -0.2111
 6700TIP3    H120036   3.470   1.914   3.369  2.3070  1.2417  3.7045
 6700TIP3    H220037   3.596   1.838   3.331 -0.8517 -1.3282 -2.4508
 6701TIP3   OH220038   6.080   1.582   2.539  0.3524 -0.6672 -0.3398
 6701TIP3    H120039   6.064   1.663   2.588 -1.6720  0.0208 -2.0242
 6701TIP3    H220040   5.999   1.531   2.551  1.0843 -1.8511 -0.3843
 6702TIP3   OH220041   3.627   3.612   6.247 -0.1246  0.0188  0.5824
 6702TIP3    H120042   3.670   3.563   6.317  1.9020 -0.4956 -0.9841
 6702TIP3    H220043   3.552   3.559   6.223 -0.6713  0.0585  2.1453
 6703TIP3   OH220044   6.335   1.463   3.270 -0.7655  0.6948 -0.3154
 6703TIP3    H120045   6.293   1.502   3.347 -1.1623 -0.0040 -0.1680
 6703TIP3    H220046   6.354   1.372   3.296  0.9039  1.0179 -0.3643
 6704TIP3   OH220047   2.477   2.728   4.968  0.1047  0.4820  0.1559
 6704TIP3    H120048   2.445   2.765   4.885  1.2126 -0.8219 -0.8618
 6704TIP3    H220049   2.562   2.769   4.981 -0.0545  0.6601  0.6529
 6705TIP3   OH220050   4.675   2.259   2.203 -0.6341  0.1679  0.1723
 6705TIP3    H120051   4.648   2.230   2.116  0.8727 -0.6058 -0.0416
 6705TIP3    H220052   4.602   2.234   2.260 -0.6692 -1.2970 -0.5036
 6706TIP3   OH220053   4.537   2.807   3.863  0.4015  0.1207 -0.0413
 6706TIP3    H120054   4.596   2.820   3.937 -0.5127 -2.0180  1.1020
 6706TIP3    H220055   4.586   2.751   3.803  0.4675  0.3954 -0.2460
 6707TIP3   OH220056   4.754   1.585   5.147  0.3213 -0.2373 -0.1046
 6707TIP3    H120057   4.658   1.586   5.155  0.3873 -0.0783  0.8098
 6707TIP3    H220058   4.771   1.543   5.063 -0.5556 -0.1904 -0.3145
 6708TIP3   OH220059   7.828   5.854   0.607  0.0493 -0.3177 -0.4047
 6708TIP3    H120060   7.889   5.790   0.645  0.0164  0.5560  1.1356
 6708TIP3    H220061   7.877   5.936   0.605  0.0598 -0.3413 -2.2973
 6709TIP3   OH220062   3.718   3.231   5.202 -0.3442  0.0491  0.0040
 6709TIP3    H120063   3.651   3.249   5.136 -0.4762 -0.9917 -0.1494
 6709TIP3    H220064   3.797   3.274   5.167 -0.3933 -0.5490 -0.8769
 6710TIP3   OH220065   6.458   1.926   5.092 -0.0572 -0.1766  0.0152
 6710TIP3    H120066   6.549   1.953   5.098 -0.1086 -0.1835  0.9431
 6710TIP3    H220067   6.453   1.874   5.012  0.4756  0.8680 -0.7031
 6711TIP3   OH220068   6.551   0.529   6.710 -0.0519  0.4126  0.2698
 6711TIP3    H120069   6.646   0.542   6.718  0.1074 -0.9827  0.7745
 6711TIP3    H220070   6.538   0.513   6.616  0.2428  0.3943  0.2289
 6712TIP3   OH220071   1.612   0.163   0.847  0.0042 -0.1483  0.3043
 6712TIP3    H120072   1.597   0.137   0.755  0.8065  0.2907  0.0495
 6712TIP3    H220073   1.597   0.257   0.848  0.3181 -0.1029  0.5622
 6713TIP3   OH220074   4.127   2.636   5.471 -0.2391  0.1631  0.1484
 6713TIP3    H120075   4.131   2.727   5.502 -0.3902  0.1431  0.2301
 6713TIP3    H220076   4.140   2.584   5.550  0.9639  0.1161 -0.0674
 6714TIP3   OH220077   3.869   3.160   6.548 -0.0199 -0.1381 -0.3234
 6714TIP3    H120078   3.882   3.065   6.551 -0.5066 -0.2246 -0.9965
 6714TIP3    H220079   3.819   3.175   6.468 -1.2956  0.5245  0.5741
 6715TIP3   OH220080   4.768   1.204   4.053  0.6046 -0.3188 -0.3105
 6715TIP3    H120081   4.802   1.272   4.111 -1.3354 -0.7586  1.4056
 6715TIP3    H220082   4.770   1.244   3.966  0.1933  1.6826  0.5750
 6716TIP3   OH220083   4.379   3.194   6.921  0.4223  0.0072  0.0791
 6716TIP3    H120084   4.357   3.248   6.844  1.1768 -1.3454 -1.1166
 6716TIP3    H220085   4.382   3.105   6.887  1.7249 -0.4990  1.4907
 6717TIP3   OH220086   6.534   2.447   2.790  0.4722 -0.0822  0.5623
 6717TIP3    H120087   6.464   2.511   2.801 -1.1823 -1.7243 -0.0426
 6717TIP3    H220088   6.521   2.412   2.702  1.2068 -1.4072  0.9623
 6718TIP3   OH220089   0.732   2.409   4.222  0.1096 -0.2595  0.7263
 6718TIP3    H120090   0.722   2.411   4.317  0.5832  0.7605  0.7629
 6718TIP3    H220091   0.815   2.454   4.206 -0.5348  0.6034 -0.2387
 6719TIP3   OH220092   3.570   3.164   4.572  0.4219  0.1087  0.3040
 6719TIP3    H120093   3.620   3.184   4.493 -0.7271 -1.0491 -0.7432
 6719TIP3    H220094   3.557   3.249   4.614  1.6689  0.6446 -0.3593
 6720TIP3   OH220095   3.695   2.663   6.373  0.2002 -0.4282 -0.0122
 6720TIP3    H120096   3.637   2.590   6.393 -0.1123  0.5345  2.9087
 6720TIP3    H220097   3.645   2.719   6.314 -0.6512 -1.1595  0.0200
 6721TIP3   OH220098   6.285   1.725   3.897 -0.3467  0.5419  0.2831
 6721TIP3    H120099   6.272   1.757   3.808  1.0925  2.0696  0.6089
 6721TIP3    H220100   6.370   1.682   3.895 -1.4924 -1.8629  0.2783
 6722TIP3   OH220101   4.516   3.211   4.331  0.0398  0.2273  0.7106
 6722TIP3    H120102   4.538   3.195   4.239  1.8851 -0.2212  1.2041
 6722TIP3    H220103   4.600   3.209   4.377 -0.9923 -1.2393  2.6594
 6723TIP3   OH220104   2.829   2.666   6.687  0.6329 -0.0193  0.2251
 6723TIP3    H120105   2.895   2.734   6.674  1.2534 -0.5143  0.7286
 6723TIP3    H220106   2.745   2.713   6.690  1.0976  0.7642  0.9991
 6724TIP3   OH220107   6.800   2.706   4.706 -0.2420  0.3356  0.0955
 6724TIP3    H120108   6.833   2.660   4.784  1.0529  1.4481  0.2219
 6724TIP3    H220109   6.718   2.745   4.734 -0.0713  0.2423  0.7394
 6725TIP3   OH220110   5.350   3.086   4.497  0.0707 -0.2873  0.0077
 6725TIP3    H120111   5.271   3.067   4.546  1.2387 -0.3971  1.9264
 6725TIP3    H220112   5.408   3.129   4.561  1.6240 -0.4019 -1.2858
 6726TIP3   OH220113   5.148   2.712   3.558 -0.0509  0.1843  0.1086
 6726TIP3    H120114   5.153   2.620   3.530  0.1853  0.6524 -1.4706
 6726TIP3    H220115   5.234   2.748   3.537 -0.0278  0.6797  1.0598
 6727TIP3   OH220116   7.600   1.739   5.436 -0.0041  0.5317  0.2281
 6727TIP3    H120117   7.658   1.715   5.364  2.1693  3.9793  0.6794
 6727TIP3    H220118   7.637   1.695   5.513 -1.6475 -2.2104 -0.5081
 6728TIP3   OH220119   3.806   2.299   5.556 -0.2132  0.3092 -0.0080
 6728TIP3    H120120   3.872   2.310   5.624  0.3202 -0.4717 -0.3982
 6728TIP3    H220121   3.833   2.361   5.487 -0.6727  0.9957  0.4232
 6729TIP3   OH220122   1.658   1.207   3.124 -0.0356 -0.0989 -0.7084
 6729TIP3    H120123   1.627   1.117   3.130  0.3363 -0.3089 -1.8404
 6729TIP3    H220124   1.750   1.199   3.097  0.5435  0.5682  1.0130
 6730TIP3   OH220125   2.318   1.510   4.423 -0.9303 -0.2637 -0.2329
 6730TIP3    H120126   2.394   1.468   4.462 -1.5644 -1.8727 -0.6762
 6730TIP3    H220127   2.354   1.568   4.355  0.0069  0.5778  0.9634
 6731TIP3   OH220128   6.281   3.246   5.084  0.1624 -0.4261  0.1502
 6731TIP3    H120129   6.260   3.212   5.171  1.6965 -0.2258  0.6081
 6731TIP3    H220130   6.354   3.305   5.098 -0.3993  0.5940 -1.1107
 6732TIP3   OH220131   8.125   7.039   0.068  0.0208  0.0863  0.0675
 6732TIP3    H120132   8.202   7.079   0.028 -0.0301 -1.6677 -1.8741
 6732TIP3    H220133   8.124   6.950   0.034 -3.2382  0.2778 -0.4900
 6733TIP3   OH220134   7.655   2.019   6.555  0.5408  0.0680  0.4981
 6733TIP3    H120135   7.590   1.972   6.502  1.0894  0.7980 -0.8470
 6733TIP3    H220136   7.605   2.054   6.628  0.2286 -3.1220  1.8767
 6734TIP3   OH220137   3.220   7.878   5.970  0.0701 -0.2564  0.5343
 6734TIP3    H120138   3.200   7.793   5.931 -0.5931 -0.9293  2.2907
 6734TIP3    H220139   3.147   7.934   5.943 -0.4966 -0.7735  0.9762
 6735TIP3   OH220140   0.082   7.845   2.478 -0.2345 -0.4500 -0.1061
 6735TIP3    H120141   0.123   7.907   2.538  0.0471 -1.1482  0.4416
 6735TIP3    H220142   0.155   7.791   2.447  0.0898  1.7334 -3.3539
 6736TIP3   OH220143   4.738   2.871   5.684  0.4444  0.6352  0.1443
 6736TIP3    H120144   4.742   2.809   5.611  1.0900  0.9474 -0.0901
 6736TIP3    H220145   4.647   2.866   5.715 -0.0876  1.1495 -1.2569
 6737TIP3   OH220146   3.356   0.335   5.292  0.1408 -0.3896 -0.6574
 6737TIP3    H120147   3.329   0.418   5.252  2.3792 -0.6175 -2.7659
 6737TIP3    H220148   3.362   0.274   5.219  0.6401 -1.8376  0.5713
 6738TIP3   OH220149   3.153   2.059   4.063 -0.2928 -0.1425 -0.7196
 6738TIP3    H120150   3.079   2.094   4.112 -0.4413 -1.3881 -0.0341
 6738TIP3    H220151   3.215   2.132   4.059  0.3976 -0.4353  2.6992
 6739TIP3   OH220152   7.159   2.192   5.152 -0.0741  0.3840  0.6846
 6739TIP3    H120153   7.213   2.237   5.218  1.2102 -3.1184  2.1254
 6739TIP3    H220154   7.215   2.189   5.074  0.6724 -0.5919  1.2515
 6740TIP3   OH220155   6.274   1.620   2.298  0.0306  0.3359 -0.5444
 6740TIP3    H120156   6.271   1.630   2.203 -1.1404 -1.1468 -0.6850
 6740TIP3    H220157   6.184   1.633   2.326  0.1623 -0.3832  0.2272
 6741TIP3   OH220158   5.201   3.492   6.101 -0.0962 -0.0272  0.0690
 6741TIP3    H120159   5.120   3.463   6.143  0.2439 -2.3276 -0.7835
 6741TIP3    H220160   5.231   3.416   6.052  3.2205  0.3849  1.3040
 6742TIP3   OH220161   3.966   1.507   1.901  0.3382 -0.2680  0.2643
 6742TIP3    H120162   3.910   1.483   1.827 -0.3638  0.5139  0.5323
 6742TIP3    H220163   3.947   1.440   1.967 -0.2801 -0.0188  0.3481
 6743TIP3   OH220164   2.865   0.704   4.568 -0.2351  0.1419 -0.1700
 6743TIP3    H120165   2.816   0.759   4.506  0.3772 -1.0211 -1.7288
 6743TIP3    H220166   2.813   0.623   4.574 -0.0809  0.0908  0.5393
 6744TIP3   OH220167   3.526   1.779   5.813  0.3085  0.4766 -0.0147
 6744TIP3    H120168   3.508   1.726   5.891  0.9213  0.6837  0.2698
 6744TIP3    H220169   3.473   1.858   5.825 -1.5983 -0.5975 -1.0450
 6745TIP3   OH220170   5.267   3.537   4.728 -0.1666 -0.4188 -0.5969
 6745TIP3    H120171   5.230   3.542   4.816  0.2727 -0.8630 -0.3880
 6745TIP3    H220172   5.327   3.611   4.723  0.2475 -0.7367 -0.3194
 6746TIP3   OH220173   3.269   4.015   5.220 -0.2042 -0.3537  0.0298
 6746TIP3    H120174   3.346   3.998   5.274 -0.5404 -1.3057  0.2269
 6746TIP3    H220175   3.280   4.105   5.189  1.8345 -1.0488 -1.3312
 6747TIP3   OH220176   0.288   5.279   0.021  0.0519 -0.4891 -0.2551
 6747TIP3    H120177   0.254   5.347   0.080 -1.6640  1.8013 -3.7065
 6747TIP3    H220178   0.215   5.218   0.011  0.9894 -1.9143  1.4391
 6748TIP3   OH220179   4.612   3.748   6.721 -0.3064 -0.3101  0.3056
 6748TIP3    H120180   4.585   3.742   6.629 -1.9286 -0.5583  0.7828
 6748TIP3    H220181   4.679   3.817   6.722 -1.7265  1.1186 -0.7441
 6749TIP3   OH220182   5.035   1.987   3.776  0.5094  0.6554 -0.3450
 6749TIP3    H120183   5.090   2.035   3.838  0.2279 -0.1693  0.5563
 6749TIP3    H220184   4.945   2.013   3.799  0.4952  1.5415 -1.4199
 6750TIP3   OH220185   3.801   2.997   5.095  0.0433  0.1908 -0.5334
 6750TIP3    H120186   3.794   3.059   5.167 -0.3055  0.3788 -0.7250
 6750TIP3    H220187   3.734   2.931   5.112 -0.2594  0.4126 -0.8548
 6751TIP3   OH220188   4.538   1.020   4.317  0.3360 -0.1273  0.5783
 6751TIP3    H120189   4.606   1.078   4.353  0.5132  1.6631 -2.4528
 6751TIP3    H220190   4.457   1.069   4.328  0.3544  0.3294 -1.0616
 6752TIP3   OH220191   1.857   2.985   4.597 -0.1703 -0.0577 -0.3481
 6752TIP3    H120192   1.834   2.976   4.689 -1.0387  0.6702 -0.4818
 6752TIP3    H220193   1.841   2.899   4.559  0.9115 -0.5676  0.3221
 6753TIP3   OH220194   4.179   1.545   2.769  0.5981  0.4859  0.1358
 6753TIP3    H120195   4.198   1.456   2.800  0.7379  0.9405  1.3743
 6753TIP3    H220196   4.238   1.557   2.695  2.6798  0.5992  1.7802
 6754TIP3   OH220197   2.525   1.483   4.847 -0.0338  0.0925  0.1294
 6754TIP3    H120198   2.586   1.409   4.840  0.3182  0.5189 -1.3842
 6754TIP3    H220199   2.439   1.442   4.848  0.1675 -0.3560 -0.5206
 6755TIP3   OH220200   5.988   2.718   4.439  0.1330 -0.2720 -0.2392
 6755TIP3    H120201   6.051   2.652   4.469 -0.0264  0.0607  0.8222
 6755TIP3    H220202   6.040   2.797   4.427 -0.0347 -0.0687  0.3770
 6756TIP3   OH220203   2.247   1.237   3.759  0.5020 -0.1037  0.3984
 6756TIP3    H120204   2.255   1.312   3.700  0.6708  0.0613  0.6336
 6756TIP3    H220205   2.161   1.200   3.739  1.3196 -1.1614 -1.2731
 6757TIP3   OH220206   7.602   6.286   1.065  0.0628 -0.2364  0.4042
 6757TIP3    H120207   7.616   6.367   1.015  0.4480  0.5686  1.7883
 6757TIP3    H220208   7.527   6.304   1.121  0.4771 -0.6533  1.1043
 6758TIP3   OH220209   4.776   1.125   5.253  0.2428 -0.1145 -0.3613
 6758TIP3    H120210   4.681   1.123   5.262  0.4179  0.2906  1.8667
 6758TIP3    H220211   4.798   1.219   5.251  0.6561 -0.2059 -0.1436
 6759TIP3   OH220212   3.928   0.891   4.466  0.2327  0.8529 -0.1969
 6759TIP3    H120213   4.023   0.886   4.454  0.2039  0.4627 -0.2673
 6759TIP3    H220214   3.892   0.888   4.378  0.0825 -0.7199 -0.0873
 6760TIP3   OH220215   4.946   1.358   5.282  0.4049 -0.2343 -0.0489
 6760TIP3    H120216   4.953   1.420   5.209  4.2422  1.1046  1.3343
 6760TIP3    H220217   4.919   1.411   5.357  0.3643 -0.8630  0.3857
 6761TIP3   OH220218   5.166   2.683   4.468  0.1421 -0.0457 -0.5141
 6761TIP3    H120219   5.214   2.766   4.471  0.3281 -0.1864  0.3606
 6761TIP3    H220220   5.223   2.625   4.417  0.3429  0.1478 -0.5128
 6762TIP3   OH220221   4.693   4.425   3.504 -0.4302  0.1988  0.2078
 6762TIP3    H120222   4.730   4.503   3.545 -0.3423  1.4430 -2.1861
 6762TIP3    H220223   4.722   4.353   3.560  1.4268  1.6344  1.1541
 6763TIP3   OH220224   4.428   2.063   5.125  0.3405  0.1896 -0.2001
 6763TIP3    H120225   4.488   2.127   5.087  0.3462  0.9896  1.1508
 6763TIP3    H220226   4.341   2.096   5.103  0.3622 -0.7508 -1.7947
 6764TIP3   OH220227   3.224   3.797   3.619 -0.0492 -0.2520 -0.7197
 6764TIP3    H120228   3.290   3.738   3.655  1.3929  0.9113 -1.3549
 6764TIP3    H220229   3.201   3.855   3.691  1.4998  0.9226 -1.1248
 6765TIP3   OH220230   2.905   1.688   4.095 -0.4741 -0.3388  0.1386
 6765TIP3    H120231   2.814   1.658   4.097 -0.3960 -0.7553 -1.6641
 6765TIP3    H220232   2.954   1.620   4.141 -0.9731 -0.5179  0.4033
 6766TIP3   OH220233   3.443   1.383   2.749  0.0317  0.0264  0.5596
 6766TIP3    H120234   3.516   1.412   2.804 -0.5505  1.8189  0.4115
 6766TIP3    H220235   3.398   1.318   2.802  0.5838  0.3440  1.4320
 6767TIP3   OH220236   6.238   2.128   4.647  0.2916 -0.0243  0.0698
 6767TIP3    H120237   6.246   2.119   4.552  0.0159 -0.5366  0.0938
 6767TIP3    H220238   6.271   2.216   4.666  0.5342  0.0023 -0.4772
 6768TIP3   OH220239   5.149   0.718   2.793 -0.3817  0.5384  0.4249
 6768TIP3    H120240   5.163   0.767   2.712 -0.9828  0.8281  0.4893
 6768TIP3    H220241   5.152   0.626   2.767  1.6096  0.5859  0.4446
 6769TIP3   OH220242   4.608   3.523   6.886 -0.0553  0.3451 -0.6149
 6769TIP3    H120243   4.641   3.597   6.835  0.1030 -0.7208 -2.0616
 6769TIP3    H220244   4.526   3.498   6.843 -1.5328  1.3842  1.4834
 6770TIP3   OH220245   6.507   1.880   6.777  0.3156  0.0417  0.4427
 6770TIP3    H120246   6.468   1.802   6.816 -1.0037  0.1156 -0.7112
 6770TIP3    H220247   6.433   1.938   6.758  0.9512  0.2115 -1.6948
 6771TIP3   OH220248   3.037   1.990   4.367  0.5165  0.6742  0.1276
 6771TIP3    H120249   3.106   1.932   4.398  1.3907  0.2321 -2.5568
 6771TIP3    H220250   3.080   2.074   4.352  0.6691  0.2357 -2.1304
 6772TIP3   OH220251   5.154   1.469   6.283 -0.0245  0.1728 -0.1505
 6772TIP3    H120252   5.206   1.485   6.362 -0.5160 -1.6978  0.5727
 6772TIP3    H220253   5.217   1.469   6.212  0.8606 -1.2821  0.6229
 6773TIP3   OH220254   4.785   2.319   3.767  0.0299 -0.8941  0.1177
 6773TIP3    H120255   4.759   2.322   3.674  0.5766 -2.5042 -0.0958
 6773TIP3    H220256   4.744   2.240   3.801 -1.7471  0.6687  1.7699
 6774TIP3   OH220257   6.326   3.919   4.090  0.4367 -0.7624 -0.0130
 6774TIP3    H120258   6.283   3.880   4.014  0.2877  0.2420 -0.4544
 6774TIP3    H220259   6.400   3.967   4.053 -0.8899  1.5458  0.2162
 6775TIP3   OH220260   6.673   0.851   5.257  0.2988 -0.5073 -0.0967
 6775TIP3    H120261   6.737   0.783   5.274 -0.0283 -0.5869  0.8228
 6775TIP3    H220262   6.640   0.876   5.343  0.5061  0.8994 -0.4047
 6776TIP3   OH220263   5.517   2.447   5.502  0.3397  0.2644  0.0720
 6776TIP3    H120264   5.569   2.422   5.579 -0.3284  1.2220  0.8461
 6776TIP3    H220265   5.427   2.427   5.525  0.1712  0.2455 -0.5886
 6777TIP3   OH220266   5.654   1.965   5.316 -0.0444 -0.2388  0.7321
 6777TIP3    H120267   5.746   1.941   5.317 -0.1492 -0.6536  0.3101
 6777TIP3    H220268   5.654   2.060   5.328  0.4650 -0.1540  0.0958
 6778TIP3   OH220269   5.561   2.933   3.757 -0.2536  0.0469  0.0427
 6778TIP3    H120270   5.588   3.013   3.712  1.4072 -0.8538 -0.6202
 6778TIP3    H220271   5.640   2.904   3.804 -0.6940 -1.4438 -0.1152
 6779TIP3   OH220272   4.845   2.955   3.843 -0.9462 -0.2790 -0.3182
 6779TIP3    H120273   4.859   2.904   3.922 -1.4560  0.2171  0.0938
 6779TIP3    H220274   4.889   3.038   3.859  0.7723 -0.9591 -1.3981
 6780TIP3   OH220275   6.700   3.018   4.012 -0.5174 -0.0542  0.0348
 6780TIP3    H120276   6.790   3.047   4.027 -0.8038 -0.1282  1.9964
 6780TIP3    H220277   6.675   3.061   3.930  0.5786  1.6546  0.5710
 6781TIP3   OH220278   6.432   3.355   3.408 -0.2505 -0.3440 -0.0861
 6781TIP3    H120279   6.386   3.434   3.436  0.9169  0.0924  0.6342
 6781TIP3    H220280   6.523   3.370   3.434  0.6810 -0.4388 -3.0342
 6782TIP3   OH220281   6.632   2.816   4.925 -0.1528  0.8650  0.1609
 6782TIP3    H120282   6.571   2.887   4.905 -1.2561  0.1549  0.9745
 6782TIP3    H220283   6.689   2.853   4.994  0.7336  1.7210 -0.9967
 6783TIP3   OH220284   4.203   2.856   4.495  0.5438  0.4458  0.4453
 6783TIP3    H120285   4.113   2.880   4.473  0.2728 -0.5393  0.4441
 6783TIP3    H220286   4.251   2.938   4.491 -0.3044  0.9409  0.1813
 6784TIP3   OH220287   6.252   2.778   5.950 -0.6753 -0.0347 -0.2977
 6784TIP3    H120288   6.336   2.803   5.911 -0.3005 -1.0993 -0.1932
 6784TIP3    H220289   6.190   2.782   5.877 -0.1541 -1.0996 -0.8183
 6785TIP3   OH220290   6.412   0.780   1.918  0.1180  0.4502  0.7233
 6785TIP3    H120291   6.445   0.788   1.829 -0.0164  0.3906  0.6681
 6785TIP3    H220292   6.468   0.838   1.970  1.5167 -1.0499  0.9396
 6786TIP3   OH220293   7.964   2.155   2.886  0.0505 -0.1255  0.3258
 6786TIP3    H120294   7.920   2.239   2.874  0.5947  0.1218  0.0506
 6786TIP3    H220295   7.895   2.096   2.916 -0.4858  0.2405 -0.1871
 6787TIP3   OH220296   6.120   1.836   4.941 -0.4726 -0.0752 -0.7253
 6787TIP3    H120297   6.168   1.828   5.024 -1.7456  0.0463  0.0275
 6787TIP3    H220298   6.125   1.748   4.902  0.3614 -0.0624 -0.6561
 6788TIP3   OH220299   3.762   1.611   4.529 -0.3669  0.2567  0.0052
 6788TIP3    H120300   3.716   1.533   4.498  1.6640 -1.0407  0.1632
 6788TIP3    H220301   3.693   1.668   4.561 -1.8152 -1.9421  0.9167
 6789TIP3   OH220302   0.287   3.823   4.303 -0.0775  1.0968 -0.1838
 6789TIP3    H120303   0.226   3.778   4.361 -0.8968  2.3888 -0.0132
 6789TIP3    H220304   0.307   3.905   4.348  1.7017  0.7589 -0.2949
 6790TIP3   OH220305   5.347   2.204   4.160  0.0450 -0.2405  0.2217
 6790TIP3    H120306   5.345   2.126   4.104 -0.0436 -0.0460 -0.0444
 6790TIP3    H220307   5.418   2.257   4.124  0.0928 -0.1898  0.3918
 6791TIP3   OH220308   6.714   3.410   4.174  0.2881 -0.0858 -0.2506
 6791TIP3    H120309   6.681   3.342   4.233 -1.2629  2.0559  1.4987
 6791TIP3    H220310   6.795   3.440   4.215  1.3731 -1.4036 -1.4326
 6792TIP3   OH220311   5.202   2.567   6.757  0.0559  0.4078 -0.1652
 6792TIP3    H120312   5.236   2.560   6.668  1.5833  0.9292  0.3688
 6792TIP3    H220313   5.140   2.494   6.765  0.9650 -0.4966 -1.1828
 6793TIP3   OH220314   6.633   2.764   4.488 -0.0694  0.6674  0.0807
 6793TIP3    H120315   6.617   2.858   4.489 -1.0657  0.5033  0.3252
 6793TIP3    H220316   6.702   2.750   4.553  0.6573  1.3178 -0.5312
 6794TIP3   OH220317   6.150   1.258   2.665 -0.1839 -0.2901  0.0880
 6794TIP3    H120318   6.167   1.164   2.669  0.2356 -0.2377 -0.3863
 6794TIP3    H220319   6.126   1.274   2.573  0.7843  0.2369 -0.0769
 6795TIP3   OH220320   4.820   1.216   4.804  0.8000 -0.2124  0.7738
 6795TIP3    H120321   4.898   1.234   4.855  1.3765  1.0967 -0.5327
 6795TIP3    H220322   4.853   1.186   4.719 -0.0429  2.8657 -0.7043
 6796TIP3   OH220323   7.184   2.525   4.100 -0.1077 -0.2838 -0.0200
 6796TIP3    H120324   7.202   2.526   4.194 -0.4744  2.7478  0.0525
 6796TIP3    H220325   7.262   2.486   4.061  0.5199 -0.5240  1.4501
 6797TIP3   OH220326   7.570   1.793   6.089  0.8665 -0.1222 -0.1011
 6797TIP3    H120327   7.536   1.873   6.048  1.2302 -0.1277 -0.4173
 6797TIP3    H220328   7.492   1.745   6.115  0.6518  0.6910  0.7896
 6798TIP3   OH220329   6.328   2.068   4.398  0.1500 -0.0692 -0.4214
 6798TIP3    H120330   6.393   2.101   4.337  1.1177 -1.5128 -0.1968
 6798TIP3    H220331   6.298   1.986   4.359 -1.8897  0.7850 -0.7526
 6799TIP3   OH220332   1.164   1.995   4.880 -0.4177  0.1954 -0.5144
 6799TIP3    H120333   1.253   2.029   4.874 -0.9083  1.5994 -0.0344
 6799TIP3    H220334   1.109   2.066   4.847 -1.5574  0.3343  1.6377
 6800TIP3   OH220335   7.969   3.541   3.463  0.5416  0.6696 -0.0946
 6800TIP3    H120336   8.027   3.582   3.400  1.1381 -1.4603 -0.9896
 6800TIP3    H220337   8.024   3.476   3.508 -0.2127  1.2067  1.6718
 6801TIP3   OH220338   0.389   4.373   2.023  0.2487  0.4203  0.3911
 6801TIP3    H120339   0.432   4.451   1.990  1.0147 -0.1306  0.0883
 6801TIP3    H220340   0.455   4.330   2.078  0.6796 -1.3139 -1.4428
 6802TIP3   OH220341   7.888   2.655   2.732 -0.3275  0.3992 -0.1376
 6802TIP3    H120342   7.924   2.671   2.644 -2.8504 -0.2325 -1.3387
 6802TIP3    H220343   7.880   2.743   2.770  2.2476  0.5709  0.1008
 6803TIP3   OH220344   6.784   2.232   3.856 -0.7373 -0.3599  0.6799
 6803TIP3    H120345   6.796   2.225   3.951 -2.6663  2.6614  1.2195
 6803TIP3    H220346   6.872   2.245   3.822 -0.1738 -0.0781  2.2039
 6804TIP3   OH220347   6.526   4.235   6.406  0.3267 -0.1265 -0.0820
 6804TIP3    H120348   6.547   4.192   6.489  0.6125 -0.1056 -0.1422
 6804TIP3    H220349   6.443   4.197   6.379  0.9137 -1.1393 -0.4838
 6805TIP3   OH220350   7.329   3.543   4.800  0.2495 -0.2169 -0.0337
 6805TIP3    H120351   7.326   3.545   4.704 -2.4049  1.6034  0.0263
 6805TIP3    H220352   7.401   3.603   4.822 -0.5271  1.0467 -0.8645
 6806TIP3   OH220353   8.460   7.832   0.207 -0.0303  0.1652 -0.3727
 6806TIP3    H120354   8.454   7.844   0.302 -1.4528  2.7124 -0.7273
 6806TIP3    H220355   8.553   7.845   0.187  0.0417  1.1745  0.5151
 6807TIP3   OH220356   8.180   1.258   4.946  0.1634  0.3180 -0.4234
 6807TIP3    H120357   8.119   1.185   4.934 -2.3127  2.2493 -0.0253
 6807TIP3    H220358   8.236   1.231   5.018  0.3115 -1.8400 -1.3142
 6808TIP3   OH220359   5.400   3.547   5.745  0.0584 -0.1837 -0.2120
 6808TIP3    H120360   5.456   3.603   5.691  0.4217 -0.9658 -0.6478
 6808TIP3    H220361   5.461   3.504   5.806 -0.2993  0.4035  0.5805
 6809TIP3   OH220362   7.068   1.431   4.825 -0.0738  0.1370  0.0897
 6809TIP3    H120363   7.112   1.346   4.824 -1.8652 -0.8251  0.2210
 6809TIP3    H220364   7.060   1.454   4.917 -0.5248 -0.0778  0.1100
 6810TIP3   OH220365   6.860   2.428   2.457  0.0777  0.2056 -0.6018
 6810TIP3    H120366   6.840   2.337   2.478  2.0310 -0.1022  0.0447
 6810TIP3    H220367   6.869   2.430   2.362 -0.6535 -0.1108 -0.6853
 6811TIP3   OH220368   4.938   1.723   4.649  0.2127 -0.1947 -0.4262
 6811TIP3    H120369   4.876   1.720   4.721  1.5443  0.4047  0.7802
 6811TIP3    H220370   4.982   1.637   4.651  1.6537  0.5505  0.7742
 6812TIP3   OH220371   6.638   1.257   3.215 -0.0513  0.1042  0.1791
 6812TIP3    H120372   6.696   1.182   3.198  1.5277  1.1621  0.7695
 6812TIP3    H220373   6.574   1.254   3.144  1.6375 -0.2037 -1.3715
 6813TIP3   OH220374   7.508   1.491   6.539  0.6433 -0.1134  0.1303
 6813TIP3    H120375   7.541   1.548   6.609  2.3811  0.5560 -1.1988
 6813TIP3    H220376   7.422   1.463   6.570  0.7449  1.3681  1.8635
 6814TIP3   OH220377   6.700   4.638   2.804  0.2563  0.0321 -0.2163
 6814TIP3    H120378   6.796   4.634   2.812  0.1478 -1.0337  0.6155
 6814TIP3    H220379   6.670   4.660   2.892 -0.2083  1.6165 -0.7513
 6815TIP3   OH220380   6.123   2.952   3.677  0.4013  0.1043 -0.1584
 6815TIP3    H120381   6.057   3.021   3.686 -2.1487 -2.2862  0.2515
 6815TIP3    H220382   6.199   2.996   3.639 -1.5241  2.9082 -0.9165
 6816TIP3   OH220383   0.110   2.921   5.113  0.0349  0.3123  0.3612
 6816TIP3    H120384   0.116   2.832   5.080  1.4976  0.3774  0.4203
 6816TIP3    H220385   0.129   2.914   5.207  0.2634  0.6987  0.3475
 6817TIP3   OH220386   4.722   4.151   4.711 -0.2382 -0.4712  0.1521
 6817TIP3    H120387   4.794   4.103   4.671  0.0629 -1.5604  1.9147
 6817TIP3    H220388   4.735   4.139   4.805 -1.2397  1.5138  0.5723
 6818TIP3   OH220389   8.346   2.393   3.185  0.3024 -0.1490  0.0440
 6818TIP3    H120390   8.347   2.451   3.108  0.5638 -1.6029 -1.0725
 6818TIP3    H220391   8.353   2.305   3.148  1.5142 -0.8074  1.8189
 6819TIP3   OH220392   5.135   3.973   5.444 -0.0042  0.6244  0.4010
 6819TIP3    H120393   5.147   3.880   5.465  1.3064  0.9972  1.3129
 6819TIP3    H220394   5.182   3.985   5.361 -0.0673  0.5103  0.3483
 6820TIP3   OH220395   1.443   6.303   0.366 -0.1124 -0.2714  0.0913
 6820TIP3    H120396   1.429   6.353   0.447 -0.3884  1.1586 -0.8142
 6820TIP3    H220397   1.412   6.361   0.297  1.6705 -0.8085 -1.1876
 6821TIP3   OH220398   7.691   2.983   3.376  0.3469 -0.3643 -0.2620
 6821TIP3    H120399   7.613   2.973   3.321  0.2299 -0.2595 -0.1168
 6821TIP3    H220400   7.735   3.060   3.341  1.1547 -1.2718 -1.2665
 6822TIP3   OH220401   6.535   2.220   5.113 -0.1017 -0.0010  0.0115
 6822TIP3    H120402   6.516   2.212   5.206  1.8908  0.9304  0.5333
 6822TIP3    H220403   6.516   2.134   5.077 -1.6450 -0.1507  1.1156
 6823TIP3   OH220404   7.063   2.943   4.418  0.6019 -0.2299  0.6538
 6823TIP3    H120405   7.027   3.029   4.394  1.7795 -0.0892 -0.7036
 6823TIP3    H220406   7.040   2.887   4.343  0.4516 -0.9277  1.2196
 6824TIP3   OH220407   5.510   4.137   6.415 -0.0012 -0.3052  0.2392
 6824TIP3    H120408   5.569   4.192   6.467  0.0145 -0.4265  0.3498
 6824TIP3    H220409   5.568   4.081   6.364 -0.0036  0.7020 -0.8764
 6825TIP3   OH220410   6.519   3.539   3.126 -0.1183  0.1959 -0.0269
 6825TIP3    H120411   6.490   3.592   3.051  0.4868  0.7676  0.1472
 6825TIP3    H220412   6.478   3.453   3.111 -2.0158  1.0268  0.2763
 6826TIP3   OH220413   6.608   3.224   6.435  0.2417 -0.2743  0.2076
 6826TIP3    H120414   6.576   3.202   6.523  0.1026 -0.6284  0.0726
 6826TIP3    H220415   6.703   3.223   6.443  0.2521 -1.3246  0.1217
 6827TIP3   OH220416   6.987   2.583   3.670 -0.4303  0.2980  0.5674
 6827TIP3    H120417   7.007   2.567   3.577 -0.6302 -0.5358  0.6653
 6827TIP3    H220418   7.057   2.642   3.699 -0.7375  1.1062 -0.2833
 6828TIP3   OH220419   6.285   2.718   3.662 -0.2475  0.2406  0.1636
 6828TIP3    H120420   6.363   2.757   3.703  0.2767  0.2817 -0.8513
 6828TIP3    H220421   6.214   2.780   3.682  0.5428  1.6461 -1.2673
 6829TIP3   OH220422   6.355   0.991   4.093 -0.1048  0.3744 -0.3902
 6829TIP3    H120423   6.400   1.008   4.176  0.1473  1.4868 -0.7575
 6829TIP3    H220424   6.307   1.071   4.075  1.1493  0.7352 -2.1712
 6830TIP3   OH220425   6.267   1.996   6.738 -0.4184  0.4910  0.6254
 6830TIP3    H120426   6.214   1.919   6.718  1.0600 -1.0408  2.4187
 6830TIP3    H220427   6.255   2.010   6.832  0.8884  1.2424  0.6937
 6831TIP3   OH220428   7.430   2.501   5.744 -0.3537 -0.3704 -0.3143
 6831TIP3    H120429   7.510   2.551   5.759 -0.7540 -0.0266  0.7483
 6831TIP3    H220430   7.448   2.447   5.667  0.8164 -0.1333 -0.2026
 6832TIP3   OH220431   8.011   2.268   2.584  0.1647 -0.2927  0.2249
 6832TIP3    H120432   7.965   2.206   2.641 -1.0988  1.3640  1.0615
 6832TIP3    H220433   7.942   2.324   2.549  1.1048 -0.4053 -1.8522
 6833TIP3   OH220434   5.986   3.658   4.219  0.2243  0.0494  0.1169
 6833TIP3    H120435   5.950   3.573   4.244 -1.2835  0.7629  0.4291
 6833TIP3    H220436   5.909   3.712   4.200  1.0784  1.9887  2.0217
 6834TIP3   OH220437   6.654   2.743   6.153  0.2239  0.4863 -0.0812
 6834TIP3    H120438   6.707   2.666   6.133 -1.8073 -1.0016  0.0304
 6834TIP3    H220439   6.569   2.725   6.112 -0.7626  1.9900  1.2165
 6835TIP3   OH220440   8.419   1.906   3.759 -0.0784  0.7207  0.8513
 6835TIP3    H120441   8.442   1.925   3.849 -1.3737 -0.9033  1.5524
 6835TIP3    H220442   8.335   1.861   3.765 -0.4407  1.0753 -1.2003
 6836TIP3   OH220443   4.743   1.501   4.882 -0.3193  0.0155 -0.5720
 6836TIP3    H120444   4.742   1.425   4.825 -2.1210 -0.0995 -0.4232
 6836TIP3    H220445   4.715   1.573   4.826 -0.6040  0.1828 -0.2167
 6837TIP3   OH220446   6.316   3.402   2.931  0.3925 -0.1306 -0.7440
 6837TIP3    H120447   6.233   3.418   2.976  0.6653 -0.1662 -0.2303
 6837TIP3    H220448   6.309   3.452   2.849 -1.0917 -2.0402 -1.8217
 6838TIP3   OH220449   7.307   0.751   4.085  0.0458 -0.2705  0.7622
 6838TIP3    H120450   7.290   0.727   3.994  1.6235 -0.2127  0.4467
 6838TIP3    H220451   7.221   0.745   4.127 -0.4698 -1.5925 -0.4246
 6839TIP3   OH220452   6.177   4.487   5.681  0.2297 -0.3481 -0.6279
 6839TIP3    H120453   6.139   4.574   5.690 -1.0192 -0.4089 -4.3883
 6839TIP3    H220454   6.271   4.501   5.689  0.0472  1.3578 -1.1953
 6840TIP3   OH220455   5.588   1.704   5.369  0.0522  0.2789 -0.1301
 6840TIP3    H120456   5.503   1.712   5.413 -0.7991  2.1954 -2.0396
 6840TIP3    H220457   5.606   1.791   5.334  1.8188 -0.6085 -1.5353
 6841TIP3   OH220458   7.329   2.116   5.568  0.6494 -0.6376 -0.3831
 6841TIP3    H120459   7.413   2.142   5.604 -0.4294  1.2757  0.8052
 6841TIP3    H220460   7.316   2.174   5.493  0.0889 -0.4748 -0.1642
 6842TIP3   OH220461   3.914   2.502   5.352  0.1987 -0.1086  0.1617
 6842TIP3    H120462   3.933   2.502   5.258 -0.1871  0.3891  0.0824
 6842TIP3    H220463   3.989   2.546   5.391  0.4802 -0.5389  0.1164
 6843TIP3   OH220464   6.581   2.490   5.168  0.1968  0.1945  0.0641
 6843TIP3    H120465   6.536   2.517   5.088 -1.1456  0.6229  0.9460
 6843TIP3    H220466   6.581   2.394   5.165 -1.7613  0.1688  0.5839
 6844TIP3   OH220467   6.312   1.744   6.465 -0.7532  0.2295 -0.2604
 6844TIP3    H120468   6.397   1.784   6.445  0.5769 -1.8928  0.9098
 6844TIP3    H220469   6.257   1.817   6.493  0.9195  1.5263 -0.2767
 6845TIP3   OH220470   5.807   1.617   3.027  0.5135 -0.0695  0.0902
 6845TIP3    H120471   5.716   1.624   2.997  0.6186  0.0366 -0.2103
 6845TIP3    H220472   5.805   1.550   3.095  0.3631 -0.6867 -0.5130
 6846TIP3   OH220473   5.064   2.298   3.787 -0.0138  0.1225  0.1756
 6846TIP3    H120474   4.971   2.318   3.773 -0.0387 -0.2366 -0.1677
 6846TIP3    H220475   5.079   2.321   3.879 -0.9037 -1.5328  0.7763
 6847TIP3   OH220476   6.626   1.259   5.972 -0.0654 -0.5165 -0.9653
 6847TIP3    H120477   6.592   1.172   5.949 -0.2848  0.0966 -3.0619
 6847TIP3    H220478   6.721   1.245   5.980 -0.0482 -0.8849 -1.6981
 6848TIP3   OH220479   8.011   1.949   4.459  0.1579 -0.3362  0.6067
 6848TIP3    H120480   8.087   1.950   4.400  0.1535 -0.7369  0.5876
 6848TIP3    H220481   7.946   2.004   4.415  0.9800  1.2764  1.3740
 6849TIP3   OH220482   7.468   0.594   0.394  0.2926 -0.4818  0.4383
 6849TIP3    H120483   7.410   0.563   0.463 -0.9464 -0.0792 -0.4000
 6849TIP3    H220484   7.439   0.546   0.316 -0.3194  1.2757 -0.4356
 6850TIP3   OH220485   5.708   4.102   3.843 -0.1054 -0.0557  0.3101
 6850TIP3    H120486   5.766   4.125   3.916  0.6255 -1.2641  0.1180
 6850TIP3    H220487   5.694   4.008   3.852 -0.7314 -0.0524 -0.5974
 6851TIP3   OH220488   0.662   4.277   0.923  0.1461  0.6766 -0.4024
 6851TIP3    H120489   0.671   4.200   0.980  2.6344  2.3692  1.5909
 6851TIP3    H220490   0.698   4.249   0.839 -0.7867 -0.9080 -0.3024
 6852TIP3   OH220491   7.588   1.104   6.678  0.1389  0.5018  0.5660
 6852TIP3    H120492   7.620   1.190   6.707  0.1255  0.8214 -0.3588
 6852TIP3    H220493   7.569   1.116   6.585  1.7680 -0.9707  0.0138
 6853TIP3   OH220494   5.947   3.033   3.480 -0.0271  0.0875 -0.3408
 6853TIP3    H120495   5.982   2.947   3.504  0.1722  0.3459  0.2956
 6853TIP3    H220496   5.853   3.026   3.497  0.2162  0.5143  1.2741
 6854TIP3   OH220497   5.749   3.717   3.617  0.6019  0.3990 -0.7047
 6854TIP3    H120498   5.773   3.704   3.525  0.4921  0.9741 -0.8146
 6854TIP3    H220499   5.671   3.773   3.613 -0.0879 -0.5168 -0.3093
 6855TIP3   OH220500   6.964   2.657   4.340 -0.3594 -0.2781  0.0962
 6855TIP3    H120501   6.891   2.596   4.330 -0.2119 -0.1645 -1.8093
 6855TIP3    H220502   6.949   2.723   4.272  2.0674 -0.8289 -1.0324
 6856TIP3   OH220503   6.468   0.953   3.776  0.3322 -0.0431  0.0304
 6856TIP3    H120504   6.436   1.012   3.708 -0.4587  0.4471  0.8303
 6856TIP3    H220505   6.467   1.005   3.856  0.8902 -0.7388  0.4965
 6857TIP3   OH220506   6.927   3.902   4.970 -0.4154 -0.0031  0.3092
 6857TIP3    H120507   6.852   3.917   4.912  0.7850 -0.0552 -1.2890
 6857TIP3    H220508   6.996   3.870   4.912  0.8359  0.0019  1.7659
 6858TIP3   OH220509   6.776   3.896   1.133 -0.4138 -0.0981  0.1412
 6858TIP3    H120510   6.775   3.830   1.202  0.2005 -0.7352 -0.4435
 6858TIP3    H220511   6.683   3.916   1.117 -0.6146 -0.9849  0.1794
 6859TIP3   OH220512   7.040   3.948   5.929  0.0865 -0.2706 -0.0386
 6859TIP3    H120513   7.003   3.935   6.016 -1.0665 -0.2689 -0.5177
 6859TIP3    H220514   6.970   3.921   5.869  0.3591  1.0432 -0.9681
 6860TIP3   OH220515   5.727   2.747   4.442 -0.2239 -0.0857 -0.0591
 6860TIP3    H120516   5.718   2.840   4.422 -0.5141 -0.6931 -2.8865
 6860TIP3    H220517   5.821   2.730   4.439 -0.1047  0.2628  1.2835
 6861TIP3   OH220518   3.987   1.747   4.228 -0.1274  0.2177  0.0763
 6861TIP3    H120519   4.021   1.723   4.142 -1.5119  0.2610 -0.4954
 6861TIP3    H220520   3.973   1.664   4.273 -0.2308  0.1581 -0.0650
 6862TIP3   OH220521   0.268   1.841   6.000 -0.1817 -0.0092 -0.2227
 6862TIP3    H120522   0.349   1.889   5.980  1.0742 -1.3335  1.5284
 6862TIP3    H220523   0.295   1.749   6.003 -2.1534 -0.6559 -1.5205
 6863TIP3   OH220524   5.443   3.993   4.069 -0.2677 -0.3932 -0.0911
 6863TIP3    H120525   5.479   3.958   3.988  0.4704 -0.5100  0.2836
 6863TIP3    H220526   5.519   4.011   4.124 -0.5785  2.6426 -0.5991
 6864TIP3   OH220527   6.846   2.728   1.200  0.0649 -0.1735  0.2038
 6864TIP3    H120528   6.900   2.804   1.218 -1.1852  0.5686  0.8979
 6864TIP3    H220529   6.796   2.751   1.122 -0.8912  0.0361  0.8697
 6865TIP3   OH220530   0.339   4.567   4.798  0.1902 -0.1306 -0.6849
 6865TIP3    H120531   0.367   4.475   4.795 -0.7942 -0.4729  0.3222
 6865TIP3    H220532   0.271   4.569   4.865  0.1345  1.3242 -0.7739
 6866TIP3   OH220533   7.112   3.359   3.624 -0.1292  0.2681 -0.2146
 6866TIP3    H120534   7.151   3.392   3.706  0.0541 -1.1187  0.2642
 6866TIP3    H220535   7.126   3.265   3.627 -0.0877  0.2060 -1.8774
 6867TIP3   OH220536   6.037   4.042   5.549  0.1535  0.1511  0.4541
 6867TIP3    H120537   6.090   4.122   5.551  1.4090 -0.6984  2.8315
 6867TIP3    H220538   5.992   4.042   5.634  1.6790 -2.6533  1.2981
 6868TIP3   OH220539   8.369   1.695   3.544 -0.5169  0.2488  0.5128
 6868TIP3    H120540   8.358   1.728   3.633  1.0736 -0.6306  1.0600
 6868TIP3    H220541   8.280   1.690   3.509 -1.0911  1.3787  1.7609
 6869TIP3   OH220542   4.729   2.149   1.889  0.0573  0.1682 -0.0451
 6869TIP3    H120543   4.643   2.146   1.846 -0.0841 -0.1313  0.2576
 6869TIP3    H220544   4.788   2.180   1.821 -0.9514  4.2021  0.7867
 6870TIP3   OH220545   6.038   4.396   4.721 -0.0988 -0.0638 -0.1087
 6870TIP3    H120546   6.041   4.486   4.689  0.9367 -0.5200 -1.3685
 6870TIP3    H220547   6.109   4.352   4.674 -0.3224 -1.4353  0.8080
 6871TIP3   OH220548   8.378   3.749   2.728 -0.3236  0.1305 -0.5105
 6871TIP3    H120549   8.298   3.711   2.691 -0.8647  0.5731  0.1844
 6871TIP3    H220550   8.428   3.674   2.761 -1.5216  0.0253  1.1319
 6872TIP3   OH220551   5.280   1.798   4.711  0.0284  0.3705  0.4301
 6872TIP3    H120552   5.238   1.851   4.643 -0.0244  0.2620  0.3775
 6872TIP3    H220553   5.314   1.722   4.665 -1.2750 -0.4259  0.7284
 6873TIP3   OH220554   5.842   2.786   4.824 -0.4312 -0.3996 -0.0020
 6873TIP3    H120555   5.905   2.838   4.774 -0.4690  0.1570  0.5220
 6873TIP3    H220556   5.889   2.705   4.845  0.3884  0.3379  1.0673
 6874TIP3   OH220557   7.889   2.419   2.876  0.6411 -0.4086  1.0910
 6874TIP3    H120558   7.921   2.495   2.827  1.4036 -0.9955  0.6720
 6874TIP3    H220559   7.793   2.429   2.875  0.7401  0.6139  1.1509
 6875TIP3   OH220560   6.611   5.267   6.186  0.0651 -0.1732  0.1322
 6875TIP3    H120561   6.608   5.226   6.099  1.1046 -0.9051  0.4328
 6875TIP3    H220562   6.682   5.330   6.179 -1.2645  1.3267 -0.2037
 6876TIP3   OH220563   7.234   4.641   1.751 -0.2845  0.6155 -0.2198
 6876TIP3    H120564   7.203   4.561   1.794 -1.8413  0.7481 -1.0369
 6876TIP3    H220565   7.166   4.706   1.771  0.6387  1.5509 -0.1136
 6877TIP3   OH220566   6.971   2.440   5.139  0.6078  0.2103 -0.4750
 6877TIP3    H120567   6.906   2.379   5.104  0.0434  1.6776 -2.0718
 6877TIP3    H220568   7.055   2.407   5.107  0.3904 -0.1999 -0.6280
 6878TIP3   OH220569   7.323   3.493   4.467 -0.1385  0.1382  0.9149
 6878TIP3    H120570   7.375   3.535   4.398  0.2037  1.8035  2.1491
 6878TIP3    H220571   7.232   3.515   4.446  0.1348  3.1845  2.5579
 6879TIP3   OH220572   4.944   1.623   3.692 -0.4846 -0.5616 -0.0924
 6879TIP3    H120573   4.860   1.670   3.693  0.8274  1.8387  0.3348
 6879TIP3    H220574   4.957   1.596   3.783 -0.2219  0.1145  0.0716
 6880TIP3   OH220575   6.427   2.232   3.410  0.0825 -0.3080  0.1190
 6880TIP3    H120576   6.405   2.323   3.392 -1.0770 -1.1418 -2.9926
 6880TIP3    H220577   6.365   2.204   3.477 -0.6086  0.7395 -0.0861
 6881TIP3   OH220578   7.423   2.373   4.119  0.2278  0.6449  0.5130
 6881TIP3    H120579   7.427   2.279   4.136  0.5779  0.0922 -2.3642
 6881TIP3    H220580   7.504   2.407   4.155  0.1015 -0.1263  1.5754
 6882TIP3   OH220581   7.681   1.712   4.927 -0.3937  0.5901  0.1971
 6882TIP3    H120582   7.689   1.621   4.897 -1.2678  0.8848 -0.9943
 6882TIP3    H220583   7.767   1.750   4.910 -0.6504  0.5418 -1.3017
 6883TIP3   OH220584   8.213   2.008   5.982  0.1418 -0.3508  0.1097
 6883TIP3    H120585   8.210   1.913   5.986  0.8958 -0.5297 -2.6003
 6883TIP3    H220586   8.279   2.033   6.046  2.1123 -1.8657 -1.2675
 6884TIP3   OH220587   7.141   0.033   3.017  0.0975 -0.3433 -0.0967
 6884TIP3    H120588   7.122   0.116   2.974  1.7460 -0.0594 -0.3183
 6884TIP3    H220589   7.188  -0.018   2.951 -0.9030 -1.4533  0.0438
 6885TIP3   OH220590   4.760   3.075   6.297 -0.2803  0.1676 -0.0448
 6885TIP3    H120591   4.699   3.021   6.347  2.5474 -1.5195  1.7531
 6885TIP3    H220592   4.840   3.023   6.292  1.2182  2.5118 -1.8281
 6886TIP3   OH220593   7.935   2.929   2.833 -0.2426  0.0812  0.4274
 6886TIP3    H120594   7.973   3.010   2.865  0.5426 -0.6323  1.3189
 6886TIP3    H220595   7.930   2.940   2.738  1.9868  0.2656  0.3193
 6887TIP3   OH220596   6.426   3.070   4.890  0.7566 -0.0130 -0.2603
 6887TIP3    H120597   6.350   3.091   4.944  1.7457 -0.8239  1.4877
 6887TIP3    H220598   6.474   3.153   4.883  1.4080 -0.2310  1.4000
 6888TIP3   OH220599   5.960   0.660   1.496  0.3711  0.1005  0.1854
 6888TIP3    H120600   5.976   0.574   1.535  0.7994  0.7578  1.4946
 6888TIP3    H220601   6.017   0.719   1.544 -1.8862  1.5614  1.1485
 6889TIP3   OH220602   7.524   2.453   5.160 -0.0126  0.3604 -0.1369
 6889TIP3    H120603   7.524   2.507   5.240 -1.2082 -0.0778  0.1781
 6889TIP3    H220604   7.595   2.390   5.174  0.3829  0.8681  0.1772
 6890TIP3   OH220605   6.584   0.489   4.762 -0.5346 -0.2325  0.1259
 6890TIP3    H120606   6.503   0.494   4.711 -0.5664 -3.8284 -0.3234
 6890TIP3    H220607   6.555   0.473   4.852 -0.3462 -0.2980  0.1750
 6891TIP3   OH220608   1.153   1.785   5.292  0.2615 -0.4144  0.2370
 6891TIP3    H120609   1.203   1.704   5.298 -1.1993 -1.2131  1.7752
 6891TIP3    H220610   1.077   1.763   5.238  0.5521  0.3070 -0.4916
 6892TIP3   OH220611   7.759   3.016   5.270  0.2419  0.3426 -0.0125
 6892TIP3    H120612   7.669   3.049   5.266  0.4107  0.6934 -1.5699
 6892TIP3    H220613   7.752   2.925   5.243  0.0772 -0.2844  2.0647
 6893TIP3   OH220614   5.589   2.021   4.539  0.2715 -0.3856  0.0021
 6893TIP3    H120615   5.588   1.940   4.591 -2.4305 -0.1629  0.3588
 6893TIP3    H220616   5.569   2.090   4.603  0.0328  0.2684 -0.7774
 6894TIP3   OH220617   4.707   2.779   5.401 -0.4746 -0.0407  0.3845
 6894TIP3    H120618   4.801   2.799   5.408 -0.2291 -1.0384  0.0617
 6894TIP3    H220619   4.676   2.836   5.330  0.2229 -0.7997 -0.5536
 6895TIP3   OH220620   4.954   5.760   4.994 -0.4339 -0.3812  0.5724
 6895TIP3    H120621   4.971   5.847   4.958  2.8235 -0.7600  1.0140
 6895TIP3    H220622   4.899   5.776   5.071 -2.1844  0.9968 -0.9276
 6896TIP3   OH220623   6.243   1.407   4.659  0.0506  0.4504  0.1651
 6896TIP3    H120624   6.219   1.386   4.569 -2.2491  0.8409  0.6665
 6896TIP3    H220625   6.252   1.322   4.703  0.6484  0.2796 -0.2798
 6897TIP3   OH220626   5.170   5.327   6.503 -0.2792 -0.2453  0.4429
 6897TIP3    H120627   5.103   5.265   6.475 -0.6875  0.7508 -0.8337
 6897TIP3    H220628   5.204   5.364   6.421  1.1637 -0.0487  1.1184
 6898TIP3   OH220629   5.723   1.858   4.977  0.3008 -0.5898  0.5295
 6898TIP3    H120630   5.638   1.876   4.938  1.1034  1.9492 -0.1236
 6898TIP3    H220631   5.761   1.789   4.922  0.0961  0.7172 -1.2891
 6899TIP3   OH220632   4.904   4.483   0.463 -0.2564 -0.3505 -0.1878
 6899TIP3    H120633   4.992   4.520   0.462 -0.3537 -0.0967  0.3509
 6899TIP3    H220634   4.883   4.475   0.556  0.0336 -2.4324 -0.2803
 6900TIP3   OH220635   6.207   4.166   6.051 -0.3815 -0.4259  0.5514
 6900TIP3    H120636   6.160   4.083   6.055 -0.5712 -0.3984 -0.8728
 6900TIP3    H220637   6.143   4.230   6.020  1.0723 -0.8473 -3.7033
 6901TIP3   OH220638   5.931   5.327   0.887  0.0674  0.2018  0.8144
 6901TIP3    H120639   5.951   5.367   0.971  1.1151 -0.8129  1.0623
 6901TIP3    H220640   6.012   5.338   0.836 -0.3719  0.3111  0.1374
 6902TIP3   OH220641   2.164   3.348   4.970 -0.0199  0.1946  0.3597
 6902TIP3    H120642   2.191   3.382   5.055 -0.1527  1.6607 -0.1691
 6902TIP3    H220643   2.068   3.345   4.975 -0.0155  0.0235  0.3517
 6903TIP3   OH220644   3.735   1.938   4.812 -0.6684  0.3996 -0.7139
 6903TIP3    H120645   3.702   2.004   4.874 -2.4389 -2.0034  1.0053
 6903TIP3    H220646   3.657   1.907   4.767 -0.1413 -1.7595 -0.2207
 6904TIP3   OH220647   6.249   3.959   6.714 -0.7788  0.2006  0.4477
 6904TIP3    H120648   6.191   3.910   6.656  0.3226 -0.1208 -0.4150
 6904TIP3    H220649   6.337   3.929   6.689 -0.2326  0.9528  1.4686
 6905TIP3   OH220650   5.971   3.305   6.330  0.0427 -0.4207  0.0803
 6905TIP3    H120651   6.038   3.359   6.286 -0.9019  1.0930  0.4578
 6905TIP3    H220652   5.900   3.299   6.266  0.4472 -1.8727 -0.2486
 6906TIP3   OH220653   6.705   1.939   4.328  0.0847 -0.0702 -0.0740
 6906TIP3    H120654   6.738   2.027   4.343 -1.1928  0.2973  0.7102
 6906TIP3    H220655   6.689   1.904   4.416 -1.6418 -0.2097 -0.4259
 6907TIP3   OH220656   4.336   3.939   6.609 -0.5273  1.1565 -0.2410
 6907TIP3    H120657   4.293   3.932   6.694 -0.5267  0.0704 -0.3328
 6907TIP3    H220658   4.265   3.952   6.546 -0.7154 -0.3422 -0.3559
 6908TIP3   OH220659   6.358   3.042   3.504 -0.2297  0.5597  0.1132
 6908TIP3    H120660   6.433   2.984   3.502 -0.3568  0.3128  1.8945
 6908TIP3    H220661   6.359   3.086   3.419  0.4789 -1.2566 -0.8355
 6909TIP3   OH220662   5.764   2.228   3.718  0.6706 -0.0652  0.5172
 6909TIP3    H120663   5.836   2.268   3.766 -0.2871  1.4026  0.7597
 6909TIP3    H220664   5.729   2.299   3.664 -1.7298 -0.2955  1.7209
 6910TIP3   OH220665   5.903   4.962   4.415 -0.1614 -0.1793  0.4270
 6910TIP3    H120666   5.834   4.895   4.414  0.6029 -0.9717 -2.4594
 6910TIP3    H220667   5.984   4.912   4.425  0.3574  0.3313 -1.0789
 6911TIP3   OH220668   6.603   1.027   5.544 -0.4712  0.5952 -0.1506
 6911TIP3    H120669   6.561   0.942   5.529  0.5353  0.3924 -1.9838
 6911TIP3    H220670   6.634   1.022   5.635  2.2111 -2.2213 -1.1287
 6912TIP3   OH220671   7.247   2.706   3.738 -0.1262 -0.0947 -0.3653
 6912TIP3    H120672   7.306   2.781   3.737 -0.1926 -0.0327  0.1157
 6912TIP3    H220673   7.303   2.631   3.719  0.0659 -0.0075 -0.1474
 6913TIP3   OH220674   5.297   1.394   6.516 -0.3998  0.8562  0.3836
 6913TIP3    H120675   5.319   1.325   6.454 -1.2219  0.2036  0.8070
 6913TIP3    H220676   5.211   1.368   6.551  0.4034  0.8194  2.3751
 6914TIP3   OH220677   5.788   2.429   4.499  0.5404 -0.7459 -0.5069
 6914TIP3    H120678   5.707   2.411   4.547  0.3417 -0.6262 -0.7961
 6914TIP3    H220679   5.837   2.488   4.557  0.3539 -0.6970 -0.3993
 6915TIP3   OH220680   5.928   1.481   3.832  0.1840  0.8227 -0.5641
 6915TIP3    H120681   5.997   1.461   3.768  0.8468  0.9119  0.1163
 6915TIP3    H220682   5.879   1.400   3.841  0.2118  0.7517 -1.0367
 6916TIP3   OH220683   3.936   3.531   4.824  0.7142 -0.0478  0.5914
 6916TIP3    H120684   3.991   3.605   4.798 -2.1069  1.8103 -0.2044
 6916TIP3    H220685   3.998   3.467   4.860  3.2351  2.5727  1.0559
 6917TIP3   OH220686   0.735   4.131   5.546  0.1245  0.1600 -0.0130
 6917TIP3    H120687   0.800   4.119   5.477  1.6650 -0.1366  1.4416
 6917TIP3    H220688   0.720   4.225   5.550  0.7646  0.2639 -0.0869
 6918TIP3   OH220689   4.874   2.715   4.481 -0.1695  0.2105 -0.5714
 6918TIP3    H120690   4.854   2.691   4.390  0.2997 -0.5851 -0.4711
 6918TIP3    H220691   4.954   2.667   4.501 -0.1418  0.5710  0.1871
 6919TIP3   OH220692   6.757   2.920   5.667  0.3828 -0.2685  0.3471
 6919TIP3    H120693   6.773   2.934   5.573  0.9059  1.1704  0.6335
 6919TIP3    H220694   6.830   2.966   5.710 -0.4816  0.0451  1.4850
 6920TIP3   OH220695   7.898   1.331   3.895  0.0029  0.7058 -0.6636
 6920TIP3    H120696   7.861   1.413   3.861  0.4972  0.8895 -0.7596
 6920TIP3    H220697   7.822   1.274   3.908 -0.4786  1.6396  0.6887
 6921TIP3   OH220698   5.907   2.493   5.578  0.5466  0.1479 -0.1474
 6921TIP3    H120699   5.870   2.578   5.555 -0.7567 -0.1252  0.8919
 6921TIP3    H220700   5.971   2.512   5.647  0.1895  0.2684  0.1464
 6922TIP3   OH220701   6.429   3.294   5.682  0.3511  0.0243  0.2601
 6922TIP3    H120702   6.350   3.281   5.734 -0.4553  0.9963 -0.6992
 6922TIP3    H220703   6.500   3.264   5.739 -0.4996  1.0740  1.9351
 6923TIP3   OH220704   6.710   1.626   6.120  0.6669  0.3281  1.2623
 6923TIP3    H120705   6.689   1.706   6.072  0.2482 -1.5232 -1.7242
 6923TIP3    H220706   6.802   1.636   6.145  0.3096  2.2045  1.9583
 6924TIP3   OH220707   6.835   3.382   4.520  0.3272 -0.0183  0.5659
 6924TIP3    H120708   6.762   3.441   4.501 -0.3783 -1.5845 -1.8780
 6924TIP3    H220709   6.821   3.356   4.611 -3.0065 -1.3664 -0.2422
 6925TIP3   OH220710   6.923   0.485   6.265  1.1285 -0.1596  0.3341
 6925TIP3    H120711   6.981   0.559   6.284  1.1586  0.5075 -2.1043
 6925TIP3    H220712   6.974   0.408   6.286  2.4838  0.4544 -0.6287
 6926TIP3   OH220713   5.643   4.232   3.623 -0.7406 -0.2085 -0.6708
 6926TIP3    H120714   5.670   4.193   3.706 -1.3130  0.7071 -0.0475
 6926TIP3    H220715   5.609   4.159   3.572 -0.9956 -0.6710  0.1513
 6927TIP3   OH220716   5.711   1.615   2.137  0.0020  0.7536  0.2722
 6927TIP3    H120717   5.776   1.638   2.071 -1.1936 -1.4535 -1.7476
 6927TIP3    H220718   5.670   1.698   2.161  0.8710  1.6587 -1.3097
 6928TIP3   OH220719   2.837   1.135   2.603  0.4272 -0.2182  0.2896
 6928TIP3    H120720   2.789   1.052   2.608  1.6391 -1.0528 -1.3491
 6928TIP3    H220721   2.926   1.112   2.632  1.0832  0.2409 -1.3375
 6929TIP3   OH220722   6.918   2.594   5.843  0.0211  0.1125  0.2640
 6929TIP3    H120723   7.010   2.597   5.816 -0.3697 -1.5499 -1.2819
 6929TIP3    H220724   6.916   2.647   5.923  1.5627  3.5308 -1.8292
 6930TIP3   OH220725   6.874   3.390   3.946  0.7823  0.0173  0.0018
 6930TIP3    H120726   6.781   3.387   3.967  0.3849 -0.5675 -1.7827
 6930TIP3    H220727   6.918   3.375   4.030 -0.7439 -1.6134  0.5337
 6931TIP3   OH220728   7.403   2.845   4.624 -0.2388 -0.5974  0.4015
 6931TIP3    H120729   7.310   2.826   4.612 -0.4401  1.2111 -0.9968
 6931TIP3    H220730   7.448   2.764   4.597 -1.3087 -0.8440 -0.6593
 6932TIP3   OH220731   0.577   4.836   5.833  0.1379 -0.2593 -0.4306
 6932TIP3    H120732   0.656   4.797   5.795 -0.1893 -3.0068  1.5383
 6932TIP3    H220733   0.606   4.873   5.917 -0.2895  0.4930 -0.6117
 6933TIP3   OH220734   7.684   3.809   2.109 -0.0801  0.2156 -0.1912
 6933TIP3    H120735   7.765   3.841   2.070 -0.3783  2.5422  0.9937
 6933TIP3    H220736   7.635   3.771   2.036  1.4500  0.0687 -1.1602
 6934TIP3   OH220737   6.741   2.422   0.880  0.0350 -0.0604 -0.9465
 6934TIP3    H120738   6.737   2.354   0.947  0.0131 -1.7860 -2.6515
 6934TIP3    H220739   6.723   2.503   0.927  1.5677 -1.0340  1.3955
 6935TIP3   OH220740   5.953   3.160   4.249 -0.3227  0.0555 -0.2876
 6935TIP3    H120741   6.030   3.115   4.215  0.3200  0.2938  0.8157
 6935TIP3    H220742   5.946   3.240   4.198 -0.3857 -0.4208 -1.0206
 6936TIP3   OH220743   7.155   3.772   4.838  0.1898 -0.1205  0.5124
 6936TIP3    H120744   7.185   3.697   4.787  1.2245  0.2195  0.5935
 6936TIP3    H220745   7.233   3.828   4.845 -0.6154  1.0473  0.2917
 6937TIP3   OH220746   6.600   2.275   4.537  0.4446  0.1433 -0.4921
 6937TIP3    H120747   6.569   2.241   4.453  1.2419 -2.1417  0.0987
 6937TIP3    H220748   6.574   2.208   4.601  0.4238  1.5352  0.9879
 6938TIP3   OH220749   1.193   0.722   3.683  0.2666 -0.1360  0.6722
 6938TIP3    H120750   1.133   0.780   3.636  0.0942 -1.2351 -0.5161
 6938TIP3    H220751   1.149   0.637   3.683  1.1492 -0.5986  1.1214
 6939TIP3   OH220752   7.940   1.852   4.903 -0.1668  0.4977 -0.1676
 6939TIP3    H120753   7.890   1.930   4.924  2.4319  2.0812  0.4558
 6939TIP3    H220754   8.002   1.881   4.835  1.2491 -0.8248  0.5167
 6940TIP3   OH220755   5.307   3.126   5.275  0.0805 -0.1428 -0.1863
 6940TIP3    H120756   5.256   3.104   5.353 -1.0632  0.2712 -0.8005
 6940TIP3    H220757   5.267   3.206   5.242 -0.2380 -0.9750 -1.8799
 6941TIP3   OH220758   7.428   3.103   4.600 -0.3051  0.4568 -0.1045
 6941TIP3    H120759   7.425   3.007   4.599  0.5767  0.4131  0.9393
 6941TIP3    H220760   7.386   3.128   4.518  1.1645 -0.8713 -1.3154
 6942TIP3   OH220761   6.709   2.877   6.895 -0.1182 -0.3370  0.2835
 6942TIP3    H120762   6.726   2.884   6.989 -0.5014 -1.2540  0.4326
 6942TIP3    H220763   6.637   2.814   6.889 -0.1838 -0.1777 -0.6157
 6943TIP3   OH220764   6.087   3.252   3.425  0.4555  0.4692  0.4780
 6943TIP3    H120765   6.107   3.258   3.332  0.7497  0.7180  0.5554
 6943TIP3    H220766   6.042   3.168   3.435 -1.7233  1.5159 -0.2787
 6944TIP3   OH220767   0.740   1.596   5.012  0.4956 -0.3575  0.4109
 6944TIP3    H120768   0.787   1.577   5.093  0.5525 -1.7635  0.0677
 6944TIP3    H220769   0.677   1.664   5.036 -0.1610 -1.4605  1.8905
 6945TIP3   OH220770   5.581   3.158   4.617  0.0160 -0.0339 -0.1205
 6945TIP3    H120771   5.629   3.114   4.547 -0.0699  0.4051 -0.4588
 6945TIP3    H220772   5.649   3.183   4.680  0.0433 -0.8228  0.1779
 6946TIP3   OH220773   7.124   2.899   5.369  0.0126 -0.1127  0.1330
 6946TIP3    H120774   7.045   2.859   5.408  1.3646 -0.1622  2.9796
 6946TIP3    H220775   7.092   2.979   5.329 -1.8509 -1.2547 -0.7832
 6947TIP3   OH220776   6.659   0.693   6.350 -0.0293  0.0069 -0.0685
 6947TIP3    H120777   6.735   0.638   6.370 -0.1020  0.2806  0.9971
 6947TIP3    H220778   6.695   0.767   6.302  0.1809 -0.5636 -0.8012
 6948TIP3   OH220779   8.297   1.616   4.138  0.0859 -0.3954 -0.3368
 6948TIP3    H120780   8.255   1.561   4.073  0.0217  0.4740 -1.0366
 6948TIP3    H220781   8.362   1.667   4.089 -0.0416  0.3509  0.2549
 6949TIP3   OH220782   6.166   0.426   3.533 -0.1531  0.0669  0.0039
 6949TIP3    H120783   6.259   0.445   3.549 -0.0365 -0.8803  0.4760
 6949TIP3    H220784   6.147   0.352   3.589 -0.9990 -0.2461 -0.6909
 6950TIP3   OH220785   4.499   1.392   5.395  0.4468  0.3718 -0.9282
 6950TIP3    H120786   4.491   1.426   5.484  0.7219 -0.4100 -0.5957
 6950TIP3    H220787   4.495   1.469   5.339  0.5942  0.9003 -0.2167
 6951TIP3   OH220788   0.309   0.076   6.379 -0.6178  0.3764 -0.1756
 6951TIP3    H120789   0.384   0.027   6.345  0.0932  0.8766  0.6357
 6951TIP3    H220790   0.247   0.080   6.306  0.7476  1.1735 -1.3047
 6952TIP3   OH220791   7.574   2.612   3.177 -0.0429 -0.3935 -0.3178
 6952TIP3    H120792   7.666   2.635   3.187 -0.5419  1.8956 -0.8541
 6952TIP3    H220793   7.545   2.661   3.100 -2.0692  0.0358  0.6786
 6953TIP3   OH220794   6.386   0.932   5.906  0.3127  0.6249 -0.1158
 6953TIP3    H120795   6.379   0.956   5.999  1.7664 -0.2351  0.2453
 6953TIP3    H220796   6.480   0.934   5.888  0.1383 -0.5051 -1.2150
 6954TIP3   OH220797   8.052   4.744   3.347 -0.0556  0.1247  0.6573
 6954TIP3    H120798   8.143   4.770   3.332  0.4007 -1.6433  0.2497
 6954TIP3    H220799   8.000   4.812   3.305  1.1050 -0.0102 -1.0215
 6955TIP3   OH220800   4.628   0.566   5.188 -0.1427 -0.1467  0.2265
 6955TIP3    H120801   4.658   0.655   5.204 -2.0634  0.4896  0.3388
 6955TIP3    H220802   4.564   0.574   5.118 -0.7424 -1.3677  0.6153
 6956TIP3   OH220803   6.042   4.183   3.887  0.1148 -0.2307  0.4880
 6956TIP3    H120804   6.070   4.232   3.964 -0.9495  0.2893  0.5508
 6956TIP3    H220805   6.017   4.251   3.824 -1.3203 -0.6790  0.5550
 6957TIP3   OH220806   6.124   3.553   5.740 -0.3534  0.6233 -0.2279
 6957TIP3    H120807   6.038   3.588   5.765 -1.5637 -0.5049 -2.5873
 6957TIP3    H220808   6.135   3.579   5.649  0.7111 -1.2950 -0.6768
 6958TIP3   OH220809   6.586   4.225   3.093 -0.0736  0.2301 -0.6566
 6958TIP3    H120810   6.526   4.166   3.138  1.1485 -0.8495 -0.4103
 6958TIP3    H220811   6.565   4.215   3.001  0.0407 -0.4999 -0.6060
 6959TIP3   OH220812   0.745   3.101   3.206  0.1296 -0.5167  0.4994
 6959TIP3    H120813   0.840   3.107   3.190  0.0464 -1.2094 -0.2809
 6959TIP3    H220814   0.722   3.186   3.244  1.2941 -0.8085  1.9252
 6960TIP3   OH220815   6.727   2.239   6.501  0.8786 -0.4979 -0.4573
 6960TIP3    H120816   6.782   2.230   6.423  0.6660 -0.5856 -0.5951
 6960TIP3    H220817   6.671   2.162   6.501  0.2899 -0.0704 -0.6758
 6961TIP3   OH220818   3.896   4.798   6.717 -0.1696  0.0184  0.5398
 6961TIP3    H120819   3.814   4.806   6.668  0.0375 -2.1598 -0.2308
 6961TIP3    H220820   3.868   4.795   6.809 -1.0472 -1.4250  0.2477
 6962TIP3   OH220821   6.118   2.887   5.215 -0.2874 -0.3314 -0.9894
 6962TIP3    H120822   6.025   2.865   5.219 -0.3288 -0.0439 -0.3848
 6962TIP3    H220823   6.132   2.914   5.124 -0.6075 -1.2055 -1.3021
 6963TIP3   OH220824   6.087   4.256   3.123  0.3061 -0.1233 -0.1000
 6963TIP3    H120825   6.063   4.299   3.205  1.3429  3.7375 -1.6875
 6963TIP3    H220826   6.178   4.228   3.136  0.3267  0.0896  0.2066
 6964TIP3   OH220827   8.274   3.520   3.011  0.7198 -0.1655 -0.4132
 6964TIP3    H120828   8.229   3.473   3.082 -0.2982  1.4871  0.0746
 6964TIP3    H220829   8.276   3.458   2.939 -1.5669 -0.6182 -0.1489
 6965TIP3   OH220830   7.594   4.025   2.866  0.0813 -0.1994  0.7518
 6965TIP3    H120831   7.650   4.078   2.808 -0.2883  0.6230  1.1376
 6965TIP3    H220832   7.652   3.996   2.936  0.1427  0.2509  0.8909
 6966TIP3   OH220833   4.194   4.248   4.996  0.9375 -0.0720 -0.4916
 6966TIP3    H120834   4.200   4.228   4.903  2.4462  1.8321 -0.8257
 6966TIP3    H220835   4.133   4.321   5.001 -0.9500 -1.6560  0.2717
 6967TIP3   OH220836   5.243   5.093   4.909 -0.0080 -0.4058  0.7772
 6967TIP3    H120837   5.293   5.166   4.872 -1.9597  0.2447 -0.6686
 6967TIP3    H220838   5.276   5.016   4.863 -2.4659  0.4042 -2.5318
 6968TIP3   OH220839   6.505   4.337   5.394 -0.5926  0.2089 -0.2335
 6968TIP3    H120840   6.554   4.315   5.315 -1.2088 -0.0688 -0.5398
 6968TIP3    H220841   6.497   4.253   5.441 -0.6224  0.2877 -0.0977
 6969TIP3   OH220842   5.655   2.232   5.362 -0.5600  0.0471 -0.3811
 6969TIP3    H120843   5.587   2.299   5.366 -1.3788 -0.7178 -1.3937
 6969TIP3    H220844   5.736   2.279   5.380 -1.4123  0.8699  1.4566
 6970TIP3   OH220845   1.403   2.838   4.740 -0.0289 -0.0889  0.0029
 6970TIP3    H120846   1.497   2.820   4.745 -0.0350 -0.2527 -0.4440
 6970TIP3    H220847   1.361   2.757   4.768 -0.0388 -0.1113 -0.0756
 6971TIP3   OH220848   6.398   2.352   4.765  0.0117  0.8055 -0.3139
 6971TIP3    H120849   6.437   2.366   4.679  0.4645  0.1819 -0.2189
 6971TIP3    H220850   6.445   2.412   4.823  0.0250  0.8934 -0.4168
 6972TIP3   OH220851   4.928   2.892   6.129  0.6385 -0.5250 -0.4128
 6972TIP3    H120852   4.989   2.932   6.068  0.1887  0.0306 -0.4991
 6972TIP3    H220853   4.981   2.873   6.207  0.7910  0.5424 -0.2459
 6973TIP3   OH220854   8.130   1.492   5.087  0.0408  0.2013  0.0068
 6973TIP3    H120855   8.155   1.421   5.027 -1.4274 -0.3216 -0.0205
 6973TIP3    H220856   8.051   1.460   5.129  0.6902  0.8562  1.7553
 6974TIP3   OH220857   6.468   1.181   2.588  0.2651 -0.1063 -0.0451
 6974TIP3    H120858   6.379   1.146   2.593  0.0598  0.3208 -0.7238
 6974TIP3    H220859   6.523   1.109   2.619 -0.0860 -1.3312 -2.2149
 6975TIP3   OH220860   6.494   2.561   4.923 -0.3185  0.1985  0.4638
 6975TIP3    H120861   6.408   2.599   4.938  0.3946  0.8788  3.1493
 6975TIP3    H220862   6.555   2.631   4.946  0.9520 -0.4821 -0.7912
 6976TIP3   OH220863   7.182   1.183   4.474 -0.2503  0.2968  0.0581
 6976TIP3    H120864   7.224   1.103   4.506  1.1609  0.2465 -1.8172
 6976TIP3    H220865   7.239   1.213   4.404 -1.6712  2.0369 -0.3843
 6977TIP3   OH220866   6.531   2.285   4.240  0.7176  0.0131 -0.2337
 6977TIP3    H120867   6.480   2.247   4.169  1.1225  0.8426 -0.9846
 6977TIP3    H220868   6.581   2.355   4.198  0.4016  1.0005  1.0183
 6978TIP3   OH220869   4.253   3.023   4.796 -0.3719  0.2908  0.1099
 6978TIP3    H120870   4.335   3.036   4.844 -2.3225 -0.6249  3.9252
 6978TIP3    H220871   4.245   2.928   4.788 -2.6202  0.1655  2.8541
 6979TIP3   OH220872   5.295   1.270   6.894  0.0971 -0.3981 -0.6750
 6979TIP3    H120873   5.332   1.272   6.982 -0.3915 -0.9155 -0.4519
 6979TIP3    H220874   5.309   1.358   6.859  0.7927 -0.3612 -0.2891
 6980TIP3   OH220875   6.061   4.459   3.309 -0.0028  0.3079  0.1052
 6980TIP3    H120876   6.115   4.533   3.335  0.8987  0.2082 -1.4737
 6980TIP3    H220877   5.982   4.499   3.272  0.7302  0.4854 -1.2704
 6981TIP3   OH220878   0.411   4.438   3.633  0.7232  0.2922  0.3106
 6981TIP3    H120879   0.499   4.435   3.672  0.4722  1.0019  0.9416
 6981TIP3    H220880   0.425   4.471   3.544  0.9786  1.4796  0.7797
 6982TIP3   OH220881   2.260   7.859   6.006 -0.0369 -0.2454 -0.8909
 6982TIP3    H120882   2.218   7.905   5.933  2.0523  1.2819 -1.1441
 6982TIP3    H220883   2.211   7.888   6.084  0.6602  1.6970 -1.1530
 6983TIP3   OH220884   7.877   1.417   5.184  0.0847 -0.1353  0.0064
 6983TIP3    H120885   7.850   1.378   5.100 -0.6584 -1.1171  0.6910
 6983TIP3    H220886   7.811   1.485   5.200 -0.9707 -1.3106  0.7773
 6984TIP3   OH220887   5.109   4.461   3.580  0.3206  0.1093  0.2186
 6984TIP3    H120888   5.171   4.496   3.516  1.2640 -0.0726  1.0241
 6984TIP3    H220889   5.123   4.366   3.578  0.4176  0.1081  0.7489
 6985TIP3   OH220890   0.305   3.991   4.898 -0.1227  0.4601  0.5512
 6985TIP3    H120891   0.240   3.931   4.862  2.2857 -1.9821  0.1892
 6985TIP3    H220892   0.345   4.033   4.822  0.0562  0.5418  0.6891
 6986TIP3   OH220893   6.608   4.074   4.151  0.1304  0.2861 -0.5528
 6986TIP3    H120894   6.644   4.056   4.064 -0.2591  1.3482 -0.9478
 6986TIP3    H220895   6.683   4.066   4.210  0.2886 -0.9952 -0.8995
 6987TIP3   OH220896   8.054   3.414   4.231  0.2240  0.1040  0.1983
 6987TIP3    H120897   8.058   3.360   4.152  2.2403 -2.3379  1.9176
 6987TIP3    H220898   8.021   3.355   4.299 -1.0976  2.0596  1.3138
 6988TIP3   OH220899   6.511   2.056   2.004  0.5162  0.1477 -0.1295
 6988TIP3    H120900   6.477   2.055   1.915 -1.7691  2.4261  0.6578
 6988TIP3    H220901   6.448   2.004   2.054  0.9999  0.0847  0.4180
 6989TIP3   OH220902   6.092   1.364   3.616 -0.1685  0.2601  0.6476
 6989TIP3    H120903   6.091   1.439   3.556 -0.6333  0.7552  1.2646
 6989TIP3    H220904   6.175   1.373   3.663 -0.3866  0.5827  0.9677
 6990TIP3   OH220905   2.456   5.274   2.488 -0.0939  0.0950 -0.9944
 6990TIP3    H120906   2.523   5.209   2.465  0.9037 -0.0583  2.1400
 6990TIP3    H220907   2.483   5.354   2.443  1.3880 -0.3691 -0.9540
 6991TIP3   OH220908   0.746   1.831   4.038 -0.2287  0.4492 -0.3937
 6991TIP3    H120909   0.764   1.810   4.130  1.9367 -2.0570 -1.3293
 6991TIP3    H220910   0.754   1.926   4.033  2.3657  0.3855  1.4904
 6992TIP3   OH220911   7.371   2.543   2.452  0.7493  0.2924 -0.1790
 6992TIP3    H120912   7.369   2.457   2.493  0.1660  1.1851  1.7305
 6992TIP3    H220913   7.290   2.548   2.402  0.3633  0.0648  0.4160
 6993TIP3   OH220914   6.529   2.973   3.175 -0.3716  0.3960 -0.1405
 6993TIP3    H120915   6.613   3.015   3.157 -0.1565  0.4110  0.8484
 6993TIP3    H220916   6.474   3.044   3.209 -0.5015  0.2053  0.0512
 6994TIP3   OH220917   2.246   2.577   3.935  0.4983  0.5738  0.0124
 6994TIP3    H120918   2.275   2.578   3.844 -0.4972  1.9404 -0.2964
 6994TIP3    H220919   2.196   2.496   3.943  0.4307  0.5424 -0.7065
 6995TIP3   OH220920   7.841   1.839   2.579  0.2930  0.2746  0.3480
 6995TIP3    H120921   7.900   1.882   2.641  0.3063 -0.2307  0.6902
 6995TIP3    H220922   7.894   1.767   2.543  0.5688  1.0618 -0.8690
 6996TIP3   OH220923   6.933   3.425   5.197 -0.2925  0.4304 -0.3455
 6996TIP3    H120924   6.897   3.508   5.227 -0.7780  0.2145 -0.3241
 6996TIP3    H220925   7.006   3.449   5.139  0.3348  0.8533  0.6060
 6997TIP3   OH220926   1.227   2.636   3.651  0.3721 -0.4941 -0.2596
 6997TIP3    H120927   1.207   2.601   3.565  1.9003  2.4121 -1.8782
 6997TIP3    H220928   1.142   2.645   3.694 -0.5722 -0.3617 -2.1216
 6998TIP3   OH220929   7.831   3.425   3.090 -0.0470 -0.2990  0.0975
 6998TIP3    H120930   7.805   3.442   3.180  2.1246  0.5815  0.5953
 6998TIP3    H220931   7.753   3.390   3.048 -1.1026 -0.6249  2.2969
 6999TIP3   OH220932   8.101   2.482   4.419  0.4962  0.0238 -0.0417
 6999TIP3    H120933   8.159   2.558   4.410  0.3480 -0.0303 -1.4383
 6999TIP3    H220934   8.144   2.412   4.370 -0.4299 -0.2050 -0.5370
 7000TIP3   OH220935   8.157   3.355   3.500  0.5994 -0.2333 -0.3697
 7000TIP3    H120936   8.202   3.300   3.436  1.7010 -0.2248  0.3802
 7000TIP3    H220937   8.171   3.311   3.583  0.9765  0.8544  0.1515
 7001TIP3   OH220938   8.179   4.753   3.026 -0.2660 -0.4544 -0.2811
 7001TIP3    H120939   8.141   4.816   2.964  0.2356  0.1800  0.0495
 7001TIP3    H220940   8.267   4.787   3.043  0.1682 -1.4759 -0.4243
 7002TIP3   OH220941   7.365   1.419   3.284  0.3076 -0.2891  0.0043
 7002TIP3    H120942   7.320   1.503   3.275 -0.7740 -0.7698  0.7375
 7002TIP3    H220943   7.305   1.356   3.246  0.0936 -1.0112  1.4842
 7003TIP3   OH220944   1.130   4.366   3.971  0.1507 -0.1304  0.1709
 7003TIP3    H120945   1.202   4.362   3.907 -0.4323  1.1255 -0.5817
 7003TIP3    H220946   1.156   4.436   4.031 -0.2867  0.0977  0.0946
 7004TIP3   OH220947   6.345   4.358   5.024  0.6696  0.4162  0.3758
 7004TIP3    H120948   6.358   4.439   4.975  0.9155  0.2601  0.1777
 7004TIP3    H220949   6.421   4.304   5.001  1.4831  0.8670  1.9969
 7005TIP3   OH220950   7.862   2.769   3.516 -0.3675  1.0509  0.0480
 7005TIP3    H120951   7.801   2.831   3.475 -1.4134  0.3736  0.5453
 7005TIP3    H220952   7.835   2.766   3.607 -0.4472 -0.2760 -0.0116
 7006TIP3   OH220953   7.678   3.324   4.868  0.3493 -0.2317 -0.6107
 7006TIP3    H120954   7.625   3.351   4.792 -0.2825  0.3366  0.0202
 7006TIP3    H220955   7.697   3.232   4.852 -2.9292 -1.1517  0.3385
 7007TIP3   OH220956   6.208   4.423   4.376 -0.0837  0.3224  0.0865
 7007TIP3    H120957   6.280   4.359   4.372 -0.1724  0.2765 -0.7216
 7007TIP3    H220958   6.214   4.459   4.464  0.5669 -0.1087  0.2246
 7008TIP3   OH220959   6.477   3.240   4.593  0.0068 -0.2590  0.3784
 7008TIP3    H120960   6.491   3.300   4.666  0.7731 -0.5808  0.4963
 7008TIP3    H220961   6.392   3.266   4.557 -0.0779  0.3145  0.9825
 7009TIP3   OH220962   1.293   1.695   4.787  0.4586 -0.2156 -0.2586
 7009TIP3    H120963   1.329   1.617   4.743  0.1857 -0.7667  0.4957
 7009TIP3    H220964   1.367   1.731   4.837  0.2484 -0.7262  0.4214
 7010TIP3   OH220965   0.620   3.783   2.360  0.2823  0.5555 -0.2407
 7010TIP3    H120966   0.632   3.723   2.287 -1.6870  1.0918 -1.0216
 7010TIP3    H220967   0.643   3.869   2.325  2.1348  0.4340  0.6033
 7011TIP3   OH220968   7.113   2.775   3.976 -0.3334  0.3507  0.4273
 7011TIP3    H120969   7.136   2.742   3.889 -0.0210 -0.4985  0.8204
 7011TIP3    H220970   7.094   2.695   4.026  1.5220  0.7124  1.7206
 7012TIP3   OH220971   8.475   5.825   5.445 -0.8598 -0.0010  0.1216
 7012TIP3    H120972   8.390   5.867   5.435 -0.1574  0.8051 -2.7351
 7012TIP3    H220973   8.523   5.882   5.505 -1.9467  0.0890  0.9231
 7013TIP3   OH220974   5.479   4.379   3.346  0.4344 -0.3835 -0.2117
 7013TIP3    H120975   5.546   4.413   3.407  0.2734 -1.6268  0.6717
 7013TIP3    H220976   5.529   4.333   3.279  0.5452  0.0094 -0.4017
 7014TIP3   OH220977   5.277   2.618   4.042 -0.2223 -0.0097 -0.1130
 7014TIP3    H120978   5.316   2.702   4.070  0.1584 -0.2498  0.0859
 7014TIP3    H220979   5.214   2.642   3.975  0.6737  0.3415 -0.8386
 7015TIP3   OH220980   8.271   2.886   6.232  0.1485  0.0213  0.0212
 7015TIP3    H120981   8.264   2.791   6.228 -0.7668  0.0921 -0.1885
 7015TIP3    H220982   8.362   2.905   6.209  0.2457 -0.7778 -0.2621
 7016TIP3   OH220983   8.219   2.733   2.893  0.2059  0.2391  0.1160
 7016TIP3    H120984   8.147   2.768   2.946  1.8060 -0.2093  2.6841
 7016TIP3    H220985   8.187   2.648   2.863 -2.5736  2.4393 -3.7694
 7017TIP3   OH220986   4.855   2.422   4.793 -0.9746 -0.3741 -0.1353
 7017TIP3    H120987   4.942   2.455   4.813 -1.2694 -0.0621  0.6565
 7017TIP3    H220988   4.862   2.327   4.800 -0.3246 -0.4541 -1.5972
 7018TIP3   OH220989   7.329   3.036   1.138  0.4653  0.3388 -0.5800
 7018TIP3    H120990   7.371   2.952   1.153  0.0797  0.0804 -0.9315
 7018TIP3    H220991   7.392   3.101   1.171 -0.3749 -0.2042  2.2100
 7019TIP3   OH220992   6.610   5.051   3.733  0.1617  0.4485 -0.2510
 7019TIP3    H120993   6.664   5.100   3.672 -0.1130 -0.5843 -1.3500
 7019TIP3    H220994   6.539   5.016   3.680 -0.9030  0.7494  0.9457
 7020TIP3   OH220995   8.132   1.698   3.436 -0.2097  0.5271  0.1953
 7020TIP3    H120996   8.060   1.737   3.387  0.2583 -1.7127 -2.4113
 7020TIP3    H220997   8.097   1.614   3.465  0.9068  0.0119  0.0475
 7021TIP3   OH220998   0.302   3.392   3.346  0.3335  0.3072 -0.2139
 7021TIP3    H120999   0.351   3.416   3.425  0.0649  0.0730  0.0247
 7021TIP3    H221000   0.210   3.403   3.370  0.1935 -1.1304 -0.0333
 7022TIP3   OH221001   0.284   1.875   3.531  0.3507  0.1387 -0.3098
 7022TIP3    H121002   0.230   1.800   3.558  0.0588 -0.6319 -2.9190
 7022TIP3    H221003   0.277   1.937   3.604 -1.8416 -1.1200  0.5906
 7023TIP3   OH221004   7.608   1.455   3.959 -0.4234  0.0746  0.3255
 7023TIP3    H121005   7.568   1.403   3.889 -0.0068  0.1412  0.0342
 7023TIP3    H221006   7.674   1.508   3.914  0.7720 -0.8515  0.9615
 7024TIP3   OH221007   6.382   3.862   3.800  0.0620 -0.8080 -0.7482
 7024TIP3    H121008   6.297   3.900   3.778 -0.3774 -0.8292  0.8079
 7024TIP3    H221009   6.362   3.773   3.831  0.6831 -0.9509 -0.7438
 7025TIP3   OH221010   0.425   1.561   3.290  0.1278 -0.2136  0.7860
 7025TIP3    H121011   0.478   1.638   3.313  0.2820  0.0676 -0.4817
 7025TIP3    H221012   0.354   1.561   3.355  1.0290  0.0676  1.7834
 7026TIP3   OH221013   7.816   3.623   2.522  0.3527 -0.8170 -0.8319
 7026TIP3    H121014   7.802   3.680   2.597 -0.3755 -0.7626 -1.0052
 7026TIP3    H221015   7.747   3.557   2.528 -0.1401 -0.4052 -1.8271
 7027TIP3   OH221016   0.812   3.880   3.297  0.0791  0.5129 -0.4025
 7027TIP3    H121017   0.735   3.901   3.350  0.4127  0.1160  0.2372
 7027TIP3    H221018   0.810   3.944   3.225 -0.9754  0.3582 -0.5201
 7028TIP3   OH221019   7.112   1.553   5.266 -0.7448 -0.4086  0.2273
 7028TIP3    H121020   7.186   1.525   5.212 -0.5952 -2.0828  1.2409
 7028TIP3    H221021   7.143   1.631   5.312  0.3034 -0.9423  0.4449
 7029TIP3   OH221022   7.021   1.834   4.676 -0.7086 -0.4982 -0.6588
 7029TIP3    H121023   6.940   1.853   4.628 -0.9737 -0.7198 -0.2986
 7029TIP3    H221024   6.993   1.820   4.767 -0.6347 -3.2853 -0.9998
 7030TIP3   OH221025   7.225   3.746   2.549  0.1516  0.5105  0.1721
 7030TIP3    H121026   7.205   3.805   2.622 -0.1608  0.5782  0.0299
 7030TIP3    H221027   7.274   3.674   2.590 -0.9379  0.0193  0.6334
 7031TIP3   OH221028   7.995   2.401   5.771  0.1498 -0.0464 -0.6249
 7031TIP3    H121029   7.966   2.492   5.779 -1.5867 -0.6914  0.4398
 7031TIP3    H221030   8.068   2.394   5.833 -1.1854  0.0004  0.9564
 7032TIP3   OH221031   6.758   2.565   5.606 -0.5878 -0.4039  0.0213
 7032TIP3    H121032   6.810   2.577   5.685 -0.0927 -2.4494  0.0339
 7032TIP3    H221033   6.801   2.621   5.541 -0.0255  0.0451  0.7664
 7033TIP3   OH221034   7.041   1.470   3.449 -0.2856 -0.5241 -0.2489
 7033TIP3    H121035   7.130   1.436   3.458  0.1948  0.9460  0.9111
 7033TIP3    H221036   7.035   1.496   3.357  0.9572  0.5434 -0.0570
 7034TIP3   OH221037   7.184   1.889   3.105 -0.3681 -0.6141 -0.3369
 7034TIP3    H121038   7.095   1.923   3.095 -0.1560  0.2745  0.7745
 7034TIP3    H221039   7.225   1.907   3.020  0.3656  3.7845  0.8238
 7035TIP3   OH221040   7.416   0.994   4.076  0.3410 -0.0798 -0.2918
 7035TIP3    H121041   7.345   0.931   4.072 -2.0725  2.5722 -1.2925
 7035TIP3    H221042   7.473   0.970   4.003 -2.2033  0.7057 -2.6219
 7036TIP3   OH221043   6.552   2.784   4.034  0.2394  0.6302 -0.6098
 7036TIP3    H121044   6.623   2.845   4.051  0.5434  0.4716 -1.2755
 7036TIP3    H221045   6.534   2.743   4.118 -0.2548  1.9382 -0.0709
 7037TIP3   OH221046   0.423   4.532   2.620  0.6661  0.0391  0.1375
 7037TIP3    H121047   0.346   4.532   2.563  0.2017 -0.5009  0.7641
 7037TIP3    H221048   0.491   4.576   2.568 -0.6059  2.2803  0.3379
 7038TIP3   OH221049   6.411   4.046   5.184  0.2837  0.4496  0.2861
 7038TIP3    H121050   6.407   3.952   5.164 -0.1030  0.2357  1.3122
 7038TIP3    H221051   6.319   4.071   5.199  0.0080  1.7114 -3.0890
 7039TIP3   OH221052   6.234   4.221   5.494  0.1944 -0.1899  0.2245
 7039TIP3    H121053   6.307   4.159   5.493  1.7520  1.5910  0.4444
 7039TIP3    H221054   6.269   4.298   5.539 -0.9734  1.7237 -2.0552
 7040TIP3   OH221055   0.863   4.957   2.884 -0.4204  0.6319 -0.3859
 7040TIP3    H121056   0.897   4.991   2.802 -1.5884  0.6615 -0.8632
 7040TIP3    H221057   0.778   4.920   2.862 -1.0199  1.1890  0.9152
 7041TIP3   OH221058   6.985   4.962   3.226  0.5081 -0.3820 -0.0964
 7041TIP3    H121059   7.004   4.969   3.319  2.4332  2.0340 -0.6259
 7041TIP3    H221060   7.055   4.907   3.190  0.5879 -0.1141 -0.3536
 7042TIP3   OH221061   6.534   1.612   3.603 -0.4985 -0.9735 -0.5132
 7042TIP3    H121062   6.571   1.607   3.691 -2.1686  1.2027  0.3537
 7042TIP3    H221063   6.569   1.535   3.558  2.9196 -0.4458  1.0604
 7043TIP3   OH221064   0.340   3.729   3.607 -0.1762  0.2000  0.6513
 7043TIP3    H121065   0.339   3.820   3.576  1.7678 -0.0191 -0.1044
 7043TIP3    H221066   0.255   3.718   3.650 -0.3128  2.4757  1.0431
 7044TIP3   OH221067   0.255   3.217   3.611 -0.3699 -0.3753 -0.6647
 7044TIP3    H121068   0.295   3.300   3.587 -1.1756 -0.2053 -1.4593
 7044TIP3    H221069   0.192   3.239   3.680 -0.0441 -0.4465 -0.3414
 7045TIP3   OH221070   7.470   3.811   2.738 -0.3976  0.1088 -0.0776
 7045TIP3    H121071   7.377   3.831   2.752 -1.1710 -3.1384 -0.2984
 7045TIP3    H221072   7.513   3.841   2.818 -1.6105  1.6228  0.0367
 7046TIP3   OH221073   7.026   2.671   0.841 -0.7623 -0.1815  0.0643
 7046TIP3    H121074   6.958   2.724   0.798 -1.8602 -0.3022  1.6315
 7046TIP3    H221075   7.068   2.731   0.902  1.3182  0.1984 -1.6593
 7047TIP3   OH221076   6.299   1.383   3.837  0.4997  0.6061 -0.0003
 7047TIP3    H121077   6.323   1.372   3.929  0.6596  0.4524 -0.0622
 7047TIP3    H221078   6.365   1.335   3.788 -1.3234 -1.9683 -0.0609
 7048TIP3   OH221079   4.611   7.401   3.124  0.2698 -0.1901  0.0585
 7048TIP3    H121080   4.680   7.367   3.181 -0.1802 -1.4216 -0.1363
 7048TIP3    H221081   4.541   7.336   3.128 -0.1043  0.1180 -1.2590
 7049TIP3   OH221082   7.335   4.511   6.132 -0.0002  0.6013 -0.5870
 7049TIP3    H121083   7.301   4.422   6.124  1.4069 -0.0626  0.7068
 7049TIP3    H221084   7.427   4.500   6.154  0.3154  2.3840 -0.9523
 7050TIP3   OH221085   7.702   5.270   4.657 -0.5282  0.2794  0.0742
 7050TIP3    H121086   7.640   5.214   4.703  0.3247 -1.3658 -0.7585
 7050TIP3    H221087   7.746   5.212   4.595  2.1184  1.3461  0.8916
 7051TIP3   OH221088   7.397   4.586   2.755 -0.3993  0.4390 -0.5302
 7051TIP3    H121089   7.400   4.649   2.827 -0.7762 -0.2822  0.1208
 7051TIP3    H221090   7.432   4.505   2.793  0.2407  0.2959 -1.4045
 7052TIP3   OH221091   1.336   3.007   1.742 -0.1865  0.2669  0.0106
 7052TIP3    H121092   1.336   2.924   1.788 -1.1297  0.6031  0.6346
 7052TIP3    H221093   1.257   3.005   1.688 -0.0255  0.6071 -0.2436
 7053TIP3   OH221094   7.821   2.648   3.272  0.3420  0.5927 -0.1723
 7053TIP3    H121095   7.851   2.683   3.356  2.6126  0.6858 -1.0012
 7053TIP3    H221096   7.889   2.587   3.245 -1.6389 -1.4600 -0.7071
 7054TIP3   OH221097   7.725   3.651   3.551  0.2872 -0.6266 -0.0203
 7054TIP3    H121098   7.656   3.671   3.488  0.7298  0.4491 -0.1782
 7054TIP3    H221099   7.788   3.598   3.502  0.4664 -0.0763 -0.3855
 7055TIP3   OH221100   0.037   2.866   3.062 -0.0710  0.4762  0.4567
 7055TIP3    H121101   0.119   2.888   3.107  0.8976  0.1324 -1.1202
 7055TIP3    H221102  -0.023   2.844   3.133  1.0912  1.0688  1.6565
 7056TIP3   OH221103   8.215   4.858   2.383  0.0439 -0.3960 -0.0697
 7056TIP3    H121104   8.202   4.902   2.299  1.4209 -2.5668 -1.4869
 7056TIP3    H221105   8.273   4.916   2.431  0.9099 -0.0862 -1.4480
 7057TIP3   OH221106   7.521   4.817   4.626  0.1593 -0.6179  0.1620
 7057TIP3    H121107   7.606   4.779   4.604  1.2562  0.6130  2.0760
 7057TIP3    H221108   7.480   4.754   4.685  0.7120 -0.2467  0.9678
 7058TIP3   OH221109   4.830   7.923   0.503 -0.3395  0.0760 -0.4234
 7058TIP3    H121110   4.841   7.943   0.410 -0.9411 -0.1688 -0.5516
 7058TIP3    H221111   4.782   7.840   0.504  1.2419 -0.8558  0.0990
 7059TIP3   OH221112   7.656   2.554   4.217 -0.0595 -0.5846 -0.5745
 7059TIP3    H121113   7.664   2.601   4.300 -0.1793  2.2317 -2.1000
 7059TIP3    H221114   7.725   2.487   4.221  2.6609  2.1534  0.1273
 7060TIP3   OH221115   8.206   1.119   5.844 -0.0404 -0.0049 -0.1044
 7060TIP3    H121116   8.152   1.060   5.897  0.5008 -1.0151 -0.6719
 7060TIP3    H221117   8.289   1.073   5.833  1.1378  1.7377  1.1600
 7061TIP3   OH221118   6.617   3.403   5.290 -0.5034  0.3143  0.4874
 7061TIP3    H121119   6.616   3.325   5.345 -3.9637  0.8746  1.3547
 7061TIP3    H221120   6.709   3.431   5.290  0.3443 -2.2505  2.2617
 7062TIP3   OH221121   6.666   4.246   5.185 -0.4539 -0.5125 -0.2363
 7062TIP3    H121122   6.602   4.186   5.146 -1.0793 -0.6043  0.9272
 7062TIP3    H221123   6.729   4.189   5.229 -0.2632 -0.3688 -0.3206
 7063TIP3   OH221124   6.237   3.614   2.733 -0.8187  0.0624 -0.3728
 7063TIP3    H121125   6.281   3.660   2.661 -0.0132  0.1998  0.2008
 7063TIP3    H221126   6.145   3.612   2.707 -0.5575  0.2511 -1.3337
 7064TIP3   OH221127   7.688   1.615   5.189  0.3771 -0.4138 -0.0037
 7064TIP3    H121128   7.614   1.555   5.184  0.5894 -0.5901 -1.3250
 7064TIP3    H221129   7.672   1.679   5.119 -0.1000  1.3761  1.6931
 7065TIP3   OH221130   7.346   3.964   1.576  0.4736  0.3227 -0.0438
 7065TIP3    H121131   7.377   4.054   1.565 -1.6458  0.8024 -2.4497
 7065TIP3    H221132   7.289   3.968   1.653  3.2445  0.1902  2.1323
 7066TIP3   OH221133   5.187   3.054   2.983 -0.2358 -0.0301  0.2747
 7066TIP3    H121134   5.128   3.110   2.932  0.4153  0.3017 -0.1253
 7066TIP3    H221135   5.201   2.978   2.927  0.6407  0.4274 -0.1415
 7067TIP3   OH221136   6.310   5.280   2.992 -0.1209  0.1005  0.1301
 7067TIP3    H121137   6.361   5.302   2.914  0.6289 -1.0398  0.2887
 7067TIP3    H221138   6.352   5.328   3.063  1.9587 -2.3376  0.6032
 7068TIP3   OH221139   8.332   3.418   4.279  0.1850 -0.1123  0.3353
 7068TIP3    H121140   8.354   3.505   4.245 -1.9977  0.1672 -0.4817
 7068TIP3    H221141   8.236   3.417   4.281  0.1524 -0.5580  5.4467
 7069TIP3   OH221142   7.130   2.802   4.637 -0.2159 -0.0218 -0.1545
 7069TIP3    H121143   7.058   2.740   4.651 -0.3705 -0.2236 -1.6953
 7069TIP3    H221144   7.102   2.855   4.562  0.2414  1.4382  0.6845
 7070TIP3   OH221145   1.862   0.677   4.960 -0.4964  0.0865  0.5008
 7070TIP3    H121146   1.817   0.599   4.991 -0.5719  0.1972  0.6701
 7070TIP3    H221147   1.802   0.749   4.979 -0.4864  0.1693  0.2185
 7071TIP3   OH221148   8.257   1.418   4.758 -0.2477  0.5136  0.1335
 7071TIP3    H121149   8.211   1.399   4.676  1.2093 -2.2648 -0.0986
 7071TIP3    H221150   8.232   1.346   4.816  0.7852  1.0604  1.2680
 7072TIP3   OH221151   7.937   2.969   3.888  0.2399  0.2576 -0.0534
 7072TIP3    H121152   7.950   2.875   3.879 -0.3257  0.3748 -2.1192
 7072TIP3    H221153   8.026   3.004   3.898  0.3408 -0.6607  2.7059
 7073TIP3   OH221154   7.782   2.617   4.994 -0.6858  0.0455 -0.3511
 7073TIP3    H121155   7.834   2.674   4.937 -0.8653  1.1659  0.5814
 7073TIP3    H221156   7.695   2.617   4.956 -0.3753 -0.6306 -1.0685
 7074TIP3   OH221157   8.331   3.573   3.333 -0.0599 -1.0194 -0.1814
 7074TIP3    H121158   8.282   3.569   3.251 -1.2245 -0.8263  0.4888
 7074TIP3    H221159   8.281   3.517   3.394 -0.0327 -0.0161  0.7932
 7075TIP3   OH221160   6.393   5.129   4.905 -0.3759 -0.1379  0.8297
 7075TIP3    H121161   6.354   5.110   4.990 -0.7355 -1.0633  0.4611
 7075TIP3    H221162   6.318   5.136   4.845 -0.1264  0.5153  0.5934
 7076TIP3   OH221163   6.647   3.477   3.510 -0.0614 -0.4335  0.1948
 7076TIP3    H121164   6.650   3.563   3.554  3.1882  0.0595 -0.8884
 7076TIP3    H221165   6.671   3.415   3.579  1.5377 -0.0240  0.0390
 7077TIP3   OH221166   5.814   5.466   4.014 -0.1808 -0.5288  0.0025
 7077TIP3    H121167   5.808   5.560   4.001 -0.8096 -0.6215 -0.3831
 7077TIP3    H221168   5.724   5.434   4.007  0.0427 -1.1762 -0.0226
 7078TIP3   OH221169   7.866   3.968   4.358 -0.4284 -0.5592  0.4246
 7078TIP3    H121170   7.800   3.953   4.290  0.2931  1.1222 -0.6767
 7078TIP3    H221171   7.902   3.881   4.376 -1.8130 -1.2573 -0.1147
 7079TIP3   OH221172   8.424   4.284   3.187 -0.0661 -0.7703 -0.1503
 7079TIP3    H121173   8.371   4.227   3.241 -1.2832 -0.0122 -0.5243
 7079TIP3    H221174   8.433   4.238   3.103 -0.2381 -0.8434 -0.1273
 7080TIP3   OH221175   0.486   1.264   4.559 -0.5483 -0.2194  0.3580
 7080TIP3    H121176   0.429   1.303   4.625 -2.1026 -2.6378  0.5264
 7080TIP3    H221177   0.574   1.268   4.597 -1.3552 -1.0850  2.3756
 7081TIP3   OH221178   0.676   6.639   6.362 -0.1559 -0.2374  0.3970
 7081TIP3    H121179   0.758   6.599   6.392  0.9287  1.4104 -0.2415
 7081TIP3    H221180   0.691   6.658   6.270 -1.5959 -0.7071  0.0590
 7082TIP3   OH221181   6.629   3.867   5.476  0.0269  0.0015  0.2089
 7082TIP3    H121182   6.613   3.842   5.566 -3.7584  2.5791  0.3611
 7082TIP3    H221183   6.601   3.791   5.424 -0.9392 -0.2246  1.0622
 7083TIP3   OH221184   5.266   4.528   3.281 -0.1601 -0.0634  0.3458
 7083TIP3    H121185   5.205   4.469   3.235  0.2612 -1.3756  1.4373
 7083TIP3    H221186   5.348   4.478   3.286  0.4488  0.9408  0.5857
 7084TIP3   OH221187   6.133   1.667   3.158 -0.0162 -0.1017  0.1807
 7084TIP3    H121188   6.217   1.628   3.181 -1.5813 -3.0034  1.2076
 7084TIP3    H221189   6.080   1.594   3.126 -1.9388  1.7882 -1.1431
 7085TIP3   OH221190   7.456   1.607   3.494 -0.0086  0.3100  0.3146
 7085TIP3    H121191   7.441   1.512   3.488 -0.2183  0.3232  0.6402
 7085TIP3    H221192   7.400   1.644   3.425  0.7353  0.1286 -0.3917
 7086TIP3   OH221193   7.701   1.455   4.567 -0.1710 -0.5738 -0.3410
 7086TIP3    H121194   7.613   1.473   4.597 -0.3653 -1.1323 -0.5621
 7086TIP3    H221195   7.754   1.526   4.602 -0.6983 -0.2698 -0.1622
 7087TIP3   OH221196   0.401   1.994   3.067  0.1919  0.0302 -0.5422
 7087TIP3    H121197   0.393   1.902   3.092  2.0428  0.0617  0.2158
 7087TIP3    H221198   0.453   1.993   2.987  1.2387  0.5002  0.1314
 7088TIP3   OH221199   5.322   4.758   1.820 -0.3834  0.1100 -0.3244
 7088TIP3    H121200   5.327   4.725   1.910 -0.5124  0.0092 -0.3537
 7088TIP3    H221201   5.380   4.834   1.820 -0.7252  0.3739 -0.0405
 7089TIP3   OH221202   6.855   3.141   2.749 -0.2598  0.1660 -0.3513
 7089TIP3    H121203   6.882   3.226   2.716  0.6366  0.2515  0.5698
 7089TIP3    H221204   6.818   3.096   2.673  1.3559  0.5112 -1.3690
 7090TIP3   OH221205   0.233   4.270   2.430 -0.2965 -0.2963  0.1813
 7090TIP3    H121206   0.218   4.282   2.337  0.5070  0.6403  0.1604
 7090TIP3    H221207   0.184   4.342   2.472  2.2875  1.4950  0.2375
 7091TIP3   OH221208   6.953   3.360   5.475 -0.0871  0.0567  0.4117
 7091TIP3    H121209   6.961   3.421   5.401 -1.0885  0.1040  0.3408
 7091TIP3    H221210   6.898   3.289   5.441  0.6247 -0.6284  0.6667
 7092TIP3   OH221211   8.032   1.578   4.808  0.3138  0.0044 -0.4545
 7092TIP3    H121212   8.024   1.631   4.888 -0.7005 -0.4666 -0.2388
 7092TIP3    H221213   8.122   1.547   4.810  0.1717 -0.3575  0.7423
 7093TIP3   OH221214   1.649   2.029   4.456 -0.4339  0.2184  0.0277
 7093TIP3    H121215   1.676   1.939   4.435 -0.9761 -0.2918  1.4754
 7093TIP3    H221216   1.668   2.079   4.377  4.3618 -0.2122  0.7598
 7094TIP3   OH221217   0.234   4.796   4.605  0.6416 -0.1725 -0.3385
 7094TIP3    H121218   0.214   4.727   4.669 -2.2013 -0.8366 -1.8404
 7094TIP3    H221219   0.329   4.808   4.611  0.6379 -1.2648  2.9139
 7095TIP3   OH221220   8.352   3.037   4.956 -0.2865  0.0677  0.0921
 7095TIP3    H121221   8.349   2.942   4.939 -0.7042  0.2201 -0.7202
 7095TIP3    H221222   8.426   3.048   5.016 -0.2249 -0.7705  0.1832
 7096TIP3   OH221223   7.654   3.807   3.989 -0.1221  0.0514  0.1551
 7096TIP3    H121224   7.665   3.898   3.959  0.6389 -0.0395  0.1687
 7096TIP3    H221225   7.635   3.815   4.083  0.1811  0.1817  0.2054
 7097TIP3   OH221226   2.070   4.278   3.500 -0.4410  0.2741  0.9065
 7097TIP3    H121227   2.150   4.305   3.455 -1.0413 -1.7138 -1.4339
 7097TIP3    H221228   2.100   4.237   3.581  0.8970 -0.0334  0.2596
 7098TIP3   OH221229   3.121   7.676   0.429  0.4251  0.2650 -0.0218
 7098TIP3    H121230   3.120   7.652   0.522 -1.0682 -1.3364 -0.4142
 7098TIP3    H221231   3.213   7.675   0.405  0.7467 -0.4737  1.1754
 7099TIP3   OH221232   0.324   3.959   5.286 -0.1625  0.2527  0.1593
 7099TIP3    H121233   0.401   3.904   5.305  0.4755  0.9735 -0.3237
 7099TIP3    H221234   0.272   3.905   5.226  0.4548  0.1508 -0.3012
 7100TIP3   OH221235   7.401   3.288   4.823 -0.2426 -0.1076  0.5226
 7100TIP3    H121236   7.436   3.244   4.745  0.2079 -0.4932  0.9372
 7100TIP3    H221237   7.392   3.379   4.796 -1.5783 -0.5199 -0.4774
 7101TIP3   OH221238   7.947   0.506   0.630 -0.1982 -0.4244  0.0378
 7101TIP3    H121239   7.857   0.535   0.616 -0.1665  0.3542  1.3370
 7101TIP3    H221240   7.997   0.546   0.559 -1.0640 -1.8472 -1.3923
 7102TIP3   OH221241   7.998   6.363   4.048  0.2850 -0.4597 -0.0113
 7102TIP3    H121242   7.907   6.351   4.020  0.1583  0.8556 -0.1838
 7102TIP3    H221243   7.993   6.374   4.143  0.3073 -0.8101  0.0312
 7103TIP3   OH221244   1.730   6.237   1.477  0.1908 -0.1357 -0.1762
 7103TIP3    H121245   1.766   6.250   1.390  1.3626 -0.6051  0.2222
 7103TIP3    H221246   1.650   6.186   1.463  0.8896 -1.0466 -0.9039
 7104TIP3   OH221247   7.452   3.359   5.100  0.0507  0.1394  0.2097
 7104TIP3    H121248   7.373   3.413   5.088  0.8869  1.1124 -1.0718
 7104TIP3    H221249   7.485   3.346   5.011  1.0895 -0.6498  0.7004
 7105TIP3   OH221250   8.067   6.095   4.365 -0.0645 -0.1555 -0.0566
 7105TIP3    H121251   8.065   6.111   4.270  1.3900 -0.5748 -0.1678
 7105TIP3    H221252   8.130   6.024   4.376  0.4796  0.5141  1.3136
 7106TIP3   OH221253   0.473   1.950   5.215  0.4085  0.0366 -0.0904
 7106TIP3    H121254   0.396   2.004   5.201  0.4082 -0.0703 -0.5222
 7106TIP3    H221255   0.447   1.863   5.183  0.7337  0.0241 -0.3263
 7107TIP3   OH221256   7.689   1.849   3.981  0.2313  0.4957  0.2527
 7107TIP3    H121257   7.659   1.774   4.032  0.4036 -0.1808 -0.6165
 7107TIP3    H221258   7.704   1.813   3.893  0.8471  1.4342 -0.0288
 7108TIP3   OH221259   2.155   3.971   4.297  0.0779 -0.4252  0.0695
 7108TIP3    H121260   2.103   4.039   4.340  1.1293  0.4864 -0.0799
 7108TIP3    H221261   2.177   4.009   4.212  1.6105 -0.4851  0.4216
 7109TIP3   OH221262   7.091   4.027   5.418 -0.6895 -0.4588 -0.0713
 7109TIP3    H121263   7.106   3.987   5.332  2.1469 -0.7929  0.5264
 7109TIP3    H221264   7.026   3.970   5.459  0.3064 -2.1356 -0.7775
 7110TIP3   OH221265   0.282   1.280   5.388 -0.5808  0.1381  0.3343
 7110TIP3    H121266   0.189   1.296   5.371 -0.8374 -0.3903  1.2532
 7110TIP3    H221267   0.290   1.185   5.390 -0.2275  0.1855  1.3613
 7111TIP3   OH221268   0.706   3.327   4.992  0.0680 -0.1514 -0.1583
 7111TIP3    H121269   0.720   3.233   5.007  1.2802  0.4186  2.4935
 7111TIP3    H221270   0.616   3.343   5.021  0.1164 -0.3350  0.0901
 7112TIP3   OH221271   2.129   3.642   4.004 -0.1611  0.4044 -0.1160
 7112TIP3    H121272   2.059   3.599   3.955 -1.0208  1.1978  0.4054
 7112TIP3    H221273   2.193   3.572   4.020 -0.1424  0.0048 -1.8454
 7113TIP3   OH221274   2.631   2.240   5.604  0.2918  0.0017  0.1716
 7113TIP3    H121275   2.720   2.222   5.633  0.0254 -0.6779  0.5616
 7113TIP3    H221276   2.617   2.182   5.530  0.2409  0.2567 -0.0215
 7114TIP3   OH221277  -0.019   5.618   4.966 -0.3339 -0.2071 -0.4892
 7114TIP3    H121278   0.032   5.629   5.046 -0.2373 -0.4945 -0.5081
 7114TIP3    H221279   0.041   5.573   4.906 -1.3232 -2.5197  0.2121
 7115TIP3   OH221280   1.763   3.694   6.448 -0.4028  0.2389  0.3749
 7115TIP3    H121281   1.848   3.694   6.404 -0.5384 -0.5546  0.1172
 7115TIP3    H221282   1.710   3.755   6.397 -0.3630 -0.1915 -0.1835
 7116TIP3   OH221283   0.825   3.741   4.961 -0.3276 -0.2182 -0.2022
 7116TIP3    H121284   0.888   3.771   5.026  0.1022 -0.8773 -0.3043
 7116TIP3    H221285   0.878   3.699   4.894 -0.6579  1.6716 -1.6796
 7117TIP3   OH221286   7.849   3.046   5.781 -0.5268 -0.5306  0.2219
 7117TIP3    H121287   7.910   3.039   5.708 -1.1232 -0.8920 -0.2534
 7117TIP3    H221288   7.766   3.070   5.740 -0.4545  1.0384  0.9736
 7118TIP3   OH221289   5.947   3.716   5.965 -0.0562  0.1865 -0.4071
 7118TIP3    H121290   6.009   3.774   6.010 -0.8439 -1.4888  3.0098
 7118TIP3    H221291   5.868   3.770   5.954  0.5806  1.0116 -1.0041
 7119TIP3   OH221292   3.730   3.895   6.470 -0.2575 -0.5735  0.2857
 7119TIP3    H121293   3.775   3.817   6.438 -0.4859 -0.1565 -1.1161
 7119TIP3    H221294   3.778   3.921   6.548  0.5472 -1.4277  0.0762
 7120TIP3   OH221295   2.226   2.855   6.826  0.5605 -0.0168 -0.3085
 7120TIP3    H121296   2.182   2.850   6.741  0.9340 -1.3563 -0.4428
 7120TIP3    H221297   2.319   2.846   6.806  0.6105 -0.8607  0.2725
 7121TIP3   OH221298   1.329   4.618   4.382 -0.6506  0.0957 -0.1144
 7121TIP3    H121299   1.360   4.528   4.370  1.4551  0.9129 -1.1034
 7121TIP3    H221300   1.314   4.627   4.476  2.2102 -0.3295  0.4085
 7122TIP3   OH221301   2.173   2.689   5.715  0.4482 -0.1420 -0.1040
 7122TIP3    H121302   2.160   2.690   5.620 -2.1178  0.7383  0.2067
 7122TIP3    H221303   2.189   2.781   5.737  0.1906 -0.2149  0.3894
 7123TIP3   OH221304   1.697   4.516   6.514  0.3492  0.4222  0.2814
 7123TIP3    H121305   1.729   4.553   6.432 -0.9792 -0.8155 -0.8344
 7123TIP3    H221306   1.766   4.458   6.544 -0.7359 -2.1394 -2.0378
 7124TIP3   OH221307   1.143   4.177   3.336  0.0892  0.1180  0.2752
 7124TIP3    H121308   1.170   4.237   3.266 -1.7533 -0.0950 -0.6546
 7124TIP3    H221309   1.134   4.092   3.293 -2.9676  0.3786  0.3143
 7125TIP3   OH221310   1.392   4.366   6.298 -0.0570 -0.0944 -0.3968
 7125TIP3    H121311   1.389   4.444   6.353  0.3877 -1.2520  1.3350
 7125TIP3    H221312   1.367   4.295   6.357 -0.8113 -1.2231 -2.0260
 7126TIP3   OH221313   5.150   1.831   0.910  0.2945  0.3963 -0.0589
 7126TIP3    H121314   5.236   1.830   0.953 -0.7972 -0.1991  2.1948
 7126TIP3    H221315   5.098   1.891   0.964 -1.0818 -0.2546 -0.6483
 7127TIP3   OH221316   0.219   4.485   5.354  0.0352 -0.4344 -0.4959
 7127TIP3    H121317   0.221   4.391   5.339 -0.2048 -0.2597 -1.6352
 7127TIP3    H221318   0.300   4.503   5.403  0.0913 -1.2239 -0.2959
 7128TIP3   OH221319   0.024   4.416   2.624  0.3750  0.3828 -0.5646
 7128TIP3    H121320   0.043   4.466   2.703 -0.2600  0.3255 -0.3717
 7128TIP3    H221321  -0.011   4.481   2.563  0.2794  0.3169 -0.5800
 7129TIP3   OH221322   2.643   2.862   4.231 -0.0296  0.4851  0.2118
 7129TIP3    H121323   2.607   2.773   4.238  1.6479 -0.2759 -0.4284
 7129TIP3    H221324   2.579   2.910   4.179 -1.1164 -0.2502  0.8500
 7130TIP3   OH221325   7.195   0.189   0.102 -0.3824 -0.2339 -0.0553
 7130TIP3    H121326   7.122   0.233   0.059 -1.3691 -2.5353 -0.8618
 7130TIP3    H221327   7.164   0.099   0.115  2.0892 -1.1040  0.1323
 7131TIP3   OH221328   0.872   3.944   4.275  0.1543 -0.6323 -0.5873
 7131TIP3    H121329   0.833   4.022   4.235 -0.7205 -0.2047  1.0643
 7131TIP3    H221330   0.962   3.969   4.295  0.1690 -0.3754 -0.9785
 7132TIP3   OH221331   7.485   0.827   0.034 -0.2267  0.1760 -0.3610
 7132TIP3    H121332   7.449   0.772  -0.036  1.9109 -2.0080  0.2058
 7132TIP3    H221333   7.576   0.840   0.010 -1.0597  4.9613 -1.3365
 7133TIP3   OH221334   2.080   3.792   5.520 -0.3307 -0.8187  0.2802
 7133TIP3    H121335   2.120   3.847   5.453 -0.9964  0.7757  1.1532
 7133TIP3    H221336   1.994   3.831   5.535 -0.0187 -0.8576  2.3791
 7134TIP3   OH221337   1.499   4.289   4.807  0.5581  0.0891 -0.3275
 7134TIP3    H121338   1.593   4.271   4.804  0.7941  1.1938  0.0533
 7134TIP3    H221339   1.484   4.328   4.893 -0.1608  0.3909 -0.5780
 7135TIP3   OH221340   1.448   3.114   3.549  0.4823 -0.1158  0.0022
 7135TIP3    H121341   1.436   3.032   3.597 -3.3174  0.5906  0.3779
 7135TIP3    H221342   1.426   3.093   3.459  0.2739  0.3090 -0.0466
 7136TIP3   OH221343   7.220   3.240   6.038 -0.3047  0.6917  0.6239
 7136TIP3    H121344   7.240   3.243   6.132  0.7898 -0.4322  0.4487
 7136TIP3    H221345   7.138   3.192   6.033  0.1685 -0.1767  0.9537
 7137TIP3   OH221346   8.159   5.962   1.843 -0.2733  0.3028  0.1678
 7137TIP3    H121347   8.197   5.944   1.757  0.3629  2.0928  0.0512
 7137TIP3    H221348   8.175   5.882   1.894 -1.3256 -1.0565 -1.5922
 7138TIP3   OH221349   6.625   7.096   0.326 -0.1916 -0.3958  0.5323
 7138TIP3    H121350   6.658   7.007   0.339 -0.5907 -0.7071 -0.5006
 7138TIP3    H221351   6.533   7.091   0.352 -0.0390 -0.1179  1.1225
 7139TIP3   OH221352   7.463   0.465   0.149 -0.1424 -0.1737 -0.4550
 7139TIP3    H121353   7.492   0.398   0.087  0.3433  0.9728 -1.4875
 7139TIP3    H221354   7.371   0.480   0.125  0.0096  0.1817 -0.8233
 7140TIP3   OH221355   6.212   3.663   4.919 -0.0201  0.1866  0.2850
 7140TIP3    H121356   6.217   3.567   4.922  0.8575  0.1872 -0.6618
 7140TIP3    H221357   6.120   3.682   4.903 -0.2363 -0.4907  0.7037
 7141TIP3   OH221358   8.411   2.660   5.176 -0.3979  0.1448 -0.1524
 7141TIP3    H121359   8.340   2.647   5.113  0.0205 -1.3881 -0.3293
 7141TIP3    H221360   8.490   2.634   5.129  0.1018  0.4171  0.5299
 7142TIP3   OH221361   1.272   3.801   5.484 -0.2069  0.0514 -0.4870
 7142TIP3    H121362   1.199   3.863   5.491 -1.0511 -1.0982  0.8769
 7142TIP3    H221363   1.350   3.854   5.503 -0.4885  1.6139 -3.3219
 7143TIP3   OH221364   7.504   1.721   0.174 -0.0609 -0.2108  0.1250
 7143TIP3    H121365   7.480   1.746   0.263 -0.6650 -0.9537  0.1777
 7143TIP3    H221366   7.548   1.798   0.138  1.3940 -0.3461  1.5185
 7144TIP3   OH221367   1.092   2.117   6.649  0.5341  0.0459 -0.1187
 7144TIP3    H121368   1.082   2.044   6.587 -0.2358 -0.9354  1.1466
 7144TIP3    H221369   1.006   2.126   6.690  0.5884  1.7557 -0.3351
 7145TIP3   OH221370   0.594   3.936   3.440 -0.4803  0.0982 -0.2061
 7145TIP3    H121371   0.516   3.988   3.460 -1.2852 -1.2380  0.2179
 7145TIP3    H221372   0.649   3.944   3.518 -0.7338  0.0822 -0.0252
 7146TIP3   OH221373   0.503   2.817   6.012  0.1423  0.6345 -0.1426
 7146TIP3    H121374   0.443   2.781   6.077 -0.7159  0.7433 -0.8704
 7146TIP3    H221375   0.565   2.745   5.996  0.0447  0.4242  0.3985
 7147TIP3   OH221376   2.273   4.345   5.518  0.6166 -0.2540  0.2237
 7147TIP3    H121377   2.331   4.272   5.540  0.2377 -0.3822  0.8147
 7147TIP3    H221378   2.186   4.306   5.514  0.5847 -0.0930 -0.8127
 7148TIP3   OH221379   1.622   4.357   5.824  0.1109 -0.2539  0.6292
 7148TIP3    H121380   1.651   4.436   5.870 -1.4960  1.6815 -1.5576
 7148TIP3    H221381   1.575   4.306   5.890 -0.5118  1.5315  1.5827
 7149TIP3   OH221382   7.709   2.476   5.577 -0.4979 -0.3562  0.4137
 7149TIP3    H121383   7.642   2.489   5.509  0.7870  0.8801 -0.6572
 7149TIP3    H221384   7.724   2.564   5.613  0.9498 -0.5115  0.2305
 7150TIP3   OH221385   7.708   4.686   6.323  0.6733  0.2636 -0.5328
 7150TIP3    H121386   7.638   4.752   6.325  0.3497 -0.0236 -2.0873
 7150TIP3    H221387   7.754   4.702   6.240  2.4078  0.3963  0.4303
 7151TIP3   OH221388   7.406   0.287   0.658  0.0879  0.6769 -0.5666
 7151TIP3    H121389   7.452   0.203   0.655  0.5336  0.8909 -0.0050
 7151TIP3    H221390   7.320   0.266   0.694  0.4604  0.5623  0.2768
 7152TIP3   OH221391   2.594   3.164   6.079  0.2588  0.5911 -0.1985
 7152TIP3    H121392   2.654   3.176   6.153 -1.9068  2.9478  1.2735
 7152TIP3    H221393   2.528   3.104   6.112 -0.3641  1.1449 -0.4308
 7153TIP3   OH221394   7.294   3.364   4.161 -0.5874  0.5900 -0.2569
 7153TIP3    H121395   7.356   3.436   4.155 -0.0626  0.1378 -0.2451
 7153TIP3    H221396   7.327   3.298   4.100 -1.0196  0.3215 -0.2090
 7154TIP3   OH221397   4.021   7.951   0.547 -0.1394  0.0562 -0.5080
 7154TIP3    H121398   3.969   7.916   0.619  0.8110  0.5550  0.4295
 7154TIP3    H221399   4.019   8.046   0.560  2.5544  0.0155  0.6724
 7155TIP3   OH221400   2.268   1.633   6.654  0.0252 -0.8892 -0.2826
 7155TIP3    H121401   2.349   1.635   6.704 -1.7064  1.0142  2.6426
 7155TIP3    H221402   2.199   1.634   6.720 -2.4450 -3.8356 -2.6512
 7156TIP3   OH221403   0.100   2.945   6.743 -0.0239  0.2481 -0.2881
 7156TIP3    H121404   0.038   2.932   6.815  0.6230  0.6571  0.3547
 7156TIP3    H221405   0.131   2.857   6.721  1.4113  0.2847  1.4143
 7157TIP3   OH221406   6.000   2.569   4.884  0.2681 -0.6070 -0.6261
 7157TIP3    H121407   5.986   2.567   4.979  1.8200  0.1666 -0.3756
 7157TIP3    H221408   5.950   2.493   4.852 -0.5943 -0.6512  0.7508
 7158TIP3   OH221409   2.066   6.837   6.071 -0.1515  0.3832 -0.3227
 7158TIP3    H121410   1.971   6.839   6.059 -0.5162 -1.0708  2.0096
 7158TIP3    H221411   2.078   6.797   6.157  2.5553  1.4469 -0.1715
 7159TIP3   OH221412   1.935   3.346   6.224 -0.8607  0.3470  0.2893
 7159TIP3    H121413   1.967   3.415   6.165 -1.9350 -0.1241 -0.8560
 7159TIP3    H221414   1.986   3.269   6.202 -0.8749  0.3154  0.3656
 7160TIP3   OH221415   1.271   5.376   5.717  0.1221  0.4272  0.6579
 7160TIP3    H121416   1.178   5.398   5.727  0.7532  2.3963  2.6423
 7160TIP3    H221417   1.296   5.411   5.632 -0.6681  0.9558  0.6450
 7161TIP3   OH221418   8.240   2.277   5.900  0.2455 -0.6582  0.1035
 7161TIP3    H121419   8.246   2.182   5.904  0.1052 -0.6836 -0.2581
 7161TIP3    H221420   8.326   2.309   5.927  0.3072 -0.8868  0.1787
 7162TIP3   OH221421   0.982   2.499   4.242 -0.6911 -0.5679 -0.3343
 7162TIP3    H121422   1.056   2.438   4.241 -0.1357  0.0886 -3.2127
 7162TIP3    H221423   1.022   2.586   4.243 -1.4513 -0.2130 -0.3217
 7163TIP3   OH221424   2.916   4.075   6.361 -0.3051  0.3732  0.0609
 7163TIP3    H121425   2.987   4.021   6.326  0.2088 -0.5486  2.4149
 7163TIP3    H221426   2.908   4.047   6.452 -1.8741  2.3848  0.5714
 7164TIP3   OH221427   1.307   3.850   6.495  0.1625 -0.0946  0.5208
 7164TIP3    H121428   1.271   3.915   6.434 -1.7680  0.4072  2.1226
 7164TIP3    H221429   1.381   3.894   6.536  1.0055 -0.1656 -0.9040
 7165TIP3   OH221430   0.785   4.054   6.542  0.3085 -0.2956 -0.2419
 7165TIP3    H121431   0.785   4.138   6.588  0.3943 -0.6127  0.3443
 7165TIP3    H221432   0.765   3.989   6.610 -0.6870 -0.6614 -0.8674
 7166TIP3   OH221433   8.476   3.233   5.262 -0.0613 -1.1291  0.1857
 7166TIP3    H121434   8.432   3.255   5.344 -0.7229 -0.3737 -0.3694
 7166TIP3    H221435   8.466   3.138   5.254  0.3171 -1.2521  1.1565
 7167TIP3   OH221436   1.411   2.956   4.498 -0.6118 -0.2386  0.8645
 7167TIP3    H121437   1.457   2.888   4.449  1.0704 -0.0719  2.1882
 7167TIP3    H221438   1.350   2.908   4.554 -0.0750 -0.6162  1.1335
 7168TIP3   OH221439   3.835   7.665   0.149 -0.4166 -0.1616  0.1662
 7168TIP3    H121440   3.856   7.577   0.179  0.8127  0.0692 -0.0064
 7168TIP3    H221441   3.860   7.666   0.056 -0.7124  0.2748  0.0876
 7169TIP3   OH221442   2.393   5.348   5.620 -0.1182  0.0586 -0.2943
 7169TIP3    H121443   2.343   5.355   5.701 -0.1342 -1.2402 -0.1741
 7169TIP3    H221444   2.377   5.259   5.589  0.6146  0.2406 -1.2469
 7170TIP3   OH221445   1.365   4.732   5.755 -0.0673  0.2988  0.7603
 7170TIP3    H121446   1.374   4.825   5.738 -0.8193  0.3031  0.3635
 7170TIP3    H221447   1.450   4.706   5.791 -0.3519  1.4228  2.2831
 7171TIP3   OH221448   2.451   4.410   2.559 -0.1397 -0.4743  0.0805
 7171TIP3    H121449   2.432   4.333   2.612 -0.0337 -0.7563 -0.2917
 7171TIP3    H221450   2.405   4.482   2.603 -0.5970 -0.8299  0.1759
 7172TIP3   OH221451   0.193   2.884   5.664  0.2117  0.2487 -0.3147
 7172TIP3    H121452   0.201   2.789   5.664 -1.1623  0.1024 -2.5281
 7172TIP3    H221453   0.134   2.904   5.737  0.3001 -0.6085 -0.0072
 7173TIP3   OH221454   1.994   2.011   2.834 -0.5898 -0.4542  0.3953
 7173TIP3    H121455   1.919   2.066   2.857 -1.0671 -1.0897  0.3670
 7173TIP3    H221456   1.960   1.921   2.838  0.2023 -0.7479  0.5017
 7174TIP3   OH221457   8.151   2.336   6.183 -0.3545 -0.3008  0.0951
 7174TIP3    H121458   8.167   2.310   6.092 -0.1626  1.6986 -0.4766
 7174TIP3    H221459   8.064   2.377   6.180  0.1666  0.8530  0.5606
 7175TIP3   OH221460   8.014   2.818   3.067  0.7176  0.1779 -0.8712
 7175TIP3    H121461   7.960   2.843   3.142 -0.2884 -1.3680 -1.0563
 7175TIP3    H221462   7.964   2.846   2.990  0.7553 -0.1222 -1.0074
 7176TIP3   OH221463   5.929   2.006   5.064 -0.0558 -0.7271 -0.0377
 7176TIP3    H121464   5.979   1.971   4.990  0.5980 -1.9419  0.9687
 7176TIP3    H221465   5.846   1.957   5.062  0.7302 -2.1394  1.1772
 7177TIP3   OH221466   1.900   2.816   6.159 -0.1440  0.2791  0.4149
 7177TIP3    H121467   1.955   2.829   6.236 -1.1984  0.8628  1.0649
 7177TIP3    H221468   1.929   2.885   6.098  0.1929  0.2628  0.5533
 7178TIP3   OH221469   2.383   4.622   3.545  0.6543 -0.6624  0.3459
 7178TIP3    H121470   2.339   4.607   3.629  1.3776 -0.9826  0.6772
 7178TIP3    H221471   2.314   4.654   3.487  0.4852  1.1973  1.5352
 7179TIP3   OH221472   8.126   1.073   0.167 -0.3021  0.0898  0.1524
 7179TIP3    H121473   8.165   1.098   0.083 -0.4626 -1.3262 -0.3577
 7179TIP3    H221474   8.036   1.102   0.161 -0.1393  0.5896  0.0990
 7180TIP3   OH221475   7.643   2.499   2.653 -0.6119  0.0798 -0.3439
 7180TIP3    H121476   7.725   2.539   2.679 -0.2541 -1.2824  0.6523
 7180TIP3    H221477   7.664   2.451   2.573 -0.4006 -0.4344  0.0240
 7181TIP3   OH221478   0.285   5.333   5.516  0.3692  0.1799  0.4785
 7181TIP3    H121479   0.344   5.408   5.517  1.0966 -0.3802  2.9075
 7181TIP3    H221480   0.197   5.371   5.520  0.7798  0.9179  3.9294
 7182TIP3   OH221481   8.137   5.705   5.111 -0.3053 -0.2123 -0.3992
 7182TIP3    H121482   8.155   5.652   5.189  0.4166 -0.2419 -0.5856
 7182TIP3    H221483   8.154   5.795   5.139  0.2423 -0.2515 -0.6102
 7183TIP3   OH221484   6.209   3.208   3.666 -0.4558  0.1953  0.0849
 7183TIP3    H121485   6.158   3.251   3.598 -2.2260 -1.6853  0.1858
 7183TIP3    H221486   6.290   3.183   3.623 -0.8932  0.4359 -0.8939
 7184TIP3   OH221487   8.108   1.498   5.865  0.2191 -0.2982  0.3971
 7184TIP3    H121488   8.159   1.454   5.796  0.9398 -0.5108  1.0563
 7184TIP3    H221489   8.055   1.428   5.903  0.6412 -0.4116  0.7895
 7185TIP3   OH221490   1.881   4.546   4.211  0.1482  0.3937  0.2947
 7185TIP3    H121491   1.936   4.566   4.135  1.2887  1.4995  1.3757
 7185TIP3    H221492   1.791   4.562   4.181  0.0447 -4.4194 -2.4545
 7186TIP3   OH221493   8.245   5.851   6.601  0.2510 -0.2687  0.4749
 7186TIP3    H121494   8.195   5.799   6.664 -2.1866  1.4932  0.0778
 7186TIP3    H221495   8.198   5.934   6.596  2.1891  0.7671 -1.3487
 7187TIP3   OH221496   2.447   3.727   3.332 -0.5718 -0.1889 -0.0252
 7187TIP3    H121497   2.368   3.766   3.370 -0.3128 -0.4841  0.8115
 7187TIP3    H221498   2.456   3.643   3.377  0.2526 -0.1316 -0.0903
 7188TIP3   OH221499   1.471   3.406   3.638  0.1750 -0.1340 -0.7960
 7188TIP3    H121500   1.463   3.311   3.630 -0.7645 -0.0852 -0.5681
 7188TIP3    H221501   1.502   3.420   3.728 -1.0861 -0.1714 -0.3465
 7189TIP3   OH221502   1.442   3.267   6.184  0.4699  0.3240  0.3384
 7189TIP3    H121503   1.516   3.327   6.176  0.7235 -0.1142 -0.6847
 7189TIP3    H221504   1.412   3.278   6.274  0.8336  1.6085  0.3072
 7190TIP3   OH221505   0.139   4.011   3.266  1.0465  0.0871 -0.2488
 7190TIP3    H121506   0.205   4.018   3.196  0.9787 -1.1735 -0.4529
 7190TIP3    H221507   0.077   3.946   3.234 -0.8896  1.9921 -0.5026
 7191TIP3   OH221508   0.466   1.205   5.742 -0.3489  0.1519  0.2995
 7191TIP3    H121509   0.404   1.275   5.762  0.2087  0.8922 -0.4698
 7191TIP3    H221510   0.486   1.217   5.649  1.4586  0.3703  0.6923
 7192TIP3   OH221511   1.433   3.345   4.881  0.3871  0.3822  0.3950
 7192TIP3    H121512   1.405   3.257   4.858  0.5185  0.5277 -0.3169
 7192TIP3    H221513   1.353   3.397   4.877  0.5821  0.6114 -0.7396
 7193TIP3   OH221514   2.995   4.647   2.487 -0.5259 -0.3134 -0.3541
 7193TIP3    H121515   2.903   4.673   2.481 -0.3138  0.3151 -0.9598
 7193TIP3    H221516   3.011   4.594   2.409  0.2384  1.5655 -1.5179
 7194TIP3   OH221517   0.576   3.262   5.973  0.6012  0.3749 -0.0247
 7194TIP3    H121518   0.625   3.185   6.001 -1.3873 -0.8433  0.2083
 7194TIP3    H221519   0.579   3.259   5.878 -0.7631 -0.8767 -0.0466
 7195TIP3   OH221520   0.119   3.784   4.033 -0.6702 -0.2989 -0.0719
 7195TIP3    H121521   0.180   3.711   4.018 -1.0739 -0.9949  1.5334
 7195TIP3    H221522   0.149   3.824   4.114 -1.4222  0.3166 -0.0965
 7196TIP3   OH221523   2.074   5.108   6.446  0.2109  0.0409 -0.7126
 7196TIP3    H121524   2.136   5.178   6.467  0.9229 -0.7889 -0.0040
 7196TIP3    H221525   2.039   5.081   6.531 -1.3045  0.6439 -1.1181
 7197TIP3   OH221526   7.611   1.191   0.123  0.7219  0.0222 -0.2312
 7197TIP3    H121527   7.577   1.213   0.209  1.4899 -1.5906  0.5005
 7197TIP3    H221528   7.536   1.154   0.076  0.5272  0.0142  0.0862
 7198TIP3   OH221529   0.724   2.754   4.048 -0.2376 -1.0021  0.0148
 7198TIP3    H121530   0.808   2.783   4.082  0.4388 -3.1125  0.1665
 7198TIP3    H221531   0.699   2.822   3.985  0.9285  0.3026  0.9349
 7199TIP3   OH221532   1.106   3.252   6.721  0.3149  0.1920  0.2931
 7199TIP3    H121533   1.186   3.226   6.766  1.0600 -0.1992 -1.2087
 7199TIP3    H221534   1.035   3.222   6.778  1.2066 -1.9083  0.3445
 7200TIP3   OH221535   3.117   5.857   0.597 -0.0775 -0.4441  0.3137
 7200TIP3    H121536   3.142   5.765   0.602  1.6554 -0.0205 -0.2139
 7200TIP3    H221537   3.023   5.857   0.616 -0.1411 -2.3306  0.1282
 7201TIP3   OH221538   1.719   2.685   4.771 -0.3181  0.5515  0.3140
 7201TIP3    H121539   1.655   2.618   4.797  0.9574 -0.1975  1.6354
 7201TIP3    H221540   1.795   2.636   4.741  1.5118  1.3090  3.4487
 7202TIP3   OH221541   6.117   3.259   6.036 -0.0112  0.2471 -0.1068
 7202TIP3    H121542   6.126   3.252   5.941  0.1554  2.8925 -0.3076
 7202TIP3    H221543   6.034   3.304   6.049 -0.8037 -1.4882  1.0778
 7203TIP3   OH221544   0.367   3.670   4.072 -0.1025  0.1416  0.0377
 7203TIP3    H121545   0.359   3.727   4.149  1.3375 -1.2568  1.2449
 7203TIP3    H221546   0.423   3.720   4.012  0.9567  0.1444  0.9939
 7204TIP3   OH221547   2.867   4.317   5.662  0.1674  0.2039  0.1821
 7204TIP3    H121548   2.907   4.242   5.706  1.7224  0.6847 -0.4027
 7204TIP3    H221549   2.848   4.286   5.574 -0.8711 -0.0479  0.4774
 7205TIP3   OH221550   8.042   4.622   4.429  0.1191  0.1781 -0.4134
 7205TIP3    H121551   8.071   4.542   4.474 -2.3920 -1.5613 -1.7687
 7205TIP3    H221552   8.093   4.623   4.348  0.0201 -0.1707 -0.4845
 7206TIP3   OH221553   7.070   4.173   5.012  0.3107 -0.6237  0.0591
 7206TIP3    H121554   7.031   4.249   5.054  2.5093  0.5596 -0.0210
 7206TIP3    H221555   7.012   4.155   4.937  1.4521  2.8585 -1.7360
 7207TIP3   OH221556   0.910   5.765   3.862 -0.4039  0.2019  0.0905
 7207TIP3    H121557   0.875   5.768   3.951 -1.7642  3.5643 -0.5109
 7207TIP3    H221558   0.990   5.818   3.866 -1.1671  1.4427 -0.9733
 7208TIP3   OH221559   2.075   4.818   5.674  0.2927 -0.2173 -0.3364
 7208TIP3    H121560   2.099   4.828   5.766 -0.8980  0.6783 -0.1162
 7208TIP3    H221561   2.045   4.728   5.667  1.1462 -0.5297 -0.0287
 7209TIP3   OH221562   6.394   2.523   6.041  0.0248  0.5484 -0.2004
 7209TIP3    H121563   6.332   2.506   6.112 -1.2681  0.1636 -1.3999
 7209TIP3    H221564   6.357   2.598   5.994  0.2621  0.0657 -1.1665
 7210TIP3   OH221565   7.821   3.181   6.012  0.3547 -0.0534  0.3867
 7210TIP3    H121566   7.829   3.127   6.091 -0.9971  1.9184  1.9421
 7210TIP3    H221567   7.847   3.124   5.940  0.0393 -2.4053  2.0975
 7211TIP3   OH221568   8.131   4.076   4.934 -0.2793 -0.3092 -0.0910
 7211TIP3    H121569   8.100   4.020   5.005 -0.4003 -0.7192 -0.4660
 7211TIP3    H221570   8.051   4.102   4.888 -0.1932 -0.1146 -0.1279
 7212TIP3   OH221571   4.804   6.806   1.269 -0.2600  0.3542 -0.5088
 7212TIP3    H121572   4.891   6.845   1.278 -0.0670 -0.5357  2.0198
 7212TIP3    H221573   4.819   6.724   1.223  0.0576  0.7918 -1.1950
 7213TIP3   OH221574   8.002   3.689   4.328 -0.2132 -0.7613  0.2956
 7213TIP3    H121575   7.908   3.676   4.328 -0.2871 -0.4636  2.5681
 7213TIP3    H221576   8.039   3.605   4.301 -1.1181 -0.8811 -0.5715
 7214TIP3   OH221577   7.621   6.411   0.423 -0.2751 -0.5935  0.4891
 7214TIP3    H121578   7.618   6.469   0.347  0.0387  0.0347  0.9532
 7214TIP3    H221579   7.586   6.328   0.391 -0.9617 -0.0815 -0.1192
 7215TIP3   OH221580   1.119   3.503   5.808  0.1640  1.2484  0.1978
 7215TIP3    H121581   1.136   3.428   5.750 -1.5514  0.2686  0.8832
 7215TIP3    H221582   1.071   3.464   5.881 -1.3629  3.1414  0.2236
 7216TIP3   OH221583   1.407   2.691   3.376 -0.4112  0.3188 -0.4330
 7216TIP3    H121584   1.403   2.734   3.290 -1.6823  1.6818  0.2889
 7216TIP3    H221585   1.318   2.657   3.389 -0.3184  0.4426  0.5091
 7217TIP3   OH221586   1.534   4.009   5.768  0.8570 -0.1888  0.1977
 7217TIP3    H121587   1.502   4.099   5.775  0.9367 -0.1559  0.1381
 7217TIP3    H221588   1.481   3.970   5.699  1.2889  0.0116 -0.2467
 7218TIP3   OH221589   4.409   7.920   0.442 -0.0301 -0.1680  0.0629
 7218TIP3    H121590   4.465   7.993   0.414 -0.2637 -0.0387 -0.0764
 7218TIP3    H221591   4.462   7.871   0.504 -0.2124  0.6716  0.9026
 7219TIP3   OH221592   1.654   1.736   4.376 -0.6029  0.0754  0.7263
 7219TIP3    H121593   1.584   1.711   4.315 -0.2041 -0.7575  0.5961
 7219TIP3    H221594   1.682   1.653   4.415 -0.4738  0.5414  1.6296
 7220TIP3   OH221595   1.879   4.812   3.694  0.2646 -0.1815  0.2220
 7220TIP3    H121596   1.811   4.761   3.650  1.2883 -1.1890 -0.2127
 7220TIP3    H221597   1.884   4.893   3.643  2.2140 -1.7930 -2.2385
 7221TIP3   OH221598   0.101   2.931   3.939  0.1592  0.1098  0.2612
 7221TIP3    H121599   0.092   2.870   4.013  0.1393  0.5564  0.6253
 7221TIP3    H221600   0.068   2.882   3.864  0.9468 -0.6423  0.3932
 7222TIP3   OH221601   1.019   5.031   5.485  0.5042 -0.3671  0.6712
 7222TIP3    H121602   1.082   5.100   5.464 -1.5585  1.5008  0.5494
 7222TIP3    H221603   0.954   5.073   5.541 -1.2246 -2.0037 -0.0392
 7223TIP3   OH221604   0.532   4.714   4.937  0.1769  0.1241 -0.5564
 7223TIP3    H121605   0.610   4.665   4.911  0.2020  1.1178 -2.4655
 7223TIP3    H221606   0.458   4.659   4.911  0.2191 -0.1167 -0.1747
 7224TIP3   OH221607   2.241   4.571   5.650 -0.1947  0.3534 -0.3068
 7224TIP3    H121608   2.282   4.534   5.728  0.4682  1.9093  0.1060
 7224TIP3    H221609   2.223   4.495   5.594  1.4452 -0.5586  0.3527
 7225TIP3   OH221610   2.108   3.186   3.296  0.3946  0.3710  0.4910
 7225TIP3    H121611   2.112   3.091   3.289  1.3731  0.5069 -1.1825
 7225TIP3    H221612   2.019   3.209   3.271  0.2995 -0.0841  0.4116
 7226TIP3   OH221613   2.088   2.135   4.631  0.1189 -0.1530 -0.0338
 7226TIP3    H121614   2.163   2.185   4.598  0.4404  0.1498  1.1173
 7226TIP3    H221615   2.014   2.165   4.578  0.4263  1.0917  0.2183
 7227TIP3   OH221616   1.998   4.446   6.192  0.3755 -0.4344  0.5618
 7227TIP3    H121617   1.933   4.393   6.147 -1.3181 -0.7343  3.2275
 7227TIP3    H221618   1.967   4.536   6.182 -0.6563 -0.6029  2.0905
 7228TIP3   OH221619   2.103   5.349   5.064 -0.3404  0.0335 -0.3658
 7228TIP3    H121620   2.127   5.417   5.001 -2.3479  0.9195 -0.2125
 7228TIP3    H221621   2.177   5.289   5.064  1.0021  1.6561 -1.2983
 7229TIP3   OH221622   4.740   5.814   0.883 -0.7100 -0.4792  0.4966
 7229TIP3    H121623   4.750   5.846   0.793  2.0792 -2.5535  0.0152
 7229TIP3    H221624   4.654   5.848   0.911 -0.6303  2.0603 -2.1220
 7230TIP3   OH221625   4.629   8.037   0.709 -0.4200  0.6052  0.4363
 7230TIP3    H121626   4.616   7.981   0.785  1.4998  2.0992  1.9312
 7230TIP3    H221627   4.697   7.993   0.658 -1.5567 -0.2885 -0.3367
 7231TIP3   OH221628   6.213   0.389   0.567  0.0352  0.2461  0.2644
 7231TIP3    H121629   6.169   0.305   0.585  1.2493 -0.4749 -0.0464
 7231TIP3    H221630   6.231   0.425   0.654 -0.6332  0.2674  0.3999
 7232TIP3   OH221631   6.372   1.901   0.500  0.2207  0.0898  0.6197
 7232TIP3    H121632   6.393   1.960   0.428  1.7762 -2.3165 -0.9803
 7232TIP3    H221633   6.433   1.828   0.489 -1.6102 -1.7779  2.5395
 7233TIP3   OH221634   1.352   2.978   4.044 -0.2338  0.1505 -0.0850
 7233TIP3    H121635   1.322   2.943   4.127  0.4522 -1.5958 -0.5523
 7233TIP3    H221636   1.293   2.941   3.979  2.3688 -2.7437 -0.9319
 7234TIP3   OH221637   2.661   7.123   1.054  0.1808 -0.3244 -0.2118
 7234TIP3    H121638   2.716   7.082   0.988 -1.4441 -4.8321  1.0729
 7234TIP3    H221639   2.702   7.099   1.137 -0.2233  1.6544  0.5941
 7235TIP3   OH221640   1.064   3.841   5.074  0.0406  0.1463 -0.4218
 7235TIP3    H121641   1.144   3.790   5.086  0.3385  0.5069 -0.8470
 7235TIP3    H221642   1.086   3.927   5.109 -0.9294 -0.4179  1.6379
 7236TIP3   OH221643   1.374   5.141   6.168 -0.1911 -0.1539 -0.0658
 7236TIP3    H121644   1.392   5.079   6.098 -0.1110 -1.6164  1.2353
 7236TIP3    H221645   1.330   5.090   6.236  2.1982  0.5703  2.1206
 7237TIP3   OH221646   8.343   4.819   5.015  0.7577 -0.1011  0.2964
 7237TIP3    H121647   8.300   4.853   4.936  1.5653 -0.3590 -0.2590
 7237TIP3    H221648   8.275   4.767   5.058  1.0576 -2.0849 -1.5628
 7238TIP3   OH221649   0.584   4.769   5.215 -0.7385 -0.5236 -0.0995
 7238TIP3    H121650   0.552   4.744   5.129  1.0060  2.8657 -1.8545
 7238TIP3    H221651   0.518   4.831   5.248 -0.4860 -0.4087  0.1951
 7239TIP3   OH221652   0.866   5.088   5.903 -0.0037  0.3003 -0.7376
 7239TIP3    H121653   0.823   5.017   5.950 -2.2724  2.2240  0.1718
 7239TIP3    H221654   0.958   5.061   5.899  0.1618 -0.2974  4.1324
 7240TIP3   OH221655   7.504   0.348   0.993 -0.2191 -0.4202  0.1123
 7240TIP3    H121656   7.467   0.430   1.024 -2.0590 -0.9444 -0.6312
 7240TIP3    H221657   7.563   0.374   0.922 -0.1017  0.3319  0.4852
 7241TIP3   OH221658   0.828   6.548   5.365 -0.1688  0.3154 -0.1961
 7241TIP3    H121659   0.899   6.537   5.429 -0.7323  2.5795  0.8535
 7241TIP3    H221660   0.750   6.516   5.410 -0.2535  0.1707 -0.4456
 7242TIP3   OH221661   2.095   5.135   4.400  0.0521 -0.4346 -0.6062
 7242TIP3    H121662   2.074   5.222   4.365 -0.4227 -0.8691 -1.4452
 7242TIP3    H221663   2.170   5.149   4.458 -0.1509  0.5619 -0.5737
 7243TIP3   OH221664   0.692   6.150   4.381 -0.1352 -0.4298  0.3825
 7243TIP3    H121665   0.746   6.210   4.329  1.5659 -1.4839  0.9054
 7243TIP3    H221666   0.632   6.208   4.428  0.7290  0.7944  0.0195
 7244TIP3   OH221667   2.505   6.167   4.592 -0.3968 -0.1601  0.1485
 7244TIP3    H121668   2.559   6.143   4.666 -2.2508 -1.2262  1.2022
 7244TIP3    H221669   2.415   6.161   4.625 -1.1694  2.1123 -1.3625
 7245TIP3   OH221670   2.176   3.548   3.175  0.6305 -0.4622  0.2754
 7245TIP3    H121671   2.096   3.497   3.162 -1.0269  1.2253  3.4352
 7245TIP3    H221672   2.187   3.595   3.092 -1.4822 -0.9581 -0.3218
 7246TIP3   OH221673   1.234   4.881   3.142 -0.1630 -0.2472 -0.2539
 7246TIP3    H121674   1.274   4.967   3.146 -0.4678 -0.1011 -0.3223
 7246TIP3    H221675   1.205   4.864   3.232 -0.9547  0.1335 -0.4281
 7247TIP3   OH221676   0.963   3.350   6.006 -0.5065  0.2878 -0.3303
 7247TIP3    H121677   1.007   3.265   5.996 -2.1653 -1.0717  3.1119
 7247TIP3    H221678   0.887   3.345   5.947 -0.6290 -0.6546 -0.1005
 7248TIP3   OH221679   7.899   4.233   4.421 -0.8512  0.1825  0.7227
 7248TIP3    H121680   7.868   4.149   4.388 -1.2912  0.4638  0.4198
 7248TIP3    H221681   7.980   4.211   4.467 -0.8358 -0.3753  0.4451
 7249TIP3   OH221682   2.137   3.879   4.853 -0.4277  0.3328 -0.1512
 7249TIP3    H121683   2.221   3.920   4.831 -0.7315  0.7890 -0.4694
 7249TIP3    H221684   2.073   3.924   4.798 -1.1066  1.0971  1.2392
 7250TIP3   OH221685   2.043   5.048   5.278 -0.3569  0.4869  0.5300
 7250TIP3    H121686   1.993   5.047   5.360 -2.2665  0.0990 -0.6163
 7250TIP3    H221687   1.978   5.065   5.210  0.6754 -2.4207 -1.2772
 7251TIP3   OH221688   1.447   3.752   4.826 -0.2664 -0.3023 -0.6560
 7251TIP3    H121689   1.502   3.805   4.769 -1.1129  1.4763  0.1231
 7251TIP3    H221690   1.374   3.724   4.771  0.7956 -1.6664 -1.3807
 7252TIP3   OH221691   1.197   3.505   4.824 -0.0695 -0.4977  0.2426
 7252TIP3    H121692   1.127   3.510   4.889  0.3175 -4.1065  1.0626
 7252TIP3    H221693   1.157   3.457   4.751  0.9196 -0.6805 -0.1781
 7253TIP3   OH221694   1.323   3.747   5.065  0.2637  0.1088  0.5805
 7253TIP3    H121695   1.367   3.757   4.981  0.5444 -0.4774  0.6507
 7253TIP3    H221696   1.394   3.747   5.129  0.1660 -0.7470  0.7039
 7254TIP3   OH221697   1.493   4.259   6.571 -0.6915 -0.3282 -0.0301
 7254TIP3    H121698   1.547   4.338   6.572  1.5906 -1.8413  1.2221
 7254TIP3    H221699   1.418   4.280   6.625 -0.4208  1.1882 -0.2336
 7255TIP3   OH221700   1.190   5.324   4.309 -0.1558 -0.1651  0.2528
 7255TIP3    H121701   1.142   5.391   4.259 -1.6697  0.1826  2.1108
 7255TIP3    H221702   1.205   5.254   4.246  0.8227  1.5977 -1.5495
 7256TIP3   OH221703   0.898   5.060   4.184  0.1863 -0.1806  0.1313
 7256TIP3    H121704   0.872   5.106   4.264 -2.5599  0.1655 -0.9155
 7256TIP3    H221705   0.827   4.998   4.167  1.2964 -1.0819 -1.3948
 7257TIP3   OH221706   7.609   1.903   6.929  0.2502 -0.3699 -0.0411
 7257TIP3    H121707   7.649   1.988   6.915  0.0821 -0.1396  0.8470
 7257TIP3    H221708   7.536   1.900   6.868  0.4123  0.0143 -0.2520
 7258TIP3   OH221709   0.648   2.999   2.759  0.1375  0.5476  0.2111
 7258TIP3    H121710   0.645   3.060   2.685  2.7424 -0.0850 -0.4759
 7258TIP3    H221711   0.738   3.005   2.791 -0.0320 -1.7054  1.2121
 7259TIP3   OH221712   0.483   4.061   2.049 -1.0556  0.4963 -0.3476
 7259TIP3    H121713   0.470   3.967   2.031  1.5143  0.4364 -2.3505
 7259TIP3    H221714   0.552   4.063   2.115 -0.5878  0.9571 -0.8404
 7260TIP3   OH221715   1.327   3.978   4.247  0.2888  0.4611  0.0400
 7260TIP3    H121716   1.288   3.998   4.162  0.3015  1.1298  0.1900
 7260TIP3    H221717   1.299   3.888   4.265 -1.2346  0.9489  0.1768
 7261TIP3   OH221718   6.565   2.669   0.294 -0.1434  0.0868 -0.0477
 7261TIP3    H121719   6.650   2.628   0.310 -0.2702 -0.6492 -1.2241
 7261TIP3    H221720   6.553   2.727   0.369  0.7118 -0.9192  0.8955
 7262TIP3   OH221721   5.305   6.782   0.834 -0.2963 -0.2384  0.1050
 7262TIP3    H121722   5.248   6.713   0.800  0.6821 -1.6117  1.1912
 7262TIP3    H221723   5.282   6.860   0.784 -2.2491 -1.0804 -0.3193
 7263TIP3   OH221724   0.189   4.508   5.038  0.0678 -0.5050 -0.6013
 7263TIP3    H121725   0.129   4.434   5.029  1.2982 -1.4681 -0.9284
 7263TIP3    H221726   0.202   4.517   5.132 -3.6364  2.2109 -0.1982
 7264TIP3   OH221727   7.592   4.826   6.741  0.2689  0.3119  0.2345
 7264TIP3    H121728   7.644   4.758   6.698  1.4828 -0.2795  2.5899
 7264TIP3    H221729   7.592   4.899   6.678  0.9122 -1.0063 -1.3158
 7265TIP3   OH221730   2.362   3.802   6.924 -0.1166 -0.2468  0.5145
 7265TIP3    H121731   2.453   3.821   6.900 -0.3518  0.4810  0.1639
 7265TIP3    H221732   2.336   3.732   6.865 -0.4366  0.9824 -0.8451
 7266TIP3   OH221733   1.500   2.086   4.191  0.0253  0.4922 -0.1207
 7266TIP3    H121734   1.405   2.100   4.188  0.0669  0.6433 -0.7102
 7266TIP3    H221735   1.537   2.157   4.139  0.3807 -0.3238 -0.9980
 7267TIP3   OH221736   7.913   3.849   4.747  0.1987 -0.3333 -0.6697
 7267TIP3    H121737   7.863   3.768   4.741  2.0126 -1.7800  2.4327
 7267TIP3    H221738   7.873   3.897   4.819  0.8444  0.2837 -0.7146
 7268TIP3   OH221739   2.220   6.407   4.987 -0.4703 -0.5006  0.1119
 7268TIP3    H121740   2.156   6.450   4.929 -0.9196 -1.8820 -0.4430
 7268TIP3    H221741   2.200   6.440   5.074 -0.5453  0.7185 -0.3549
 7269TIP3   OH221742   0.611   3.852   4.259  0.0088  0.1866  0.1800
 7269TIP3    H121743   0.604   3.767   4.301 -0.2159 -0.2218 -0.6687
 7269TIP3    H221744   0.705   3.873   4.261  0.7400 -2.2260 -3.7303
 7270TIP3   OH221745   1.583   6.115   3.685 -0.0290 -0.3505  0.7993
 7270TIP3    H121746   1.576   6.129   3.591 -1.6290 -1.7449  0.7091
 7270TIP3    H221747   1.658   6.057   3.695 -0.8390 -1.5007  0.2573
 7271TIP3   OH221748   8.087   3.846   4.554 -0.4866 -0.3661  0.3261
 7271TIP3    H121749   8.044   3.791   4.489 -0.5730  0.3029 -0.1841
 7271TIP3    H221750   8.020   3.861   4.621 -1.9857  2.9798 -1.8174
 7272TIP3   OH221751   0.355   4.668   5.798  0.7959 -0.6505 -0.3506
 7272TIP3    H121752   0.293   4.735   5.827 -0.4573 -1.2455 -1.5625
 7272TIP3    H221753   0.441   4.707   5.812  0.0990  0.9535 -0.4115
 7273TIP3   OH221754   3.407   6.573   0.385  0.2688  0.1599 -0.0149
 7273TIP3    H121755   3.433   6.581   0.477  1.6228  0.2865 -0.3923
 7273TIP3    H221756   3.453   6.645   0.341 -1.3996  0.9009 -0.5875
 7274TIP3   OH221757   2.612   3.956   6.855  0.6111 -0.0950  0.0537
 7274TIP3    H121758   2.659   3.872   6.861  1.5796  0.3528 -1.0557
 7274TIP3    H221759   2.618   3.993   6.943 -1.5394 -2.0853  1.0798
 7275TIP3   OH221760   2.605   4.786   5.958  0.0040  0.0566 -0.5370
 7275TIP3    H121761   2.573   4.707   6.001  1.1545  0.9350  2.0527
 7275TIP3    H221762   2.698   4.769   5.943 -0.1862  0.1279 -1.8838
 7276TIP3   OH221763   0.831   2.648   5.347 -0.0899  0.1051  0.1229
 7276TIP3    H121764   0.834   2.552   5.344  1.3641  0.1417 -0.3214
 7276TIP3    H221765   0.876   2.670   5.428  0.0414  0.4115 -0.0315
 7277TIP3   OH221766   7.191   1.934   6.165 -0.1219  0.5803 -0.4194
 7277TIP3    H121767   7.124   1.980   6.215  0.0089  0.0073  0.2928
 7277TIP3    H221768   7.233   2.002   6.113 -0.2120  1.1942  0.3006
 7278TIP3   OH221769  -0.008   3.591   3.661 -0.0432 -0.1214  0.4784
 7278TIP3    H121770   0.021   3.679   3.685  0.4143  0.1140 -0.8652
 7278TIP3    H221771   0.033   3.534   3.725  1.7447  0.4130 -0.1598
 7279TIP3   OH221772   1.280   4.960   4.706  0.0752 -0.1822 -0.1525
 7279TIP3    H121773   1.188   4.935   4.712  0.0436 -0.0042  0.0895
 7279TIP3    H221774   1.298   5.008   4.787 -0.2612  1.8575 -1.2320
 7280TIP3   OH221775   8.177   1.169   5.357 -0.0167 -0.3442  0.9476
 7280TIP3    H121776   8.197   1.243   5.413  0.9503  0.3013 -0.2052
 7280TIP3    H221777   8.095   1.192   5.313 -2.3569 -2.1289  4.2193
 7281TIP3   OH221778   6.991   3.132   5.961  0.7017 -0.1718  0.2331
 7281TIP3    H121779   6.972   3.178   5.879 -0.4937 -1.1209 -0.0421
 7281TIP3    H221780   6.906   3.126   6.006  1.4585  0.8890  1.8433
 7282TIP3   OH221781   0.797   3.553   4.215 -0.2583 -0.1382  0.0868
 7282TIP3    H121782   0.852   3.595   4.282  0.1801 -1.0193  0.2922
 7282TIP3    H221783   0.709   3.585   4.233 -0.2262 -0.7371  1.4151
 7283TIP3   OH221784   0.646   2.379   3.320  0.5925 -0.2793 -0.0698
 7283TIP3    H121785   0.679   2.431   3.394  0.5573  0.0801 -0.3037
 7283TIP3    H221786   0.552   2.375   3.333  0.3503  1.4063 -1.1113
 7284TIP3   OH221787   1.254   4.979   4.996  0.3506 -0.1833 -0.4926
 7284TIP3    H121788   1.331   4.939   5.036  1.2982  1.1137 -0.9804
 7284TIP3    H221789   1.188   4.910   4.997  1.2481 -1.0548  0.6974
 7285TIP3   OH221790   5.190   5.899   1.320  0.4442 -0.1944 -0.2420
 7285TIP3    H121791   5.282   5.925   1.324  0.4995 -0.7277  4.8811
 7285TIP3    H221792   5.141   5.981   1.318  0.9278  0.1671  2.2184
 7286TIP3   OH221793   8.236   4.362   4.893  0.1939 -0.4263  0.1285
 7286TIP3    H121794   8.144   4.390   4.898 -0.0192 -1.2820  1.1012
 7286TIP3    H221795   8.237   4.275   4.932  1.3454 -0.6208 -0.3181
 7287TIP3   OH221796   2.418   1.904   6.442 -0.3599  0.3746  0.4054
 7287TIP3    H121797   2.495   1.875   6.393 -0.8680 -1.5598  0.7052
 7287TIP3    H221798   2.454   1.939   6.524  0.2728  0.5672  0.0493
 7288TIP3   OH221799   1.574   3.608   3.873  0.5100  0.1159  0.0768
 7288TIP3    H121800   1.585   3.694   3.831  0.9444 -0.2592 -0.5831
 7288TIP3    H221801   1.519   3.626   3.949 -0.0425  0.8600 -0.4789
 7289TIP3   OH221802   2.105   3.126   6.149  0.5942 -0.3781 -0.0593
 7289TIP3    H121803   2.039   3.076   6.101  0.1777 -2.0986  2.2170
 7289TIP3    H221804   2.182   3.127   6.091 -0.7785  0.0231 -1.9171
 7290TIP3   OH221805   8.320   0.906   0.185 -0.2564  0.0442 -0.2708
 7290TIP3    H121806   8.246   0.966   0.187  0.7310  1.2667  0.4226
 7290TIP3    H221807   8.288   0.830   0.137 -2.4174 -0.0765  1.2987
 7291TIP3   OH221808   0.497   2.385   4.071 -0.2645  0.3390  0.2991
 7291TIP3    H121809   0.572   2.430   4.111 -0.8700  1.8886 -0.2822
 7291TIP3    H221810   0.463   2.447   4.007 -2.1052 -0.3350  0.5999
 7292TIP3   OH221811   0.698   4.479   6.394  0.2440 -0.6590  0.3614
 7292TIP3    H121812   0.615   4.474   6.441 -0.1491 -2.0987 -0.4416
 7292TIP3    H221813   0.675   4.504   6.305  0.9790  1.9582  0.8792
 7293TIP3   OH221814   1.619   5.246   4.613  0.1286  0.0375 -0.1209
 7293TIP3    H121815   1.699   5.294   4.593  1.9646 -2.0382  1.9494
 7293TIP3    H221816   1.606   5.189   4.537 -0.6995  1.9891 -1.4815
 7294TIP3   OH221817   2.603   3.813   4.277  0.4293  0.0527  0.2434
 7294TIP3    H121818   2.605   3.760   4.197  3.4907  1.4372 -0.6412
 7294TIP3    H221819   2.625   3.752   4.347  1.6529 -0.3598 -0.4824
 7295TIP3   OH221820   2.922   2.122   4.943 -0.2307  0.5945  0.1974
 7295TIP3    H121821   2.976   2.198   4.966 -0.2920  0.3988  0.9776
 7295TIP3    H221822   2.874   2.102   5.023 -0.7571  0.1820 -0.2263
 7296TIP3   OH221823   2.322   3.167   5.518 -0.0044  0.3498 -0.1923
 7296TIP3    H121824   2.365   3.118   5.448  1.2442 -0.1156  0.8936
 7296TIP3    H221825   2.278   3.240   5.472  0.6420 -0.0492 -1.4680
 7297TIP3   OH221826   1.465   3.181   4.218 -0.1153  0.4708 -0.6706
 7297TIP3    H121827   1.547   3.132   4.227  0.2314  0.7272 -2.1675
 7297TIP3    H221828   1.409   3.125   4.164 -0.3426  0.9550 -0.9428
 7298TIP3   OH221829   2.325   2.489   3.397 -0.0082 -0.8583  0.4727
 7298TIP3    H121830   2.299   2.503   3.306  0.3959  2.5167  0.8089
 7298TIP3    H221831   2.403   2.433   3.392  0.0968 -0.5674 -1.2730
 7299TIP3   OH221832   2.624   5.062   6.006 -0.3943  0.0220  0.5304
 7299TIP3    H121833   2.615   5.086   5.914 -0.8774  0.9593  0.8171
 7299TIP3    H221834   2.596   4.970   6.010  0.0950 -0.1611 -0.3349
 7300TIP3   OH221835   2.925   4.580   4.045 -0.5640  0.2662 -0.0820
 7300TIP3    H121836   2.883   4.502   4.008 -0.7012  0.2069  0.2012
 7300TIP3    H221837   2.949   4.554   4.134 -0.5273  0.5181 -0.0191
 7301TIP3   OH221838   5.355   5.647   1.576  0.1074 -0.5524  0.2071
 7301TIP3    H121839   5.307   5.721   1.538  1.3171 -0.5982 -1.4582
 7301TIP3    H221840   5.447   5.669   1.563  0.4698 -2.5651 -0.7243
 7302TIP3   OH221841   0.347   5.580   5.207  0.8701 -0.2660  0.3724
 7302TIP3    H121842   0.359   5.567   5.301 -1.7987  1.7212  1.0728
 7302TIP3    H221843   0.262   5.625   5.200  1.6482  0.8484 -2.8845
 7303TIP3   OH221844   0.804   4.081   4.807 -0.6268 -0.5621 -0.4022
 7303TIP3    H121845   0.890   4.039   4.808 -0.2012  0.3011 -0.3526
 7303TIP3    H221846   0.790   4.104   4.715  0.3008  1.5180 -0.0501
 7304TIP3   OH221847   2.376   4.323   3.754 -0.1642 -0.3407  0.4259
 7304TIP3    H121848   2.391   4.405   3.803  0.6642 -0.4982  0.4535
 7304TIP3    H221849   2.464   4.291   3.736 -0.4938 -1.7722  1.3192
 7305TIP3   OH221850   3.119   4.095   6.613 -0.3117 -0.0686 -0.0834
 7305TIP3    H121851   3.161   4.014   6.642  0.7059 -0.1067 -1.5635
 7305TIP3    H221852   3.036   4.098   6.661 -0.1219 -1.7196  0.3865
 7306TIP3   OH221853   3.476   1.172   3.662 -0.5168 -0.3406  0.5575
 7306TIP3    H121854   3.565   1.178   3.629 -0.9802 -0.0362 -0.6632
 7306TIP3    H221855   3.456   1.260   3.695 -1.2326  0.3099 -1.4947
 7307TIP3   OH221856   1.321   4.759   3.690  0.1075  0.1152  0.0324
 7307TIP3    H121857   1.276   4.801   3.764  1.9074 -1.3601  2.0335
 7307TIP3    H221858   1.337   4.669   3.720  0.6014 -0.6113 -2.2969
 7308TIP3   OH221859   3.863   5.268   4.455 -0.3881  0.2071 -0.3984
 7308TIP3    H121860   3.795   5.248   4.519 -1.8634  1.6996 -1.4735
 7308TIP3    H221861   3.827   5.239   4.371  0.7397  0.0500 -0.8483
 7309TIP3   OH221862   4.471   5.931   3.976 -0.2956 -0.4153 -0.2585
 7309TIP3    H121863   4.437   5.920   3.887  1.8152 -0.4688 -1.0914
 7309TIP3    H221864   4.553   5.881   3.976 -0.5330 -0.8359  1.8780
 7310TIP3   OH221865   2.374   5.560   4.520  0.1169  0.2648  0.1301
 7310TIP3    H121866   2.434   5.590   4.452  0.3990  0.2960  0.3905
 7310TIP3    H221867   2.318   5.636   4.537  0.1241  0.2959  0.0168
 7311TIP3   OH221868   2.116   4.652   4.440  0.0698  0.0603  0.1660
 7311TIP3    H121869   2.162   4.589   4.495  0.8669 -0.3109 -0.9237
 7311TIP3    H221870   2.082   4.717   4.502 -0.0043 -0.9507  1.2066
 7312TIP3   OH221871   3.427   5.921   4.528  0.2142  0.1153 -0.1286
 7312TIP3    H121872   3.447   6.011   4.551  1.1322  0.0473 -0.6058
 7312TIP3    H221873   3.417   5.876   4.612 -1.0663  0.8318  0.1021
 7313TIP3   OH221874   3.102   4.685   5.387 -0.1289 -0.0231  0.2553
 7313TIP3    H121875   3.012   4.717   5.386 -0.0415  0.2080 -0.7277
 7313TIP3    H221876   3.120   4.662   5.296  0.8901  0.1745  0.4067
 7314TIP3   OH221877   2.014   5.099   6.013  0.1605  0.0660  0.2743
 7314TIP3    H121878   1.977   5.165   6.072 -1.5495 -0.8725  0.3040
 7314TIP3    H221879   2.108   5.101   6.030  0.1304  2.4200  0.3208
 7315TIP3   OH221880   3.413   3.930   5.772  0.4772 -0.9050 -0.1458
 7315TIP3    H121881   3.351   3.969   5.710  0.7111 -1.5157 -0.7713
 7315TIP3    H221882   3.390   3.837   5.773  1.7485 -1.2307 -0.8024
 7316TIP3   OH221883   6.993   1.373   0.276  0.2559  0.0992  0.5214
 7316TIP3    H121884   7.088   1.369   0.265 -0.0073 -0.7537 -1.7863
 7316TIP3    H221885   6.970   1.290   0.318  0.0932 -1.7628 -3.0466
 7317TIP3   OH221886   5.166   6.253   0.534 -0.3378  0.0995 -0.1513
 7317TIP3    H121887   5.158   6.164   0.499  0.2438 -0.2391  0.5755
 7317TIP3    H221888   5.083   6.267   0.580 -0.4946 -0.0080 -0.3956
 7318TIP3   OH221889   2.729   4.655   5.104 -0.2061  0.2667 -0.1037
 7318TIP3    H121890   2.791   4.632   5.035  2.3753 -1.1402  2.5796
 7318TIP3    H221891   2.665   4.584   5.104 -0.3101  0.3466 -1.0803
 7319TIP3   OH221892   1.732   3.901   5.245  0.0176 -0.3275 -0.3133
 7319TIP3    H121893   1.648   3.889   5.200  0.4682  0.0407 -1.2527
 7319TIP3    H221894   1.794   3.850   5.194  0.7438  0.9670 -0.7497
 7320TIP3   OH221895   0.622   3.173   4.089 -0.4826  0.4172  0.4923
 7320TIP3    H121896   0.684   3.225   4.140  1.9012  0.1892 -2.0737
 7320TIP3    H221897   0.670   3.147   4.011 -2.9130 -2.2401 -0.2219
 7321TIP3   OH221898   2.882   3.711   5.587  0.2439 -0.1427  0.0697
 7321TIP3    H121899   2.937   3.656   5.642 -0.8277 -0.4414  0.8678
 7321TIP3    H221900   2.909   3.801   5.608 -0.2139 -0.2520  1.1527
 7322TIP3   OH221901   2.676   4.655   4.660 -0.0241  0.0663 -0.0696
 7322TIP3    H121902   2.761   4.693   4.637 -0.4460  0.4911 -0.9697
 7322TIP3    H221903   2.688   4.561   4.649  0.0549  0.1969 -1.1459
 7323TIP3   OH221904   4.715   6.105   1.167 -0.1841  0.2196 -0.3365
 7323TIP3    H121905   4.724   6.093   1.073  0.0118  0.9279 -0.4076
 7323TIP3    H221906   4.646   6.170   1.178 -0.8019 -0.4959  0.0367
 7324TIP3   OH221907   0.422   5.681   5.892 -0.1074 -0.1368 -0.0316
 7324TIP3    H121908   0.489   5.657   5.828  0.9684 -0.7452  1.3023
 7324TIP3    H221909   0.367   5.745   5.846  2.4193  1.7111 -0.6002
 7325TIP3   OH221910   4.240   5.622   5.724  0.2373 -0.0588  0.0924
 7325TIP3    H121911   4.208   5.573   5.800 -0.3189  0.2329  0.0460
 7325TIP3    H221912   4.213   5.569   5.649  1.2538 -0.6216  0.1106
 7326TIP3   OH221913   3.640   5.147   6.070 -0.2816 -0.3155  0.5506
 7326TIP3    H121914   3.584   5.106   6.004  0.2150 -1.8890  1.0999
 7326TIP3    H221915   3.630   5.241   6.054 -0.7300 -0.6539 -1.2931
 7327TIP3   OH221916   2.785   4.478   2.679 -0.0325  0.1378 -0.8889
 7327TIP3    H121917   2.733   4.473   2.599  0.8986  2.0492 -1.6554
 7327TIP3    H221918   2.875   4.461   2.650  0.2025  0.0325 -0.1169
 7328TIP3   OH221919   3.554   4.076   3.603 -0.4545 -0.6820  0.0768
 7328TIP3    H121920   3.581   4.082   3.695 -1.9109 -2.0203  0.6028
 7328TIP3    H221921   3.486   4.143   3.594 -1.1840 -1.3856  0.3018
 7329TIP3   OH221922   4.637   3.380   5.312  0.4972  0.4138 -0.3786
 7329TIP3    H121923   4.675   3.361   5.226  2.0274 -1.2499  0.6197
 7329TIP3    H221924   4.686   3.457   5.342  0.9053  0.1783 -0.4296
 7330TIP3   OH221925   3.177   5.836   4.166 -0.2650 -0.1445 -0.8662
 7330TIP3    H121926   3.235   5.845   4.242 -0.8174  1.4611 -0.6021
 7330TIP3    H221927   3.182   5.744   4.143 -0.1227 -0.6737  1.1550
 7331TIP3   OH221928   2.623   6.126   4.818 -0.0622 -0.3399  1.0393
 7331TIP3    H121929   2.565   6.178   4.873  0.1827 -1.0474  1.9675
 7331TIP3    H221930   2.656   6.057   4.875 -0.0945 -1.3082 -0.0770
 7332TIP3   OH221931   5.431   6.776   0.154 -0.5673  0.1389  0.6078
 7332TIP3    H121932   5.484   6.856   0.149 -1.1228  0.5513  1.2229
 7332TIP3    H221933   5.345   6.806   0.184 -0.8277 -0.6723  0.6788
 7333TIP3   OH221934   3.726   6.547   6.779 -0.0056 -0.8492 -0.0902
 7333TIP3    H121935   3.733   6.623   6.836  0.2755  0.7682 -2.2275
 7333TIP3    H221936   3.813   6.508   6.779 -0.1356 -1.1607  0.9587
 7334TIP3   OH221937   1.853   2.304   4.515  0.1345  0.1145  0.3460
 7334TIP3    H121938   1.931   2.293   4.460  0.4643  1.4997  0.5314
 7334TIP3    H221939   1.781   2.310   4.452  0.0839 -1.6874  0.1884
 7335TIP3   OH221940   2.527   5.529   6.155  0.2367  0.3554 -0.3212
 7335TIP3    H121941   2.599   5.550   6.096 -1.5644  0.7694 -2.4219
 7335TIP3    H221942   2.475   5.608   6.158 -0.6818 -0.2753  0.3677
 7336TIP3   OH221943   2.890   4.908   3.645 -0.3935 -0.9511  0.1797
 7336TIP3    H121944   2.797   4.913   3.623 -0.2992  0.9106  0.1695
 7336TIP3    H221945   2.895   4.941   3.735  0.3478 -0.3281 -0.0849
 7337TIP3   OH221946   0.853   3.587   3.222 -0.5216  0.6079 -0.5424
 7337TIP3    H121947   0.807   3.539   3.291 -0.3494  0.0445 -0.8159
 7337TIP3    H221948   0.858   3.677   3.254 -1.4422  0.5834 -0.3234
 7338TIP3   OH221949   5.214   6.996   0.692  0.0125  0.3058 -0.0637
 7338TIP3    H121950   5.284   7.021   0.631 -0.2918  2.5188  0.4719
 7338TIP3    H221951   5.133   7.014   0.645 -0.2299 -0.9954 -0.1740
 7339TIP3   OH221952   1.911   2.900   4.009  0.0290  0.4131  0.5542
 7339TIP3    H121953   1.977   2.928   3.945 -1.1433  1.2312 -0.3158
 7339TIP3    H221954   1.957   2.838   4.065  0.6206 -1.5865 -2.0804
 7340TIP3   OH221955   3.157   2.695   3.707  0.0209  0.3262  0.3011
 7340TIP3    H121956   3.202   2.737   3.780 -1.1102 -1.2594  1.9262
 7340TIP3    H221957   3.227   2.650   3.659  0.5953  0.4128  1.0487
 7341TIP3   OH221958   3.275   4.282   3.363  0.6677  0.3326 -0.0065
 7341TIP3    H121959   3.310   4.280   3.274  0.2954 -3.1105 -0.1318
 7341TIP3    H221960   3.201   4.343   3.359  0.2935 -0.2409 -2.2070
 7342TIP3   OH221961   3.505   4.191   4.100 -0.4379  0.3359  0.4337
 7342TIP3    H121962   3.548   4.203   4.185 -2.6001 -1.0311  1.7369
 7342TIP3    H221963   3.424   4.242   4.106 -0.2477  0.8527 -1.0960
 7343TIP3   OH221964   1.870   3.387   2.346 -0.3341  0.7102  0.4468
 7343TIP3    H121965   1.775   3.399   2.344 -0.4194  0.0812  0.4908
 7343TIP3    H221966   1.906   3.475   2.349 -0.9384  0.9418  1.0003
 7344TIP3   OH221967   5.594   7.753   1.170  0.0569 -0.3966  0.3973
 7344TIP3    H121968   5.564   7.828   1.221  0.3924  0.9820 -1.3739
 7344TIP3    H221969   5.618   7.687   1.235 -1.4483  0.5480  1.9604
 7345TIP3   OH221970   1.524   2.547   1.757  0.0651 -0.6988  0.4227
 7345TIP3    H121971   1.501   2.572   1.846 -0.5726 -0.2214  0.1365
 7345TIP3    H221972   1.442   2.554   1.709  0.8436  1.2791 -0.6904
 7346TIP3   OH221973   2.202   3.187   5.264  0.2485 -0.7632  0.3884
 7346TIP3    H121974   2.194   3.117   5.200 -1.9663  0.5517 -0.8006
 7346TIP3    H221975   2.114   3.222   5.274  0.8007  0.0004  3.1143
 7347TIP3   OH221976   2.564   1.220   3.733 -0.1659 -0.1875  0.3736
 7347TIP3    H121977   2.472   1.236   3.754  0.1164  0.9383  0.7678
 7347TIP3    H221978   2.613   1.282   3.787  1.0055 -2.8441  2.4473
 7348TIP3   OH221979   3.496   3.026   5.701 -0.0475  0.5631  0.1570
 7348TIP3    H121980   3.522   3.114   5.675 -0.2238  0.5393 -0.1104
 7348TIP3    H221981   3.476   2.982   5.618  0.6588  0.0724  0.2439
 7349TIP3   OH221982   0.681   4.352   3.955  0.2669  1.1018  0.7052
 7349TIP3    H121983   0.612   4.361   4.021 -0.8335  1.3449 -0.4561
 7349TIP3    H221984   0.692   4.441   3.920  1.5275  1.1571  1.2320
 7350TIP3   OH221985   1.063   3.966   4.826 -0.0114 -0.3882  0.2313
 7350TIP3    H121986   1.158   3.978   4.827  0.1365 -1.5189  0.3329
 7350TIP3    H221987   1.043   3.926   4.911 -0.8336  1.6500  1.0294
 7351TIP3   OH221988   3.726   4.401   4.181 -0.1987  0.0560 -0.0746
 7351TIP3    H121989   3.669   4.434   4.251  0.4081  0.5679  0.1815
 7351TIP3    H221990   3.756   4.316   4.213  1.4925  1.0602  1.0994
 7352TIP3   OH221991   8.265   6.134   4.779 -0.0265  0.3520 -0.3159
 7352TIP3    H121992   8.248   6.050   4.735 -0.1259  0.4511 -0.4677
 7352TIP3    H221993   8.220   6.199   4.725  0.6572  0.5940 -0.5971
 7353TIP3   OH221994   3.324   3.056   4.582 -0.1775 -0.4844 -0.0551
 7353TIP3    H121995   3.414   3.088   4.578  0.3658 -1.8148  1.2404
 7353TIP3    H221996   3.272   3.134   4.604  0.8612 -0.0845  1.0035
 7354TIP3   OH221997   3.465   1.338   4.171 -0.0892  0.4378  0.1971
 7354TIP3    H121998   3.472   1.433   4.185 -0.2563  0.7284 -1.4861
 7354TIP3    H221999   3.373   1.318   4.187 -0.5220  0.9554 -1.5026
 7355TIP3   OH222000   1.111   1.671   3.683  0.0041  0.2782 -0.4210
 7355TIP3    H122001   1.036   1.673   3.742  0.2620  0.5274 -0.1074
 7355TIP3    H222002   1.072   1.676   3.595 -0.4290 -0.9314 -0.3106
 7356TIP3   OH222003   4.230   5.330   4.960  0.2306  0.4685 -0.0678
 7356TIP3    H122004   4.305   5.288   5.002 -0.8186 -1.7897 -0.3282
 7356TIP3    H222005   4.255   5.336   4.868  2.1761  4.6127  0.6315
 7357TIP3   OH222006   3.076   3.733   4.462  0.1504 -0.4840  0.7560
 7357TIP3    H122007   3.018   3.669   4.421  0.8238 -1.0712  0.7105
 7357TIP3    H222008   3.090   3.799   4.395  1.5900 -1.6572 -0.1344
 7358TIP3   OH222009   1.054   6.371   3.430  0.6965 -0.1476  0.1860
 7358TIP3    H122010   1.095   6.345   3.348 -0.1806 -2.2780  0.3828
 7358TIP3    H222011   1.006   6.451   3.409  1.0892 -0.2616 -1.1934
 7359TIP3   OH222012   3.894   4.979   2.008 -1.1658 -0.3341 -0.5887
 7359TIP3    H122013   3.949   4.966   1.930 -1.9445 -0.0336 -1.1981
 7359TIP3    H222014   3.865   5.070   2.002  0.6980  0.4008  1.3321
 7360TIP3   OH222015   0.477   4.461   4.113  0.1138  0.4677  0.0818
 7360TIP3    H122016   0.394   4.414   4.117  2.3569 -3.8327 -0.5124
 7360TIP3    H222017   0.507   4.464   4.204  0.4068 -0.1094  0.0058
 7361TIP3   OH222018   3.717   4.446   5.966  0.5136  0.0283  0.6785
 7361TIP3    H122019   3.680   4.360   5.944  0.6604  0.5842 -1.9457
 7361TIP3    H222020   3.790   4.426   6.024  0.5264 -1.6256  0.1407
 7362TIP3   OH222021   4.635   6.259   5.234  0.3077 -0.0118  0.3609
 7362TIP3    H122022   4.688   6.334   5.208  0.1832  0.4721  1.4854
 7362TIP3    H222023   4.585   6.237   5.155  1.2865  0.2758 -0.3528
 7363TIP3   OH222024   0.822   5.389   4.262  0.6542 -0.1104  0.4611
 7363TIP3    H122025   0.905   5.415   4.222  0.3970 -3.5947 -2.6265
 7363TIP3    H222026   0.848   5.334   4.336  1.2053 -2.8033 -1.6481
 7364TIP3   OH222027   6.129   4.043   4.228 -0.4541 -0.1052 -0.4128
 7364TIP3    H122028   6.179   3.977   4.180  0.6133 -0.4797  1.1957
 7364TIP3    H222029   6.132   4.120   4.172  0.9483 -0.4710 -0.8616
 7365TIP3   OH222030   3.174   6.258   5.085 -0.0608  0.5655  0.3827
 7365TIP3    H122031   3.199   6.310   5.161 -0.4047  2.2864 -0.6562
 7365TIP3    H222032   3.163   6.169   5.119  0.8185  1.1093  2.1263
 7366TIP3   OH222033   3.844   6.651   2.711  0.0584  0.5807 -0.1712
 7366TIP3    H122034   3.861   6.745   2.721 -0.0826  0.5567  0.3325
 7366TIP3    H222035   3.930   6.610   2.717 -0.0742  0.5130  1.7231
 7367TIP3   OH222036   1.515   5.140   4.273 -0.1962 -0.3926  0.1883
 7367TIP3    H122037   1.459   5.101   4.341 -0.0093 -2.3876 -0.7709
 7367TIP3    H222038   1.599   5.096   4.283  0.5506  1.0146  0.1904
 7368TIP3   OH222039   4.209   4.634   5.991 -0.4630 -0.2394  0.3344
 7368TIP3    H122040   4.269   4.574   5.948  0.7347  1.1224  0.0770
 7368TIP3    H222041   4.218   4.615   6.084  1.2412  0.7275  0.3901
 7369TIP3   OH222042   2.395   4.386   4.423  0.5334 -0.5065 -0.3463
 7369TIP3    H122043   2.428   4.393   4.334  2.8890 -0.2569  0.5267
 7369TIP3    H222044   2.428   4.464   4.467 -1.1977 -0.2665  0.5736
 7370TIP3   OH222045   0.447   4.967   4.872  0.2728 -0.2690 -0.1110
 7370TIP3    H122046   0.511   5.026   4.911  1.7544 -0.9433 -1.4583
 7370TIP3    H222047   0.472   4.880   4.903 -1.4723 -0.2870  1.3015
 7371TIP3   OH222048   2.433   4.194   6.020  0.5026 -0.1556  0.2999
 7371TIP3    H122049   2.353   4.246   6.013  1.0320  0.7268  0.7663
 7371TIP3    H222050   2.415   4.116   5.968 -0.0848  0.7725 -0.9220
 7372TIP3   OH222051   2.528   5.060   4.515  0.0654  0.2537  0.0790
 7372TIP3    H122052   2.558   5.126   4.453 -2.0138 -1.2043 -2.5893
 7372TIP3    H222053   2.434   5.073   4.521 -0.0754 -1.0704  1.1968
 7373TIP3   OH222054   2.731   3.681   5.358  0.2171  0.5677 -0.1673
 7373TIP3    H122055   2.794   3.708   5.292  1.1315 -1.6263 -0.2267
 7373TIP3    H222056   2.780   3.681   5.441  0.6761 -2.2602 -0.3844
 7374TIP3   OH222057   7.760   4.313   5.051  0.0365 -0.1580 -0.4575
 7374TIP3    H122058   7.727   4.292   5.138  0.5263 -2.1201 -0.7021
 7374TIP3    H222059   7.840   4.363   5.067 -0.3475  0.2443  0.2051
 7375TIP3   OH222060   2.639   4.276   4.236  0.3999  0.0224 -0.4326
 7375TIP3    H122061   2.629   4.188   4.201 -1.0724 -0.7782  1.9110
 7375TIP3    H222062   2.574   4.329   4.189 -0.1051 -0.5784 -0.4090
 7376TIP3   OH222063   2.567   5.037   6.532  0.1150 -0.7164  0.0706
 7376TIP3    H122064   2.574   4.979   6.609 -0.2756  0.3512  0.9231
 7376TIP3    H222065   2.655   5.039   6.496  0.3157 -1.2048  0.5135
 7377TIP3   OH222066   0.075   2.041   4.293 -0.0078  0.1042 -0.9770
 7377TIP3    H122067   0.080   2.070   4.202  2.6274  1.5523 -0.4002
 7377TIP3    H222068   0.123   1.958   4.295  1.0717  0.7354 -0.6493
 7378TIP3   OH222069   2.010   3.977   2.974 -0.0993 -0.2774  0.4247
 7378TIP3    H122070   1.954   4.044   2.935 -0.1971 -0.8950 -0.5252
 7378TIP3    H222071   1.974   3.963   3.061  0.3418  1.3883  0.8934
 7379TIP3   OH222072   2.367   1.775   4.980  0.1424  0.5440  0.1340
 7379TIP3    H122073   2.349   1.764   4.886 -3.4370 -0.1435  0.8295
 7379TIP3    H222074   2.443   1.833   4.983  1.8580 -1.3559 -3.2061
 7380TIP3   OH222075   1.968   1.293   3.337  0.0103  0.4439  0.3131
 7380TIP3    H122076   1.878   1.304   3.366  0.1432  0.8110  0.5816
 7380TIP3    H222077   2.004   1.381   3.333 -0.3655  0.5248 -2.1463
 7381TIP3   OH222078   2.670   3.658   4.494  0.4569 -0.0361  0.5949
 7381TIP3    H122079   2.707   3.570   4.487  0.6618 -0.0442  1.7545
 7381TIP3    H222080   2.615   3.656   4.572 -1.4968  0.1663 -0.7358
 7382TIP3   OH222081   1.924   4.746   5.320 -0.5213 -0.1865 -0.3091
 7382TIP3    H122082   1.870   4.800   5.262  0.1899  0.7167 -0.1554
 7382TIP3    H222083   2.006   4.734   5.273 -0.5490 -0.8561 -0.1935
 7383TIP3   OH222084   1.485   2.738   4.318 -0.7828  0.1183  0.2208
 7383TIP3    H122085   1.562   2.708   4.365 -0.4371  1.0898  0.2665
 7383TIP3    H222086   1.510   2.733   4.226 -0.2287  1.6095  0.2771
 7384TIP3   OH222087   1.828   3.452   4.548  0.1071  0.6041 -0.1058
 7384TIP3    H122088   1.821   3.518   4.617 -0.4199  1.0967 -0.6173
 7384TIP3    H222089   1.766   3.481   4.481 -0.1233 -0.4140 -0.3445
 7385TIP3   OH222090   2.675   3.335   5.048  0.5246 -0.1154  0.5597
 7385TIP3    H122091   2.680   3.421   5.007  1.0291  0.5752  2.0524
 7385TIP3    H222092   2.755   3.290   5.021  0.5197  0.0685  0.2329
 7386TIP3   OH222093   1.223   3.277   5.198 -0.3032 -0.3805 -0.4133
 7386TIP3    H122094   1.131   3.251   5.198 -0.1782 -0.9259  1.5561
 7386TIP3    H222095   1.232   3.335   5.274  1.2471 -1.4217  0.2235
 7387TIP3   OH222096   1.712   4.240   3.728  0.0834 -0.2928  0.5287
 7387TIP3    H122097   1.625   4.204   3.712 -0.4224  0.3871  1.6633
 7387TIP3    H222098   1.753   4.179   3.789  0.3268 -0.5061  0.1538
 7388TIP3   OH222099   0.501   2.228   4.341  0.2127 -0.1056 -0.0437
 7388TIP3    H122100   0.578   2.275   4.373 -0.2143  0.8535 -0.3955
 7388TIP3    H222101   0.490   2.258   4.251 -0.1882 -0.7338 -0.2133
 7389TIP3   OH222102   0.131   5.198   5.050 -0.5990  0.6052  0.2033
 7389TIP3    H122103   0.178   5.278   5.024  0.3068  0.1719  0.4717
 7389TIP3    H222104   0.109   5.213   5.142  0.7433  0.0167  0.6434
 7390TIP3   OH222105   1.456   3.223   1.878  0.1537  0.1443 -0.1733
 7390TIP3    H122106   1.462   3.266   1.793 -0.8286 -1.0965 -0.8879
 7390TIP3    H222107   1.386   3.159   1.868 -0.4368  0.4322  1.7707
 7391TIP3   OH222108   2.934   6.094   3.948 -0.4694 -0.5273 -0.3380
 7391TIP3    H122109   2.870   6.091   4.018 -0.9583  0.7989 -0.7115
 7391TIP3    H222110   3.004   6.035   3.976 -0.5245  0.2132  1.3954
 7392TIP3   OH222111   1.768   5.053   4.364  0.1473 -0.0459 -0.3452
 7392TIP3    H122112   1.837   4.999   4.325 -1.7695 -0.5471 -3.2644
 7392TIP3    H222113   1.790   5.057   4.457  0.9542 -5.0666 -0.1393
 7393TIP3   OH222114   1.510   4.151   5.210  0.0955 -0.2029  0.3339
 7393TIP3    H122115   1.487   4.229   5.159 -0.1398  0.0039  0.7542
 7393TIP3    H222116   1.538   4.088   5.144  2.6115  1.0295  0.1790
 7394TIP3   OH222117   8.136   1.608   1.228  0.6606 -0.5316 -0.0572
 7394TIP3    H122118   8.207   1.671   1.217 -0.0487  0.5794  1.5562
 7394TIP3    H222119   8.118   1.576   1.140  2.2943  0.1226 -0.6429
 7395TIP3   OH222120   2.069   5.786   5.483 -0.2880  0.7294  0.7487
 7395TIP3    H122121   2.125   5.818   5.412 -0.1409 -0.8484  0.1273
 7395TIP3    H222122   2.129   5.764   5.554 -0.3343  1.2016  0.9385
 7396TIP3   OH222123   2.610   6.258   3.927 -0.0042 -0.3990  0.3995
 7396TIP3    H122124   2.516   6.245   3.912  0.2111 -1.0147 -0.4644
 7396TIP3    H222125   2.652   6.189   3.875  0.9078 -0.4628  1.2130
 7397TIP3   OH222126   2.277   7.416   6.005  0.1023 -0.2250  0.2856
 7397TIP3    H122127   2.327   7.418   5.924  0.1115  1.1606  0.3237
 7397TIP3    H222128   2.308   7.491   6.055  0.2069 -1.1551  1.6426
 7398TIP3   OH222129   2.532   2.749   3.086 -0.2792  0.1487 -0.4288
 7398TIP3    H122130   2.515   2.743   2.992 -0.9487 -3.4989 -0.1620
 7398TIP3    H222131   2.626   2.767   3.092 -0.0758 -0.3520 -1.8266
 7399TIP3   OH222132   2.237   6.003   5.432 -0.0402  0.3311  0.0078
 7399TIP3    H122133   2.211   5.977   5.520 -1.5721 -1.7979 -1.0310
 7399TIP3    H222134   2.204   6.093   5.423  2.3453  1.5170  2.4446
 7400TIP3   OH222135   1.511   6.920   4.143  0.0294 -0.1372 -0.4278
 7400TIP3    H122136   1.539   6.967   4.222 -0.9406 -1.8627  0.9941
 7400TIP3    H222137   1.479   6.836   4.176 -3.1208  0.2492 -2.3825
 7401TIP3   OH222138   4.240   7.495   1.598 -0.1787 -0.0270  0.4306
 7401TIP3    H122139   4.323   7.537   1.622  0.2433 -0.7704  0.2812
 7401TIP3    H222140   4.237   7.415   1.652 -0.8281  0.0266  0.4832
 7402TIP3   OH222141   2.990   4.114   3.751  0.0901  0.0173  0.2888
 7402TIP3    H122142   2.927   4.058   3.797  1.5455 -0.5463  1.6474
 7402TIP3    H222143   2.958   4.117   3.661 -0.8210 -1.8208  0.5161
 7403TIP3   OH222144   3.191   5.791   6.089  0.7084  0.0501 -0.4680
 7403TIP3    H122145   3.104   5.792   6.128  0.5060 -2.1227 -0.7992
 7403TIP3    H222146   3.186   5.855   6.017 -1.3935 -1.8986 -2.1057
 7404TIP3   OH222147   5.367   7.073   0.455  0.1345 -0.4271  0.4322
 7404TIP3    H122148   5.328   7.159   0.468 -0.9207 -1.0936  1.8821
 7404TIP3    H222149   5.319   7.035   0.381  0.2760  0.0375  0.1021
 7405TIP3   OH222150   2.095   4.895   4.583  0.1015  0.0333 -0.2240
 7405TIP3    H122151   2.167   4.955   4.564 -0.0921 -0.6297 -3.2147
 7405TIP3    H222152   2.016   4.941   4.554 -0.2843 -0.7784 -0.4803
 7406TIP3   OH222153   6.945   6.381   0.727  0.1696 -0.5867 -0.0351
 7406TIP3    H122154   6.981   6.389   0.815  1.5378  0.2735 -0.6734
 7406TIP3    H222155   6.994   6.309   0.687 -0.3329 -0.8605 -0.1767
 7407TIP3   OH222156   3.609   2.614   2.704 -0.0169 -0.0792 -0.0064
 7407TIP3    H122157   3.627   2.694   2.654  1.2089  0.9396  1.9695
 7407TIP3    H222158   3.683   2.557   2.685  1.2631  0.9103  1.7423
 7408TIP3   OH222159   4.961   4.786   6.559 -0.1152  0.1242 -0.2091
 7408TIP3    H122160   5.053   4.812   6.550 -0.3149  0.3146 -1.7401
 7408TIP3    H222161   4.954   4.757   6.650  1.2641  0.8737  0.1586
 7409TIP3   OH222162   1.195   2.713   4.246 -0.3707 -0.1113 -0.0903
 7409TIP3    H122163   1.216   2.749   4.332 -1.7556  0.9468 -0.1830
 7409TIP3    H222164   1.279   2.682   4.212  0.2754 -0.0586  1.4139
 7410TIP3   OH222165   4.825   6.956   0.259 -0.3532  0.0571 -0.2984
 7410TIP3    H122166   4.798   7.026   0.200  2.3645  0.6805 -0.8527
 7410TIP3    H222167   4.831   6.879   0.202  1.1865  0.4147 -0.6354
 7411TIP3   OH222168   1.977   2.551   5.870 -0.0540 -0.4311  0.4439
 7411TIP3    H122169   2.026   2.587   5.796 -0.0120  0.7125  1.0089
 7411TIP3    H222170   1.885   2.566   5.848 -0.0562 -0.4961  0.4111
 7412TIP3   OH222171   2.868   5.839   6.649  0.5109  0.0852 -0.5109
 7412TIP3    H122172   2.794   5.808   6.701  0.3633 -0.0598 -0.8024
 7412TIP3    H222173   2.946   5.808   6.695  0.3982  0.4950 -0.0393
 7413TIP3   OH222174   5.430   7.584   0.576  0.4547 -0.4256  0.4941
 7413TIP3    H122175   5.516   7.623   0.564  0.3897 -0.2656  0.5411
 7413TIP3    H222176   5.423   7.568   0.670 -0.1373  0.8999  0.6843
 7414TIP3   OH222177   2.908   4.725   4.535  0.1534 -0.2376  0.2530
 7414TIP3    H122178   2.985   4.686   4.575  0.2961 -1.7349 -1.4045
 7414TIP3    H222179   2.917   4.819   4.551  2.3824 -0.3789 -0.0565
 7415TIP3   OH222180   2.679   5.785   4.097 -0.2563 -0.6007 -0.2546
 7415TIP3    H122181   2.680   5.816   4.007  0.4131 -1.2138 -0.4565
 7415TIP3    H222182   2.765   5.807   4.131 -1.0843  1.2149  0.7927
 7416TIP3   OH222183   2.549   2.771   5.247  0.1789  0.4433  0.3680
 7416TIP3    H122184   2.531   2.678   5.239 -0.0681  0.4876  0.4147
 7416TIP3    H222185   2.613   2.789   5.178  1.7368 -0.1590  1.6456
 7417TIP3   OH222186   8.385   4.549   3.116 -0.3483  0.0603 -0.2018
 7417TIP3    H122187   8.384   4.584   3.205 -3.3719 -0.1659 -0.0963
 7417TIP3    H222188   8.377   4.454   3.126 -0.2814 -0.0059 -0.7229
 7418TIP3   OH222189   3.075   3.951   4.896 -0.1656 -0.1509  0.7540
 7418TIP3    H122190   3.133   3.974   4.969  0.0891 -0.0914  0.5347
 7418TIP3    H222191   3.123   3.882   4.849 -0.6256 -0.6615  1.0272
 7419TIP3   OH222192   2.570   4.863   5.063  0.2106 -0.0027 -0.1398
 7419TIP3    H122193   2.588   4.879   4.970 -0.4740  2.0348  0.0410
 7419TIP3    H222194   2.621   4.785   5.084  0.4007 -0.4856 -2.2192
 7420TIP3   OH222195   5.905   6.557   0.338  0.3918  0.4191  0.6018
 7420TIP3    H122196   5.882   6.518   0.254  2.0817  0.4222  0.1107
 7420TIP3    H222197   5.999   6.538   0.348  0.5948  1.9065  1.6688
 7421TIP3   OH222198   2.547   5.098   5.733 -0.0891 -0.4006  0.0585
 7421TIP3    H122199   2.476   5.054   5.685 -0.3489 -1.8567  1.7363
 7421TIP3    H222200   2.625   5.081   5.680 -0.4267 -1.6885 -0.0552
 7422TIP3   OH222201   2.866   3.755   5.116 -0.3284  0.0080  0.2465
 7422TIP3    H122202   2.837   3.791   5.032 -0.1608  0.9304  0.5837
 7422TIP3    H222203   2.928   3.820   5.150  1.2037 -1.3409  0.1140
 7423TIP3   OH222204   1.131   5.919   3.573 -0.8152  0.0990 -0.3147
 7423TIP3    H122205   1.077   5.993   3.603 -1.6186  0.0379 -1.5848
 7423TIP3    H222206   1.221   5.951   3.579 -0.9675  0.2047  1.8349
 7424TIP3   OH222207   1.099   4.547   3.464  0.1578  0.1075 -0.4058
 7424TIP3    H122208   1.128   4.467   3.509  1.1077  0.0409 -1.1303
 7424TIP3    H222209   1.165   4.612   3.486  0.9473 -0.0731 -2.1590
 7425TIP3   OH222210   0.988   4.146   6.377 -0.0553  0.4814 -0.4183
 7425TIP3    H122211   1.000   4.085   6.304 -2.5054  1.3179 -1.5674
 7425TIP3    H222212   0.918   4.107   6.429 -0.4557  1.4461 -0.2313
 7426TIP3   OH222213   0.676   5.843   5.793  0.5786 -0.5154  0.0530
 7426TIP3    H122214   0.665   5.891   5.875  0.6074 -1.8070  0.8298
 7426TIP3    H222215   0.756   5.880   5.755 -0.3027  1.1916 -0.1922
 7427TIP3   OH222216   2.092   5.041   2.729 -0.1077  0.2934 -0.2164
 7427TIP3    H122217   2.150   5.114   2.705 -0.0942  0.3450 -0.0237
 7427TIP3    H222218   2.008   5.083   2.750 -0.1664  0.2325 -0.3284
 7428TIP3   OH222219   4.241   4.668   4.485 -0.6629 -0.3768  0.7444
 7428TIP3    H122220   4.157   4.654   4.528 -1.5186 -0.8582 -1.0374
 7428TIP3    H222221   4.289   4.586   4.497 -0.6531 -0.2843  1.3165
 7429TIP3   OH222222   2.672   5.927   5.006 -0.6335  0.7528 -0.1806
 7429TIP3    H122223   2.615   5.855   5.034 -1.1305  0.9355 -0.7088
 7429TIP3    H222224   2.736   5.936   5.076 -0.8572  0.1075  0.1117
 7430TIP3   OH222225   2.365   4.323   3.479 -0.0752  0.4675  0.4733
 7430TIP3    H122226   2.387   4.288   3.565 -0.3404 -0.1213  0.3007
 7430TIP3    H222227   2.387   4.416   3.485 -0.5186  0.5178  1.3227
 7431TIP3   OH222228   2.629   4.224   3.686 -0.4513  0.2302  0.2400
 7431TIP3    H122229   2.693   4.237   3.616  0.5756  1.2388  1.3483
 7431TIP3    H222230   2.650   4.138   3.723  0.5717  0.7560  0.8968
 7432TIP3   OH222231   2.361   4.172   3.241  0.1514  0.0862  0.5895
 7432TIP3    H122232   2.301   4.100   3.258  0.3944  0.0367  1.2143
 7432TIP3    H222233   2.378   4.211   3.326  0.2169  0.7308  0.2871
 7433TIP3   OH222234   1.619   4.632   4.870 -0.1185  0.5624 -0.1197
 7433TIP3    H122235   1.575   4.579   4.936  2.4953 -0.1389  1.1219
 7433TIP3    H222236   1.595   4.591   4.787 -0.2344 -0.9848  0.6618
 7434TIP3   OH222237   2.900   3.035   5.204 -0.3239  0.3716  0.1218
 7434TIP3    H122238   2.954   2.963   5.172 -1.4320  0.0235 -1.0137
 7434TIP3    H222239   2.956   3.113   5.197  0.5030 -0.2024  0.3130
 7435TIP3   OH222240   2.929   4.972   5.646 -0.1426  0.4006  0.0472
 7435TIP3    H122241   2.896   4.958   5.735 -1.0337  1.8619 -0.0439
 7435TIP3    H222242   2.875   5.042   5.611  2.3881  2.2032 -0.4379
 7436TIP3   OH222243   2.807   4.836   4.056  0.4774  0.1596  0.3343
 7436TIP3    H122244   2.820   4.833   4.150  0.0100 -0.5352  0.3811
 7436TIP3    H222245   2.841   4.753   4.024  1.2335  0.6642 -0.1903
 7437TIP3   OH222246   3.516   4.799   5.278 -0.2840 -0.2387  0.0501
 7437TIP3    H122247   3.480   4.855   5.347  0.1732  0.6870 -0.4505
 7437TIP3    H222248   3.492   4.843   5.197  2.8307  0.9649 -0.2784
 7438TIP3   OH222249   5.481   3.445   4.517 -0.5808  0.0688  0.4027
 7438TIP3    H122250   5.530   3.509   4.570  0.3439  0.3452 -0.7829
 7438TIP3    H222251   5.510   3.360   4.550  2.5407  0.1868 -1.9126
 7439TIP3   OH222252   5.762   6.039   0.084  0.0734 -0.4860 -0.3167
 7439TIP3    H122253   5.839   6.094   0.075 -0.6505  0.6113  0.0443
 7439TIP3    H222254   5.779   5.963   0.029  1.6509 -0.5246  0.2206
 7440TIP3   OH222255   1.707   4.685   6.279  0.3318  0.2747 -0.3149
 7440TIP3    H122256   1.626   4.680   6.228 -0.3165 -0.2354  0.7312
 7440TIP3    H222257   1.776   4.699   6.214 -0.6646  1.3536 -1.1680
 7441TIP3   OH222258   6.540   6.570   0.384 -0.3339 -0.1044  0.4207
 7441TIP3    H122259   6.612   6.507   0.380 -0.2232  0.1652 -2.3857
 7441TIP3    H222260   6.461   6.516   0.379 -0.2467 -0.0997 -1.3161
 7442TIP3   OH222261   3.020   4.674   3.767 -0.3692 -0.2622  0.6025
 7442TIP3    H122262   3.013   4.646   3.859 -1.4541 -0.2317  0.5351
 7442TIP3    H222263   3.051   4.764   3.771  0.7667 -0.6565  0.8971
 7443TIP3   OH222264   1.606   4.706   5.246 -0.2388  0.2573 -0.8410
 7443TIP3    H122265   1.563   4.629   5.208 -0.3371 -0.3973  0.5761
 7443TIP3    H222266   1.694   4.676   5.268 -0.4599  0.3826  0.2357
 7444TIP3   OH222267   1.226   3.818   3.824 -0.2889  0.5616 -0.6907
 7444TIP3    H122268   1.200   3.910   3.820 -1.8105  0.2779  1.4913
 7444TIP3    H222269   1.269   3.801   3.740  1.3056  3.6218 -0.5325
 7445TIP3   OH222270   1.860   3.185   5.204 -0.1349  0.1487 -0.0737
 7445TIP3    H122271   1.888   3.196   5.295  3.1604 -0.3460 -0.9304
 7445TIP3    H222272   1.837   3.092   5.198 -0.0306  0.1047  0.1759
 7446TIP3   OH222273   3.994   2.666   4.310  0.0620 -0.9435 -0.8722
 7446TIP3    H122274   4.017   2.711   4.229  0.7644 -0.9000 -0.6547
 7446TIP3    H222275   3.976   2.738   4.372 -0.6785 -0.9784 -1.0483
 7447TIP3   OH222276   2.629   4.659   4.317 -0.2148  0.0637  0.0893
 7447TIP3    H122277   2.636   4.618   4.402  0.0790 -0.2751 -0.0999
 7447TIP3    H222278   2.617   4.586   4.256 -0.6311  0.3157 -0.1370
 7448TIP3   OH222279   3.299   5.506   4.992  0.4419 -0.2141  0.0226
 7448TIP3    H122280   3.259   5.427   4.958 -1.9208  0.5406  0.9458
 7448TIP3    H222281   3.226   5.563   5.014  2.0727  1.9492  0.0620
 7449TIP3   OH222282   1.273   3.537   5.388  0.0500 -0.5898  0.4841
 7449TIP3    H122283   1.264   3.631   5.405  0.2766  0.0855 -2.8743
 7449TIP3    H222284   1.183   3.504   5.391 -0.6506  0.7419 -3.4771
 7450TIP3   OH222285   8.277   0.235   0.610  0.3848 -0.0776 -0.4313
 7450TIP3    H122286   8.213   0.224   0.540 -1.5757 -0.5200  1.4057
 7450TIP3    H222287   8.296   0.329   0.611  1.5208 -0.2516 -2.4632
 7451TIP3   OH222288   2.668   5.640   4.617  0.0320  0.4305 -0.3755
 7451TIP3    H122289   2.580   5.675   4.612 -0.9579 -1.8204  0.7475
 7451TIP3    H222290   2.716   5.702   4.673 -1.3259  0.6674  0.5334
 7452TIP3   OH222291   4.050   5.932   4.517 -0.1983 -0.1472 -0.5419
 7452TIP3    H122292   4.117   5.998   4.500 -1.4155  0.8026 -1.7689
 7452TIP3    H222293   4.059   5.870   4.444 -0.8018  0.1036 -0.8287
 7453TIP3   OH222294   7.363   0.411   4.854  0.4155  0.4765 -0.5176
 7453TIP3    H122295   7.297   0.345   4.871  0.7605 -0.4503 -2.6799
 7453TIP3    H222296   7.446   0.369   4.876  0.5227  0.6768 -0.5321
 7454TIP3   OH222297   5.104   7.714   0.485  0.1730 -0.6435 -0.4018
 7454TIP3    H122298   5.166   7.762   0.430 -0.6368 -0.0110 -0.7765
 7454TIP3    H222299   5.118   7.749   0.573 -0.1038 -0.0260 -0.5985
 7455TIP3   OH222300   3.860   6.286   6.231  0.1672  0.1412 -0.2933
 7455TIP3    H122301   3.826   6.225   6.166  1.2337 -1.6827  0.8145
 7455TIP3    H222302   3.955   6.284   6.220  0.3134  0.4110  0.7963
 7456TIP3   OH222303   1.974   5.485   6.332 -0.0193 -0.5905  0.3196
 7456TIP3    H122304   2.025   5.542   6.275  0.0046 -1.0078 -0.0734
 7456TIP3    H222305   2.020   5.489   6.416 -1.0845  1.4536  0.8230
 7457TIP3   OH222306   2.052   4.055   5.784  0.2259  0.4969  0.1508
 7457TIP3    H122307   2.005   3.977   5.755  2.3109 -0.9003  0.4802
 7457TIP3    H222308   2.067   4.105   5.704 -0.6720  0.3384 -0.1290
 7458TIP3   OH222309   2.721   2.971   6.803  0.1276  0.0331 -0.1905
 7458TIP3    H122310   2.784   2.983   6.874  0.7833 -2.6622 -0.2561
 7458TIP3    H222311   2.762   3.014   6.727  2.3777 -2.4286 -0.4559
 7459TIP3   OH222312   2.531   5.202   4.863  0.1728  0.5409 -0.3437
 7459TIP3    H122313   2.590   5.276   4.850  0.1446  0.8973  1.4287
 7459TIP3    H222314   2.588   5.125   4.856  0.3218  0.7514 -1.5081
 7460TIP3   OH222315   2.307   5.246   4.541  0.0592 -0.1153  0.6158
 7460TIP3    H122316   2.313   5.336   4.509  0.9213 -0.0025  1.0823
 7460TIP3    H222317   2.272   5.255   4.630 -0.1002 -0.2579  0.5677
 7461TIP3   OH222318   2.629   5.741   3.080 -0.0734 -0.1298 -0.0056
 7461TIP3    H122319   2.694   5.742   3.009 -0.7614 -0.0952 -0.6430
 7461TIP3    H222320   2.551   5.781   3.041 -0.3802  0.1157  0.8530
 7462TIP3   OH222321   4.370   4.811   3.511  0.4100 -0.3248  0.2119
 7462TIP3    H122322   4.337   4.724   3.488  0.8321 -0.1945 -0.9456
 7462TIP3    H222323   4.465   4.803   3.506  0.4474  1.1655 -3.8602
 7463TIP3   OH222324   3.183   4.507   4.300  0.2191  0.4806  0.3730
 7463TIP3    H122325   3.090   4.516   4.280  0.4226  0.4945 -0.5968
 7463TIP3    H222326   3.207   4.591   4.339  0.6380  1.8886 -2.7216
 7464TIP3   OH222327   3.209   2.205   4.460 -0.3817  0.2300  0.6886
 7464TIP3    H122328   3.280   2.248   4.413  0.3864 -1.4756  0.2473
 7464TIP3    H222329   3.143   2.273   4.471  0.6888  1.4444 -0.2073
 7465TIP3   OH222330   2.873   3.859   4.119  0.3901  0.0500 -0.6885
 7465TIP3    H122331   2.820   3.923   4.165 -0.9104 -1.9584  0.7077
 7465TIP3    H222332   2.822   3.778   4.123  2.2336 -1.2322 -1.8837
 7466TIP3   OH222333   2.510   1.756   1.670  0.0425 -0.3921  0.5194
 7466TIP3    H122334   2.425   1.792   1.645  1.0847  1.0016 -1.1717
 7466TIP3    H222335   2.515   1.673   1.622  1.4754  1.6526 -3.0551
 7467TIP3   OH222336   0.048   2.691   4.467  0.4320  0.4319  0.5987
 7467TIP3    H122337   0.037   2.609   4.515 -1.2172  1.3691  1.8719
 7467TIP3    H222338  -0.039   2.731   4.468  0.1012  0.0914 -3.9715
 7468TIP3   OH222339   7.929   2.206   4.670  0.2214 -0.7524 -0.1841
 7468TIP3    H122340   8.022   2.198   4.648  0.8060  1.2959  1.3999
 7468TIP3    H222341   7.890   2.254   4.597  0.6729 -0.4398 -0.2206
 7469TIP3   OH222342   2.745   1.373   3.871  0.2868 -0.0583  0.2220
 7469TIP3    H122343   2.728   1.459   3.830 -0.3188 -0.8754 -1.2979
 7469TIP3    H222344   2.831   1.348   3.839  0.1169 -0.3725  0.0024
 7470TIP3   OH222345   2.681   2.307   4.141  0.0658 -0.3794  0.5862
 7470TIP3    H122346   2.698   2.300   4.047  1.5306 -1.4558  0.9299
 7470TIP3    H222347   2.585   2.312   4.147 -0.0298  0.0614 -0.9755
 7471TIP3   OH222348   4.181   5.011   5.925  0.3304  0.2465 -0.3927
 7471TIP3    H122349   4.098   5.060   5.924  0.9901  1.4153  0.7055
 7471TIP3    H222350   4.184   4.973   6.013  0.2407 -1.0568 -0.9488
 7472TIP3   OH222351   2.206   2.521   5.986  0.1100  0.1903 -0.1069
 7472TIP3    H122352   2.126   2.508   5.936  0.2079 -0.9902  0.0221
 7472TIP3    H222353   2.268   2.458   5.949  0.1128 -0.8657  1.6179
 7473TIP3   OH222354   2.604   4.436   2.985  0.0246 -0.1792  0.0106
 7473TIP3    H122355   2.679   4.494   2.970  0.7321 -0.6915  1.4584
 7473TIP3    H222356   2.642   4.357   3.024 -0.8567 -1.8330 -2.3335
 7474TIP3   OH222357   4.591   4.820   5.692 -0.6111 -0.0892  0.0417
 7474TIP3    H122358   4.648   4.889   5.657  0.3788 -1.2057 -0.5947
 7474TIP3    H222359   4.650   4.765   5.745 -1.3127 -0.6734  0.2233
 7475TIP3   OH222360   4.547   6.693   3.492 -0.0133  0.4325 -0.6183
 7475TIP3    H122361   4.463   6.698   3.537  0.1729  2.3870 -0.4704
 7475TIP3    H222362   4.561   6.599   3.480 -1.2225 -0.0185  1.2011
 7476TIP3   OH222363   8.437   2.081   6.132  0.1707  0.3732 -0.1353
 7476TIP3    H122364   8.492   2.152   6.101  0.3896 -1.0317 -3.1097
 7476TIP3    H222365   8.499   2.013   6.160 -0.0089  1.7581  3.9303
 7477TIP3   OH222366   4.075   4.133   6.338  0.3912  0.5527 -0.0052
 7477TIP3    H122367   4.068   4.079   6.416  0.3263  1.8556  0.9170
 7477TIP3    H222368   4.056   4.222   6.369  0.9050  1.1615 -1.3940
 7478TIP3   OH222369   8.075   5.444   5.255  0.2264 -0.2213  0.3849
 7478TIP3    H122370   8.069   5.397   5.339 -0.9574 -1.4186 -0.3535
 7478TIP3    H222371   8.155   5.411   5.215 -1.1610 -2.4876 -0.6229
 7479TIP3   OH222372   2.111   3.049   5.046  0.1736  0.9394  0.5831
 7479TIP3    H122373   2.138   3.052   4.954  0.7575  0.0299  0.7209
 7479TIP3    H222374   2.035   2.990   5.046  1.0024 -0.1513  0.8746
 7480TIP3   OH222375   4.270   6.406   5.849  0.0868 -0.1649 -0.3199
 7480TIP3    H122376   4.233   6.431   5.933  0.5559  2.1772 -0.7634
 7480TIP3    H222377   4.285   6.489   5.804  2.1533 -1.2661 -1.7368
 7481TIP3   OH222378   2.999   5.506   1.149  0.1049 -0.8492  0.1131
 7481TIP3    H122379   3.027   5.415   1.157 -0.8312 -1.2089 -0.5622
 7481TIP3    H222380   3.078   5.557   1.167  1.2261 -1.8335 -1.7989
 7482TIP3   OH222381   6.136   5.300   4.484 -0.1479 -0.0670  0.4137
 7482TIP3    H122382   6.133   5.395   4.496 -0.1504  0.3654 -2.6764
 7482TIP3    H222383   6.222   5.283   4.445 -0.6884 -1.1645 -0.3442
 7483TIP3   OH222384   3.218   6.246   4.435  0.0788 -0.0145  0.4723
 7483TIP3    H122385   3.146   6.229   4.374 -0.1199 -2.1760  1.2629
 7483TIP3    H222386   3.176   6.249   4.521  0.6885  0.6643  0.7561
 7484TIP3   OH222387   3.419   2.033   4.568  0.1404  0.1514 -0.3703
 7484TIP3    H122388   3.359   2.102   4.542  1.7630  1.6325 -0.2734
 7484TIP3    H222389   3.504   2.077   4.578  0.7924 -1.4814  1.5947
 7485TIP3   OH222390   5.280   4.670   4.660  0.1341 -0.0863  0.6629
 7485TIP3    H122391   5.340   4.738   4.631  1.0941 -0.9233  0.6662
 7485TIP3    H222392   5.322   4.588   4.633 -0.4329 -0.7302  1.7161
 7486TIP3   OH222393   5.423   3.994   2.354  0.2891 -0.3752  0.5723
 7486TIP3    H122394   5.347   4.045   2.326 -0.9206 -2.5357 -0.1896
 7486TIP3    H222395   5.421   3.999   2.449 -0.6340 -0.1711  0.5461
 7487TIP3   OH222396   3.060   4.461   6.211  0.0408  0.1990  0.0114
 7487TIP3    H122397   3.018   4.378   6.191  0.3327  0.1568 -0.4435
 7487TIP3    H222398   3.150   4.438   6.234 -0.7757  0.0534  3.3125
 7488TIP3   OH222399   0.928   2.660   3.287 -0.0582  0.8124  0.1501
 7488TIP3    H122400   0.888   2.623   3.208  1.4881  0.4316 -0.4777
 7488TIP3    H222401   0.863   2.721   3.320 -1.8332 -0.9624  0.0535
 7489TIP3   OH222402   3.109   4.454   5.900 -0.1325 -0.8594 -0.8555
 7489TIP3    H122403   3.175   4.415   5.957  0.8670  2.7409  0.5332
 7489TIP3    H222404   3.029   4.454   5.952  1.0811  3.6476  1.2035
 7490TIP3   OH222405   2.600   3.443   5.409 -0.3989  0.3020 -0.2440
 7490TIP3    H122406   2.539   3.416   5.341  0.4768  0.9033 -1.2976
 7490TIP3    H222407   2.635   3.527   5.378 -0.1649  0.7138  1.0674
 7491TIP3   OH222408   6.503   4.414   4.724 -0.0563  0.5131  0.2893
 7491TIP3    H122409   6.419   4.448   4.692 -0.7845 -0.1854  1.3994
 7491TIP3    H222410   6.564   4.430   4.653 -1.2525  0.5715 -0.7467
 7492TIP3   OH222411   5.337   4.782   3.395  0.3145  0.1069 -0.2714
 7492TIP3    H122412   5.370   4.754   3.481  1.0303 -0.0033 -0.5783
 7492TIP3    H222413   5.308   4.702   3.353 -2.2102  0.4259  0.7621
 7493TIP3   OH222414   2.927   1.724   6.850 -0.1548 -0.2359  0.0426
 7493TIP3    H122415   2.841   1.741   6.889 -0.0486 -2.1150  1.1447
 7493TIP3    H222416   2.912   1.650   6.792  1.0453 -1.6187  1.4766
 7494TIP3   OH222417   5.255   4.200   3.334  0.3437  0.0022  0.4220
 7494TIP3    H122418   5.208   4.216   3.416 -0.7217  0.3197 -0.2336
 7494TIP3    H222419   5.337   4.248   3.344 -0.2358  0.9239  0.8883
 7495TIP3   OH222420   6.434   4.845   2.234 -0.0561  0.3551 -0.1975
 7495TIP3    H122421   6.429   4.750   2.223 -0.8885  0.2815  0.7303
 7495TIP3    H222422   6.484   4.876   2.158  1.2601 -0.9506  0.1178
 7496TIP3   OH222423   5.461   5.769   4.519 -0.4060  0.3750 -0.2970
 7496TIP3    H122424   5.464   5.678   4.549  1.3432  0.2876 -0.6403
 7496TIP3    H222425   5.450   5.763   4.424 -2.0000  0.5705 -0.1368
 7497TIP3   OH222426   3.706   5.254   4.207  0.4097  0.5679  0.1611
 7497TIP3    H122427   3.715   5.304   4.126 -1.5828 -0.1475 -0.5373
 7497TIP3    H222428   3.611   5.246   4.219  0.6848 -2.6567  0.5068
 7498TIP3   OH222429   2.638   3.127   4.712  0.6462  0.0184 -0.2673
 7498TIP3    H122430   2.587   3.206   4.728 -0.1477 -0.4350 -0.5375
 7498TIP3    H222431   2.588   3.057   4.753  0.8939 -0.4770 -0.7924
 7499TIP3   OH222432   5.750   5.951   5.339  0.1771  0.2942  0.9188
 7499TIP3    H122433   5.656   5.969   5.347  0.4602  2.3028 -0.0441
 7499TIP3    H222434   5.757   5.889   5.267 -0.5445 -1.2812  2.1684
 7500TIP3   OH222435   4.326   5.721   2.851  0.4835 -0.3165 -0.0274
 7500TIP3    H122436   4.387   5.675   2.909 -0.0264 -2.4244 -1.1334
 7500TIP3    H222437   4.331   5.812   2.879  2.0717 -0.9120  1.7188
 7501TIP3   OH222438   3.633   3.158   4.933 -0.1256  1.0877 -0.0246
 7501TIP3    H122439   3.538   3.154   4.933 -0.0870 -0.0005  0.4320
 7501TIP3    H222440   3.661   3.070   4.959  1.0163  0.8819 -1.7924
 7502TIP3   OH222441   3.806   2.478   3.883 -0.0007 -0.4349 -0.1630
 7502TIP3    H122442   3.765   2.527   3.954  0.3443  1.5416 -1.2849
 7502TIP3    H222443   3.900   2.488   3.898  0.0884  1.2893 -1.7302
 7503TIP3   OH222444   3.487   4.837   4.132 -0.8099  0.0015  0.0881
 7503TIP3    H122445   3.476   4.852   4.038  0.5640  1.5569  0.1577
 7503TIP3    H222446   3.499   4.743   4.140 -0.3582 -0.0717 -1.3544
 7504TIP3   OH222447   3.887   3.975   6.167 -0.5843  0.1571  0.4817
 7504TIP3    H122448   3.945   3.937   6.102 -2.1040 -1.6467  0.1170
 7504TIP3    H222449   3.946   4.012   6.233  0.9623 -0.6564 -0.4121
 7505TIP3   OH222450   4.765   5.343   3.569  0.5968  0.0969  0.3156
 7505TIP3    H122451   4.818   5.420   3.586  0.5212  0.2964 -0.3443
 7505TIP3    H222452   4.828   5.273   3.554  0.7253  0.6857 -2.1452
 7506TIP3   OH222453   2.973   4.575   5.653  0.3101 -0.2574  0.1480
 7506TIP3    H122454   2.936   4.609   5.571  0.9528 -0.4102 -0.2018
 7506TIP3    H222455   2.959   4.480   5.648 -1.5298 -0.0728  1.1477
 7507TIP3   OH222456   3.481   6.051   2.044  0.5237 -0.3509 -0.2547
 7507TIP3    H122457   3.499   6.127   2.099  0.7263 -0.3318 -0.3479
 7507TIP3    H222458   3.399   6.016   2.078 -0.5096  0.9388 -1.3327
 7508TIP3   OH222459   3.883   4.024   3.200  0.4252  0.2993  0.2177
 7508TIP3    H122460   3.919   3.943   3.165  1.2926 -0.7969  3.4325
 7508TIP3    H222461   3.957   4.066   3.244 -0.7089  1.2696  1.2512
 7509TIP3   OH222462   3.908   3.268   3.910  0.3832 -0.3286  0.4881
 7509TIP3    H122463   3.886   3.203   3.977  0.6260 -0.1467  0.7438
 7509TIP3    H222464   3.989   3.309   3.942  1.1586 -1.0577 -0.4802
 7510TIP3   OH222465   3.466   3.271   2.657  0.1309 -0.1357  0.4483
 7510TIP3    H122466   3.529   3.256   2.727  1.7440  1.5299 -0.6004
 7510TIP3    H222467   3.446   3.184   2.622  3.3608 -0.5484 -0.4928
 7511TIP3   OH222468   4.494   5.225   4.311 -0.0897  0.2944  0.4324
 7511TIP3    H122469   4.405   5.193   4.300  0.3212 -0.2980 -1.3329
 7511TIP3    H222470   4.501   5.246   4.404 -1.7299 -0.6397  0.7779
 7512TIP3   OH222471   3.227   4.702   6.232  0.3230 -0.7788 -0.1213
 7512TIP3    H122472   3.312   4.667   6.258  0.2663  0.8441  2.4052
 7512TIP3    H222473   3.172   4.625   6.217  1.2622 -1.7900  1.5795
 7513TIP3   OH222474   3.881   4.676   3.935  0.0581  0.1440  0.7940
 7513TIP3    H122475   3.881   4.709   4.025  0.8926  0.8153  0.5445
 7513TIP3    H222476   3.967   4.698   3.901 -0.0085 -0.7217  0.0461
 7514TIP3   OH222477   6.217   4.749   3.071 -0.2199 -0.4604  0.3901
 7514TIP3    H122478   6.202   4.729   3.163 -1.2014  0.1094  0.3535
 7514TIP3    H222479   6.211   4.844   3.066  0.5805 -0.4343 -0.1306
 7515TIP3   OH222480   2.767   6.064   2.934 -0.1327  0.3328 -0.5091
 7515TIP3    H122481   2.780   6.096   2.844  0.4829  1.3053 -0.0824
 7515TIP3    H222482   2.838   6.001   2.947 -1.3292 -1.2073 -1.3425
 7516TIP3   OH222483   4.721   5.620   3.794 -0.1699  0.9065  0.2149
 7516TIP3    H122484   4.787   5.687   3.811  2.3021 -1.0246 -1.4068
 7516TIP3    H222485   4.729   5.558   3.866 -0.1018  0.5937 -0.0568
 7517TIP3   OH222486   2.414   6.821   2.296 -0.2453 -0.8693 -0.4163
 7517TIP3    H122487   2.382   6.811   2.386  1.6596 -2.3077  0.1319
 7517TIP3    H222488   2.461   6.904   2.297 -0.3062 -0.8352 -0.0890
 7518TIP3   OH222489   7.298   5.691   3.526  0.2920 -0.0936 -0.3197
 7518TIP3    H122490   7.294   5.649   3.440 -0.9614 -1.2824  0.3095
 7518TIP3    H222491   7.391   5.684   3.550  0.5814 -0.1282 -1.3796
 7519TIP3   OH222492   5.294   6.034   4.387  0.2803  0.3057  0.0453
 7519TIP3    H122493   5.236   6.071   4.320  0.4371 -0.2220 -0.3916
 7519TIP3    H222494   5.311   6.106   4.447  0.6020  0.9443 -0.8008
 7520TIP3   OH222495   4.437   1.898   4.348  0.1968  0.3248  0.1247
 7520TIP3    H122496   4.343   1.919   4.352  0.6500  2.1222  2.6743
 7520TIP3    H222497   4.481   1.981   4.362  2.2329 -0.4059 -1.5944
 7521TIP3   OH222498   4.103   6.776   5.200  0.0869 -0.3584  0.4389
 7521TIP3    H122499   4.130   6.692   5.163 -1.2173 -0.6001  0.0012
 7521TIP3    H222500   4.173   6.837   5.176  0.4812 -1.0760 -0.2401
 7522TIP3   OH222501   3.111   1.596   3.530  0.1317 -0.0550  0.2978
 7522TIP3    H122502   3.044   1.529   3.517  0.0007  0.4462 -1.9097
 7522TIP3    H222503   3.183   1.569   3.473  0.3571  1.3005 -0.0790
 7523TIP3   OH222504   2.793   3.095   6.582  0.4516  0.2750  0.0996
 7523TIP3    H122505   2.733   3.071   6.512 -1.0295  2.2831  0.6112
 7523TIP3    H222506   2.876   3.114   6.538  0.6941 -2.3195 -0.6386
 7524TIP3   OH222507   4.976   2.747   3.184 -0.3364  0.5906  0.0783
 7524TIP3    H122508   4.998   2.703   3.266 -0.0761 -0.3147 -0.4753
 7524TIP3    H222509   5.060   2.773   3.147 -0.3361 -0.4463 -0.6887
 7525TIP3   OH222510   6.313   3.482   4.253 -0.0649 -0.3818  0.3358
 7525TIP3    H122511   6.357   3.562   4.282  0.8504 -1.3124  1.6131
 7525TIP3    H222512   6.224   3.509   4.232 -0.7597  0.4095  3.9810
 7526TIP3   OH222513   4.442   2.226   3.725 -0.0478  0.0531  0.1318
 7526TIP3    H122514   4.497   2.257   3.652 -0.9394 -1.5428 -1.2642
 7526TIP3    H222515   4.436   2.132   3.711 -0.0468 -0.3022  2.4391
 7527TIP3   OH222516   4.391   5.879   4.366 -0.5639  0.7477  0.3513
 7527TIP3    H122517   4.351   5.966   4.361 -0.8049  0.8479  3.0729
 7527TIP3    H222518   4.370   5.849   4.454  1.4081 -1.1592  0.2001
 7528TIP3   OH222519   6.273   3.752   3.095  0.4187 -0.0715  0.1433
 7528TIP3    H122520   6.335   3.735   3.166 -0.8683 -1.5709  0.9380
 7528TIP3    H222521   6.300   3.693   3.025 -0.2985 -0.9861  0.6219
 7529TIP3   OH222522   4.777   4.661   5.847 -0.4624 -0.1078  0.0689
 7529TIP3    H122523   4.854   4.677   5.794 -1.5054  0.8414 -1.1996
 7529TIP3    H222524   4.805   4.679   5.937  0.8278  0.0234 -0.3553
 7530TIP3   OH222525   5.256   3.527   4.368  0.9227 -0.1449 -0.1223
 7530TIP3    H122526   5.280   3.486   4.285 -0.9734 -0.5061 -0.5137
 7530TIP3    H222527   5.322   3.495   4.430  3.3932  1.4835 -1.7998
 7531TIP3   OH222528   5.447   3.648   4.951 -0.3690 -0.1182  0.3530
 7531TIP3    H122529   5.487   3.655   4.865  1.2792 -1.2415  1.0014
 7531TIP3    H222530   5.371   3.706   4.948  2.3705  3.5789 -0.2780
 7532TIP3   OH222531   3.757   3.838   3.920 -0.2553  0.7679 -0.0002
 7532TIP3    H122532   3.681   3.889   3.891 -0.4329  0.7068  0.3535
 7532TIP3    H222533   3.791   3.886   3.995 -0.2844  0.4891  0.1921
 7533TIP3   OH222534   3.411   3.868   2.362  0.5965 -0.3222 -0.4811
 7533TIP3    H122535   3.507   3.870   2.362  0.5924 -0.0928 -0.8407
 7533TIP3    H222536   3.388   3.809   2.291  0.4495  1.1694 -1.7059
 7534TIP3   OH222537   5.993   1.510   2.247  0.1767  0.6167  0.4113
 7534TIP3    H122538   5.934   1.455   2.195  0.9242 -0.4527  0.6663
 7534TIP3    H222539   5.939   1.542   2.319  0.2713 -1.6708  1.5496
 7535TIP3   OH222540   4.483   3.889   3.800  0.7583  0.0939  0.4851
 7535TIP3    H122541   4.492   3.852   3.712  0.2334  0.0784  0.4346
 7535TIP3    H222542   4.556   3.852   3.849  0.5114 -0.6396  0.3045
 7536TIP3   OH222543   3.661   6.545   2.907  0.2167 -0.1254  0.1619
 7536TIP3    H122544   3.682   6.590   2.826 -0.3887  1.3000  0.7836
 7536TIP3    H222545   3.689   6.455   2.893  0.4509  0.2019 -1.4895
 7537TIP3   OH222546   3.212   6.907   3.898 -0.0504 -0.4493 -0.1884
 7537TIP3    H122547   3.301   6.940   3.891  0.0277 -0.5201  0.4829
 7537TIP3    H222548   3.157   6.982   3.877  0.1730 -0.5600 -1.1979
 7538TIP3   OH222549   3.750   3.421   4.170  0.4251  0.0191  0.0014
 7538TIP3    H122550   3.746   3.415   4.075 -0.0326  1.4795 -0.0960
 7538TIP3    H222551   3.743   3.515   4.188 -0.5883 -0.3273  1.5189
 7539TIP3   OH222552   2.338   0.975   3.743  0.2642 -0.8424  0.1513
 7539TIP3    H122553   2.374   0.972   3.655  0.8918 -0.5051  0.3922
 7539TIP3    H222554   2.324   1.068   3.761  0.4779 -0.8797  0.5318
 7540TIP3   OH222555   3.794   5.431   3.286  0.0880  0.2764 -0.6092
 7540TIP3    H122556   3.804   5.337   3.301  2.0852  0.5278 -0.2515
 7540TIP3    H222557   3.863   5.452   3.224 -1.5867  1.1737 -2.2089
 7541TIP3   OH222558   5.043   4.456   4.291 -0.8522  0.1783 -0.0340
 7541TIP3    H122559   5.105   4.527   4.270  0.5788 -0.6865  1.1502
 7541TIP3    H222560   5.068   4.429   4.379 -3.1083 -0.0306  0.5489
 7542TIP3   OH222561   4.981   4.369   3.223 -0.5192  0.4079  0.0011
 7542TIP3    H122562   4.895   4.411   3.229 -0.0662  1.3366  0.0883
 7542TIP3    H222563   4.988   4.316   3.302 -0.9878  0.3902  0.0300
 7543TIP3   OH222564   4.259   2.955   5.975  0.5005 -0.4551 -0.0780
 7543TIP3    H122565   4.242   2.996   6.060 -0.9269 -1.5452  0.1849
 7543TIP3    H222566   4.207   3.005   5.913 -1.0389 -1.6507  0.2047
 7544TIP3   OH222567   4.961   5.147   4.645 -0.4681 -0.1604  0.0962
 7544TIP3    H122568   5.051   5.115   4.654 -0.7208 -0.5496  1.3867
 7544TIP3    H222569   4.970   5.241   4.631  0.0933  0.0241  1.6305
 7545TIP3   OH222570   3.734   4.928   2.851  0.1172  0.5042 -0.5018
 7545TIP3    H122571   3.641   4.909   2.863  0.2102  0.4865  0.1976
 7545TIP3    H222572   3.746   4.927   2.756 -0.6721  0.8715 -0.6156
 7546TIP3   OH222573   3.292   5.389   5.324 -0.9304  0.1977 -0.0665
 7546TIP3    H122574   3.270   5.323   5.390 -0.5693  0.7453  0.5958
 7546TIP3    H222575   3.388   5.389   5.321 -0.9362  0.5463 -0.2170
 7547TIP3   OH222576   4.126   2.903   5.550  0.4002 -0.5358 -0.1246
 7547TIP3    H122577   4.207   2.954   5.555 -0.2357  0.5313 -0.5658
 7547TIP3    H222578   4.062   2.963   5.513 -0.6645 -1.2971  0.4613
 7548TIP3   OH222579   4.367   5.165   1.936 -0.3255  0.2673  0.0747
 7548TIP3    H122580   4.421   5.140   2.011 -0.0267 -0.0821 -0.2502
 7548TIP3    H222581   4.288   5.201   1.975 -0.9616 -1.5952  0.5907
 7549TIP3   OH222582   3.897   2.854   4.482  0.0136 -0.2961  0.3879
 7549TIP3    H122583   3.804   2.848   4.459 -0.0780  1.4135  0.2483
 7549TIP3    H222584   3.902   2.926   4.544  1.2871 -0.1953  0.1875
 7550TIP3   OH222585   4.205   3.704   5.937  0.4334 -0.0464  0.0312
 7550TIP3    H122586   4.252   3.779   5.973  1.3941 -0.2494 -0.7820
 7550TIP3    H222587   4.132   3.743   5.889  0.6098  0.3406  0.0732
 7551TIP3   OH222588   4.670   3.381   2.331 -0.2531  0.2095 -0.1214
 7551TIP3    H122589   4.622   3.338   2.402  0.6439  1.4711  1.2808
 7551TIP3    H222590   4.720   3.310   2.290  1.3491 -0.1263  2.2657
 7552TIP3   OH222591   3.277   3.816   2.601 -0.1681 -0.1535 -0.2776
 7552TIP3    H122592   3.340   3.809   2.530  1.5234 -0.7446  1.2588
 7552TIP3    H222593   3.285   3.733   2.648  1.2771  1.6050  2.6856
 7553TIP3   OH222594   4.911   7.181   3.942  0.3258  0.1734  0.0623
 7553TIP3    H122595   4.932   7.099   3.986  1.4031 -0.8038 -2.1989
 7553TIP3    H222596   4.851   7.156   3.872 -0.3709  1.5193  0.1521
 7554TIP3   OH222597   4.379   2.548   3.153 -0.2705 -0.2159  0.1265
 7554TIP3    H122598   4.299   2.501   3.178  0.5992 -1.8414 -0.0446
 7554TIP3    H222599   4.423   2.489   3.092  0.5026  1.1684 -0.6705
 7555TIP3   OH222600   4.048   5.863   3.491  0.5040  0.1655 -0.3884
 7555TIP3    H122601   3.998   5.876   3.411 -0.5765 -1.1266  0.0680
 7555TIP3    H222602   4.027   5.774   3.519  0.3839  0.8126  1.6645
 7556TIP3   OH222603   3.503   5.043   3.654  0.0120  0.6676 -0.2450
 7556TIP3    H122604   3.580   5.002   3.694  0.1592 -1.5089 -2.6216
 7556TIP3    H222605   3.539   5.104   3.590 -0.2072  0.7970 -0.2446
 7557TIP3   OH222606   5.442   4.711   2.705 -0.4652  0.0153 -0.1200
 7557TIP3    H122607   5.365   4.732   2.653 -0.5486 -0.2489 -0.1044
 7557TIP3    H222608   5.515   4.753   2.658 -0.6091  0.2218 -0.1611
 7558TIP3   OH222609   4.272   4.451   2.954  0.6351 -0.1178 -0.0265
 7558TIP3    H122610   4.285   4.367   2.997 -0.1306  0.4225  1.3095
 7558TIP3    H222611   4.201   4.493   3.004 -0.1096  0.6338 -1.6693
 7559TIP3   OH222612   5.444   4.721   3.663 -0.0624  0.1069 -0.5050
 7559TIP3    H122613   5.349   4.714   3.660 -0.2321  1.1465  1.5015
 7559TIP3    H222614   5.475   4.632   3.682 -0.6998 -0.0429 -0.1762
 7560TIP3   OH222615   3.295   2.775   0.645 -0.5368 -0.0686  0.1604
 7560TIP3    H122616   3.300   2.807   0.735 -0.7501 -1.4768  0.6907
 7560TIP3    H222617   3.204   2.788   0.619 -0.3965  0.6484  0.0287
 7561TIP3   OH222618   7.030   5.042   1.154 -0.5052  0.3281  0.3264
 7561TIP3    H122619   7.043   4.965   1.098 -1.4476  0.2539  0.1967
 7561TIP3    H222620   6.942   5.072   1.133  0.2096  2.0244 -0.3223
 7562TIP3   OH222621   4.370   4.688   4.241  0.2969  0.0554 -0.3330
 7562TIP3    H122622   4.310   4.676   4.314 -0.2796  2.7409 -0.3331
 7562TIP3    H222623   4.415   4.771   4.259  1.3567 -0.0753 -2.1768
 7563TIP3   OH222624   5.682   4.020   4.375 -0.4521 -0.1982 -0.3306
 7563TIP3    H122625   5.770   4.023   4.414 -0.5316  0.0000 -0.1654
 7563TIP3    H222626   5.628   3.978   4.443 -0.1053 -2.0470 -1.1627
 7564TIP3   OH222627   5.618   4.823   2.538 -0.3972 -0.3411 -0.5957
 7564TIP3    H122628   5.691   4.817   2.476  0.5404 -0.2620  0.4737
 7564TIP3    H222629   5.614   4.916   2.561 -1.1587 -0.2687 -1.0366
 7565TIP3   OH222630   3.612   5.225   3.919 -0.5576 -0.7067  0.7117
 7565TIP3    H122631   3.681   5.274   3.876 -0.4719  0.4775  2.1454
 7565TIP3    H222632   3.642   5.134   3.918  0.7910 -0.2646  0.8982
 7566TIP3   OH222633   4.104   4.032   3.571  0.2501  0.2383 -0.1859
 7566TIP3    H122634   4.071   3.963   3.628 -0.2942  0.8084  0.1891
 7566TIP3    H222635   4.083   4.113   3.616  0.1511  0.6788 -1.0145
 7567TIP3   OH222636   5.101   5.125   3.047 -0.5777  0.1509 -0.8434
 7567TIP3    H122637   5.047   5.094   2.975 -0.8449 -0.4481 -0.3917
 7567TIP3    H222638   5.188   5.090   3.029 -0.7985 -0.5627 -0.5238
 7568TIP3   OH222639   3.959   8.039   6.803  0.2497  0.0553  0.0791
 7568TIP3    H122640   4.029   7.974   6.807  0.6419  0.4769  0.1096
 7568TIP3    H222641   3.878   7.987   6.806  0.5361 -0.3498  2.0391
 7569TIP3   OH222642   6.426   3.654   4.711  0.4602  0.8558 -0.4294
 7569TIP3    H122643   6.361   3.656   4.782  2.4911 -0.5890  1.5600
 7569TIP3    H222644   6.376   3.631   4.633 -1.3394 -1.0776  1.2300
 7570TIP3   OH222645   2.467   5.034   1.030  0.1693 -0.0276 -0.0165
 7570TIP3    H122646   2.452   4.997   1.117 -1.4385 -0.8482 -0.6061
 7570TIP3    H222647   2.428   4.970   0.970  0.4256  0.9671 -1.2774
 7571TIP3   OH222648   3.408   3.914   6.525 -0.4202 -0.1721  0.2019
 7571TIP3    H122649   3.432   3.850   6.593  0.3264  0.7399  0.8047
 7571TIP3    H222650   3.422   3.867   6.443  1.5680 -0.3210  0.6046
 7572TIP3   OH222651   4.954   3.283   5.533  0.6404 -0.1025  0.4641
 7572TIP3    H122652   5.028   3.294   5.592  0.0348  1.2828  0.9759
 7572TIP3    H222653   4.965   3.351   5.466 -1.4359  1.7066  1.8871
 7573TIP3   OH222654   4.599   4.065   3.129  0.2917  0.1012 -0.0679
 7573TIP3    H122655   4.626   4.029   3.045 -1.0623 -0.4320 -0.2838
 7573TIP3    H222656   4.604   4.160   3.117 -1.3162  0.0538 -1.2359
 7574TIP3   OH222657   2.405   3.297   4.778  0.2804  0.0249  0.2393
 7574TIP3    H122658   2.399   3.345   4.695  1.8330  1.2348  0.7961
 7574TIP3    H222659   2.329   3.328   4.829  0.8682  1.3915  0.3149
 7575TIP3   OH222660   3.148   3.829   4.219  0.8289  0.3153  0.2011
 7575TIP3    H122661   3.076   3.872   4.172  0.6262  2.3023  2.2568
 7575TIP3    H222662   3.218   3.823   4.155  0.3603  2.4559 -0.5507
 7576TIP3   OH222663   4.902   2.293   5.897  0.4446 -0.0854  0.3480
 7576TIP3    H122664   4.891   2.339   5.980 -0.4702  1.0856 -0.4015
 7576TIP3    H222665   4.996   2.290   5.882  0.4925  2.3255 -0.0087
 7577TIP3   OH222666   4.903   3.676   3.984 -0.4275  0.4651  0.3033
 7577TIP3    H122667   4.986   3.673   4.031  0.8454 -1.1516 -1.9378
 7577TIP3    H222668   4.915   3.743   3.917 -0.2406 -1.0409 -1.2019
 7578TIP3   OH222669   3.533   3.664   2.694 -0.1187 -0.1488  0.1307
 7578TIP3    H122670   3.599   3.629   2.753  1.4919 -0.2063 -1.6509
 7578TIP3    H222671   3.562   3.753   2.675 -0.5163 -0.1930 -0.7170
 7579TIP3   OH222672   5.449   3.906   5.689  0.0827  0.0187  0.3832
 7579TIP3    H122673   5.359   3.875   5.682  0.1556  0.2757 -1.9916
 7579TIP3    H222674   5.442   3.999   5.712 -0.3813  1.0486 -3.6415
 7580TIP3   OH222675   2.709   4.194   5.113  0.3755 -0.4703  0.8360
 7580TIP3    H122676   2.678   4.146   5.036  0.4422  0.5691  0.1570
 7580TIP3    H222677   2.669   4.149   5.187 -2.0261  0.2941  0.0317
 7581TIP3   OH222678   4.194   5.193   3.426 -0.4781  0.5266  0.5574
 7581TIP3    H122679   4.216   5.241   3.506  0.4970  0.8521  0.0979
 7581TIP3    H222680   4.252   5.230   3.359 -3.0119  2.0162 -0.8851
 7582TIP3   OH222681   4.988   4.454   4.873 -0.1151 -0.2462  0.3731
 7582TIP3    H122682   5.068   4.407   4.850  0.5301  1.2003 -0.4302
 7582TIP3    H222683   4.945   4.471   4.789 -1.1428 -0.7979  0.7816
 7583TIP3   OH222684   0.878   6.914   0.261  0.0065  0.3231 -0.5069
 7583TIP3    H122685   0.787   6.944   0.268  0.9043  3.1877 -0.4319
 7583TIP3    H222686   0.918   6.937   0.345  0.8560 -0.7981 -0.5907
 7584TIP3   OH222687   3.248   4.031   3.785  0.4800 -0.1678  0.1421
 7584TIP3    H122688   3.282   4.105   3.734  0.7023  0.8247  1.7156
 7584TIP3    H222689   3.153   4.037   3.776  0.5023  0.2337  0.1632
 7585TIP3   OH222690   2.947   2.794   4.450 -0.1865 -0.0872 -0.0384
 7585TIP3    H122691   2.932   2.787   4.544  1.8437  0.5311  0.3680
 7585TIP3    H222692   2.933   2.706   4.416  0.8107 -0.7017  1.1174
 7586TIP3   OH222693   7.237   5.804   2.210  0.8236 -0.4059 -0.2839
 7586TIP3    H122694   7.155   5.804   2.259  0.6446 -0.8539 -0.5808
 7586TIP3    H222695   7.267   5.895   2.213  1.4506 -0.6442  1.7493
 7587TIP3   OH222696   3.824   3.829   5.497  0.6269  0.3068 -0.4298
 7587TIP3    H122697   3.763   3.849   5.568  2.9109 -0.0117  1.7212
 7587TIP3    H222698   3.834   3.912   5.450 -2.3215  0.0714 -1.5931
 7588TIP3   OH222699   3.442   3.992   4.909 -0.2350 -0.2570 -0.4682
 7588TIP3    H122700   3.426   4.078   4.947  0.3789 -0.4670  0.2791
 7588TIP3    H222701   3.448   4.007   4.815 -0.3845  0.4753 -0.3588
 7589TIP3   OH222702   3.249   7.056   4.257 -0.6400  0.3701 -0.0716
 7589TIP3    H122703   3.193   7.049   4.335  0.9875 -0.5417  1.0609
 7589TIP3    H222704   3.229   6.977   4.207 -0.5445  0.1504  0.2291
 7590TIP3   OH222705   3.960   3.386   5.178 -0.0309 -0.1978 -0.0252
 7590TIP3    H122706   3.921   3.469   5.150 -0.3145 -0.4733 -0.4521
 7590TIP3    H222707   4.027   3.411   5.242 -0.2615  0.3435  0.0047
 7591TIP3   OH222708   5.270   5.052   4.171 -0.0274 -0.0206 -0.2603
 7591TIP3    H122709   5.319   5.125   4.208 -0.0677 -0.5124  0.7951
 7591TIP3    H222710   5.302   5.044   4.081  1.2776  0.1496  0.1807
 7592TIP3   OH222711   3.172   4.941   5.545  0.0691 -0.1638  0.4553
 7592TIP3    H122712   3.181   4.847   5.532 -0.6645  0.1146 -2.4476
 7592TIP3    H222713   3.084   4.952   5.581 -1.3193 -0.3929 -2.6440
 7593TIP3   OH222714   5.120   3.507   5.780  0.4178 -0.0871 -0.0948
 7593TIP3    H122715   5.213   3.522   5.767 -0.0103  2.5450 -0.2597
 7593TIP3    H222716   5.084   3.592   5.805 -2.0427 -0.9217 -0.5979
 7594TIP3   OH222717   2.849   4.379   4.977 -0.6534  0.1182  1.0497
 7594TIP3    H122718   2.790   4.326   5.031  0.4620  0.8646  3.0632
 7594TIP3    H222719   2.928   4.327   4.968 -0.5993  0.2643  0.6539
 7595TIP3   OH222720   4.588   4.410   4.059  0.0616  0.4328 -0.6437
 7595TIP3    H122721   4.563   4.396   4.151  0.0597  0.0727 -0.6964
 7595TIP3    H222722   4.637   4.331   4.036 -1.4800 -0.3042 -1.4883
 7596TIP3   OH222723   4.280   6.134   4.463  0.4584 -0.2258  0.1306
 7596TIP3    H122724   4.312   6.157   4.551 -0.7448  0.1268  0.4953
 7596TIP3    H222725   4.202   6.190   4.451 -0.7841 -1.9850 -0.1894
 7597TIP3   OH222726   6.237   4.492   3.759 -0.1916 -0.1560 -0.0493
 7597TIP3    H122727   6.155   4.442   3.757  0.3338 -1.2205  2.6240
 7597TIP3    H222728   6.282   4.462   3.838  1.5870  2.3126 -0.0375
 7598TIP3   OH222729   3.440   4.265   4.803  0.3181 -0.7284  0.1905
 7598TIP3    H122730   3.356   4.308   4.786  0.7053 -0.6371 -1.5703
 7598TIP3    H222731   3.470   4.236   4.717  1.8680 -1.1947  0.8718
 7599TIP3   OH222732   2.419   3.385   5.195 -0.3759 -0.0720 -0.4202
 7599TIP3    H122733   2.386   3.300   5.225  0.9989  0.4779  2.7522
 7599TIP3    H222734   2.508   3.368   5.164 -0.1161  0.2131  0.1704
 7600TIP3   OH222735   2.973   5.366   4.905 -0.2632 -0.0740  0.3078
 7600TIP3    H122736   3.059   5.334   4.878 -0.2108 -0.9293  1.4240
 7600TIP3    H222737   2.989   5.404   4.991 -0.7978  0.7548  0.0371
 7601TIP3   OH222738   5.328   5.905   5.037 -0.1395 -0.0744 -0.0990
 7601TIP3    H122739   5.251   5.933   4.988  0.5903 -2.1150 -2.5049
 7601TIP3    H222740   5.312   5.812   5.056  0.8520 -0.0068  1.1219
 7602TIP3   OH222741   4.574   4.869   4.358  0.0955  0.2419  0.3365
 7602TIP3    H122742   4.552   4.875   4.451  1.8129 -0.8598  0.8344
 7602TIP3    H222743   4.655   4.918   4.349 -1.8304  3.2840 -1.2664
 7603TIP3   OH222744   3.253   4.313   5.703 -0.1645  0.1534 -0.0670
 7603TIP3    H122745   3.227   4.374   5.634 -3.1685 -0.6587  0.2649
 7603TIP3    H222746   3.197   4.335   5.777  1.7445 -0.2080  1.5181
 7604TIP3   OH222747   3.033   4.137   5.782 -0.1184 -0.0046  0.2470
 7604TIP3    H122748   3.125   4.153   5.758 -0.5877  0.4905 -1.2570
 7604TIP3    H222749   3.026   4.042   5.786 -0.0557 -0.1128 -1.7589
 7605TIP3   OH222750   4.633   3.174   4.087 -0.0920 -0.2188 -0.0291
 7605TIP3    H122751   4.579   3.163   4.009 -0.6220  0.7742  0.1976
 7605TIP3    H222752   4.722   3.189   4.053 -0.0093 -1.4585 -0.4007
 7606TIP3   OH222753   3.551   4.433   3.399 -0.0823 -0.8971 -0.0296
 7606TIP3    H122754   3.627   4.435   3.341 -0.9709  1.7198 -1.1811
 7606TIP3    H222755   3.504   4.354   3.375  0.9434 -1.2100 -1.0641
 7607TIP3   OH222756   4.993   2.755   5.786 -0.2766  0.3542  0.0379
 7607TIP3    H122757   5.053   2.830   5.791 -0.7289  0.8845 -2.0271
 7607TIP3    H222758   4.913   2.791   5.748 -0.6934 -1.0724 -0.4688
 7608TIP3   OH222759   4.545   4.869   6.860 -0.2783 -0.4466  0.3931
 7608TIP3    H122760   4.599   4.804   6.816  0.6928  0.3257  0.4238
 7608TIP3    H222761   4.602   4.905   6.929 -0.2702  1.5256 -0.6109
 7609TIP3   OH222762   5.084   3.129   5.988  0.1118 -0.6749 -0.3429
 7609TIP3    H122763   5.175   3.157   5.977 -0.0140 -0.5762 -1.1662
 7609TIP3    H222764   5.053   3.180   6.064  1.2268 -1.9519  1.0086
 7610TIP3   OH222765   5.950   4.463   5.186 -0.1021 -0.2089 -0.2355
 7610TIP3    H122766   6.036   4.463   5.228 -0.4158  0.5207  0.4068
 7610TIP3    H222767   5.943   4.375   5.148 -0.4956 -1.4805  2.6425
 7611TIP3   OH222768   3.458   4.288   5.434  0.2041 -0.7331  0.6109
 7611TIP3    H122769   3.502   4.373   5.432  1.6467 -1.4504  1.5813
 7611TIP3    H222770   3.365   4.310   5.423  0.5093  1.0146  1.2859
 7612TIP3   OH222771   3.247   5.053   2.946 -0.1769 -0.3852  0.0249
 7612TIP3    H122772   3.183   4.989   2.977 -0.4225 -0.1359  0.0358
 7612TIP3    H222773   3.213   5.083   2.862  0.0835 -0.4778 -0.1143
 7613TIP3   OH222774   3.087   6.275   2.622 -0.8119 -0.1759  0.3879
 7613TIP3    H122775   3.114   6.246   2.710  1.1733 -1.1741 -0.5100
 7613TIP3    H222776   3.102   6.370   2.623  0.9955 -0.4366  0.5508
 7614TIP3   OH222777   5.166   6.124   4.161 -0.6855 -0.0915  0.2340
 7614TIP3    H122778   5.177   6.164   4.075 -0.0460  0.7564  0.7065
 7614TIP3    H222779   5.071   6.128   4.178 -0.5102  2.2626  0.7599
 7615TIP3   OH222780   5.077   5.909   3.239 -0.0054 -0.0206 -0.2142
 7615TIP3    H122781   5.042   5.927   3.152  1.0493  1.2599 -0.3900
 7615TIP3    H222782   5.103   5.995   3.273 -0.0149 -0.5592  1.1930
 7616TIP3   OH222783   4.961   5.210   4.929  0.0093  0.0390 -0.0603
 7616TIP3    H122784   4.966   5.303   4.906  2.2382  0.4041  1.6341
 7616TIP3    H222785   5.051   5.178   4.918 -0.7495 -1.9613 -0.7255
 7617TIP3   OH222786   5.837   5.523   3.639  0.1524 -0.2460  0.3369
 7617TIP3    H122787   5.885   5.579   3.700 -0.1294 -0.4080  0.7113
 7617TIP3    H222788   5.749   5.517   3.676 -0.1987  0.1513 -0.4130
 7618TIP3   OH222789   5.276   6.288   3.952 -0.3577 -0.1757 -0.3670
 7618TIP3    H122790   5.337   6.339   3.899  1.2173 -0.9282  0.6805
 7618TIP3    H222791   5.303   6.303   4.042 -1.5709 -0.7124  0.1047
 7619TIP3   OH222792   3.472   1.628   4.163  0.1083  0.7448  0.0180
 7619TIP3    H122793   3.540   1.641   4.096  0.6548 -0.7823  0.2510
 7619TIP3    H222794   3.435   1.715   4.177 -0.5271  1.0004 -2.8104
 7620TIP3   OH222795   7.954   4.423   2.950 -0.0302  0.5405 -0.5108
 7620TIP3    H122796   7.910   4.348   2.990  0.0774  1.0004  0.4809
 7620TIP3    H222797   7.921   4.425   2.860  0.2289 -0.9021 -0.6507
 7621TIP3   OH222798   6.217   4.298   4.089 -0.2137  0.5362 -0.6337
 7621TIP3    H122799   6.290   4.334   4.139  0.5775 -1.2368 -0.4602
 7621TIP3    H222800   6.144   4.357   4.105  0.0070 -0.0335  2.6564
 7622TIP3   OH222801   4.000   4.796   6.269  0.2919 -0.3929 -0.2414
 7622TIP3    H122802   4.079   4.821   6.221  0.2392  0.5003  0.1229
 7622TIP3    H222803   4.027   4.792   6.361 -0.4085  1.3953  0.0714
 7623TIP3   OH222804   0.439   7.648   0.069  0.3422 -0.1877  0.1566
 7623TIP3    H122805   0.421   7.566   0.114  1.5631 -0.1606  0.7109
 7623TIP3    H222806   0.461   7.622  -0.020 -3.1517 -0.1715 -0.8013
 7624TIP3   OH222807   6.104   3.002   4.974  0.1142  0.2224 -0.3311
 7624TIP3    H122808   6.018   3.042   4.985  0.1512  0.2641 -0.1837
 7624TIP3    H222809   6.127   3.018   4.883 -0.1694 -0.0609 -0.4504
 7625TIP3   OH222810   7.263   3.481   3.821  0.1303 -0.1518 -0.1149
 7625TIP3    H122811   7.313   3.399   3.823 -0.6458 -0.6119  0.2785
 7625TIP3    H222812   7.330   3.550   3.827  0.6704 -0.7814  1.0769
 7626TIP3   OH222813   4.689   4.589   4.346 -0.0596  0.3073 -0.3298
 7626TIP3    H122814   4.619   4.525   4.349  0.2077 -0.0579 -1.5075
 7626TIP3    H222815   4.645   4.674   4.349 -0.6872  0.1041 -3.0508
 7627TIP3   OH222816   3.124   3.372   6.920  0.3090 -0.0063  0.0800
 7627TIP3    H122817   3.193   3.435   6.944 -1.7412  1.4300  2.5248
 7627TIP3    H222818   3.063   3.423   6.868  0.8886 -1.1979 -1.8007
 7628TIP3   OH222819   4.049   3.552   3.773  0.9819  0.6482 -0.2581
 7628TIP3    H122820   3.972   3.547   3.828 -0.6984  2.4653 -2.3705
 7628TIP3    H222821   4.122   3.559   3.835 -0.4848 -1.2474  1.7626
 7629TIP3   OH222822   5.644   3.383   5.165  0.4406 -0.5671  0.0926
 7629TIP3    H122823   5.720   3.427   5.126  2.0125 -1.2604  2.2957
 7629TIP3    H222824   5.645   3.296   5.125 -1.1883  0.4906 -2.3670
 7630TIP3   OH222825   4.199   3.550   4.297  0.2944 -0.4764  0.0129
 7630TIP3    H122826   4.113   3.572   4.333  1.4900  0.6971  2.2639
 7630TIP3    H222827   4.193   3.573   4.204 -1.0621  1.8127  0.6244
 7631TIP3   OH222828   4.480   3.078   4.950 -0.5861 -0.4473  0.3123
 7631TIP3    H122829   4.491   3.013   5.019  1.1748  1.3248  1.7562
 7631TIP3    H222830   4.534   3.152   4.977  0.1621  0.3054 -2.9750
 7632TIP3   OH222831   4.127   2.245   4.500 -0.2901  0.2490  0.9384
 7632TIP3    H122832   4.157   2.206   4.583 -0.2797  0.5905  1.0983
 7632TIP3    H222833   4.040   2.207   4.485 -0.2111  0.0423  1.0100
 7633TIP3   OH222834   5.436   5.692   3.173 -0.3453 -0.3548 -0.5312
 7633TIP3    H122835   5.377   5.737   3.232 -1.5030 -1.2023 -1.0241
 7633TIP3    H222836   5.523   5.726   3.195 -0.1816 -3.4775  4.3512
 7634TIP3   OH222837   0.555   2.303   0.169 -0.3878  0.0388 -0.2149
 7634TIP3    H122838   0.605   2.230   0.132  0.6297  0.4679  0.3141
 7634TIP3    H222839   0.614   2.378   0.164 -1.0637  0.6054  0.1938
 7635TIP3   OH222840   4.036   4.845   3.272  0.4649  0.6223 -0.0799
 7635TIP3    H122841   4.108   4.788   3.243  0.4903  0.0590  1.0881
 7635TIP3    H222842   4.065   4.879   3.356 -0.4501  0.7527  0.1863
 7636TIP3   OH222843   4.161   3.764   3.439  0.0203  0.0085 -0.1623
 7636TIP3    H122844   4.128   3.852   3.456 -0.1081  0.0952 -0.8601
 7636TIP3    H222845   4.085   3.707   3.450 -0.4271  0.2312 -1.9878
 7637TIP3   OH222846   3.607   4.707   4.671 -0.3405 -0.1035 -0.4728
 7637TIP3    H122847   3.563   4.790   4.687 -1.2615 -0.8706  1.0650
 7637TIP3    H222848   3.537   4.646   4.646  0.2281 -0.6035 -0.8869
 7638TIP3   OH222849   7.266   4.790   3.773  0.1380  0.4070  0.4325
 7638TIP3    H122850   7.189   4.798   3.717 -0.3043 -1.2589  0.7748
 7638TIP3    H222851   7.258   4.862   3.835 -1.1947  0.1973  0.5157
 7639TIP3   OH222852   5.142   2.942   4.123  0.5378  0.0383 -0.1112
 7639TIP3    H122853   5.114   2.959   4.213  0.8744 -0.5945  0.1219
 7639TIP3    H222854   5.192   3.019   4.098  0.3815  0.2454  0.2219
 7640TIP3   OH222855   2.687   4.527   5.784  0.0114 -0.8584  0.5971
 7640TIP3    H122856   2.740   4.458   5.744  1.5212  1.1796 -1.0413
 7640TIP3    H222857   2.750   4.591   5.816 -1.3913  0.8542  0.0639
 7641TIP3   OH222858   1.926   6.406   4.118  0.2843  0.5210 -0.0194
 7641TIP3    H122859   2.020   6.412   4.134  0.8118 -1.3140 -2.2359
 7641TIP3    H222860   1.917   6.411   4.023 -1.8674  0.8118  0.1743
 7642TIP3   OH222861   5.588   6.117   6.115 -0.2403  0.1497  0.4651
 7642TIP3    H122862   5.628   6.163   6.188 -0.8771  0.7254  0.4596
 7642TIP3    H222863   5.661   6.073   6.071  0.2033  0.1655  1.1799
 7643TIP3   OH222864   3.692   6.226   4.313  0.1948  0.5957  0.1982
 7643TIP3    H122865   3.693   6.162   4.242 -0.3301 -1.6065  2.0792
 7643TIP3    H222866   3.623   6.288   4.288 -1.5081 -1.3792 -0.2212
 7644TIP3   OH222867   4.551   5.202   4.820  0.0130  0.2159  0.4268
 7644TIP3    H122868   4.594   5.133   4.770 -0.8654 -1.0045  1.3319
 7644TIP3    H222869   4.490   5.241   4.758  1.1371  0.7918 -0.3503
 7645TIP3   OH222870   3.488   3.762   4.255 -0.5256  0.6455  0.7538
 7645TIP3    H122871   3.408   3.728   4.294 -1.4965  1.7815 -0.1939
 7645TIP3    H222872   3.468   3.772   4.162  1.2170 -0.4791  0.2261
 7646TIP3   OH222873   4.505   3.901   4.988  0.1654 -0.3933  0.3475
 7646TIP3    H122874   4.409   3.894   4.993  0.3064 -1.5048  1.6724
 7646TIP3    H222875   4.526   3.981   5.036 -0.2676  1.2001 -2.0308
 7647TIP3   OH222876   2.234   4.925   4.228 -0.5213  0.1030 -0.0224
 7647TIP3    H122877   2.259   5.016   4.211  0.3378 -0.2279 -0.5361
 7647TIP3    H222878   2.158   4.932   4.286 -0.8473  1.1624 -0.5521
 7648TIP3   OH222879   3.773   3.319   5.474  0.2726 -0.4092  0.1022
 7648TIP3    H122880   3.821   3.388   5.429 -0.3719  0.1798  0.3192
 7648TIP3    H222881   3.727   3.272   5.404 -0.2974  0.1672  0.0919
 7649TIP3   OH222882   5.843   3.983   3.399 -0.3076  0.1767 -0.2046
 7649TIP3    H122883   5.934   3.955   3.392  0.4543  2.0105  1.7339
 7649TIP3    H222884   5.794   3.920   3.348  2.0001 -1.1878 -0.7782
 7650TIP3   OH222885   2.967   3.587   4.936 -0.7190  1.0351  0.3291
 7650TIP3    H122886   2.889   3.594   4.992 -1.0360 -1.6133  0.2575
 7650TIP3    H222887   3.039   3.572   4.996 -0.5793  1.3566  0.2435
 7651TIP3   OH222888   2.916   3.354   1.731 -0.3346 -0.1704 -0.4216
 7651TIP3    H122889   2.873   3.360   1.817 -1.5513  1.3675 -1.1122
 7651TIP3    H222890   3.010   3.354   1.751 -0.6178 -0.8714  0.9695
 7652TIP3   OH222891   3.860   2.056   3.309  0.0974  0.2924 -1.1605
 7652TIP3    H122892   3.849   2.013   3.394  0.9913 -0.0452 -1.2120
 7652TIP3    H222893   3.943   2.103   3.316  0.3262  0.0188 -1.9441
 7653TIP3   OH222894   6.039   3.484   3.585  0.1107 -0.1265  0.3089
 7653TIP3    H122895   6.030   3.415   3.521 -0.4194 -1.0406  1.3550
 7653TIP3    H222896   5.965   3.543   3.569  1.3636  1.0029 -1.5208
 7654TIP3   OH222897   3.884   3.913   4.160 -0.9960 -0.4000 -0.4998
 7654TIP3    H122898   3.976   3.888   4.152 -1.3302 -1.4905 -1.0398
 7654TIP3    H222899   3.884   3.984   4.224  0.3029  0.1172 -1.0576
 7655TIP3   OH222900   4.833   6.031   3.451  0.4937  0.0923  0.6306
 7655TIP3    H122901   4.869   5.943   3.454  0.5688  0.1227  0.6297
 7655TIP3    H222902   4.884   6.076   3.384  0.4912  0.1514  0.6681
 7656TIP3   OH222903   3.542   3.022   4.204 -0.1417 -0.2727 -0.7455
 7656TIP3    H122904   3.521   3.043   4.113 -0.0949 -0.7940 -0.8733
 7656TIP3    H222905   3.458   2.995   4.242  0.1224 -1.4911 -1.0239
 7657TIP3   OH222906   3.230   4.727   2.217  0.0037 -0.3166 -0.0060
 7657TIP3    H122907   3.139   4.757   2.214  0.1676  0.0566 -3.5610
 7657TIP3    H222908   3.229   4.644   2.170  1.6383  0.1794 -0.9465
 7658TIP3   OH222909   3.642   4.089   3.366  0.2038  0.3087 -0.0557
 7658TIP3    H122910   3.596   4.082   3.450  0.4881  2.0402  0.2684
 7658TIP3    H222911   3.722   4.038   3.378 -0.9108 -1.4892 -0.1193
 7659TIP3   OH222912   6.547   5.131   3.104 -0.0383  0.2198  0.5145
 7659TIP3    H122913   6.454   5.113   3.112 -0.4171  1.7437 -0.2872
 7659TIP3    H222914   6.572   5.089   3.021 -0.3285  0.9831  0.0296
 7660TIP3   OH222915   4.108   2.523   4.531 -0.0355 -0.3550 -0.0146
 7660TIP3    H122916   4.128   2.431   4.511  0.8845  0.1680 -1.6497
 7660TIP3    H222917   4.084   2.561   4.446 -0.8421  0.8181  0.7226
 7661TIP3   OH222918   3.310   3.413   5.467  0.1436  0.0901  0.2823
 7661TIP3    H122919   3.377   3.380   5.407  0.3588  0.5201  0.2889
 7661TIP3    H222920   3.231   3.365   5.443  0.6959 -1.1718  0.9622
 7662TIP3   OH222921   1.471   4.721   6.105 -0.6925  0.5960 -0.1683
 7662TIP3    H122922   1.390   4.672   6.117  0.5421 -0.9392  2.1558
 7662TIP3    H222923   1.446   4.812   6.123 -2.6874  0.7505 -3.2089
 7663TIP3   OH222924   6.891   5.063   4.457  0.2010 -0.5424  0.0761
 7663TIP3    H122925   6.901   5.000   4.386  2.6453  0.5527 -0.6082
 7663TIP3    H222926   6.979   5.072   4.493 -0.5326  0.8523  1.5746
 7664TIP3   OH222927   6.038   4.760   5.025  0.2221  0.1516 -0.2297
 7664TIP3    H122928   5.944   4.756   5.043  0.1113  3.1680  0.2420
 7664TIP3    H222929   6.079   4.748   5.110  0.3775 -2.8477 -0.6752
 7665TIP3   OH222930   6.292   5.605   1.066  0.0494 -0.0782 -0.1143
 7665TIP3    H122931   6.277   5.603   0.971 -0.9303 -0.8839  0.0430
 7665TIP3    H222932   6.204   5.614   1.103  0.4372  0.2555  0.7167
 7666TIP3   OH222933   7.281   5.043   2.307 -0.5786 -0.7401 -0.0826
 7666TIP3    H122934   7.332   5.076   2.233 -2.8409  0.4022 -1.1781
 7666TIP3    H222935   7.228   5.118   2.335 -1.2762 -1.7505  1.3600
 7667TIP3   OH222936   7.943   3.855   2.806  0.4652 -0.1248  0.3287
 7667TIP3    H122937   7.927   3.779   2.863  2.9734 -0.7407  0.2428
 7667TIP3    H222938   7.972   3.924   2.866 -0.0810  0.2443  0.1784
 7668TIP3   OH222939   8.145   3.884   1.623 -0.0331 -0.4458 -0.1567
 7668TIP3    H122940   8.124   3.869   1.715  0.3327 -0.3807 -0.0604
 7668TIP3    H222941   8.114   3.806   1.578 -0.2465 -0.4623  0.0167
 7669TIP3   OH222942   7.145   5.286   2.243  0.6918 -0.0354  0.1079
 7669TIP3    H122943   7.092   5.249   2.314  1.1750 -0.6373  0.1651
 7669TIP3    H222944   7.111   5.374   2.231 -0.7750 -0.6301 -0.3021
 7670TIP3   OH222945   5.660   5.271   3.150 -0.1306  0.3140  0.3372
 7670TIP3    H122946   5.714   5.320   3.213 -0.9083  1.2265  0.3193
 7670TIP3    H222947   5.570   5.286   3.180 -0.4506 -0.0135 -0.4526
 7671TIP3   OH222948   6.151   3.574   5.478  0.1947  0.1019 -0.6065
 7671TIP3    H122949   6.096   3.533   5.410  1.6998 -2.4410 -0.3214
 7671TIP3    H222950   6.240   3.547   5.457  0.6346 -1.2283  2.7360
 7672TIP3   OH222951   5.636   3.885   5.306  0.0923 -0.4886 -0.2214
 7672TIP3    H122952   5.643   3.790   5.310  0.2440 -0.4548  0.5595
 7672TIP3    H222953   5.674   3.915   5.389 -0.7547  0.2022 -0.0707
 7673TIP3   OH222954   6.943   3.183   4.957 -0.5048  0.3155  0.4962
 7673TIP3    H122955   6.967   3.134   4.878 -1.9910 -2.1803  1.5149
 7673TIP3    H222956   6.967   3.273   4.938 -0.7798 -0.2438 -2.7794
 7674TIP3   OH222957   7.389   5.628   5.094 -0.2728  0.8679 -0.2038
 7674TIP3    H122958   7.356   5.683   5.165 -0.7001  0.7516 -0.3110
 7674TIP3    H222959   7.359   5.670   5.014  3.3893  3.0915 -0.4952
 7675TIP3   OH222960   5.766   3.488   4.314  0.1352 -0.1416 -0.4144
 7675TIP3    H122961   5.725   3.409   4.279 -0.5891  0.7453 -1.6090
 7675TIP3    H222962   5.696   3.531   4.363  0.7966 -0.7189  1.0705
 7676TIP3   OH222963   6.707   4.009   2.220  0.2754 -0.1228 -0.4486
 7676TIP3    H122964   6.616   4.022   2.193 -0.3504  0.2400  1.7312
 7676TIP3    H222965   6.706   3.924   2.265  0.9245  0.0662 -0.0715
 7677TIP3   OH222966   6.676   1.965   2.357 -1.0159  0.3568  0.5700
 7677TIP3    H122967   6.709   1.930   2.274 -2.1385 -1.1150  0.7081
 7677TIP3    H222968   6.677   1.890   2.416 -0.6711  1.2908  1.7569
 7678TIP3   OH222969   4.127   4.549   0.996 -0.3897  0.2115 -0.5915
 7678TIP3    H122970   4.139   4.643   1.010 -1.6336  0.1269  1.2086
 7678TIP3    H222971   4.042   4.529   1.036  0.5628 -1.9652  0.4335
 7679TIP3   OH222972   5.344   5.417   3.710 -0.5146 -0.3796  0.3593
 7679TIP3    H122973   5.342   5.456   3.797 -0.3358 -0.1643  0.2672
 7679TIP3    H222974   5.297   5.479   3.654  0.5222  0.1470  0.0386
 7680TIP3   OH222975   5.936   5.808   2.706 -0.2161 -0.0158  0.2462
 7680TIP3    H122976   5.860   5.849   2.747 -0.5841  0.1498 -0.5801
 7680TIP3    H222977   5.938   5.845   2.617  0.3737 -0.6028  0.0085
 7681TIP3   OH222978   7.035   4.634   2.990 -0.6452 -0.4866 -0.3021
 7681TIP3    H122979   6.963   4.681   3.032  0.0185 -0.1036  0.4112
 7681TIP3    H222980   7.065   4.571   3.056 -0.8766 -1.2339 -0.8981
 7682TIP3   OH222981   7.715   7.655   3.865 -0.3385 -0.4859 -0.0194
 7682TIP3    H122982   7.763   7.574   3.844  0.5221 -0.2922  1.1675
 7682TIP3    H222983   7.631   7.644   3.822  0.0474 -1.6996 -0.5000
 7683TIP3   OH222984   6.609   4.829   3.306  0.6142  0.1608  0.6101
 7683TIP3    H122985   6.653   4.862   3.228 -2.3329 -1.2152 -1.7516
 7683TIP3    H222986   6.529   4.881   3.312  0.1267 -0.7077  1.8868
 7684TIP3   OH222987   6.401   5.829   2.156 -0.2810 -0.4475  0.5914
 7684TIP3    H122988   6.478   5.837   2.212  0.0462  1.1319 -0.0642
 7684TIP3    H222989   6.328   5.820   2.217  0.1807  0.2975  1.2594
 7685TIP3   OH222990   5.646   4.075   4.845  0.1182 -0.0946 -0.2909
 7685TIP3    H122991   5.616   4.016   4.913 -1.0610 -0.3556 -1.0243
 7685TIP3    H222992   5.728   4.112   4.879  0.6025 -1.7652  0.3796
 7686TIP3   OH222993   7.264   3.938   4.041 -0.2915 -0.3026  0.4158
 7686TIP3    H122994   7.185   3.973   4.082  0.1582  0.3508  0.7353
 7686TIP3    H222995   7.329   3.936   4.111 -0.2378 -1.5281  0.3258
 7687TIP3   OH222996   5.954   4.924   2.171 -0.1271  0.0654 -0.0900
 7687TIP3    H122997   6.042   4.909   2.137 -0.2364  1.5025 -1.0776
 7687TIP3    H222998   5.947   5.020   2.176 -0.8740 -0.0769  1.9950
 7688TIP3   OH222999   6.427   5.770   3.753 -0.3498 -0.1857 -0.0132
 7688TIP3    H123000   6.361   5.726   3.700 -0.8961 -0.7421  1.1374
 7688TIP3    H223001   6.504   5.775   3.696 -1.5847  1.1300 -1.6256
 7689TIP3   OH223002   4.346   6.056   5.518  0.2278  0.1934  0.3891
 7689TIP3    H123003   4.276   6.098   5.568  1.1216  3.3499 -0.8543
 7689TIP3    H223004   4.300   5.996   5.459 -1.6252  3.0868 -1.2380
 7690TIP3   OH223005   7.246   2.946   2.210 -0.2116 -0.7307  0.1221
 7690TIP3    H123006   7.325   2.997   2.192 -0.8209  0.8504  1.7786
 7690TIP3    H223007   7.280   2.858   2.231  1.1395 -0.0470  0.9236
 7691TIP3   OH223008   1.496   0.528   6.835  0.2805  0.4044  0.6727
 7691TIP3    H123009   1.548   0.476   6.774  0.0196  0.4301  0.4240
 7691TIP3    H223010   1.559   0.566   6.896  0.4743 -0.1688  0.8279
 7692TIP3   OH223011   4.728   4.603   5.332 -0.3590 -0.0088  0.2588
 7692TIP3    H123012   4.734   4.697   5.316 -0.2255  0.1608  1.2811
 7692TIP3    H223013   4.657   4.594   5.396 -0.8871 -0.6690 -0.4180
 7693TIP3   OH223014   6.210   4.239   4.603 -0.3143  0.1573 -0.3832
 7693TIP3    H123015   6.263   4.197   4.535 -1.0903  0.0496 -0.9176
 7693TIP3    H223016   6.191   4.169   4.666 -1.3960 -0.2314 -1.1454
 7694TIP3   OH223017   5.321   5.993   4.658 -0.2125 -0.2002 -0.6559
 7694TIP3    H123018   5.376   5.928   4.614  0.3409 -0.0669 -0.1781
 7694TIP3    H223019   5.231   5.968   4.636 -0.0462 -1.5944  0.1460
 7695TIP3   OH223020   4.641   4.204   4.993  0.0955 -0.5259 -0.2292
 7695TIP3    H123021   4.566   4.190   5.050  1.3758  2.0028  2.2011
 7695TIP3    H223022   4.630   4.293   4.959 -0.0451 -1.5767 -3.0528
 7696TIP3   OH223023   6.577   6.015   4.020 -0.1358 -0.0183 -0.5342
 7696TIP3    H123024   6.511   6.085   4.017 -0.8436 -0.5748  1.3628
 7696TIP3    H223025   6.617   6.023   4.107  0.4607 -1.3562 -0.6690
 7697TIP3   OH223026   4.949   5.126   3.509 -0.0831 -0.1906  0.0118
 7697TIP3    H123027   4.911   5.076   3.436  0.5878 -0.5207 -0.1160
 7697TIP3    H223028   5.040   5.140   3.484  0.0382  0.0738  0.5900
 7698TIP3   OH223029   6.755   6.366   3.839 -0.2268 -0.1277  0.6230
 7698TIP3    H123030   6.750   6.311   3.917 -1.4849  0.1299  0.7257
 7698TIP3    H223031   6.849   6.378   3.825  0.0202 -0.1819  2.0903
 7699TIP3   OH223032   6.598   5.809   2.376 -0.0457  0.2883  0.6881
 7699TIP3    H123033   6.596   5.715   2.390  0.5438 -0.0245 -1.1961
 7699TIP3    H223034   6.561   5.846   2.456  2.4073 -1.4003  2.6670
 7700TIP3   OH223035   6.523   3.657   5.331  0.2546 -0.0289  0.4348
 7700TIP3    H123036   6.441   3.685   5.291  0.2071  0.1591  0.6645
 7700TIP3    H223037   6.510   3.564   5.349  0.3459 -0.1594 -0.1576
 7701TIP3   OH223038   4.387   5.856   3.269 -0.4197  0.4919 -0.2727
 7701TIP3    H123039   4.353   5.807   3.343 -0.4953 -0.1804 -0.7494
 7701TIP3    H223040   4.327   5.930   3.259 -1.4647 -0.4246 -0.8116
 7702TIP3   OH223041   7.233   2.145   3.482 -1.0370 -0.4801  0.0307
 7702TIP3    H123042   7.189   2.184   3.407 -1.0926 -1.0462 -0.2312
 7702TIP3    H223043   7.163   2.102   3.532 -1.1228  0.5764  0.8375
 7703TIP3   OH223044   2.645   0.359   0.496  0.0586  0.4495 -0.1713
 7703TIP3    H123045   2.562   0.319   0.519  0.5936 -0.2415  0.5807
 7703TIP3    H223046   2.686   0.380   0.580  0.9248  0.1827 -0.5217
 7704TIP3   OH223047   3.443   2.515   6.013  0.3546  0.4540 -0.4200
 7704TIP3    H123048   3.352   2.526   6.041  0.5973  1.5373 -0.0347
 7704TIP3    H223049   3.489   2.590   6.051  1.7292 -0.9386  0.7130
 7705TIP3   OH223050   6.708   3.676   3.298  0.0508 -0.9491  0.3036
 7705TIP3    H123051   6.682   3.689   3.389  0.8001 -0.2508  0.4171
 7705TIP3    H223052   6.630   3.637   3.257 -0.2762 -1.3090  1.2402
 7706TIP3   OH223053   4.881   4.783   2.261 -0.1289  0.1260  0.2266
 7706TIP3    H123054   4.801   4.730   2.269 -1.0993  1.5906  0.4005
 7706TIP3    H223055   4.892   4.796   2.167  0.1860 -0.4854  0.1762
 7707TIP3   OH223056   6.902   3.816   3.670  0.4873 -0.4769  0.0839
 7707TIP3    H123057   6.833   3.798   3.734 -0.8951 -1.5894 -1.6656
 7707TIP3    H223058   6.984   3.803   3.718 -0.5094 -0.4555  1.8382
 7708TIP3   OH223059   6.188   2.825   3.943  0.5684 -0.5266  0.2694
 7708TIP3    H123060   6.126   2.868   3.885  1.6276  0.4109 -0.1970
 7708TIP3    H223061   6.274   2.857   3.914  1.1020  0.2350  2.5452
 7709TIP3   OH223062   8.384   6.300   3.303  0.4374 -0.1319 -0.6286
 7709TIP3    H123063   8.396   6.206   3.314 -0.1724 -0.1604 -0.2126
 7709TIP3    H223064   8.423   6.338   3.382 -3.4773 -0.3078  1.4973
 7710TIP3   OH223065   4.772   3.150   5.008  0.1592  0.4386  0.4087
 7710TIP3    H123066   4.773   3.194   5.093  1.8361  1.9366 -0.3314
 7710TIP3    H223067   4.760   3.222   4.945 -1.1775 -0.6614 -0.6199
 7711TIP3   OH223068   0.848   3.147   2.377  0.0452 -0.5765  0.0287
 7711TIP3    H123069   0.783   3.097   2.428  2.9306 -3.5233  0.9869
 7711TIP3    H223070   0.858   3.097   2.296  0.6685  0.2025 -0.3796
 7712TIP3   OH223071   6.711   4.448   4.287  0.2171  0.0475 -0.3614
 7712TIP3    H123072   6.769   4.415   4.217  0.2709  1.6784 -1.1285
 7712TIP3    H223073   6.623   4.445   4.249 -0.0052 -0.9228  0.2251
 7713TIP3   OH223074   4.983   4.030   2.618 -0.5444 -0.1383  0.1891
 7713TIP3    H123075   4.940   4.102   2.571 -0.5395  0.0783  0.5087
 7713TIP3    H223076   5.056   4.072   2.663 -1.3946 -0.0795  1.5447
 7714TIP3   OH223077   4.964   3.730   5.214 -0.2028  0.0617  0.1066
 7714TIP3    H123078   4.940   3.655   5.269 -0.7193  0.6117  0.6352
 7714TIP3    H223079   5.059   3.731   5.215 -0.1817 -0.9773 -0.4266
 7715TIP3   OH223080   5.070   3.977   4.871  0.2755 -0.0954 -0.3060
 7715TIP3    H123081   5.010   4.005   4.941 -0.0708 -3.0932  0.6807
 7715TIP3    H223082   5.015   3.973   4.793 -0.3178 -0.6864  0.1299
 7716TIP3   OH223083   7.092   4.043   4.455  0.5637 -0.5230 -0.0560
 7716TIP3    H123084   7.128   4.123   4.494  0.9698 -0.7499  0.0426
 7716TIP3    H223085   7.161   3.977   4.468  1.0299 -0.4025 -1.9028
 7717TIP3   OH223086   6.583   4.763   4.256  0.0984  0.0737  0.0270
 7717TIP3    H123087   6.655   4.756   4.194 -0.5122  0.3146 -0.7138
 7717TIP3    H223088   6.510   4.718   4.213 -0.0008 -0.7835  1.0710
 7718TIP3   OH223089   5.623   3.906   5.033  0.3319  0.1163 -1.0465
 7718TIP3    H123090   5.638   3.924   5.126 -2.9403 -0.8877 -0.2441
 7718TIP3    H223091   5.541   3.856   5.032  0.2180  0.2892 -4.4912
 7719TIP3   OH223092   5.109   3.607   4.979  0.2411 -0.5530 -0.1008
 7719TIP3    H123093   5.024   3.651   4.979  1.3565  1.6984 -0.8814
 7719TIP3    H223094   5.155   3.644   5.055  0.6324 -1.5378  0.1460
 7720TIP3   OH223095   6.343   5.806   4.909  0.3981  0.3604 -0.6700
 7720TIP3    H123096   6.313   5.805   4.817  0.3502 -0.0994 -0.6526
 7720TIP3    H223097   6.357   5.898   4.928 -0.1051  0.5102 -0.9804
 7721TIP3   OH223098   7.574   4.612   3.569 -0.7900 -0.4978 -0.3044
 7721TIP3    H123099   7.662   4.626   3.532 -0.8500  0.4149 -0.1189
 7721TIP3    H223100   7.560   4.688   3.626 -1.8948 -0.4017 -0.7005
 7722TIP3   OH223101   7.473   4.207   3.585  0.2769 -0.0640 -0.1502
 7722TIP3    H123102   7.475   4.201   3.490 -0.0138 -0.5836 -0.1316
 7722TIP3    H223103   7.545   4.151   3.614  0.2771 -0.0198 -0.0670
 7723TIP3   OH223104   7.119   4.077   2.405 -0.2104  0.0447  0.2101
 7723TIP3    H123105   7.064   4.148   2.438  0.4731  0.7781 -0.2207
 7723TIP3    H223106   7.200   4.083   2.456  0.5574  0.7162 -1.0675
 7724TIP3   OH223107   7.008   4.746   3.686 -0.1074  0.2117 -0.6749
 7724TIP3    H123108   7.004   4.705   3.773  0.7291  0.1550 -0.6623
 7724TIP3    H223109   6.916   4.763   3.664 -0.2542  1.4650  0.8146
 7725TIP3   OH223110   7.172   4.750   3.223  0.1657 -0.3154 -0.0512
 7725TIP3    H123111   7.198   4.757   3.315  0.9412 -0.2226 -0.2797
 7725TIP3    H223112   7.173   4.656   3.205  0.9897 -0.2693 -0.2477
 7726TIP3   OH223113   5.947   3.282   2.573 -0.0741  0.0101 -0.4688
 7726TIP3    H123114   5.990   3.221   2.634  0.1442 -1.3995 -1.9995
 7726TIP3    H223115   5.896   3.340   2.630  2.5571  0.7227  1.2722
 7727TIP3   OH223116   7.424   3.251   3.887  0.7486 -0.0259 -0.1567
 7727TIP3    H123117   7.510   3.258   3.845  0.1406 -0.8227 -1.5590
 7727TIP3    H223118   7.416   3.158   3.908  0.8197  0.2766  1.2876
 7728TIP3   OH223119   4.987   3.895   3.827 -0.0057 -0.3311  0.1264
 7728TIP3    H123120   4.945   3.976   3.856  0.3733 -0.1894  0.2836
 7728TIP3    H223121   5.058   3.924   3.770  0.3655 -0.5376  0.4798
 7729TIP3   OH223122   7.142   4.254   3.362 -0.7332 -0.1124 -0.1731
 7729TIP3    H123123   7.216   4.260   3.423 -0.4896  1.1309 -0.5791
 7729TIP3    H223124   7.159   4.173   3.314  0.6996  0.4425 -0.6542
 7730TIP3   OH223125   5.216   3.785   2.355  0.5380 -0.2882 -0.2387
 7730TIP3    H123126   5.200   3.879   2.360  0.8548 -0.2129 -0.6115
 7730TIP3    H223127   5.214   3.755   2.446  0.8432  0.1425 -0.0880
 7731TIP3   OH223128   6.418   2.341   5.581 -0.1890 -0.2469  0.1697
 7731TIP3    H123129   6.347   2.316   5.640  1.1894 -1.8238  1.2210
 7731TIP3    H223130   6.463   2.413   5.627 -0.6870  0.2722 -0.1622
 7732TIP3   OH223131   7.087   5.774   4.274  0.0971 -0.3901  0.1676
 7732TIP3    H123132   7.160   5.788   4.334  0.7473 -0.8727 -0.5175
 7732TIP3    H223133   7.071   5.680   4.276 -0.2165 -0.3437 -0.0300
 7733TIP3   OH223134   6.640   5.651   2.809  0.1740 -0.6976 -0.1966
 7733TIP3    H123135   6.663   5.561   2.786 -0.1635 -1.1163  1.0961
 7733TIP3    H223136   6.710   5.680   2.868  0.0431 -0.2631 -0.2495
 7734TIP3   OH223137   7.164   1.400   3.746  0.3242 -0.5738 -0.0474
 7734TIP3    H123138   7.173   1.364   3.658  1.0671 -0.7265  0.0917
 7734TIP3    H223139   7.183   1.326   3.805  1.3133 -0.1018  0.2379
 7735TIP3   OH223140   6.721   5.530   3.676  0.6924  0.6678 -0.2699
 7735TIP3    H123141   6.731   5.550   3.769  0.7010 -0.4388 -0.0241
 7735TIP3    H223142   6.627   5.512   3.665  0.6921  0.7864 -0.4784
 7736TIP3   OH223143   6.031   6.409   3.794 -0.1587  0.2625 -0.0156
 7736TIP3    H123144   6.120   6.411   3.759 -0.3414 -3.8372 -0.9031
 7736TIP3    H223145   6.039   6.443   3.883  1.8943  1.9430 -0.7974
 7737TIP3   OH223146   7.017   6.056   1.664 -0.3506  0.4787 -0.2046
 7737TIP3    H123147   7.105   6.062   1.700 -0.1848  1.5993 -0.7834
 7737TIP3    H223148   6.962   6.106   1.724 -0.5264  0.1020 -0.0518
 7738TIP3   OH223149   6.827   2.159   4.132  0.3043  0.2548  0.2001
 7738TIP3    H123150   6.817   2.185   4.223 -0.3842 -0.3755  0.3110
 7738TIP3    H223151   6.861   2.070   4.136  1.1352  0.5544 -0.1631
 7739TIP3   OH223152   6.449   5.468   3.710 -0.1536  0.2764  0.4781
 7739TIP3    H123153   6.377   5.441   3.766 -0.3123 -0.4880 -0.0937
 7739TIP3    H223154   6.472   5.390   3.659  0.8636  0.5966  0.4251
 7740TIP3   OH223155   6.212   4.144   6.930  0.4573 -0.0846  0.5466
 7740TIP3    H123156   6.198   4.097   6.848 -0.0738  0.8874  0.0663
 7740TIP3    H223157   6.185   4.234   6.911  0.7752  0.2548  1.6517
 7741TIP3   OH223158   4.913   3.402   3.730 -0.0531  0.3863  0.2078
 7741TIP3    H123159   4.940   3.356   3.650  0.7627 -2.2237  1.9125
 7741TIP3    H223160   4.818   3.387   3.735  0.1917 -1.1431  0.7125
 7742TIP3   OH223161   4.552   4.664   0.684 -0.2566 -0.3602 -0.6457
 7742TIP3    H123162   4.516   4.752   0.672  0.1856 -0.2626 -1.2292
 7742TIP3    H223163   4.478   4.612   0.715 -0.2979  0.4432  0.6534
 7743TIP3   OH223164   5.988   4.399   2.727  0.4890 -0.6162 -0.3247
 7743TIP3    H123165   6.044   4.448   2.787 -1.3424  0.2336  0.7386
 7743TIP3    H223166   6.042   4.386   2.649  1.5576  1.7618 -0.0414
 7744TIP3   OH223167   0.205   3.622   1.285  0.1898  0.0953  0.1453
 7744TIP3    H123168   0.118   3.660   1.274  0.4531  0.2384 -1.5199
 7744TIP3    H223169   0.192   3.547   1.343 -1.3962 -1.1639 -1.7911
 7745TIP3   OH223170   4.379   3.894   6.029 -0.4925  0.0247 -0.0989
 7745TIP3    H123171   4.385   3.982   6.068  3.8274  0.4744 -1.5037
 7745TIP3    H223172   4.455   3.847   6.064 -0.7890 -2.0122 -2.1010
 7746TIP3   OH223173   4.573   4.748   1.955  0.1573  0.0501 -0.3547
 7746TIP3    H123174   4.565   4.723   2.047 -1.6367  0.2591 -0.4325
 7746TIP3    H223175   4.623   4.829   1.955 -0.2036  0.2758  0.4830
 7747TIP3   OH223176   5.578   7.526   4.190 -0.0466 -0.1084  0.1375
 7747TIP3    H123177   5.490   7.534   4.155 -0.0089 -0.0869  0.0472
 7747TIP3    H223178   5.600   7.613   4.222  0.0670 -0.0369 -0.1379
 7748TIP3   OH223179   7.455   2.732   3.403 -1.0308  0.1185  0.0822
 7748TIP3    H123180   7.496   2.689   3.328  1.7960  0.6707  1.2326
 7748TIP3    H223181   7.392   2.793   3.365 -1.1883 -1.1507 -1.7421
 7749TIP3   OH223182   5.320   5.464   3.087 -0.5260 -0.1229 -0.0364
 7749TIP3    H123183   5.285   5.419   3.164 -1.2267  0.5839  0.0680
 7749TIP3    H223184   5.340   5.553   3.118  2.8448 -0.9347  0.2951
 7750TIP3   OH223185   5.656   4.410   3.038  0.5255 -0.3164 -0.1420
 7750TIP3    H123186   5.743   4.387   3.008  1.2902  0.9334  1.0793
 7750TIP3    H223187   5.638   4.495   2.996  1.3359  1.1216  2.3237
 7751TIP3   OH223188   5.869   5.647   5.288  0.3085  0.3703 -0.2012
 7751TIP3    H123189   5.820   5.565   5.289  1.5789 -0.4249 -1.0134
 7751TIP3    H223190   5.915   5.647   5.203  2.6143  0.5154  0.9909
 7752TIP3   OH223191   0.415   5.475   4.774  0.2592 -0.2933  0.2325
 7752TIP3    H123192   0.417   5.484   4.678  1.6087 -0.5952  0.2189
 7752TIP3    H223193   0.433   5.382   4.789  1.5695  0.0502  0.8175
 7753TIP3   OH223194   4.621   6.209   4.099 -0.1094 -0.1456 -0.3385
 7753TIP3    H123195   4.602   6.176   4.187  0.3989 -0.6122 -0.3979
 7753TIP3    H223196   4.639   6.130   4.048 -2.0758 -0.0135 -1.2827
 7754TIP3   OH223197   5.134   5.079   1.702 -0.3683  0.1834  0.1127
 7754TIP3    H123198   5.093   4.994   1.686  1.6579 -0.8385  0.1983
 7754TIP3    H223199   5.191   5.094   1.627  3.2436 -1.0126  2.4693
 7755TIP3   OH223200   5.969   4.671   4.552  0.3315 -0.5436 -0.2916
 7755TIP3    H123201   5.908   4.645   4.621  1.6894 -0.5217  0.9389
 7755TIP3    H223202   5.914   4.682   4.475 -1.0338 -1.8573  0.4590
 7756TIP3   OH223203   5.901   2.547   4.251 -0.0599 -0.0817  0.2589
 7756TIP3    H123204   5.883   2.495   4.329 -0.3161  1.5241  1.2792
 7756TIP3    H223205   5.982   2.594   4.272  0.3964 -0.3841 -0.8145
 7757TIP3   OH223206   5.474   5.903   1.002 -0.3780 -0.9349 -0.0153
 7757TIP3    H123207   5.538   5.900   0.931  1.2221  0.3053  1.3242
 7757TIP3    H223208   5.414   5.974   0.977 -0.0469 -0.7526 -0.2996
 7758TIP3   OH223209   6.119   3.408   2.126  0.5307  0.1418  0.3243
 7758TIP3    H123210   6.157   3.323   2.106  0.2479  0.2318 -0.6193
 7758TIP3    H223211   6.048   3.388   2.188  0.2963 -0.3342 -0.0943
 7759TIP3   OH223212   0.210   4.261   3.621 -0.1205 -0.0544  0.5359
 7759TIP3    H123213   0.285   4.321   3.624  0.3786 -0.4632 -2.0184
 7759TIP3    H223214   0.158   4.292   3.547 -0.9986 -1.4463  0.5459
 7760TIP3   OH223215   7.540   6.285   2.980 -0.5373  0.2301  0.1946
 7760TIP3    H123216   7.492   6.205   2.957 -0.9538 -0.1401  2.3072
 7760TIP3    H223217   7.619   6.282   2.925  0.5376 -2.7675  1.8202
 7761TIP3   OH223218   5.472   4.343   2.242  0.5807 -0.2796 -0.1667
 7761TIP3    H123219   5.478   4.436   2.262 -0.2320 -0.0130 -1.1694
 7761TIP3    H223220   5.429   4.305   2.319 -3.1433  0.8471 -1.5585
 7762TIP3   OH223221   5.827   5.184   1.301  0.2989  0.2804 -0.1756
 7762TIP3    H123222   5.781   5.102   1.287 -0.6865  0.6037  1.1153
 7762TIP3    H223223   5.873   5.172   1.384  0.9630  0.6683 -0.4838
 7763TIP3   OH223224   7.580   5.425   3.897 -0.4146 -0.0426 -0.1211
 7763TIP3    H123225   7.488   5.435   3.923  0.5231  0.8702  3.0488
 7763TIP3    H223226   7.602   5.507   3.854 -1.4672 -0.8535 -2.3006
 7764TIP3   OH223227   5.800   3.813   4.129  0.4262 -0.0331  0.2035
 7764TIP3    H123228   5.820   3.905   4.147  1.2681 -0.0633 -0.5288
 7764TIP3    H223229   5.778   3.811   4.035 -0.2036 -0.4829  0.3524
 7765TIP3   OH223230   4.167   5.981   3.089 -0.2525 -0.0808  0.2042
 7765TIP3    H123231   4.235   5.992   3.022 -0.2714 -1.5043 -0.0812
 7765TIP3    H223232   4.181   6.053   3.150  1.5172 -0.3386  0.1408
 7766TIP3   OH223233   4.459   4.103   4.610  0.3329  0.7872 -0.7937
 7766TIP3    H123234   4.489   4.111   4.519  1.0656  1.1068 -0.5286
 7766TIP3    H223235   4.539   4.109   4.662  0.1450 -1.3064 -0.2104
 7767TIP3   OH223236   5.821   6.224   5.387 -0.3475 -0.3253  0.9570
 7767TIP3    H123237   5.813   6.228   5.482 -2.2660  1.2913  0.7601
 7767TIP3    H223238   5.779   6.141   5.363 -0.9227 -0.1730  1.4213
 7768TIP3   OH223239   4.536   5.218   3.615 -0.0152  0.8137  0.0458
 7768TIP3    H123240   4.561   5.127   3.632 -0.3414  0.4029 -1.5692
 7768TIP3    H223241   4.618   5.260   3.590 -0.2117  0.4535 -1.2365
 7769TIP3   OH223242   6.352   6.348   4.775 -0.4958 -0.4997  0.1298
 7769TIP3    H123243   6.301   6.428   4.764  0.5139  0.0708 -0.5441
 7769TIP3    H223244   6.429   6.361   4.719  0.2140 -1.4737  0.8524
 7770TIP3   OH223245   4.202   5.010   0.424 -0.5471  0.2840 -0.0072
 7770TIP3    H123246   4.234   4.990   0.336 -0.0355 -0.9482  0.4438
 7770TIP3    H223247   4.227   4.934   0.476 -0.8640  0.9954  1.2033
 7771TIP3   OH223248   1.218   4.583   4.134 -0.3827  0.3211 -0.0625
 7771TIP3    H123249   1.281   4.586   4.205  0.1903 -1.3943 -0.4804
 7771TIP3    H223250   1.134   4.605   4.175  0.1000  0.3081  0.9317
 7772TIP3   OH223251   5.963   5.285   3.889 -0.0845  0.3576  0.1102
 7772TIP3    H123252   5.992   5.336   3.813  1.6660 -2.0076 -0.8796
 7772TIP3    H223253   5.915   5.347   3.943  1.6294  2.9478 -1.2536
 7773TIP3   OH223254   7.662   3.058   4.764  0.1160  0.0690 -0.0989
 7773TIP3    H123255   7.614   3.065   4.681  1.2254 -1.2629 -0.8703
 7773TIP3    H223256   7.600   3.018   4.825  0.0390 -1.0750 -0.9195
 7774TIP3   OH223257   5.405   4.883   4.508 -0.1707 -0.3704  0.3371
 7774TIP3    H123258   5.333   4.863   4.448 -0.1107  0.4400 -0.0052
 7774TIP3    H223259   5.478   4.830   4.478 -0.6418 -1.2541  0.7278
 7775TIP3   OH223260   5.908   5.593   5.022  0.4854  0.6246  0.6746
 7775TIP3    H123261   5.967   5.519   5.002  0.3556  0.5616  0.5266
 7775TIP3    H223262   5.839   5.587   4.956 -0.4679 -0.1567  1.7208
 7776TIP3   OH223263   3.877   6.569   4.659 -0.2650  0.1709  0.5283
 7776TIP3    H123264   3.922   6.593   4.578  0.3117 -0.1217  0.7609
 7776TIP3    H223265   3.836   6.484   4.640  0.5804 -0.3070  0.8097
 7777TIP3   OH223266   3.334   5.325   0.634 -0.6959 -0.1543 -0.1169
 7777TIP3    H123267   3.379   5.285   0.708 -0.8689 -0.0270  0.0564
 7777TIP3    H223268   3.252   5.359   0.670 -0.8343 -0.1926 -0.3873
 7778TIP3   OH223269   6.333   4.881   3.984  0.0304  0.2342 -0.8087
 7778TIP3    H123270   6.290   4.945   4.040  0.1523 -0.1902 -0.2280
 7778TIP3    H223271   6.355   4.808   4.043 -0.5806 -0.5686 -1.5601
 7779TIP3   OH223272   4.911   1.354   2.457  0.3337  0.0285  0.0622
 7779TIP3    H123273   4.834   1.411   2.450 -0.8012 -1.6214 -1.4717
 7779TIP3    H223274   4.955   1.362   2.372 -0.0610 -1.6262 -0.3262
 7780TIP3   OH223275   6.034   5.014   6.779  0.1912 -0.4042  0.2681
 7780TIP3    H123276   6.096   5.001   6.707  0.6879  0.9374  0.4283
 7780TIP3    H223277   6.074   4.970   6.854 -0.1335 -1.4589 -0.1769
 7781TIP3   OH223278   7.705   4.222   2.720  0.0046 -0.4134 -0.2850
 7781TIP3    H123279   7.644   4.205   2.648  0.9974  0.3618 -1.3134
 7781TIP3    H223280   7.787   4.181   2.692  0.4744  0.1310  0.2932
 7782TIP3   OH223281   4.821   3.459   5.130  0.5300 -0.4677  0.1590
 7782TIP3    H123282   4.800   3.427   5.042 -1.0258 -0.4652  0.5079
 7782TIP3    H223283   4.840   3.552   5.119  0.5616 -0.5191 -0.2168
 7783TIP3   OH223284   1.422   4.300   3.944 -0.0312 -0.3970 -0.0798
 7783TIP3    H123285   1.467   4.265   4.021  0.3310 -0.0552 -0.1342
 7783TIP3    H223286   1.445   4.240   3.873 -0.9019 -1.0870  0.2153
 7784TIP3   OH223287   4.287   5.236   5.612 -0.1296  0.4227  0.3327
 7784TIP3    H123288   4.309   5.248   5.704  0.3855  1.6503  0.0545
 7784TIP3    H223289   4.333   5.156   5.586 -3.1985 -2.0504  2.0812
 7785TIP3   OH223290   4.793   5.989   6.446 -0.1288  0.1552 -0.1736
 7785TIP3    H123291   4.832   5.907   6.415 -0.8443 -0.0254 -0.5884
 7785TIP3    H223292   4.858   6.023   6.508 -0.0426 -0.9752  0.3799
 7786TIP3   OH223293   7.855   5.105   2.990 -0.4090 -0.3711  0.1226
 7786TIP3    H123294   7.928   5.071   3.042 -0.5219 -2.8713 -1.2765
 7786TIP3    H223295   7.819   5.176   3.043  3.3278  1.2691  0.6293
 7787TIP3   OH223296   5.582   3.906   6.249 -0.1092  0.2950  0.0487
 7787TIP3    H123297   5.565   3.922   6.156 -1.6374  1.0573  0.4488
 7787TIP3    H223298   5.500   3.872   6.283  0.8100 -1.1230  0.8789
 7788TIP3   OH223299   4.008   3.124   4.371  0.6373  0.6409  0.5222
 7788TIP3    H123300   4.017   3.100   4.463 -0.4993 -0.2290  0.4192
 7788TIP3    H223301   3.915   3.146   4.361  0.9031  1.4247 -0.2525
 7789TIP3   OH223302   5.913   4.194   4.839  0.0963 -0.3705  0.1834
 7789TIP3    H123303   5.992   4.178   4.889  0.4811 -1.6566 -0.8029
 7789TIP3    H223304   5.926   4.280   4.800  0.7443 -0.3146  0.5298
 7790TIP3   OH223305   8.469   4.129   3.455 -0.2217  0.1546  0.4690
 7790TIP3    H123306   8.464   4.079   3.536 -2.1660 -0.8825 -0.2658
 7790TIP3    H223307   8.511   4.069   3.392 -1.6361 -0.2097 -0.1415
 7791TIP3   OH223308   6.106   5.814   3.037 -0.3854  0.3481 -0.1371
 7791TIP3    H123309   6.146   5.741   2.988 -1.2778  0.2502 -0.7333
 7791TIP3    H223310   6.121   5.792   3.129  0.7157  0.1929 -0.3424
 7792TIP3   OH223311   3.158   3.162   6.720  0.5648  0.1589  0.3862
 7792TIP3    H123312   3.227   3.101   6.747 -2.7949 -2.8016  2.8457
 7792TIP3    H223313   3.165   3.235   6.781 -0.4274 -1.6473  2.7394
 7793TIP3   OH223314   4.858   2.976   4.334  0.0559 -0.2319  0.2873
 7793TIP3    H123315   4.806   2.901   4.303 -0.7631  0.0589  0.9616
 7793TIP3    H223316   4.877   2.956   4.425 -0.9224  0.8007  0.7262
 7794TIP3   OH223317   5.690   3.129   5.884 -0.2701  0.8906  0.2949
 7794TIP3    H123318   5.609   3.181   5.886 -2.3154 -2.1311  0.5225
 7794TIP3    H223319   5.714   3.117   5.976 -1.9713 -1.6257  0.4820
 7795TIP3   OH223320   5.846   2.206   0.876  0.3594  0.0093 -0.2282
 7795TIP3    H123321   5.930   2.229   0.837  1.2490 -0.7102  1.2529
 7795TIP3    H223322   5.827   2.118   0.843  1.0000 -0.5047  0.7577
 7796TIP3   OH223323   6.171   2.908   4.445  0.0863 -0.3512 -0.3338
 7796TIP3    H123324   6.239   2.941   4.504  0.4436 -0.5280 -0.6421
 7796TIP3    H223325   6.193   2.946   4.360 -0.0752 -0.5881 -0.4795
 7797TIP3   OH223326   5.671   5.947   4.636 -0.1703  0.3431  0.0632
 7797TIP3    H123327   5.616   5.887   4.585  1.0657 -1.0694  0.3523
 7797TIP3    H223328   5.632   5.946   4.724 -0.5477  0.4770 -0.1016
 7798TIP3   OH223329   4.690   6.633   4.880  0.1337  0.4399 -0.2643
 7798TIP3    H123330   4.699   6.719   4.838 -2.1753  1.0767  0.4652
 7798TIP3    H223331   4.704   6.650   4.973  0.6890 -0.1492 -0.2403
 7799TIP3   OH223332   4.822   4.032   5.633 -0.4560 -0.6030 -0.1928
 7799TIP3    H123333   4.794   4.121   5.614  0.3573 -0.3355 -0.1735
 7799TIP3    H223334   4.872   4.005   5.556 -0.6459 -1.0106 -0.1720
 7800TIP3   OH223335   7.223   4.769   6.079  0.5152  0.1254 -0.5455
 7800TIP3    H123336   7.215   4.676   6.100 -0.0976  0.2575 -0.1868
 7800TIP3    H223337   7.267   4.771   5.994 -0.6267 -0.5381 -1.1723
 7801TIP3   OH223338   6.986   4.370   4.711 -0.3888  0.3303  0.2159
 7801TIP3    H123339   7.027   4.450   4.744 -1.6428  0.4803  1.4271
 7801TIP3    H223340   6.919   4.348   4.776 -0.1543 -1.6322 -0.1606
 7802TIP3   OH223341   6.351   4.751   1.848 -0.1575  0.4176  0.1878
 7802TIP3    H123342   6.277   4.767   1.906  0.5214  1.8765  0.6831
 7802TIP3    H223343   6.425   4.794   1.891  0.9427 -0.8530 -0.3964
 7803TIP3   OH223344   7.285   6.046   3.626  0.1720 -0.3581  0.2586
 7803TIP3    H123345   7.261   6.087   3.543 -1.8846 -0.0398  0.9782
 7803TIP3    H223346   7.379   6.062   3.635 -0.1020  1.9218 -0.7152
 7804TIP3   OH223347   4.969   5.676   2.614 -0.1340  0.1981  0.2828
 7804TIP3    H123348   5.064   5.683   2.623  0.1475 -3.3531  0.8191
 7804TIP3    H223349   4.934   5.707   2.697  0.5384  1.2322  0.1940
 7805TIP3   OH223350   7.601   3.138   3.609  0.5908 -0.3124 -0.2844
 7805TIP3    H123351   7.690   3.104   3.597  1.2617  1.4203 -0.2490
 7805TIP3    H223352   7.591   3.204   3.540 -0.4943 -0.1384  0.0381
 7806TIP3   OH223353   6.113   5.260   2.354 -0.2316 -0.1490 -0.3098
 7806TIP3    H123354   6.152   5.181   2.316  0.2936 -0.9794  1.9017
 7806TIP3    H223355   6.090   5.235   2.443 -2.9439  1.2716 -0.5383
 7807TIP3   OH223356   7.592   3.899   3.389 -0.0016  0.0868  0.1707
 7807TIP3    H123357   7.529   3.913   3.460  1.5169 -0.7400  1.7344
 7807TIP3    H223358   7.613   3.988   3.358 -1.4155  0.4033  0.0637
 7808TIP3   OH223359   5.649   5.255   3.770  0.3572 -0.3253 -0.0525
 7808TIP3    H123360   5.620   5.346   3.780  2.8132  0.5649 -0.5543
 7808TIP3    H223361   5.617   5.211   3.848 -1.6077  0.7687 -0.2237
 7809TIP3   OH223362   5.589   4.395   2.677  0.3103 -0.5584 -0.4070
 7809TIP3    H123363   5.659   4.422   2.617  0.8412 -0.9488  0.0332
 7809TIP3    H223364   5.600   4.451   2.754  1.3187 -1.9041  0.4442
 7810TIP3   OH223365   7.067   3.328   0.346  0.0233 -1.0574  0.1626
 7810TIP3    H123366   7.073   3.321   0.251  0.2559 -0.2428  0.1131
 7810TIP3    H223367   7.154   3.302   0.378  0.2320 -0.4494  0.0975
 7811TIP3   OH223368   4.997   3.716   6.232  0.4550  0.2414 -0.6023
 7811TIP3    H123369   5.043   3.794   6.261  1.1983 -0.2958 -0.3080
 7811TIP3    H223370   5.051   3.682   6.161 -0.5288  0.6886 -1.5881
 7812TIP3   OH223371   7.430   3.601   4.170 -0.0568 -0.4705 -0.4570
 7812TIP3    H123372   7.523   3.579   4.168 -0.1815 -1.3484  1.8281
 7812TIP3    H223373   7.427   3.696   4.182  0.5205 -0.4131 -0.7632
 7813TIP3   OH223374   5.522   3.649   5.239 -0.4719 -0.1201 -0.0724
 7813TIP3    H123375   5.482   3.669   5.155 -2.8728 -1.2846  0.7491
 7813TIP3    H223376   5.562   3.563   5.227  0.5952  0.4178 -0.4686
 7814TIP3   OH223377   6.483   3.037   4.191 -0.1576 -0.0915  0.6015
 7814TIP3    H123378   6.565   3.012   4.148 -0.4503  0.7377 -0.4315
 7814TIP3    H223379   6.511   3.094   4.263  0.3007 -1.2156  1.3408
 7815TIP3   OH223380   7.708   6.553   3.363  0.2259  0.1381  0.8713
 7815TIP3    H123381   7.725   6.638   3.403 -0.3828 -0.9473  3.5727
 7815TIP3    H223382   7.709   6.492   3.436 -0.0649 -2.0827 -0.9329
 7816TIP3   OH223383   6.117   2.329   4.145  0.3393  0.0468 -0.1397
 7816TIP3    H123384   6.146   2.418   4.162 -0.3934  0.2898 -0.1432
 7816TIP3    H223385   6.043   2.315   4.204  0.0501 -0.3361 -0.5839
 7817TIP3   OH223386   6.651   3.654   4.855  0.6854  0.7163 -0.9875
 7817TIP3    H123387   6.589   3.658   4.782  0.7662  1.4771 -1.0191
 7817TIP3    H223388   6.603   3.609   4.924  0.3478  0.6644 -1.2513
 7818TIP3   OH223389   4.733   2.971   3.588 -0.2178 -0.3649 -0.4210
 7818TIP3    H123390   4.684   3.053   3.584 -0.6618 -0.6141 -0.1771
 7818TIP3    H223391   4.766   2.968   3.678  0.3295 -0.1493 -0.6141
 7819TIP3   OH223392   7.398   2.957   2.988  0.0434  0.3943  0.3700
 7819TIP3    H123393   7.477   3.001   3.020  0.8700 -0.5467 -0.3593
 7819TIP3    H223394   7.401   2.970   2.893 -0.3226 -0.2210  0.2723
 7820TIP3   OH223395   7.341   5.492   2.982  0.3795  0.4556  0.1494
 7820TIP3    H123396   7.382   5.568   2.939  0.3090  1.0071  1.0541
 7820TIP3    H223397   7.393   5.478   3.061 -0.1777  0.1359  0.4623
 7821TIP3   OH223398   4.196   4.479   5.525  1.0238 -0.2775 -0.5303
 7821TIP3    H123399   4.111   4.480   5.481  1.4051  1.4805 -1.2581
 7821TIP3    H223400   4.175   4.499   5.617  0.7647  1.6503 -0.9819
 7822TIP3   OH223401   5.598   6.698   3.729  0.5777  0.3574  0.5775
 7822TIP3    H123402   5.658   6.624   3.741  0.8370  0.8004  2.0936
 7822TIP3    H223403   5.655   6.774   3.723  0.3670  0.3546 -1.9652
 7823TIP3   OH223404   5.087   4.215   5.184 -0.3361 -0.6768  0.1556
 7823TIP3    H123405   5.029   4.155   5.139 -1.1990 -0.9791  1.6330
 7823TIP3    H223406   5.045   4.301   5.174  0.0498 -0.5679 -0.5554
 7824TIP3   OH223407   5.770   6.302   5.682  0.0262 -0.8910 -0.5039
 7824TIP3    H123408   5.803   6.286   5.770  0.9134 -0.3985 -0.7492
 7824TIP3    H223409   5.697   6.241   5.672  0.2046 -1.2486  0.4109
 7825TIP3   OH223410   6.102   2.776   5.711  0.5121 -0.4849 -0.1335
 7825TIP3    H123411   6.118   2.724   5.633  0.6636  0.4434 -0.7193
 7825TIP3    H223412   6.023   2.826   5.691  0.8454  0.1457  0.1096
 7826TIP3   OH223413   6.398   3.778   4.302  0.6882  0.4765 -0.0744
 7826TIP3    H123414   6.329   3.773   4.369  0.4497 -2.8376 -0.5061
 7826TIP3    H223415   6.362   3.837   4.236 -0.6567  0.7919  0.9041
 7827TIP3   OH223416   7.479   5.421   4.226 -0.1383  0.0159  0.5514
 7827TIP3    H123417   7.453   5.371   4.304  1.6571 -0.8375  0.6406
 7827TIP3    H223418   7.567   5.390   4.207  0.0599  1.4052 -0.8706
 7828TIP3   OH223419   5.573   5.200   4.026  0.1626  0.0751 -0.2141
 7828TIP3    H123420   5.500   5.231   4.080  0.6675 -0.5761  0.8669
 7828TIP3    H223421   5.643   5.182   4.089  0.6508 -1.0084 -1.0528
 7829TIP3   OH223422   0.736   6.955   3.996 -0.0640  0.0369 -0.1931
 7829TIP3    H123423   0.806   6.931   4.057 -0.1243  0.0313 -0.1265
 7829TIP3    H223424   0.659   6.968   4.051 -0.0585  0.2781 -0.2401
 7830TIP3   OH223425   6.031   5.541   1.848 -0.3142  0.2971  0.1958
 7830TIP3    H123426   6.056   5.619   1.798  2.0430 -0.7215 -0.2808
 7830TIP3    H223427   6.018   5.473   1.782 -2.5794  0.2940  0.5904
 7831TIP3   OH223428   5.210   5.284   4.575  0.2690  0.4766  0.1563
 7831TIP3    H123429   5.171   5.323   4.497 -0.2871 -0.8583 -0.2385
 7831TIP3    H223430   5.222   5.192   4.553  0.0616  0.0750  1.6570
 7832TIP3   OH223431   3.862   6.699   3.387 -1.1175 -0.3285 -0.5267
 7832TIP3    H123432   3.942   6.719   3.339 -0.1624  0.1306  1.2119
 7832TIP3    H223433   3.870   6.605   3.408 -0.3501  0.0299  0.8514
 7833TIP3   OH223434   4.948   5.460   4.758  0.2003 -0.6353 -0.0925
 7833TIP3    H123435   4.923   5.537   4.809  2.5118 -0.8825  1.5017
 7833TIP3    H223436   4.935   5.485   4.667 -3.6227 -0.0243  0.5410
 7834TIP3   OH223437   6.025   5.149   5.076 -0.0784  0.0929 -0.7017
 7834TIP3    H123438   6.096   5.094   5.109 -1.1240 -0.1529  1.2625
 7834TIP3    H223439   6.028   5.138   4.981  1.7072 -0.8961 -0.5514
 7835TIP3   OH223440   7.255   4.385   2.509  0.3023  0.4563 -0.3754
 7835TIP3    H123441   7.212   4.401   2.593  2.0816  1.6369  0.3350
 7835TIP3    H223442   7.345   4.363   2.532  0.6937  0.3592 -1.9517
 7836TIP3   OH223443   8.245   5.219   3.454  0.1441 -0.2925  0.1175
 7836TIP3    H123444   8.271   5.159   3.524 -1.2226 -0.7657  0.2357
 7836TIP3    H223445   8.324   5.231   3.402  1.3803  0.5907  2.1124
 7837TIP3   OH223446   5.967   3.730   3.777 -0.7027  0.1386 -0.0474
 7837TIP3    H123447   6.006   3.812   3.747  0.4904  0.0573  1.2490
 7837TIP3    H223448   5.893   3.717   3.718  0.3484  1.0490 -1.6260
 7838TIP3   OH223449   5.268   2.968   3.336  0.2721 -0.0837 -0.0465
 7838TIP3    H123450   5.191   2.956   3.392 -0.5925  0.1422 -1.1611
 7838TIP3    H223451   5.254   2.908   3.263  1.0004  0.1908 -0.4188
 7839TIP3   OH223452   5.927   1.233   4.170 -0.3275 -0.1271  0.1761
 7839TIP3    H123453   5.882   1.318   4.168 -1.0347 -0.4986  0.1233
 7839TIP3    H223454   5.861   1.170   4.142  0.3810 -0.6239 -0.4017
 7840TIP3   OH223455   5.657   4.655   2.896 -0.1894 -0.0915  0.0272
 7840TIP3    H123456   5.596   4.708   2.846 -0.2091 -0.0293  0.1177
 7840TIP3    H223457   5.742   4.696   2.883 -0.6198  1.7086  2.4672
 7841TIP3   OH223458   7.898   4.077   2.600  0.3209  0.0643  0.3750
 7841TIP3    H123459   7.940   4.024   2.668  2.5426 -0.1931 -1.1374
 7841TIP3    H223460   7.821   4.027   2.573  0.8916 -1.0743  0.8543
 7842TIP3   OH223461   4.928   3.937   3.244  0.3507  0.2031 -0.1363
 7842TIP3    H123462   4.980   4.005   3.201  0.0773 -0.3488 -1.3661
 7842TIP3    H223463   4.953   3.942   3.336  2.3141  0.1700 -0.6528
 7843TIP3   OH223464   3.505   4.384   0.710  0.3981  0.4483  0.0369
 7843TIP3    H123465   3.489   4.406   0.801  2.3663  0.9462  0.2737
 7843TIP3    H223466   3.592   4.345   0.709 -0.1291 -0.7648 -1.4421
 7844TIP3   OH223467   5.884   4.273   2.944  0.2317 -0.3078 -0.2384
 7844TIP3    H123468   5.932   4.312   2.871 -1.2072  1.3426 -0.3269
 7844TIP3    H223469   5.952   4.251   3.009  1.5763 -2.1170 -2.1588
 7845TIP3   OH223470   4.662   1.707   4.703  0.1360  0.0681 -0.1600
 7845TIP3    H123471   4.633   1.682   4.615 -0.0658 -0.0034 -0.0740
 7845TIP3    H223472   4.619   1.791   4.720 -0.4212 -0.2733  0.1614
 7846TIP3   OH223473   7.123   6.034   2.997 -0.6767  0.2097  0.0935
 7846TIP3    H123474   7.063   5.981   2.944 -1.4708  1.2280 -0.0229
 7846TIP3    H223475   7.135   5.983   3.077  0.4884 -1.3146 -1.0151
 7847TIP3   OH223476   6.833   5.915   1.504 -0.0605  0.2187 -0.5051
 7847TIP3    H123477   6.746   5.908   1.542  0.3245  0.6271  0.4777
 7847TIP3    H223478   6.887   5.951   1.574  1.1251 -0.9941 -0.7658
 7848TIP3   OH223479   4.906   3.880   2.865  0.0102  0.1528 -0.3345
 7848TIP3    H123480   4.935   3.941   2.798  0.3505  1.2402  0.7820
 7848TIP3    H223481   4.819   3.910   2.890  0.3444  0.4451  0.5105
 7849TIP3   OH223482   7.490   2.867   3.645  0.6473  0.1121  0.7666
 7849TIP3    H123483   7.503   2.961   3.628  0.6082  0.1841  1.1435
 7849TIP3    H223484   7.481   2.829   3.557 -0.2494  0.5903  0.6437
 7850TIP3   OH223485   6.430   5.967   3.328  0.5055 -0.2298  0.2953
 7850TIP3    H123486   6.436   5.926   3.242  0.4788 -1.3205  0.8081
 7850TIP3    H223487   6.419   6.060   3.310  0.8561 -0.4141 -0.8752
 7851TIP3   OH223488   0.086   4.108   3.793 -0.0941 -0.0873  0.0860
 7851TIP3    H123489   0.126   4.163   3.725 -0.3354 -0.1344 -0.0977
 7851TIP3    H223490  -0.007   4.103   3.767 -0.2523  0.1668  0.5991
 7852TIP3   OH223491   6.709   4.498   3.962  0.2212 -0.2938  0.3150
 7852TIP3    H123492   6.732   4.529   3.874  0.5239  0.5114  0.6721
 7852TIP3    H223493   6.782   4.442   3.988 -0.4225 -1.5077 -0.4172
 7853TIP3   OH223494   0.407   6.202   3.688  0.8703 -0.2394  0.5394
 7853TIP3    H123495   0.482   6.150   3.660 -0.6873 -1.7436 -0.9498
 7853TIP3    H223496   0.366   6.151   3.757  0.6208  0.0844  0.6327
 7854TIP3   OH223497   1.155   4.087   4.031  0.2476 -0.1095 -0.3145
 7854TIP3    H123498   1.069   4.065   3.995 -0.1425 -0.2363  0.6774
 7854TIP3    H223499   1.173   4.175   3.997 -1.0040  0.5788  0.7727
 7855TIP3   OH223500   6.892   3.995   3.975  0.4775 -0.0125  0.5428
 7855TIP3    H123501   6.808   3.996   3.929 -0.0161 -1.0772  1.4156
 7855TIP3    H223502   6.878   3.937   4.049  1.1933  1.9345  2.2373
 7856TIP3   OH223503   7.285   5.516   3.910 -0.1320 -0.4630  0.1538
 7856TIP3    H123504   7.249   5.487   3.994  0.8155  0.7186  0.9780
 7856TIP3    H223505   7.212   5.508   3.849 -1.0612 -0.5452  1.2567
 7857TIP3   OH223506   7.494   4.845   1.457 -0.0127 -0.3062  0.2322
 7857TIP3    H123507   7.511   4.929   1.499  2.5019 -0.1109 -1.0216
 7857TIP3    H223508   7.440   4.867   1.381 -0.7680 -0.0661  0.8312
 7858TIP3   OH223509   8.092   4.884   1.558  0.3071  0.5718  0.2573
 7858TIP3    H123510   8.002   4.870   1.526  0.2312  0.6469  0.4347
 7858TIP3    H223511   8.086   4.869   1.652  0.5695  0.1607  0.2095
 7859TIP3   OH223512   7.114   6.551   2.969 -0.1669  0.1243  0.0199
 7859TIP3    H123513   7.144   6.595   3.048 -0.6073  1.1221 -0.3579
 7859TIP3    H223514   7.193   6.538   2.916 -0.3065  2.2772 -0.7501
 7860TIP3   OH223515   6.158   5.365   3.360  0.2166 -0.0088  0.3273
 7860TIP3    H123516   6.249   5.367   3.329  0.3332 -1.3263  0.5455
 7860TIP3    H223517   6.129   5.275   3.344 -0.8873  0.2683  0.7279
 7861TIP3   OH223518   6.818   5.295   4.585  0.1722 -0.0599 -0.0595
 7861TIP3    H123519   6.848   5.212   4.548 -1.3477 -0.0206 -1.4241
 7861TIP3    H223520   6.841   5.289   4.678  0.0071 -2.0597 -0.1108
 7862TIP3   OH223521   0.746   4.677   2.213  0.7801  0.7600 -0.1167
 7862TIP3    H123522   0.822   4.726   2.245  0.9592  1.2495 -1.2669
 7862TIP3    H223523   0.749   4.688   2.118 -1.3389  1.6837 -0.1040
 7863TIP3   OH223524   5.131   2.716   4.743 -0.2392  0.7072 -0.2056
 7863TIP3    H123525   5.098   2.686   4.658 -0.8879 -1.5211  0.8034
 7863TIP3    H223526   5.220   2.681   4.748  1.1829  3.9014 -1.4762
 7864TIP3   OH223527   7.408   2.510   3.636 -0.5652 -0.3294  0.1949
 7864TIP3    H123528   7.435   2.430   3.590  0.2245 -0.1272  0.3042
 7864TIP3    H223529   7.379   2.569   3.566 -1.2379 -0.7425  0.1223
 7865TIP3   OH223530   6.111   4.094   2.875 -0.2174  0.1112  0.2317
 7865TIP3    H123531   6.096   4.012   2.922 -2.1132 -0.6529 -1.6467
 7865TIP3    H223532   6.100   4.162   2.942  0.3378 -1.0932  1.5721
 7866TIP3   OH223533   7.424   4.642   4.832 -0.2304  0.0892  0.0045
 7866TIP3    H123534   7.513   4.609   4.844 -0.4163 -0.7108 -0.7426
 7866TIP3    H223535   7.367   4.567   4.849 -0.8377  0.9201  1.7714
 7867TIP3   OH223536   7.627   4.656   5.842 -0.7880 -0.3734 -0.4976
 7867TIP3    H123537   7.719   4.667   5.817 -1.0470 -0.4371 -1.5246
 7867TIP3    H223538   7.614   4.717   5.914 -0.4423  1.0716 -1.6392
 7868TIP3   OH223539   1.047   5.408   2.867  0.2575  0.1905  0.2547
 7868TIP3    H123540   1.114   5.351   2.903 -0.3026 -0.5246  0.1910
 7868TIP3    H223541   1.095   5.478   2.823  0.9488  0.4891  1.4528
 7869TIP3   OH223542   7.371   5.008   3.324 -0.4650  0.0345  0.0683
 7869TIP3    H123543   7.288   4.998   3.372  0.0467  0.3987  1.0423
 7869TIP3    H223544   7.408   5.089   3.358 -0.0990  0.3053 -0.9748
 7870TIP3   OH223545   5.036   4.829   1.629 -0.2646 -0.6495  0.1331
 7870TIP3    H123546   5.109   4.773   1.656 -0.6742 -0.6999  1.1510
 7870TIP3    H223547   4.996   4.783   1.555 -0.1372 -1.3273  0.4836
 7871TIP3   OH223548   8.194   5.090   3.015  0.5788 -0.1091 -0.1956
 7871TIP3    H123549   8.128   5.075   3.083 -0.2386 -1.4325 -1.2639
 7871TIP3    H223550   8.161   5.165   2.965  0.1233 -0.4820 -0.4492
 7872TIP3   OH223551   6.429   5.327   2.157  0.0268 -0.0419 -0.1238
 7872TIP3    H123552   6.464   5.412   2.131 -1.0980  0.4145 -0.1677
 7872TIP3    H223553   6.341   5.325   2.119  0.0381 -1.2059 -0.0929
 7873TIP3   OH223554   0.363   7.312   2.859  0.6138  0.4613 -0.3033
 7873TIP3    H123555   0.403   7.298   2.774  2.0091 -1.1005  0.5784
 7873TIP3    H223556   0.332   7.402   2.857  3.4705  1.4600 -1.3125
 7874TIP3   OH223557   7.134   3.942   3.304  0.1941 -0.7732 -0.0736
 7874TIP3    H123558   7.050   3.896   3.311 -0.6596  0.6450 -0.8234
 7874TIP3    H223559   7.136   3.976   3.215  1.2198 -0.1305  0.1873
 7875TIP3   OH223560   0.699   6.173   4.078  0.1091  0.0025  0.2257
 7875TIP3    H123561   0.621   6.214   4.116  0.6905  1.2924  0.0550
 7875TIP3    H223562   0.690   6.187   3.984  0.0228 -0.7948  0.1114
 7876TIP3   OH223563   7.233   4.118   2.176 -0.4157 -0.1307  0.2674
 7876TIP3    H123564   7.180   4.096   2.252  0.9766 -0.4027  1.1864
 7876TIP3    H223565   7.305   4.171   2.211  0.8976 -1.2506 -0.6624
 7877TIP3   OH223566   7.851   6.654   2.864  0.1837 -0.5653 -0.1578
 7877TIP3    H123567   7.831   6.655   2.957  1.2453  0.1433  0.0656
 7877TIP3    H223568   7.938   6.694   2.857 -0.1822  0.0182 -1.5204
 7878TIP3   OH223569   6.311   4.895   1.581  0.4367 -0.5313 -0.6583
 7878TIP3    H123570   6.318   4.822   1.643 -1.1051  0.0228  0.2004
 7878TIP3    H223571   6.263   4.858   1.507 -0.7279 -0.2782 -0.0341
 7879TIP3   OH223572   5.624   3.850   1.288 -0.1513 -0.4039 -0.5722
 7879TIP3    H123573   5.534   3.823   1.270 -0.7849  1.1604  0.2244
 7879TIP3    H223574   5.663   3.863   1.201 -0.8394 -0.6030 -0.9125
 7880TIP3   OH223575   7.024   4.796   1.834  0.2097  0.0571  0.2969
 7880TIP3    H123576   6.980   4.742   1.899 -0.9708  2.8272  1.8903
 7880TIP3    H223577   6.954   4.822   1.774  0.9037 -0.7628 -0.8796
 7881TIP3   OH223578   7.794   4.604   5.273  0.0670  0.0396 -0.4705
 7881TIP3    H123579   7.790   4.695   5.246  0.7913 -0.7343 -3.3214
 7881TIP3    H223580   7.876   4.571   5.236 -0.7182 -2.0550 -0.4366
 7882TIP3   OH223581   1.521   3.804   2.106 -0.1360 -0.0645  0.3201
 7882TIP3    H123582   1.577   3.747   2.158  0.6760 -0.3073 -0.8093
 7882TIP3    H223583   1.534   3.892   2.143  1.2050 -0.0759 -0.1253
 7883TIP3   OH223584   8.501   4.983   4.697  0.7736 -0.0231  0.1039
 7883TIP3    H123585   8.536   4.973   4.786 -2.7089 -1.8096  1.3462
 7883TIP3    H223586   8.440   5.057   4.704  0.3463 -0.2992 -0.7697
 7884TIP3   OH223587   5.272   2.992   5.538 -0.5643  0.1288 -0.2007
 7884TIP3    H123588   5.348   2.935   5.526 -1.4874 -1.1127 -0.1250
 7884TIP3    H223589   5.306   3.065   5.591  0.7236 -0.0897 -0.6986
 7885TIP3   OH223590   0.484   4.186   0.261  0.2689 -0.3350 -0.1440
 7885TIP3    H123591   0.508   4.266   0.215  0.3384 -0.4895 -0.3783
 7885TIP3    H223592   0.450   4.128   0.193 -1.2478  0.0683  0.2573
 7886TIP3   OH223593   1.094   6.552   4.996  0.3971  0.2900 -0.4396
 7886TIP3    H123594   1.036   6.517   4.928  1.7038  3.5108 -3.3373
 7886TIP3    H223595   1.158   6.482   5.011 -1.0812 -1.2225 -1.0463
 7887TIP3   OH223596   0.396   5.546   2.719  0.2564 -0.6187  0.1142
 7887TIP3    H123597   0.314   5.532   2.767  2.5124 -1.2482  3.9863
 7887TIP3    H223598   0.409   5.641   2.722  1.0959 -0.7777  2.0608
 7888TIP3   OH223599   5.988   5.940   5.494  0.4957 -0.3955  0.3655
 7888TIP3    H123600   5.925   5.921   5.424 -1.2892  1.6041  1.3751
 7888TIP3    H223601   5.939   5.930   5.575  1.6083  0.6140  1.1988
 7889TIP3   OH223602   7.418   6.815   2.905  0.1909  0.0065  0.4158
 7889TIP3    H123603   7.390   6.851   2.821 -0.9369 -2.3524 -0.2422
 7889TIP3    H223604   7.376   6.871   2.970  0.9601  1.7622 -0.5597
 7890TIP3   OH223605   7.956   6.846   3.386 -0.2596  0.1583  0.2024
 7890TIP3    H123606   8.012   6.880   3.455  0.4719 -1.3805  0.3858
 7890TIP3    H223607   7.915   6.924   3.348  0.2719  1.1103  1.5482
 7891TIP3   OH223608   1.235   3.367   3.225  0.5962 -0.2196 -0.8938
 7891TIP3    H123609   1.226   3.427   3.151 -0.5466  1.5001  0.5748
 7891TIP3    H223610   1.262   3.424   3.298 -1.1092 -1.3726  0.6887
 7892TIP3   OH223611   8.410   6.672   0.499  0.3063 -0.1099 -0.3826
 7892TIP3    H123612   8.492   6.709   0.466 -0.5189  2.6709  0.5257
 7892TIP3    H223613   8.364   6.747   0.538 -2.2332 -1.8011 -0.0080
 7893TIP3   OH223614   7.779   4.082   3.330  0.1405  0.5283 -0.3454
 7893TIP3    H123615   7.767   4.165   3.377 -0.8675  0.6116 -0.7371
 7893TIP3    H223616   7.864   4.049   3.360  0.7868  1.9558 -0.5641
 7894TIP3   OH223617   7.829   4.775   4.500 -0.1458  0.0837 -0.4475
 7894TIP3    H123618   7.748   4.730   4.477 -0.3304  0.4874 -0.6017
 7894TIP3    H223619   7.898   4.728   4.453 -0.3337 -0.0428 -0.5962
 7895TIP3   OH223620   7.529   5.328   5.001  0.0748  0.1547  0.0889
 7895TIP3    H123621   7.513   5.331   4.906 -1.6476  2.0224  0.4134
 7895TIP3    H223622   7.577   5.409   5.019 -0.0972  0.0775  0.8930
 7896TIP3   OH223623   5.000   1.697   6.525  0.1687 -0.5399  0.1622
 7896TIP3    H123624   5.016   1.781   6.482  1.5472 -1.0245 -0.2998
 7896TIP3    H223625   4.907   1.700   6.549 -0.2355  0.3917 -1.4154
 7897TIP3   OH223626   0.302   4.989   3.786  0.4547  0.0693  0.4873
 7897TIP3    H123627   0.391   5.022   3.769  0.2865  0.0033 -0.5152
 7897TIP3    H223628   0.256   5.000   3.703  0.0312 -1.5396  0.5079
 7898TIP3   OH223629   0.036   6.491   2.671  0.4317 -0.0374  0.4218
 7898TIP3    H123630   0.022   6.396   2.670 -1.0360  0.1740 -0.8506
 7898TIP3    H223631  -0.051   6.529   2.682  0.8579  1.1783 -0.2193
 7899TIP3   OH223632   1.552   4.236   1.110  0.1797 -0.2254 -0.4522
 7899TIP3    H123633   1.534   4.305   1.045 -0.9710 -0.1675 -0.0891
 7899TIP3    H223634   1.493   4.165   1.085  0.1351 -0.4151  0.2014
 7900TIP3   OH223635   7.785   3.739   3.258  0.2973 -0.1808  0.1187
 7900TIP3    H123636   7.745   3.803   3.317  1.0246  0.3379  0.0676
 7900TIP3    H223637   7.874   3.727   3.292  0.2208 -1.0448  0.0277
 7901TIP3   OH223638   7.099   3.062   2.860 -0.2285 -0.3481  0.3941
 7901TIP3    H123639   7.167   3.007   2.821 -0.9551 -1.5005  0.7417
 7901TIP3    H223640   7.023   3.051   2.802 -0.9136 -1.0661  1.4035
 7902TIP3   OH223641   1.124   5.950   3.949  0.0593 -0.0624 -0.1151
 7902TIP3    H123642   1.159   6.030   3.911  0.0645  0.0519  0.1286
 7902TIP3    H223643   1.083   5.978   4.031 -0.6072 -0.1979 -0.4010
 7903TIP3   OH223644   3.071   5.527   3.962 -0.2900 -0.0991 -0.3515
 7903TIP3    H123645   3.111   5.555   4.044  0.1948 -0.9873 -0.2721
 7903TIP3    H223646   3.136   5.470   3.922 -0.7381 -0.0914 -1.1030
 7904TIP3   OH223647   7.549   5.039   2.843  0.3155  0.7096  0.5825
 7904TIP3    H123648   7.472   5.017   2.897 -1.5777 -0.3532 -2.3983
 7904TIP3    H223649   7.514   5.096   2.774  2.1833  0.1128 -0.9017
 7905TIP3   OH223650   0.107   3.499   2.192  0.0100 -0.4415 -0.1390
 7905TIP3    H123651   0.169   3.464   2.256 -0.2508 -1.4728 -0.4432
 7905TIP3    H223652   0.140   3.587   2.173  0.8764 -0.6466  0.3667
 7906TIP3   OH223653   6.645   5.071   0.887 -0.0293  0.0201 -0.4422
 7906TIP3    H123654   6.668   5.086   0.978 -2.9526  3.3199 -0.1319
 7906TIP3    H223655   6.602   4.986   0.886  2.5635 -1.3460  0.7046
 7907TIP3   OH223656   6.511   2.862   2.299 -0.2300  0.1168  0.2719
 7907TIP3    H123657   6.490   2.797   2.365 -1.2926  0.6511  0.4573
 7907TIP3    H223658   6.594   2.831   2.261 -0.0931 -0.6745  1.2030
 7908TIP3   OH223659   7.131   4.850   1.005  0.4233 -0.7845 -0.7299
 7908TIP3    H123660   7.046   4.831   0.965 -0.1695 -0.8004  0.5275
 7908TIP3    H223661   7.180   4.894   0.935 -1.1696  0.6676 -0.9737
 7909TIP3   OH223662   0.985   5.024   2.639  0.4958 -0.2729  0.1315
 7909TIP3    H123663   0.973   4.934   2.608  1.2068 -0.1803 -0.4403
 7909TIP3    H223664   1.066   5.021   2.690  1.6727  0.4561 -1.6403
 7910TIP3   OH223665   0.812   5.918   4.105 -0.7912 -0.6606  0.0845
 7910TIP3    H123666   0.784   6.010   4.099  0.8776 -0.0794  0.9459
 7910TIP3    H223667   0.855   5.912   4.190 -3.0891 -2.8858  1.1502
 7911TIP3   OH223668   7.241   4.255   6.093 -0.0771 -0.5586  0.0044
 7911TIP3    H123669   7.161   4.229   6.047  0.6960  0.7288 -2.1438
 7911TIP3    H223670   7.272   4.175   6.135 -1.8305 -1.3413 -0.1504
 7912TIP3   OH223671   5.919   3.397   2.911 -0.2265 -0.0426  0.3546
 7912TIP3    H123672   5.837   3.420   2.955  0.0726  0.9398  0.4017
 7912TIP3    H223673   5.918   3.449   2.830  0.2885 -0.1231  0.2935
 7913TIP3   OH223674   0.128   3.463   3.865 -0.5982 -0.6332 -0.1220
 7913TIP3    H123675   0.098   3.372   3.860 -1.2411 -0.4756  0.7617
 7913TIP3    H223676   0.214   3.457   3.905 -0.5842 -0.8635 -0.1818
 7914TIP3   OH223677   5.075   3.716   1.807  0.3772 -0.0470 -0.0717
 7914TIP3    H123678   5.079   3.734   1.901 -0.3390  0.0776 -0.0628
 7914TIP3    H223679   5.166   3.725   1.777  0.6519 -0.3741  0.6591
 7915TIP3   OH223680   8.278   6.026   2.630  0.2012 -0.1780  0.4491
 7915TIP3    H123681   8.324   5.970   2.568  1.4958  0.8643  0.4226
 7915TIP3    H223682   8.346   6.088   2.660 -0.7544  0.2402  1.7892
 7916TIP3   OH223683   7.611   5.928   4.427 -0.6851  0.0144 -0.8445
 7916TIP3    H123684   7.678   5.893   4.369 -1.8292  0.7116 -2.6142
 7916TIP3    H223685   7.539   5.954   4.369 -1.6893  1.1033  0.8340
 7917TIP3   OH223686   0.194   6.882   3.361 -0.4008 -0.0744  0.3843
 7917TIP3    H123687   0.122   6.890   3.424 -0.3292 -0.0783  0.4673
 7917TIP3    H223688   0.200   6.788   3.344 -0.7541 -0.0257 -0.0215
 7918TIP3   OH223689   5.432   3.410   2.804  0.2383  0.1340 -0.2672
 7918TIP3    H123690   5.505   3.350   2.814 -0.4836 -1.0387 -1.8097
 7918TIP3    H223691   5.422   3.451   2.890  1.2140 -1.4158  0.5956
 7919TIP3   OH223692   0.036   5.304   4.083  0.3268 -0.1738 -0.1827
 7919TIP3    H123693   0.131   5.313   4.086  0.4255 -1.1616 -0.1707
 7919TIP3    H223694   0.011   5.343   3.999  0.8481 -0.8439 -0.6457
 7920TIP3   OH223695   8.287   6.183   0.201  0.3169  0.1640  0.6265
 7920TIP3    H123696   8.329   6.224   0.277  0.0976  1.4585  0.0646
 7920TIP3    H223697   8.194   6.182   0.222  0.1890  1.0656  0.1400
 7921TIP3   OH223698   7.126   6.563   4.461 -0.0021 -0.3482 -1.0281
 7921TIP3    H123699   7.070   6.614   4.402  0.5717  0.6245 -0.7354
 7921TIP3    H223700   7.073   6.550   4.539 -1.0504 -2.2728 -1.9936
 7922TIP3   OH223701   7.450   4.171   3.039  0.4128 -0.4508  0.7236
 7922TIP3    H123702   7.484   4.093   2.994  0.0441  0.1452 -0.6309
 7922TIP3    H223703   7.493   4.244   2.995 -1.0910  0.2131  0.3375
 7923TIP3   OH223704   0.151   5.524   2.825  0.0817  0.1680  0.2216
 7923TIP3    H123705   0.143   5.443   2.774  0.7050 -0.3917  1.0088
 7923TIP3    H223706   0.089   5.585   2.783 -2.4371 -1.5601  1.3002
 7924TIP3   OH223707   0.041   3.169   3.822 -0.3432 -0.2696 -0.0863
 7924TIP3    H123708   0.054   3.094   3.880 -0.4051  0.6320  1.1076
 7924TIP3    H223709  -0.001   3.132   3.744  2.2299 -1.9711 -0.7680
 7925TIP3   OH223710   6.589   2.962   2.782  0.1279 -0.1697  0.7847
 7925TIP3    H123711   6.548   3.026   2.840  3.0003  0.4278  2.1873
 7925TIP3    H223712   6.622   3.013   2.708 -1.0661 -0.5776 -0.0520
 7926TIP3   OH223713   4.701   4.040   2.424 -0.4383  0.0809  0.4629
 7926TIP3    H123714   4.641   3.965   2.425 -0.5013  0.1197 -0.3067
 7926TIP3    H223715   4.679   4.088   2.504 -0.1145 -0.9368  1.1789
 7927TIP3   OH223716   7.482   5.108   4.676  0.1825  0.4423 -0.1688
 7927TIP3    H123717   7.411   5.089   4.738 -0.8814 -1.3351 -1.8745
 7927TIP3    H223718   7.518   5.022   4.653  1.1671  1.1398 -1.3251
 7928TIP3   OH223719   0.669   4.828   3.850  0.2747 -0.1037  0.1507
 7928TIP3    H123720   0.692   4.747   3.804  1.3310  0.7028 -0.7807
 7928TIP3    H223721   0.579   4.847   3.821 -0.2324 -1.2878  0.9081
 7929TIP3   OH223722   8.029   4.756   4.717  0.0551 -0.6380 -0.5166
 7929TIP3    H123723   8.121   4.779   4.703  0.0261  0.2691  0.6225
 7929TIP3    H223724   7.989   4.761   4.630  0.7835  0.4181 -0.8070
 7930TIP3   OH223725   4.794   1.235   6.929 -0.3522 -0.6263 -0.1761
 7930TIP3    H123726   4.789   1.326   6.958 -0.4977 -1.2482  1.7830
 7930TIP3    H223727   4.879   1.229   6.884 -0.0652  0.3087  0.2334
 7931TIP3   OH223728   8.410   4.784   2.759  0.1095  0.2098 -0.1310
 7931TIP3    H123729   8.319   4.811   2.771 -0.0810  0.3594 -1.7080
 7931TIP3    H223730   8.461   4.864   2.771 -0.0562  0.3299 -0.2288
 7932TIP3   OH223731   8.467   5.634   2.270  0.8993  0.3745 -0.1107
 7932TIP3    H123732   8.416   5.594   2.199  2.3704 -1.2949 -0.2722
 7932TIP3    H223733   8.446   5.581   2.347 -1.6776  2.9710  1.0181
 7933TIP3   OH223734   0.091   3.841   3.769  0.3656 -0.3363 -0.8579
 7933TIP3    H123735   0.073   3.833   3.863  0.9544 -0.6943 -0.7725
 7933TIP3    H223736   0.130   3.928   3.759  1.5130 -0.8064 -0.5716
 7934TIP3   OH223737   6.587   5.448   4.586 -0.2956 -0.2140 -0.4937
 7934TIP3    H123738   6.593   5.449   4.682 -0.6652  0.8996 -0.4835
 7934TIP3    H223739   6.659   5.390   4.559 -1.0347 -1.6509  0.5068
 7935TIP3   OH223740   0.236   5.112   2.455 -0.7040 -0.2274 -0.3191
 7935TIP3    H123741   0.311   5.171   2.465  0.8190 -2.1166 -0.1974
 7935TIP3    H223742   0.236   5.089   2.362 -1.4652  0.2025 -0.4236
 7936TIP3   OH223743   8.298   5.661   3.158 -0.0420  0.4645 -0.0913
 7936TIP3    H123744   8.249   5.743   3.145 -0.2239  0.5831  1.2379
 7936TIP3    H223745   8.390   5.687   3.153 -0.0645  1.1144  2.1917
 7937TIP3   OH223746   7.427   4.789   2.237 -0.8960  0.1817 -0.0354
 7937TIP3    H123747   7.443   4.775   2.330 -0.4843 -1.5105 -0.3468
 7937TIP3    H223748   7.352   4.849   2.234 -0.0936  1.2700  1.3777
 7938TIP3   OH223749   6.614   6.516   2.956 -0.5850  0.7381 -0.1356
 7938TIP3    H123750   6.620   6.600   2.909 -0.7614  0.7331 -0.1683
 7938TIP3    H223751   6.687   6.464   2.921 -0.5419  0.8385 -0.1948
 7939TIP3   OH223752   7.742   4.982   2.266 -0.4497  0.0619 -0.3722
 7939TIP3    H123753   7.727   4.900   2.219 -1.4735  0.9419 -1.6499
 7939TIP3    H223754   7.707   4.967   2.353  0.8334 -1.3760 -0.0852
 7940TIP3   OH223755   6.625   7.011   3.099 -0.4787  0.7196 -0.3816
 7940TIP3    H123756   6.593   6.958   3.026 -0.3184  0.9921 -0.6509
 7940TIP3    H223757   6.709   7.046   3.068  1.0929 -1.5923  1.0243
 7941TIP3   OH223758   7.388   4.614   1.515  0.2117  0.1032 -0.1463
 7941TIP3    H123759   7.408   4.708   1.511  0.9849 -0.0535  0.1422
 7941TIP3    H223760   7.340   4.604   1.597 -0.6945  0.3989 -0.6266
 7942TIP3   OH223761   0.206   4.947   4.047 -0.0713  0.3397 -0.5931
 7942TIP3    H123762   0.277   4.973   3.989 -0.0703 -2.3423 -1.8801
 7942TIP3    H223763   0.126   4.961   3.995 -0.4141  2.1296  0.3843
 7943TIP3   OH223764   7.276   5.500   2.662 -0.4052 -0.2832 -0.0056
 7943TIP3    H123765   7.310   5.418   2.627 -0.2181 -0.6090  0.9304
 7943TIP3    H223766   7.283   5.562   2.589  0.1009 -0.9223 -0.5038
 7944TIP3   OH223767   5.017   1.425   6.586 -0.5299  0.0476  0.3309
 7944TIP3    H123768   5.002   1.516   6.563 -0.1967  0.2260  0.8086
 7944TIP3    H223769   4.931   1.384   6.580 -0.4720  0.1102 -1.0970
 7945TIP3   OH223770   8.399   5.963   2.379  0.8896 -0.0215  0.0548
 7945TIP3    H123771   8.491   5.982   2.400  0.7621  0.3957  0.2656
 7945TIP3    H223772   8.363   6.048   2.353  0.0353  0.2521  1.9986
 7946TIP3   OH223773   8.341   6.910   3.762  0.4644  0.5789  0.5401
 7946TIP3    H123774   8.326   6.816   3.757 -1.3603  0.6886  2.9661
 7946TIP3    H223775   8.389   6.931   3.682  1.7843 -2.5435  0.4617
 7947TIP3   OH223776   7.448   4.529   2.119  0.7060  0.2245 -0.3979
 7947TIP3    H123777   7.425   4.614   2.157 -0.3813  0.4929 -1.5970
 7947TIP3    H223778   7.500   4.486   2.186 -4.0664 -0.7631  2.9309
 7948TIP3   OH223779   7.319   3.897   2.991  0.0707  0.5779  0.1158
 7948TIP3    H123780   7.285   3.982   3.020 -1.2623  0.2369 -0.4473
 7948TIP3    H223781   7.262   3.832   3.033 -0.1632  0.0089 -1.0598
 7949TIP3   OH223782   7.693   3.918   1.225 -0.2582  0.0276  0.5206
 7949TIP3    H123783   7.660   3.991   1.279  0.0268  1.8855 -1.7299
 7949TIP3    H223784   7.786   3.937   1.214  0.3296 -1.9815  1.8537
 7950TIP3   OH223785   5.691   3.905   0.977  0.1050 -0.2964 -0.5375
 7950TIP3    H123786   5.719   3.821   0.941 -0.7098 -0.6382 -0.4003
 7950TIP3    H223787   5.762   3.966   0.956  0.6004 -0.9726 -0.8268
 7951TIP3   OH223788   6.362   4.588   2.140 -0.7876  0.2360  0.0093
 7951TIP3    H123789   6.337   4.514   2.084 -1.1926 -0.2526  0.8327
 7951TIP3    H223790   6.450   4.566   2.170 -0.9358  0.0521  0.3114
 7952TIP3   OH223791   6.769   3.844   4.684 -0.4396  0.5077  0.1359
 7952TIP3    H123792   6.685   3.889   4.682 -1.2334 -1.0067 -2.3382
 7952TIP3    H223793   6.757   3.775   4.749 -1.1574  0.2061 -0.3138
 7953TIP3   OH223794   6.408   5.905   3.040  0.0047 -0.2154 -0.3140
 7953TIP3    H123795   6.445   5.992   3.027  0.7909 -0.4266  0.4129
 7953TIP3    H223796   6.342   5.896   2.972 -1.7256  1.8643  1.0125
 7954TIP3   OH223797   0.293   5.803   4.040 -0.3276 -0.5206  0.5696
 7954TIP3    H123798   0.351   5.729   4.019  0.4985 -0.0477  1.1684
 7954TIP3    H223799   0.302   5.814   4.134 -0.0868  0.6548  0.4097
 7955TIP3   OH223800   0.639   6.860   1.738 -0.2740 -0.2013 -0.0196
 7955TIP3    H123801   0.664   6.768   1.729 -0.2746 -0.3795  1.7851
 7955TIP3    H223802   0.569   6.872   1.673 -1.0177 -1.7410  0.4914
 7956TIP3   OH223803   0.124   4.495   4.564  0.3507 -0.0867  0.0239
 7956TIP3    H123804   0.207   4.473   4.606 -0.4455 -2.2164  0.5729
 7956TIP3    H223805   0.147   4.519   4.475  1.4919 -1.1817  0.0159
 7957TIP3   OH223806   6.445   4.489   5.650 -0.5368  0.1547  0.3085
 7957TIP3    H123807   6.512   4.464   5.714 -0.1793 -1.0625 -0.5264
 7957TIP3    H223808   6.460   4.431   5.576 -1.7497  0.7080 -0.3842
 7958TIP3   OH223809   6.967   7.152   2.486 -0.3862  0.3815 -0.1681
 7958TIP3    H123810   6.891   7.122   2.436  0.4885  1.0741 -1.9557
 7958TIP3    H223811   6.947   7.243   2.508 -0.2554  0.4345 -0.2676
 7959TIP3   OH223812   8.324   4.842   3.370  0.4296  0.4084  0.0076
 7959TIP3    H123813   8.358   4.890   3.294  0.2207 -0.2880 -0.5227
 7959TIP3    H223814   8.377   4.763   3.374  1.2134  0.9736  1.2782
 7960TIP3   OH223815   8.072   5.710   1.988  0.2508 -0.4307  0.1285
 7960TIP3    H123816   7.984   5.685   1.960  0.9714 -0.5875 -2.1531
 7960TIP3    H223817   8.130   5.661   1.929  1.8534 -0.2211  1.5152
 7961TIP3   OH223818   7.773   6.012   4.655 -0.5370  0.5464 -0.3736
 7961TIP3    H123819   7.710   6.005   4.584  0.3866 -0.0152 -1.1492
 7961TIP3    H223820   7.856   5.985   4.617 -0.1459 -0.4090  1.1034
 7962TIP3   OH223821   6.965   3.416   2.584  0.4600  0.0948  0.1847
 7962TIP3    H123822   6.927   3.471   2.516  1.2286 -1.4747 -1.5525
 7962TIP3    H223823   7.060   3.430   2.576  0.4653  2.0886  2.8518
 7963TIP3   OH223824   0.981   5.903   2.516  0.1949  0.2732  0.2550
 7963TIP3    H123825   1.033   5.831   2.480 -0.9765 -0.5151  0.1378
 7963TIP3    H223826   1.046   5.963   2.553  1.1946 -0.6760  0.0516
 7964TIP3   OH223827   7.840   3.897   3.641 -0.2635 -0.4470 -0.3343
 7964TIP3    H123828   7.777   3.968   3.652  0.0746 -0.2209  0.1555
 7964TIP3    H223829   7.787   3.819   3.624 -0.6570 -0.1831 -0.3120
 7965TIP3   OH223830   5.702   5.780   3.290  0.1885 -0.4575 -0.0581
 7965TIP3    H123831   5.743   5.778   3.203 -0.3670 -0.1791 -0.3271
 7965TIP3    H223832   5.775   5.771   3.351  0.6068 -0.4169 -0.5494
 7966TIP3   OH223833   7.449   6.747   4.253 -0.7811 -0.3340  0.0203
 7966TIP3    H123834   7.395   6.824   4.268 -1.2053 -0.5021 -0.6414
 7966TIP3    H223835   7.422   6.714   4.168  2.0673  0.9745 -1.4466
 7967TIP3   OH223836   6.368   6.712   4.067 -0.2017  0.6337 -0.3846
 7967TIP3    H123837   6.447   6.737   4.018  1.1007 -0.5236  1.1005
 7967TIP3    H223838   6.335   6.795   4.101  3.1243  0.6873  3.0391
 7968TIP3   OH223839   7.443   4.738   3.040 -0.6044 -0.2018  0.4718
 7968TIP3    H123840   7.354   4.763   3.014 -0.5556 -0.1534  0.3461
 7968TIP3    H223841   7.445   4.751   3.135 -0.4127  0.8136  0.3329
 7969TIP3   OH223842   0.550   5.073   3.679 -0.1169  0.4736 -0.0786
 7969TIP3    H123843   0.572   5.053   3.588  1.5256  0.2581  0.3453
 7969TIP3    H223844   0.568   5.166   3.687 -0.5110  0.5486 -0.0284
 7970TIP3   OH223845   1.492   4.125   2.839  0.4543 -0.5114 -0.2844
 7970TIP3    H123846   1.429   4.141   2.769  0.1406  0.6487  0.2577
 7970TIP3    H223847   1.562   4.075   2.797  0.2589  0.1539 -1.4275
 7971TIP3   OH223848   6.099   4.374   5.905  0.2348  0.5470 -0.5578
 7971TIP3    H123849   6.005   4.393   5.910 -0.1191 -0.7780 -1.8681
 7971TIP3    H223850   6.122   4.392   5.814  1.2722  0.9329 -0.2197
 7972TIP3   OH223851   8.215   6.273   3.937 -0.3606 -0.2750 -0.1378
 7972TIP3    H123852   8.132   6.292   3.982  0.9858  0.5085  2.1035
 7972TIP3    H223853   8.225   6.343   3.873 -1.5648 -0.5200 -0.5944
 7973TIP3   OH223854   6.571   5.172   4.009 -0.4946  0.1444  0.3590
 7973TIP3    H123855   6.602   5.133   3.927 -1.5458  0.7994 -0.3646
 7973TIP3    H223856   6.624   5.131   4.077 -0.4225 -1.2812 -0.5410
 7974TIP3   OH223857   8.399   2.893   1.436  0.1063  0.0126  0.1792
 7974TIP3    H123858   8.322   2.946   1.413 -0.2172 -0.0884  0.9833
 7974TIP3    H223859   8.419   2.920   1.526  0.2856 -0.8163  0.3872
 7975TIP3   OH223860   1.065   5.826   3.313 -0.3705  0.6589 -0.8372
 7975TIP3    H123861   1.011   5.902   3.294  0.0047  1.0193 -0.4786
 7975TIP3    H223862   1.093   5.838   3.404  0.6693  0.7072 -1.1515
 7976TIP3   OH223863   7.019   4.948   2.722  0.1501 -0.1600  0.2555
 7976TIP3    H123864   7.013   4.852   2.720  1.7736 -0.2558 -3.3128
 7976TIP3    H223865   6.937   4.977   2.682  1.7351 -0.2750 -3.2978
 7977TIP3   OH223866   5.847   4.651   2.292 -0.0924 -0.2766 -0.4036
 7977TIP3    H123867   5.910   4.716   2.323  1.2993 -1.1419 -1.3853
 7977TIP3    H223868   5.822   4.602   2.370  1.2231 -0.5707 -0.1488
 7978TIP3   OH223869   7.883   5.131   3.546 -0.3556 -0.4890 -1.0976
 7978TIP3    H123870   7.918   5.197   3.486 -0.1939  0.0980 -0.3529
 7978TIP3    H223871   7.788   5.145   3.544 -0.2904  0.0664 -0.6003
 7979TIP3   OH223872   0.431   3.781   2.955 -0.1356 -0.4876  0.3643
 7979TIP3    H123873   0.506   3.761   2.898  0.5321 -0.5768  1.2710
 7979TIP3    H223874   0.355   3.754   2.903  0.3428  1.0743 -1.2039
 7980TIP3   OH223875   8.255   5.733   3.535 -0.2625  0.5517  0.0086
 7980TIP3    H123876   8.342   5.696   3.520  0.6064  2.5860 -0.2004
 7980TIP3    H223877   8.269   5.801   3.601 -2.0894 -0.5495  1.5605
 7981TIP3   OH223878   7.487   6.879   1.477  0.4217 -0.0461  0.6737
 7981TIP3    H123879   7.572   6.850   1.444 -0.3786 -0.8923 -0.6531
 7981TIP3    H223880   7.427   6.807   1.458 -0.8056  0.9422  0.7144
 7982TIP3   OH223881   7.781   5.616   5.522  0.3128  0.8088  0.4487
 7982TIP3    H123882   7.703   5.609   5.467 -1.2295 -0.0631  2.6562
 7982TIP3    H223883   7.837   5.678   5.476 -1.4824  1.1145 -1.4239
 7983TIP3   OH223884   0.992   5.529   3.570  0.2014 -0.4862  0.0284
 7983TIP3    H123885   1.046   5.590   3.619  1.4099 -2.2411  0.9579
 7983TIP3    H223886   0.908   5.528   3.616 -0.2904  1.4347 -0.7797
 7984TIP3   OH223887   0.868   5.054   4.751 -0.6168  0.2935  0.4785
 7984TIP3    H123888   0.836   5.138   4.719  0.7662  0.0810 -1.6088
 7984TIP3    H223889   0.833   5.047   4.840 -1.3329  2.7391  0.4357
 7985TIP3   OH223890   0.593   6.036   6.302 -0.0326 -0.1831 -0.2567
 7985TIP3    H123891   0.588   5.953   6.254  1.8825 -0.0163 -0.7817
 7985TIP3    H223892   0.674   6.031   6.351 -0.8377  0.6190  1.1946
 7986TIP3   OH223893   6.243   4.463   5.284 -0.3174 -0.8125 -0.6110
 7986TIP3    H123894   6.274   4.393   5.226  1.4680 -1.9977  1.6832
 7986TIP3    H223895   6.298   4.455   5.362 -2.1045  1.2626  0.9058
 7987TIP3   OH223896   6.277   4.483   6.097 -0.0397  0.1415 -0.2975
 7987TIP3    H123897   6.225   4.430   6.036 -1.9265  0.7766  0.7131
 7987TIP3    H223898   6.307   4.558   6.045  0.5508 -0.6437 -1.0973
 7988TIP3   OH223899   6.363   6.043   5.727 -0.4049  0.3750  0.1224
 7988TIP3    H123900   6.347   6.137   5.715  0.4193  0.4419 -0.4596
 7988TIP3    H223901   6.348   6.006   5.640 -0.0426  0.0593  0.1980
 7989TIP3   OH223902   7.990   5.049   2.464  0.1496 -0.3418 -0.1981
 7989TIP3    H123903   8.000   5.090   2.550  0.5190  1.5637 -1.1208
 7989TIP3    H223904   8.062   4.986   2.458  1.2918  0.9000  0.1388
 7990TIP3   OH223905   8.271   4.961   4.064  0.2255 -0.0472  0.2256
 7990TIP3    H123906   8.304   4.986   3.978  1.8908  0.3618  0.9445
 7990TIP3    H223907   8.276   5.042   4.115 -2.0744  0.0521  0.3231
 7991TIP3   OH223908   7.809   5.491   2.529  0.1490  0.0703  0.6754
 7991TIP3    H123909   7.765   5.550   2.467  1.5177 -0.6287 -0.9937
 7991TIP3    H223910   7.798   5.404   2.492  1.2741 -0.3252  1.2314
 7992TIP3   OH223911   8.259   5.205   4.407  0.0532 -0.8877  0.4449
 7992TIP3    H123912   8.286   5.289   4.369 -0.7987 -1.3745 -1.2792
 7992TIP3    H223913   8.265   5.219   4.501 -0.8127  1.3711  0.2001
 7993TIP3   OH223914   6.762   4.164   5.714  0.2037  0.4126 -0.5266
 7993TIP3    H123915   6.805   4.215   5.645 -0.3812 -1.0811 -2.0531
 7993TIP3    H223916   6.679   4.209   5.729 -0.2305  0.0314 -1.7362
 7994TIP3   OH223917   6.799   4.821   3.066  0.2036 -0.8248  0.2529
 7994TIP3    H123918   6.863   4.875   3.112  0.0503 -0.2391 -0.2132
 7994TIP3    H223919   6.749   4.883   3.012  0.4774 -1.5047 -0.8111
 7995TIP3   OH223920   6.022   3.011   0.887  0.9667 -0.8964 -0.2304
 7995TIP3    H123921   6.066   3.040   0.807 -2.6513  2.3786 -1.1648
 7995TIP3    H223922   5.969   2.936   0.860 -0.5716  0.4647 -1.0136
 7996TIP3   OH223923   6.803   6.777   3.029 -0.1017  0.3687 -0.8386
 7996TIP3    H123924   6.825   6.740   3.114 -0.0317  1.6478 -0.2982
 7996TIP3    H223925   6.804   6.702   2.969 -0.2184 -0.5365  0.2923
 7997TIP3   OH223926   6.437   3.429   6.032  0.2560 -0.7610  0.0298
 7997TIP3    H123927   6.458   3.337   6.016  3.1718  0.1487 -1.7720
 7997TIP3    H223928   6.376   3.452   5.962  2.9854 -0.2003 -2.2304
 7998TIP3   OH223929   1.392   7.007   1.295 -0.8112  0.5460  0.5757
 7998TIP3    H123930   1.313   7.062   1.301 -1.1228  0.1362  0.2464
 7998TIP3    H223931   1.434   7.034   1.214 -0.9699  0.2951  0.4084
 7999TIP3   OH223932   1.372   4.570   3.909  0.1030  0.2197  0.5538
 7999TIP3    H123933   1.435   4.502   3.930  0.9872  1.3606  1.6321
 7999TIP3    H223934   1.323   4.584   3.990 -0.2644  0.6784  0.2584
 8000TIP3   OH223935   8.442   5.776   5.808 -0.8057  0.2514 -0.2233
 8000TIP3    H123936   8.413   5.685   5.811  2.0781 -0.7706 -1.0458
 8000TIP3    H223937   8.372   5.822   5.763 -2.2931 -1.5641  0.1709
 8001TIP3   OH223938   1.079   5.935   1.431 -0.4426 -0.2794  0.0024
 8001TIP3    H123939   1.161   5.895   1.402 -0.6315  0.2173 -1.2599
 8001TIP3    H223940   1.103   6.025   1.455 -0.2537 -0.7437  1.5892
 8002TIP3   OH223941   7.489   5.142   2.123 -0.2796 -0.6472 -0.2833
 8002TIP3    H123942   7.522   5.135   2.034  0.1696 -0.3187 -0.1399
 8002TIP3    H223943   7.557   5.104   2.178 -0.1159  0.0626  0.0139
 8003TIP3   OH223944   8.120   3.185   4.859  0.0623  0.6697 -0.3318
 8003TIP3    H123945   8.156   3.229   4.782 -0.2473 -0.9965 -1.4483
 8003TIP3    H223946   8.172   3.105   4.867 -1.1196 -0.0557  0.1136
 8004TIP3   OH223947   7.549   1.984   4.403 -0.3279 -0.6687 -0.0774
 8004TIP3    H123948   7.618   1.917   4.409  0.1572 -0.2668 -1.1632
 8004TIP3    H223949   7.472   1.942   4.442  0.7960 -0.7377  2.1827
 8005TIP3   OH223950   6.191   5.051   3.042 -0.1550  0.0924 -0.4013
 8005TIP3    H123951   6.100   5.073   3.063 -0.8309 -0.8730 -2.1959
 8005TIP3    H223952   6.232   5.135   3.022 -1.0518  0.3840 -1.0482
 8006TIP3   OH223953   7.301   2.316   2.208  0.1960 -0.2427  0.4421
 8006TIP3    H123954   7.238   2.327   2.137  0.5974 -0.5848  0.0264
 8006TIP3    H223955   7.266   2.243   2.260  1.1259 -1.5968 -0.7726
 8007TIP3   OH223956   0.660   5.235   1.379 -0.3486  0.3950 -0.6112
 8007TIP3    H123957   0.569   5.206   1.373 -0.4866  0.7898 -0.4563
 8007TIP3    H223958   0.708   5.157   1.408 -0.7787  0.4123  0.1823
 8008TIP3   OH223959   8.110   4.256   2.279  0.1231 -0.0003 -0.3672
 8008TIP3    H123960   8.152   4.220   2.201  2.2126  0.9796  0.2738
 8008TIP3    H223961   8.062   4.332   2.247  2.0446  1.1729 -0.5164
 8009TIP3   OH223962   8.358   4.279   3.996 -0.1716  0.3627 -0.2630
 8009TIP3    H123963   8.386   4.210   4.056 -1.3088 -0.0568 -0.2018
 8009TIP3    H223964   8.372   4.361   4.044 -1.0363  0.0304  0.5666
 8010TIP3   OH223965   7.333   6.192   3.381  0.2601 -0.0356  0.1757
 8010TIP3    H123966   7.387   6.134   3.326 -1.0342 -3.2935  2.1874
 8010TIP3    H223967   7.253   6.204   3.331  1.1236  1.3780 -0.9345
 8011TIP3   OH223968   7.675   4.091   2.350  0.5507 -0.0353 -0.2061
 8011TIP3    H123969   7.725   4.064   2.272  1.8311  0.9976  0.2529
 8011TIP3    H223970   7.680   4.015   2.408  0.9513 -0.2143 -0.4693
 8012TIP3   OH223971   1.160   6.265   4.464 -0.1502  0.2927  0.3301
 8012TIP3    H123972   1.204   6.347   4.440  0.3737  0.0958  0.5913
 8012TIP3    H223973   1.230   6.212   4.503 -0.7460  0.1963  1.2827
 8013TIP3   OH223974   7.608   4.093   1.997 -0.0783 -0.0412 -0.6260
 8013TIP3    H123975   7.677   4.081   2.063  1.3856  1.3232 -1.8624
 8013TIP3    H223976   7.624   4.022   1.934  0.4280  0.4848 -1.0956
 8014TIP3   OH223977   7.123   5.335   4.182  0.1623 -0.9144  0.6750
 8014TIP3    H123978   7.128   5.328   4.278  0.5220 -1.2932  0.6307
 8014TIP3    H223979   7.070   5.259   4.156 -0.7282 -0.2946  0.6451
 8015TIP3   OH223980   7.978   6.051   3.997  0.1804  0.2069 -0.3181
 8015TIP3    H123981   8.009   6.005   4.076  1.7535  3.1457  0.8418
 8015TIP3    H223982   8.018   6.002   3.925  1.7429 -0.3685  0.8787
 8016TIP3   OH223983   7.419   6.562   2.857  0.6629 -0.3580 -0.0878
 8016TIP3    H123984   7.461   6.512   2.927  1.1631  1.4642  0.9604
 8016TIP3    H223985   7.412   6.651   2.892 -1.7553 -0.0484 -1.2483
 8017TIP3   OH223986   0.155   6.824   3.031  0.5203  0.4151  0.3003
 8017TIP3    H123987   0.129   6.759   3.096 -0.0158  0.1945 -0.1246
 8017TIP3    H223988   0.209   6.887   3.080  0.9379 -0.2762  0.7383
 8018TIP3   OH223989   6.832   4.982   3.861  0.3182  0.2664 -0.1803
 8018TIP3    H123990   6.838   4.926   3.939  1.9254  1.1042  0.3237
 8018TIP3    H223991   6.741   4.973   3.832 -0.4435  0.3558  2.0962
 8019TIP3   OH223992   0.602   6.060   2.689  0.1981  0.6512  0.3018
 8019TIP3    H123993   0.682   6.070   2.636  0.0667 -0.4703 -0.1165
 8019TIP3    H223994   0.548   6.135   2.664  0.0031 -0.0329 -1.4232
 8020TIP3   OH223995   0.191   6.268   4.915  0.2960 -0.0776  0.6026
 8020TIP3    H123996   0.255   6.335   4.892 -0.7521  0.5376 -0.5783
 8020TIP3    H223997   0.177   6.280   5.009  2.0207 -0.3323  0.9222
 8021TIP3   OH223998   0.432   4.970   3.387 -0.0674 -0.0895  0.4998
 8021TIP3    H123999   0.420   4.927   3.471  0.6990 -2.1972 -0.4346
 8021TIP3    H224000   0.523   4.998   3.387 -0.4797  1.3058  0.9755
 8022TIP3   OH224001   7.382   3.957   2.446 -0.3284 -0.2897 -0.6753
 8022TIP3    H124002   7.313   3.891   2.455 -1.2987  0.3471 -3.1885
 8022TIP3    H224003   7.456   3.909   2.409 -0.1480 -0.4985 -0.0570
 8023TIP3   OH224004   7.427   3.920   3.605 -0.1922  0.1994 -0.0487
 8023TIP3    H124005   7.431   3.862   3.681 -2.0148 -0.9863 -0.8473
 8023TIP3    H224006   7.375   3.994   3.634  1.1667  0.9220  0.6053
 8024TIP3   OH224007   8.467   3.133   3.526 -0.2320  0.7303  0.3973
 8024TIP3    H124008   8.383   3.177   3.540 -0.4555  0.9463 -1.4642
 8024TIP3    H224009   8.530   3.203   3.514 -0.1925  0.5553 -0.4213
 8025TIP3   OH224010   0.972   5.453   3.313 -0.0003  0.1410  0.0946
 8025TIP3    H124011   0.970   5.481   3.405  0.3441 -0.9887  0.4571
 8025TIP3    H224012   1.038   5.510   3.273  2.4358 -1.6807  1.3606
 8026TIP3   OH224013   7.100   5.872   3.486  0.4418  0.2650 -0.0756
 8026TIP3    H124014   7.049   5.877   3.567 -1.4169  0.8040 -1.2319
 8026TIP3    H224015   7.174   5.816   3.507 -0.8998 -0.9643  1.5392
 8027TIP3   OH224016   7.974   3.873   3.888 -0.2748  0.5584 -0.0376
 8027TIP3    H124017   8.051   3.877   3.832  0.4004  1.0390  0.9069
 8027TIP3    H224018   7.902   3.852   3.829  0.5356  0.3734 -0.9709
 8028TIP3   OH224019   6.417   4.607   3.235 -0.2148  0.2028  0.3020
 8028TIP3    H124020   6.348   4.626   3.298  0.5126 -0.9801  1.4775
 8028TIP3    H224021   6.496   4.646   3.273 -0.0297  0.6897 -0.5565
 8029TIP3   OH224022   6.532   4.009   2.544 -0.4231  0.6357  0.0085
 8029TIP3    H124023   6.570   4.095   2.561  0.5798  0.5642 -1.8394
 8029TIP3    H224024   6.556   3.988   2.454 -0.4197 -1.7056  0.5021
 8030TIP3   OH224025   2.014   6.143   0.811 -0.5868  0.0059 -0.2092
 8030TIP3    H124026   1.945   6.175   0.753  0.4505  1.1836 -0.8186
 8030TIP3    H224027   2.015   6.048   0.797 -1.7250  0.0383 -0.5736
 8031TIP3   OH224028   7.727   3.575   5.866 -0.6102  0.1056 -0.1167
 8031TIP3    H124029   7.676   3.498   5.843  0.1847 -1.0510  1.8503
 8031TIP3    H224030   7.694   3.601   5.952  1.6589 -0.3136  0.9255
 8032TIP3   OH224031   7.401   5.601   2.410 -0.3784  0.3931 -0.1608
 8032TIP3    H124032   7.496   5.608   2.399 -0.3636 -0.0813 -0.3632
 8032TIP3    H224033   7.366   5.675   2.361 -0.0778  1.0164  0.5583
 8033TIP3   OH224034   8.044   5.036   1.826  0.8875  0.2129  0.2961
 8033TIP3    H124035   8.016   5.124   1.801  1.4019 -0.1712 -1.6512
 8033TIP3    H224036   8.055   5.041   1.921 -0.0205  1.9801  0.3270
 8034TIP3   OH224037   0.206   6.664   2.809  0.1224  0.7522 -0.3856
 8034TIP3    H124038   0.168   6.723   2.873 -1.7085  0.8383 -1.5300
 8034TIP3    H224039   0.132   6.618   2.770  1.4692 -2.0955  0.2397
 8035TIP3   OH224040   7.159   5.082   4.550  0.2258 -0.2485 -0.4984
 8035TIP3    H124041   7.222   5.020   4.512  2.1186  0.4962  1.2980
 8035TIP3    H224042   7.177   5.079   4.644 -0.0144  2.6120 -0.3321
 8036TIP3   OH224043   1.959   4.843   4.846 -0.3650  0.1797 -0.0299
 8036TIP3    H124044   2.017   4.917   4.830 -0.4651  0.1461 -0.5450
 8036TIP3    H224045   1.985   4.777   4.782 -0.6860  0.0008  0.0199
 8037TIP3   OH224046   1.570   6.495   5.694  0.0707 -0.5314 -0.0564
 8037TIP3    H124047   1.567   6.500   5.598 -0.5127 -0.8993 -0.0628
 8037TIP3    H224048   1.654   6.454   5.713  0.4635  0.1223 -0.3892
 8038TIP3   OH224049   0.470   6.355   4.471  0.2321 -0.0293  0.4044
 8038TIP3    H124050   0.439   6.416   4.538 -2.9273  0.2769 -1.2503
 8038TIP3    H224051   0.470   6.270   4.515 -1.3737  0.2317  0.9492
 8039TIP3   OH224052   0.560   3.803   5.128 -0.1443  0.4081 -0.4871
 8039TIP3    H124053   0.503   3.756   5.189  0.5374  0.3116  0.0786
 8039TIP3    H224054   0.646   3.802   5.170 -0.0989  2.0693 -0.5033
 8040TIP3   OH224055   7.892   2.828   1.751  0.3112 -0.1086  0.0672
 8040TIP3    H124056   7.976   2.872   1.767 -0.6564  1.0881  2.1739
 8040TIP3    H224057   7.828   2.899   1.754 -0.8428 -1.0890 -1.0312
 8041TIP3   OH224058   8.355   3.995   3.692 -0.2486 -0.1059  0.5282
 8041TIP3    H124059   8.345   3.906   3.725 -0.2329 -1.2596 -2.4463
 8041TIP3    H224060   8.266   4.028   3.685 -0.1837  0.7677  3.1984
 8042TIP3   OH224061   1.687   5.574   5.651 -0.4212 -0.5955  0.0848
 8042TIP3    H124062   1.682   5.540   5.562 -1.6233 -1.0370  0.3126
 8042TIP3    H224063   1.596   5.589   5.676 -0.0569  0.1142  1.0147
 8043TIP3   OH224064   7.946   5.189   4.983 -0.5534 -0.0558  0.4223
 8043TIP3    H124065   7.893   5.115   4.954 -0.2269 -0.6518  1.3439
 8043TIP3    H224066   7.887   5.265   4.976 -0.8405 -0.3609 -0.6643
 8044TIP3   OH224067   8.461   4.757   4.130  0.2903 -0.2336  0.5986
 8044TIP3    H124068   8.373   4.791   4.110  0.7664  1.1501  0.8026
 8044TIP3    H224069   8.496   4.730   4.046  0.6243  1.5388  0.1601
 8045TIP3   OH224070   1.822   4.005   6.332 -0.2695  0.1764 -0.0869
 8045TIP3    H124071   1.730   3.983   6.347 -0.8276  1.0220 -2.1052
 8045TIP3    H224072   1.843   4.068   6.401 -0.8890 -0.8233  1.0291
 8046TIP3   OH224073   5.364   0.880   4.198  0.4504  0.8479 -0.1439
 8046TIP3    H124074   5.398   0.908   4.283 -0.5098  1.0337  0.1842
 8046TIP3    H224075   5.273   0.855   4.216  0.5757 -0.1978 -0.8947
 8047TIP3   OH224076   1.739   5.512   6.507 -0.2543  0.5205  0.4143
 8047TIP3    H124077   1.812   5.495   6.449 -3.1381  0.7375 -3.4623
 8047TIP3    H224078   1.748   5.447   6.577  2.0500 -1.3001 -1.4889
 8048TIP3   OH224079   0.074   1.176   4.774  0.1805  0.2457  0.0907
 8048TIP3    H124080   0.053   1.149   4.685 -0.6893  1.8401 -0.2074
 8048TIP3    H224081   0.156   1.225   4.766  0.8466 -0.7897  0.3880
 8049TIP3   OH224082   8.270   6.726   3.482  0.0396  0.8830 -0.0457
 8049TIP3    H124083   8.297   6.708   3.572 -3.3954  1.9219  1.2841
 8049TIP3    H224084   8.197   6.665   3.466 -1.4507  2.8436 -0.9763
 8050TIP3   OH224085   1.505   7.610   5.091 -0.1840 -0.1326 -0.2133
 8050TIP3    H124086   1.581   7.652   5.131 -0.9091  0.8837  0.1335
 8050TIP3    H224087   1.523   7.613   4.997  0.6997 -0.8805 -0.0645
 8051TIP3   OH224088   8.041   3.212   0.451 -0.0383  0.1546  0.6908
 8051TIP3    H124089   8.129   3.189   0.423 -0.7857  1.6278 -3.0660
 8051TIP3    H224090   8.054   3.288   0.508  1.0568  0.8443 -0.4587
 8052TIP3   OH224091   0.614   6.277   4.850 -0.5815  0.4315  0.2180
 8052TIP3    H124092   0.571   6.221   4.786 -1.8505 -1.8104  2.9343
 8052TIP3    H224093   0.708   6.261   4.838 -0.8736 -1.0348 -0.1196
 8053TIP3   OH224094   8.449   4.742   4.411  0.2489  0.0741  0.9142
 8053TIP3    H124095   8.488   4.654   4.417 -1.3779 -0.6248  1.6013
 8053TIP3    H224096   8.426   4.751   4.318 -1.3216 -1.0426  1.1551
 8054TIP3   OH224097   0.757   5.299   6.390 -0.0447 -0.2739 -0.3142
 8054TIP3    H124098   0.700   5.346   6.450 -0.7969  0.1184 -1.3247
 8054TIP3    H224099   0.837   5.353   6.386 -0.1967 -0.0289 -0.0768
 8055TIP3   OH224100   0.257   6.217   6.693 -0.2978  0.2378  0.4052
 8055TIP3    H124101   0.317   6.290   6.679 -0.7901  0.0993 -2.8383
 8055TIP3    H224102   0.314   6.140   6.699  0.0283  0.5138  0.9609
 8056TIP3   OH224103   1.363   3.209   3.877  0.2051  0.0391 -0.2103
 8056TIP3    H124104   1.344   3.266   3.951  0.0224 -0.2869 -0.0060
 8056TIP3    H224105   1.375   3.122   3.915  0.4484 -0.0662 -0.5230
 8057TIP3   OH224106   2.466   4.475   4.159 -0.0629 -0.2019  0.0321
 8057TIP3    H124107   2.489   4.447   4.071 -2.5868 -1.3094 -0.3250
 8057TIP3    H224108   2.381   4.517   4.149 -0.8408 -1.2187  2.0675
 8058TIP3   OH224109   1.092   7.424   5.919 -0.7491 -0.1617 -0.0185
 8058TIP3    H124110   1.186   7.406   5.925 -0.3276  2.0886  0.7179
 8058TIP3    H224111   1.052   7.367   5.985  0.3466  0.4399  1.1842
 8059TIP3   OH224112   5.478   0.456   5.241 -0.2879 -0.3795 -0.1206
 8059TIP3    H124113   5.569   0.426   5.237  0.1066  0.8612 -0.7608
 8059TIP3    H224114   5.427   0.376   5.253  0.8527 -1.1285 -0.1460
 8060TIP3   OH224115   0.499   7.178   1.805 -0.0777 -0.1958  0.1531
 8060TIP3    H124116   0.438   7.196   1.733  0.8606  0.4831 -0.4834
 8060TIP3    H224117   0.547   7.101   1.777  1.2244  0.8567 -0.5719
 8061TIP3   OH224118   0.784   6.894   4.375 -0.2589  0.3071  0.1175
 8061TIP3    H124119   0.695   6.875   4.345  0.5928  0.9064 -3.0135
 8061TIP3    H224120   0.787   6.990   4.382  0.2135  0.3040 -0.0408
 8062TIP3   OH224121   2.302   3.618   6.749 -0.4093 -0.7596  0.9910
 8062TIP3    H124122   2.293   3.601   6.655 -0.2462 -1.8979  1.1724
 8062TIP3    H224123   2.219   3.588   6.787 -0.9003  0.7020  1.0792
 8063TIP3   OH224124   1.087   2.219   5.772  0.4040  0.2348  0.4583
 8063TIP3    H124125   1.171   2.265   5.779  1.2837 -1.2444 -0.0665
 8063TIP3    H224126   1.107   2.130   5.800 -0.7288 -0.4351 -0.8346
 8064TIP3   OH224127   8.095   3.695   6.287 -0.9950 -0.1356 -0.0534
 8064TIP3    H124128   8.126   3.779   6.253 -2.1237  0.1432 -0.3958
 8064TIP3    H224129   8.143   3.630   6.237  2.3516  0.2683  2.4347
 8065TIP3   OH224130   1.014   6.805   5.076  0.0428 -1.0753 -0.3213
 8065TIP3    H124131   1.053   6.719   5.058  1.7349  0.0752 -2.3906
 8065TIP3    H224132   0.992   6.839   4.989 -1.9625 -0.0094  0.5842
 8066TIP3   OH224133   0.673   4.484   4.880  0.4745 -1.0032  0.1303
 8066TIP3    H124134   0.606   4.438   4.830 -0.5613 -1.0306  1.5138
 8066TIP3    H224135   0.701   4.421   4.947  1.0247 -0.5698  0.3168
 8067TIP3   OH224136   0.211   4.203   2.916 -0.3287 -0.0291 -1.0032
 8067TIP3    H124137   0.178   4.286   2.948  0.1177 -0.4618  0.5880
 8067TIP3    H224138   0.229   4.219   2.823  1.9488  2.3315 -0.1903
 8068TIP3   OH224139   8.373   4.363   3.737  0.5100 -0.1111 -0.5192
 8068TIP3    H124140   8.415   4.448   3.746 -0.0840  0.1616 -0.2533
 8068TIP3    H224141   8.376   4.325   3.825  0.6110 -0.2859 -0.5978
 8069TIP3   OH224142   8.274   4.824   3.696 -0.4408  0.2748  0.0484
 8069TIP3    H124143   8.225   4.852   3.619  1.7696 -1.2698 -1.9936
 8069TIP3    H224144   8.345   4.888   3.704  1.0720 -1.2081 -1.0332
 8070TIP3   OH224145   4.462   6.325   6.594 -0.0516  0.4329 -0.3316
 8070TIP3    H124146   4.501   6.258   6.537  1.4703 -1.3394  2.7035
 8070TIP3    H224147   4.532   6.389   6.607 -0.1366  0.4253  0.1758
 8071TIP3   OH224148   1.557   6.795   3.576 -0.1725 -0.1248  0.1054
 8071TIP3    H124149   1.559   6.738   3.653  0.9091 -0.3902 -0.1007
 8071TIP3    H224150   1.465   6.817   3.563 -0.4273 -0.6390  1.0654
 8072TIP3   OH224151   1.122   6.510   6.679 -0.2224  0.2993 -0.5776
 8072TIP3    H124152   1.110   6.425   6.721  2.3559 -0.2886 -0.9385
 8072TIP3    H224153   1.067   6.570   6.729 -0.0708 -1.0930  1.2808
 8073TIP3   OH224154   5.270   1.401   3.184  0.1620 -0.3098  0.6086
 8073TIP3    H124155   5.177   1.401   3.162  0.1700 -0.1409  0.5687
 8073TIP3    H224156   5.288   1.491   3.213  0.8201  0.3124 -1.5812
 8074TIP3   OH224157   8.064   3.947   6.170 -0.3912  0.2125 -0.1642
 8074TIP3    H124158   8.015   4.020   6.208 -0.9906  0.7187 -1.8410
 8074TIP3    H224159   8.002   3.908   6.108  0.8731 -0.0041 -1.3005
 8075TIP3   OH224160   0.033   4.650   4.793 -0.0532 -0.0872 -0.5863
 8075TIP3    H124161  -0.031   4.698   4.741 -2.7777 -1.6058  1.2038
 8075TIP3    H224162   0.064   4.581   4.735 -0.4141  0.3623 -1.3216
 8076TIP3   OH224163   0.313   4.287   5.733 -0.2262  0.7579  0.0063
 8076TIP3    H124164   0.396   4.318   5.771  0.4664  2.1796 -2.5417
 8076TIP3    H224165   0.305   4.197   5.764  2.4030  0.5363  0.1643
 8077TIP3   OH224166   7.629   4.585   4.508  0.2802 -0.0946 -0.2888
 8077TIP3    H124167   7.681   4.517   4.552  1.2061  1.7255  1.5139
 8077TIP3    H224168   7.548   4.540   4.482  0.9603 -1.9365  0.6648
 8078TIP3   OH224169   1.552   5.966   6.596  0.1011  0.5632 -0.0219
 8078TIP3    H124170   1.468   5.944   6.556  0.1804 -1.5018  0.8978
 8078TIP3    H224171   1.614   5.904   6.559  0.6370  0.1845  1.4747
 8079TIP3   OH224172   7.771   5.227   3.937  0.0551  0.1008 -0.2126
 8079TIP3    H124173   7.703   5.294   3.927 -0.8310 -0.7752 -0.1156
 8079TIP3    H224174   7.851   5.269   3.905 -0.7425  0.7670 -1.3620
 8080TIP3   OH224175   0.816   5.593   5.313 -0.2156  0.2221  0.2132
 8080TIP3    H124176   0.847   5.642   5.237  2.4447 -0.4264  0.8345
 8080TIP3    H224177   0.787   5.660   5.375  1.5402  0.9474  0.2776
 8081TIP3   OH224178   5.562   0.806   5.707  0.4390 -0.4426  0.2697
 8081TIP3    H124179   5.591   0.725   5.751  0.2757 -2.3485 -2.9946
 8081TIP3    H224180   5.467   0.806   5.718  0.5507 -0.0661  1.2811
 8082TIP3   OH224181   3.486   0.055   4.564 -0.8154  0.5921 -0.1514
 8082TIP3    H124182   3.536  -0.008   4.616 -0.5925 -0.5493 -1.6963
 8082TIP3    H224183   3.538   0.136   4.567  1.4192 -0.6880 -2.0973
 8083TIP3   OH224184   1.915   5.157   5.083  0.6454 -0.2116 -0.0747
 8083TIP3    H124185   1.977   5.230   5.078 -1.2705  1.5984  1.3301
 8083TIP3    H224186   1.847   5.179   5.019 -0.5314 -0.1441  1.1729
 8084TIP3   OH224187   1.702   7.734   4.610 -0.2788  0.0838 -0.1573
 8084TIP3    H124188   1.692   7.778   4.525 -0.3041 -0.0977 -0.2488
 8084TIP3    H224189   1.781   7.773   4.647 -2.1653  2.6859  1.2909
 8085TIP3   OH224190   1.299   4.675   4.672  0.5536  0.3770  0.3442
 8085TIP3    H124191   1.291   4.771   4.674  1.0112  0.4029  1.1462
 8085TIP3    H224192   1.393   4.659   4.679  0.2638 -0.1971  3.3402
 8086TIP3   OH224193   1.364   4.495   5.375  0.2052 -0.5489 -0.4041
 8086TIP3    H124194   1.368   4.434   5.302  0.9621  0.2889 -1.0897
 8086TIP3    H224195   1.450   4.487   5.417 -0.4255 -1.4243  0.7269
 8087TIP3   OH224196   1.324   4.994   5.289 -0.0114 -0.6608  0.0867
 8087TIP3    H124197   1.407   4.991   5.241  0.1159 -0.8966  0.3171
 8087TIP3    H224198   1.275   4.918   5.257 -0.5929  0.1068 -0.8585
 8088TIP3   OH224199   1.321   5.904   4.799 -0.0594  0.0146  0.3502
 8088TIP3    H124200   1.403   5.855   4.800 -0.7565 -1.2251 -0.9517
 8088TIP3    H224201   1.314   5.940   4.887  1.1851 -1.0254  0.9061
 8089TIP3   OH224202   8.165   4.538   6.490  0.3199 -0.1866  0.2409
 8089TIP3    H124203   8.103   4.601   6.527  0.8240  1.1060 -1.0265
 8089TIP3    H224204   8.223   4.516   6.562 -0.4414  0.0787  0.9485
 8090TIP3   OH224205   7.836   5.395   3.070  0.1998 -0.3714  0.2419
 8090TIP3    H124206   7.819   5.439   2.987 -1.4504 -0.4296  0.5397
 8090TIP3    H224207   7.844   5.466   3.134  2.0077 -0.2959 -0.0309
 8091TIP3   OH224208   7.433   6.080   4.241  0.5694 -0.9459 -0.0531
 8091TIP3    H124209   7.431   6.052   4.150  2.8968  0.7884 -0.6636
 8091TIP3    H224210   7.440   6.175   4.237 -0.2430 -0.7752  1.9559
 8092TIP3   OH224211   8.015   4.217   4.000  0.8136  0.6085  0.4823
 8092TIP3    H124212   8.009   4.263   4.084  1.5094  0.6295  0.5225
 8092TIP3    H224213   8.109   4.203   3.987  0.7442  1.1068 -0.5710
 8093TIP3   OH224214   7.014   5.587   4.993 -0.3084 -0.2982 -0.0422
 8093TIP3    H124215   7.028   5.680   5.008 -0.2017 -0.0228 -1.8188
 8093TIP3    H224216   6.924   5.580   4.961 -0.3281 -0.8127  0.1136
 8094TIP3   OH224217   7.469   5.278   4.461  0.0431  0.5219  0.4778
 8094TIP3    H124218   7.460   5.212   4.530 -0.6683  1.0888  0.9315
 8094TIP3    H224219   7.399   5.341   4.479 -0.3918  0.4754 -0.9908
 8095TIP3   OH224220   1.220   6.461   5.929 -0.0775  0.3721 -0.1581
 8095TIP3    H124221   1.219   6.435   6.021 -2.5286  1.4010  0.1590
 8095TIP3    H224222   1.188   6.552   5.930  1.1828  0.8613 -1.8995
 8096TIP3   OH224223   0.595   5.410   4.512  0.7382  0.6291  0.3996
 8096TIP3    H124224   0.566   5.348   4.579  1.7408  0.0273  0.2763
 8096TIP3    H224225   0.619   5.355   4.437 -1.5440  1.3662 -0.9086
 8097TIP3   OH224226   1.172   2.909   5.193 -0.7797 -0.2276  0.0858
 8097TIP3    H124227   1.250   2.966   5.198  0.3321 -1.8015  0.9335
 8097TIP3    H224228   1.193   2.834   5.248 -2.2451 -1.4668 -1.0024
 8098TIP3   OH224229   1.878   2.426   4.754  0.2470  0.0856 -0.0770
 8098TIP3    H124230   1.868   2.335   4.783 -2.6998  0.0029 -1.2418
 8098TIP3    H224231   1.865   2.423   4.660 -0.3103  1.7822 -0.0743
 8099TIP3   OH224232   1.029   6.960   3.396 -0.0236 -0.8498 -0.2297
 8099TIP3    H124233   0.967   7.009   3.341  1.2727  1.8035  0.5797
 8099TIP3    H224234   1.106   7.017   3.402  0.4132 -1.6933  3.1797
 8100TIP3   OH224235   1.985   7.821   6.789  0.3076 -0.2176 -0.4565
 8100TIP3    H124236   2.004   7.889   6.854  2.1985 -0.1008 -1.1087
 8100TIP3    H224237   1.909   7.775   6.825 -0.9969  2.2028  0.0150
 8101TIP3   OH224238   0.748   5.830   2.692 -0.0353 -0.0229 -0.4789
 8101TIP3    H124239   0.699   5.909   2.670  0.0263 -0.4613 -2.2179
 8101TIP3    H224240   0.829   5.836   2.642 -0.1084 -1.2821 -0.7634
 8102TIP3   OH224241   1.225   0.785   4.573 -0.6889  0.0026  0.1656
 8102TIP3    H124242   1.250   0.694   4.557  1.3777  0.6697 -0.5230
 8102TIP3    H224243   1.292   0.820   4.631 -0.2832  1.6692 -1.2412
 8103TIP3   OH224244   6.476   3.797   5.702 -0.1948 -0.3936 -0.2620
 8103TIP3    H124245   6.381   3.800   5.712 -0.2326  1.5584 -1.0709
 8103TIP3    H224246   6.509   3.831   5.785 -0.1844 -1.3323  0.1261
 8104TIP3   OH224247   0.052   5.829   4.689  0.0201 -0.2913 -0.2446
 8104TIP3    H124248   0.049   5.887   4.766 -0.8387  1.6507 -1.6952
 8104TIP3    H224249  -0.019   5.766   4.704 -1.8961  1.6979 -0.6370
 8105TIP3   OH224250   7.174   0.410   0.766  0.2937 -0.4695 -0.4410
 8105TIP3    H124251   7.220   0.487   0.733  0.2307 -0.2292  0.0268
 8105TIP3    H224252   7.085   0.420   0.733  0.6514 -1.0862 -1.5928
 8106TIP3   OH224253   1.224   5.915   5.900  0.0566 -0.0543  0.5714
 8106TIP3    H124254   1.219   5.849   5.831  0.9467  1.8213 -1.3379
 8106TIP3    H224255   1.269   5.871   5.972 -0.4168 -1.8790 -0.2289
 8107TIP3   OH224256   0.408   4.508   5.600 -0.2399  0.1109 -0.7094
 8107TIP3    H124257   0.355   4.430   5.617  2.8901 -1.8766  0.4732
 8107TIP3    H224258   0.390   4.565   5.674 -0.2585 -0.8194  0.0209
 8108TIP3   OH224259   5.612   7.520   1.351  0.5029 -0.1588 -0.1563
 8108TIP3    H124260   5.638   7.504   1.442  0.0088  0.3820  0.0801
 8108TIP3    H224261   5.674   7.468   1.300  1.3280  0.2083  0.4577
 8109TIP3   OH224262   2.655   3.799   5.852 -0.6185  0.0309  0.4353
 8109TIP3    H124263   2.646   3.752   5.769  2.0662 -0.1870  0.2169
 8109TIP3    H224264   2.576   3.778   5.901 -1.5624 -1.0175 -1.4800
 8110TIP3   OH224265   1.983   3.575   4.220 -0.0869  0.2535  0.1144
 8110TIP3    H124266   2.037   3.611   4.150  1.1534 -1.4765  0.1372
 8110TIP3    H224267   1.911   3.531   4.175  0.2660 -0.1581 -0.0513
 8111TIP3   OH224268   2.661   7.946   0.351 -0.0766  0.5202 -0.1570
 8111TIP3    H124269   2.604   7.906   0.417  1.1015 -0.7015  0.1373
 8111TIP3    H224270   2.618   8.029   0.330 -0.5105  0.9214  2.1172
 8112TIP3   OH224271   8.348   3.725   4.332  0.0731 -0.1396  0.6176
 8112TIP3    H124272   8.298   3.719   4.414  0.7952 -0.6518  1.0264
 8112TIP3    H224273   8.293   3.778   4.274 -0.6574 -0.1724  1.2761
 8113TIP3   OH224274   1.641   4.568   5.981 -1.0216 -0.1964 -0.3824
 8113TIP3    H124275   1.564   4.614   6.014 -1.1073 -0.4600 -0.2122
 8113TIP3    H224276   1.711   4.634   5.983 -1.4579  0.3131 -1.4155
 8114TIP3   OH224277   1.249   6.371   2.197 -0.7636  0.1083  0.1317
 8114TIP3    H124278   1.300   6.291   2.214  1.4090  1.1813 -1.0878
 8114TIP3    H224279   1.218   6.361   2.107 -0.3798  0.7020 -0.0646
 8115TIP3   OH224280   1.067   7.813   4.545  0.0133 -0.4547 -0.2262
 8115TIP3    H124281   1.047   7.905   4.560 -0.6285 -0.7820  0.9167
 8115TIP3    H224282   1.079   7.807   4.450  1.6185  1.1056 -0.1609
 8116TIP3   OH224283   0.870   6.322   5.225  0.1168  0.4238  0.0604
 8116TIP3    H124284   0.825   6.335   5.142 -2.2104 -0.0730  1.2122
 8116TIP3    H224285   0.866   6.407   5.269  0.8556  0.5379 -0.0800
 8117TIP3   OH224286   7.704   3.505   4.163 -0.2286  0.7381 -0.1870
 8117TIP3    H124287   7.697   3.545   4.250 -2.0007  0.8079 -0.3453
 8117TIP3    H224288   7.739   3.418   4.179  1.3545  1.4691  0.4026
 8118TIP3   OH224289   1.592   4.911   4.856  0.4972  0.7103  0.2096
 8118TIP3    H124290   1.632   4.824   4.862 -0.5404  0.0738 -1.6351
 8118TIP3    H224291   1.540   4.919   4.936 -0.3543 -0.8769 -0.1652
 8119TIP3   OH224292   8.480   5.996   4.900  0.2721 -0.2193 -0.1006
 8119TIP3    H124293   8.386   5.993   4.915  0.2984  0.0208  0.1267
 8119TIP3    H224294   8.507   6.082   4.932  0.2192  0.6057 -2.1756
 8120TIP3   OH224295   7.855   6.498   4.606 -0.0880  0.1620 -0.3533
 8120TIP3    H124296   7.817   6.512   4.519  2.4212  0.0457 -1.5195
 8120TIP3    H224297   7.800   6.430   4.646 -3.4915  2.8313 -0.3600
 8121TIP3   OH224298   0.632   5.696   4.455  1.0208 -0.2040  0.4883
 8121TIP3    H124299   0.618   5.603   4.473  0.5914  0.0019  1.1976
 8121TIP3    H224300   0.727   5.707   4.460  1.0077 -0.4187  1.2998
 8122TIP3   OH224301   8.166   5.341   4.871  0.5193 -0.3695  0.2781
 8122TIP3    H124302   8.202   5.372   4.955  0.8372  0.4096 -0.1416
 8122TIP3    H224303   8.105   5.272   4.896  0.0990  0.3190  1.2132
 8123TIP3   OH224304   0.007   5.272   5.282 -0.4302  0.1221 -0.4356
 8123TIP3    H124305   0.005   5.348   5.340  0.7621 -0.2737  0.1601
 8123TIP3    H224306  -0.005   5.197   5.341  3.6463 -0.4919 -0.2174
 8124TIP3   OH224307   0.332   6.497   4.891  0.0601 -0.1858 -0.0690
 8124TIP3    H124308   0.416   6.459   4.863  0.0414  0.0490 -0.4581
 8124TIP3    H224309   0.355   6.552   4.966  0.1428 -0.6840  0.2707
 8125TIP3   OH224310   0.598   2.516   4.733 -0.3640 -0.2369 -0.0288
 8125TIP3    H124311   0.575   2.511   4.825 -0.9524  1.9043 -0.0319
 8125TIP3    H224312   0.519   2.549   4.690  0.6097  0.9613 -0.9586
 8126TIP3   OH224313   0.618   5.541   5.120 -0.0550 -0.5993  0.1670
 8126TIP3    H124314   0.675   5.548   5.197  0.0706  1.2474 -0.0889
 8126TIP3    H224315   0.529   5.538   5.156  0.0779 -1.4054  0.4524
 8127TIP3   OH224316   1.162   4.340   4.608 -0.0240  0.1391  0.9579
 8127TIP3    H124317   1.255   4.352   4.591  0.1045 -2.1799 -0.2279
 8127TIP3    H224318   1.159   4.276   4.679 -0.7089 -0.1690  0.6543
 8128TIP3   OH224319   0.718   4.853   4.145 -0.1521 -0.2615  0.1669
 8128TIP3    H124320   0.704   4.759   4.155  0.1405 -0.3189  0.0466
 8128TIP3    H224321   0.716   4.867   4.051  1.0219 -0.3412  0.1203
 8129TIP3   OH224322   0.800   3.144   6.238  0.0499  0.6387  0.6782
 8129TIP3    H124323   0.887   3.141   6.278  0.3802  0.9301 -0.0090
 8129TIP3    H224324   0.800   3.072   6.175  0.1811  1.2996 -0.0912
 8130TIP3   OH224325   0.794   4.066   3.105 -0.4096 -0.0513  0.1227
 8130TIP3    H124326   0.846   4.130   3.154  0.7236 -0.0099 -1.1049
 8130TIP3    H224327   0.720   4.116   3.072 -0.1150  0.3800  0.1102
 8131TIP3   OH224328   1.412   5.437   5.467  0.4678  0.4235 -0.0587
 8131TIP3    H124329   1.473   5.467   5.398 -0.6521 -0.9320 -1.6703
 8131TIP3    H224330   1.328   5.431   5.422 -0.2444 -0.6323  1.4217
 8132TIP3   OH224331   8.053   5.503   3.602 -0.3403 -0.0854  0.3852
 8132TIP3    H124332   8.040   5.465   3.515 -0.4080 -0.5229  0.5868
 8132TIP3    H224333   8.141   5.541   3.598 -0.2514 -0.3097  0.2048
 8133TIP3   OH224334   4.379   0.144   4.619  0.2198 -0.8586  0.5840
 8133TIP3    H124335   4.340   0.064   4.584 -0.6244 -0.8842  1.5414
 8133TIP3    H224336   4.382   0.130   4.714 -0.3643  0.4320  0.8075
 8134TIP3   OH224337   7.010   5.823   2.366 -0.2864 -0.0569 -0.4012
 8134TIP3    H124338   6.991   5.911   2.398 -0.7452 -0.4945  0.5268
 8134TIP3    H224339   6.973   5.764   2.431  0.9300 -0.9383 -0.4739
 8135TIP3   OH224340   3.078   4.997   4.953 -0.4237 -1.0633 -0.6418
 8135TIP3    H124341   3.113   5.080   4.922 -0.8922 -0.3843  0.6339
 8135TIP3    H224342   3.155   4.951   4.988 -0.4506 -0.4676  0.1973
 8136TIP3   OH224343   0.024   5.333   6.657  0.5357 -0.1346  0.0779
 8136TIP3    H124344   0.108   5.297   6.631  0.8767  0.7909 -0.1159
 8136TIP3    H224345   0.000   5.285   6.737  1.2516 -0.3803  0.1408
 8137TIP3   OH224346   0.130   4.735   5.243 -0.0636 -0.3055 -0.4325
 8137TIP3    H124347   0.118   4.809   5.302  0.0505 -1.0149  0.4990
 8137TIP3    H224348   0.164   4.665   5.299 -1.7828 -1.5942 -0.9388
 8138TIP3   OH224349   1.513   6.094   5.222 -0.5529 -0.1240 -0.0382
 8138TIP3    H124350   1.517   6.002   5.199  1.8199  0.1837 -1.0958
 8138TIP3    H224351   1.431   6.104   5.270 -0.1907 -3.0433  1.3113
 8139TIP3   OH224352   8.394   2.542   0.769  0.4812  0.5573 -0.2001
 8139TIP3    H124353   8.352   2.456   0.771  0.1881  0.6996 -0.1257
 8139TIP3    H224354   8.330   2.598   0.726 -0.0129  1.0973  1.2185
 8140TIP3   OH224355   8.448   4.155   4.224 -0.1879 -0.7044 -0.8080
 8140TIP3    H124356   8.519   4.096   4.197  1.5691  0.4471  1.1129
 8140TIP3    H224357   8.395   4.102   4.283 -0.6477 -1.4290 -1.8654
 8141TIP3   OH224358   2.577   5.283   3.718 -0.0984  0.2997 -0.2918
 8141TIP3    H124359   2.610   5.334   3.643 -0.8221  0.7519 -0.3098
 8141TIP3    H224360   2.638   5.304   3.789  0.7710 -0.3648 -0.8263
 8142TIP3   OH224361   4.112   7.243   0.245  0.1279 -0.2781  0.4722
 8142TIP3    H124362   4.056   7.320   0.232 -1.5629 -1.3496  1.2291
 8142TIP3    H224363   4.080   7.180   0.181  0.8616 -0.7077  0.5298
 8143TIP3   OH224364   8.220   7.096   3.296 -0.0380 -0.5386 -0.4457
 8143TIP3    H124365   8.217   7.191   3.308  0.9803 -0.4179 -1.0892
 8143TIP3    H224366   8.171   7.061   3.371  0.1658  0.4670  0.1716
 8144TIP3   OH224367   0.701   4.136   6.241 -0.2219  0.2126  0.3100
 8144TIP3    H124368   0.606   4.123   6.231 -0.3568  0.5271  1.1391
 8144TIP3    H224369   0.716   4.129   6.335  0.3605  1.6347  0.3376
 8145TIP3   OH224370   3.071   0.040   4.439  0.2507 -0.0045  0.3829
 8145TIP3    H124371   3.025   0.124   4.437  2.2869  1.1012 -1.5485
 8145TIP3    H224372   3.118   0.041   4.522 -0.2498  0.4697  0.6638
 8146TIP3   OH224373   1.582   5.053   5.770 -0.4622  0.1328 -0.0182
 8146TIP3    H124374   1.576   5.138   5.728 -0.6810 -0.0250 -0.3060
 8146TIP3    H224375   1.571   4.990   5.699 -0.3255 -0.1340  0.1983
 8147TIP3   OH224376   4.745   0.769   4.348  0.3198 -0.1330 -0.1593
 8147TIP3    H124377   4.798   0.703   4.305  0.1745  1.0709 -2.2657
 8147TIP3    H224378   4.713   0.824   4.276 -4.0468 -1.0160  1.0118
 8148TIP3   OH224379   8.473   6.533   3.937 -0.2561  0.3312 -0.4126
 8148TIP3    H124380   8.561   6.550   3.970 -0.2565  3.0230 -1.6868
 8148TIP3    H224381   8.420   6.519   4.016  0.6849  1.9707  0.5326
 8149TIP3   OH224382   3.693   7.134   3.876  0.1252  0.2276  0.1987
 8149TIP3    H124383   3.677   7.226   3.856  0.7621  0.5010  0.8748
 8149TIP3    H224384   3.611   7.103   3.915 -0.4025  0.2542 -0.8962
 8150TIP3   OH224385   8.047   3.736   3.266  0.3434  0.0512 -0.2951
 8150TIP3    H124386   8.108   3.790   3.316 -1.6323 -0.3850  2.6727
 8150TIP3    H224387   8.084   3.735   3.177  3.9150  0.8710  1.0898
 8151TIP3   OH224388   7.160   1.675   3.700  0.2512 -0.1396 -0.5160
 8151TIP3    H124389   7.075   1.680   3.656  0.2282 -0.6286 -0.5280
 8151TIP3    H224390   7.163   1.587   3.737  0.3838  0.1838  0.2483
 8152TIP3   OH224391   2.924   5.976   5.637  0.0792  0.3171 -0.2340
 8152TIP3    H124392   2.931   5.887   5.601  0.2475  0.1900  0.1116
 8152TIP3    H224393   2.916   6.032   5.560 -0.0332 -0.0004 -0.4545
 8153TIP3   OH224394   1.773   4.978   4.653 -0.3093  0.4045 -0.2676
 8153TIP3    H124395   1.856   5.018   4.678  0.4174 -1.9069  1.2201
 8153TIP3    H224396   1.731   4.955   4.736 -2.4508  1.4939 -0.9885
 8154TIP3   OH224397   1.537   5.791   6.826 -0.1963 -0.7220  0.1898
 8154TIP3    H124398   1.536   5.886   6.836 -0.2221 -0.7681  0.6191
 8154TIP3    H224399   1.565   5.777   6.735 -1.3794 -0.2820 -0.2531
 8155TIP3   OH224400   1.393   7.343   3.484  0.0893 -0.1200 -0.4349
 8155TIP3    H124401   1.423   7.411   3.424  1.0400 -1.2912 -1.2988
 8155TIP3    H224402   1.348   7.280   3.428 -1.4335  0.1492  0.4627
 8156TIP3   OH224403   2.885   6.822   3.991  0.1437 -0.1668 -0.0324
 8156TIP3    H124404   2.798   6.843   4.026 -0.4105  0.4261 -1.7279
 8156TIP3    H224405   2.874   6.826   3.896  2.6223  2.4511 -0.2570
 8157TIP3   OH224406   2.792   6.709   5.591  0.6748 -0.5403 -0.2513
 8157TIP3    H124407   2.722   6.649   5.617  0.7941 -1.1835 -1.3537
 8157TIP3    H224408   2.866   6.685   5.646 -0.2132  0.7387  1.5584
 8158TIP3   OH224409   2.319   5.599   4.187 -0.1965 -0.5001  0.6035
 8158TIP3    H124410   2.404   5.626   4.222  0.2177 -0.5800 -0.3421
 8158TIP3    H224411   2.311   5.646   4.104  0.0498 -2.4530 -0.5499
 8159TIP3   OH224412   3.725   6.270   5.646 -0.4905  0.6763  0.3260
 8159TIP3    H124413   3.780   6.344   5.620 -2.2160  2.1257  0.7540
 8159TIP3    H224414   3.651   6.309   5.692 -1.4436 -1.3109  0.5442
 8160TIP3   OH224415   5.072   7.077   4.820 -0.1132 -0.1476  0.5228
 8160TIP3    H124416   5.103   7.060   4.731 -1.3678  1.5130 -0.2728
 8160TIP3    H224417   4.979   7.099   4.809 -0.1978  0.4046  2.2046
 8161TIP3   OH224418   1.369   5.299   4.754  0.4524  0.0031  0.6881
 8161TIP3    H124419   1.373   5.273   4.846  0.1224  0.4752  0.8380
 8161TIP3    H224420   1.461   5.303   4.726  0.5898  0.5629  1.2025
 8162TIP3   OH224421   7.091   1.112   0.428 -0.0867 -0.3688 -0.1273
 8162TIP3    H124422   7.182   1.085   0.438 -0.3017 -0.8556  0.5628
 8162TIP3    H224423   7.058   1.116   0.518 -0.8906 -0.7009 -0.4043
 8163TIP3   OH224424   2.390   6.519   4.743  0.2240 -0.3338  0.2722
 8163TIP3    H124425   2.353   6.594   4.696  0.8196  0.7291  1.4829
 8163TIP3    H224426   2.316   6.460   4.756 -0.5653  0.7053  0.5869
 8164TIP3   OH224427   7.608   2.346   0.468  0.1881  0.1335 -0.5161
 8164TIP3    H124428   7.628   2.348   0.561 -0.9639 -2.1512 -0.1881
 8164TIP3    H224429   7.530   2.401   0.459  0.3365  0.4015 -0.1371
 8165TIP3   OH224430   2.227   5.280   2.667  0.4736  0.5925  0.2862
 8165TIP3    H124431   2.286   5.277   2.592 -0.4231  1.8789 -0.4976
 8165TIP3    H224432   2.192   5.369   2.666 -0.3697  0.2865  1.5903
 8166TIP3   OH224433   3.549   6.837   3.826  0.0848  0.1388 -0.1103
 8166TIP3    H124434   3.536   6.771   3.758 -0.8693  0.7084 -0.4982
 8166TIP3    H224435   3.636   6.872   3.808  0.3001 -0.5066 -0.3492
 8167TIP3   OH224436   4.920   5.848   3.864 -0.4575 -0.1550  0.2573
 8167TIP3    H124437   4.893   5.906   3.793 -0.2175  0.1834  0.4400
 8167TIP3    H224438   4.855   5.862   3.933  0.0267  0.4687  0.5968
 8168TIP3   OH224439   0.270   4.048   5.864 -0.3481  0.2293 -0.3847
 8168TIP3    H124440   0.187   4.009   5.891  0.0585  0.7802  1.8048
 8168TIP3    H224441   0.303   4.090   5.944  1.0030  1.8480 -1.7563
 8169TIP3   OH224442   1.590   6.514   5.417  0.2767  0.3603 -0.1654
 8169TIP3    H124443   1.614   6.537   5.327 -0.8963 -0.7911 -0.7916
 8169TIP3    H224444   1.511   6.461   5.408 -2.2157  3.5307  1.7941
 8170TIP3   OH224445   1.583   4.463   5.548  0.3397 -0.0965 -0.0409
 8170TIP3    H124446   1.661   4.456   5.492 -0.2979  2.8499 -1.4020
 8170TIP3    H224447   1.614   4.437   5.635  2.5443 -0.2041 -0.8207
 8171TIP3   OH224448   4.560   4.880   3.202 -0.1448  0.3238 -0.2027
 8171TIP3    H124449   4.480   4.835   3.226  0.3971 -0.2727  0.5008
 8171TIP3    H224450   4.623   4.857   3.271  0.5047  1.1284 -0.5084
 8172TIP3   OH224451   0.668   4.993   6.336  0.3378 -0.0328 -0.0245
 8172TIP3    H124452   0.641   5.043   6.413 -1.4558 -0.1122 -0.5947
 8172TIP3    H224453   0.702   4.911   6.371  2.0885  1.0352  0.8355
 8173TIP3   OH224454   2.228   5.861   4.902 -0.1174 -0.4064  0.4669
 8173TIP3    H124455   2.192   5.835   4.988 -1.5833  1.3151  0.3987
 8173TIP3    H224456   2.237   5.956   4.907 -1.6769 -0.0867 -1.7953
 8174TIP3   OH224457   1.601   5.255   5.213  0.8330 -0.1175  0.2040
 8174TIP3    H124458   1.626   5.178   5.264 -1.5774 -1.3343 -0.3635
 8174TIP3    H224459   1.544   5.221   5.144 -2.0415  2.3549  1.2261
 8175TIP3   OH224460   5.264   0.523   3.479 -0.4437  1.0046 -0.6004
 8175TIP3    H124461   5.303   0.521   3.566 -0.5508  1.3249 -0.5453
 8175TIP3    H224462   5.170   0.513   3.494 -0.4533  0.9680 -0.6841
 8176TIP3   OH224463   1.292   6.794   1.578  0.5514  0.1797  0.2586
 8176TIP3    H124464   1.365   6.851   1.552  0.4317  0.6902  1.0033
 8176TIP3    H224465   1.216   6.852   1.581  0.4354 -0.0099  1.0502
 8177TIP3   OH224466   0.714   5.327   3.343 -0.0019 -0.2195  0.4896
 8177TIP3    H124467   0.703   5.341   3.437  1.0968 -0.9401  0.7328
 8177TIP3    H224468   0.804   5.355   3.325 -0.3977  0.4818 -0.4622
 8178TIP3   OH224469   1.121   6.190   5.522  0.2259  0.3443 -0.0572
 8178TIP3    H124470   1.139   6.205   5.429 -0.3344 -1.9321 -0.5577
 8178TIP3    H224471   1.208   6.183   5.562  0.5291 -2.9365 -1.1648
 8179TIP3   OH224472   4.777   5.586   5.509 -0.3199  0.6354  0.9850
 8179TIP3    H124473   4.685   5.575   5.533 -0.3851  0.2176  0.5344
 8179TIP3    H224474   4.812   5.645   5.577 -0.9781  1.0107  1.0069
 8180TIP3   OH224475   6.500   0.056   5.482  0.1897 -0.7036 -0.3809
 8180TIP3    H124476   6.588   0.051   5.443 -0.1684 -1.1632 -1.1438
 8180TIP3    H224477   6.463   0.137   5.448  1.0159  0.4762  1.4500
 8181TIP3   OH224478   3.814   7.484   4.695  0.1193  0.1761 -0.7993
 8181TIP3    H124479   3.806   7.395   4.662  0.8069 -0.1656 -0.0488
 8181TIP3    H224480   3.760   7.485   4.775 -0.5362  0.6574 -1.2386
 8182TIP3   OH224481   2.483   5.731   3.592  0.0738  0.5796 -1.0103
 8182TIP3    H124482   2.437   5.648   3.603 -0.2922  1.0883  1.4502
 8182TIP3    H224483   2.418   5.788   3.550 -0.2607  0.1660 -1.0629
 8183TIP3   OH224484   5.170   0.472   3.225 -0.0763  0.3870 -0.2177
 8183TIP3    H124485   5.155   0.377   3.233 -0.5408  0.6388  2.4040
 8183TIP3    H224486   5.218   0.495   3.304 -0.3686  2.4286 -0.6081
 8184TIP3   OH224487   0.508   6.039   5.983  0.1346 -0.3519  0.5989
 8184TIP3    H124488   0.426   6.060   6.029 -0.4181 -0.6316 -0.2499
 8184TIP3    H224489   0.514   6.103   5.913  0.2072 -0.8654  0.1303
 8185TIP3   OH224490   4.710   6.291   3.710 -0.2743 -0.0937  0.0898
 8185TIP3    H124491   4.661   6.333   3.781  0.5142 -0.3469  0.7884
 8185TIP3    H224492   4.731   6.204   3.744 -1.4891 -0.8973 -1.1685
 8186TIP3   OH224493   1.420   6.576   3.731 -0.0126  0.3524 -0.5900
 8186TIP3    H124494   1.459   6.558   3.645 -0.8080 -2.2026 -0.4819
 8186TIP3    H224495   1.448   6.501   3.784 -1.4244  0.7538  0.7169
 8187TIP3   OH224496   2.585   6.169   2.544 -0.0275  0.0667  0.1087
 8187TIP3    H124497   2.597   6.080   2.579 -0.0828  0.0404  0.0610
 8187TIP3    H224498   2.569   6.223   2.621 -0.5568 -0.0596  0.0864
 8188TIP3   OH224499   1.185   7.617   6.106  0.2966  0.0033 -0.5429
 8188TIP3    H124500   1.106   7.630   6.159  0.3346 -0.3540 -0.3933
 8188TIP3    H224501   1.161   7.548   6.044 -0.0300  1.0310 -1.5771
 8189TIP3   OH224502   4.394   7.051   3.889  0.1015 -0.0960 -0.1265
 8189TIP3    H124503   4.351   6.990   3.948  0.9710 -1.4866 -0.8967
 8189TIP3    H224504   4.330   7.120   3.874 -0.2787  0.0537  2.0850
 8190TIP3   OH224505   1.105   6.188   4.794 -0.2991  0.2149 -0.0828
 8190TIP3    H124506   1.192   6.226   4.807 -0.5295  0.3982  0.9078
 8190TIP3    H224507   1.119   6.121   4.727 -0.0211  2.5062 -2.3981
 8191TIP3   OH224508   2.131   6.529   3.931  0.0168 -0.1260  0.0669
 8191TIP3    H124509   2.120   6.623   3.949  0.3463 -0.1737  0.5305
 8191TIP3    H224510   2.205   6.503   3.986  1.3678 -0.1698 -1.7222
 8192TIP3   OH224511   2.135   7.835   4.218  0.0388 -0.2780  0.1842
 8192TIP3    H124512   2.070   7.769   4.241 -0.5644  0.1176 -0.4001
 8192TIP3    H224513   2.086   7.904   4.175  0.9812 -0.4518 -1.2159
 8193TIP3   OH224514   1.748   6.824   2.858 -0.0221 -0.1535 -0.5521
 8193TIP3    H124515   1.732   6.837   2.765  1.5832  0.6469 -0.7319
 8193TIP3    H224516   1.811   6.893   2.882  0.8052 -1.3338  0.7573
 8194TIP3   OH224517   2.597   7.440   4.449 -0.7912 -0.5065  0.3738
 8194TIP3    H124518   2.658   7.382   4.403  0.7862  0.4169  1.2642
 8194TIP3    H224519   2.598   7.409   4.540  0.8529  1.4968  1.0883
 8195TIP3   OH224520   1.086   5.457   3.853  0.6783 -0.0779 -0.0699
 8195TIP3    H124521   1.181   5.452   3.868  0.9002 -2.0495 -1.9343
 8195TIP3    H224522   1.071   5.546   3.821  2.0290 -0.0653 -0.6807
 8196TIP3   OH224523   6.530   1.366   6.218  0.2957  0.5946  0.4647
 8196TIP3    H124524   6.564   1.362   6.128  1.8575 -0.2224  1.0753
 8196TIP3    H224525   6.495   1.455   6.226  0.2540  0.7203 -0.9134
 8197TIP3   OH224526   1.616   6.568   5.146 -0.1241  0.0977 -0.1313
 8197TIP3    H124527   1.630   6.500   5.080  0.3988  0.6368 -0.5832
 8197TIP3    H224528   1.545   6.622   5.112  0.1446  0.3754 -0.2543
 8198TIP3   OH224529   1.743   6.110   3.450 -0.3663 -0.1366 -0.5008
 8198TIP3    H124530   1.816   6.167   3.475 -0.9049  0.4172 -0.1829
 8198TIP3    H224531   1.759   6.028   3.497  0.6984 -0.4471 -1.3792
 8199TIP3   OH224532   0.394   6.644   4.579 -0.3110 -0.8602  0.1646
 8199TIP3    H124533   0.326   6.616   4.640  0.1494  0.1213  1.1392
 8199TIP3    H224534   0.457   6.692   4.633 -0.7336  1.4773 -1.3251
 8200TIP3   OH224535   4.076   0.703   1.759  0.6165  0.0380  0.3705
 8200TIP3    H124536   4.061   0.780   1.813 -0.0671  0.8537 -0.9747
 8200TIP3    H224537   4.039   0.630   1.809  1.3740  0.5543  1.6941
 8201TIP3   OH224538   0.753   6.368   3.555 -0.1522  0.5020 -0.0276
 8201TIP3    H124539   0.714   6.280   3.550  0.5710  0.1790 -0.0653
 8201TIP3    H224540   0.699   6.421   3.497 -1.6683  0.4865  1.3432
 8202TIP3   OH224541   3.682   6.009   4.779 -0.4425  0.2175  0.7603
 8202TIP3    H124542   3.751   5.943   4.788  0.0595  0.4880 -0.9422
 8202TIP3    H224543   3.694   6.044   4.691 -2.6039  0.4518  0.5408
 8203TIP3   OH224544   2.203   5.789   4.572 -0.7047 -0.1265 -0.3928
 8203TIP3    H124545   2.151   5.830   4.503 -0.5984  0.2392 -0.2536
 8203TIP3    H224546   2.142   5.779   4.645 -1.1150 -1.4905 -0.8932
 8204TIP3   OH224547   5.103   6.225   4.849  0.4749  0.0076  0.0655
 8204TIP3    H124548   5.138   6.296   4.902  0.3854  0.3019 -0.2715
 8204TIP3    H224549   5.142   6.238   4.763 -0.1711  0.1104 -0.2076
 8205TIP3   OH224550   0.804   4.598   5.267 -0.3142 -0.1217 -0.3039
 8205TIP3    H124551   0.807   4.539   5.192 -3.0888 -1.4879  0.6106
 8205TIP3    H224552   0.736   4.661   5.246 -1.5485 -0.8888  1.3096
 8206TIP3   OH224553   3.113   6.416   6.445 -0.5154  0.3990  0.1390
 8206TIP3    H124554   3.181   6.390   6.383 -0.5231  1.1668 -0.2005
 8206TIP3    H224555   3.038   6.438   6.390 -0.4418  1.3260  0.4010
 8207TIP3   OH224556   2.347   5.901   3.453  0.2782  0.0477 -0.6949
 8207TIP3    H124557   2.277   5.836   3.462 -0.0192  0.3131 -1.0698
 8207TIP3    H224558   2.304   5.978   3.416  0.9847 -0.1616 -1.9718
 8208TIP3   OH224559   0.936   6.884   2.701 -0.2993 -0.5375  0.1181
 8208TIP3    H124560   0.929   6.866   2.608 -2.0235 -0.1361  0.1549
 8208TIP3    H224561   0.846   6.902   2.729  0.2992  0.1059  1.6937
 8209TIP3   OH224562   2.876   5.585   5.058  0.0017 -0.8984  0.4645
 8209TIP3    H124563   2.783   5.605   5.060 -0.1608 -1.6084  0.1457
 8209TIP3    H224564   2.895   5.544   5.142  0.3784  0.7156  1.2033
 8210TIP3   OH224565   3.183   6.593   4.564  0.3180 -0.0858 -0.2801
 8210TIP3    H124566   3.154   6.563   4.477 -0.7056  1.0087 -0.3396
 8210TIP3    H224567   3.129   6.670   4.581  0.8286 -0.0340  1.1470
 8211TIP3   OH224568   2.884   5.428   2.348 -0.3046  0.3197  0.0713
 8211TIP3    H124569   2.978   5.411   2.359 -0.6289 -1.1544  0.7110
 8211TIP3    H224570   2.878   5.474   2.264  1.2099  2.5853  1.1589
 8212TIP3   OH224571   1.639   3.125   0.071  0.1226  0.5081 -0.2891
 8212TIP3    H124572   1.614   3.050   0.124 -1.4725  1.5194  0.4425
 8212TIP3    H224573   1.561   3.144   0.018  0.8293  1.0685 -1.1563
 8213TIP3   OH224574   1.233   4.067   5.582 -0.1172  0.1232  0.0848
 8213TIP3    H124575   1.198   4.124   5.514 -1.3820  1.3131  1.6932
 8213TIP3    H224576   1.299   4.121   5.627  0.6478 -0.6168 -0.1471
 8214TIP3   OH224577   1.959   5.538   4.713  0.0766  0.0046  0.2133
 8214TIP3    H124578   2.011   5.504   4.786 -0.2398 -0.8364  0.0590
 8214TIP3    H224579   1.981   5.631   4.709  0.1223  0.0540  1.3535
 8215TIP3   OH224580   1.906   5.380   5.706  0.1077  0.4477  0.2677
 8215TIP3    H124581   1.836   5.444   5.700 -1.0400 -0.7385  0.7791
 8215TIP3    H224582   1.945   5.395   5.792  1.4094  2.0163 -0.5579
 8216TIP3   OH224583   2.561   4.054   5.352  0.4873 -0.6443  0.0968
 8216TIP3    H124584   2.492   4.072   5.416  0.1064 -0.5016 -0.3424
 8216TIP3    H224585   2.547   3.963   5.326  1.0035 -0.8810  0.6460
 8217TIP3   OH224586   8.002   4.474   4.797 -0.1441  0.1995  0.5501
 8217TIP3    H124587   8.002   4.570   4.802  1.2347  0.3947 -2.3822
 8217TIP3    H224588   8.067   4.453   4.731 -1.3428 -2.7310  0.2093
 8218TIP3   OH224589   3.366   7.545   6.734  0.0840  0.2237  0.2838
 8218TIP3    H124590   3.367   7.479   6.665 -0.1973  0.1975  0.3069
 8218TIP3    H224591   3.281   7.588   6.725  1.0849  1.9903 -1.0788
 8219TIP3   OH224592   1.623   6.039   5.701 -0.4005  0.1132  0.1736
 8219TIP3    H124593   1.617   5.966   5.763  2.0874  1.5286  2.1725
 8219TIP3    H224594   1.686   6.008   5.635  0.8812  0.5488  1.1825
 8220TIP3   OH224595   1.990   3.552   6.046  0.5913 -0.2359 -0.2223
 8220TIP3    H124596   1.934   3.530   5.972  0.3722 -1.9132  0.4026
 8220TIP3    H224597   1.944   3.622   6.092  0.0239 -0.1810 -0.8784
 8221TIP3   OH224598   1.568   4.821   5.506 -0.1088 -0.0371  0.2643
 8221TIP3    H124599   1.578   4.772   5.425 -0.0183 -0.0892  0.3062
 8221TIP3    H224600   1.631   4.781   5.566  1.4467  1.4409 -0.3301
 8222TIP3   OH224601   2.671   4.374   4.755  0.7728  0.3866  0.6434
 8222TIP3    H124602   2.748   4.377   4.812 -0.7881 -1.3809  2.9269
 8222TIP3    H224603   2.656   4.281   4.739 -0.7929  0.7204  0.0485
 8223TIP3   OH224604   2.057   4.982   3.993 -0.4472 -0.2983 -0.0408
 8223TIP3    H124605   2.005   4.904   3.972  1.3071 -0.8703 -2.4298
 8223TIP3    H224606   2.105   4.959   4.072  1.9524 -2.6175 -2.1095
 8224TIP3   OH224607   1.902   7.074   4.344  0.4325  0.4929  0.2441
 8224TIP3    H124608   1.807   7.070   4.344  0.4593 -0.2713 -0.0532
 8224TIP3    H224609   1.923   7.158   4.386 -0.3790  0.9622 -0.2728
 8225TIP3   OH224610   3.150   5.520   6.745 -0.7728  0.2512 -0.1474
 8225TIP3    H124611   3.125   5.442   6.695  0.0457 -0.8370  1.0824
 8225TIP3    H224612   3.243   5.532   6.725 -1.2193  1.6961 -1.3520
 8226TIP3   OH224613   0.738   4.749   6.468 -0.2439  0.0681 -0.3794
 8226TIP3    H124614   0.734   4.654   6.453 -0.3792 -0.5787  3.2055
 8226TIP3    H224615   0.662   4.766   6.524  1.6312  1.7247  1.6945
 8227TIP3   OH224616   8.217   5.822   5.677 -0.3691 -0.2487  0.4101
 8227TIP3    H124617   8.167   5.748   5.642 -1.2648  0.6230 -0.1703
 8227TIP3    H224618   8.165   5.854   5.751  0.6518 -0.9844  1.4628
 8228TIP3   OH224619   1.755   7.079   6.406  0.1281  0.5002  0.0346
 8228TIP3    H124620   1.718   7.161   6.439 -0.3969  0.6583 -0.9333
 8228TIP3    H224621   1.758   7.090   6.311 -1.2901 -1.1349 -0.2355
 8229TIP3   OH224622   1.942   7.740   3.140 -0.5867  0.2551 -0.2051
 8229TIP3    H124623   1.895   7.781   3.213 -2.0468 -0.5413 -0.6630
 8229TIP3    H224624   1.989   7.667   3.180  0.7452  1.4038  0.3545
 8230TIP3   OH224625   3.423   5.990   3.273 -0.6992 -0.1746 -0.1793
 8230TIP3    H124626   3.457   5.996   3.184  0.6917  1.4531  0.4238
 8230TIP3    H224627   3.366   5.913   3.272  0.1358 -0.8061 -2.1851
 8231TIP3   OH224628   1.210   5.610   3.203  0.4536 -0.3818  0.4591
 8231TIP3    H124629   1.253   5.609   3.288  0.0127  0.7088  0.7038
 8231TIP3    H224630   1.140   5.675   3.212  1.1337  0.6051 -1.0894
 8232TIP3   OH224631   4.633   0.300   6.586 -0.2222 -0.4042  0.2594
 8232TIP3    H124632   4.661   0.383   6.547 -2.8156  0.7602  0.7749
 8232TIP3    H224633   4.601   0.248   6.513 -3.4416  1.1050  0.5081
 8233TIP3   OH224634   1.811   5.969   5.485 -0.8564  0.2340 -0.4485
 8233TIP3    H124635   1.904   5.952   5.504 -0.7413  1.4243  0.0709
 8233TIP3    H224636   1.792   5.914   5.409  0.1526 -0.3835 -0.2619
 8234TIP3   OH224637   1.191   5.466   5.154  0.0618 -0.5582  0.4809
 8234TIP3    H124638   1.111   5.515   5.171  0.8064  0.3728  1.4080
 8234TIP3    H224639   1.163   5.391   5.102 -1.2543  0.3056 -0.0864
 8235TIP3   OH224640   0.829   6.869   3.000 -0.2400 -0.3239 -0.0367
 8235TIP3    H124641   0.807   6.911   2.917  1.3712 -1.6815 -1.1837
 8235TIP3    H224642   0.774   6.791   3.004  0.9893 -1.2450 -0.7221
 8236TIP3   OH224643   4.613   3.866   5.446  0.3763  0.1001 -0.4145
 8236TIP3    H124644   4.556   3.940   5.465  1.1278  0.4117  0.6899
 8236TIP3    H224645   4.623   3.821   5.530  0.7365 -0.6680 -0.8618
 8237TIP3   OH224646   3.656   7.027   4.219  0.2103  0.2231  0.2749
 8237TIP3    H124647   3.603   6.963   4.173 -0.9404 -0.5665  2.5949
 8237TIP3    H224648   3.599   7.102   4.232  0.5879  0.5235  0.2244
 8238TIP3   OH224649   1.325   7.678   5.291  0.1682  0.6349  0.5062
 8238TIP3    H124650   1.397   7.652   5.234  0.6792  0.2607  1.3165
 8238TIP3    H224651   1.258   7.712   5.231  1.0099  0.9729 -0.2505
 8239TIP3   OH224652   2.880   6.909   3.683 -0.2181 -0.4242  0.2295
 8239TIP3    H124653   2.854   6.945   3.598  0.6115 -0.6738 -0.1389
 8239TIP3    H224654   2.815   6.841   3.702  0.0282 -0.8843 -0.5652
 8240TIP3   OH224655   3.285   7.247   4.752 -0.3644  0.2644 -0.0816
 8240TIP3    H124656   3.291   7.187   4.677  0.0895  0.2703 -0.0544
 8240TIP3    H224657   3.293   7.191   4.829  1.1457  0.4603 -0.0695
 8241TIP3   OH224658   1.918   6.017   4.908  0.3001 -0.6555 -0.1576
 8241TIP3    H124659   1.889   6.100   4.871  0.3253 -0.2704  0.6727
 8241TIP3    H224660   1.965   6.041   4.988  5.0363 -1.0896 -2.6622
 8242TIP3   OH224661   2.420   5.274   5.177  0.8308  0.3549 -0.2227
 8242TIP3    H124662   2.367   5.295   5.254  1.1226  0.0940  0.0513
 8242TIP3    H224663   2.496   5.227   5.212 -0.5180 -2.4690 -0.9416
 8243TIP3   OH224664   3.640   0.423   3.385 -0.3397 -0.6438  0.1946
 8243TIP3    H124665   3.619   0.489   3.318 -1.2560 -2.3440 -1.2375
 8243TIP3    H224666   3.657   0.474   3.464 -0.6393  1.3375 -0.9788
 8244TIP3   OH224667   1.591   5.794   5.893 -0.3076  0.9644  0.4581
 8244TIP3    H124668   1.636   5.714   5.922 -0.1930  1.2484  1.0635
 8244TIP3    H224669   1.514   5.762   5.846 -0.1743  0.4928  0.5591
 8245TIP3   OH224670   2.417   7.665   4.584 -0.3077 -0.0562 -0.8278
 8245TIP3    H124671   2.456   7.687   4.668 -0.2313  2.6343 -1.5234
 8245TIP3    H224672   2.488   7.624   4.535  1.4574  3.6935 -1.6343
 8246TIP3   OH224673   6.513   1.379   0.222 -0.2130  0.0574  0.2413
 8246TIP3    H124674   6.439   1.440   0.214 -0.3030 -0.1941 -1.0145
 8246TIP3    H224675   6.583   1.431   0.261 -0.2181  1.0295 -1.0079
 8247TIP3   OH224676   1.651   5.874   3.923  0.1047 -0.0520 -0.0701
 8247TIP3    H124677   1.592   5.808   3.886  0.2896  1.1796 -2.6525
 8247TIP3    H224678   1.727   5.825   3.954  0.1881 -1.0835 -1.8671
 8248TIP3   OH224679   2.893   4.428   5.276 -0.6155 -0.4129 -0.1288
 8248TIP3    H124680   2.938   4.405   5.195 -0.4634  0.1976 -0.2262
 8248TIP3    H224681   2.813   4.376   5.276  0.5501 -2.2558  0.5212
 8249TIP3   OH224682   1.534   7.412   5.283  0.4051  0.0264 -0.1087
 8249TIP3    H124683   1.475   7.347   5.321  1.5875 -0.7836  0.3760
 8249TIP3    H224684   1.491   7.439   5.202 -0.2885 -1.0809 -0.1173
 8250TIP3   OH224685   2.956   7.099   4.840 -0.9004 -0.3711 -0.0604
 8250TIP3    H124686   3.040   7.057   4.858 -1.4769 -0.9167  1.3814
 8250TIP3    H224687   2.961   7.184   4.884 -1.1894 -0.4991  0.2229
 8251TIP3   OH224688   1.500   5.439   5.841  0.2077  0.1957 -0.1873
 8251TIP3    H124689   1.416   5.405   5.811  0.0598  1.1016 -0.8395
 8251TIP3    H224690   1.566   5.386   5.796 -0.0144  1.4448 -2.0458
 8252TIP3   OH224691   1.032   2.519   4.838 -0.1644  0.5367 -0.3289
 8252TIP3    H124692   0.991   2.446   4.885  0.9694 -0.5834 -1.0365
 8252TIP3    H224693   0.958   2.569   4.803 -0.9512 -0.9862 -0.8918
 8253TIP3   OH224694   6.682   0.770   2.785 -0.2806 -0.0338 -0.4356
 8253TIP3    H124695   6.677   0.787   2.879  0.0857  0.6903 -0.5428
 8253TIP3    H224696   6.590   0.769   2.756 -0.3302  1.4266 -0.3540
 8254TIP3   OH224697   0.199   5.744   6.612  0.0006  0.0853 -0.4716
 8254TIP3    H124698   0.256   5.680   6.569  1.2441  0.3534  0.7056
 8254TIP3    H224699   0.129   5.692   6.651 -0.4592 -0.2763 -1.7695
 8255TIP3   OH224700   2.612   6.925   4.086 -0.8855 -0.1388  0.0343
 8255TIP3    H124701   2.534   6.905   4.035 -1.1174  1.2898 -0.1995
 8255TIP3    H224702   2.597   7.013   4.119  0.4122 -0.0408  0.3994
 8256TIP3   OH224703   2.152   7.217   4.987  0.2859 -0.2975 -0.1048
 8256TIP3    H124704   2.070   7.254   5.022 -0.1696 -1.0594 -0.3551
 8256TIP3    H224705   2.181   7.156   5.055  0.6678  0.0020 -0.0002
 8257TIP3   OH224706   0.432   7.289   2.100  0.5660  0.0075 -0.2987
 8257TIP3    H124707   0.502   7.268   2.038  1.0804  0.3487  0.1584
 8257TIP3    H224708   0.464   7.367   2.147  0.0027  0.0016  0.0984
 8258TIP3   OH224709   2.020   4.248   5.527 -0.6128  0.0660  0.4115
 8258TIP3    H124710   1.971   4.299   5.592  0.7102  1.1019  0.6003
 8258TIP3    H224711   1.952   4.212   5.470 -1.5775  2.1129  0.2087
 8259TIP3   OH224712   0.930   5.556   5.045  0.1319 -0.0062 -0.3122
 8259TIP3    H124713   0.884   5.473   5.032  0.9836 -0.4292 -0.6627
 8259TIP3    H224714   0.902   5.611   4.973 -1.1488  0.3324  0.4379
 8260TIP3   OH224715   2.549   5.025   2.783 -0.3925 -0.2907  0.3967
 8260TIP3    H124716   2.610   4.968   2.830  0.2352  0.0816  0.0310
 8260TIP3    H224717   2.464   5.004   2.821  0.1338  0.1885  1.8740
 8261TIP3   OH224718   2.210   5.277   5.368  0.5547  0.0115 -0.4776
 8261TIP3    H124719   2.137   5.220   5.345  1.0979 -0.2765 -1.5020
 8261TIP3    H224720   2.173   5.339   5.432 -0.4248 -0.4984 -0.5443
 8262TIP3   OH224721   2.879   5.394   5.873 -0.2403 -0.4644  0.0960
 8262TIP3    H124722   2.803   5.422   5.822  1.2777 -0.6039 -2.3376
 8262TIP3    H224723   2.877   5.298   5.869 -0.2146 -0.4819  0.4613
 8263TIP3   OH224724   3.340   5.517   3.846  0.2910 -0.0039 -0.3630
 8263TIP3    H124725   3.408   5.584   3.845 -0.2621  0.5704 -2.5655
 8263TIP3    H224726   3.369   5.454   3.912  1.1592  2.0286  1.2214
 8264TIP3   OH224727   0.391   6.224   1.095  0.1650  0.1733 -0.0729
 8264TIP3    H124728   0.397   6.133   1.067 -0.5851 -0.3813  1.5409
 8264TIP3    H224729   0.464   6.237   1.155 -0.5701  0.2297  0.8139
 8265TIP3   OH224730   0.660   4.478   4.564  0.1208 -0.0839  0.6498
 8265TIP3    H124731   0.715   4.413   4.608 -2.6201 -1.4048  2.3129
 8265TIP3    H224732   0.688   4.562   4.601  2.5820 -0.4399 -0.3075
 8266TIP3   OH224733   2.904   4.579   6.752 -0.4967  0.6684 -0.0249
 8266TIP3    H124734   2.878   4.642   6.685  0.4901  0.3898 -0.6843
 8266TIP3    H224735   2.891   4.494   6.712 -3.2245  0.3645  1.3835
 8267TIP3   OH224736   0.208   5.073   5.561 -0.6820  0.3022 -0.1327
 8267TIP3    H124737   0.284   5.030   5.602 -0.0467 -1.0938 -2.6759
 8267TIP3    H224738   0.236   5.164   5.550 -0.2126  0.3005  0.9229
 8268TIP3   OH224739   1.224   5.949   5.131 -0.5596  0.2699 -0.0984
 8268TIP3    H124740   1.137   5.923   5.161 -0.5865  0.0153 -0.3980
 8268TIP3    H224741   1.276   5.868   5.136 -0.3810  0.3860 -0.0668
 8269TIP3   OH224742   0.037   6.040   5.610 -0.4583  0.5121 -0.0521
 8269TIP3    H124743   0.078   6.013   5.692 -0.7139  0.8936  0.2069
 8269TIP3    H224744   0.104   6.093   5.567 -0.6244  1.0332  0.3142
 8270TIP3   OH224745   1.403   5.559   4.993  0.0242 -0.4513 -0.5814
 8270TIP3    H124746   1.324   5.530   5.038 -0.3833  1.5738  0.0564
 8270TIP3    H224747   1.442   5.479   4.959 -1.2892 -1.6841  0.7468
 8271TIP3   OH224748   0.748   7.383   2.657  0.2544  0.4535 -0.3063
 8271TIP3    H124749   0.722   7.383   2.749 -1.0288 -1.5341 -0.6252
 8271TIP3    H224750   0.700   7.457   2.618 -2.0901 -0.8902 -0.0927
 8272TIP3   OH224751   0.939   6.499   6.490  0.1891  0.3112 -0.1033
 8272TIP3    H124752   0.868   6.474   6.549  1.3939 -2.1114  0.3827
 8272TIP3    H224753   1.017   6.497   6.544  0.9040  1.0903 -1.0778
 8273TIP3   OH224754   1.677   7.534   3.641 -0.6704  0.0600 -0.2166
 8273TIP3    H124755   1.760   7.492   3.664 -0.7813  0.3962  0.8010
 8273TIP3    H224756   1.641   7.478   3.572  0.3130 -0.1837 -0.5533
 8274TIP3   OH224757   1.365   7.322   0.605 -0.0711 -0.3429  0.8798
 8274TIP3    H124758   1.287   7.357   0.562 -0.0469 -2.4318 -0.9344
 8274TIP3    H224759   1.331   7.257   0.667  0.2028 -1.2426  0.0996
 8275TIP3   OH224760   1.582   5.299   5.628  0.7796  0.3767 -0.2991
 8275TIP3    H124761   1.497   5.319   5.591  0.6579  0.0133 -0.2143
 8275TIP3    H224762   1.644   5.316   5.557  0.5414 -0.3873 -0.6862
 8276TIP3   OH224763   4.611   0.506   3.865 -0.4540 -0.3189  0.7255
 8276TIP3    H124764   4.524   0.470   3.846 -0.2831  0.1563 -1.0117
 8276TIP3    H224765   4.593   0.580   3.923 -1.3259  0.4366 -0.4823
 8277TIP3   OH224766   0.778   7.894   4.758 -0.0230 -0.0270  0.5961
 8277TIP3    H124767   0.827   7.812   4.759  1.3155  0.7397  0.0404
 8277TIP3    H224768   0.846   7.962   4.768 -1.0258  1.0354  0.2684
 8278TIP3   OH224769   1.246   4.661   2.975  0.4447  0.0843 -0.3269
 8278TIP3    H124770   1.246   4.732   3.040 -1.1616  0.6029 -0.8711
 8278TIP3    H224771   1.199   4.590   3.017  0.1217  0.1287 -0.6144
 8279TIP3   OH224772   2.845   7.758   4.959 -0.0563  0.1087 -0.4138
 8279TIP3    H124773   2.778   7.819   4.989 -0.0716  0.0859 -0.4026
 8279TIP3    H224774   2.875   7.714   5.039  0.9793  1.1319 -0.2193
 8280TIP3   OH224775   1.403   6.608   3.372 -0.4655 -0.4126 -0.0142
 8280TIP3    H124776   1.386   6.559   3.291 -1.4500  1.0822 -0.7270
 8280TIP3    H224777   1.317   6.621   3.410 -0.3474  1.9303 -0.5176
 8281TIP3   OH224778   4.758   3.847   5.924  0.2470 -0.3337  0.4784
 8281TIP3    H124779   4.733   3.844   6.016 -1.4734  2.2820  0.1408
 8281TIP3    H224780   4.791   3.936   5.911 -0.7004 -0.2829 -1.7258
 8282TIP3   OH224781   0.899   6.002   5.692 -0.7110 -0.3805  0.0262
 8282TIP3    H124782   0.918   6.047   5.775  1.4246 -2.1512  0.5439
 8282TIP3    H224783   0.881   6.073   5.630  1.7052  1.1943  1.0396
 8283TIP3   OH224784   2.843   7.103   5.666 -0.1462 -0.1338 -0.2118
 8283TIP3    H124785   2.840   7.053   5.584 -0.0130 -1.3524  0.5210
 8283TIP3    H224786   2.756   7.143   5.673 -0.9749 -1.9834  0.2567
 8284TIP3   OH224787   4.404   6.301   5.403  0.0408  0.5658  0.2411
 8284TIP3    H124788   4.392   6.207   5.417  2.1558  0.2118 -0.2161
 8284TIP3    H224789   4.476   6.308   5.341 -0.9163  2.4764 -0.7106
 8285TIP3   OH224790   4.068   5.189   3.097 -0.4953 -0.6157  0.0122
 8285TIP3    H124791   4.010   5.114   3.087 -0.1999 -0.7672 -0.6470
 8285TIP3    H224792   4.120   5.189   3.016  1.4728 -1.3990  1.2347
 8286TIP3   OH224793   5.358   0.324   4.379  0.4224  0.1814 -0.2448
 8286TIP3    H124794   5.367   0.340   4.473  1.0331  1.2287 -0.4736
 8286TIP3    H224795   5.408   0.245   4.363 -0.5538 -0.5984  0.4866
 8287TIP3   OH224796   0.436   7.440   4.641  0.1102  0.1133 -0.0199
 8287TIP3    H124797   0.351   7.417   4.606 -0.3846 -0.6100  1.6076
 8287TIP3    H224798   0.452   7.529   4.609 -1.0448  0.0913 -0.6886
 8288TIP3   OH224799   3.104   5.720   4.993  0.3706 -0.1973  0.1064
 8288TIP3    H124800   3.102   5.755   4.904 -1.8262  1.1120  0.6129
 8288TIP3    H224801   3.017   5.681   5.005  0.7153 -0.5310  1.5830
 8289TIP3   OH224802   2.074   4.080   6.072 -0.0399  0.4457  0.3723
 8289TIP3    H124803   2.094   4.063   5.980  1.1305 -0.1137  0.7219
 8289TIP3    H224804   1.978   4.080   6.076 -0.1067 -1.9226 -0.4004
 8290TIP3   OH224805   1.988   6.559   4.891  0.0360  0.4916 -0.0420
 8290TIP3    H124806   1.977   6.637   4.835  1.1375  0.2177 -0.6491
 8290TIP3    H224807   1.984   6.593   4.980 -0.3053  1.1312 -0.2934
 8291TIP3   OH224808   4.709   0.609   5.640  0.1658 -0.6832  0.3723
 8291TIP3    H124809   4.738   0.622   5.550  1.3764 -1.2431  0.6720
 8291TIP3    H224810   4.663   0.690   5.662  1.3932  0.1860 -0.1787
 8292TIP3   OH224811   2.610   6.763   4.562  0.4544  0.2087  0.0758
 8292TIP3    H124812   2.650   6.795   4.643  0.7586 -0.2213  0.0953
 8292TIP3    H224813   2.619   6.668   4.566  1.5815  0.2651 -1.0529
 8293TIP3   OH224814   2.479   5.559   5.473  0.5644 -0.1043 -0.3345
 8293TIP3    H124815   2.434   5.521   5.397 -3.0576  0.3262  1.4637
 8293TIP3    H224816   2.455   5.501   5.546  0.5539  1.7817  1.1999
 8294TIP3   OH224817   2.221   5.877   5.697 -0.2503  0.2840  0.0975
 8294TIP3    H124818   2.199   5.955   5.747 -2.1360 -0.9291  1.1787
 8294TIP3    H224819   2.234   5.809   5.762 -1.7297 -1.0738 -0.9895
 8295TIP3   OH224820   2.885   6.151   5.286  0.2091  0.2952  0.4194
 8295TIP3    H124821   2.862   6.060   5.268  1.4330  0.3039 -1.3986
 8295TIP3    H224822   2.823   6.202   5.234  0.2997  0.4692  0.4826
 8296TIP3   OH224823   2.332   4.733   5.000  0.0169  0.2947  0.4173
 8296TIP3    H124824   2.385   4.681   4.940 -0.1526 -0.9440  1.3286
 8296TIP3    H224825   2.389   4.805   5.026  0.5880  0.0279 -0.0778
 8297TIP3   OH224826   2.837   6.254   6.739 -0.3203 -0.1647  0.4534
 8297TIP3    H124827   2.796   6.183   6.789  0.3898  0.3459  1.7695
 8297TIP3    H224828   2.927   6.224   6.724 -0.7163 -0.6136 -1.1203
 8298TIP3   OH224829   0.604   6.298   6.167  0.4492 -0.2911  0.4006
 8298TIP3    H124830   0.650   6.219   6.196 -1.2380 -2.2500 -2.0922
 8298TIP3    H224831   0.648   6.324   6.086 -1.7094 -1.2284 -1.1184
 8299TIP3   OH224832   1.138   5.063   5.794  0.3766  0.1548  0.3854
 8299TIP3    H124833   1.196   5.003   5.747  1.0401 -0.5506  2.0438
 8299TIP3    H224834   1.157   5.149   5.758 -0.0498 -0.5259 -1.5028
 8300TIP3   OH224835   2.968   5.566   5.539  0.1562  0.2205 -0.1865
 8300TIP3    H124836   3.021   5.640   5.512  0.2213  0.2494  0.0152
 8300TIP3    H224837   2.899   5.604   5.593 -0.6719  0.2996 -1.2847
 8301TIP3   OH224838   2.653   4.928   4.817 -0.2596 -0.9505  0.1571
 8301TIP3    H124839   2.737   4.973   4.808 -0.5842 -0.5128 -0.7789
 8301TIP3    H224840   2.605   4.951   4.737 -2.9549  2.3387  2.5589
 8302TIP3   OH224841   4.252   0.063   3.210 -0.3140  0.1892  0.7945
 8302TIP3    H124842   4.317   0.002   3.244  0.9891  1.1249 -0.0009
 8302TIP3    H224843   4.298   0.147   3.205 -1.6262  0.8935  0.3728
 8303TIP3   OH224844   0.163   5.601   5.622 -0.8260 -0.2897  0.1704
 8303TIP3    H124845   0.250   5.639   5.613 -0.6380 -0.7525  0.0272
 8303TIP3    H224846   0.114   5.664   5.675 -0.6055  0.2985 -0.3253
 8304TIP3   OH224847   2.073   6.918   4.160 -0.4540 -0.5669  0.2069
 8304TIP3    H124848   2.018   6.985   4.202 -0.6663 -0.0431 -0.8714
 8304TIP3    H224849   2.031   6.835   4.181  0.2374 -0.4369  2.2094
 8305TIP3   OH224850   2.654   7.617   6.132  0.2770 -0.7476  0.2899
 8305TIP3    H124851   2.563   7.644   6.147 -0.0058 -1.4695 -0.1275
 8305TIP3    H224852   2.700   7.647   6.210 -0.3584 -0.5649  0.6040
 8306TIP3   OH224853   4.543   6.137   4.366  0.4765 -0.4961  0.6998
 8306TIP3    H124854   4.493   6.199   4.419  0.5818  0.5335 -0.3803
 8306TIP3    H224855   4.494   6.055   4.373 -1.6939  0.6232 -0.7605
 8307TIP3   OH224856   0.306   5.505   4.518 -0.1760 -0.5113 -0.0340
 8307TIP3    H124857   0.389   5.461   4.498  0.3578 -0.0592  1.1443
 8307TIP3    H224858   0.239   5.441   4.494  0.5178 -1.0003 -0.7089
 8308TIP3   OH224859   2.209   6.954   2.752 -0.0582  0.0044  0.7331
 8308TIP3    H124860   2.230   6.896   2.678  0.3931  1.4702 -0.3130
 8308TIP3    H224861   2.270   6.927   2.821 -0.2593 -1.1596  0.4626
 8309TIP3   OH224862   4.729   4.182   3.670 -0.4170 -0.2522 -0.1513
 8309TIP3    H124863   4.642   4.164   3.706  1.1752 -2.0031  2.9300
 8309TIP3    H224864   4.786   4.188   3.746  2.5801 -1.3111 -2.2307
 8310TIP3   OH224865   2.958   5.552   3.185  0.5347 -0.1798 -0.4384
 8310TIP3    H124866   2.970   5.471   3.135 -0.8278  1.1303 -3.0380
 8310TIP3    H224867   2.887   5.531   3.246 -0.2549 -0.8096 -1.5251
 8311TIP3   OH224868   1.603   7.013   6.699  0.2793 -0.5751 -0.4068
 8311TIP3    H124869   1.606   6.918   6.711 -0.8601 -0.3725  1.6289
 8311TIP3    H224870   1.694   7.041   6.708  0.5938 -1.4286 -0.8088
 8312TIP3   OH224871   3.487   4.513   5.157 -0.2266  0.1868 -0.0869
 8312TIP3    H124872   3.490   4.608   5.158 -1.4940  0.2594  1.7146
 8312TIP3    H224873   3.552   4.486   5.222  1.0837 -0.2462 -1.5486
 8313TIP3   OH224874   4.759   5.621   4.893  0.1971  0.4123  0.4812
 8313TIP3    H124875   4.756   5.533   4.930 -0.3025  0.6474  1.0170
 8313TIP3    H224876   4.840   5.659   4.928  1.0087 -0.2311 -0.6816
 8314TIP3   OH224877   1.458   6.921   5.758 -0.1759  0.3951  0.6464
 8314TIP3    H124878   1.362   6.926   5.761 -0.1805  0.8953 -0.1085
 8314TIP3    H224879   1.478   6.909   5.666  0.6137  3.5944  0.3316
 8315TIP3   OH224880   1.054   4.583   5.365  0.4307 -0.0283 -0.0617
 8315TIP3    H124881   0.962   4.593   5.340  0.2176 -0.1967  0.6604
 8315TIP3    H224882   1.078   4.669   5.399  0.2045 -0.3253  0.8538
 8316TIP3   OH224883   1.518   4.980   6.007 -0.3679 -0.4264 -0.0017
 8316TIP3    H124884   1.536   5.020   5.922 -1.3829 -0.0457 -0.0363
 8316TIP3    H224885   1.601   4.937   6.031  0.7415  1.6304  0.0072
 8317TIP3   OH224886   4.622   4.395   4.717 -0.1166 -0.0535  0.0659
 8317TIP3    H124887   4.661   4.309   4.701 -0.3190  0.2530 -2.4170
 8317TIP3    H224888   4.691   4.457   4.692  0.0298  0.5053  1.8449
 8318TIP3   OH224889   3.823   6.136   3.806 -0.1374  0.3454 -0.0205
 8318TIP3    H124890   3.761   6.114   3.736  1.7177  0.1432 -1.6534
 8318TIP3    H224891   3.793   6.220   3.840 -2.8128 -0.9700  1.0153
 8319TIP3   OH224892   2.657   6.083   3.712 -0.1674 -0.2042 -0.2819
 8319TIP3    H124893   2.612   6.132   3.643 -1.0604 -3.2195 -1.9442
 8319TIP3    H224894   2.749   6.084   3.686 -0.3236 -0.2627 -0.8579
 8320TIP3   OH224895   4.058   5.372   4.216 -0.1473 -0.2141  0.7477
 8320TIP3    H124896   4.115   5.364   4.140 -1.4435  0.0088 -0.2684
 8320TIP3    H224897   4.067   5.288   4.262  0.9851 -0.1773  0.6034
 8321TIP3   OH224898   3.774   6.972   4.600 -0.1989  0.2213 -0.0482
 8321TIP3    H124899   3.740   6.898   4.651 -0.2674  0.9109  0.9201
 8321TIP3    H224900   3.805   6.932   4.519 -1.7827 -0.6382 -0.2407
 8322TIP3   OH224901   0.474   6.516   5.226 -0.5809 -0.5327 -0.1740
 8322TIP3    H124902   0.485   6.588   5.163  1.2058 -0.4274  0.2292
 8322TIP3    H224903   0.563   6.482   5.240 -1.0485 -1.0604  1.7029
 8323TIP3   OH224904   3.481   2.938   5.429  0.0662 -0.2278 -0.0726
 8323TIP3    H124905   3.488   2.844   5.448 -1.0116 -0.4190 -0.6018
 8323TIP3    H224906   3.561   2.958   5.381  1.0267 -0.5458  1.3588
 8324TIP3   OH224907   2.893   6.541   4.759  0.4296 -0.3644 -0.5046
 8324TIP3    H124908   2.811   6.506   4.794 -1.6016  2.5392 -2.1162
 8324TIP3    H224909   2.890   6.521   4.665  2.4805 -1.8829 -0.2802
 8325TIP3   OH224910   8.192   3.768   3.740  0.2584 -0.0096  0.2245
 8325TIP3    H124911   8.123   3.702   3.747  0.4681 -0.2466  0.0661
 8325TIP3    H224912   8.271   3.723   3.772  0.8439 -0.5040 -1.8415
 8326TIP3   OH224913   3.396   5.861   5.341 -0.3158 -0.3022 -0.7632
 8326TIP3    H124914   3.463   5.883   5.277 -0.2859 -0.3596 -0.7515
 8326TIP3    H224915   3.378   5.943   5.387  0.4632 -0.4963 -0.0922
 8327TIP3   OH224916   3.278   3.537   2.906  0.3197 -0.4813  0.3393
 8327TIP3    H124917   3.276   3.538   2.810  0.4090  1.9883  0.3235
 8327TIP3    H224918   3.371   3.530   2.928  0.2545 -1.7192  0.2768
 8328TIP3   OH224919   1.259   6.705   4.766 -0.1253 -0.0780 -0.1101
 8328TIP3    H124920   1.175   6.672   4.735 -0.5380  1.8007 -1.1136
 8328TIP3    H224921   1.239   6.743   4.852 -0.0126 -0.8546  0.2618
 8329TIP3   OH224922   1.874   7.442   3.117 -0.0260  0.6967 -0.2606
 8329TIP3    H124923   1.783   7.430   3.145  0.3236  0.5803  0.8481
 8329TIP3    H224924   1.906   7.354   3.101  0.2174  0.6595  0.4132
 8330TIP3   OH224925   1.929   4.561   5.064 -0.3125  0.4257 -0.6314
 8330TIP3    H124926   2.015   4.579   5.101 -1.4595  5.2677  0.1037
 8330TIP3    H224927   1.936   4.589   4.972 -0.1830 -2.5072 -1.5724
 8331TIP3   OH224928   1.762   7.176   5.085 -0.5202  0.3451  0.4067
 8331TIP3    H124929   1.776   7.243   5.018  1.2435  0.9567  1.3392
 8331TIP3    H224930   1.673   7.190   5.115 -0.5885  1.4663 -0.2917
 8332TIP3   OH224931   1.289   7.013   4.774 -0.5062  0.2766 -0.1845
 8332TIP3    H124932   1.370   6.970   4.801  0.5189  3.0704  1.3990
 8332TIP3    H224933   1.313   7.063   4.696 -0.3697  2.0521  0.9685
 8333TIP3   OH224934   3.589   5.541   4.103  0.4574  0.4666  0.3938
 8333TIP3    H124935   3.607   5.556   4.196  0.7547  2.2121  0.0630
 8333TIP3    H224936   3.532   5.613   4.077 -1.3657 -1.1789 -0.2806
 8334TIP3   OH224937   2.389   6.431   5.936  0.0217 -0.3648  0.3904
 8334TIP3    H124938   2.434   6.471   6.011  0.4570 -0.0931 -0.0169
 8334TIP3    H224939   2.410   6.338   5.942 -0.1799 -0.3875  0.7693
 8335TIP3   OH224940   3.293   4.572   4.961  0.0530  0.1106  0.4428
 8335TIP3    H124941   3.359   4.528   5.014  0.4294 -0.4207 -0.4664
 8335TIP3    H224942   3.285   4.519   4.882 -0.5774  0.8411  0.0013
 8336TIP3   OH224943   2.277   7.666   5.090 -0.0307 -0.4980  0.1297
 8336TIP3    H124944   2.298   7.575   5.110 -0.0927 -0.3421  0.9561
 8336TIP3    H224945   2.272   7.708   5.176  1.8396  0.7057 -0.3266
 8337TIP3   OH224946   1.998   7.480   3.407  0.1594  0.3120 -0.0853
 8337TIP3    H124947   1.965   7.426   3.335 -0.9761  1.6297 -0.5768
 8337TIP3    H224948   2.092   7.488   3.390 -0.2405  1.3834 -1.9543
 8338TIP3   OH224949   5.511   1.070   5.292 -0.4538 -0.0875  0.9600
 8338TIP3    H124950   5.581   1.006   5.289 -0.4629 -0.1494  1.8595
 8338TIP3    H224951   5.433   1.020   5.318 -0.8892 -0.0704 -0.2965
 8339TIP3   OH224952   1.973   6.142   4.542 -0.0353  0.3725  0.2581
 8339TIP3    H124953   1.921   6.062   4.554  1.3887 -0.7724 -0.8233
 8339TIP3    H224954   1.985   6.147   4.447  1.7927  0.5987  0.4849
 8340TIP3   OH224955   3.153   6.869   3.160 -0.0907  0.0902  0.2723
 8340TIP3    H124956   3.082   6.818   3.199 -0.0144 -0.6026 -0.4778
 8340TIP3    H224957   3.230   6.847   3.212 -0.2546  0.1920  0.5578
 8341TIP3   OH224958   3.101   0.530   2.362  0.7209  0.5777 -0.3674
 8341TIP3    H124959   3.057   0.550   2.280  3.7180 -0.0938 -2.2388
 8341TIP3    H224960   3.068   0.443   2.386  0.9201  0.1213 -1.6758
 8342TIP3   OH224961   3.740   5.044   5.102 -0.4231  0.0456 -0.2883
 8342TIP3    H124962   3.681   4.969   5.093 -0.1168 -0.3071  0.6096
 8342TIP3    H224963   3.793   5.043   5.022 -0.7812 -0.3711 -0.5232
 8343TIP3   OH224964   0.743   5.372   4.955 -0.4634 -0.3764  0.0339
 8343TIP3    H124965   0.688   5.442   4.989 -0.8680  0.3561 -2.0598
 8343TIP3    H224966   0.695   5.291   4.973 -2.3723  0.2617 -1.9356
 8344TIP3   OH224967   2.334   5.409   6.315 -0.4630  0.3443  0.3171
 8344TIP3    H124968   2.396   5.459   6.262  0.2075  0.5461  1.2798
 8344TIP3    H224969   2.257   5.399   6.259  1.0085 -1.2808 -1.5013
 8345TIP3   OH224970   3.485   7.170   5.271 -0.9310 -0.0164  0.3610
 8345TIP3    H124971   3.497   7.079   5.298 -0.3118  0.3045  1.1623
 8345TIP3    H224972   3.395   7.173   5.237 -0.6687 -1.1172 -0.4671
 8346TIP3   OH224973   5.189   7.469   4.168  0.1442  0.0256  0.0339
 8346TIP3    H124974   5.233   7.393   4.128  0.3445 -0.4362  1.1041
 8346TIP3    H224975   5.103   7.471   4.128  0.1570 -0.7462 -0.0421
 8347TIP3   OH224976   0.683   4.242   5.910  0.4090 -0.2479  0.5154
 8347TIP3    H124977   0.693   4.326   5.865 -0.5348 -0.5766 -0.3269
 8347TIP3    H224978   0.769   4.201   5.905  0.9937  0.8792  1.3483
 8348TIP3   OH224979   8.313   2.341   4.945 -0.3486 -0.6075 -0.1636
 8348TIP3    H124980   8.238   2.309   4.995  1.0233 -2.8259  0.5630
 8348TIP3    H224981   8.318   2.284   4.869 -0.5199  0.7471 -1.2190
 8349TIP3   OH224982   1.017   6.479   5.539 -0.3537  0.2715  0.8844
 8349TIP3    H124983   0.971   6.478   5.623 -0.6818 -0.1442  0.7057
 8349TIP3    H224984   1.106   6.452   5.560 -0.4683  0.0416  1.0855
 8350TIP3   OH224985   2.385   3.936   5.944 -0.4878  0.3499 -0.1456
 8350TIP3    H124986   2.358   3.881   5.871 -0.5893  0.3224 -0.0881
 8350TIP3    H224987   2.333   3.905   6.018  0.9836 -0.8855  0.3982
 8351TIP3   OH224988   3.878   4.746   4.212  0.0267  0.2902  0.1152
 8351TIP3    H124989   3.863   4.715   4.301  2.2478 -0.0564  0.4013
 8351TIP3    H224990   3.856   4.839   4.215 -1.4068 -0.0597  0.6276
 8352TIP3   OH224991   0.254   6.803   4.341  0.5069 -0.2140  0.1660
 8352TIP3    H124992   0.284   6.743   4.409 -1.0212 -0.7206  0.4163
 8352TIP3    H224993   0.187   6.754   4.293  0.3069  0.7641 -0.5817
 8353TIP3   OH224994   7.697   4.332   4.191  0.1845 -0.2572  0.2754
 8353TIP3    H124995   7.790   4.352   4.189 -0.0009  0.7457  1.3960
 8353TIP3    H224996   7.653   4.417   4.194 -0.7771 -0.7154 -0.3177
 8354TIP3   OH224997   1.271   5.109   4.163  0.3545  0.1306 -0.0554
 8354TIP3    H124998   1.366   5.107   4.154  0.4026 -1.5367  0.7315
 8354TIP3    H224999   1.244   5.017   4.166 -0.8808  0.5075  3.7543
 8355TIP3   OH225000   0.433   7.271   3.944 -0.0201 -0.1336  0.2821
 8355TIP3    H125001   0.469   7.358   3.930  0.9402 -0.5369  0.2372
 8355TIP3    H225002   0.338   7.285   3.946  0.2092  1.2889  2.8982
 8356TIP3   OH225003   5.326   7.685   4.357  0.1597  0.2012  0.2878
 8356TIP3    H125004   5.330   7.612   4.420 -2.2706  0.5915  0.9402
 8356TIP3    H225005   5.320   7.642   4.271 -2.0051 -0.4102  0.7142
 8357TIP3   OH225006   0.471   2.018   0.581 -0.5581  0.2799  0.0338
 8357TIP3    H125007   0.539   1.968   0.535 -0.1920 -0.2983  1.1673
 8357TIP3    H225008   0.515   2.099   0.608 -0.5338  0.2487  0.0888
 8358TIP3   OH225009   2.889   6.902   5.436 -0.1096  0.1975 -0.0370
 8358TIP3    H125010   2.983   6.895   5.449 -0.2231  1.7679  1.7519
 8358TIP3    H225011   2.854   6.820   5.471  0.5470 -0.2534 -0.4196
 8359TIP3   OH225012   1.484   7.141   5.118 -0.7333 -0.9124  0.1844
 8359TIP3    H125013   1.522   7.054   5.108 -0.6925 -0.6503 -2.1955
 8359TIP3    H225014   1.403   7.139   5.066 -0.5760  0.5643 -0.1582
 8360TIP3   OH225015   2.155   5.563   4.896 -0.1772  0.5294 -0.1782
 8360TIP3    H125016   2.170   5.656   4.912  0.5183  0.7350 -1.8695
 8360TIP3    H225017   2.243   5.524   4.894 -0.4760 -0.1988  0.7139
 8361TIP3   OH225018   1.805   5.921   4.522 -0.0035  0.3550  0.0632
 8361TIP3    H125019   1.771   5.831   4.520  0.3490  0.2297 -0.4967
 8361TIP3    H225020   1.748   5.969   4.462  2.2495 -0.3923 -2.8042
 8362TIP3   OH225021   4.463   7.270   4.054  0.2202  0.5004 -0.4857
 8362TIP3    H125022   4.456   7.181   4.018  0.6208  0.2751 -0.0113
 8362TIP3    H225023   4.401   7.322   4.002  0.0219 -0.0457 -0.7982
 8363TIP3   OH225024   2.527   5.704   5.090 -0.4365 -0.5013  0.4328
 8363TIP3    H125025   2.471   5.680   5.164 -0.6455 -1.7025 -0.1133
 8363TIP3    H225026   2.510   5.638   5.023  1.2061 -0.5627  0.0356
 8364TIP3   OH225027   4.135   3.328   2.433  0.2014  0.0193 -0.8948
 8364TIP3    H125028   4.191   3.260   2.397  1.1261  0.0273  0.4748
 8364TIP3    H225029   4.196   3.396   2.463 -0.5532  0.2189  0.2336
 8365TIP3   OH225030   5.404   5.670   4.828 -0.7842 -0.0907 -0.1593
 8365TIP3    H125031   5.395   5.595   4.769 -2.1222 -0.1212  0.0534
 8365TIP3    H225032   5.329   5.662   4.887  1.3322 -0.8808  2.4804
 8366TIP3   OH225033   2.847   4.977   5.138  0.2728 -0.0906  0.0757
 8366TIP3    H125034   2.909   4.993   5.067 -0.5630  0.2845 -0.5839
 8366TIP3    H225035   2.813   4.889   5.121  3.3259 -1.8507  2.5254
 8367TIP3   OH225036   2.044   6.862   4.542 -0.4210 -0.2139 -0.3653
 8367TIP3    H125037   2.029   6.950   4.506 -1.2859 -0.6817 -1.1959
 8367TIP3    H225038   2.136   6.862   4.569 -0.8875  1.5198  1.3020
 8368TIP3   OH225039   3.396   6.273   1.336 -0.0095  0.0400  0.2009
 8368TIP3    H125040   3.371   6.206   1.273 -1.7789  0.7285  0.1251
 8368TIP3    H225041   3.475   6.312   1.301 -0.0084 -0.7651 -0.6919
 8369TIP3   OH225042   0.097   0.031   2.554 -0.1265 -0.3291  0.5015
 8369TIP3    H125043   0.157   0.058   2.484 -0.7471  0.5078  0.2737
 8369TIP3    H225044   0.152   0.027   2.632 -0.1926  2.7216  0.7721
 8370TIP3   OH225045   4.324   6.722   3.660  0.4477  0.6475  0.0268
 8370TIP3    H125046   4.248   6.663   3.666  1.3788 -0.7010 -0.9506
 8370TIP3    H225047   4.291   6.798   3.613 -0.9641  1.2666  1.9306
 8371TIP3   OH225048   6.501   6.888   3.328  0.3499 -0.6125 -0.0449
 8371TIP3    H125049   6.541   6.802   3.335  0.4551 -0.7302 -1.9018
 8371TIP3    H225050   6.545   6.930   3.254 -2.6130 -0.5897 -1.8779
 8372TIP3   OH225051   5.452   4.913   4.863  0.3244  0.7294  0.1874
 8372TIP3    H125052   5.458   4.877   4.952 -0.1685  0.8398  0.2680
 8372TIP3    H225053   5.541   4.939   4.841  0.6756 -0.4500  0.1747
 8373TIP3   OH225054   3.964   4.632   2.491  0.0323 -0.0203  0.0467
 8373TIP3    H125055   3.987   4.550   2.448  0.5659  1.0164 -1.7084
 8373TIP3    H225056   4.046   4.661   2.532  0.3603  0.6069 -1.0200
 8374TIP3   OH225057   5.451   7.298   2.769  0.1055  0.2624  0.0541
 8374TIP3    H125058   5.425   7.277   2.859  0.6485 -2.7288 -0.4436
 8374TIP3    H225059   5.371   7.288   2.718  0.0622  0.7932  0.0158
 8375TIP3   OH225060   3.087   5.053   5.283  0.0061  0.2976  0.3740
 8375TIP3    H125061   3.089   4.994   5.359 -0.3055  1.0963  1.0231
 8375TIP3    H225062   3.002   5.037   5.242 -0.0918  0.3061  0.5703
 8376TIP3   OH225063   3.191   7.406   1.904 -0.1011  0.0377 -0.5235
 8376TIP3    H125064   3.280   7.439   1.914 -0.1300  0.2212 -0.8786
 8376TIP3    H225065   3.194   7.350   1.827  0.1789 -1.5992  0.6393
 8377TIP3   OH225066   4.634   3.654   3.849  0.1561  0.3387 -0.6445
 8377TIP3    H125067   4.684   3.648   3.768 -1.4376 -0.8641 -1.5760
 8377TIP3    H225068   4.699   3.673   3.917  1.8257 -0.9435 -1.8551
 8378TIP3   OH225069   3.682   7.710   4.042  0.0441 -0.4777 -0.5231
 8378TIP3    H125070   3.759   7.737   4.093 -1.1835 -0.9301  1.6096
 8378TIP3    H225071   3.607   7.738   4.095 -1.2618 -1.4098 -1.8594
 8379TIP3   OH225072   2.233   6.135   3.292  0.3831  0.3553 -0.1745
 8379TIP3    H125073   2.235   6.169   3.203  1.0088  1.1101  0.1170
 8379TIP3    H225074   2.144   6.104   3.304 -0.3033  2.1920 -0.3611
 8380TIP3   OH225075   3.286   4.757   4.780 -0.5216 -0.6295 -0.7509
 8380TIP3    H125076   3.307   4.698   4.852  1.8046 -0.2347 -1.0641
 8380TIP3    H225077   3.205   4.722   4.742  0.5064 -3.2793 -0.5899
 8381TIP3   OH225078   5.410   5.136   2.807  0.4068 -0.2423  0.2492
 8381TIP3    H125079   5.368   5.102   2.887 -1.2238  1.9455  0.3899
 8381TIP3    H225080   5.497   5.097   2.807 -0.8306 -3.1569  1.1780
 8382TIP3   OH225081   5.787   6.905   4.619 -0.9954  0.0433 -0.3738
 8382TIP3    H125082   5.740   6.831   4.660  0.6807 -0.6463  0.3272
 8382TIP3    H225083   5.786   6.974   4.686 -2.3097  0.5737 -0.9218
 8383TIP3   OH225084   8.372   0.752   3.348 -0.3960  0.3290 -0.1758
 8383TIP3    H125085   8.411   0.672   3.314 -0.1098  1.3266 -2.2509
 8383TIP3    H225086   8.346   0.802   3.270 -3.0332  1.0624  1.1130
 8384TIP3   OH225087   2.582   6.145   3.107  0.3542 -0.1980 -0.4280
 8384TIP3    H125088   2.646   6.161   3.176  0.8687  2.6034 -1.4802
 8384TIP3    H225089   2.635   6.130   3.028 -0.2355  0.1336 -0.8986
 8385TIP3   OH225090   6.344   7.663   3.817  0.3266 -0.1814  0.0428
 8385TIP3    H125091   6.359   7.679   3.724 -1.5702 -0.6229 -0.3692
 8385TIP3    H225092   6.335   7.750   3.855  0.0280 -0.0248 -0.3846
 8386TIP3   OH225093   4.886   5.037   4.390 -0.1601  0.1229  0.0904
 8386TIP3    H125094   4.894   5.061   4.482 -2.1245  0.2673  0.2420
 8386TIP3    H225095   4.964   4.983   4.372  0.8149  1.0366  1.5060
 8387TIP3   OH225096   1.909   3.606   5.393 -0.5261 -0.4636 -0.1743
 8387TIP3    H125097   1.957   3.619   5.311 -2.3598  1.6952 -0.9789
 8387TIP3    H225098   1.962   3.651   5.459  0.3005 -1.0886 -0.4071
 8388TIP3   OH225099   4.155   4.764   3.772  0.5724 -0.1120  0.1589
 8388TIP3    H125100   4.244   4.773   3.740  0.4499  0.0813 -0.1233
 8388TIP3    H225101   4.111   4.845   3.747  0.5550  0.1652  1.0655
 8389TIP3   OH225102   2.746   7.625   3.250  0.2224 -0.1988  0.2377
 8389TIP3    H125103   2.806   7.663   3.185 -0.8444 -0.5198 -0.9548
 8389TIP3    H225104   2.762   7.531   3.245  0.2213 -0.2118  0.5174
 8390TIP3   OH225105   5.036   6.739   2.090 -0.1747 -0.6605 -0.0516
 8390TIP3    H125106   4.980   6.797   2.038  0.0428 -0.8254 -0.4694
 8390TIP3    H225107   5.091   6.694   2.025  0.5064 -0.4324  0.3667
 8391TIP3   OH225108   4.939   5.192   2.508 -0.3686 -0.1281  0.7736
 8391TIP3    H125109   4.921   5.219   2.418  2.3320  0.6360  0.3955
 8391TIP3    H225110   4.879   5.244   2.561 -0.4783  1.0433 -0.4592
 8392TIP3   OH225111   1.926   6.613   4.442  0.3318  0.2340 -0.6497
 8392TIP3    H125112   1.953   6.682   4.502  0.6724 -0.1224 -0.3892
 8392TIP3    H225113   1.881   6.549   4.497  1.2658 -0.4331 -0.6534
 8393TIP3   OH225114   5.071   5.840   6.349  0.0748 -0.1794  0.2115
 8393TIP3    H125115   5.140   5.880   6.403 -0.0027 -2.2886  1.9338
 8393TIP3    H225116   5.054   5.756   6.390 -2.0973 -0.5851 -1.4218
 8394TIP3   OH225117   3.344   4.632   3.910 -0.1907  0.0225  0.9511
 8394TIP3    H125118   3.412   4.607   3.973 -0.6593  0.6496  1.7136
 8394TIP3    H225119   3.378   4.602   3.826  0.9671  0.1947  1.3431
 8395TIP3   OH225120   6.838   6.846   4.127 -0.2284  0.4659 -0.0470
 8395TIP3    H125121   6.781   6.893   4.188  0.9274  0.7532  0.8304
 8395TIP3    H225122   6.896   6.914   4.092  0.7233 -0.0955  0.3967
 8396TIP3   OH225123   3.826   4.300   2.893  0.1314  0.1491 -0.1347
 8396TIP3    H125124   3.903   4.308   2.949 -2.1526 -1.7822  3.5070
 8396TIP3    H225125   3.790   4.389   2.888  0.3352  0.3498  1.6119
 8397TIP3   OH225126   5.497   6.458   5.859 -0.7297  0.1399  0.3558
 8397TIP3    H125127   5.473   6.490   5.772  2.1944  1.3047 -0.0846
 8397TIP3    H225128   5.500   6.362   5.848  1.4045  0.3615 -1.3607
 8398TIP3   OH225129   3.413   6.261   4.233 -0.4149  0.3090  0.1475
 8398TIP3    H125130   3.393   6.181   4.185 -0.8250  0.9925 -0.8535
 8398TIP3    H225131   3.347   6.264   4.302 -0.4580 -0.1692  0.1285
 8399TIP3   OH225132   3.797   4.839   2.582 -0.0282 -0.1526  0.2214
 8399TIP3    H125133   3.880   4.887   2.579  0.6905 -1.4099 -0.4397
 8399TIP3    H225134   3.821   4.748   2.565 -1.2637 -0.9106  2.3848
 8400TIP3   OH225135   3.885   5.133   3.599 -0.4223 -0.1009 -0.0691
 8400TIP3    H125136   3.937   5.062   3.637 -0.7675 -1.2923 -1.7836
 8400TIP3    H225137   3.857   5.100   3.514  1.4431  3.0223 -1.9831
 8401TIP3   OH225138   2.720   7.073   4.502 -0.2518  0.1838  0.2807
 8401TIP3    H125139   2.726   6.979   4.523 -1.0737 -0.2351 -1.2600
 8401TIP3    H225140   2.635   7.100   4.537 -1.4379 -0.4198 -1.9742
 8402TIP3   OH225141   5.378   5.531   2.562  0.5906  0.6592  0.0757
 8402TIP3    H125142   5.393   5.514   2.655  3.2598  0.6220 -0.3137
 8402TIP3    H225143   5.305   5.475   2.538  0.8358 -0.4266  1.8176
 8403TIP3   OH225144   2.735   4.388   4.473 -0.3812  0.1720 -0.3408
 8403TIP3    H125145   2.737   4.343   4.558  1.6343  0.5914 -0.1570
 8403TIP3    H225146   2.696   4.325   4.413  1.2420 -1.3386  0.1844
 8404TIP3   OH225147   5.547   4.464   4.674  0.1591 -0.3640  0.1611
 8404TIP3    H125148   5.540   4.487   4.767  0.5095  1.2201 -0.1959
 8404TIP3    H225149   5.621   4.403   4.670  0.5573  0.0745  0.8287
 8405TIP3   OH225150   5.763   0.183   4.485 -0.0840 -0.6412 -0.0785
 8405TIP3    H125151   5.759   0.103   4.433 -1.8233 -1.3051  1.0486
 8405TIP3    H225152   5.771   0.153   4.575 -1.3391  0.4304  0.4066
 8406TIP3   OH225153   3.828   4.424   2.096 -0.0497  0.5682  0.3682
 8406TIP3    H125154   3.852   4.465   2.179  1.0544 -0.0857  0.3694
 8406TIP3    H225155   3.868   4.337   2.099 -0.4072  0.3641 -0.6430
 8407TIP3   OH225156   3.647   6.182   3.596 -0.6880 -0.2363  0.1373
 8407TIP3    H125157   3.680   6.214   3.512 -0.3137  0.3955  0.5240
 8407TIP3    H225158   3.607   6.097   3.575  0.6422 -0.7377 -0.4383
 8408TIP3   OH225159   2.689   5.263   2.977  0.4446 -0.0273 -0.1472
 8408TIP3    H125160   2.595   5.251   2.990  0.7600 -2.6305  0.0354
 8408TIP3    H225161   2.696   5.303   2.890 -0.7633 -1.7569 -1.0837
 8409TIP3   OH225162   4.419   5.987   4.905 -0.6417 -0.2060  0.0047
 8409TIP3    H125163   4.345   5.940   4.943 -0.5306  0.0933  0.5940
 8409TIP3    H225164   4.496   5.938   4.932 -0.5846 -0.1716 -0.0960
 8410TIP3   OH225165   6.182   5.723   3.289 -0.0674  0.3293  0.6532
 8410TIP3    H125166   6.185   5.804   3.340  0.8758  0.1340  0.9195
 8410TIP3    H225167   6.256   5.671   3.322 -0.8702 -0.7836  0.7218
 8411TIP3   OH225168   3.341   4.238   3.623 -0.0418  0.4516 -0.1685
 8411TIP3    H125169   3.317   4.271   3.537 -0.7634  0.3094 -0.0293
 8411TIP3    H225170   3.308   4.304   3.684 -1.4986 -0.5182  0.1123
 8412TIP3   OH225171   5.034   7.395   2.136 -0.1755  0.2535  0.0973
 8412TIP3    H125172   5.102   7.369   2.199  1.4960  1.3042 -1.2554
 8412TIP3    H225173   4.973   7.447   2.188  0.4346 -0.0819  1.1762
 8413TIP3   OH225174   3.221   6.692   3.721 -0.0245  0.5244 -0.3889
 8413TIP3    H125175   3.264   6.632   3.781 -1.1609 -0.6561 -0.7522
 8413TIP3    H225176   3.214   6.774   3.770  1.7282  0.4476  0.0250
 8414TIP3   OH225177   4.832   5.622   5.232 -0.1328 -0.6151 -0.0157
 8414TIP3    H125178   4.789   5.556   5.178 -1.3844  1.1523 -1.2204
 8414TIP3    H225179   4.795   5.610   5.320 -2.6834  0.4386 -0.8846
 8415TIP3   OH225180   3.240   5.911   3.805  0.0760 -0.0828  0.3043
 8415TIP3    H125181   3.159   5.877   3.844  0.2460  1.4916  2.1117
 8415TIP3    H225182   3.242   5.873   3.717 -2.6215 -0.1481  0.2271
 8416TIP3   OH225183   4.047   4.484   4.168  0.5752 -0.0359 -0.3608
 8416TIP3    H125184   4.036   4.579   4.172 -1.0129 -0.2442  1.3152
 8416TIP3    H225185   3.958   4.450   4.181  1.3146 -1.7640  0.2894
 8417TIP3   OH225186   5.713   5.651   6.176 -0.3835 -0.0602 -0.1258
 8417TIP3    H125187   5.625   5.686   6.157  0.0596  1.7241  0.9971
 8417TIP3    H225188   5.765   5.728   6.199  1.2007 -1.2336  0.3057
 8418TIP3   OH225189   4.741   5.956   4.056 -0.1326  0.4926 -0.1512
 8418TIP3    H125190   4.705   5.874   4.092  2.2903 -0.8558 -0.7039
 8418TIP3    H225191   4.797   5.990   4.126 -0.8359  1.5146 -0.0724
 8419TIP3   OH225192   4.047   6.259   2.752 -0.1553 -0.1331  0.6937
 8419TIP3    H125193   3.985   6.189   2.776 -1.0791  0.1996 -0.6670
 8419TIP3    H225194   4.099   6.221   2.682  0.0271  0.1996  0.6496
 8420TIP3   OH225195   2.096   3.262   3.771  0.1089 -0.2370 -0.4167
 8420TIP3    H125196   2.172   3.306   3.733  0.3213  0.0311  0.3057
 8420TIP3    H225197   2.027   3.272   3.705  0.4370  0.3107 -0.6818
 8421TIP3   OH225198   4.757   6.866   5.638 -0.4604 -0.2975  0.1933
 8421TIP3    H125199   4.786   6.775   5.625  1.3741  0.4054 -0.8039
 8421TIP3    H225200   4.687   6.878   5.574 -0.1361 -0.7407 -0.2436
 8422TIP3   OH225201   4.217   6.040   3.382  0.0638  0.1782 -0.0887
 8422TIP3    H125202   4.244   6.092   3.457 -0.1412 -0.1902  0.2420
 8422TIP3    H225203   4.173   5.964   3.420 -0.3448  0.1609 -0.5884
 8423TIP3   OH225204   3.917   7.010   6.168 -0.2546  0.5304 -0.1160
 8423TIP3    H125205   3.934   7.098   6.202  0.3586  0.5571 -0.4874
 8423TIP3    H225206   3.865   6.968   6.237  0.8013  0.6557  0.7763
 8424TIP3   OH225207   4.521   7.048   6.115 -0.1391 -0.3654  0.1942
 8424TIP3    H125208   4.516   7.140   6.138  0.4805 -0.4118  0.5210
 8424TIP3    H225209   4.474   7.003   6.186  1.1273 -0.4467  0.9875
 8425TIP3   OH225210   5.434   6.461   3.808 -0.5866  0.4010 -0.4661
 8425TIP3    H125211   5.528   6.472   3.817 -0.6508 -0.5426  1.6410
 8425TIP3    H225212   5.409   6.521   3.738  1.5519  0.7693 -0.9246
 8426TIP3   OH225213   3.000   6.335   3.828  0.4650  0.3329 -0.2811
 8426TIP3    H125214   3.092   6.313   3.847  0.6010 -0.0389 -1.3498
 8426TIP3    H225215   2.951   6.260   3.862  0.4205  1.1976  1.6280
 8427TIP3   OH225216   3.234   6.546   2.143 -0.8001 -0.1413 -0.0017
 8427TIP3    H125217   3.207   6.464   2.102 -0.1228 -0.1084 -0.5196
 8427TIP3    H225218   3.154   6.581   2.181 -1.3989 -0.2797 -1.1140
 8428TIP3   OH225219   3.688   5.838   4.510 -0.1243 -0.2131 -0.1476
 8428TIP3    H125220   3.608   5.888   4.497  0.7273  1.2644  0.2109
 8428TIP3    H225221   3.738   5.850   4.430 -1.1496 -2.8412 -1.2180
 8429TIP3   OH225222   3.416   5.742   3.986  0.0731  0.4308  0.5113
 8429TIP3    H125223   3.350   5.778   3.926  1.2046  2.6346  0.5418
 8429TIP3    H225224   3.415   5.801   4.061  0.8402 -0.5437  1.3004
 8430TIP3   OH225225   4.979   6.304   1.709 -0.0015  0.0422 -0.0364
 8430TIP3    H125226   5.017   6.316   1.622  0.5749 -0.5459  0.1335
 8430TIP3    H225227   5.054   6.290   1.767 -0.4408 -0.7019  0.3668
 8431TIP3   OH225228   3.153   7.481   2.709 -0.0479 -0.5083  0.3877
 8431TIP3    H125229   3.174   7.570   2.736 -1.0314  0.1485 -0.9568
 8431TIP3    H225230   3.129   7.488   2.617  1.4878 -2.4226 -0.2081
 8432TIP3   OH225231   3.250   3.562   4.819 -0.3626 -0.2023 -0.0820
 8432TIP3    H125232   3.251   3.657   4.815  0.1719 -0.1810  0.6058
 8432TIP3    H225233   3.240   3.534   4.728  0.5133  0.4898 -0.3894
 8433TIP3   OH225234   4.214   7.249   3.825 -0.1299 -0.4533  0.3311
 8433TIP3    H125235   4.139   7.292   3.867  1.2976  0.5863  1.8933
 8433TIP3    H225236   4.197   7.256   3.731 -0.9998  1.5967  0.6245
 8434TIP3   OH225237   2.769   4.952   2.987  0.0018 -0.1172 -0.1730
 8434TIP3    H125238   2.839   4.987   3.042 -1.0531  2.7510 -0.5510
 8434TIP3    H225239   2.691   4.956   3.042 -0.5641  0.3274 -0.9969
 8435TIP3   OH225240   5.599   0.241   3.913  0.3210 -0.2855 -0.2045
 8435TIP3    H125241   5.545   0.178   3.866  1.5772 -1.0546 -0.6266
 8435TIP3    H225242   5.573   0.231   4.005 -0.5140 -0.3751 -0.4435
 8436TIP3   OH225243   6.184   6.680   4.366 -0.1111 -0.3682  0.3619
 8436TIP3    H125244   6.197   6.749   4.301 -0.8715  0.5724  1.1990
 8436TIP3    H225245   6.133   6.722   4.435  0.5091 -1.4301  1.4646
 8437TIP3   OH225246   5.846   7.245   5.810 -0.4738  0.2747 -0.2739
 8437TIP3    H125247   5.834   7.338   5.831 -1.3993 -0.1817  1.3437
 8437TIP3    H225248   5.910   7.244   5.739 -1.3672  2.2126 -1.1313
 8438TIP3   OH225249   2.742   4.064   3.904  0.3387 -0.6587 -0.2143
 8438TIP3    H125250   2.711   3.976   3.884 -0.7463 -0.1239 -0.9216
 8438TIP3    H225251   2.688   4.092   3.978  2.4840 -1.5840  1.7667
 8439TIP3   OH225252   3.303   4.626   3.399  0.0458 -0.0595  0.0989
 8439TIP3    H125253   3.379   4.568   3.410 -1.8800 -2.9066 -1.0718
 8439TIP3    H225254   3.243   4.601   3.469 -1.1458 -0.0739 -0.9092
 8440TIP3   OH225255   4.123   4.939   4.512 -0.2944  0.1325 -0.3616
 8440TIP3    H125256   4.033   4.910   4.498 -0.3868 -0.6573  1.7816
 8440TIP3    H225257   4.175   4.859   4.504 -0.0903  0.0948  1.2764
 8441TIP3   OH225258   2.364   4.866   4.458  0.2248 -0.5777  0.5059
 8441TIP3    H125259   2.435   4.918   4.496  0.7375 -1.0589  0.2225
 8441TIP3    H225260   2.362   4.892   4.366 -1.8361  1.5048  1.0787
 8442TIP3   OH225261   5.260   7.508   4.570 -0.0611 -0.0586 -0.4417
 8442TIP3    H125262   5.219   7.435   4.616 -0.1191 -0.6651 -1.4364
 8442TIP3    H225263   5.354   7.499   4.589 -0.1382 -0.0126 -0.0392
 8443TIP3   OH225264   3.744   6.808   4.350  0.0233 -0.4964 -0.6424
 8443TIP3    H125265   3.713   6.883   4.300  1.0024 -1.5078 -2.8286
 8443TIP3    H225266   3.677   6.741   4.336  0.1216 -0.6647 -0.3013
 8444TIP3   OH225267   2.918   5.019   4.542  0.1634  0.4753 -0.5799
 8444TIP3    H125268   2.991   5.074   4.514 -0.6924  0.9335 -2.0061
 8444TIP3    H225269   2.886   5.060   4.622  0.3368  1.3490 -0.9474
 8445TIP3   OH225270   4.562   4.622   1.721 -0.1474 -0.1070  0.1456
 8445TIP3    H125271   4.573   4.663   1.807 -1.6657  2.1338 -0.6905
 8445TIP3    H225272   4.476   4.580   1.725  0.5608 -1.5737  0.3198
 8446TIP3   OH225273   2.519   7.438   3.849  0.6881  0.3341  0.1267
 8446TIP3    H125274   2.463   7.516   3.858  1.2567  0.8817 -1.0523
 8446TIP3    H225275   2.603   7.464   3.887  0.7115  0.1120  0.2288
 8447TIP3   OH225276   2.918   4.622   1.974  0.1338  0.1153 -0.0137
 8447TIP3    H125277   2.944   4.674   2.049  0.9493  0.7796 -0.7492
 8447TIP3    H225278   3.000   4.585   1.941 -0.2622 -0.4550 -0.3650
 8448TIP3   OH225279   5.482   5.662   4.221  0.4877  0.1518  0.0079
 8448TIP3    H125280   5.512   5.706   4.141 -1.7860 -1.8978 -2.0789
 8448TIP3    H225281   5.557   5.610   4.250  0.6053 -0.9906 -2.2428
 8449TIP3   OH225282   3.307   7.193   3.066 -0.4628 -0.7077  0.1733
 8449TIP3    H125283   3.237   7.140   3.028  0.5513 -2.7211  1.0243
 8449TIP3    H225284   3.287   7.282   3.040 -1.9642 -1.5666 -1.7041
 8450TIP3   OH225285   4.805   7.276   4.750  0.1773  0.4212 -0.2054
 8450TIP3    H125286   4.748   7.353   4.754 -2.4808 -1.5619  3.5501
 8450TIP3    H225287   4.793   7.242   4.661 -1.6944  2.1374 -0.6589
 8451TIP3   OH225288   4.296   6.698   2.869 -0.4685  0.7537  0.1883
 8451TIP3    H125289   4.227   6.702   2.803  0.2696 -1.0678 -0.7297
 8451TIP3    H225290   4.369   6.747   2.830  0.8176 -2.3090 -1.4739
 8452TIP3   OH225291   4.576   6.432   3.467 -0.1615  0.0354 -0.2014
 8452TIP3    H125292   4.599   6.402   3.379  0.7252 -0.0172  0.0362
 8452TIP3    H225293   4.627   6.376   3.525 -0.4441  0.3281  0.3318
 8453TIP3   OH225294   4.779   6.594   3.752  0.6786  0.2739  0.1383
 8453TIP3    H125295   4.797   6.505   3.784 -1.3463 -1.3373 -2.9114
 8453TIP3    H225296   4.689   6.611   3.777  1.2662  1.7776  1.2785
 8454TIP3   OH225297   1.760   6.223   5.293 -0.0939 -0.5622 -0.2977
 8454TIP3    H125298   1.787   6.151   5.350 -1.5584 -0.4764  0.5330
 8454TIP3    H225299   1.676   6.195   5.257 -0.5463  0.6112 -0.1753
 8455TIP3   OH225300   8.305   0.379   4.983  0.2769  0.1194  0.1624
 8455TIP3    H125301   8.213   0.355   4.993  0.6826 -1.6783 -0.3742
 8455TIP3    H225302   8.304   0.448   4.916 -0.9129  1.9218  1.9634
 8456TIP3   OH225303   0.225   7.215   3.167  0.1780  0.0957 -0.0915
 8456TIP3    H125304   0.272   7.298   3.166  0.7002 -0.1959 -0.2935
 8456TIP3    H225305   0.288   7.152   3.202 -0.5578 -0.0181  1.0428
 8457TIP3   OH225306   3.657   3.353   2.447 -0.0835  0.7791 -0.2836
 8457TIP3    H125307   3.563   3.371   2.453  0.2401  3.4798 -2.3655
 8457TIP3    H225308   3.662   3.262   2.418 -2.1024  1.0233 -1.4984
 8458TIP3   OH225309   5.630   1.407   6.063  0.0296  0.3827 -0.1266
 8458TIP3    H125310   5.620   1.320   6.101  0.1036  0.5233  0.2105
 8458TIP3    H225311   5.662   1.390   5.974 -1.1088  0.0185 -0.4695
 8459TIP3   OH225312   2.313   6.904   4.849  0.4261 -0.0268  0.2405
 8459TIP3    H125313   2.335   6.843   4.779 -0.5608 -1.0596  0.7959
 8459TIP3    H225314   2.380   6.890   4.916  0.5090 -0.1243  0.1359
 8460TIP3   OH225315   3.529   7.687   2.595 -0.1354 -0.1193  0.2553
 8460TIP3    H125316   3.463   7.751   2.624 -0.8163  0.3464 -2.2240
 8460TIP3    H225317   3.608   7.712   2.641 -0.8991  1.3158  0.8204
 8461TIP3   OH225318   2.853   6.897   2.765 -0.1175 -0.0355 -0.5339
 8461TIP3    H125319   2.793   6.969   2.745  2.0485  1.5740 -1.4148
 8461TIP3    H225320   2.846   6.886   2.860 -0.2153  1.5720 -0.3391
 8462TIP3   OH225321   5.458   6.010   4.161 -0.0624  0.1306 -0.5137
 8462TIP3    H125322   5.417   6.005   4.247  0.7721 -0.1340 -0.1198
 8462TIP3    H225323   5.416   6.084   4.118  1.8183  2.3828  1.3677
 8463TIP3   OH225324   7.061   0.278   4.437  0.0110 -0.4950 -0.2276
 8463TIP3    H125325   7.030   0.254   4.350  0.7431  0.3337 -0.7186
 8463TIP3    H225326   7.153   0.252   4.438  0.3092  0.5476 -0.0977
 8464TIP3   OH225327   5.865   0.031   3.905 -0.2985  0.1586  0.1511
 8464TIP3    H125328   5.901   0.119   3.914  0.9504 -0.4580  1.4395
 8464TIP3    H225329   5.929  -0.016   3.851  0.0429 -0.4947  1.1076
 8465TIP3   OH225330   5.491   7.817   2.340  0.0996 -0.0444 -0.1231
 8465TIP3    H125331   5.518   7.908   2.336  0.7933 -0.3267 -4.0401
 8465TIP3    H225332   5.545   7.779   2.410  1.3505  2.0424  0.0913
 8466TIP3   OH225333   1.536   5.326   4.049  0.0921 -0.4010 -0.9526
 8466TIP3    H125334   1.530   5.283   3.964  1.4494 -0.9517 -0.7798
 8466TIP3    H225335   1.544   5.255   4.112 -0.8932  0.0063 -0.3481
 8467TIP3   OH225336   3.436   5.707   4.862 -0.3591 -0.0220 -0.1372
 8467TIP3    H125337   3.415   5.636   4.922 -3.1019  1.1195  0.3112
 8467TIP3    H225338   3.448   5.783   4.918  3.1222 -0.1804 -0.5596
 8468TIP3   OH225339   4.561   0.755   3.964 -0.6047  0.2629 -1.1300
 8468TIP3    H125340   4.554   0.777   3.871 -1.1821 -0.8966 -1.3744
 8468TIP3    H225341   4.550   0.838   4.010  0.8655  1.0353 -2.1281
 8469TIP3   OH225342   1.487   6.445   4.452 -0.2066  0.0238 -0.7806
 8469TIP3    H125343   1.541   6.391   4.395  0.0349  0.5913 -1.0983
 8469TIP3    H225344   1.507   6.535   4.426  1.3211  0.3759  1.4553
 8470TIP3   OH225345   6.379   4.652   4.100  0.3286 -0.1199 -0.3651
 8470TIP3    H125346   6.300   4.616   4.142  0.0962 -0.2387 -0.9018
 8470TIP3    H225347   6.409   4.581   4.043  0.5823  0.0882 -0.4868
 8471TIP3   OH225348   3.367   5.312   4.049  0.1103  0.4141 -0.0401
 8471TIP3    H125349   3.456   5.298   4.017 -1.4014  0.1260 -4.3382
 8471TIP3    H225350   3.340   5.227   4.083  0.1214 -0.5414 -2.3467
 8472TIP3   OH225351   5.432   7.336   2.212 -0.2715 -0.0933 -0.1562
 8472TIP3    H125352   5.352   7.297   2.248  0.5038 -1.5019  0.0652
 8472TIP3    H225353   5.405   7.373   2.129 -1.1704 -0.5314 -0.0662
 8473TIP3   OH225354   4.896   4.985   3.255  0.1724  0.2501  0.3820
 8473TIP3    H125355   4.967   4.977   3.191  0.6164  1.7242  0.6743
 8473TIP3    H225356   4.836   5.048   3.216 -0.0530  0.4037  0.9754
 8474TIP3   OH225357   4.787   5.402   5.044  0.0206 -0.0413  0.1200
 8474TIP3    H125358   4.857   5.386   5.108 -0.4462 -0.3844  0.5445
 8474TIP3    H225359   4.745   5.317   5.034 -0.0549  0.0689 -0.4707
 8475TIP3   OH225360   3.006   7.647   3.569  0.9212 -0.2974 -0.4986
 8475TIP3    H125361   3.098   7.626   3.587  1.1444 -1.0788 -2.4202
 8475TIP3    H225362   3.010   7.724   3.511  0.3228  0.4389  0.4347
 8476TIP3   OH225363   3.469   4.934   4.708 -0.2966  0.7405  0.1044
 8476TIP3    H125364   3.435   5.018   4.739 -0.3246  0.2070  1.5616
 8476TIP3    H225365   3.394   4.875   4.714 -0.4966  0.7981 -1.7079
 8477TIP3   OH225366   3.857   5.242   2.077  0.1798  0.2218 -0.8815
 8477TIP3    H125367   3.799   5.266   2.149 -1.0431 -2.8669 -0.7544
 8477TIP3    H225368   3.829   5.297   2.004 -1.5391  0.2506 -0.2226
 8478TIP3   OH225369   6.167   7.394   5.354 -0.2482  0.4543  0.2214
 8478TIP3    H125370   6.072   7.386   5.346 -0.1088  1.5285 -2.9362
 8478TIP3    H225371   6.201   7.311   5.320 -0.0226 -0.0347  1.5848
 8479TIP3   OH225372   6.410   7.808   4.990 -0.4450  0.5909  1.0133
 8479TIP3    H125373   6.392   7.881   5.049 -0.6581  0.7264  0.7820
 8479TIP3    H225374   6.404   7.730   5.045 -1.3381  0.6647  1.0297
 8480TIP3   OH225375   2.628   7.899   4.265 -0.3158  0.2130  0.2063
 8480TIP3    H125376   2.661   7.810   4.274 -3.0239 -0.5574  3.4047
 8480TIP3    H225377   2.549   7.890   4.211 -0.8840  0.5589  0.9629
 8481TIP3   OH225378   2.382   5.717   3.935 -0.2501 -0.0646  0.6616
 8481TIP3    H125379   2.472   5.687   3.939  0.4807  1.7352 -1.2167
 8481TIP3    H225380   2.338   5.657   3.875 -0.1963 -0.6526  1.2055
 8482TIP3   OH225381   4.462   6.716   3.211 -0.0463  0.3402 -0.0220
 8482TIP3    H125382   4.432   6.636   3.169 -0.1350  0.9140 -1.0400
 8482TIP3    H225383   4.488   6.688   3.299  0.7890 -0.9791 -0.6816
 8483TIP3   OH225384   4.166   7.040   4.690  0.1075  0.1169  0.0801
 8483TIP3    H125385   4.103   7.060   4.759  1.1225 -1.0081  1.3478
 8483TIP3    H225386   4.129   6.964   4.645 -0.0508  0.2322  0.0128
 8484TIP3   OH225387   5.575   0.132   3.132  0.8210 -0.1103  0.3120
 8484TIP3    H125388   5.508   0.179   3.083 -0.0596 -0.9774  0.6746
 8484TIP3    H225389   5.537   0.121   3.219  1.1901 -1.1459  0.3451
 8485TIP3   OH225390   6.541   7.679   4.491 -0.1780  0.1411  0.0745
 8485TIP3    H125391   6.623   7.660   4.536 -0.0906  0.5344  0.0852
 8485TIP3    H225392   6.492   7.597   4.495  1.3169 -0.9105 -2.2811
 8486TIP3   OH225393   2.409   5.001   3.976  0.0546 -0.1470  0.7337
 8486TIP3    H125394   2.380   5.066   4.040  1.4992  1.8485 -0.5423
 8486TIP3    H225395   2.473   4.948   4.024 -0.2821  0.1211  1.4901
 8487TIP3   OH225396   4.782   7.025   2.820  0.8019 -0.5295  0.8457
 8487TIP3    H125397   4.712   7.082   2.852  1.3060 -1.2221  3.3111
 8487TIP3    H225398   4.738   6.962   2.763 -0.3248  0.0237  1.0840
 8488TIP3   OH225399   6.225   7.129   5.216 -0.0153  0.0871 -0.0982
 8488TIP3    H125400   6.257   7.040   5.206 -0.7413 -0.1626 -0.2552
 8488TIP3    H225401   6.247   7.172   5.134  0.7864  0.2011  0.1734
 8489TIP3   OH225402   3.940   5.996   2.198  0.4339 -0.1861 -0.6880
 8489TIP3    H125403   3.965   6.013   2.107  2.5561  1.7746  0.2163
 8489TIP3    H225404   3.971   6.073   2.246  0.9860 -2.0382  1.9910
 8490TIP3   OH225405   1.142   6.214   5.247 -0.1356 -0.2863 -0.4119
 8490TIP3    H125406   1.057   6.258   5.238  0.1382  0.3045 -0.1660
 8490TIP3    H225407   1.143   6.149   5.177 -0.7599 -0.2429 -0.4658
 8491TIP3   OH225408   3.120   6.183   1.925 -0.2345  0.1949 -0.1413
 8491TIP3    H125409   3.102   6.195   1.831  1.3031 -0.6423 -0.5710
 8491TIP3    H225410   3.156   6.094   1.930 -0.7005  0.0898  1.3072
 8492TIP3   OH225411   4.405   7.143   4.775  0.1725 -0.3736  0.3692
 8492TIP3    H125412   4.416   7.238   4.771  1.1392 -0.3665  2.5048
 8492TIP3    H225413   4.315   7.128   4.746 -0.7171  1.4007  2.0578
 8493TIP3   OH225414   2.084   5.459   2.391  0.1675  0.0680  0.4974
 8493TIP3    H125415   2.141   5.428   2.320 -0.0300  1.5613 -0.3238
 8493TIP3    H225416   2.114   5.548   2.409  0.2235 -0.2785  2.3233
 8494TIP3   OH225417   4.102   4.843   5.712  0.0736 -0.1536 -0.3032
 8494TIP3    H125418   4.149   4.879   5.787 -0.0870 -0.0363 -0.2578
 8494TIP3    H225419   4.020   4.892   5.710 -2.3185 -3.6995  2.7136
 8495TIP3   OH225420   3.447   4.981   5.455 -0.1828  0.2617  0.0699
 8495TIP3    H125421   3.356   4.990   5.482 -0.4334 -0.0935 -0.6420
 8495TIP3    H225422   3.472   5.068   5.425 -1.0629 -0.2035 -2.0934
 8496TIP3   OH225423   3.940   5.552   4.405  0.3208 -0.2653 -0.2822
 8496TIP3    H125424   3.984   5.510   4.330 -0.9263 -3.1034  0.5055
 8496TIP3    H225425   3.890   5.481   4.445 -0.8375  1.7572  1.9065
 8497TIP3   OH225426   3.732   7.082   3.290  0.2030 -0.3290 -0.2107
 8497TIP3    H125427   3.640   7.058   3.300 -0.3229  1.0905 -1.3991
 8497TIP3    H225428   3.764   7.093   3.379 -1.2617  0.9067  0.1757
 8498TIP3   OH225429   2.557   5.466   1.689  0.0837 -0.8033 -0.0663
 8498TIP3    H125430   2.600   5.551   1.699 -0.9785 -0.1873 -0.5360
 8498TIP3    H225431   2.628   5.404   1.676  0.9314 -0.1177  1.1090
 8499TIP3   OH225432   4.383   4.460   5.869 -0.3030 -0.6196 -0.4010
 8499TIP3    H125433   4.448   4.455   5.799 -0.8617 -0.6640 -0.9264
 8499TIP3    H225434   4.309   4.408   5.837 -1.4142  1.0820 -0.7379
 8500TIP3   OH225435   3.748   6.962   0.808  0.6344  0.0725  0.0896
 8500TIP3    H125436   3.717   6.976   0.898  0.2630  0.0782 -0.0369
 8500TIP3    H225437   3.843   6.965   0.815  0.5972  0.9097  0.3491
 8501TIP3   OH225438   5.593   5.580   3.738  0.5409  0.0171  0.2102
 8501TIP3    H125439   5.566   5.669   3.759  1.5000  0.4272 -0.2105
 8501TIP3    H225440   5.523   5.545   3.683 -0.3159  0.1506  1.2130
 8502TIP3   OH225441   2.646   4.710   3.495  0.3832 -0.1100  0.0293
 8502TIP3    H125442   2.560   4.670   3.504  0.0738  0.8325  1.4939
 8502TIP3    H225443   2.636   4.798   3.533  1.3217  0.9760 -2.1566
 8503TIP3   OH225444   5.467   6.320   4.222  0.1778  0.8240  0.6122
 8503TIP3    H125445   5.402   6.374   4.267 -1.0688 -0.3784  0.2732
 8503TIP3    H225446   5.533   6.382   4.192 -0.8766  2.0794  0.8487
 8504TIP3   OH225447   7.085   5.829   5.822 -0.2951  0.1463 -0.3484
 8504TIP3    H125448   7.113   5.741   5.797 -0.3867 -0.5928  2.0848
 8504TIP3    H225449   7.086   5.879   5.740  2.8545 -1.2710 -1.2130
 8505TIP3   OH225450   5.772   7.079   3.911 -0.1262  0.0346  0.0354
 8505TIP3    H125451   5.805   6.994   3.882  0.4500  0.9792 -2.1353
 8505TIP3    H225452   5.851   7.131   3.928 -0.4691  0.0408  1.7532
 8506TIP3   OH225453   3.541   4.036   5.379  0.3130  0.0280 -0.3455
 8506TIP3    H125454   3.636   4.026   5.367 -0.2176 -1.5454 -3.9963
 8506TIP3    H225455   3.530   4.129   5.401  2.6768  0.3751 -0.4595
 8507TIP3   OH225456   2.278   6.273   4.081 -0.4074 -0.5755 -0.1945
 8507TIP3    H125457   2.294   6.187   4.120 -1.6783 -0.4234  0.7008
 8507TIP3    H225458   2.269   6.256   3.987 -0.3054 -1.3706 -0.0625
 8508TIP3   OH225459   3.551   5.523   3.479 -0.5902  0.3243  0.3612
 8508TIP3    H125460   3.596   5.548   3.560  0.4089 -0.2633 -0.0034
 8508TIP3    H225461   3.621   5.518   3.413 -1.4310  1.1113 -0.6162
 8509TIP3   OH225462   5.240   5.921   5.673  0.0661 -0.4200 -0.1635
 8509TIP3    H125463   5.165   5.914   5.731  1.4984 -0.6900  1.6849
 8509TIP3    H225464   5.263   5.830   5.653  0.6215 -0.3704  0.2319
 8510TIP3   OH225465   4.138   5.885   4.916  0.4476 -0.1656 -0.2177
 8510TIP3    H125466   4.142   5.805   4.968  0.3248 -0.0300  0.0006
 8510TIP3    H225467   4.085   5.861   4.839  0.1260 -0.1987  0.0138
 8511TIP3   OH225468   3.832   7.386   3.496  0.3637  0.2480  0.0288
 8511TIP3    H125469   3.851   7.298   3.528 -0.1705  0.1647  0.1184
 8511TIP3    H225470   3.881   7.444   3.555  0.6383  0.0148  0.0282
 8512TIP3   OH225471   4.323   4.250   3.143 -0.5126  0.3268 -0.0488
 8512TIP3    H125472   4.357   4.266   3.231 -0.3333  0.4011 -0.1305
 8512TIP3    H225473   4.334   4.155   3.130  2.6600  0.7824 -1.2855
 8513TIP3   OH225474   3.500   5.964   4.988  0.5460 -0.1576 -0.4883
 8513TIP3    H125475   3.585   5.961   5.033  0.7532  0.7398 -0.7895
 8513TIP3    H225476   3.522   5.994   4.900 -0.3608  2.7079  0.2099
 8514TIP3   OH225477   2.834   6.357   2.269  0.3223  0.1518 -0.0117
 8514TIP3    H125478   2.783   6.412   2.329 -0.3551  1.3135 -1.6295
 8514TIP3    H225479   2.872   6.418   2.206  0.4499 -1.1155 -1.1949
 8515TIP3   OH225480   0.908   7.153   4.693  0.0657 -0.2312 -0.0143
 8515TIP3    H125481   0.943   7.224   4.640 -2.5980 -0.1641 -1.7756
 8515TIP3    H225482   0.831   7.190   4.736 -1.3610 -2.0126 -0.9640
 8516TIP3   OH225483   4.255   6.230   3.569  0.1594 -0.0768 -0.2466
 8516TIP3    H125484   4.272   6.190   3.654 -1.2973 -1.0582 -0.3897
 8516TIP3    H225485   4.313   6.306   3.565  0.8681 -0.5408  1.2486
 8517TIP3   OH225486   4.014   7.664   2.726 -0.4743  0.3877 -0.4173
 8517TIP3    H125487   4.066   7.596   2.685 -0.7362 -0.3561  0.4578
 8517TIP3    H225488   4.060   7.684   2.808  0.0825  1.9000 -1.0893
 8518TIP3   OH225489   5.430   6.018   3.640  0.2744  0.0990 -0.5110
 8518TIP3    H125490   5.363   5.958   3.606  0.9080 -0.8046 -0.1845
 8518TIP3    H225491   5.483   6.041   3.563  1.2926 -1.4045 -0.2658
 8519TIP3   OH225492   4.723   7.472   1.932  0.1996  0.2678  0.0859
 8519TIP3    H125493   4.706   7.493   2.023  0.2859 -0.4249  0.2687
 8519TIP3    H225494   4.737   7.377   1.932  3.2731  0.6539 -0.1397
 8520TIP3   OH225495   0.273   4.312   0.018 -0.0517  0.4012  0.3371
 8520TIP3    H125496   0.208   4.282   0.081 -0.6599  0.8945 -0.0435
 8520TIP3    H225497   0.242   4.278  -0.066  0.5820  0.0160  0.2539
 8521TIP3   OH225498   3.314   6.425   2.424  0.0136  0.4428 -0.0060
 8521TIP3    H125499   3.261   6.477   2.484 -0.7873 -1.2057  0.7564
 8521TIP3    H225500   3.272   6.438   2.339  1.0268  2.6180 -0.2172
 8522TIP3   OH225501   2.659   7.858   3.560  0.0004 -0.4978  0.2619
 8522TIP3    H125502   2.722   7.908   3.509  0.0320 -1.8585 -1.0400
 8522TIP3    H225503   2.661   7.900   3.647  0.6709  1.1838 -0.5348
 8523TIP3   OH225504   6.389   6.220   3.211 -0.1418  0.6967  0.2518
 8523TIP3    H125505   6.428   6.187   3.130  2.2462 -0.6263  1.8831
 8523TIP3    H225506   6.413   6.313   3.213 -0.8438  0.9173 -0.8945
 8524TIP3   OH225507   7.691   1.348   3.547  0.1830 -0.1520 -0.6032
 8524TIP3    H125508   7.647   1.316   3.468 -1.4190  0.0408  0.1802
 8524TIP3    H225509   7.729   1.432   3.522  0.1330 -0.3371 -1.3079
 8525TIP3   OH225510   5.050   6.600   2.873 -0.2960  0.2021  0.1718
 8525TIP3    H125511   5.057   6.562   2.960 -0.1223  0.6188  0.3424
 8525TIP3    H225512   5.101   6.541   2.817 -0.0105  0.2002  0.4355
 8526TIP3   OH225513   2.775   6.803   1.870 -0.0032 -0.1515  0.2637
 8526TIP3    H125514   2.856   6.802   1.921 -0.5326  0.9258  1.1586
 8526TIP3    H225515   2.800   6.844   1.787  0.4327 -0.0766  0.4290
 8527TIP3   OH225516   6.991   5.258   2.886  0.5414 -0.3769  0.0721
 8527TIP3    H125517   7.017   5.178   2.841 -3.4458 -2.8765  1.9027
 8527TIP3    H225518   7.006   5.238   2.979  1.1732  1.7348  0.4503
 8528TIP3   OH225519   3.366   7.415   3.375  0.0839  0.5399 -0.1626
 8528TIP3    H125520   3.333   7.493   3.330  1.9106  0.4626 -1.7215
 8528TIP3    H225521   3.443   7.390   3.324  1.2451 -0.5396  2.0748
 8529TIP3   OH225522   6.316   5.597   4.628 -0.1878 -0.1049  0.0837
 8529TIP3    H125523   6.245   5.540   4.657 -0.4458  0.5988  0.8370
 8529TIP3    H225524   6.395   5.542   4.634 -0.4758 -0.4686  0.5388
 8530TIP3   OH225525   5.989   7.313   4.796 -0.4678 -0.1771  0.0924
 8530TIP3    H125526   5.933   7.389   4.782 -1.0536 -0.7431 -0.7401
 8530TIP3    H225527   6.019   7.320   4.886 -0.5239  1.0320  0.0129
 8531TIP3   OH225528   4.357   4.161   2.764 -0.1318  0.1185 -0.1796
 8531TIP3    H125529   4.353   4.132   2.672 -1.3804 -1.5073  0.3703
 8531TIP3    H225530   4.288   4.227   2.771  2.1032  2.6428 -1.2002
 8532TIP3   OH225531   4.745   5.769   4.467  0.2140 -0.3317 -0.1645
 8532TIP3    H125532   4.766   5.861   4.450 -1.8203  0.3232  0.6709
 8532TIP3    H225533   4.680   5.747   4.400  1.0542 -1.3276 -0.6684
 8533TIP3   OH225534   6.319   6.660   2.236 -0.1625  0.5719  0.3385
 8533TIP3    H125535   6.255   6.592   2.257 -0.4518  1.0286  0.9343
 8533TIP3    H225536   6.275   6.715   2.171 -0.3515  0.8388  0.6887
 8534TIP3   OH225537   6.414   5.074   5.795  0.3898 -0.0272 -0.6187
 8534TIP3    H125538   6.331   5.045   5.758  0.5954 -0.0974 -1.0238
 8534TIP3    H225539   6.446   5.141   5.735  1.0587 -0.6312 -0.9475
 8535TIP3   OH225540   2.434   5.776   6.113 -0.5013 -0.0176 -0.1130
 8535TIP3    H125541   2.378   5.840   6.069  0.2378  0.5340 -0.2699
 8535TIP3    H225542   2.464   5.821   6.192 -2.7349 -1.4034  1.5716
 8536TIP3   OH225543   6.197   5.974   2.820 -0.0389  0.6112 -0.1799
 8536TIP3    H125544   6.129   5.914   2.849 -0.7290  0.6590 -1.6104
 8536TIP3    H225545   6.189   6.050   2.877 -1.2587  0.6489 -0.3940
 8537TIP3   OH225546   3.875   6.398   2.053  0.3990 -0.1376 -0.0872
 8537TIP3    H125547   3.929   6.469   2.088  0.3578 -0.5480  0.8325
 8537TIP3    H225548   3.913   6.379   1.967  0.8324  0.5385 -0.0520
 8538TIP3   OH225549   3.961   7.319   3.898 -0.9787  0.0501 -0.2572
 8538TIP3    H125550   3.939   7.356   3.983 -2.1978  1.1036 -1.0023
 8538TIP3    H225551   3.885   7.267   3.874 -0.2336 -1.0482 -0.2759
 8539TIP3   OH225552   3.845   5.653   5.099  0.1106 -0.6853  0.0013
 8539TIP3    H125553   3.870   5.660   5.007  2.3360  0.2905  0.6346
 8539TIP3    H225554   3.779   5.584   5.101 -2.6706  1.7667 -2.8064
 8540TIP3   OH225555   4.816   3.960   5.282  0.1480 -0.0868 -0.2062
 8540TIP3    H125556   4.750   3.929   5.345 -1.5896 -0.5958 -2.2154
 8540TIP3    H225557   4.849   3.881   5.241  0.6835  0.2938 -0.5074
 8541TIP3   OH225558   4.159   6.269   3.089  0.6480 -0.3011 -0.1713
 8541TIP3    H125559   4.069   6.302   3.091  0.8079  0.1124  0.1850
 8541TIP3    H225560   4.174   6.249   2.996  0.5660  0.6660 -0.3926
 8542TIP3   OH225561   3.147   4.817   2.822  0.0135  0.5699 -0.1921
 8542TIP3    H125562   3.225   4.840   2.773 -0.5455  3.3553  0.1637
 8542TIP3    H225563   3.177   4.752   2.886  1.2817 -1.0625 -2.3509
 8543TIP3   OH225564   6.351   7.919   2.866  0.0825 -0.5597  0.0707
 8543TIP3    H125565   6.430   7.912   2.812 -0.2142 -0.3145 -0.4047
 8543TIP3    H225566   6.292   7.853   2.830 -0.5070  0.3111 -0.5876
 8544TIP3   OH225567   4.093   3.837   5.417  0.3837 -0.2476 -0.4498
 8544TIP3    H125568   3.999   3.834   5.402  0.3332 -0.1638 -0.1579
 8544TIP3    H225569   4.129   3.876   5.337  0.1965 -0.5023 -0.6594
 8545TIP3   OH225570   4.535   6.064   5.789 -0.3770  0.3505  0.0704
 8545TIP3    H125571   4.528   5.992   5.852  2.1755 -0.6773 -0.7625
 8545TIP3    H225572   4.491   6.031   5.711 -0.6742  0.3578  0.2322
 8546TIP3   OH225573   4.570   6.969   3.534 -0.1265 -0.2778  0.2768
 8546TIP3    H125574   4.567   6.874   3.520 -0.9662 -0.0601 -1.0913
 8546TIP3    H225575   4.478   6.995   3.541  0.0226  0.6769 -1.1264
 8547TIP3   OH225576   3.885   6.498   5.917  0.0202 -0.2903  0.0746
 8547TIP3    H125577   3.970   6.453   5.923 -0.1577 -0.5426  0.6876
 8547TIP3    H225578   3.893   6.572   5.977 -0.1108 -0.1766 -0.0491
 8548TIP3   OH225579   3.869   7.215   2.807 -0.1279  0.9951 -0.7437
 8548TIP3    H125580   3.853   7.188   2.898 -1.0070  0.0152 -1.1799
 8548TIP3    H225581   3.782   7.232   2.771  0.1156  0.0030 -1.8171
 8549TIP3   OH225582   2.979   6.564   3.690 -0.0637 -0.0442  0.0761
 8549TIP3    H125583   2.986   6.496   3.758 -0.3596  1.2112  1.3796
 8549TIP3    H225584   3.065   6.607   3.689  1.1407 -2.3113 -2.8189
 8550TIP3   OH225585   2.749   7.302   5.125  0.2895 -0.3995  0.2761
 8550TIP3    H125586   2.798   7.220   5.132  0.3522 -0.5776 -2.0354
 8550TIP3    H225587   2.659   7.277   5.147  0.7995 -0.5044  2.3521
 8551TIP3   OH225588   7.604   0.537   4.583 -0.3258 -0.0084 -0.5229
 8551TIP3    H125589   7.603   0.520   4.489 -0.8921  0.9042 -0.6871
 8551TIP3    H225590   7.585   0.453   4.623 -0.0185 -0.4154 -1.2299
 8552TIP3   OH225591   4.267   6.939   3.488 -0.4250 -0.2244  0.1701
 8552TIP3    H125592   4.244   6.980   3.404 -0.0514 -0.1321  0.1131
 8552TIP3    H225593   4.188   6.947   3.541 -1.2288 -1.8103 -0.7606
 8553TIP3   OH225594   3.456   6.242   2.863  0.1655  0.2884  0.0875
 8553TIP3    H125595   3.511   6.168   2.838  0.5703  1.2444 -1.9712
 8553TIP3    H225596   3.370   6.203   2.882  0.0584 -0.6091 -2.0808
 8554TIP3   OH225597   5.007   7.988   3.891 -0.1079 -0.0941  0.0003
 8554TIP3    H125598   4.944   7.916   3.888  0.4518 -0.6192  0.6634
 8554TIP3    H225599   4.960   8.060   3.932 -0.1891 -0.5867  0.7867
 8555TIP3   OH225600   5.739   0.293   2.956  0.1416 -0.2624 -0.5433
 8555TIP3    H125601   5.708   0.263   2.871 -2.9153  1.9557 -0.3159
 8555TIP3    H225602   5.662   0.287   3.013  1.8132 -0.5489  1.7684
 8556TIP3   OH225603   4.803   7.047   3.644 -0.1013  0.3214 -0.3488
 8556TIP3    H125604   4.734   7.014   3.587 -1.3242  0.0935  1.2393
 8556TIP3    H225605   4.883   7.005   3.612 -0.9005 -0.4506 -1.3543
 8557TIP3   OH225606   6.724   0.245   5.531 -0.4826  0.0559  0.1997
 8557TIP3    H125607   6.801   0.290   5.565 -0.9388  1.1625 -0.2116
 8557TIP3    H225608   6.651   0.279   5.583 -0.9601  0.5270 -0.7562
 8558TIP3   OH225609   4.280   5.401   4.668 -0.4350 -0.8143  0.1544
 8558TIP3    H125610   4.215   5.331   4.671 -0.0456 -1.1162  1.8386
 8558TIP3    H225611   4.230   5.481   4.679 -0.2983 -1.1911  4.2780
 8559TIP3   OH225612   6.010   5.637   4.332 -0.2933  0.3743  0.1426
 8559TIP3    H125613   5.944   5.706   4.324 -0.6617 -0.0463 -0.5025
 8559TIP3    H225614   6.066   5.665   4.405 -0.0828  1.6449 -0.4927
 8560TIP3   OH225615   3.002   4.971   2.496  0.0779  0.4031 -0.1064
 8560TIP3    H125616   3.024   4.881   2.520 -1.2105  0.0483 -0.1778
 8560TIP3    H225617   2.910   4.980   2.520  0.0234  1.5072 -0.6792
 8561TIP3   OH225618   2.754   5.117   5.496 -0.3746 -0.2798 -0.6150
 8561TIP3    H125619   2.805   5.196   5.478 -0.4359 -0.2335 -0.5890
 8561TIP3    H225620   2.699   5.107   5.418 -0.9626  0.1754 -0.2642
 8562TIP3   OH225621   4.417   2.648   2.204 -0.3062  0.0888  0.0895
 8562TIP3    H125622   4.463   2.724   2.167 -1.7920 -0.0117 -2.0885
 8562TIP3    H225623   4.366   2.614   2.131 -2.0942 -1.1305  1.8602
 8563TIP3   OH225624   3.904   7.880   3.840 -0.5349 -0.3794  0.5566
 8563TIP3    H125625   3.829   7.938   3.856  0.8840  1.4050  0.9847
 8563TIP3    H225626   3.934   7.856   3.928  1.5148  1.7756  0.4890
 8564TIP3   OH225627   3.173   7.193   3.371  0.7897  0.2955 -0.0683
 8564TIP3    H125628   3.199   7.270   3.422  1.9511 -0.2900  0.2359
 8564TIP3    H225629   3.081   7.209   3.347  1.6165  2.7513 -1.7881
 8565TIP3   OH225630   5.278   5.839   4.017  0.2866 -0.5524  0.8437
 8565TIP3    H125631   5.211   5.899   3.983  1.3167  0.6565  0.9472
 8565TIP3    H225632   5.322   5.888   4.086  1.8009 -1.0563  0.2586
 8566TIP3   OH225633   3.641   4.973   4.355 -0.2049 -0.2712 -0.2042
 8566TIP3    H125634   3.710   5.013   4.302  1.0104 -0.3003  1.3233
 8566TIP3    H225635   3.605   4.904   4.299  1.9048 -1.1335 -0.5450
 8567TIP3   OH225636   3.304   5.882   2.433 -0.3473 -0.0654  0.3703
 8567TIP3    H125637   3.292   5.860   2.526  0.1118  0.7615  0.6253
 8567TIP3    H225638   3.306   5.977   2.431  1.0284 -0.1013 -0.3244
 8568TIP3   OH225639   6.019   0.406   5.742 -0.5877  0.2846 -0.2278
 8568TIP3    H125640   6.002   0.354   5.663 -0.2670  1.2275 -0.9275
 8568TIP3    H225641   6.113   0.399   5.757 -0.5162  0.7895 -0.4205
 8569TIP3   OH225642   6.002   7.234   3.955 -0.3217 -0.2324 -0.1949
 8569TIP3    H125643   5.927   7.292   3.940  0.1485  0.2805 -0.6014
 8569TIP3    H225644   6.035   7.260   4.040 -0.6104 -0.4678 -0.0091
 8570TIP3   OH225645   4.288   6.048   4.121 -0.6693  0.3170 -0.5285
 8570TIP3    H125646   4.364   6.024   4.067 -1.7359 -0.1496 -1.8303
 8570TIP3    H225647   4.280   6.142   4.111 -0.3584  0.3466 -0.5035
 8571TIP3   OH225648   3.141   6.266   4.716 -0.3454  0.6085 -0.2489
 8571TIP3    H125649   3.060   6.317   4.715  0.5972  2.1393  0.4107
 8571TIP3    H225650   3.175   6.277   4.805  0.5201 -0.1436 -0.4832
 8572TIP3   OH225651   3.709   7.809   4.708 -0.7881  0.4185 -0.0117
 8572TIP3    H125652   3.678   7.746   4.642  1.2988  0.4561 -1.0636
 8572TIP3    H225653   3.717   7.892   4.661  0.7330  0.4402  0.2602
 8573TIP3   OH225654   5.433   5.291   4.243  0.4331  0.1097  0.2606
 8573TIP3    H125655   5.473   5.367   4.285 -1.3992 -0.4558  3.2000
 8573TIP3    H225656   5.439   5.221   4.308  0.2212 -1.7116 -1.6037
 8574TIP3   OH225657   5.884   6.759   5.308  0.0041  0.1787  1.0089
 8574TIP3    H125658   5.923   6.673   5.326 -0.3350 -0.3550 -0.7412
 8574TIP3    H225659   5.833   6.746   5.228  0.1774  2.0866  0.5684
 8575TIP3   OH225660   8.470   3.779   3.246  0.5278 -0.9254  0.7165
 8575TIP3    H125661   8.419   3.699   3.259  1.3129 -1.5630 -0.0300
 8575TIP3    H225662   8.421   3.828   3.180  0.5114 -1.2065  0.5195
 8576TIP3   OH225663   4.482   4.382   4.323 -0.2866 -0.2608 -0.2567
 8576TIP3    H125664   4.489   4.287   4.329  2.7660 -0.1214 -0.5977
 8576TIP3    H225665   4.430   4.407   4.400 -0.9293 -2.1717 -0.0431
 8577TIP3   OH225666   4.846   7.011   5.877 -0.4054  0.5584 -0.7057
 8577TIP3    H125667   4.831   6.971   5.791 -0.1870 -0.6018 -0.2092
 8577TIP3    H225668   4.803   7.097   5.871  0.8251  1.0943 -2.4551
 8578TIP3   OH225669   0.424   0.580   4.120 -0.0284  0.6624 -0.0128
 8578TIP3    H125670   0.330   0.562   4.120 -0.0029  0.5200  0.3651
 8578TIP3    H225671   0.435   0.651   4.057 -0.3830  0.6375 -0.1034
 8579TIP3   OH225672   7.711   0.631   3.892 -0.4124 -0.4710  0.0246
 8579TIP3    H125673   7.718   0.545   3.852  0.9163 -0.2265 -0.3062
 8579TIP3    H225674   7.769   0.627   3.968 -0.2727  0.1600 -0.0451
 8580TIP3   OH225675   2.547   6.571   3.549  0.0641 -0.5461  0.2376
 8580TIP3    H125676   2.459   6.601   3.574  0.7269  2.1484 -0.5620
 8580TIP3    H225677   2.533   6.482   3.518 -2.4080 -0.1494  0.0654
 8581TIP3   OH225678   4.162   5.590   3.930 -0.3898 -0.3902  0.1587
 8581TIP3    H125679   4.156   5.669   3.984  0.1324 -0.7073  0.6862
 8581TIP3    H225680   4.238   5.606   3.874 -0.4653 -0.3913  0.0561
 8582TIP3   OH225681   5.686   6.815   2.808  0.1142  0.3201  0.1865
 8582TIP3    H125682   5.612   6.835   2.866  1.5275  1.1464  1.7253
 8582TIP3    H225683   5.675   6.876   2.735 -0.6430  0.5487  0.4776
 8583TIP3   OH225684   5.813   6.815   5.870 -0.5266  0.0654 -0.6803
 8583TIP3    H125685   5.740   6.785   5.925 -0.4536  0.0637 -0.5843
 8583TIP3    H225686   5.865   6.870   5.928  1.1909 -2.3181  0.1401
 8584TIP3   OH225687   6.579   6.130   3.712 -0.6246  0.3586  0.0080
 8584TIP3    H125688   6.533   6.088   3.784  0.8354 -1.3791 -0.0329
 8584TIP3    H225689   6.619   6.208   3.751 -2.9264  1.4683  0.2038
 8585TIP3   OH225690   1.983   1.056   1.956 -0.2876  0.1582 -0.0542
 8585TIP3    H125691   1.943   1.022   1.876  1.3479 -2.8454  0.3135
 8585TIP3    H225692   1.914   1.051   2.022 -1.2436  1.3816 -0.9550
 8586TIP3   OH225693   6.822   7.432   4.823 -0.4766  0.3741 -0.4222
 8586TIP3    H125694   6.808   7.337   4.827 -2.6342  0.6897  0.2704
 8586TIP3    H225695   6.776   7.466   4.900  0.9176  1.9264 -0.2413
 8587TIP3   OH225696   5.977   7.814   2.849 -0.0497  0.2599  0.2717
 8587TIP3    H125697   6.046   7.846   2.791  0.2685 -0.6651  0.1270
 8587TIP3    H225698   6.024   7.779   2.925 -0.3978  0.2736  0.4956
 8588TIP3   OH225699   3.528   6.888   3.090 -0.2324 -0.0161  0.1238
 8588TIP3    H125700   3.505   6.933   3.009 -1.2136 -0.7526 -0.0253
 8588TIP3    H225701   3.501   6.948   3.160  0.3717  0.5052 -0.0902
 8589TIP3   OH225702   6.008   6.494   5.277 -0.7531 -0.0074 -0.4382
 8589TIP3    H125703   6.050   6.511   5.361  0.4145 -1.5248 -0.6943
 8589TIP3    H225704   6.079   6.465   5.220 -1.3700  1.7526 -2.1977
 8590TIP3   OH225705   4.891   6.916   4.008 -0.3963 -0.0450  0.0143
 8590TIP3    H125706   4.905   6.851   4.077 -0.1209 -0.0324 -0.0289
 8590TIP3    H225707   4.800   6.903   3.981 -0.5338  0.0250  0.4550
 8591TIP3   OH225708   4.716   5.222   5.598  1.0400  0.0503  0.4093
 8591TIP3    H125709   4.627   5.187   5.588  0.3783  2.1645 -1.6594
 8591TIP3    H225710   4.706   5.293   5.662  0.6205  2.1195 -1.8519
 8592TIP3   OH225711   5.917   6.411   3.056  0.2148 -0.2171 -0.0267
 8592TIP3    H125712   5.877   6.425   3.142 -0.0470 -1.4424  0.0689
 8592TIP3    H225713   6.011   6.408   3.074  0.0463 -3.0483  0.6447
 8593TIP3   OH225714   4.893   6.766   3.547  0.3462  0.0347  0.5422
 8593TIP3    H125715   4.855   6.692   3.594 -1.2637  0.6011  0.1510
 8593TIP3    H225716   4.822   6.829   3.538  1.8289  1.9032  1.3757
 8594TIP3   OH225717   6.862   5.474   4.152  0.2580  0.0225  0.3696
 8594TIP3    H125718   6.941   5.422   4.134  0.8622  1.1974 -0.4133
 8594TIP3    H225719   6.859   5.480   4.247 -0.6514 -2.7053  0.5499
 8595TIP3   OH225720   5.010   5.621   3.161 -0.0279 -0.1361  0.0650
 8595TIP3    H125721   4.931   5.620   3.215  0.6778 -1.3792  1.1185
 8595TIP3    H225722   5.038   5.713   3.161 -0.5022  0.0183  1.1364
 8596TIP3   OH225723   7.977   5.657   2.980 -0.4252 -0.0064 -0.1039
 8596TIP3    H125724   8.001   5.605   2.903  3.4549 -0.3398  1.1978
 8596TIP3    H225725   7.969   5.746   2.947  0.4204 -0.2698 -1.0682
 8597TIP3   OH225726   3.340   7.278   2.780  0.2626 -0.3536  0.3129
 8597TIP3    H125727   3.264   7.336   2.775  0.9606  0.5309 -0.3079
 8597TIP3    H225728   3.408   7.324   2.730  1.7640 -0.2455  2.4094
 8598TIP3   OH225729   6.167   6.442   4.257 -0.0322  0.1239  0.4889
 8598TIP3    H125730   6.143   6.520   4.308 -1.5061  0.2458 -0.3731
 8598TIP3    H225731   6.262   6.450   4.246  0.1098  0.8344  1.9957
 8599TIP3   OH225732   4.388   4.135   5.182 -0.4505  0.2145  0.5515
 8599TIP3    H125733   4.391   4.192   5.259  1.6923  1.7784 -0.6184
 8599TIP3    H225734   4.315   4.169   5.130  0.4736  1.5455  0.1208
 8600TIP3   OH225735   8.164   6.376   2.170 -0.2640  0.4252 -0.0147
 8600TIP3    H125736   8.140   6.459   2.210  0.7553  1.3226 -1.2494
 8600TIP3    H225737   8.108   6.368   2.093 -0.6681 -0.2476  0.3408
 8601TIP3   OH225738   7.377   7.214   1.087  0.2381  0.2762 -0.8526
 8601TIP3    H125739   7.467   7.198   1.115 -0.2460 -0.0808  0.5196
 8601TIP3    H225740   7.366   7.156   1.011  1.1755  0.3539 -1.0589
 8602TIP3   OH225741   0.272   0.123   1.401 -0.2901 -0.0708 -0.0575
 8602TIP3    H125742   0.200   0.106   1.340  0.0361  0.0343 -0.4779
 8602TIP3    H225743   0.285   0.040   1.446 -1.5915  0.2953  1.0099
 8603TIP3   OH225744   6.201   7.865   2.636  0.5261  0.0926  0.1455
 8603TIP3    H125745   6.138   7.872   2.564  0.3315 -1.8269  0.0999
 8603TIP3    H225746   6.256   7.943   2.628 -0.8431  0.9726 -0.7860
 8604TIP3   OH225747   5.032   7.497   2.803 -0.4174 -0.3535  0.3670
 8604TIP3    H125748   5.059   7.431   2.867 -1.0779 -0.8336  0.1525
 8604TIP3    H225749   5.114   7.534   2.771 -0.0471 -1.0308  0.5255
 8605TIP3   OH225750   5.916   6.494   2.520 -0.8086  0.5536  0.1340
 8605TIP3    H125751   5.901   6.572   2.574  0.8202  1.3145 -0.4696
 8605TIP3    H225752   5.966   6.435   2.577 -0.8223  0.5201  0.1121
 8606TIP3   OH225753   5.288   5.279   1.947 -0.1172  0.2574 -0.3484
 8606TIP3    H125754   5.316   5.278   1.856 -0.5216  0.0638 -0.4703
 8606TIP3    H225755   5.254   5.367   1.961  1.9149  0.9982  0.2192
 8607TIP3   OH225756   6.556   7.803   2.993 -0.2533 -0.0563  0.3932
 8607TIP3    H125757   6.467   7.817   2.960 -0.2944 -1.3666 -0.0844
 8607TIP3    H225758   6.543   7.758   3.077 -0.0568 -0.0749  0.4125
 8608TIP3   OH225759   6.747   6.440   3.532  0.0920  0.1162 -0.5056
 8608TIP3    H125760   6.829   6.471   3.492  0.2010 -0.0112 -0.3844
 8608TIP3    H225761   6.768   6.431   3.625 -0.4732  1.4531 -0.2431
 8609TIP3   OH225762   4.514   5.318   4.577 -0.1997 -0.2028  0.0376
 8609TIP3    H125763   4.429   5.360   4.592  0.0476  0.1550  0.4501
 8609TIP3    H225764   4.575   5.391   4.569  0.0846 -0.4633 -0.1913
 8610TIP3   OH225765   6.287   6.886   5.055  0.2263  0.1443 -0.3296
 8610TIP3    H125766   6.311   6.794   5.046  0.9340  0.2103  0.8191
 8610TIP3    H225767   6.327   6.929   4.979 -0.5001 -0.5576 -1.1244
 8611TIP3   OH225768   7.555   0.610   3.292  0.0830  0.4793  0.3205
 8611TIP3    H125769   7.511   0.656   3.220  0.7063 -1.9585 -1.7116
 8611TIP3    H225770   7.642   0.648   3.295  0.2987  0.0928 -0.7495
 8612TIP3   OH225771   1.304   0.704   2.367 -0.0863 -0.3386 -0.2707
 8612TIP3    H125772   1.360   0.727   2.441  0.9817  0.3074 -1.2558
 8612TIP3    H225773   1.217   0.692   2.405  0.8446 -2.0329  1.3855
 8613TIP3   OH225774   6.143   7.004   4.489 -0.0281 -0.5066  0.0548
 8613TIP3    H125775   6.125   7.090   4.528  0.9397 -0.8109  1.2121
 8613TIP3    H225776   6.222   7.018   4.436  0.0967 -0.6651  0.1988
 8614TIP3   OH225777   6.110   6.216   2.946 -0.0573  0.6432 -0.1781
 8614TIP3    H125778   6.039   6.177   2.997  0.5276  0.5525  0.5746
 8614TIP3    H225779   6.141   6.288   3.000  1.4854 -0.3119  0.2298
 8615TIP3   OH225780   6.346   5.534   4.974  0.0772 -0.4896 -0.0596
 8615TIP3    H125781   6.326   5.536   5.068  0.4616  0.2101  0.0171
 8615TIP3    H225782   6.368   5.625   4.953  1.0524 -0.8365 -0.5881
 8616TIP3   OH225783   6.261   6.905   3.686 -0.0213  0.2216  0.7358
 8616TIP3    H125784   6.245   6.994   3.654  0.4031  0.0017 -0.0959
 8616TIP3    H225785   6.189   6.853   3.648  0.1252  0.0803  0.6506
 8617TIP3   OH225786   6.117   7.639   3.393 -0.0537 -0.2173 -0.0500
 8617TIP3    H125787   6.167   7.720   3.392 -1.0919  0.4603  0.9247
 8617TIP3    H225788   6.038   7.659   3.344 -1.2317 -0.0036  1.8670
 8618TIP3   OH225789   6.034   5.533   4.644  0.0024  0.1845 -0.4665
 8618TIP3    H125790   5.991   5.616   4.662  0.1523  0.4236 -1.2188
 8618TIP3    H225791   5.967   5.467   4.662 -0.7032  0.5554 -1.6534
 8619TIP3   OH225792   5.384   4.974   2.339 -0.0347 -0.2324  0.7738
 8619TIP3    H125793   5.336   4.988   2.258  0.4623  3.1539  0.9900
 8619TIP3    H225794   5.474   5.000   2.319 -0.0288  1.2399  2.5214
 8620TIP3   OH225795   0.136   4.953   2.649 -0.2278  0.0975 -0.0445
 8620TIP3    H125796   0.199   4.886   2.677 -0.1269 -0.6975 -2.0913
 8620TIP3    H225797   0.185   5.007   2.586 -0.7768  1.1684  0.4331
 8621TIP3   OH225798   0.598   0.878   0.872 -0.4641  0.1397 -0.2642
 8621TIP3    H125799   0.540   0.888   0.948 -0.2630 -0.4334 -0.0337
 8621TIP3    H225800   0.671   0.938   0.890 -0.5783  0.2502 -0.1641
 8622TIP3   OH225801   7.687   7.165   3.718 -0.0308 -0.0945  0.1235
 8622TIP3    H125802   7.643   7.205   3.793  0.5185  0.3492  0.2048
 8622TIP3    H225803   7.776   7.200   3.720  0.0507 -0.2532 -0.6072
 8623TIP3   OH225804   6.626   5.741   4.006 -0.0704  0.0830 -0.0837
 8623TIP3    H125805   6.684   5.767   4.077 -0.9090  0.3569  0.5065
 8623TIP3    H225806   6.580   5.822   3.982 -0.0228 -0.0741 -0.7296
 8624TIP3   OH225807   4.020   6.824   2.349  0.5913  0.0864 -0.2607
 8624TIP3    H125808   4.096   6.876   2.324  0.6948  0.4303  0.7443
 8624TIP3    H225809   3.992   6.861   2.433  0.5972 -1.3875  0.4070
 8625TIP3   OH225810   5.899   7.566   2.084  0.2054  0.2235 -0.1292
 8625TIP3    H125811   5.891   7.474   2.061 -0.1519  0.0976  0.4702
 8625TIP3    H225812   5.808   7.595   2.095  0.3489  0.4080  0.5821
 8626TIP3   OH225813   6.540   5.212   2.382 -0.0786 -0.1918  0.1433
 8626TIP3    H125814   6.482   5.200   2.457  2.0369 -1.1745  1.6590
 8626TIP3    H225815   6.488   5.263   2.320 -1.8089  0.7684  2.3134
 8627TIP3   OH225816   4.582   5.698   4.700  0.5153 -0.1719  0.2264
 8627TIP3    H125817   4.653   5.710   4.638  0.8789  1.5649  0.9203
 8627TIP3    H225818   4.625   5.667   4.780  0.6443  1.6697  0.9044
 8628TIP3   OH225819   4.717   7.142   4.471  0.0796  0.0041  0.2100
 8628TIP3    H125820   4.631   7.128   4.511  0.1391 -1.0482 -0.0199
 8628TIP3    H225821   4.707   7.110   4.381  0.5643  0.3649  0.0292
 8629TIP3   OH225822   5.647   6.179   5.124 -0.1942  0.1002 -0.1412
 8629TIP3    H125823   5.664   6.163   5.032 -0.1168  0.7807 -0.2515
 8629TIP3    H225824   5.575   6.120   5.147  0.7802 -1.1395 -0.2515
 8630TIP3   OH225825   8.103   4.375   3.205  0.1772 -0.0719 -0.3218
 8630TIP3    H125826   8.068   4.369   3.294 -0.9749  0.4427 -0.7244
 8630TIP3    H225827   8.140   4.289   3.188 -2.0452 -1.0850 -0.3129
 8631TIP3   OH225828   5.773   4.833   1.956  0.5466 -0.0382 -0.1527
 8631TIP3    H125829   5.698   4.795   2.002  1.4208 -0.0435  1.3056
 8631TIP3    H225830   5.846   4.826   2.018  1.0100  3.0176 -0.2668
 8632TIP3   OH225831   7.450   6.025   3.170  0.7987  0.2064  0.2660
 8632TIP3    H125832   7.527   5.998   3.120  0.4174  0.6415 -0.5831
 8632TIP3    H225833   7.379   5.971   3.135  0.7485 -0.3143  1.1636
 8633TIP3   OH225834   7.065   6.378   4.887 -0.0017 -0.2615 -0.4402
 8633TIP3    H125835   7.075   6.339   4.974  0.0249  2.4014  0.8239
 8633TIP3    H225836   7.155   6.393   4.857 -0.0169 -0.6137 -0.6670
 8634TIP3   OH225837   7.472   7.636   3.092 -0.1901 -0.5790  0.8342
 8634TIP3    H125838   7.454   7.545   3.114  2.2199 -1.6137 -1.1860
 8634TIP3    H225839   7.492   7.634   2.998  2.1589  1.6609  1.2478
 8635TIP3   OH225840   5.253   6.560   3.992  0.2657  0.1742  0.2769
 8635TIP3    H125841   5.303   6.534   3.914 -1.3437  2.3775 -1.5634
 8635TIP3    H225842   5.163   6.539   3.970 -0.2549  1.2064  1.3681
 8636TIP3   OH225843   5.910   5.323   4.322 -0.3021  0.0396 -0.5344
 8636TIP3    H125844   5.933   5.415   4.314 -0.2857  0.1145  0.3570
 8636TIP3    H225845   5.971   5.288   4.387 -0.0817 -0.6779 -1.1168
 8637TIP3   OH225846   6.164   6.774   5.633 -0.3397  0.0394  0.3561
 8637TIP3    H125847   6.229   6.823   5.683  0.6053 -0.0957 -0.7400
 8637TIP3    H225848   6.115   6.841   5.585  0.1161  0.0052 -0.1542
 8638TIP3   OH225849   6.602   5.501   2.418  0.3977 -0.4103  0.0369
 8638TIP3    H125850   6.516   5.465   2.437 -0.5706  0.8334 -1.8753
 8638TIP3    H225851   6.623   5.468   2.331  2.7473 -2.3070  1.2644
 8639TIP3   OH225852   4.372   6.647   4.594  0.4897 -0.5007 -0.7601
 8639TIP3    H125853   4.453   6.636   4.544  1.6116 -0.9019  1.1101
 8639TIP3    H225854   4.379   6.584   4.665 -0.2482  1.3155  0.9602
 8640TIP3   OH225855   5.644   5.177   3.504  0.2922  0.4576 -0.0290
 8640TIP3    H125856   5.651   5.214   3.592 -2.2130  0.5565  0.1833
 8640TIP3    H225857   5.691   5.238   3.448 -1.4080  2.4968  0.7158
 8641TIP3   OH225858   5.358   7.046   3.390  0.1458 -0.1925 -0.2138
 8641TIP3    H125859   5.441   7.085   3.362  0.5071  0.2852  1.4336
 8641TIP3    H225860   5.368   7.034   3.484 -1.5764 -0.3373 -0.0253
 8642TIP3   OH225861   5.794   5.532   1.513  0.5869  0.5477 -0.5968
 8642TIP3    H125862   5.739   5.454   1.505 -1.4083  1.9478 -1.1409
 8642TIP3    H225863   5.822   5.533   1.604  2.5376 -2.0132 -1.1243
 8643TIP3   OH225864   4.002   5.649   3.701 -0.1005 -0.3406 -0.1314
 8643TIP3    H125865   3.983   5.559   3.673 -1.9047 -0.0974  0.2527
 8643TIP3    H225866   4.076   5.640   3.762  0.2107 -1.4679 -0.6545
 8644TIP3   OH225867   5.844   7.288   2.349 -0.3071 -0.2665  0.2626
 8644TIP3    H125868   5.823   7.257   2.261  2.7477 -0.3348 -0.4953
 8644TIP3    H225869   5.760   7.287   2.396 -1.6429 -2.0125 -2.0786
 8645TIP3   OH225870   3.893   7.339   4.173  0.3088  1.1233  0.5826
 8645TIP3    H125871   3.822   7.346   4.238 -0.3565  0.7008 -0.0873
 8645TIP3    H225872   3.959   7.401   4.203  0.1764  0.6550  1.8803
 8646TIP3   OH225873   0.140   1.775   5.497 -0.2790  0.6148 -0.1652
 8646TIP3    H125874   0.199   1.700   5.496  0.4650  1.1910 -0.5463
 8646TIP3    H225875   0.108   1.780   5.587  0.2180  0.2660  0.0334
 8647TIP3   OH225876   4.236   5.819   6.231  0.4507  0.0963  0.0487
 8647TIP3    H125877   4.270   5.836   6.143  0.8664  0.1153  0.2146
 8647TIP3    H225878   4.291   5.870   6.289 -0.0817  0.4016  0.2885
 8648TIP3   OH225879   3.773   5.729   3.125 -0.0657 -0.5986  0.7392
 8648TIP3    H125880   3.739   5.641   3.113  0.8843 -0.9503  0.6002
 8648TIP3    H225881   3.775   5.741   3.220 -0.9756 -0.4136  0.7403
 8649TIP3   OH225882   8.128   5.993   5.223 -0.0427 -0.2045  0.0731
 8649TIP3    H125883   8.186   6.029   5.291  0.7967  0.1601 -0.8227
 8649TIP3    H225884   8.133   6.056   5.151 -1.3105 -0.3366 -0.1430
 8650TIP3   OH225885   4.654   5.587   3.530 -0.4822  0.2245  0.1783
 8650TIP3    H125886   4.673   5.605   3.622 -2.4763 -1.3185  0.9441
 8650TIP3    H225887   4.661   5.492   3.522 -0.8284  0.2954 -1.1556
 8651TIP3   OH225888   5.656   7.756   4.302 -0.3535  0.4472 -0.6638
 8651TIP3    H125889   5.616   7.823   4.358  1.5112  0.8822  0.1690
 8651TIP3    H225890   5.746   7.749   4.333 -0.0369 -1.2112 -1.8916
 8652TIP3   OH225891   6.619   6.323   4.657  0.3210  0.5359 -0.0826
 8652TIP3    H125892   6.700   6.276   4.639  0.1849  0.5267 -0.7012
 8652TIP3    H225893   6.578   6.333   4.571 -0.4164  0.3867  0.2493
 8653TIP3   OH225894   6.232   5.035   2.255  0.2533 -0.2089  0.0915
 8653TIP3    H125895   6.310   4.979   2.261 -0.6684 -1.4309  0.9493
 8653TIP3    H225896   6.220   5.047   2.161  2.4775  1.4701 -0.0362
 8654TIP3   OH225897   0.372   1.247   3.474 -0.3536 -0.5883 -0.0778
 8654TIP3    H125898   0.367   1.250   3.570  0.0926 -0.7324 -0.0497
 8654TIP3    H225899   0.292   1.291   3.445 -1.1325 -1.6737  0.3637
 8655TIP3   OH225900   4.624   6.221   2.585 -0.1095  0.2286 -0.2212
 8655TIP3    H125901   4.686   6.284   2.620  0.3564  0.4655 -1.4758
 8655TIP3    H225902   4.672   6.138   2.583  0.4088  0.5636 -1.8852
 8656TIP3   OH225903   7.697   0.187   4.007  0.2826  0.4326  0.2619
 8656TIP3    H125904   7.721   0.205   4.098  0.6343  1.2095  0.0163
 8656TIP3    H225905   7.602   0.201   4.004 -0.1028 -1.7202  1.0062
 8657TIP3   OH225906   4.436   7.109   1.667  0.1091  0.1193 -0.5140
 8657TIP3    H125907   4.507   7.070   1.717 -0.7695 -1.9983 -0.8530
 8657TIP3    H225908   4.477   7.139   1.586  0.4611 -2.2296 -1.2650
 8658TIP3   OH225909   0.094   0.273   3.269 -0.7180  0.1093  0.0410
 8658TIP3    H125910   0.055   0.189   3.246  0.7788 -0.6569  0.2472
 8658TIP3    H225911   0.149   0.296   3.195 -0.0550  0.2415  0.5700
 8659TIP3   OH225912   6.526   5.573   2.085  0.0500  0.1685 -0.0036
 8659TIP3    H125913   6.610   5.599   2.047 -0.8097  0.6142 -1.6843
 8659TIP3    H225914   6.480   5.655   2.099  0.0775 -0.0454  1.3778
 8660TIP3   OH225915   6.197   7.128   1.834  0.4221 -0.1050 -0.3773
 8660TIP3    H125916   6.138   7.099   1.904  2.8768  0.0781  1.8302
 8660TIP3    H225917   6.147   7.194   1.787 -1.8790 -1.3819  0.1684
 8661TIP3   OH225918   7.534   6.390   4.449 -0.5007  0.6190 -0.1202
 8661TIP3    H125919   7.524   6.482   4.473 -0.0812  0.5253  0.4289
 8661TIP3    H225920   7.544   6.390   4.354  3.0101  1.4455  0.1778
 8662TIP3   OH225921   2.450   0.488   2.374 -0.0017 -0.1983  0.3318
 8662TIP3    H125922   2.405   0.569   2.397 -0.2511  0.0757 -1.0385
 8662TIP3    H225923   2.390   0.418   2.401  0.6662  0.0218  2.4676
 8663TIP3   OH225924   8.435   0.494   3.261 -0.3301 -0.2756  0.0306
 8663TIP3    H125925   8.473   0.408   3.276  0.5431 -0.1332 -1.2809
 8663TIP3    H225926   8.399   0.489   3.173 -0.7655  0.5324  0.1583
 8664TIP3   OH225927   5.257   6.051   2.891 -0.0837 -0.1499  0.1397
 8664TIP3    H125928   5.344   6.012   2.879  0.8491  1.8898  0.0892
 8664TIP3    H225929   5.258   6.085   2.981 -0.5148  0.5836 -0.1265
 8665TIP3   OH225930   3.730   5.868   4.245 -0.0305  0.4098  0.0821
 8665TIP3    H125931   3.799   5.809   4.215 -0.5499  1.0862 -2.6163
 8665TIP3    H225932   3.734   5.942   4.184 -0.6083  2.2885  2.2614
 8666TIP3   OH225933   3.502   6.825   4.084 -0.7663  0.3296 -1.1640
 8666TIP3    H125934   3.518   6.840   3.991 -0.1762  0.6439 -1.0134
 8666TIP3    H225935   3.488   6.730   4.091  0.9666  0.0542 -1.3111
 8667TIP3   OH225936   3.872   5.268   5.259  0.0325  0.2174 -0.5009
 8667TIP3    H125937   3.923   5.245   5.337 -0.8267  0.1001  0.0372
 8667TIP3    H225938   3.845   5.184   5.222  0.9908  0.2585 -1.3012
 8668TIP3   OH225939   5.515   7.972   3.297  0.4565 -0.3894  0.3116
 8668TIP3    H125940   5.475   8.040   3.351 -2.9108 -0.6555 -1.7135
 8668TIP3    H225941   5.543   7.905   3.359 -2.5996 -0.3142  1.8876
 8669TIP3   OH225942   6.421   6.667   4.471 -0.0335  0.1424 -0.1132
 8669TIP3    H125943   6.488   6.724   4.433  0.1068 -0.3684 -0.6295
 8669TIP3    H225944   6.341   6.688   4.423  0.3785 -1.2700 -1.4273
 8670TIP3   OH225945   1.186   1.921   3.121  0.5819  0.3253  0.2722
 8670TIP3    H125946   1.092   1.937   3.118  0.9754  2.7416 -1.0029
 8670TIP3    H225947   1.219   1.958   3.039  2.6652 -0.2551  0.8199
 8671TIP3   OH225948   7.703   6.898   2.997  0.5036  0.6283  0.3126
 8671TIP3    H125949   7.730   6.837   3.066 -0.3492  0.8213  0.8178
 8671TIP3    H225950   7.613   6.874   2.976 -0.3402  2.6057  1.5209
 8672TIP3   OH225951   5.458   5.333   0.543 -0.2143  0.4984 -0.6138
 8672TIP3    H125952   5.385   5.395   0.535  1.6662  2.9205  0.4286
 8672TIP3    H225953   5.475   5.330   0.637  0.7539 -0.3969 -0.8201
 8673TIP3   OH225954   6.057   7.508   2.321 -0.2771  0.5258 -0.2982
 8673TIP3    H125955   6.000   7.539   2.251 -0.9080  0.6827  0.2769
 8673TIP3    H225956   6.030   7.418   2.336  0.9779 -0.0369 -1.3834
 8674TIP3   OH225957   6.990   7.587   2.108 -0.3434 -0.2753  0.0436
 8674TIP3    H125958   6.897   7.596   2.132 -0.2944  0.5696 -0.0628
 8674TIP3    H225959   6.999   7.638   2.027  0.2138 -0.3542  0.0541
 8675TIP3   OH225960   6.399   7.718   3.543 -0.0940 -0.4934  0.8560
 8675TIP3    H125961   6.380   7.727   3.450 -1.9523  0.5375  1.3031
 8675TIP3    H225962   6.422   7.807   3.571  0.6735 -0.8369  1.3441
 8676TIP3   OH225963   5.602   6.898   2.234 -0.2295 -0.5834 -0.0500
 8676TIP3    H125964   5.681   6.844   2.236 -1.3122 -2.1313  2.3893
 8676TIP3    H225965   5.635   6.987   2.218  1.9620 -1.3049  0.2891
 8677TIP3   OH225966   5.539   6.564   2.978  0.4675  0.3644 -0.4026
 8677TIP3    H125967   5.529   6.576   3.072  0.9293 -0.9867 -0.1837
 8677TIP3    H225968   5.487   6.487   2.957 -0.7256  1.4315 -1.4790
 8678TIP3   OH225969   6.663   0.801   3.059  0.1137 -0.2565  0.3887
 8678TIP3    H125970   6.586   0.819   3.114 -0.0199  0.8417 -0.1404
 8678TIP3    H225971   6.714   0.738   3.109 -0.7482 -0.3915  1.1083
 8679TIP3   OH225972   6.766   6.648   4.466  0.9493  0.5013  0.8418
 8679TIP3    H125973   6.750   6.643   4.560  0.8783  1.3484  0.8814
 8679TIP3    H225974   6.685   6.684   4.429  0.2547 -1.5922  0.2155
 8680TIP3   OH225975   6.882   4.350   2.130  0.0476 -0.0184 -0.2955
 8680TIP3    H125976   6.843   4.317   2.049  0.3347  1.0566 -0.8782
 8680TIP3    H225977   6.973   4.368   2.107 -0.1035  1.1929  0.0003
 8681TIP3   OH225978   2.714   6.499   2.476  0.2572  0.1538 -0.6290
 8681TIP3    H125979   2.733   6.568   2.539 -0.7079  1.5814 -1.8379
 8681TIP3    H225980   2.647   6.445   2.518  1.4826 -0.4503  0.5875
 8682TIP3   OH225981   6.704   5.052   4.211  0.0398 -0.6393 -0.2803
 8682TIP3    H125982   6.734   5.101   4.288  1.7160 -0.5084 -0.9971
 8682TIP3    H225983   6.676   4.967   4.246 -0.8622  0.0390  0.6892
 8683TIP3   OH225984   4.939   4.944   3.717 -0.6970  0.4212 -0.1628
 8683TIP3    H125985   4.935   5.016   3.654 -1.5023 -0.0912 -0.7063
 8683TIP3    H225986   4.891   4.976   3.794 -0.3887  0.7544 -0.1113
 8684TIP3   OH225987   6.306   5.497   4.280  0.0778 -0.3392 -0.2322
 8684TIP3    H125988   6.360   5.448   4.341 -1.4979 -0.5864  1.0011
 8684TIP3    H225989   6.309   5.446   4.199  1.0281 -0.7601  0.0561
 8685TIP3   OH225990   4.616   5.529   2.732 -0.1982  0.1456  0.8898
 8685TIP3    H125991   4.627   5.575   2.649  0.6318  0.0970  0.9712
 8685TIP3    H225992   4.704   5.524   2.769  0.5702 -5.6505 -1.2812
 8686TIP3   OH225993   7.622   5.680   3.785 -0.0803  0.0436 -0.0969
 8686TIP3    H125994   7.560   5.743   3.821 -0.8203 -0.7620  0.0692
 8686TIP3    H225995   7.705   5.700   3.829 -0.4680  0.4574  0.4521
 8687TIP3   OH225996   6.885   6.517   2.836  0.3914  0.6635  0.2733
 8687TIP3    H125997   6.908   6.500   2.744 -0.3012 -0.7019  0.3363
 8687TIP3    H225998   6.969   6.519   2.881  0.6836  0.3833 -0.2460
 8688TIP3   OH225999   5.264   6.374   3.254 -0.4919 -0.4767 -0.4548
 8688TIP3    H126000   5.221   6.449   3.212 -1.5590 -0.4957  0.5858
 8688TIP3    H226001   5.204   6.348   3.324  0.3848 -1.6310 -0.1221
 8689TIP3   OH226002   4.028   5.016   1.775  0.4174 -0.4788 -0.6664
 8689TIP3    H126003   4.113   4.998   1.736  1.6977  0.1057  1.7578
 8689TIP3    H226004   4.006   5.104   1.745 -1.0066 -1.9266 -4.1021
 8690TIP3   OH226005   6.235   6.525   2.814 -0.4559 -0.5010 -0.1989
 8690TIP3    H126006   6.253   6.596   2.751  0.9680 -0.9057 -0.2754
 8690TIP3    H226007   6.193   6.457   2.761  0.8795 -0.9033 -0.7680
 8691TIP3   OH226008   5.195   6.413   4.664  0.1918  0.3127 -0.0634
 8691TIP3    H126009   5.108   6.452   4.673  0.5583  1.3255 -0.7502
 8691TIP3    H226010   5.254   6.476   4.707  0.8763  0.8523 -1.7696
 8692TIP3   OH226011   4.549   4.871   4.655 -0.3834 -0.2629 -0.3200
 8692TIP3    H126012   4.642   4.889   4.670 -0.2908 -0.7468 -0.2906
 8692TIP3    H226013   4.522   4.822   4.733 -0.7116  0.0420 -0.2402
 8693TIP3   OH226014   8.047   0.275   5.013  0.1947 -0.5414 -0.0253
 8693TIP3    H126015   8.053   0.273   5.108  1.8096  0.8047 -0.0671
 8693TIP3    H226016   7.965   0.320   4.994 -0.2017 -0.9502  0.7162
 8694TIP3   OH226017   8.181   1.472   3.863 -0.4985 -0.1657  0.6817
 8694TIP3    H126018   8.091   1.447   3.883 -1.2191  1.2001 -0.7783
 8694TIP3    H226019   8.209   1.408   3.797 -0.7981  0.1378  0.2619
 8695TIP3   OH226020   6.456   6.484   1.876 -0.0429  0.0084 -0.2424
 8695TIP3    H126021   6.516   6.439   1.934  0.8055  0.3821 -0.8163
 8695TIP3    H226022   6.509   6.509   1.800 -1.1368 -0.5020 -1.1947
 8696TIP3   OH226023   6.261   7.192   2.726 -0.3768  0.0611  0.2981
 8696TIP3    H126024   6.294   7.235   2.805 -2.6819  3.2996 -0.3904
 8696TIP3    H226025   6.174   7.229   2.713 -1.5417 -3.1888 -1.6981
 8697TIP3   OH226026   2.661   1.719   0.590 -0.5962 -0.4281 -0.4093
 8697TIP3    H126027   2.756   1.730   0.584 -0.8932  1.3073 -2.1729
 8697TIP3    H226028   2.625   1.805   0.568 -2.5645 -0.7565  1.3838
 8698TIP3   OH226029   4.699   4.380   2.998  0.3230  0.3678 -0.8780
 8698TIP3    H126030   4.671   4.414   3.083 -0.7848 -1.7914 -0.3396
 8698TIP3    H226031   4.639   4.422   2.935 -0.9212 -0.4146 -0.2461
 8699TIP3   OH226032   6.441   6.899   2.140  0.3585  0.8997 -0.2781
 8699TIP3    H126033   6.483   6.868   2.060  2.4478  0.0989  1.0951
 8699TIP3    H226034   6.421   6.820   2.189 -0.4301  1.4149  0.2407
 8700TIP3   OH226035   5.262   7.504   3.777 -0.3937 -0.5660  0.3528
 8700TIP3    H126036   5.180   7.551   3.792 -1.0275 -1.6530  0.3018
 8700TIP3    H226037   5.314   7.521   3.856  0.0387  1.5451 -0.3416
 8701TIP3   OH226038   1.685   0.337   3.396  0.0647 -0.0155  0.0088
 8701TIP3    H126039   1.779   0.351   3.401  0.3545 -1.8074  0.0262
 8701TIP3    H226040   1.672   0.283   3.318 -0.8813 -0.2015  0.2800
 8702TIP3   OH226041   5.653   6.530   4.207  0.1950  0.3767  0.4064
 8702TIP3    H126042   5.711   6.530   4.131  1.5056  0.3794  1.3893
 8702TIP3    H226043   5.626   6.621   4.216  2.4661  0.9371  1.7488
 8703TIP3   OH226044   2.665   5.935   0.628  0.4314  0.2879  0.3595
 8703TIP3    H126045   2.671   5.874   0.555  1.8172  2.0083 -1.0297
 8703TIP3    H226046   2.575   5.967   0.625 -0.1354 -1.2372  0.7465
 8704TIP3   OH226047   6.275   6.356   6.287  0.5281 -0.3427 -0.5428
 8704TIP3    H126048   6.288   6.435   6.340 -0.9008 -0.1555 -0.4661
 8704TIP3    H226049   6.343   6.296   6.317 -1.2754 -0.8611  2.7073
 8705TIP3   OH226050   3.164   6.567   1.827  0.0951  0.0811  0.3831
 8705TIP3    H126051   3.213   6.485   1.833  0.7135  0.3875 -0.3526
 8705TIP3    H226052   3.146   6.577   1.733 -2.2366 -0.5224  0.7176
 8706TIP3   OH226053   5.162   4.736   3.732  0.1806 -0.6700  0.0075
 8706TIP3    H126054   5.121   4.662   3.777  0.1062  0.8669  2.6056
 8706TIP3    H226055   5.089   4.790   3.702  0.2387 -1.3879 -1.4401
 8707TIP3   OH226056   7.317   7.753   3.801  0.2642  0.2139  0.3599
 8707TIP3    H126057   7.374   7.829   3.789 -0.8525  0.8669 -0.8799
 8707TIP3    H226058   7.377   7.681   3.822  1.3858  1.2716  0.8322
 8708TIP3   OH226059   1.338   2.238   0.811 -0.6093 -0.0151 -0.4272
 8708TIP3    H126060   1.256   2.199   0.841 -0.1456  0.1310  1.1083
 8708TIP3    H226061   1.373   2.177   0.747 -0.3829 -1.6496  1.2145
 8709TIP3   OH226062   4.066   6.035   3.775  0.3215 -0.1847  0.1311
 8709TIP3    H126063   3.984   6.085   3.777 -0.3917 -1.3893  1.7871
 8709TIP3    H226064   4.059   5.980   3.697 -0.0806  0.2881 -0.1703
 8710TIP3   OH226065   6.846   6.183   4.934 -0.1984  0.1736  0.5704
 8710TIP3    H126066   6.900   6.122   4.984  0.8468  0.0797 -0.6404
 8710TIP3    H226067   6.906   6.253   4.909  0.1642 -1.3927 -3.3263
 8711TIP3   OH226068   6.806   5.073   4.975 -0.7941  0.0346 -0.0991
 8711TIP3    H126069   6.777   5.085   5.065  0.1291  0.0320  0.2090
 8711TIP3    H226070   6.872   5.004   4.980 -1.4349 -0.6563 -0.9267
 8712TIP3   OH226071   0.320   6.013   3.000 -0.2459 -1.2251  0.1975
 8712TIP3    H126072   0.360   6.100   3.006  0.7935 -1.6291 -0.6755
 8712TIP3    H226073   0.263   6.008   3.076 -0.6450  0.3852  0.0331
 8713TIP3   OH226074   6.722   5.788   5.220 -0.1855  0.3266  0.3979
 8713TIP3    H126075   6.644   5.753   5.176  0.0465  0.9580 -0.5237
 8713TIP3    H226076   6.740   5.724   5.289 -1.0937 -0.2039  0.1646
 8714TIP3   OH226077   5.931   6.373   4.728  0.6033 -0.6898 -0.3486
 8714TIP3    H126078   5.997   6.378   4.659 -0.0585 -0.0103 -0.9551
 8714TIP3    H226079   5.882   6.455   4.719 -0.6870 -1.4341 -0.3015
 8715TIP3   OH226080   7.804   4.353   4.650 -0.2230  0.3902 -0.5098
 8715TIP3    H126081   7.885   4.364   4.699 -1.2348 -0.0143  1.2985
 8715TIP3    H226082   7.831   4.309   4.569  1.2725 -0.3527  0.3668
 8716TIP3   OH226083   4.205   6.525   5.153  0.0941  0.4374  0.3583
 8716TIP3    H126084   4.198   6.433   5.127  0.3928  0.6072 -0.3425
 8716TIP3    H226085   4.299   6.545   5.146  0.6245 -0.2603  4.2026
 8717TIP3   OH226086   5.769   5.187   4.579 -0.1845  0.4688 -0.4417
 8717TIP3    H126087   5.817   5.244   4.639 -0.0211  0.4673 -0.5725
 8717TIP3    H226088   5.820   5.189   4.498  0.0229 -0.1512 -0.3292
 8718TIP3   OH226089   5.623   7.763   5.664  0.0896 -0.9895 -0.1110
 8718TIP3    H126090   5.583   7.807   5.739 -1.9020 -0.3301 -1.5163
 8718TIP3    H226091   5.575   7.797   5.588  1.7142 -2.0328 -1.6386
 8719TIP3   OH226092   5.882   5.520   6.018 -0.6251  0.0379 -0.3795
 8719TIP3    H126093   5.825   5.548   6.089 -1.3726 -1.3115 -0.4356
 8719TIP3    H226094   5.822   5.499   5.946  0.0583  0.3471 -1.0545
 8720TIP3   OH226095   6.640   7.244   4.152  0.0674 -0.0281  0.2443
 8720TIP3    H126096   6.564   7.302   4.154 -0.9700 -1.2930 -1.0030
 8720TIP3    H226097   6.623   7.179   4.220  0.0848 -0.2670  0.0181
 8721TIP3   OH226098   3.171   7.754   2.540 -0.7142  0.0848 -0.3509
 8721TIP3    H126099   3.219   7.817   2.594 -0.4437 -0.9251  0.6096
 8721TIP3    H226100   3.228   7.740   2.465 -0.8441  1.0901 -0.6500
 8722TIP3   OH226101   4.520   6.889   4.170  0.1272  0.0690 -0.8588
 8722TIP3    H126102   4.502   6.806   4.126 -1.1769  0.3944 -0.9541
 8722TIP3    H226103   4.512   6.870   4.263 -1.5503  0.3833 -0.9201
 8723TIP3   OH226104   7.863   0.041   2.112  0.3540 -0.5082  0.5719
 8723TIP3    H126105   7.770   0.042   2.090  0.0929  0.6330  1.7253
 8723TIP3    H226106   7.876  -0.043   2.157 -0.0025 -0.8830 -0.0060
 8724TIP3   OH226107   8.314   6.983   4.021 -0.4194  0.2308  0.4723
 8724TIP3    H126108   8.371   6.920   4.065 -1.7651 -0.5471  1.1511
 8724TIP3    H226109   8.300   6.947   3.934  0.2942  0.5290  0.2362
 8725TIP3   OH226110   2.090   1.824   3.451 -0.3167  0.3247 -0.0328
 8725TIP3    H126111   2.065   1.732   3.462 -1.6796  0.9308  2.6419
 8725TIP3    H226112   2.049   1.850   3.369  0.0474 -1.4348 -0.8017
 8726TIP3   OH226113   3.036   1.808   3.022  0.4279  0.7568  0.1315
 8726TIP3    H126114   2.969   1.876   3.031 -0.8581  0.1355 -3.7128
 8726TIP3    H226115   3.090   1.837   2.949  1.3203 -1.1761 -0.0193
 8727TIP3   OH226116   7.544   6.695   1.674  0.1625  0.4376 -0.2920
 8727TIP3    H126117   7.470   6.710   1.614 -0.6203  0.1081  0.5877
 8727TIP3    H226118   7.515   6.732   1.757  0.9999  0.3078  0.0573
 8728TIP3   OH226119   0.600   0.363   2.974 -0.0473  0.6703  0.4396
 8728TIP3    H126120   0.563   0.277   2.994 -1.2842  1.1991  0.4913
 8728TIP3    H226121   0.695   0.350   2.979 -0.2228 -0.6322  0.6650
 8729TIP3   OH226122   7.001   5.659   0.216 -0.5501 -0.3340 -0.0496
 8729TIP3    H126123   7.087   5.617   0.217 -0.6614 -0.5951 -0.8580
 8729TIP3    H226124   7.012   5.732   0.155 -0.8011 -0.1511  0.1278
 8730TIP3   OH226125   6.401   7.380   4.503  0.0295  0.2054 -0.1934
 8730TIP3    H126126   6.469   7.317   4.481  0.0879  0.6616 -1.3296
 8730TIP3    H226127   6.322   7.327   4.515  0.3498 -0.2093  0.0955
 8731TIP3   OH226128   4.705   6.455   1.763 -0.8171 -0.2066  0.1587
 8731TIP3    H126129   4.763   6.381   1.781 -2.0325 -0.7808  1.8756
 8731TIP3    H226130   4.752   6.508   1.699  0.9240 -1.4496  0.3793
 8732TIP3   OH226131   0.481   1.605   2.792 -0.1819  0.6717 -0.2930
 8732TIP3    H126132   0.572   1.592   2.820  0.6946  2.0238 -2.3696
 8732TIP3    H226133   0.464   1.533   2.731  0.0202  1.2903 -1.0870
 8733TIP3   OH226134   6.849   7.069   3.471  0.2139  0.0705 -0.0558
 8733TIP3    H126135   6.757   7.095   3.482  0.2323  0.2018 -0.2092
 8733TIP3    H226136   6.890   7.089   3.555  0.5542  1.9169 -0.6361
 8734TIP3   OH226137   6.086   6.228   4.098 -0.6972  0.0715  0.8645
 8734TIP3    H126138   5.991   6.244   4.102 -0.5314  0.9817  1.2087
 8734TIP3    H226139   6.124   6.296   4.153  0.1287 -0.6453  1.1835
 8735TIP3   OH226140   7.285   5.178   3.608 -0.2077  0.2192  0.2601
 8735TIP3    H126141   7.194   5.182   3.636 -0.6015 -1.6071 -0.6929
 8735TIP3    H226142   7.333   5.152   3.686 -0.7347 -0.5840  0.3207
 8736TIP3   OH226143   7.353   4.475   3.606 -0.3013 -0.3541 -0.0803
 8736TIP3    H126144   7.391   4.388   3.594  1.6283  0.3267  0.9153
 8736TIP3    H226145   7.427   4.535   3.596 -1.7746  1.2492 -1.6736
 8737TIP3   OH226146   5.420   7.859   3.812 -0.0117  0.0989 -0.6179
 8737TIP3    H126147   5.505   7.904   3.817 -0.0107 -0.0161  0.7851
 8737TIP3    H226148   5.366   7.915   3.757  0.7224  0.5946 -0.8508
 8738TIP3   OH226149   5.670   5.929   2.702  0.1189 -0.5898  0.7598
 8738TIP3    H126150   5.583   5.942   2.665  1.4693 -1.2800 -2.8785
 8738TIP3    H226151   5.667   5.844   2.744 -0.8236 -0.8700  0.1292
 8739TIP3   OH226152   7.670   4.800   2.857 -0.5624 -0.6051  0.6057
 8739TIP3    H126153   7.602   4.752   2.905 -0.1914  1.5709  3.4334
 8739TIP3    H226154   7.636   4.889   2.850  1.0395 -0.0194  0.1219
 8740TIP3   OH226155   5.342   5.965   6.122 -0.0313 -0.6989 -0.8074
 8740TIP3    H126156   5.285   6.018   6.066 -0.9533 -0.0337  0.7279
 8740TIP3    H226157   5.423   6.015   6.129  0.1880 -0.9224 -1.7829
 8741TIP3   OH226158   4.265   5.440   5.425  0.6169  0.4125 -1.1770
 8741TIP3    H126159   4.281   5.380   5.498 -1.2976  2.3618  0.9420
 8741TIP3    H226160   4.348   5.444   5.379  2.1706 -0.2070  1.4253
 8742TIP3   OH226161   6.988   4.525   3.896 -0.1509 -0.2460  0.3056
 8742TIP3    H126162   7.050   4.469   3.942  0.4486 -0.6514 -0.9645
 8742TIP3    H226163   7.003   4.505   3.803  0.2683  2.2113 -0.1853
 8743TIP3   OH226164   7.317   6.238   1.990  0.4919  0.1843 -0.4781
 8743TIP3    H126165   7.294   6.284   1.910  2.0336  0.6591 -0.6640
 8743TIP3    H226166   7.359   6.157   1.960  0.9320  0.2888 -0.1515
 8744TIP3   OH226167   3.206   5.546   3.598  0.6234 -0.0436  0.4060
 8744TIP3    H126168   3.263   5.522   3.671  1.9754 -0.4759 -0.7669
 8744TIP3    H226169   3.214   5.474   3.536 -2.4146 -0.8561  0.8756
 8745TIP3   OH226170   3.929   5.187   3.319 -0.6463 -0.1116  0.0665
 8745TIP3    H126171   3.972   5.212   3.237  0.3660  2.0295  1.2078
 8745TIP3    H226172   4.000   5.183   3.383 -1.4324 -1.7622  0.8532
 8746TIP3   OH226173   7.191   6.263   3.780 -0.4856  0.3506 -0.2149
 8746TIP3    H126174   7.239   6.221   3.709  0.5341 -0.4911  0.9657
 8746TIP3    H226175   7.185   6.197   3.849 -0.8191  1.3995  0.7897
 8747TIP3   OH226176   6.284   6.271   2.507 -0.1751 -0.3093 -0.2060
 8747TIP3    H126177   6.269   6.314   2.423  0.5432 -0.6456 -0.5123
 8747TIP3    H226178   6.378   6.281   2.522 -0.4833  0.7224  1.0937
 8748TIP3   OH226179   3.441   6.665   3.576  0.7234 -0.5055  0.4952
 8748TIP3    H126180   3.362   6.653   3.628 -0.1849 -0.3436 -0.8071
 8748TIP3    H226181   3.483   6.579   3.575  0.1691 -0.7785  0.5720
 8749TIP3   OH226182   4.506   0.957   6.801 -0.7749 -0.2131 -0.2392
 8749TIP3    H126183   4.540   0.967   6.712  1.1409 -0.2345  0.4798
 8749TIP3    H226184   4.418   0.920   6.788 -0.2517 -0.8909 -2.0888
 8750TIP3   OH226185   6.884   6.024   2.553 -0.0444 -0.0281  0.0097
 8750TIP3    H126186   6.886   6.109   2.510 -0.2584  0.2467  0.5387
 8750TIP3    H226187   6.827   6.037   2.629 -0.2634 -0.7014 -0.0386
 8751TIP3   OH226188   0.182   0.317   4.471 -0.6719 -0.4572  0.3251
 8751TIP3    H126189   0.120   0.248   4.447  0.1700 -0.7377 -1.1078
 8751TIP3    H226190   0.266   0.289   4.433 -0.2448  1.1877  0.0040
 8752TIP3   OH226191   7.198   7.732   3.553 -0.5224 -0.2011 -0.0192
 8752TIP3    H126192   7.256   7.727   3.477 -1.4067  1.2118 -0.7999
 8752TIP3    H226193   7.253   7.766   3.623 -0.1722  0.2944 -0.5299
 8753TIP3   OH226194   6.999   7.357   2.876 -0.1135 -0.0655  0.0488
 8753TIP3    H126195   7.038   7.410   2.806 -0.2736 -0.4106 -0.3018
 8753TIP3    H226196   6.954   7.420   2.932  0.5251  0.2780  0.1732
 8754TIP3   OH226197   7.588   6.778   3.547  0.4809 -0.1054 -0.3992
 8754TIP3    H126198   7.591   6.873   3.536 -0.2463 -0.1238 -0.7770
 8754TIP3    H226199   7.504   6.752   3.509 -0.1618 -0.6743  1.3539
 8755TIP3   OH226200   7.242   5.061   3.072 -0.3554 -0.4403  0.2378
 8755TIP3    H126201   7.185   5.128   3.110  0.2930  0.6546 -0.6534
 8755TIP3    H226202   7.290   5.025   3.146  0.7007  1.4784  0.5271
 8756TIP3   OH226203   8.495   0.469   1.971  0.1272 -0.5670 -0.2605
 8756TIP3    H126204   8.400   0.462   1.962 -0.0598 -0.3912  1.4142
 8756TIP3    H226205   8.514   0.561   1.951 -0.3453 -0.0323  1.6722
 8757TIP3   OH226206   5.700   5.016   4.787  0.4425  0.3530  0.0161
 8757TIP3    H126207   5.719   5.056   4.702  0.9738  0.1698  0.0477
 8757TIP3    H226208   5.783   4.976   4.814  0.5211  1.1751  1.0359
 8758TIP3   OH226209   7.780   1.646   0.110  0.3929 -0.0111  0.4563
 8758TIP3    H126210   7.784   1.631   0.016  2.2218 -0.1176  0.5286
 8758TIP3    H226211   7.686   1.646   0.131  0.0086 -1.0723 -1.1780
 8759TIP3   OH226212   5.028   7.318   3.016  0.3328 -0.3748  0.0301
 8759TIP3    H126213   5.092   7.314   3.087  0.3475 -1.4004 -0.0342
 8759TIP3    H226214   5.039   7.235   2.969  0.3774  0.3190 -1.2192
 8760TIP3   OH226215   5.064   7.814   5.246  0.3092 -0.8170  0.2156
 8760TIP3    H126216   5.132   7.817   5.178  0.0312  0.9867 -0.0164
 8760TIP3    H226217   5.028   7.902   5.247 -0.2639 -1.0483  2.1410
 8761TIP3   OH226218   3.781   6.740   3.662  0.0233 -0.0892  0.5724
 8761TIP3    H126219   3.854   6.756   3.721  0.1105 -2.5676  1.2169
 8761TIP3    H226220   3.820   6.738   3.575  0.4846  0.1151  0.7749
 8762TIP3   OH226221   5.006   6.441   4.133  0.2962  0.5800 -0.2797
 8762TIP3    H126222   5.080   6.399   4.176  0.4138  1.2053  0.1319
 8762TIP3    H226223   4.934   6.432   4.196  0.3161  0.9784 -0.1994
 8763TIP3   OH226224   5.701   6.544   5.595 -0.6284  0.3860 -0.2446
 8763TIP3    H126225   5.694   6.463   5.647 -0.6055 -0.9325 -2.2213
 8763TIP3    H226226   5.794   6.562   5.591 -0.6952  1.0079  0.9347
 8764TIP3   OH226227   6.358   6.207   3.558  0.3082  0.3746 -0.1819
 8764TIP3    H126228   6.420   6.167   3.618  0.0550 -1.4598 -1.1030
 8764TIP3    H226229   6.402   6.207   3.473 -0.8491 -0.7626 -0.8016
 8765TIP3   OH226230   1.870   0.623   3.077  0.1342  0.5414 -1.1741
 8765TIP3    H126231   1.876   0.689   3.147 -0.5756  0.5220 -1.0909
 8765TIP3    H226232   1.935   0.651   3.013  0.1948  1.0433 -0.9016
 8766TIP3   OH226233   5.068   4.431   6.003  0.5333  0.0725 -0.3038
 8766TIP3    H126234   5.137   4.431   6.069  0.7884  0.0888 -0.5650
 8766TIP3    H226235   4.986   4.430   6.052  0.7210  0.2649  0.0133
 8767TIP3   OH226236   4.740   4.320   5.409 -0.6005 -1.1846  0.8486
 8767TIP3    H126237   4.750   4.410   5.380  1.3309 -1.1425  1.5968
 8767TIP3    H226238   4.663   4.288   5.362  0.1114  0.1005 -1.2503
 8768TIP3   OH226239   5.846   7.601   2.734 -0.0461  0.4406  0.0482
 8768TIP3    H126240   5.761   7.589   2.778  0.0550  1.8664  0.6783
 8768TIP3    H226241   5.893   7.662   2.791  1.7416 -0.9922  0.1285
 8769TIP3   OH226242   4.849   7.316   3.234  0.4792  0.2043 -0.1826
 8769TIP3    H126243   4.912   7.287   3.169  1.0481 -0.6714  0.7464
 8769TIP3    H226244   4.903   7.356   3.303 -0.0199 -0.1112  0.3877
 8770TIP3   OH226245   6.892   5.628   3.903  0.1356 -0.4852 -0.7445
 8770TIP3    H126246   6.851   5.599   3.985 -0.8646  1.4657 -0.5177
 8770TIP3    H226247   6.962   5.687   3.931  0.7693 -0.9886 -1.2550
 8771TIP3   OH226248   8.469   6.777   4.147  0.1792 -0.6537  0.8663
 8771TIP3    H126249   8.448   6.704   4.206 -0.4908 -0.1121  1.3011
 8771TIP3    H226250   8.531   6.739   4.084  0.0006 -1.5480  1.2153
 8772TIP3   OH226251   5.966   6.615   3.405 -0.2056  0.4572  0.0276
 8772TIP3    H126252   6.018   6.635   3.328 -0.1464 -1.9179 -0.5812
 8772TIP3    H226253   5.885   6.575   3.371 -0.4023 -0.1263  1.1399
 8773TIP3   OH226254   5.884   5.065   3.687 -0.5232  0.2797  0.7131
 8773TIP3    H126255   5.941   5.134   3.721 -1.6079  0.5201  2.0963
 8773TIP3    H226256   5.796   5.093   3.710 -1.1431 -0.5643 -0.5530
 8774TIP3   OH226257   4.413   5.659   2.548  0.5806 -0.0373 -0.2927
 8774TIP3    H126258   4.436   5.661   2.641  0.4616 -0.8469 -0.2384
 8774TIP3    H226259   4.372   5.743   2.531 -0.5689 -0.3944  0.6901
 8775TIP3   OH226260   0.237   1.472   2.064  0.1389 -0.0073  0.1156
 8775TIP3    H126261   0.290   1.413   2.118 -0.2612 -0.5671 -0.0946
 8775TIP3    H226262   0.166   1.417   2.031 -0.9459  0.8905  0.9090
 8776TIP3   OH226263   3.842   5.480   2.732  0.3041  0.7452  0.1348
 8776TIP3    H126264   3.798   5.549   2.682 -0.5782 -0.5866 -0.9803
 8776TIP3    H226265   3.786   5.467   2.809 -0.5825 -0.0408 -0.6253
 8777TIP3   OH226266   3.562   6.462   4.119 -0.6562 -0.3487 -0.4752
 8777TIP3    H126267   3.507   6.396   4.160  0.7005 -0.6930  0.8423
 8777TIP3    H226268   3.561   6.536   4.180  0.0486 -0.2250 -0.6095
 8778TIP3   OH226269   5.658   6.472   4.482  0.0566 -0.2748  0.3224
 8778TIP3    H126270   5.657   6.483   4.387  1.3112  2.2467  0.5662
 8778TIP3    H226271   5.681   6.380   4.496 -0.2676 -0.6874 -1.7953
 8779TIP3   OH226272   6.620   5.565   0.287  0.1811 -0.2326  0.2325
 8779TIP3    H126273   6.568   5.571   0.368  0.8142 -0.1258  0.6326
 8779TIP3    H226274   6.685   5.498   0.305  1.1285  0.6833  0.2679
 8780TIP3   OH226275   5.566   5.275   5.552 -0.1970 -0.3943 -0.5350
 8780TIP3    H126276   5.649   5.292   5.597 -1.0108 -0.9122  1.1693
 8780TIP3    H226277   5.552   5.181   5.562 -1.5367 -0.1345  0.1273
 8781TIP3   OH226278   6.095   5.309   3.642 -0.5367 -0.6149 -0.0052
 8781TIP3    H126279   6.115   5.278   3.554 -3.0629 -0.0899 -0.7933
 8781TIP3    H226280   6.114   5.403   3.640 -1.3171 -0.4628 -0.2076
 8782TIP3   OH226281   6.454   6.481   3.185  0.2482 -0.3393 -0.6393
 8782TIP3    H126282   6.507   6.506   3.110  2.5354 -1.2186  0.6342
 8782TIP3    H226283   6.495   6.525   3.260 -0.9184 -0.9164  0.3679
 8783TIP3   OH226284   6.320   7.403   2.097  0.3352  0.1382  0.4509
 8783TIP3    H126285   6.346   7.313   2.115 -1.1815 -0.2828  0.5603
 8783TIP3    H226286   6.279   7.433   2.177 -0.8428  0.3007 -0.2072
 8784TIP3   OH226287   7.515   6.414   2.382  0.1149  0.1543  0.2146
 8784TIP3    H126288   7.450   6.416   2.311  1.1991  0.1209 -0.7998
 8784TIP3    H226289   7.464   6.428   2.462 -1.1341  0.1633 -0.5689
 8785TIP3   OH226290   1.960   0.309   3.435  0.3776 -0.4740  0.1088
 8785TIP3    H126291   2.040   0.359   3.419  1.7755 -2.7535 -0.3100
 8785TIP3    H226292   1.991   0.226   3.472 -1.6183 -2.2220 -2.0036
 8786TIP3   OH226293   6.182   7.433   3.549 -0.6236  0.0145 -0.0938
 8786TIP3    H126294   6.142   7.456   3.633 -1.0435  1.4148 -0.6645
 8786TIP3    H226295   6.158   7.504   3.490 -0.2245 -0.8929 -1.3823
 8787TIP3   OH226296   6.136   7.140   3.610  0.0962 -0.1605  0.3765
 8787TIP3    H126297   6.041   7.141   3.607  0.0267 -0.6553  1.6798
 8787TIP3    H226298   6.162   7.232   3.605 -0.4036 -0.0907 -0.9127
 8788TIP3   OH226299   7.485   7.253   3.888  0.0747 -0.0740 -0.4107
 8788TIP3    H126300   7.504   7.248   3.982 -0.6595 -2.4913 -0.3651
 8788TIP3    H226301   7.405   7.202   3.877  0.6507 -0.5529 -2.5062
 8789TIP3   OH226302   7.636   5.969   3.434  0.5363 -0.2959 -0.2382
 8789TIP3    H126303   7.588   6.005   3.360  0.8649 -0.3648 -0.4844
 8789TIP3    H226304   7.663   5.882   3.406 -1.0231 -1.0999  0.6872
 8790TIP3   OH226305   2.316   0.172   1.794 -0.5335 -0.0959  0.1249
 8790TIP3    H126306   2.234   0.122   1.790 -1.4885  1.3569  0.8020
 8790TIP3    H226307   2.382   0.108   1.819 -1.7613 -0.9797  1.1991
 8791TIP3   OH226308   7.786   7.040   2.177 -0.7118  0.2363  0.8557
 8791TIP3    H126309   7.771   7.103   2.248 -1.3648  1.4827 -0.3526
 8791TIP3    H226310   7.769   7.091   2.097  0.3264 -1.0614 -0.1921
 8792TIP3   OH226311   1.484   0.552   1.557  0.3715 -0.4511  0.1516
 8792TIP3    H126312   1.445   0.475   1.598  1.4389  0.2040  2.4944
 8792TIP3    H226313   1.418   0.621   1.569  1.4519  0.2359  2.6413
 8793TIP3   OH226314   7.007   6.451   3.820 -0.4919 -0.5022 -0.0922
 8793TIP3    H126315   7.059   6.510   3.875 -2.0262  0.2722  0.5899
 8793TIP3    H226316   7.064   6.376   3.803  0.5968  0.0170  1.1929
 8794TIP3   OH226317   0.052   7.620   2.762  0.1434  0.3900 -0.1348
 8794TIP3    H126318   0.123   7.567   2.727 -0.3304 -0.4348  0.1429
 8794TIP3    H226319  -0.020   7.609   2.699  0.6759  2.2811 -1.1295
 8795TIP3   OH226320   6.718   7.553   3.921 -0.0125  0.0228 -0.5671
 8795TIP3    H126321   6.781   7.611   3.878 -0.0589  0.3689 -0.1698
 8795TIP3    H226322   6.641   7.555   3.864  0.5293 -0.8389 -1.3482
 8796TIP3   OH226323   5.698   6.699   2.505  0.3774  0.3423 -0.2301
 8796TIP3    H126324   5.713   6.789   2.474 -0.4598  0.3450 -0.6689
 8796TIP3    H226325   5.714   6.645   2.428  1.1361  0.0877  0.1026
 8797TIP3   OH226326   6.658   4.575   4.897 -0.3948  0.2253  0.1020
 8797TIP3    H126327   6.658   4.661   4.854  0.3195  0.5709  0.7740
 8797TIP3    H226328   6.587   4.527   4.854 -0.1658  0.8087 -0.9634
 8798TIP3   OH226329   1.592   1.287   2.474  0.6999  0.2341  0.3174
 8798TIP3    H126330   1.550   1.373   2.463 -1.2666 -0.8501 -0.9604
 8798TIP3    H226331   1.679   1.307   2.509  0.5324  2.8041 -0.6142
 8799TIP3   OH226332   8.104   6.415   4.301  1.2949 -0.2080  0.2104
 8799TIP3    H126333   8.149   6.360   4.365  4.3388  2.0794  0.1424
 8799TIP3    H226334   8.090   6.498   4.347  0.1093  0.1933 -0.8748
 8800TIP3   OH226335   8.073   6.550   3.877  0.5952  0.1228  0.4665
 8800TIP3    H126336   8.009   6.622   3.881 -0.5708 -0.7660 -1.3290
 8800TIP3    H226337   8.047   6.491   3.947 -0.7412 -0.3448 -0.3894
 8801TIP3   OH226338   8.378   4.124   2.971  0.1996  0.0904  0.0009
 8801TIP3    H126339   8.360   4.177   2.893 -1.1626 -0.6905 -0.2253
 8801TIP3    H226340   8.440   4.058   2.942 -0.9869 -0.7459 -0.6455
 8802TIP3   OH226341   8.053   6.386   3.665 -0.4077 -1.1131  0.8504
 8802TIP3    H126342   8.114   6.417   3.598 -0.1085 -1.5491  0.9194
 8802TIP3    H226343   8.064   6.448   3.737 -2.1149  0.5026 -0.2172
 8803TIP3   OH226344   1.113   0.427   2.465 -0.1801  0.3683 -0.2562
 8803TIP3    H126345   1.174   0.421   2.539  0.2359  0.8843 -0.5603
 8803TIP3    H226346   1.098   0.521   2.453 -1.6084  0.2302  0.2854
 8804TIP3   OH226347   8.064   5.553   2.236  0.1750 -1.0200 -0.4992
 8804TIP3    H126348   8.066   5.614   2.162 -0.3538  0.8083  0.9441
 8804TIP3    H226349   8.098   5.604   2.310 -0.2815 -2.4877  0.7569
 8805TIP3   OH226350   7.057   4.382   2.717 -0.2967  0.2953 -0.2104
 8805TIP3    H126351   7.008   4.300   2.707  1.0761 -0.7240  1.1139
 8805TIP3    H226352   6.997   4.440   2.763 -0.8646 -0.3644 -0.0976
 8806TIP3   OH226353   8.034   5.918   2.534 -0.4214 -0.6270 -0.0111
 8806TIP3    H126354   7.962   5.950   2.589  0.3141  0.3211  0.4091
 8806TIP3    H226355   8.107   5.976   2.554  0.4632 -1.5726 -0.4561
 8807TIP3   OH226356   7.310   6.297   4.618  0.0489  0.4645  0.4492
 8807TIP3    H126357   7.337   6.373   4.669  2.0551 -0.1664  0.3827
 8807TIP3    H226358   7.357   6.306   4.535 -0.8403 -0.0762 -0.1213
 8808TIP3   OH226359   0.795   6.790   0.719  0.3557 -0.1043 -0.4608
 8808TIP3    H126360   0.723   6.802   0.656  0.8578  0.8799 -0.8415
 8808TIP3    H226361   0.866   6.843   0.685  0.5133  0.7251  1.1520
 8809TIP3   OH226362   0.628   1.847   2.567  0.0260 -0.3902 -0.8615
 8809TIP3    H126363   0.534   1.865   2.578  0.2602  0.7475 -0.6474
 8809TIP3    H226364   0.656   1.813   2.652  0.1662  0.9074 -0.3789
 8810TIP3   OH226365   2.782   0.618   3.036 -0.3629  0.0799  0.2810
 8810TIP3    H126366   2.872   0.598   3.062 -0.0031  0.5229 -0.6172
 8810TIP3    H226367   2.757   0.546   2.977 -0.5685  0.0120  0.4471
 8811TIP3   OH226368   0.138   7.752   2.088  0.5089 -0.6078 -0.2483
 8811TIP3    H126369   0.064   7.740   2.029  0.4500 -2.6759  0.1922
 8811TIP3    H226370   0.112   7.824   2.145 -1.4513 -1.7448  0.3373
 8812TIP3   OH226371   6.293   5.695   4.047  0.1683 -0.0528 -0.0351
 8812TIP3    H126372   6.281   5.780   4.087 -0.6005 -0.0143 -0.3407
 8812TIP3    H226373   6.234   5.637   4.094 -0.8828  0.0343 -1.2252
 8813TIP3   OH226374   0.952   0.028   2.017  0.1027 -0.5094  0.1785
 8813TIP3    H126375   0.896  -0.050   2.020 -0.9372 -0.0535 -4.0452
 8813TIP3    H226376   0.943   0.061   1.928  1.7854  3.5710  1.3798
 8814TIP3   OH226377   1.806   0.393   4.099  0.2877  0.0216  0.4406
 8814TIP3    H126378   1.806   0.386   4.194  1.7259  0.2759  0.4753
 8814TIP3    H226379   1.713   0.397   4.075 -0.2229 -3.1362  1.5853
 8815TIP3   OH226380   2.638   2.137   1.750  0.8543  0.0073  0.3955
 8815TIP3    H126381   2.569   2.199   1.772 -0.3729 -1.4722  0.7885
 8815TIP3    H226382   2.690   2.129   1.831  0.3544 -0.3005  0.6910
 8816TIP3   OH226383   8.371   7.443   4.055 -0.0947 -0.2976 -0.1890
 8816TIP3    H126384   8.352   7.535   4.072  0.6922 -0.4319  1.5229
 8816TIP3    H226385   8.300   7.395   4.097 -0.6319 -0.4688 -1.2805
 8817TIP3   OH226386   7.831   6.645   0.788  0.0215 -0.1360  0.1806
 8817TIP3    H126387   7.787   6.727   0.810 -1.6419 -1.3158  1.3321
 8817TIP3    H226388   7.918   6.653   0.827 -0.5914  0.5367  1.4361
 8818TIP3   OH226389   7.306   7.004   2.132  0.4812 -0.1239 -0.2105
 8818TIP3    H126390   7.250   6.995   2.209  1.1224  1.7455  0.4911
 8818TIP3    H226391   7.393   6.978   2.162  0.4926 -0.6271 -0.6571
 8819TIP3   OH226392   7.716   6.011   2.345 -0.0150  0.3320 -0.0875
 8819TIP3    H126393   7.684   5.930   2.305  1.4128  0.0340 -0.6563
 8819TIP3    H226394   7.757   6.059   2.273  2.8417 -0.3389  1.0190
 8820TIP3   OH226395   7.084   4.199   1.935 -0.3145 -0.0280 -0.2597
 8820TIP3    H126396   7.125   4.176   2.019  1.5683  0.3773 -1.0309
 8820TIP3    H226397   7.035   4.121   1.910  1.0267 -1.0008  0.0991
 8821TIP3   OH226398   4.283   6.237   0.332  0.3895 -0.3592  0.4200
 8821TIP3    H126399   4.339   6.302   0.374 -0.2717  0.4152  0.1156
 8821TIP3    H226400   4.286   6.259   0.239 -1.7132  0.7185  0.5809
 8822TIP3   OH226401   2.350   0.096   3.020 -0.0205 -0.0200  0.1351
 8822TIP3    H126402   2.291   0.060   2.955  1.2357  0.1028 -1.0989
 8822TIP3    H226403   2.310   0.074   3.104 -1.2599 -0.8441 -0.6590
 8823TIP3   OH226404   6.820   7.408   2.442  0.2531 -0.1464  0.0351
 8823TIP3    H126405   6.818   7.445   2.353 -0.2070 -0.4889 -0.0999
 8823TIP3    H226406   6.831   7.484   2.499  0.6058  0.0712 -0.3174
 8824TIP3   OH226407   5.695   6.556   2.276  0.2651  0.1379 -0.1812
 8824TIP3    H126408   5.695   6.499   2.200  1.5718 -0.0854 -0.0202
 8824TIP3    H226409   5.685   6.497   2.351 -0.4078  0.3020 -0.1389
 8825TIP3   OH226410   0.245   7.708   3.357 -0.5102  0.1964  0.6718
 8825TIP3    H126411   0.210   7.625   3.388  0.0194 -0.2832 -0.0026
 8825TIP3    H226412   0.259   7.695   3.264  0.4604  0.7313  0.7380
 8826TIP3   OH226413   0.890   0.570   1.138  0.6585 -0.3498 -0.6756
 8826TIP3    H126414   0.874   0.599   1.048 -1.3525 -1.4736 -0.7212
 8826TIP3    H226415   0.912   0.650   1.185 -2.5441  0.9715 -1.2741
 8827TIP3   OH226416   2.761   0.475   1.712  0.0514  0.1916 -0.6377
 8827TIP3    H126417   2.771   0.439   1.624  0.4723 -0.7875 -0.2034
 8827TIP3    H226418   2.668   0.464   1.732  0.3460 -1.5567 -0.1438
 8828TIP3   OH226419   6.879   6.384   2.203 -0.3466  0.2242  0.2869
 8828TIP3    H126420   6.815   6.390   2.274 -0.6527  0.3225  0.0024
 8828TIP3    H226421   6.836   6.426   2.128 -0.1559 -0.1831 -0.0517
 8829TIP3   OH226422   5.480   7.550   3.149 -0.7093 -0.1217 -0.1643
 8829TIP3    H126423   5.468   7.612   3.077 -0.5380 -0.9199 -0.8916
 8829TIP3    H226424   5.432   7.589   3.222 -1.0824  0.5876 -0.7705
 8830TIP3   OH226425   0.497   5.266   3.888  0.5388 -0.0597 -0.2632
 8830TIP3    H126426   0.479   5.185   3.841 -1.0679  1.9306 -3.2242
 8830TIP3    H226427   0.588   5.288   3.866  1.0183 -1.0743  0.6490
 8831TIP3   OH226428   8.347   6.009   3.955  0.4781  0.0030 -0.5410
 8831TIP3    H126429   8.290   6.082   3.980 -0.3053 -0.6244 -0.4844
 8831TIP3    H226430   8.290   5.950   3.905  0.8517 -1.0839  0.3131
 8832TIP3   OH226431   2.007   0.409   2.815 -0.5677 -0.2182  0.2760
 8832TIP3    H126432   2.098   0.440   2.805 -0.6603  0.4636  1.4516
 8832TIP3    H226433   1.994   0.403   2.909 -2.1499  0.9071  0.1527
 8833TIP3   OH226434   7.321   6.270   1.691  0.1319  0.2399 -0.8140
 8833TIP3    H126435   7.406   6.314   1.687 -0.5342  1.7056  0.6576
 8833TIP3    H226436   7.262   6.328   1.642 -0.7107  0.9035  0.9642
 8834TIP3   OH226437   0.989   6.341   4.046  0.2062 -0.1392  0.0010
 8834TIP3    H126438   0.923   6.287   4.091  1.1469 -0.0764  1.5032
 8834TIP3    H226439   1.026   6.284   3.980  0.2972 -0.9376  0.7265
 8835TIP3   OH226440   8.078   7.065   3.537 -0.1897  0.0187  0.2458
 8835TIP3    H126441   8.073   7.158   3.515 -0.7564 -0.2264 -0.6693
 8835TIP3    H226442   8.136   7.062   3.613 -0.0118  1.0993  0.1628
 8836TIP3   OH226443   8.147   5.353   2.055 -0.1896  0.1170  0.3343
 8836TIP3    H126444   8.078   5.406   2.095 -0.1767 -0.5043  1.1875
 8836TIP3    H226445   8.133   5.265   2.089  1.4674  0.1228  1.0926
 8837TIP3   OH226446   6.371   4.407   3.056 -0.3701  0.7796 -0.5865
 8837TIP3    H126447   6.370   4.490   3.104 -0.6067  1.4320 -1.6956
 8837TIP3    H226448   6.429   4.423   2.982 -0.3372 -0.0796 -0.7518
 8838TIP3   OH226449   8.122   4.654   3.915  0.3816 -0.2709 -0.0050
 8838TIP3    H126450   8.192   4.718   3.898 -0.5049  0.2922 -1.7526
 8838TIP3    H226451   8.102   4.618   3.828 -2.2058  0.3609  0.2735
 8839TIP3   OH226452   7.344   7.475   2.807  0.0223 -0.6032 -0.3186
 8839TIP3    H126453   7.416   7.537   2.819  1.1104 -1.6360 -1.3416
 8839TIP3    H226454   7.386   7.388   2.810 -1.0364 -1.1864 -1.7513
 8840TIP3   OH226455   7.566   7.075   1.688 -0.2357 -0.0951  0.1431
 8840TIP3    H126456   7.547   7.002   1.629  1.7559  0.3042 -1.0460
 8840TIP3    H226457   7.504   7.143   1.662 -0.1010 -0.3111 -0.7724
 8841TIP3   OH226458   7.134   7.372   1.824 -0.0311 -0.0106  0.3829
 8841TIP3    H126459   7.193   7.297   1.838 -1.5707 -1.2545  0.3065
 8841TIP3    H226460   7.133   7.417   1.908  0.2577 -0.5351  0.6754
 8842TIP3   OH226461   7.118   5.926   2.668  0.4211  0.6953  0.4450
 8842TIP3    H126462   7.184   5.970   2.614 -0.1647  0.8897 -0.1259
 8842TIP3    H226463   7.034   5.952   2.629 -0.1078  2.3420  2.6036
 8843TIP3   OH226464   5.697   4.618   0.415 -0.5627  0.3980 -0.7418
 8843TIP3    H126465   5.723   4.695   0.364 -1.2864  0.1216 -1.5384
 8843TIP3    H226466   5.716   4.642   0.506  0.1219  1.1470 -1.0783
 8844TIP3   OH226467   8.241   7.446   3.109  0.1385  0.3716 -0.9560
 8844TIP3    H126468   8.311   7.407   3.162  0.7195  1.4088 -0.9490
 8844TIP3    H226469   8.242   7.395   3.028  1.7867  1.1896 -1.4795
 8845TIP3   OH226470   6.977   5.150   2.412 -0.2158  0.3503  0.7030
 8845TIP3    H126471   7.006   5.118   2.498 -0.3205 -0.7168  0.3464
 8845TIP3    H226472   6.897   5.198   2.431  0.7471  1.6922  1.4431
 8846TIP3   OH226473   3.430   0.572   2.570  0.7946  0.4461 -0.5181
 8846TIP3    H126474   3.411   0.577   2.476 -0.9233  0.3245 -0.2039
 8846TIP3    H226475   3.410   0.659   2.603  0.4018  0.1996 -0.1005
 8847TIP3   OH226476   3.165   1.239   6.886 -0.0330 -0.7695  0.2770
 8847TIP3    H126477   3.133   1.257   6.975 -0.1993  0.2039  0.0336
 8847TIP3    H226478   3.115   1.163   6.857 -0.4295 -0.7063  0.7846
 8848TIP3   OH226479   6.688   3.747   2.025 -0.3100 -0.4735 -0.3016
 8848TIP3    H126480   6.660   3.810   1.959  1.7699 -0.1574 -0.9303
 8848TIP3    H226481   6.612   3.736   2.082 -1.3311  1.1219 -1.3190
 8849TIP3   OH226482   7.073   6.963   2.666 -0.1392 -0.4557  0.4277
 8849TIP3    H126483   7.034   6.940   2.751 -1.5794  0.6521  0.0737
 8849TIP3    H226484   7.012   7.025   2.627 -0.0149 -1.7517 -1.9000
 8850TIP3   OH226485   5.179   5.595   4.126 -0.5417  0.4932  0.1778
 8850TIP3    H126486   5.243   5.545   4.076  0.5874  0.9421  1.1724
 8850TIP3    H226487   5.180   5.682   4.087 -1.3978  0.1887 -0.5532
 8851TIP3   OH226488   6.072   6.302   2.676 -0.1355  0.8702  0.1948
 8851TIP3    H126489   6.093   6.252   2.755 -0.4867  0.4037 -0.0079
 8851TIP3    H226490   6.143   6.282   2.615 -0.2818  0.6150  0.1099
 8852TIP3   OH226491   6.525   5.311   3.475  0.4176  0.3346 -0.5381
 8852TIP3    H126492   6.474   5.231   3.489 -0.0936  0.5503 -1.1201
 8852TIP3    H226493   6.616   5.285   3.489  0.3135 -0.4981 -1.3480
 8853TIP3   OH226494   1.535   0.081   2.909  0.1245  0.2270  0.3369
 8853TIP3    H126495   1.549   0.093   2.815 -0.3855 -2.8874 -0.2003
 8853TIP3    H226496   1.604   0.020   2.936  0.3310  1.1714  2.0223
 8854TIP3   OH226497   0.160   5.983   2.673 -0.5403 -0.3101  0.4114
 8854TIP3    H126498   0.196   5.947   2.753  1.5577 -0.8953 -0.7543
 8854TIP3    H226499   0.182   5.918   2.606 -0.4928  1.1014 -0.9741
 8855TIP3   OH226500   1.669   7.300   1.342 -0.0562 -0.1630  0.4615
 8855TIP3    H126501   1.708   7.355   1.410  1.4912  0.6934 -1.1014
 8855TIP3    H226502   1.721   7.219   1.344 -1.6671 -1.2268  2.0337
 8856TIP3   OH226503   4.701   1.755   6.537 -0.0894  0.1013 -0.0788
 8856TIP3    H126504   4.633   1.728   6.600  1.4683 -0.0545  1.5785
 8856TIP3    H226505   4.710   1.849   6.551  0.5750 -0.0110  0.2577
 8857TIP3   OH226506   6.333   6.918   2.668  0.5347 -0.0067  0.2517
 8857TIP3    H126507   6.290   6.878   2.743  0.4883 -0.0102  0.2234
 8857TIP3    H226508   6.286   7.000   2.654 -0.1566 -0.5077 -0.4323
 8858TIP3   OH226509   8.313   5.288   0.515 -0.0685  0.4286  0.2655
 8858TIP3    H126510   8.344   5.337   0.592 -0.6264 -0.6001  1.1641
 8858TIP3    H226511   8.232   5.247   0.544 -0.5243  0.3895 -1.0322
 8859TIP3   OH226512   6.745   5.978   2.189  0.2303  0.1813 -0.2257
 8859TIP3    H126513   6.817   6.032   2.219 -1.9215  2.8535  0.3330
 8859TIP3    H226514   6.731   5.914   2.259  2.6055 -0.9930 -0.7737
 8860TIP3   OH226515   6.774   7.980   2.263 -0.1247  0.2852 -0.4506
 8860TIP3    H126516   6.827   7.944   2.191 -0.5888 -0.5629 -0.3718
 8860TIP3    H226517   6.689   7.938   2.254 -0.6568  1.3164 -0.3039
 8861TIP3   OH226518   7.965   6.866   2.332  0.3520  0.1604  0.1114
 8861TIP3    H126519   7.928   6.855   2.420  1.1914 -0.5832  0.3710
 8861TIP3    H226520   7.895   6.910   2.283 -1.0040 -1.4530  0.5333
 8862TIP3   OH226521   0.466   7.685   3.549  0.3042 -0.0524  0.0397
 8862TIP3    H126522   0.395   7.748   3.538 -0.2057 -0.5411  0.5246
 8862TIP3    H226523   0.425   7.600   3.531  0.7110 -0.3546  0.5279
 8863TIP3   OH226524   0.266   7.383   2.370 -0.1955  0.0502  0.2539
 8863TIP3    H126525   0.210   7.433   2.429 -0.5901 -0.2080  0.1007
 8863TIP3    H226526   0.213   7.307   2.345 -0.2817  0.5038 -0.9649
 8864TIP3   OH226527   7.210   6.587   3.996 -0.1669  0.4619  0.2456
 8864TIP3    H126528   7.242   6.612   3.909  0.2056 -1.7491 -0.2976
 8864TIP3    H226529   7.244   6.498   4.009 -1.9746 -0.0467  1.7598
 8865TIP3   OH226530   1.639   0.900   1.872  0.0794 -0.7403  0.0796
 8865TIP3    H126531   1.616   0.889   1.964  0.5016  0.1624  0.3032
 8865TIP3    H226532   1.554   0.908   1.827 -0.1318 -1.4593  0.3534
 8866TIP3   OH226533   5.674   7.193   2.138  0.1775 -0.3588 -0.3725
 8866TIP3    H126534   5.674   7.182   2.043 -2.8098 -0.8509 -0.3736
 8866TIP3    H226535   5.598   7.248   2.156 -0.8958 -2.4590  1.9183
 8867TIP3   OH226536   6.011   7.463   1.292  0.3062  0.2475 -0.2926
 8867TIP3    H126537   6.030   7.544   1.244 -0.3427  0.5183 -0.0953
 8867TIP3    H226538   5.932   7.428   1.251 -0.7736  0.9600  1.1612
 8868TIP3   OH226539   7.350   6.934   2.673  0.5957 -0.5208 -0.6491
 8868TIP3    H126540   7.399   6.897   2.600 -0.2246 -1.3531 -0.7883
 8868TIP3    H226541   7.261   6.944   2.640  0.1602 -1.1292  0.3121
 8869TIP3   OH226542   1.300   1.377   2.886  1.0323  0.1054 -0.0348
 8869TIP3    H126543   1.326   1.347   2.973  1.1384  3.7117  1.2994
 8869TIP3    H226544   1.242   1.309   2.852  1.3826 -1.5951  2.6630
 8870TIP3   OH226545   0.021   6.391   3.517 -0.0619  0.2201  0.2687
 8870TIP3    H126546  -0.016   6.344   3.592  1.2490 -3.2152 -1.1257
 8870TIP3    H226547   0.109   6.416   3.545  0.1673 -0.4423  0.1577
 8871TIP3   OH226548   7.953   7.360   0.096  0.3328  0.2918 -0.6175
 8871TIP3    H126549   7.912   7.426   0.152 -0.3184 -0.6102 -0.0150
 8871TIP3    H226550   8.046   7.362   0.120 -0.0207 -0.4263  0.8472
 8872TIP3   OH226551   1.139   5.591   2.649 -1.0989  0.0614 -0.0848
 8872TIP3    H126552   1.223   5.583   2.695 -0.9238 -1.0588 -0.5910
 8872TIP3    H226553   1.150   5.667   2.593 -0.2559 -0.3385 -0.4765
 8873TIP3   OH226554   6.770   5.828   5.837  0.2376  0.0242 -0.1257
 8873TIP3    H126555   6.769   5.881   5.757 -1.1234 -1.5109 -1.1660
 8873TIP3    H226556   6.748   5.889   5.907  0.1522  1.1218 -1.1085
 8874TIP3   OH226557   2.610   0.619   1.280 -0.5103 -0.6083 -0.0241
 8874TIP3    H126558   2.550   0.656   1.345 -1.9354 -0.0094 -1.6535
 8874TIP3    H226559   2.598   0.673   1.202  0.5617 -1.8320 -1.0715
 8875TIP3   OH226560   6.798   5.981   2.810 -0.3345 -0.5684  0.6894
 8875TIP3    H126561   6.835   5.896   2.833  1.6517 -0.3096 -1.3403
 8875TIP3    H226562   6.786   6.026   2.893 -1.2964 -2.7658  1.7767
 8876TIP3   OH226563   5.764   6.968   1.262  0.5764 -0.1830  0.4810
 8876TIP3    H126564   5.798   7.037   1.206 -2.1006 -0.4635 -1.6404
 8876TIP3    H226565   5.678   6.947   1.224  1.0130 -4.1661  1.4598
 8877TIP3   OH226566   2.180   0.731   3.190  0.1935  0.1894 -0.2495
 8877TIP3    H126567   2.095   0.771   3.173 -0.4519 -0.3114  1.6619
 8877TIP3    H226568   2.160   0.641   3.215  1.4641 -0.6284 -2.1306
 8878TIP3   OH226569   6.885   5.160   1.718 -0.5800  0.2905  0.0593
 8878TIP3    H126570   6.968   5.186   1.677 -0.7071  1.8710  0.7827
 8878TIP3    H226571   6.882   5.065   1.707  1.7034  0.1225  0.7447
 8879TIP3   OH226572   7.778   5.824   2.074  0.3506  0.2183 -0.1994
 8879TIP3    H126573   7.780   5.853   1.983 -1.2074 -0.1154 -0.3599
 8879TIP3    H226574   7.865   5.845   2.108  1.4768 -1.0907 -2.2001
 8880TIP3   OH226575   1.614   0.234   1.413  0.2957 -0.5387  0.7040
 8880TIP3    H126576   1.519   0.233   1.402  0.2044  0.9777  1.3490
 8880TIP3    H226577   1.628   0.214   1.506  0.4999  1.9186  1.2141
 8881TIP3   OH226578   0.865   5.498   2.571 -0.0616  0.3956  0.0362
 8881TIP3    H126579   0.861   5.403   2.569  0.7777  0.3813 -1.6989
 8881TIP3    H226580   0.958   5.519   2.573 -0.2361  1.1839  2.6373
 8882TIP3   OH226581   6.945   4.980   5.316  0.2871 -0.4154  0.3610
 8882TIP3    H126582   7.002   5.050   5.282  0.0441  0.2016  1.1994
 8882TIP3    H226583   6.856   5.011   5.298  0.1844 -2.0070 -2.2042
 8883TIP3   OH226584   0.089   5.613   3.064  0.4463  0.5538 -0.2292
 8883TIP3    H126585   0.155   5.591   3.130  0.8227  0.3540 -0.6753
 8883TIP3    H226586   0.115   5.565   2.986 -0.1248  0.6191 -0.4660
 8884TIP3   OH226587   6.240   7.759   1.834 -0.1463  0.0202  0.4663
 8884TIP3    H126588   6.261   7.764   1.741 -1.8331  2.1138  0.1589
 8884TIP3    H226589   6.303   7.817   1.877  1.7150 -2.2326  0.8673
 8885TIP3   OH226590   0.155   6.009   1.030  0.2003  0.4007 -0.0967
 8885TIP3    H126591   0.212   5.960   0.970  0.4941  0.1423  0.3944
 8885TIP3    H226592   0.176   5.974   1.116  0.4254  1.4047  0.2552
 8886TIP3   OH226593   0.675   6.347   3.130 -0.0236  0.2441 -0.0312
 8886TIP3    H126594   0.742   6.413   3.112  0.3240  0.4477  1.8942
 8886TIP3    H226595   0.659   6.354   3.224 -3.8168  1.2294 -0.6407
 8887TIP3   OH226596   7.696   5.804   1.410  0.5222  0.0439 -0.5729
 8887TIP3    H126597   7.729   5.736   1.467  1.6975 -0.7957 -2.2234
 8887TIP3    H226598   7.610   5.827   1.446  0.8497 -1.1275  0.9452
 8888TIP3   OH226599   6.778   6.459   1.947 -0.1131 -0.2907 -0.1632
 8888TIP3    H126600   6.763   6.553   1.946 -0.0760 -0.2900 -1.5586
 8888TIP3    H226601   6.827   6.442   1.867  0.9540 -1.3290  0.6811
 8889TIP3   OH226602   5.937   6.667   1.827  0.0178 -0.1365 -0.1066
 8889TIP3    H126603   5.985   6.625   1.898 -0.7224  0.0152  0.4838
 8889TIP3    H226604   5.845   6.665   1.854 -0.4203 -1.1995 -1.6270
 8890TIP3   OH226605   8.421   5.018   3.581 -0.1439  0.7955 -0.0991
 8890TIP3    H126606   8.389   4.963   3.510 -0.2602  1.0120 -0.2155
 8890TIP3    H226607   8.515   5.026   3.566 -0.2470  1.2478 -0.5073
 8891TIP3   OH226608   2.021   2.009   2.513 -0.3960  1.0179 -0.0568
 8891TIP3    H126609   2.110   1.987   2.538 -0.2995  1.1594 -0.2665
 8891TIP3    H226610   1.967   1.982   2.587 -0.1380  1.2662  0.2206
 8892TIP3   OH226611   2.710   0.132   2.006 -0.6555 -0.1232 -0.2539
 8892TIP3    H126612   2.632   0.082   1.984  0.9416 -2.5389 -0.5989
 8892TIP3    H226613   2.782   0.069   1.999  1.0585  1.4411  2.3632
 8893TIP3   OH226614   7.706   7.844   3.065  0.1737  0.0012 -0.2768
 8893TIP3    H126615   7.631   7.792   3.096 -0.0524  0.7540  0.4882
 8893TIP3    H226616   7.704   7.922   3.120  0.5402  0.7911 -1.3834
 8894TIP3   OH226617   6.605   5.964   4.582 -0.1530  0.3055  0.0330
 8894TIP3    H126618   6.680   6.021   4.598 -1.2489  2.1881 -1.2761
 8894TIP3    H226619   6.535   6.002   4.634 -0.5550 -0.6316  0.1800
 8895TIP3   OH226620   6.903   5.081   6.651 -0.2763  0.1671  0.2471
 8895TIP3    H126621   6.913   5.152   6.588  0.4201 -0.0512  0.1114
 8895TIP3    H226622   6.992   5.061   6.679 -0.5714  0.1632  1.1865
 8896TIP3   OH226623   7.305   6.523   4.826  0.5784  0.0593  0.7837
 8896TIP3    H126624   7.263   6.569   4.754  1.8724  0.9048  0.5564
 8896TIP3    H226625   7.372   6.584   4.858 -0.1555 -0.1767  2.8718
 8897TIP3   OH226626   6.421   5.682   1.793 -0.6678  1.0993 -0.0652
 8897TIP3    H126627   6.468   5.623   1.735  0.2192  0.0878  1.6314
 8897TIP3    H226628   6.483   5.752   1.812  0.8903 -1.1321  3.5681
 8898TIP3   OH226629   1.640   0.673   2.940 -0.1429 -0.1860 -0.0376
 8898TIP3    H126630   1.720   0.657   2.989 -0.7111  1.0382  1.3078
 8898TIP3    H226631   1.579   0.606   2.971  0.6115 -1.6881 -1.7115
 8899TIP3   OH226632   6.252   5.920   0.835 -0.0469 -0.5398  0.3915
 8899TIP3    H126633   6.163   5.892   0.856 -0.6429  1.5730  0.7548
 8899TIP3    H226634   6.252   6.015   0.847  1.9369 -0.3465 -0.7655
 8900TIP3   OH226635   0.037   6.655   4.436 -0.3023  0.3951  0.6982
 8900TIP3    H126636  -0.004   6.572   4.412 -1.2967  0.4062  2.3050
 8900TIP3    H226637   0.082   6.637   4.519  2.9420  0.3879 -0.9884
 8901TIP3   OH226638   6.912   6.058   3.336 -0.2427  0.4257 -0.9900
 8901TIP3    H126639   6.992   6.008   3.352  0.5497  2.0743  0.4116
 8901TIP3    H226640   6.870   6.065   3.421 -1.1080  0.8660 -1.4451
 8902TIP3   OH226641   7.152   6.940   2.377  0.0497  0.0710  0.4541
 8902TIP3    H126642   7.144   6.869   2.441  0.2280  0.1545  0.5731
 8902TIP3    H226643   7.116   7.017   2.422 -1.3723 -0.2236 -0.1635
 8903TIP3   OH226644   2.874   1.099   2.267 -0.1029 -0.0810  0.3567
 8903TIP3    H126645   2.949   1.098   2.208  0.0485  0.7613  0.5244
 8903TIP3    H226646   2.912   1.104   2.355 -0.3427 -0.6214  0.4985
 8904TIP3   OH226647   7.844   7.441   2.503 -0.5326 -0.6983  0.0387
 8904TIP3    H126648   7.763   7.482   2.473 -0.3256 -0.8845 -0.7865
 8904TIP3    H226649   7.889   7.414   2.422 -0.6726 -2.5609  0.5506
 8905TIP3   OH226650   7.388   6.639   3.423  0.0130 -0.0583 -0.1808
 8905TIP3    H126651   7.445   6.596   3.360 -1.2548 -1.4730 -0.3726
 8905TIP3    H226652   7.305   6.649   3.377 -0.2030  1.0821  0.4438
 8906TIP3   OH226653   0.357   5.891   1.996  0.0353 -0.0758 -0.6281
 8906TIP3    H126654   0.276   5.845   2.016 -0.6077  1.5304  0.5200
 8906TIP3    H226655   0.335   5.949   1.923  0.1216  0.4485 -0.2383
 8907TIP3   OH226656   1.071   5.211   3.358 -0.0781 -0.3187  0.1904
 8907TIP3    H126657   1.068   5.208   3.454  0.5458 -0.4292  0.2072
 8907TIP3    H226658   1.056   5.303   3.336 -1.7587 -0.5426  0.3325
 8908TIP3   OH226659   0.074   7.322   4.215  0.7489 -0.1726  0.1517
 8908TIP3    H126660   0.031   7.239   4.238 -0.7664  0.8958  1.2949
 8908TIP3    H226661   0.017   7.360   4.148 -0.2799  1.3580  1.8399
 8909TIP3   OH226662   8.466   0.099   3.756 -0.0906  0.7125  0.3623
 8909TIP3    H126663   8.524   0.172   3.734 -0.6435  0.5203 -1.7913
 8909TIP3    H226664   8.378   0.132   3.739 -0.3631 -0.3406 -0.3014
 8910TIP3   OH226665   7.185   7.468   4.338  0.1210  0.1294  0.2279
 8910TIP3    H126666   7.280   7.483   4.335  0.7310 -3.3048  0.1140
 8910TIP3    H226667   7.171   7.425   4.423 -1.6976  2.5506  1.2079
 8911TIP3   OH226668   6.043   3.924   6.119 -0.1922 -0.6061  0.4186
 8911TIP3    H126669   6.111   3.888   6.176 -0.2668  0.3964  1.1563
 8911TIP3    H226670   5.961   3.905   6.165 -0.1577  1.6181  1.4764
 8912TIP3   OH226671   8.006   4.892   4.202 -0.1643  0.5353 -0.0404
 8912TIP3    H126672   8.081   4.832   4.209  0.1124  0.8435 -0.3569
 8912TIP3    H226673   8.044   4.978   4.217 -0.8948  0.4516  2.4793
 8913TIP3   OH226674   7.234   4.847   2.918  0.5212  0.0342  0.3768
 8913TIP3    H126675   7.153   4.796   2.913  1.4423 -1.2788 -1.8582
 8913TIP3    H226676   7.211   4.923   2.972 -2.5622  0.3389 -1.2386
 8914TIP3   OH226677   3.326   0.068   0.973  0.4565 -0.2652  0.0751
 8914TIP3    H126678   3.389   0.138   0.956  2.1135 -1.8010 -0.3866
 8914TIP3    H226679   3.372   0.009   1.033 -1.1338 -0.6210  0.9491
 8915TIP3   OH226680   7.653   4.133   1.366  0.3244  0.1556  0.8249
 8915TIP3    H126681   7.577   4.188   1.348 -0.2874 -0.8200  0.4227
 8915TIP3    H226682   7.671   4.148   1.459  0.7149  1.7013  0.5241
 8916TIP3   OH226683   7.443   5.721   4.124 -0.2577 -0.2658 -0.2560
 8916TIP3    H126684   7.447   5.644   4.068 -0.7008  0.1880 -0.9091
 8916TIP3    H226685   7.407   5.689   4.207  0.5386 -0.9603 -0.1663
 8917TIP3   OH226686   8.394   7.881   4.362  0.1189  0.5172  0.4182
 8917TIP3    H126687   8.358   7.936   4.291 -1.3658 -0.6355  0.2611
 8917TIP3    H226688   8.327   7.883   4.430 -0.3531 -1.7912  0.0599
 8918TIP3   OH226689   6.408   6.685   1.275  0.3783 -0.2416  0.0321
 8918TIP3    H126690   6.438   6.599   1.246 -0.2574 -0.5975  0.4228
 8918TIP3    H226691   6.471   6.746   1.237 -2.6089 -0.2947 -5.4336
 8919TIP3   OH226692   3.311   0.700   2.918  0.4984 -0.3745 -0.1829
 8919TIP3    H126693   3.268   0.735   2.996  0.9710 -1.4911  0.5888
 8919TIP3    H226694   3.334   0.777   2.867 -1.4523  0.3090 -0.1014
 8920TIP3   OH226695   7.514   6.402   1.519 -0.1253 -0.4879 -0.4431
 8920TIP3    H126696   7.521   6.472   1.453  0.6172 -0.6656 -0.5497
 8920TIP3    H226697   7.578   6.426   1.586 -0.1783 -0.8418 -0.2695
 8921TIP3   OH226698   6.787   7.726   4.124 -0.5233  0.4364 -0.5888
 8921TIP3    H126699   6.776   7.656   4.061  0.4206  1.6803 -2.1877
 8921TIP3    H226700   6.868   7.704   4.171 -0.7871 -0.0825 -0.3868
 8922TIP3   OH226701   7.652   0.670   2.828 -0.5924  0.0459 -0.2342
 8922TIP3    H126702   7.710   0.738   2.861  0.3104 -1.1424  0.7019
 8922TIP3    H226703   7.580   0.666   2.891 -0.5968  0.0680 -0.2378
 8923TIP3   OH226704   7.735   3.971   3.085 -0.1422 -0.7434  0.7523
 8923TIP3    H126705   7.795   3.986   3.158 -1.4418 -1.7808  2.0559
 8923TIP3    H226706   7.714   3.878   3.090  0.1100 -0.9416 -1.2530
 8924TIP3   OH226707   1.466   0.631   3.778 -0.4195  0.3125  0.2972
 8924TIP3    H126708   1.371   0.624   3.764 -0.2436  0.6219 -1.2282
 8924TIP3    H226709   1.488   0.717   3.743  0.4862  0.0924  0.3213
 8925TIP3   OH226710   6.623   5.440   3.967 -0.6500  0.3138 -0.7463
 8925TIP3    H126711   6.712   5.459   3.995  0.3915 -0.2711 -3.5741
 8925TIP3    H226712   6.618   5.344   3.964 -1.4952  0.3315 -0.2328
 8926TIP3   OH226713   7.832   7.082   4.095  0.1648 -0.2628  0.5356
 8926TIP3    H126714   7.808   6.989   4.100  0.3477 -0.3343  0.1373
 8926TIP3    H226715   7.753   7.129   4.120 -0.2462 -0.5064 -0.3042
 8927TIP3   OH226716   0.179   7.971   3.345 -0.4931 -0.3796 -0.4691
 8927TIP3    H126717   0.147   7.977   3.255  1.2189  0.0865 -1.0728
 8927TIP3    H226718   0.217   7.883   3.351 -0.1307 -0.2192 -0.3731
 8928TIP3   OH226719   0.971   6.048   3.193  0.5104 -0.1001  0.2016
 8928TIP3    H126720   0.953   5.997   3.114 -0.3940  0.0023  0.3347
 8928TIP3    H226721   1.009   6.130   3.161  0.4799 -0.2073 -0.1060
 8929TIP3   OH226722   7.390   7.240   1.568  0.2006  0.5216  0.6628
 8929TIP3    H126723   7.338   7.276   1.640 -0.0132  0.6862  0.4278
 8929TIP3    H226724   7.335   7.252   1.491  0.5953  0.7096  0.4120
 8930TIP3   OH226725   7.169   5.778   1.481 -0.0598  0.1499  0.0025
 8930TIP3    H126726   7.090   5.813   1.521 -0.3755  0.9866 -1.3498
 8930TIP3    H226727   7.228   5.761   1.555 -1.6560 -0.9302  1.0639
 8931TIP3   OH226728   7.852   7.429   1.851 -0.1494  0.1871 -0.3263
 8931TIP3    H126729   7.856   7.435   1.756 -2.7606 -0.8284 -0.5632
 8931TIP3    H226730   7.922   7.487   1.882  1.1548  0.0477 -2.8453
 8932TIP3   OH226731   7.409   7.398   2.556  0.0263 -0.2239 -0.3370
 8932TIP3    H126732   7.370   7.460   2.618 -0.0021  0.2837 -0.8614
 8932TIP3    H226733   7.444   7.328   2.612  1.8445  1.2454  0.4319
 8933TIP3   OH226734   7.954   5.773   3.671  0.3305 -0.2355 -0.0554
 8933TIP3    H126735   7.907   5.788   3.589 -1.9517 -1.2319  1.0270
 8933TIP3    H226736   8.010   5.698   3.653 -1.4718 -1.5718 -0.2111
 8934TIP3   OH226737   5.248   6.531   4.258 -0.2478  0.5364  0.0099
 8934TIP3    H126738   5.290   6.613   4.284  3.6029 -1.1596 -0.4569
 8934TIP3    H226739   5.240   6.537   4.163 -0.9006  0.7651  0.0759
 8935TIP3   OH226740   5.414   4.531   1.695 -0.0119 -0.1009 -0.3679
 8935TIP3    H126741   5.441   4.473   1.765 -1.5517 -2.1923 -1.4508
 8935TIP3    H226742   5.372   4.605   1.739  0.8067 -0.4362  0.9749
 8936TIP3   OH226743   6.041   4.833   4.123 -0.4214 -0.0164 -0.1210
 8936TIP3    H126744   5.997   4.772   4.181 -2.1848  0.2628 -1.1430
 8936TIP3    H226745   6.079   4.778   4.054  0.1360 -0.1838  0.3201
 8937TIP3   OH226746   1.049   7.735   2.842 -0.1085 -0.0714  0.5952
 8937TIP3    H126747   1.085   7.824   2.842  0.5425 -0.3306  1.5377
 8937TIP3    H226748   1.126   7.679   2.853 -0.3723 -0.8161 -1.2323
 8938TIP3   OH226749   3.280   0.706   1.352  0.5495 -0.0281 -0.3953
 8938TIP3    H126750   3.238   0.637   1.302  0.0674  0.4942 -0.7132
 8938TIP3    H226751   3.211   0.740   1.409  0.7867  0.1753 -0.2281
 8939TIP3   OH226752   3.528   0.239   0.986 -0.1502  0.1146 -0.4944
 8939TIP3    H126753   3.506   0.295   1.061 -0.1480 -0.2760 -0.2045
 8939TIP3    H226754   3.593   0.289   0.938 -0.4783  0.5662 -0.4776
 8940TIP3   OH226755   8.094   4.606   5.562  0.3547  0.1210 -0.4922
 8940TIP3    H126756   8.059   4.530   5.514 -1.3222  0.1046  0.7000
 8940TIP3    H226757   8.086   4.679   5.500 -4.4246  0.6785  0.6279
 8941TIP3   OH226758   3.142   2.337   2.479  0.4664  0.0065  0.3682
 8941TIP3    H126759   3.202   2.332   2.553  0.4577  1.1742  0.4713
 8941TIP3    H226760   3.065   2.288   2.507  1.3375 -1.4532  0.2536
 8942TIP3   OH226761   6.632   6.719   3.964  0.0444 -0.2980 -0.0128
 8942TIP3    H126762   6.653   6.753   3.877 -1.9590 -1.8663 -1.1362
 8942TIP3    H226763   6.700   6.755   4.021  1.3196  0.8216 -2.2020
 8943TIP3   OH226764   7.280   4.867   0.736 -0.0565 -0.0491  0.4494
 8943TIP3    H126765   7.372   4.886   0.755  0.5936 -1.3145 -1.2456
 8943TIP3    H226766   7.239   4.953   0.731  1.5231  0.6672 -1.0064
 8944TIP3   OH226767   1.001   1.141   0.721  0.7217  0.1410  0.4446
 8944TIP3    H126768   0.998   1.059   0.770  1.9447 -0.0838  0.1726
 8944TIP3    H226769   1.082   1.183   0.752 -1.2229  2.4926  2.5771
 8945TIP3   OH226770   5.396   7.581   3.526  0.0722 -0.2882  0.0067
 8945TIP3    H126771   5.391   7.571   3.621  0.8996 -0.6437  0.0117
 8945TIP3    H226772   5.331   7.519   3.492 -1.1359  0.7433  0.3817
 8946TIP3   OH226773   3.281   2.376   3.596  1.0953  0.3327  0.4105
 8946TIP3    H126774   3.330   2.453   3.625  0.6475  0.3309  1.2039
 8946TIP3    H226775   3.342   2.303   3.609  1.3245  0.4871  0.1960
 8947TIP3   OH226776   6.344   5.422   2.419  0.0315  0.1866 -0.3300
 8947TIP3    H126777   6.271   5.431   2.481 -0.1661  1.2291 -0.7082
 8947TIP3    H226778   6.303   5.417   2.333  0.2608 -2.2294 -0.3107
 8948TIP3   OH226779   7.139   6.246   3.165  0.4397  0.0826 -0.3271
 8948TIP3    H126780   7.129   6.328   3.117  2.9180  1.2952  1.1210
 8948TIP3    H226781   7.118   6.178   3.101 -0.1192  1.7876 -1.9968
 8949TIP3   OH226782   0.576   6.293   2.054 -0.0011 -0.0736  0.1465
 8949TIP3    H126783   0.493   6.320   2.016 -0.5460  0.5176  1.7135
 8949TIP3    H226784   0.577   6.198   2.047 -0.0798  0.0257 -1.3313
 8950TIP3   OH226785   6.189   5.580   2.953 -0.3666 -0.0009 -0.1181
 8950TIP3    H126786   6.130   5.515   2.991  0.5712  0.5239  2.3821
 8950TIP3    H226787   6.257   5.529   2.909 -2.5095 -0.6064 -2.8039
 8951TIP3   OH226788   7.721   5.718   3.335 -0.0781  0.0578  0.0702
 8951TIP3    H126789   7.715   5.698   3.242  0.2803 -1.0634  0.2828
 8951TIP3    H226790   7.813   5.738   3.350  0.1504 -1.2730  0.4793
 8952TIP3   OH226791   6.523   4.777   3.636 -0.1770 -0.1398 -0.7091
 8952TIP3    H126792   6.618   4.773   3.638 -0.1976 -0.2452  0.9276
 8952TIP3    H226793   6.496   4.690   3.606  0.2275 -0.4788 -0.1091
 8953TIP3   OH226794   2.329   0.323   2.029 -0.1542 -0.3237 -0.0482
 8953TIP3    H126795   2.335   0.253   2.094 -0.1940  0.6157  0.9580
 8953TIP3    H226796   2.298   0.278   1.950 -0.0051 -1.4819  0.5423
 8954TIP3   OH226797   7.946   7.897   1.231 -0.2006  0.6679 -0.2689
 8954TIP3    H126798   8.028   7.900   1.182 -1.3421  1.2745 -2.2118
 8954TIP3    H226799   7.914   7.807   1.218  0.2558  0.3660  0.6697
 8955TIP3   OH226800   0.153   0.413   2.742  0.2138 -0.0566  0.1204
 8955TIP3    H126801   0.201   0.478   2.794 -0.1806  0.5344 -0.2445
 8955TIP3    H226802   0.061   0.424   2.768 -0.1175  0.9039 -1.3798
 8956TIP3   OH226803   6.811   5.348   0.166  0.2392 -0.5898  0.6338
 8956TIP3    H126804   6.785   5.424   0.113  1.2659 -0.9626 -0.4196
 8956TIP3    H226805   6.892   5.376   0.209  0.9447 -1.2847 -0.2247
 8957TIP3   OH226806   1.695   0.162   3.185  0.2023  0.0318 -0.1657
 8957TIP3    H126807   1.787   0.135   3.183 -0.0359 -0.8691  0.4993
 8957TIP3    H226808   1.653   0.106   3.119 -0.1374 -0.6080  0.5929
 8958TIP3   OH226809   2.332   0.787   1.430  0.7498 -0.3385  0.4165
 8958TIP3    H126810   2.392   0.807   1.502  2.3132 -0.8910 -0.6939
 8958TIP3    H226811   2.336   0.692   1.421 -1.3551 -0.5258  1.2024
 8959TIP3   OH226812   3.770   0.132   3.338  0.0677 -0.1429 -0.2272
 8959TIP3    H126813   3.821   0.091   3.407  0.1133  0.3189  0.0152
 8959TIP3    H226814   3.793   0.225   3.343  0.5421 -0.2003 -1.2608
 8960TIP3   OH226815   0.133   7.029   3.966  0.0650  0.4055 -0.8676
 8960TIP3    H126816   0.132   7.022   4.062 -0.0508 -1.9679 -1.0248
 8960TIP3    H226817   0.084   7.110   3.948  0.1927  0.9491  1.0687
 8961TIP3   OH226818   0.114   0.739   3.913 -0.2736  0.3628  0.2234
 8961TIP3    H126819   0.133   0.718   3.822  0.2020  1.0220  0.1754
 8961TIP3    H226820   0.122   0.655   3.959 -1.0886 -0.0805 -0.4270
 8962TIP3   OH226821   1.456   7.127   6.018  0.0270  0.2387  0.8792
 8962TIP3    H126822   1.427   7.107   5.929 -0.9326 -2.5425  1.7681
 8962TIP3    H226823   1.401   7.201   6.045 -2.1361 -1.1408  0.3830
 8963TIP3   OH226824   0.154   6.260   5.192  0.3440 -0.0850 -0.0780
 8963TIP3    H126825   0.139   6.279   5.285  2.0212 -0.1660  0.2103
 8963TIP3    H226826   0.148   6.165   5.186 -1.5020  0.0154 -0.3877
 8964TIP3   OH226827   7.987   6.008   3.133 -0.1467  0.3630  0.1216
 8964TIP3    H126828   7.984   6.090   3.082 -1.8880 -0.5335 -1.2519
 8964TIP3    H226829   8.032   5.946   3.075  1.6933  0.4677  1.3896
 8965TIP3   OH226830   8.513   6.035   3.004 -0.0977 -0.0323  0.4267
 8965TIP3    H126831   8.471   5.958   2.967 -0.9546  0.9378 -0.6472
 8965TIP3    H226832   8.471   6.109   2.961  1.6843  1.0107  0.4256
 8966TIP3   OH226833   8.040   6.118   0.943 -0.1201  0.0720 -0.3684
 8966TIP3    H126834   8.054   6.202   0.987  0.7310  0.4104 -1.2684
 8966TIP3    H226835   7.945   6.107   0.942 -0.1969  0.5738  0.5697
 8967TIP3   OH226836   1.661   6.112   4.370  0.4151 -0.6641 -0.7951
 8967TIP3    H126837   1.678   6.195   4.326  0.8766 -0.8778 -1.0344
 8967TIP3    H226838   1.590   6.072   4.321  1.2041 -1.0894 -1.6209
 8968TIP3   OH226839   2.508   1.157   5.368  0.7687 -0.6053 -0.3454
 8968TIP3    H126840   2.480   1.074   5.329  1.9450 -0.9540 -0.4403
 8968TIP3    H226841   2.556   1.202   5.298  1.8566 -0.7208  0.3200
 8969TIP3   OH226842   1.109   6.809   3.168 -0.4603 -0.2914  0.2531
 8969TIP3    H126843   1.030   6.756   3.156 -0.2744 -0.4905 -0.1457
 8969TIP3    H226844   1.098   6.851   3.253 -0.7081 -0.8162  0.4870
 8970TIP3   OH226845   8.240   6.963   3.058  0.4267  0.0949 -0.0762
 8970TIP3    H126846   8.220   6.990   3.147 -0.2741  0.5711 -0.3712
 8970TIP3    H226847   8.312   7.019   3.031  1.6922 -1.1056  0.7236
 8971TIP3   OH226848   2.691   0.915   2.659 -0.3106 -0.4547 -0.4128
 8971TIP3    H126849   2.652   0.856   2.724 -0.0383 -0.7987 -0.5588
 8971TIP3    H226850   2.663   0.880   2.575  1.5088 -1.5760 -0.5782
 8972TIP3   OH226851   3.323   0.274   4.075  0.0220 -0.5451 -0.0023
 8972TIP3    H126852   3.409   0.315   4.065 -0.2868  0.0304 -0.3476
 8972TIP3    H226853   3.262   0.338   4.039 -0.6324 -0.6114  0.9605
 8973TIP3   OH226854   2.078   5.065   2.343 -0.4182  0.0004 -0.2591
 8973TIP3    H126855   2.090   5.014   2.423  0.9167 -0.8918 -1.0052
 8973TIP3    H226856   2.041   5.148   2.373  4.5528  1.6435  1.9454
 8974TIP3   OH226857   3.781   0.730   1.608 -0.2894 -0.0427  0.0377
 8974TIP3    H126858   3.820   0.710   1.523  1.0429 -0.1986  0.6607
 8974TIP3    H226859   3.776   0.646   1.653  0.8984  0.3039  0.8610
 8975TIP3   OH226860   8.238   6.194   2.349 -0.2357 -0.3539  0.0679
 8975TIP3    H126861   8.199   6.269   2.303  0.3122 -0.2537 -0.2387
 8975TIP3    H226862   8.208   6.204   2.440 -0.4959  0.0123 -0.0537
 8976TIP3   OH226863   0.234   7.620   1.607  0.4273  0.1517  0.1298
 8976TIP3    H126864   0.329   7.611   1.600  0.3473  1.2850 -2.8219
 8976TIP3    H226865   0.201   7.531   1.595  1.1352 -0.5198  2.7579
 8977TIP3   OH226866   3.640   1.848   2.046  0.3277  0.1544  0.2433
 8977TIP3    H126867   3.724   1.894   2.051  0.5513 -0.3382  1.1800
 8977TIP3    H226868   3.587   1.902   1.987  1.5594  0.0552 -0.9867
 8978TIP3   OH226869   4.807   0.319   6.318  0.4815 -0.3205  0.0093
 8978TIP3    H126870   4.779   0.398   6.364  0.4888 -0.1272 -0.3166
 8978TIP3    H226871   4.886   0.291   6.364  1.2067  0.5868 -0.6705
 8979TIP3   OH226872   4.965   1.346   1.825 -0.3844 -0.4203  0.0135
 8979TIP3    H126873   4.909   1.282   1.869  1.3857 -2.3498 -0.4640
 8979TIP3    H226874   5.046   1.299   1.807  0.6619  1.7258 -1.1122
 8980TIP3   OH226875   2.775   0.879   4.793  0.2218 -0.1209 -0.1278
 8980TIP3    H126876   2.828   0.955   4.818  2.4420 -1.6660  0.0243
 8980TIP3    H226877   2.810   0.853   4.707 -2.8292  1.0593 -1.8282
 8981TIP3   OH226878   2.693   0.596   2.391  0.1481 -0.0503 -0.0614
 8981TIP3    H126879   2.614   0.543   2.402  0.4075 -0.5162 -0.4161
 8981TIP3    H226880   2.743   0.550   2.324  0.5248  0.4743 -0.1380
 8982TIP3   OH226881   0.816   1.407   1.679 -0.4107  0.4930  0.1779
 8982TIP3    H126882   0.738   1.421   1.734 -0.3459  1.8198 -0.0512
 8982TIP3    H226883   0.786   1.423   1.590 -0.0749  0.1543  0.0017
 8983TIP3   OH226884   8.353   6.114   2.115  0.3111 -0.1459  0.1572
 8983TIP3    H126885   8.326   6.040   2.061 -0.8007  0.6146 -0.3568
 8983TIP3    H226886   8.274   6.136   2.165  0.6033  0.7642  0.2174
 8984TIP3   OH226887   0.228   7.482   4.390  0.4971 -0.1510 -0.2488
 8984TIP3    H126888   0.178   7.563   4.378  1.5643  0.8140  1.5774
 8984TIP3    H226889   0.184   7.418   4.334 -2.0403  0.9684  0.3925
 8985TIP3   OH226890   0.022   7.606   1.801  0.5844  0.5699  0.3886
 8985TIP3    H126891  -0.059   7.641   1.765 -0.2701 -0.2866  1.4430
 8985TIP3    H226892   0.086   7.616   1.731 -0.7414  0.0731 -0.9116
 8986TIP3   OH226893   4.724   1.290   2.701 -0.4001 -0.0368 -0.1703
 8986TIP3    H126894   4.652   1.227   2.701  0.2675 -0.8231  0.8311
 8986TIP3    H226895   4.781   1.261   2.629  0.4119 -1.1927  0.9122
 8987TIP3   OH226896   0.332   7.583   3.985  0.0010  0.6689 -0.8918
 8987TIP3    H126897   0.369   7.609   4.069 -0.6876 -0.3994 -0.2387
 8987TIP3    H226898   0.337   7.661   3.930  1.6050  1.0123 -0.2641
 8988TIP3   OH226899   1.341   6.694   5.461 -0.1827  0.8180  0.5461
 8988TIP3    H126900   1.308   6.612   5.497  1.2804 -0.3585 -0.7084
 8988TIP3    H226901   1.271   6.724   5.402 -0.8203  0.6128  1.1870
 8989TIP3   OH226902   2.942   0.650   3.494 -0.3861  0.4131 -0.6784
 8989TIP3    H126903   3.001   0.688   3.560 -1.4259 -0.6687  0.9335
 8989TIP3    H226904   2.894   0.724   3.458 -4.2838  0.6165  4.2459
 8990TIP3   OH226905   4.070   1.262   2.797  0.1830 -0.2382  0.1334
 8990TIP3    H126906   3.979   1.267   2.827  0.1042  0.5644 -0.2193
 8990TIP3    H226907   4.065   1.215   2.714  0.2649 -1.4404  0.7932
 8991TIP3   OH226908   3.413   0.118   2.326 -0.2292 -0.5630  0.4738
 8991TIP3    H126909   3.493   0.077   2.359 -0.9389 -1.3781  1.2020
 8991TIP3    H226910   3.370   0.154   2.403  0.5929  1.9758 -0.2113
 8992TIP3   OH226911   1.450   7.629   1.996  0.1268 -0.6515  0.1499
 8992TIP3    H126912   1.406   7.700   2.042 -1.3074 -1.2884 -0.2068
 8992TIP3    H226913   1.389   7.555   2.000  2.3763 -2.4880  2.1608
 8993TIP3   OH226914   2.020   6.847   3.380  0.1217 -0.0499  0.1524
 8993TIP3    H126915   1.948   6.884   3.430  0.7500 -0.0969  1.1155
 8993TIP3    H226916   2.003   6.872   3.289 -0.6087  0.7241  0.5015
 8994TIP3   OH226917   3.449   0.589   1.740  0.2673 -0.7547 -0.5065
 8994TIP3    H126918   3.358   0.620   1.740  0.8774  1.0957 -1.6492
 8994TIP3    H226919   3.487   0.626   1.661  2.0608 -1.4195  0.0260
 8995TIP3   OH226920   0.103   5.336   4.421 -0.4963  0.1977 -0.2031
 8995TIP3    H126921   0.019   5.380   4.431 -0.2732  1.2077 -2.4871
 8995TIP3    H226922   0.102   5.303   4.331  1.0327 -0.9100  0.1647
 8996TIP3   OH226923   2.891   0.259   3.280 -0.4434 -0.3178  0.2372
 8996TIP3    H126924   2.839   0.180   3.297  1.5340 -1.9092 -0.7794
 8996TIP3    H226925   2.979   0.237   3.312  0.1294  1.5009 -0.0318
 8997TIP3   OH226926   7.978   5.143   2.728  0.2114  0.5273 -0.4158
 8997TIP3    H126927   8.014   5.223   2.765 -0.6644  1.1819 -0.9819
 8997TIP3    H226928   7.906   5.119   2.787  1.1679 -0.4669  0.3865
 8998TIP3   OH226929   3.610   0.893   3.398  0.3088  0.3216 -0.3311
 8998TIP3    H126930   3.561   0.968   3.364  0.9863  0.7501 -0.3694
 8998TIP3    H226931   3.642   0.922   3.483 -2.5810 -1.2406  1.3926
 8999TIP3   OH226932   2.346   6.524   4.116  0.4398 -0.1298  0.2166
 8999TIP3    H126933   2.333   6.553   4.206  1.3398 -0.2591  0.3959
 8999TIP3    H226934   2.320   6.432   4.117 -3.0229  0.7819 -0.4953
 9000TIP3   OH226935   0.541   5.215   3.099 -0.3631 -0.4103  0.1553
 9000TIP3    H126936   0.605   5.285   3.090 -0.3320 -0.3938  0.4703
 9000TIP3    H226937   0.586   5.137   3.067  0.0241 -0.5111  0.9300
 9001TIP3   OH226938   4.377   0.704   2.351 -0.8274  0.0873  0.7338
 9001TIP3    H126939   4.352   0.660   2.270  1.5990  1.0911 -0.5973
 9001TIP3    H226940   4.339   0.792   2.344 -1.4355 -0.1420  1.1284
 9002TIP3   OH226941   5.792   0.284   3.712 -0.7272 -0.4094  0.1626
 9002TIP3    H126942   5.776   0.377   3.698 -0.0736 -0.1891  0.8063
 9002TIP3    H226943   5.731   0.259   3.782 -0.4358 -0.2987  0.4606
 9003TIP3   OH226944   4.162   0.263   1.660 -0.2742  0.2669  0.1238
 9003TIP3    H126945   4.222   0.328   1.623 -1.0321  2.5405  2.7105
 9003TIP3    H226946   4.219   0.204   1.710  0.2452 -0.1602 -0.9516
 9004TIP3   OH226947   8.010   6.624   2.615  0.1711 -0.7899  0.1527
 9004TIP3    H126948   7.965   6.571   2.681 -1.1576 -2.3220 -1.9470
 9004TIP3    H226949   7.948   6.692   2.592 -0.4046 -1.8168 -1.4063
 9005TIP3   OH226950   3.462   0.107   1.564 -0.2452  0.3220  0.1479
 9005TIP3    H126951   3.485   0.135   1.476 -2.4327 -0.9649 -0.8611
 9005TIP3    H226952   3.522   0.034   1.583  0.5089  0.8747 -0.0848
 9006TIP3   OH226953   2.838   7.285   1.873  0.3848  0.9298  0.1599
 9006TIP3    H126954   2.765   7.324   1.921 -0.4924  1.0200 -1.2189
 9006TIP3    H226955   2.811   7.288   1.781  1.3353 -0.7364 -0.1993
 9007TIP3   OH226956   4.889   1.369   4.222  0.0500  0.4400 -0.5151
 9007TIP3    H126957   4.856   1.442   4.274  0.3446 -0.0821  0.4235
 9007TIP3    H226958   4.975   1.397   4.193 -0.4469  1.0585 -1.4032
 9008TIP3   OH226959   1.857   7.694   2.651 -0.7016  0.4831 -0.1462
 9008TIP3    H126960   1.861   7.787   2.630 -0.6880  0.7193  0.9187
 9008TIP3    H226961   1.911   7.685   2.730 -2.4851 -0.0772  1.0202
 9009TIP3   OH226962   3.160   0.551   1.686 -0.7375  0.3977 -0.1646
 9009TIP3    H126963   3.128   0.632   1.646 -1.6685 -0.1107 -0.4686
 9009TIP3    H226964   3.207   0.506   1.615 -1.9426 -0.2600 -0.5597
 9010TIP3   OH226965   8.151   0.168   3.012 -0.0014  0.0897  0.5224
 9010TIP3    H126966   8.097   0.174   2.933  0.0787 -0.8506  0.3789
 9010TIP3    H226967   8.166   0.258   3.039 -2.3838  0.3412  1.0636
 9011TIP3   OH226968   5.730   0.356   4.276 -0.3973 -0.1240  0.0374
 9011TIP3    H126969   5.792   0.427   4.295  0.1115 -0.7556  0.7781
 9011TIP3    H226970   5.758   0.284   4.333 -0.3131 -1.2583 -1.3982
 9012TIP3   OH226971   2.186   7.860   1.345  0.6883  0.2526 -0.3931
 9012TIP3    H126972   2.200   7.913   1.424  0.9586  1.1373 -1.0265
 9012TIP3    H226973   2.196   7.922   1.273  0.8608 -0.6379 -1.1404
 9013TIP3   OH226974   4.510   0.715   4.538  0.4056 -0.1387 -0.0964
 9013TIP3    H126975   4.576   0.730   4.470  0.8732 -0.2398  0.3334
 9013TIP3    H226976   4.426   0.715   4.491  0.8461 -1.8671 -0.9133
 9014TIP3   OH226977   0.528   7.122   3.565 -0.0428  0.2122 -0.0730
 9014TIP3    H126978   0.599   7.116   3.629  1.2365 -0.6530 -1.5397
 9014TIP3    H226979   0.476   7.043   3.579  0.6905 -0.3725 -0.6137
 9015TIP3   OH226980   1.501   5.787   3.330  0.1127  0.0863 -0.1514
 9015TIP3    H126981   1.561   5.743   3.269  0.3969  0.3130 -0.0361
 9015TIP3    H226982   1.478   5.868   3.286 -0.7770 -0.3894 -0.5678
 9016TIP3   OH226983   4.295   1.565   1.665  0.0423  0.1404 -0.5214
 9016TIP3    H126984   4.355   1.515   1.610  0.5577  0.5797 -0.3625
 9016TIP3    H226985   4.237   1.499   1.702 -0.1023 -0.1948 -1.3316
 9017TIP3   OH226986   2.301   6.422   2.844 -0.1769  0.0794 -0.1393
 9017TIP3    H126987   2.322   6.474   2.921  0.1065 -1.3567  0.7791
 9017TIP3    H226988   2.221   6.461   2.810 -1.4603 -0.4882  2.0873
 9018TIP3   OH226989   4.005   0.871   3.763 -0.2093  0.1536  0.3270
 9018TIP3    H126990   3.912   0.869   3.739  0.2580  1.9310 -1.8289
 9018TIP3    H226991   4.005   0.862   3.859 -2.6387  0.9261  0.4423
 9019TIP3   OH226992   1.856   7.789   2.121  0.9465 -0.5359 -0.1699
 9019TIP3    H126993   1.859   7.708   2.069 -0.9168 -0.6333 -0.1828
 9019TIP3    H226994   1.804   7.765   2.198  1.1116  0.4320  0.2472
 9020TIP3   OH226995   4.796   1.115   1.952 -0.3277  0.4322  0.3042
 9020TIP3    H126996   4.879   1.068   1.944  0.5303  2.1662 -1.3678
 9020TIP3    H226997   4.754   1.102   1.867 -1.0545  0.9080  0.5920
 9021TIP3   OH226998   3.622   7.118   6.289  0.1102 -0.0583 -0.3675
 9021TIP3    H126999   3.590   7.208   6.304  0.7402  0.3361 -1.3522
 9021TIP3    H227000   3.610   7.104   6.196  2.4380 -0.0583 -0.6928
 9022TIP3   OH227001   2.339   6.780   4.560  0.0910 -0.1132  0.4548
 9022TIP3    H127002   2.315   6.700   4.514 -1.4361  0.5478  0.0854
 9022TIP3    H227003   2.433   6.790   4.543  0.2016 -1.5728  0.1444
 9023TIP3   OH227004   6.098   0.169   3.362 -0.4179  0.0295 -0.2432
 9023TIP3    H127005   6.143   0.085   3.366  1.2440  0.8766 -0.4186
 9023TIP3    H227006   6.021   0.159   3.418  0.5165 -1.1542  0.8501
 9024TIP3   OH227007   5.320   2.153   3.870 -0.3560 -0.1484  0.3949
 9024TIP3    H127008   5.364   2.226   3.913 -2.4600  0.1509  2.1410
 9024TIP3    H227009   5.243   2.193   3.829 -0.2673 -1.0332 -0.6788
 9025TIP3   OH227010   1.701   6.490   1.967  0.0064  0.5750  0.5801
 9025TIP3    H127011   1.614   6.489   2.006  0.2982  1.9876  1.3393
 9025TIP3    H227012   1.692   6.544   1.888  0.1207  0.5000  0.5159
 9026TIP3   OH227013   0.138   6.851   1.576 -0.5986 -0.7219  0.6243
 9026TIP3    H127014   0.062   6.806   1.613 -0.3158 -0.7359  1.1928
 9026TIP3    H227015   0.168   6.909   1.646 -1.5829  1.1431 -0.4494
 9027TIP3   OH227016   4.791   1.138   3.500  0.4336  0.1634 -0.0149
 9027TIP3    H127017   4.851   1.125   3.427  0.2923  1.0969 -0.3100
 9027TIP3    H227018   4.795   1.057   3.551  3.2608  0.8667  0.9557
 9028TIP3   OH227019   2.461   7.711   3.876  0.0654 -0.1712  0.0835
 9028TIP3    H127020   2.401   7.781   3.850 -1.0546 -1.2275 -0.2053
 9028TIP3    H227021   2.507   7.746   3.952  0.4918  1.3993 -0.8696
 9029TIP3   OH227022   1.835   6.925   5.027 -0.4222 -0.0146 -0.4968
 9029TIP3    H127023   1.759   6.980   5.048 -0.5524 -0.4121  0.0986
 9029TIP3    H227024   1.902   6.987   4.999 -0.1699  0.5674  1.3396
 9030TIP3   OH227025   1.318   7.820   1.688  0.1376  0.2174  0.3122
 9030TIP3    H127026   1.241   7.772   1.658  0.4647  0.1225 -0.3930
 9030TIP3    H227027   1.286   7.876   1.758 -0.3270 -0.7212  0.8528
 9031TIP3   OH227028   7.160   6.723   3.305  0.2615 -0.2440 -0.1367
 9031TIP3    H127029   7.090   6.658   3.313  0.3446 -0.3793 -0.4770
 9031TIP3    H227030   7.132   6.796   3.360 -0.5940  0.0826 -0.9949
 9032TIP3   OH227031   2.441   6.853   2.903  0.1584 -0.3052  0.2092
 9032TIP3    H127032   2.461   6.911   2.976  1.1227  0.4773 -0.6563
 9032TIP3    H227033   2.507   6.784   2.909  0.5847  0.0575 -0.2344
 9033TIP3   OH227034   3.758   1.254   1.618 -0.1454 -0.1165  0.2903
 9033TIP3    H127035   3.763   1.162   1.645 -1.2561 -0.0722  0.6871
 9033TIP3    H227036   3.664   1.271   1.609  0.0955  0.6791 -0.8558
 9034TIP3   OH227037   2.784   7.251   1.616  0.0432  0.7124  0.0754
 9034TIP3    H127038   2.759   7.284   1.529 -1.4413  0.9460  0.5747
 9034TIP3    H227039   2.724   7.179   1.633  0.6845  0.3161  0.6853
 9035TIP3   OH227040   0.690   6.515   4.021  0.3805  0.2336  0.1577
 9035TIP3    H127041   0.777   6.552   4.010 -0.1481  1.2949 -0.5986
 9035TIP3    H227042   0.696   6.426   3.986  1.3162  0.0768  0.7126
 9036TIP3   OH227043   0.292   5.491   2.193  0.5464 -0.1807 -0.4516
 9036TIP3    H127044   0.319   5.538   2.271  0.2150  0.7403 -0.8862
 9036TIP3    H227045   0.369   5.437   2.170  1.3452  0.9956 -0.5966
 9037TIP3   OH227046   7.970   7.265   2.084 -0.0334  0.0856  0.0129
 9037TIP3    H127047   8.000   7.333   2.024  1.5204  0.7132  1.4920
 9037TIP3    H227048   7.998   7.183   2.043  0.9779  0.5035 -0.1323
 9038TIP3   OH227049   8.335   6.526   1.433 -0.1659 -0.1896  0.0489
 9038TIP3    H127050   8.357   6.443   1.390  0.4573 -0.4195  0.7927
 9038TIP3    H227051   8.410   6.582   1.413 -0.1879 -0.0843  0.2690
 9039TIP3   OH227052   3.073   7.409   4.796 -0.0956 -0.2118 -0.4744
 9039TIP3    H127053   2.998   7.398   4.737 -0.2690 -0.6739 -0.1704
 9039TIP3    H227054   3.140   7.350   4.761 -0.3059 -0.7159 -0.0330
 9040TIP3   OH227055   1.312   7.640   4.413 -0.1468  0.0920 -0.2750
 9040TIP3    H127056   1.217   7.645   4.405 -0.1745  1.0085  0.5736
 9040TIP3    H227057   1.328   7.570   4.476 -0.3026  0.8070  0.5619
 9041TIP3   OH227058   0.282   7.891   3.918  0.1363  0.2848 -0.1296
 9041TIP3    H127059   0.276   7.959   3.985 -1.2292  0.4992 -0.4564
 9041TIP3    H227060   0.192   7.863   3.904  0.6034 -1.0460 -0.5722
 9042TIP3   OH227061   3.499   7.773   4.230 -0.6316 -0.6857 -0.5513
 9042TIP3    H127062   3.412   7.733   4.221 -0.6630 -0.3768 -1.7438
 9042TIP3    H227063   3.481   7.867   4.228 -0.3164 -0.6217 -0.3190
 9043TIP3   OH227064   1.927   6.411   3.780 -0.1727  0.7589  0.6474
 9043TIP3    H127065   1.855   6.466   3.750 -0.1911  0.7863  0.7415
 9043TIP3    H227066   1.999   6.472   3.795  0.2282  0.5959 -0.5471
 9044TIP3   OH227067   5.560   0.826   3.013 -0.3168 -0.0534 -0.1135
 9044TIP3    H127068   5.490   0.766   3.038  0.7593 -1.5004 -0.5182
 9044TIP3    H227069   5.639   0.773   3.016  0.5522  1.1488 -1.2700
 9045TIP3   OH227070   4.553   0.144   1.909 -0.0136  0.6506 -0.1888
 9045TIP3    H127071   4.523   0.068   1.958 -0.4469  0.7463 -0.3080
 9045TIP3    H227072   4.558   0.215   1.974  0.8064  0.4186  0.0128
 9046TIP3   OH227073   5.369   0.399   2.233  0.1752  0.2185 -0.0485
 9046TIP3    H127074   5.307   0.465   2.267  0.1729  1.4124 -2.2956
 9046TIP3    H227075   5.318   0.318   2.229 -0.7534  0.8091 -0.2928
 9047TIP3   OH227076   1.305   6.955   3.629 -0.2836 -0.0724  0.1781
 9047TIP3    H127077   1.356   6.926   3.705 -0.1061  1.0155  0.4888
 9047TIP3    H227078   1.217   6.969   3.664 -0.2036  0.4192  0.1941
 9048TIP3   OH227079   5.200   1.244   2.538  0.5629 -0.7855  0.1308
 9048TIP3    H127080   5.232   1.198   2.615  0.1729 -0.6187  0.3954
 9048TIP3    H227081   5.105   1.247   2.550  0.5114 -0.6769 -0.3080
 9049TIP3   OH227082   2.579   6.467   4.968 -0.3228 -0.3546 -0.3099
 9049TIP3    H127083   2.585   6.562   4.964  0.9390 -0.3729  0.7040
 9049TIP3    H227084   2.511   6.444   4.905 -1.1035  1.2639 -0.0728
 9050TIP3   OH227085   1.828   7.608   4.007  0.3966 -0.3925  0.5943
 9050TIP3    H127086   1.802   7.516   4.013  0.2787 -0.2993  1.6500
 9050TIP3    H227087   1.924   7.606   4.007  0.4202 -0.4415  2.3130
 9051TIP3   OH227088   1.096   7.132   4.155 -0.4312  0.0858  0.2047
 9051TIP3    H127089   1.076   7.038   4.144 -0.2792  0.0381  0.3405
 9051TIP3    H227090   1.055   7.173   4.079 -0.9176 -0.0325  0.3949
 9052TIP3   OH227091   3.463   2.016   1.852  0.3610 -0.2295 -0.5858
 9052TIP3    H127092   3.536   1.980   1.802  0.0905 -0.1429 -1.0488
 9052TIP3    H227093   3.390   1.957   1.834  0.3063 -0.2942 -0.1563
 9053TIP3   OH227094   4.057   0.007   1.865 -1.1144 -0.1150  0.2458
 9053TIP3    H127095   4.001   0.069   1.820  0.6531  1.3788  0.0622
 9053TIP3    H227096   4.128   0.060   1.901 -0.3721 -1.8204  1.3652
 9054TIP3   OH227097   7.983   5.177   4.334  0.3433 -0.0824  0.7089
 9054TIP3    H127098   7.926   5.124   4.390  0.2336 -0.2816  0.4140
 9054TIP3    H227099   8.052   5.208   4.392  0.6546 -0.9218  0.7967
 9055TIP3   OH227100   1.080   6.715   4.516 -0.9383  0.2035 -0.0013
 9055TIP3    H127101   1.171   6.697   4.494 -2.2520 -1.0236 -4.9634
 9055TIP3    H227102   1.070   6.809   4.502 -0.1837  0.6025  1.8998
 9056TIP3   OH227103   8.084   3.372   6.799 -0.1594  0.2149  0.0708
 9056TIP3    H127104   8.119   3.381   6.711  0.5113 -0.7001  0.2412
 9056TIP3    H227105   8.128   3.440   6.850  0.1301  0.1542 -0.0976
 9057TIP3   OH227106   3.333   0.182   1.786  0.6639 -0.9376 -0.6456
 9057TIP3    H127107   3.374   0.142   1.710  0.0337  0.4352 -1.7303
 9057TIP3    H227108   3.391   0.254   1.810  1.2947 -1.8692  0.7011
 9058TIP3   OH227109   0.180   6.443   1.166  0.8405 -0.3713  0.4431
 9058TIP3    H127110   0.207   6.519   1.218 -0.1432  0.2224  0.1020
 9058TIP3    H227111   0.262   6.398   1.144  1.5515  1.3327 -0.4823
 9059TIP3   OH227112   5.094   0.129   5.047 -0.1809 -0.7200  0.2905
 9059TIP3    H127113   5.038   0.150   5.122 -0.5743  1.3432 -0.5367
 9059TIP3    H227114   5.059   0.183   4.976  0.3129 -2.4959 -1.3347
 9060TIP3   OH227115   1.692   0.476   1.938  0.0879 -0.3206  0.2187
 9060TIP3    H127116   1.635   0.546   1.906 -1.8562 -1.4827  1.0995
 9060TIP3    H227117   1.662   0.459   2.027  1.4690 -1.3247  0.4989
 9061TIP3   OH227118   5.056   0.836   4.178 -0.0112  0.0021 -0.0102
 9061TIP3    H127119   5.060   0.741   4.189  0.6242  0.1878  1.4945
 9061TIP3    H227120   4.985   0.851   4.116  0.2346 -1.4836 -0.6652
 9062TIP3   OH227121   4.229   0.472   2.813 -0.0962  0.3805  0.0769
 9062TIP3    H127122   4.240   0.394   2.758 -0.0738  0.2303  0.2943
 9062TIP3    H227123   4.198   0.540   2.753  0.5069  0.3803 -0.2391
 9063TIP3   OH227124   2.217   5.064   3.434  0.1540  0.1559 -0.6959
 9063TIP3    H127125   2.204   5.004   3.507 -1.2336 -0.8092 -1.6956
 9063TIP3    H227126   2.298   5.110   3.455 -0.6512  0.5085  1.8507
 9064TIP3   OH227127   4.655   1.390   3.084 -0.0121  0.3327  0.2650
 9064TIP3    H127128   4.590   1.320   3.087  0.5574 -0.2618 -1.0600
 9064TIP3    H227129   4.739   1.345   3.076  0.5238  1.1132  1.3416
 9065TIP3   OH227130   3.205   1.374   1.119 -0.4846 -0.2943  0.0111
 9065TIP3    H127131   3.140   1.414   1.060  2.1492  0.6246 -2.3654
 9065TIP3    H227132   3.208   1.282   1.094 -2.5973 -0.8930  1.8012
 9066TIP3   OH227133   4.231   7.759   3.384 -0.1076  0.3680 -0.4659
 9066TIP3    H127134   4.183   7.754   3.467  0.8626  0.1999  0.0855
 9066TIP3    H227135   4.235   7.853   3.365 -0.3154  0.4074 -0.3231
 9067TIP3   OH227136   0.062   5.317   3.333 -0.1129  0.0557  0.0037
 9067TIP3    H127137   0.100   5.369   3.262  0.2310 -1.7535 -1.1685
 9067TIP3    H227138   0.133   5.310   3.397  0.7686 -1.2401 -1.0744
 9068TIP3   OH227139   2.652   5.798   3.807  0.1803  0.5393 -0.2853
 9068TIP3    H127140   2.687   5.886   3.799  0.3402  0.4950 -0.0844
 9068TIP3    H227141   2.585   5.792   3.739  0.2386  0.7812 -0.3632
 9069TIP3   OH227142   1.675   7.310   3.426 -0.4637 -0.8484 -0.3851
 9069TIP3    H127143   1.588   7.299   3.463 -0.7676 -0.5785 -1.0087
 9069TIP3    H227144   1.661   7.305   3.331 -0.1130  1.3695 -0.5682
 9070TIP3   OH227145   3.145   0.592   3.301  0.8014  0.1600 -0.0118
 9070TIP3    H127146   3.075   0.554   3.353  2.1831 -0.1425  1.6543
 9070TIP3    H227147   3.141   0.685   3.319  0.6518  0.1806 -0.1477
 9071TIP3   OH227148   2.276   7.126   3.687 -0.2448  0.0974  0.0671
 9071TIP3    H127149   2.288   7.132   3.782 -0.2847 -1.1010  0.1496
 9071TIP3    H227150   2.360   7.157   3.651  0.0539 -0.1936  0.5062
 9072TIP3   OH227151   6.249   0.161   5.322  0.0500  0.7606 -0.1443
 9072TIP3    H127152   6.202   0.185   5.243 -0.4429 -0.3270 -0.1908
 9072TIP3    H227153   6.213   0.076   5.347  1.2848  0.3718  0.3750
 9073TIP3   OH227154   1.608   6.773   4.364 -0.8481  0.5447 -0.0068
 9073TIP3    H127155   1.684   6.830   4.360  1.1348 -1.9333  0.9362
 9073TIP3    H227156   1.596   6.755   4.457 -2.9518  1.3330 -0.0907
 9074TIP3   OH227157   3.377   0.778   0.626 -0.8105  0.0004  0.1101
 9074TIP3    H127158   3.349   0.827   0.704 -0.3139 -0.0248  0.3052
 9074TIP3    H227159   3.327   0.816   0.554 -0.9516  0.3137  0.3753
 9075TIP3   OH227160   4.825   1.439   1.620 -0.1549  0.3627 -0.0999
 9075TIP3    H127161   4.865   1.521   1.590 -1.0165  1.4447  1.6511
 9075TIP3    H227162   4.879   1.413   1.695  0.1270 -0.6986 -0.6687
 9076TIP3   OH227163   1.166   7.110   5.952  0.9078  0.4605  0.3004
 9076TIP3    H127164   1.153   7.025   5.994  1.3944  0.1035 -0.2567
 9076TIP3    H227165   1.125   7.173   6.011  0.5194 -0.1672  0.7006
 9077TIP3   OH227166   7.847   5.716   3.927 -0.4112 -0.2939 -0.1211
 9077TIP3    H127167   7.875   5.740   3.838  0.4601  0.8419  0.4480
 9077TIP3    H227168   7.927   5.684   3.969 -0.3028  1.3670  0.9793
 9078TIP3   OH227169   0.730   6.420   0.583 -0.1394 -0.4130 -0.2611
 9078TIP3    H127170   0.727   6.461   0.670 -2.6486  0.0741 -0.5188
 9078TIP3    H227171   0.684   6.336   0.595  0.8417 -1.0435 -0.8023
 9079TIP3   OH227172   2.782   7.281   2.273  0.3290 -0.1771  0.3632
 9079TIP3    H127173   2.868   7.306   2.308  1.2293 -0.8198 -1.3268
 9079TIP3    H227174   2.792   7.190   2.247 -0.3641  0.2212 -1.3667
 9080TIP3   OH227175   7.679   5.486   2.115 -0.0940  0.3679 -0.1946
 9080TIP3    H127176   7.638   5.548   2.056  1.9629  1.3129 -0.6858
 9080TIP3    H227177   7.615   5.473   2.185 -0.7339  2.7453 -0.2900
 9081TIP3   OH227178   3.489   0.132   2.969 -0.2100 -0.3814 -0.6097
 9081TIP3    H127179   3.537   0.088   3.040 -2.7551  0.0412  1.4697
 9081TIP3    H227180   3.530   0.218   2.963  0.0200 -0.4054  0.3950
 9082TIP3   OH227181   1.198   7.198   2.404 -0.4128  0.2272 -0.1469
 9082TIP3    H127182   1.154   7.202   2.488  0.2758  0.7832  0.1989
 9082TIP3    H227183   1.188   7.286   2.367 -0.2869  0.1262 -0.4238
 9083TIP3   OH227184   6.646   7.312   3.145 -0.8141 -0.6703  0.0653
 9083TIP3    H127185   6.635   7.405   3.128 -2.7238 -0.8766  0.0824
 9083TIP3    H227186   6.653   7.273   3.058 -2.4944 -0.7848 -0.0334
 9084TIP3   OH227187   2.991   0.285   2.410 -0.1152 -0.2427  0.3072
 9084TIP3    H127188   2.906   0.239   2.405 -0.9214  1.2279  0.2736
 9084TIP3    H227189   3.041   0.235   2.475 -0.8346 -1.3904  0.0059
 9085TIP3   OH227190   2.795   6.569   2.048 -0.0648  0.2353  0.0437
 9085TIP3    H127191   2.785   6.623   1.970 -0.7111 -0.4648 -0.3644
 9085TIP3    H227192   2.735   6.606   2.112 -0.3678  0.1121 -0.1717
 9086TIP3   OH227193   3.126   6.063   3.333 -0.1076  0.1638 -0.7170
 9086TIP3    H127194   3.091   5.974   3.332 -1.9057  0.8487 -2.3995
 9086TIP3    H227195   3.221   6.051   3.342 -0.1943 -1.9690 -2.2403
 9087TIP3   OH227196   1.577   7.026   3.295 -0.2076  0.1455 -0.1640
 9087TIP3    H127197   1.521   7.073   3.233 -0.4074  0.2434  0.0917
 9087TIP3    H227198   1.629   6.968   3.240  0.2668  0.8883 -0.5186
 9088TIP3   OH227199   3.499   7.937   4.940 -0.3152  0.7799  0.0955
 9088TIP3    H127200   3.470   7.874   4.874  0.1044 -1.3172  1.8562
 9088TIP3    H227201   3.421   7.958   4.990  0.0232 -0.3701  1.1403
 9089TIP3   OH227202   0.926   6.621   4.288  0.4212  0.1598 -0.2039
 9089TIP3    H127203   0.984   6.661   4.354  1.4047 -1.6007  0.0653
 9089TIP3    H227204   0.838   6.640   4.319  0.8669  1.4558  0.3054
 9090TIP3   OH227205   1.659   6.324   3.276  0.0604  0.0932  0.4024
 9090TIP3    H127206   1.686   6.249   3.329  0.5609  0.1339  0.2102
 9090TIP3    H227207   1.736   6.380   3.274 -0.7127  1.2270  1.5996
 9091TIP3   OH227208   1.495   7.934   2.864 -0.1960  0.5743 -0.2136
 9091TIP3    H127209   1.525   8.008   2.809 -1.4530  1.2448 -0.0003
 9091TIP3    H227210   1.565   7.924   2.929  1.3089 -0.2018 -1.8878
 9092TIP3   OH227211   5.151   0.515   4.421 -0.6107 -0.0349 -0.0300
 9092TIP3    H127212   5.182   0.530   4.509 -2.9474 -0.8071  0.9797
 9092TIP3    H227213   5.191   0.432   4.395 -1.5599 -0.8590  1.1150
 9093TIP3   OH227214   0.345   7.833   1.876 -0.3909 -0.0390  0.4280
 9093TIP3    H127215   0.277   7.859   1.938  1.4252  2.2560  1.5303
 9093TIP3    H227216   0.370   7.915   1.833 -1.5030 -1.5742 -3.2568
 9094TIP3   OH227217   8.124   5.861   5.936 -0.0518 -0.1424  0.3324
 9094TIP3    H127218   8.136   5.905   6.020  1.3085 -0.8292  0.5053
 9094TIP3    H227219   8.130   5.768   5.956 -0.4170 -0.3365 -0.4216
 9095TIP3   OH227220   0.181   7.526   3.578 -0.2289 -0.2597  0.2064
 9095TIP3    H127221   0.166   7.516   3.672 -0.1100  1.1795  0.3914
 9095TIP3    H227222   0.108   7.581   3.548  0.8328  1.0005 -0.1546
 9096TIP3   OH227223   3.904   0.080   4.222  0.5208  0.6370 -0.3663
 9096TIP3    H127224   3.976   0.142   4.215  1.4942 -0.5597 -1.1451
 9096TIP3    H227225   3.891   0.070   4.316  1.6467  0.5462 -0.2115
 9097TIP3   OH227226   4.969   0.554   3.467 -0.5339 -0.4330 -0.2474
 9097TIP3    H127227   4.911   0.560   3.543 -0.2392  1.2541 -0.1450
 9097TIP3    H227228   4.928   0.489   3.411 -1.1450 -1.1592  1.0194
 9098TIP3   OH227229   4.456   0.329   3.261 -0.1605 -0.3442 -0.4859
 9098TIP3    H127230   4.522   0.278   3.308 -0.7615  0.5461  1.3548
 9098TIP3    H227231   4.490   0.418   3.261  0.4685 -0.5397 -2.9459
 9099TIP3   OH227232   2.475   5.766   1.681  0.0927 -0.3394 -0.5341
 9099TIP3    H127233   2.388   5.728   1.690 -0.3351  0.8078  0.2794
 9099TIP3    H227234   2.469   5.826   1.607  0.1316 -0.1030 -0.3475
 9100TIP3   OH227235   3.604   6.527   3.329  0.4761  0.5944 -0.1004
 9100TIP3    H127236   3.692   6.562   3.316 -0.0031  1.4850 -0.9793
 9100TIP3    H227237   3.551   6.566   3.260 -1.5266  3.2440  2.7494
 9101TIP3   OH227238   1.162   6.686   3.516 -0.2796 -0.4899 -0.3125
 9101TIP3    H127239   1.195   6.687   3.606  1.3626 -0.1634 -0.9060
 9101TIP3    H227240   1.074   6.724   3.522 -0.2602 -0.6615  1.1753
 9102TIP3   OH227241   8.260   6.032   5.468 -0.5154  0.8262  0.3602
 9102TIP3    H127242   8.225   5.966   5.528  2.6729 -1.8572 -0.5666
 9102TIP3    H227243   8.335   6.069   5.514  0.5226  0.4213 -0.9594
 9103TIP3   OH227244   4.837   0.188   5.101 -0.0739  0.0064 -1.1009
 9103TIP3    H127245   4.744   0.213   5.099 -0.0044  0.2866 -0.8177
 9103TIP3    H227246   4.836   0.095   5.124 -0.3429 -0.3009 -2.2818
 9104TIP3   OH227247   2.270   7.319   2.137  0.7552 -0.2018  0.6735
 9104TIP3    H127248   2.348   7.337   2.190  1.0310 -2.2333  1.0152
 9104TIP3    H227249   2.286   7.233   2.099 -0.5687  0.1265 -0.6689
 9105TIP3   OH227250   1.084   7.393   2.247  0.3062 -0.4116  0.4058
 9105TIP3    H127251   1.044   7.430   2.326 -0.5857 -2.1892  0.8157
 9105TIP3    H227252   1.164   7.444   2.235 -0.1606  0.6939  1.7501
 9106TIP3   OH227253   6.433   0.246   2.192  0.5378 -0.2816 -0.0069
 9106TIP3    H127254   6.363   0.181   2.186  0.7993 -0.5164 -0.5749
 9106TIP3    H227255   6.469   0.250   2.103 -2.3232  3.8247 -1.1017
 9107TIP3   OH227256   3.238   5.227   5.534  0.0310  0.0710 -0.8079
 9107TIP3    H127257   3.205   5.137   5.536 -0.6533  0.3252 -0.4407
 9107TIP3    H227258   3.294   5.234   5.611 -1.5747  0.5730  0.3415
 9108TIP3   OH227259   2.924   7.152   4.342  0.5746  0.5305 -0.0753
 9108TIP3    H127260   2.848   7.137   4.397  1.3484  0.7659  1.0676
 9108TIP3    H227261   2.990   7.090   4.374  1.7989  2.2572  0.8160
 9109TIP3   OH227262   0.622   7.203   3.323  0.0297 -0.0643  0.1661
 9109TIP3    H127263   0.595   7.186   3.414  1.2818  0.4900  0.6544
 9109TIP3    H227264   0.550   7.169   3.270 -0.0986 -1.6727  1.3215
 9110TIP3   OH227265   5.343   0.867   4.986 -0.2504 -0.0828  0.3185
 9110TIP3    H127266   5.349   0.961   4.973  0.2804 -0.1783 -0.1674
 9110TIP3    H227267   5.412   0.847   5.050 -0.7787 -0.0520  0.8972
 9111TIP3   OH227268   1.421   6.310   3.821 -0.0582 -0.1808  0.3428
 9111TIP3    H127269   1.468   6.290   3.902 -1.2862 -1.1228  0.8217
 9111TIP3    H227270   1.480   6.280   3.752  0.2492 -0.9298  0.9247
 9112TIP3   OH227271   2.147   7.166   3.376  0.0040 -0.1285 -0.4724
 9112TIP3    H127272   2.171   7.250   3.415  1.3532 -0.5132 -0.4364
 9112TIP3    H227273   2.052   7.171   3.364 -0.0830  0.9356  0.6046
 9113TIP3   OH227274   5.889   0.090   5.230 -0.2360 -0.0796 -0.1129
 9113TIP3    H127275   5.810   0.129   5.191  0.5230  1.6323  0.0130
 9113TIP3    H227276   5.883   0.113   5.323  1.1857  1.4488 -0.3710
 9114TIP3   OH227277   3.315   7.165   3.835 -0.4879 -0.1303 -0.0687
 9114TIP3    H127278   3.267   7.125   3.762 -2.6996  1.5541  0.3960
 9114TIP3    H227279   3.377   7.224   3.793  0.1756 -1.2222 -0.6499
 9115TIP3   OH227280   4.364   0.444   3.664  0.2768  0.3439 -0.4075
 9115TIP3    H127281   4.371   0.522   3.609 -0.1585 -0.8659 -2.1963
 9115TIP3    H227282   4.389   0.372   3.608  0.4923 -0.8524  1.1927
 9116TIP3   OH227283   2.945   7.535   4.289 -0.1196 -0.4174 -0.7535
 9116TIP3    H127284   2.930   7.499   4.202  2.1642  1.8854 -2.1703
 9116TIP3    H227285   3.040   7.536   4.299 -0.3456 -0.0912  1.5033
 9117TIP3   OH227286   2.804   6.373   3.526 -0.2498  0.1061  0.0258
 9117TIP3    H127287   2.742   6.386   3.598  0.4424  0.1353  0.6189
 9117TIP3    H227288   2.880   6.425   3.550 -0.2745  0.6428 -1.0555
 9118TIP3   OH227289   4.797   6.037   4.455  0.0127 -0.0258 -0.3856
 9118TIP3    H127290   4.714   6.080   4.435  0.3856  1.0088  0.2197
 9118TIP3    H227291   4.806   6.047   4.550  0.2672 -1.1723 -0.2790
 9119TIP3   OH227292   2.048   7.630   5.730 -0.1451  0.7046 -0.0829
 9119TIP3    H127293   2.033   7.631   5.635  0.3401  0.0871 -0.1746
 9119TIP3    H227294   1.961   7.638   5.769 -0.5585 -1.1402 -0.5843
 9120TIP3   OH227295   2.993   0.277   2.988 -0.2977  0.0057  0.2062
 9120TIP3    H127296   2.961   0.301   3.075  0.3539  1.7870 -0.0375
 9120TIP3    H227297   2.917   0.291   2.931 -1.0460 -2.1781  0.6221
 9121TIP3   OH227298   6.002   1.067   4.732  0.3223  0.3482 -0.6323
 9121TIP3    H127299   5.969   1.110   4.653 -0.1701  0.8922 -0.1310
 9121TIP3    H227300   6.010   0.974   4.707  0.6807  0.6060 -1.4805
 9122TIP3   OH227301   5.003   0.323   3.827 -0.1439 -0.5110  0.1327
 9122TIP3    H127302   5.098   0.319   3.816 -0.1049 -0.0213  0.2686
 9122TIP3    H227303   4.978   0.406   3.787 -0.2352  0.4340  2.1025
 9123TIP3   OH227304   4.842   0.935   4.938 -0.7465  0.0272 -0.1119
 9123TIP3    H127305   4.850   1.018   4.892 -1.4646 -0.5732 -1.3570
 9123TIP3    H227306   4.782   0.883   4.884 -0.2237 -1.3336  0.5796
 9124TIP3   OH227307   1.924   7.980   4.478 -0.0323  0.7132 -0.7816
 9124TIP3    H127308   1.956   7.940   4.559  3.0973  0.6904 -1.9519
 9124TIP3    H227309   1.847   7.930   4.455 -0.8282  0.5626  2.0408
 9125TIP3   OH227310   6.093   0.258   4.546  0.3099  0.0788 -0.5222
 9125TIP3    H127311   6.124   0.278   4.458  0.9079 -0.9959 -0.5709
 9125TIP3    H227312   6.102   0.163   4.553  2.0914  0.3450  1.3549
 9126TIP3   OH227313   5.863   0.889   4.296 -0.5946  0.2970  1.1565
 9126TIP3    H127314   5.817   0.934   4.226 -2.6394 -0.2000  2.1334
 9126TIP3    H227315   5.946   0.861   4.257 -1.2059  1.0198 -0.7085
 9127TIP3   OH227316   5.874   0.838   5.037 -0.2675 -0.3444  0.3598
 9127TIP3    H127317   5.838   0.751   5.019  0.4121 -0.3838 -0.8623
 9127TIP3    H227318   5.859   0.887   4.957  2.0499 -0.2561 -0.0652
 9128TIP3   OH227319   3.062   7.940   4.772 -0.0613 -0.4403  0.5247
 9128TIP3    H127320   3.113   7.874   4.818  0.6158  0.2290  0.7541
 9128TIP3    H227321   2.981   7.895   4.745  0.0314 -1.1236  1.3916
 9129TIP3   OH227322   0.559   6.558   3.308 -0.1736 -0.9730  0.5308
 9129TIP3    H127323   0.477   6.597   3.278  0.3708  0.2643  0.6078
 9129TIP3    H227324   0.533   6.475   3.347 -1.5486 -0.0123  1.7022
 9130TIP3   OH227325   6.080   1.655   4.537 -0.0169  0.0071  0.2398
 9130TIP3    H127326   5.986   1.644   4.543 -0.0212 -0.0707  0.0518
 9130TIP3    H227327   6.107   1.592   4.470  0.3441 -0.9198  1.2445
 9131TIP3   OH227328   2.364   5.422   3.878 -0.3149  0.1275  0.2199
 9131TIP3    H127329   2.395   5.332   3.866  1.6948  1.1393 -2.3212
 9131TIP3    H227330   2.438   5.468   3.918  0.0041  1.5171 -1.9015
 9132TIP3   OH227331   4.372   0.113   3.980 -0.0622 -0.0899  0.2496
 9132TIP3    H127332   4.427   0.085   3.907 -0.7880 -0.7042 -0.0651
 9132TIP3    H227333   4.304   0.167   3.939  0.5861  1.0966  0.6969
 9133TIP3   OH227334   4.135   7.249   3.559  0.2115 -0.0957  0.3247
 9133TIP3    H127335   4.178   7.316   3.506 -1.4444  1.4466  0.8707
 9133TIP3    H227336   4.111   7.180   3.497  3.1110 -0.8594 -0.0457
 9134TIP3   OH227337   5.268   1.386   4.841  0.0568  0.4514  0.2794
 9134TIP3    H127338   5.357   1.351   4.833  0.1766  0.5493  1.1764
 9134TIP3    H227339   5.280   1.479   4.859 -0.2414  0.6137 -0.3370
 9135TIP3   OH227340   0.598   6.384   5.449 -0.4773  0.3538  0.0631
 9135TIP3    H127341   0.589   6.289   5.437 -0.4860  0.4343 -0.5779
 9135TIP3    H227342   0.521   6.408   5.501  0.2475 -0.2006  1.4322
 9136TIP3   OH227343   4.530   7.836   3.898 -0.1277  0.0783 -0.5097
 9136TIP3    H127344   4.436   7.842   3.878 -0.5338 -0.4020  1.1620
 9136TIP3    H227345   4.549   7.742   3.895  0.3167  0.1741 -0.8343
 9137TIP3   OH227346   2.772   7.945   2.863 -0.6668 -0.3406 -0.3388
 9137TIP3    H127347   2.691   7.984   2.832 -1.4734 -1.4089  0.3777
 9137TIP3    H227348   2.789   7.986   2.948 -0.6738 -0.4211 -0.2989
 9138TIP3   OH227349   0.311   5.405   5.010  0.6311  0.5041  0.0903
 9138TIP3    H127350   0.336   5.452   4.930 -0.5337  0.7988 -0.1018
 9138TIP3    H227351   0.322   5.469   5.080 -0.6016  0.9595 -0.1260
 9139TIP3   OH227352   3.966   0.349   3.302 -0.3254  0.1026 -1.2097
 9139TIP3    H127353   3.942   0.438   3.326 -1.1978 -0.4278 -0.0654
 9139TIP3    H227354   4.026   0.359   3.228 -1.3337  1.5920 -1.8483
 9140TIP3   OH227355   1.293   6.709   2.953  0.5185  0.3122 -0.1085
 9140TIP3    H127356   1.365   6.742   3.007  0.1360 -1.1146  1.3092
 9140TIP3    H227357   1.216   6.757   2.984  0.6615  1.0290 -0.8550
 9141TIP3   OH227358   1.864   5.592   4.218  0.3058 -0.2244 -0.3229
 9141TIP3    H127359   1.846   5.498   4.227  1.8288 -0.3101  2.0746
 9141TIP3    H227360   1.857   5.608   4.124 -3.2472 -2.0462 -0.4485
 9142TIP3   OH227361   0.910   6.484   2.075 -0.1903 -0.0656 -0.2727
 9142TIP3    H127362   0.855   6.462   2.150  0.0394 -0.7367 -0.2991
 9142TIP3    H227363   0.851   6.479   2.000 -0.1786 -0.4266 -0.2581
 9143TIP3   OH227364   0.050   7.126   3.613 -0.1097 -0.2309  0.8582
 9143TIP3    H127365   0.020   7.091   3.529 -1.0549 -0.5952  1.3342
 9143TIP3    H227366   0.095   7.207   3.591  1.0663 -1.1308 -0.1577
 9144TIP3   OH227367   2.825   7.893   3.839 -0.1744  0.3145 -0.1558
 9144TIP3    H127368   2.855   7.802   3.840 -1.9555 -0.2802  1.0877
 9144TIP3    H227369   2.898   7.943   3.876  0.1642 -0.8130  0.7260
 9145TIP3   OH227370   3.896   0.068   3.571  0.9300  0.7162  0.0623
 9145TIP3    H127371   3.947   0.040   3.647 -0.0468  0.2503  0.5479
 9145TIP3    H227372   3.911   0.163   3.566  3.1041  0.3660 -0.7473
 9146TIP3   OH227373   1.888   5.778   5.010 -0.0206 -0.4763 -0.2128
 9146TIP3    H127374   1.912   5.857   4.960 -0.7344  0.2229  0.5307
 9146TIP3    H227375   1.853   5.718   4.945 -0.0312  0.0504 -0.7005
 9147TIP3   OH227376   1.160   7.833   3.545  0.5047 -0.6098  0.7129
 9147TIP3    H127377   1.139   7.771   3.476 -0.4576  1.2585 -0.7278
 9147TIP3    H227378   1.120   7.915   3.516  3.2922  1.1483  1.6688
 9148TIP3   OH227379   4.090   0.942   3.328  0.0253 -0.5708 -0.2244
 9148TIP3    H127380   4.185   0.955   3.333 -0.4274  2.6888  1.1665
 9148TIP3    H227381   4.068   0.893   3.407  0.2203  1.2367  0.9870
 9149TIP3   OH227382   0.882   5.665   2.898  0.6895 -0.0807 -0.2149
 9149TIP3    H127383   0.907   5.575   2.880  0.9265 -0.2698  0.9665
 9149TIP3    H227384   0.824   5.690   2.826 -2.1204 -2.3105  1.1881
 9150TIP3   OH227385   2.161   7.427   3.919  0.0002  0.1629 -0.0514
 9150TIP3    H127386   2.116   7.357   3.966  1.3319 -1.2619 -0.8446
 9150TIP3    H227387   2.248   7.430   3.959  0.1445  0.9796 -0.4195
 9151TIP3   OH227388   2.255   5.084   5.064  0.0108 -0.9792  0.2788
 9151TIP3    H127389   2.209   5.040   5.135 -0.9961 -1.2379 -0.5202
 9151TIP3    H227390   2.320   5.139   5.108 -2.1710  0.6934  1.5498
 9152TIP3   OH227391   0.944   5.921   2.922  0.1406 -0.0510  0.5157
 9152TIP3    H127392   0.935   5.832   2.956 -0.7196 -0.0676  0.2587
 9152TIP3    H227393   0.855   5.945   2.893  0.3687  0.8835  0.5766
 9153TIP3   OH227394   7.329   6.997   3.518 -0.5644  0.2183  0.1189
 9153TIP3    H127395   7.330   7.093   3.513  0.9530  0.3107  1.6893
 9153TIP3    H227396   7.236   6.975   3.525 -0.8635  1.6608  0.9869
 9154TIP3   OH227397   1.773   7.363   4.654 -0.3525 -0.4739  0.1433
 9154TIP3    H127398   1.843   7.321   4.604 -0.0930 -0.2554  0.3187
 9154TIP3    H227399   1.742   7.434   4.598  0.8626  0.6365  0.8395
 9155TIP3   OH227400   4.345   0.375   4.486  0.1009 -0.3322 -0.2996
 9155TIP3    H127401   4.343   0.297   4.542  1.4892  0.4504  0.8642
 9155TIP3    H227402   4.402   0.350   4.412 -0.8467 -0.9938 -0.8106
 9156TIP3   OH227403   2.166   5.800   5.159 -0.2304  0.0944 -0.1263
 9156TIP3    H127404   2.188   5.714   5.194 -1.2004  0.2129  0.8016
 9156TIP3    H227405   2.090   5.828   5.210 -0.1559  1.3370 -0.6783
 9157TIP3   OH227406   3.946   4.880   5.356 -0.3415  0.5444 -0.4571
 9157TIP3    H127407   3.986   4.895   5.270  2.0734 -0.3445  0.4626
 9157TIP3    H227408   3.867   4.829   5.337  1.6801 -2.1599 -1.9551
 9158TIP3   OH227409   0.893   0.391   3.251 -0.0700  0.0889 -0.1543
 9158TIP3    H127410   0.930   0.374   3.165  0.3787  0.9783 -0.1484
 9158TIP3    H227411   0.811   0.342   3.253 -0.6132  0.9186 -1.4934
 9159TIP3   OH227412   5.399   5.543   3.953 -0.4589  0.2115  0.0593
 9159TIP3    H127413   5.363   5.628   3.977 -0.2029  0.5500 -0.7349
 9159TIP3    H227414   5.471   5.529   4.014  0.9074  1.5833 -1.1898
 9160TIP3   OH227415   1.891   6.740   5.432 -0.0016  0.8795  0.1674
 9160TIP3    H127416   1.845   6.819   5.406 -0.8656 -0.0935 -1.3201
 9160TIP3    H227417   1.953   6.724   5.361  0.6052  0.5702  0.7648
 9161TIP3   OH227418   0.065   1.520   1.438 -0.2411 -0.0836  0.3479
 9161TIP3    H127419   0.035   1.486   1.354  0.7046  0.5261 -0.2380
 9161TIP3    H227420   0.001   1.486   1.501 -0.1992 -1.6409 -0.4249
 9162TIP3   OH227421   7.202   0.098   4.979 -0.3582  0.2729  0.1432
 9162TIP3    H127422   7.144   0.037   4.934  0.4782  0.5018 -1.2683
 9162TIP3    H227423   7.273   0.043   5.012 -0.7720  0.1595  0.8422
 9163TIP3   OH227424   2.255   6.125   4.959 -0.2881 -0.2606  0.2282
 9163TIP3    H127425   2.211   6.202   4.994  0.1885 -0.5829  1.5759
 9163TIP3    H227426   2.328   6.110   5.019  0.6062 -0.7809 -0.9682
 9164TIP3   OH227427   6.022   0.568   5.134  0.1109 -0.1968  0.3751
 9164TIP3    H127428   5.994   0.547   5.223  0.7207  0.1014  0.6407
 9164TIP3    H227429   6.081   0.643   5.145 -0.2311  0.1698 -0.3316
 9165TIP3   OH227430   3.772   7.347   4.959 -0.1519 -0.3139  0.0431
 9165TIP3    H127431   3.812   7.411   5.019  0.3555 -0.3011 -0.3041
 9165TIP3    H227432   3.842   7.284   4.942 -0.4586 -0.6091 -0.1218
 9166TIP3   OH227433   5.971   0.160   6.039  0.1127  0.6923 -0.2432
 9166TIP3    H127434   6.054   0.208   6.032  0.4157  0.0730 -0.9134
 9166TIP3    H227435   5.972   0.121   6.126 -0.1877  1.9955  0.3571
 9167TIP3   OH227436   5.438   0.621   6.276 -0.1673 -0.0112  0.0553
 9167TIP3    H127437   5.354   0.666   6.265  0.4739  0.9109 -1.2242
 9167TIP3    H227438   5.485   0.675   6.340 -0.1980 -0.0064  0.0739
 9168TIP3   OH227439   5.995   1.861   3.849 -0.1187 -0.2918  0.1505
 9168TIP3    H127440   6.057   1.795   3.877  0.6211  0.3446  0.0215
 9168TIP3    H227441   5.912   1.836   3.892  0.4321 -0.6409  1.0306
 9169TIP3   OH227442   4.475   6.930   4.927  0.1970 -0.0220  0.1985
 9169TIP3    H127443   4.438   7.004   4.879  1.9132  1.6522  1.3681
 9169TIP3    H227444   4.432   6.933   5.012 -1.0222 -1.4748 -0.3474
 9170TIP3   OH227445   3.601   7.596   3.103  0.6948  0.0838  0.3789
 9170TIP3    H127446   3.593   7.517   3.156  0.9179 -0.3394 -0.2230
 9170TIP3    H227447   3.651   7.570   3.026  0.1157  0.6290 -0.1901
 9171TIP3   OH227448   3.375   7.108   4.992  0.1490  0.3648  0.2730
 9171TIP3    H127449   3.444   7.171   5.013  0.6495 -0.2085  0.3496
 9171TIP3    H227450   3.420   7.024   4.983 -0.1133  0.4614 -2.4978
 9172TIP3   OH227451   4.640   7.455   5.550 -0.1329 -0.3382 -0.0234
 9172TIP3    H127452   4.691   7.419   5.477  0.1210  0.2215 -0.1243
 9172TIP3    H227453   4.600   7.378   5.590  0.9480 -0.8187  0.1790
 9173TIP3   OH227454   6.408   0.739   2.631 -0.5872 -0.1543  0.6888
 9173TIP3    H127455   6.411   0.657   2.581 -0.8992  0.5942 -0.5923
 9173TIP3    H227456   6.370   0.715   2.715 -0.6360 -1.3313  0.3416
 9174TIP3   OH227457   8.039   7.973   3.745  0.1371  0.3008  0.3431
 9174TIP3    H127458   8.103   7.981   3.816 -0.0732  1.7782  0.3907
 9174TIP3    H227459   7.955   7.997   3.786 -0.0200  0.9334 -0.3427
 9175TIP3   OH227460   4.158   0.199   3.803  0.1596  0.0803  0.0729
 9175TIP3    H127461   4.161   0.257   3.728  0.4009 -1.1015 -0.8481
 9175TIP3    H227462   4.067   0.201   3.832  0.0414  0.4275 -0.3308
 9176TIP3   OH227463   4.706   6.174   1.649 -0.0939  0.0156 -0.6568
 9176TIP3    H127464   4.798   6.193   1.631  0.1097 -0.7844 -0.4568
 9176TIP3    H227465   4.702   6.159   1.743 -0.6910  1.5045 -0.4254
 9177TIP3   OH227466   7.807   0.372   4.905  0.0618 -0.0197  0.0947
 9177TIP3    H127467   7.868   0.431   4.861  0.2382 -1.9924 -2.4574
 9177TIP3    H227468   7.726   0.381   4.855 -0.9992  0.7158  1.9225
 9178TIP3   OH227469   4.242   7.804   4.810  0.2115  0.2279 -0.3002
 9178TIP3    H127470   4.178   7.874   4.801 -1.3388 -0.9589  1.0786
 9178TIP3    H227471   4.196   7.736   4.859  2.5687 -0.6123  0.8286
 9179TIP3   OH227472   5.378   0.064   2.778 -0.3243 -0.3015 -0.2020
 9179TIP3    H127473   5.426   0.136   2.820 -1.6501 -0.7652  2.2569
 9179TIP3    H227474   5.330   0.105   2.707  0.0671  0.9808  0.2597
 9180TIP3   OH227475   6.004   7.372   3.232 -0.8351  0.1902 -0.0482
 9180TIP3    H127476   6.030   7.394   3.321 -0.7481 -0.5142  0.1079
 9180TIP3    H227477   6.034   7.281   3.220  0.3825  0.7327 -1.2640
 9181TIP3   OH227478   3.318   7.196   5.623  0.6210  0.6416  0.6918
 9181TIP3    H127479   3.281   7.278   5.590 -0.4175 -0.6023 -1.3907
 9181TIP3    H227480   3.270   7.179   5.704  0.9234  2.1269  1.1966
 9182TIP3   OH227481   6.742   0.958   3.957  0.4104 -0.6467 -0.2821
 9182TIP3    H127482   6.745   1.046   3.921  2.8638  1.2313  4.1510
 9182TIP3    H227483   6.699   0.906   3.889 -2.9708  4.3026 -2.2025
 9183TIP3   OH227484   7.910   2.203   2.176 -0.2766 -0.1868  0.0747
 9183TIP3    H127485   7.922   2.280   2.120 -4.0773  1.1466  0.9764
 9183TIP3    H227486   7.857   2.234   2.249  0.8362 -2.9614  2.1543
 9184TIP3   OH227487   1.633   6.560   0.454 -0.6577 -0.8457 -0.0231
 9184TIP3    H127488   1.595   6.588   0.371 -0.6676  0.4543  0.4024
 9184TIP3    H227489   1.557   6.543   0.510 -0.6468  0.4645  0.4116
 9185TIP3   OH227490   4.695   7.878   1.261  0.2802  0.5845  0.5719
 9185TIP3    H127491   4.669   7.967   1.236 -0.7406 -0.1388 -0.9717
 9185TIP3    H227492   4.733   7.841   1.181  2.5424  0.2806  1.7236
 9186TIP3   OH227493   5.421   2.434   4.980 -0.3558 -0.0260 -0.0928
 9186TIP3    H127494   5.498   2.382   5.002 -1.1251 -1.8064 -1.4492
 9186TIP3    H227495   5.418   2.502   5.046  0.7728 -1.6388  1.6699
 9187TIP3   OH227496   3.797   7.936   2.125 -0.0387  0.3114 -0.1219
 9187TIP3    H127497   3.893   7.935   2.123  0.0099  1.3927  1.0765
 9187TIP3    H227498   3.772   7.992   2.052  0.1914 -1.1612 -1.3458
 9188TIP3   OH227499   6.582   1.194   4.301 -0.2112 -0.4118  0.2185
 9188TIP3    H127500   6.560   1.101   4.302 -1.3498 -0.2038 -1.6125
 9188TIP3    H227501   6.632   1.208   4.381  1.4718 -2.9589 -0.3106
 9189TIP3   OH227502   5.419   0.273   2.940 -0.2776 -0.0519  0.1608
 9189TIP3    H127503   5.352   0.221   2.984 -0.9124  1.0270  0.4955
 9189TIP3    H227504   5.376   0.357   2.922  0.7982  0.4426 -0.1536
 9190TIP3   OH227505   8.284   0.111   4.271 -0.0965  0.5551 -0.1268
 9190TIP3    H127506   8.239   0.182   4.318  0.1078  0.5040  0.1507
 9190TIP3    H227507   8.213   0.058   4.234 -0.2521  0.8114 -0.1970
 9191TIP3   OH227508   3.697   6.971   5.636  0.2498 -0.1139 -0.3026
 9191TIP3    H127509   3.755   6.975   5.712  1.2298 -0.6066 -1.0223
 9191TIP3    H227510   3.634   6.902   5.657 -0.3357  0.6886  0.6471
 9192TIP3   OH227511   5.615   1.757   4.410 -0.2083 -0.2428 -0.3335
 9192TIP3    H127512   5.662   1.675   4.422  0.0553  0.2576  2.1967
 9192TIP3    H227513   5.679   1.816   4.369  0.5078 -0.4053  0.5482
 9193TIP3   OH227514   5.610   7.450   3.766  0.6103 -0.3516  0.3353
 9193TIP3    H127515   5.646   7.467   3.679  1.2301  1.1793  0.8732
 9193TIP3    H227516   5.517   7.432   3.751  0.6940  0.0117 -0.6324
 9194TIP3   OH227517   3.453   7.022   2.866  0.2168  0.2139 -0.4789
 9194TIP3    H127518   3.382   7.084   2.885  0.9013  0.7770  0.2716
 9194TIP3    H227519   3.510   7.070   2.806 -0.5206 -0.5851 -1.8517
 9195TIP3   OH227520   4.475   5.508   2.965  0.0475  0.2489 -0.1095
 9195TIP3    H127521   4.416   5.435   2.985 -0.4395  0.6314 -0.1388
 9195TIP3    H227522   4.504   5.492   2.875 -2.5667  1.7856 -1.2745
 9196TIP3   OH227523   0.773   7.736   2.851 -0.6110  0.7043 -1.0705
 9196TIP3    H127524   0.759   7.829   2.829  0.2990  0.7665 -1.4141
 9196TIP3    H227525   0.868   7.725   2.846 -0.4949  0.3523  1.3994
 9197TIP3   OH227526   4.485   7.620   4.946 -0.4062 -0.5706 -0.6294
 9197TIP3    H127527   4.414   7.649   5.003 -1.1774 -1.5671 -1.0725
 9197TIP3    H227528   4.549   7.581   5.006  0.2396  1.2147 -0.1244
 9198TIP3   OH227529   6.220   0.509   6.164  0.0337 -0.1250 -0.4136
 9198TIP3    H127530   6.261   0.592   6.187  0.0386  0.0493 -1.0519
 9198TIP3    H227531   6.151   0.497   6.230  0.8789 -0.2552  0.4560
 9199TIP3   OH227532   5.366   0.710   3.979 -0.2870  0.2786 -0.5030
 9199TIP3    H127533   5.355   0.645   4.048 -4.3891  0.0271 -1.2650
 9199TIP3    H227534   5.380   0.792   4.026 -0.5702 -0.2900  0.5999
 9200TIP3   OH227535   4.469   7.287   5.266 -0.2350  0.3200 -0.5112
 9200TIP3    H127536   4.398   7.334   5.222 -0.0868  1.4857  0.4504
 9200TIP3    H227537   4.445   7.289   5.359  0.4137 -0.4191 -0.3204
 9201TIP3   OH227538   4.676   7.110   4.200  0.3087 -0.0220  0.1755
 9201TIP3    H127539   4.609   7.173   4.172 -1.0382 -0.4546  2.2568
 9201TIP3    H227540   4.639   7.025   4.178  1.1418 -0.1796 -0.6187
 9202TIP3   OH227541   6.721   0.515   4.410  0.4417 -0.6946 -0.9737
 9202TIP3    H127542   6.638   0.467   4.405  0.0380 -0.0229 -0.7855
 9202TIP3    H227543   6.757   0.490   4.496 -1.0246  1.3458  0.2810
 9203TIP3   OH227544   5.847   0.812   3.103  0.7544 -0.2424 -0.2609
 9203TIP3    H127545   5.918   0.788   3.044  0.6437  0.6114 -0.7440
 9203TIP3    H227546   5.842   0.907   3.098  0.3925 -0.1986  0.7181
 9204TIP3   OH227547   2.148   5.943   1.029 -0.2418 -0.1104  0.4228
 9204TIP3    H127548   2.222   6.001   1.048 -1.3853  1.3628  0.4897
 9204TIP3    H227549   2.079   6.001   0.998 -0.6885 -1.7058 -1.7005
 9205TIP3   OH227550   5.299   0.730   5.791  0.0612 -0.4036  0.3416
 9205TIP3    H127551   5.261   0.758   5.874 -0.2028  0.6267 -0.1234
 9205TIP3    H227552   5.277   0.637   5.785 -0.8988 -0.2171  0.8871
 9206TIP3   OH227553   2.842   7.028   2.208 -0.4480  0.1495  0.5912
 9206TIP3    H127554   2.843   7.001   2.116 -0.3450  0.0359  0.6247
 9206TIP3    H227555   2.926   7.069   2.223 -0.1628 -0.5035  0.8287
 9207TIP3   OH227556   5.156   1.091   3.718 -0.3937 -0.1953 -0.3989
 9207TIP3    H127557   5.214   1.100   3.794 -0.9247 -0.7629  0.0770
 9207TIP3    H227558   5.151   1.179   3.681  0.6188 -0.1038 -0.3334
 9208TIP3   OH227559   0.739  -0.007   5.168  0.0707 -0.6584 -0.3872
 9208TIP3    H127560   0.718   0.003   5.260  1.5915 -0.1223 -0.0780
 9208TIP3    H227561   0.687   0.060   5.123  1.5168  1.0594  0.4222
 9209TIP3   OH227562   3.054   7.057   1.623 -0.1714 -0.3871 -0.5766
 9209TIP3    H127563   3.062   7.151   1.637 -2.0331 -0.1939 -0.6645
 9209TIP3    H227564   3.010   7.048   1.538 -0.7363 -1.3036 -0.2032
 9210TIP3   OH227565   3.956   6.869   2.890  0.2389 -0.4364 -0.1606
 9210TIP3    H127566   3.881   6.845   2.945 -0.9173  0.4604 -1.2944
 9210TIP3    H227567   4.030   6.873   2.950 -0.7014 -0.9791  1.0539
 9211TIP3   OH227568   3.854   5.438   6.430  0.2842  0.5565 -0.2635
 9211TIP3    H127569   3.939   5.395   6.422 -0.2183 -0.5791  0.3214
 9211TIP3    H227570   3.843   5.451   6.524 -0.3137  0.4525 -0.3207
 9212TIP3   OH227571   2.385   6.401   3.215  0.1926  0.8420 -0.1221
 9212TIP3    H127572   2.465   6.432   3.172  0.6126  0.3718  0.3183
 9212TIP3    H227573   2.323   6.473   3.204  0.8640  1.4577  0.0580
 9213TIP3   OH227574   2.707   5.817   2.371  0.4989  0.0019 -0.6310
 9213TIP3    H127575   2.755   5.893   2.338 -0.3790  0.3434 -1.1277
 9213TIP3    H227576   2.739   5.805   2.461  0.2528  1.2798 -0.3647
 9214TIP3   OH227577   5.830   6.605   4.011 -0.2386 -0.4038 -0.2368
 9214TIP3    H127578   5.796   6.695   4.015 -0.2414 -0.3761 -0.8620
 9214TIP3    H227579   5.924   6.615   4.000 -0.2260 -0.4759 -0.1905
 9215TIP3   OH227580   2.155   5.361   4.191 -0.2797 -0.6325 -0.1629
 9215TIP3    H127581   2.059   5.362   4.181 -0.4958  0.3593  1.8326
 9215TIP3    H227582   2.183   5.448   4.163  0.0414 -0.9032 -0.6893
 9216TIP3   OH227583   1.816   7.135   0.478 -0.2776 -0.2917  0.5121
 9216TIP3    H127584   1.902   7.159   0.445 -0.5368  0.6320  0.4857
 9216TIP3    H227585   1.800   7.048   0.443  0.5010 -0.3254  0.2392
 9217TIP3   OH227586   6.697   0.300   1.952  0.6841 -0.6985 -0.3517
 9217TIP3    H127587   6.639   0.268   1.884  1.2534  2.7698 -2.6307
 9217TIP3    H227588   6.779   0.321   1.906  1.4890  0.6096  1.5850
 9218TIP3   OH227589   7.170   1.561   4.391 -0.6792  0.1911 -0.1570
 9218TIP3    H127590   7.093   1.527   4.437 -0.2140  0.0713  0.5321
 9218TIP3    H227591   7.172   1.512   4.309 -0.1001 -1.3519  0.7635
 9219TIP3   OH227592   5.809   7.437   4.371 -0.1561  0.2593 -0.3101
 9219TIP3    H127593   5.827   7.524   4.408 -0.4221  0.0060  0.4201
 9219TIP3    H227594   5.717   7.441   4.345  0.2482  0.7170 -1.7402
 9220TIP3   OH227595   6.900   2.538   4.882  0.8436 -0.2323  0.1111
 9220TIP3    H127596   6.868   2.451   4.857 -0.6317  0.6125 -0.9923
 9220TIP3    H227597   6.952   2.523   4.961  0.8416 -2.1594 -0.2416
 9221TIP3   OH227598   4.322   7.582   2.810  0.0303  0.4631 -0.2503
 9221TIP3    H127599   4.412   7.577   2.842  0.0569  2.1337 -0.0567
 9221TIP3    H227600   4.328   7.622   2.724 -0.2971 -1.7885 -1.3754
 9222TIP3   OH227601   6.119   0.310   4.285  0.3331  0.1005 -0.2909
 9222TIP3    H127602   6.091   0.379   4.225 -1.2041  0.6514  1.0313
 9222TIP3    H227603   6.207   0.286   4.255  0.7599  2.4083 -0.9709
 9223TIP3   OH227604   6.879   1.065   5.162  0.1363  0.0024  0.4763
 9223TIP3    H127605   6.836   0.998   5.215  0.2214  0.3969  1.0460
 9223TIP3    H227606   6.810   1.128   5.143  0.2904  0.2681  0.7916
 9224TIP3   OH227607   4.625   7.472   5.123 -0.1102  0.1957  0.3879
 9224TIP3    H127608   4.693   7.406   5.106 -0.3893 -0.0523  0.2299
 9224TIP3    H227609   4.558   7.424   5.172 -0.4529  0.2891  0.0051
 9225TIP3   OH227610   6.142   7.811   3.081 -0.6159 -0.5198  0.6558
 9225TIP3    H127611   6.170   7.811   3.173 -0.5027  0.6880  0.6181
 9225TIP3    H227612   6.217   7.773   3.034  0.1035  0.6861  0.8217
 9226TIP3   OH227613   8.140   0.341   3.315  0.3215  0.3051  0.3234
 9226TIP3    H127614   8.085   0.416   3.293  0.0791 -0.6665 -2.5758
 9226TIP3    H227615   8.230   0.375   3.310  0.1843  0.5741 -0.2880
 9227TIP3   OH227616   7.600   2.427   2.951 -0.1708  0.6791  0.3260
 9227TIP3    H127617   7.558   2.342   2.938 -1.4861  1.5654 -1.4765
 9227TIP3    H227618   7.586   2.447   3.043  2.1554 -2.0705  1.3471
 9228TIP3   OH227619   5.746   0.241   5.716 -0.0937  0.0260 -0.3224
 9228TIP3    H127620   5.785   0.172   5.770 -1.8916 -0.4113  0.4251
 9228TIP3    H227621   5.776   0.322   5.755 -0.2346 -0.3014  0.4629
 9229TIP3   OH227622   5.749   1.055   4.088 -0.2989  0.3712 -0.4173
 9229TIP3    H127623   5.665   1.100   4.091 -0.4332  0.1772 -1.2724
 9229TIP3    H227624   5.763   1.035   3.996 -0.2374 -1.3242 -0.0650
 9230TIP3   OH227625   5.408   1.289   2.018  0.0649  0.3150 -0.3514
 9230TIP3    H127626   5.409   1.197   1.991 -1.2301  0.5504 -1.2555
 9230TIP3    H227627   5.345   1.292   2.090 -1.6928  0.8777 -1.8641
 9231TIP3   OH227628   2.794   7.497   4.049  0.1901 -0.4709  0.0383
 9231TIP3    H127629   2.759   7.566   4.105 -0.7831 -1.1197  0.2610
 9231TIP3    H227630   2.842   7.542   3.980 -0.6684  0.4309  0.0270
 9232TIP3   OH227631   3.702   7.223   4.637 -0.3494  0.0880 -0.1650
 9232TIP3    H127632   3.611   7.225   4.609 -0.8129 -0.8707  1.2101
 9232TIP3    H227633   3.729   7.132   4.625  0.0007  0.0670  0.7469
 9233TIP3   OH227634   5.706   7.844   3.726  0.0615 -0.8160  0.3703
 9233TIP3    H127635   5.722   7.811   3.814 -1.3518  0.9036  1.3041
 9233TIP3    H227636   5.675   7.934   3.739  0.7560 -0.2069 -1.9242
 9234TIP3   OH227637   6.189   2.549   4.552  0.1040 -0.0450 -0.5517
 9234TIP3    H127638   6.266   2.587   4.595 -0.9789  2.2996 -0.6022
 9234TIP3    H227639   6.224   2.478   4.498  2.1892  0.7357 -0.2641
 9235TIP3   OH227640   4.069   6.994   3.689  0.0709 -0.8704 -0.3224
 9235TIP3    H127641   4.061   7.080   3.730  1.7580 -0.9808  0.2789
 9235TIP3    H227642   4.034   6.933   3.754  1.3334 -0.8876  0.3638
 9236TIP3   OH227643   4.407   0.864   2.767 -0.4968 -0.0286 -0.0182
 9236TIP3    H127644   4.369   0.782   2.735  0.4751 -0.0030 -1.2893
 9236TIP3    H227645   4.501   0.846   2.773 -0.2894  0.9606 -0.2034
 9237TIP3   OH227646   4.133   6.502   2.644 -0.0735 -0.0931  0.0514
 9237TIP3    H127647   4.223   6.475   2.666  0.5330  0.3563 -1.7585
 9237TIP3    H227648   4.083   6.421   2.643  1.0107 -0.7825 -2.0087
 9238TIP3   OH227649   4.564   7.942   2.565 -0.4230  0.2121 -0.0932
 9238TIP3    H127650   4.651   7.958   2.526 -1.7659  0.1387 -3.3172
 9238TIP3    H227651   4.509   8.011   2.527 -2.2541 -1.0855  0.1629
 9239TIP3   OH227652   7.891   0.332   2.592  0.4521  0.0461 -0.4828
 9239TIP3    H127653   7.846   0.394   2.649  1.4341  1.4928 -1.2507
 9239TIP3    H227654   7.826   0.309   2.526 -0.2157 -0.4993  0.3482
 9240TIP3   OH227655   4.479   1.249   3.459 -0.7696 -0.2814  0.3640
 9240TIP3    H127656   4.535   1.195   3.513 -1.6447  0.5278  2.1112
 9240TIP3    H227657   4.417   1.187   3.419  0.9416 -1.0946 -1.1185
 9241TIP3   OH227658   5.871   0.257   1.099  0.1534 -0.3757 -0.2350
 9241TIP3    H127659   5.820   0.312   1.158 -1.0954 -0.2846 -1.3609
 9241TIP3    H227660   5.923   0.202   1.157 -0.2379  0.4512  0.9322
 9242TIP3   OH227661   6.449   0.730   4.064 -0.0244  0.5350 -0.4519
 9242TIP3    H127662   6.419   0.821   4.063  0.4275  0.6778 -1.2031
 9242TIP3    H227663   6.514   0.727   4.134  1.4263  1.2686 -1.7446
 9243TIP3   OH227664   2.116   6.981   1.832  0.3924  0.3027  0.8172
 9243TIP3    H127665   2.105   7.071   1.801  0.2128  1.2899  3.5725
 9243TIP3    H227666   2.161   6.936   1.761 -1.5220  1.9795 -1.5354
 9244TIP3   OH227667   5.920   6.860   3.815 -0.0108 -0.2498  0.5523
 9244TIP3    H127668   5.930   6.842   3.722 -0.6344  0.8588  0.2559
 9244TIP3    H227669   5.990   6.810   3.857 -0.6799 -1.9907 -0.3540
 9245TIP3   OH227670   6.002   0.058   4.216 -0.1339  0.4022  0.1231
 9245TIP3    H127671   5.984   0.145   4.250 -1.4164  0.1000  0.2489
 9245TIP3    H227672   5.949   0.051   4.136 -0.4707 -0.4543  0.4111
 9246TIP3   OH227673   6.232   0.242   6.046 -0.1468 -0.1369 -0.0156
 9246TIP3    H127674   6.290   0.189   6.100  0.4586 -0.1734 -0.6935
 9246TIP3    H227675   6.232   0.328   6.089  0.1807 -0.2173  0.1510
 9247TIP3   OH227676   7.678   1.234   4.404  1.0889 -0.2834 -0.2032
 9247TIP3    H127677   7.678   1.316   4.453  1.9008 -0.6373  0.3870
 9247TIP3    H227678   7.721   1.256   4.321  2.9050 -0.5155  0.6498
 9248TIP3   OH227679   4.396   5.685   3.513 -0.0188 -0.5090  0.8463
 9248TIP3    H127680   4.343   5.636   3.449  1.0381 -1.2125  0.4892
 9248TIP3    H227681   4.482   5.645   3.507  0.5848  0.7104  1.3351
 9249TIP3   OH227682   2.581   6.473   1.748  0.4242 -0.4914 -0.2693
 9249TIP3    H127683   2.511   6.420   1.710 -0.7163  0.2180  0.8127
 9249TIP3    H227684   2.643   6.409   1.784 -1.6795 -1.1336  2.3783
 9250TIP3   OH227685   0.621   1.483   4.184 -0.3683 -0.5965  0.6844
 9250TIP3    H127686   0.690   1.416   4.183  1.0209  0.7616  1.9322
 9250TIP3    H227687   0.553   1.447   4.241 -0.4278 -1.7082 -0.0841
 9251TIP3   OH227688   3.427   7.402   3.635  0.1472 -0.6334 -0.1338
 9251TIP3    H127689   3.399   7.384   3.545  1.9281  3.3282 -1.5977
 9251TIP3    H227690   3.388   7.488   3.655 -0.8105 -1.7536  3.1960
 9252TIP3   OH227691   4.301   7.782   3.778  0.2615  0.2225 -0.3985
 9252TIP3    H127692   4.319   7.704   3.727 -0.0764  0.3482 -0.7188
 9252TIP3    H227693   4.227   7.823   3.733 -0.4248  0.0234  0.5329
 9253TIP3   OH227694   1.502   6.694   4.625 -0.2358  0.2272  0.6750
 9253TIP3    H127695   1.509   6.602   4.598 -0.0327 -0.0698  1.7068
 9253TIP3    H227696   1.415   6.700   4.664 -0.3754  0.5513  0.3080
 9254TIP3   OH227697   7.095   0.578   4.719  0.4547  0.4056  0.1670
 9254TIP3    H127698   7.186   0.581   4.689  0.2948 -0.7485 -0.5012
 9254TIP3    H227699   7.063   0.667   4.708  1.6057  0.9008  0.7280
 9255TIP3   OH227700   4.754   0.881   5.660  0.1890  0.5148  0.3208
 9255TIP3    H127701   4.804   0.907   5.582 -0.6023 -0.6790 -0.5926
 9255TIP3    H227702   4.820   0.851   5.722  0.7262  0.3506 -0.3296
 9256TIP3   OH227703   5.294   7.238   4.019 -0.3850  0.1267 -0.1243
 9256TIP3    H127704   5.223   7.175   4.005 -0.2368 -0.5575  2.0883
 9256TIP3    H227705   5.373   7.189   3.998 -0.4408  0.4320 -1.0942
 9257TIP3   OH227706   4.416   2.886   2.499  0.3888  0.7626 -0.1700
 9257TIP3    H127707   4.479   2.834   2.550 -0.7752 -1.4250 -0.9154
 9257TIP3    H227708   4.458   2.896   2.413  0.7240  1.2693  0.0523
 9258TIP3   OH227709   3.704   6.461   2.290  0.2034  0.9233 -0.5908
 9258TIP3    H127710   3.751   6.424   2.215 -0.4674 -0.4138 -0.3690
 9258TIP3    H227711   3.767   6.457   2.362 -0.0684 -0.4408 -0.4045
 9259TIP3   OH227712   7.929   0.143   3.327 -0.1773  0.4121  0.4752
 9259TIP3    H127713   7.979   0.074   3.282 -0.6999  0.5359 -0.2991
 9259TIP3    H227714   7.990   0.217   3.330 -0.1046  0.3742  0.0530
 9260TIP3   OH227715   4.787   1.116   6.505 -0.4022 -0.4304  0.5166
 9260TIP3    H127716   4.800   1.089   6.415  0.7848 -1.8402  1.0902
 9260TIP3    H227717   4.723   1.053   6.541 -0.5389 -0.1452  0.7800
 9261TIP3   OH227718   2.633   6.395   3.043 -0.7419 -0.5029 -0.0605
 9261TIP3    H127719   2.586   6.316   3.071 -3.0123  0.1310 -1.8419
 9261TIP3    H227720   2.720   6.387   3.082 -0.7972 -4.0528 -0.4654
 9262TIP3   OH227721   1.837   7.140   3.921 -0.0578 -0.5864 -0.2077
 9262TIP3    H127722   1.793   7.055   3.930 -0.6883 -0.1616  0.7321
 9262TIP3    H227723   1.874   7.138   3.833 -0.7908 -1.5100 -0.5047
 9263TIP3   OH227724   6.725   0.748   4.947 -0.5030 -0.4118  0.0770
 9263TIP3    H127725   6.642   0.729   4.991 -1.0881  0.9506 -0.4118
 9263TIP3    H227726   6.791   0.745   5.016 -1.0733 -0.7654  0.6027
 9264TIP3   OH227727   4.264   7.752   2.602 -0.2098 -0.0094  0.3789
 9264TIP3    H127728   4.272   7.844   2.577  1.2928 -0.3265 -0.3563
 9264TIP3    H227729   4.190   7.720   2.550  0.0422  0.4817 -0.3000
 9265TIP3   OH227730   5.592   1.251   3.268  0.0845  0.0493  0.4797
 9265TIP3    H127731   5.547   1.216   3.191 -0.8408  1.2377  0.4641
 9265TIP3    H227732   5.644   1.324   3.235 -0.1598  0.4382  0.9516
 9266TIP3   OH227733   4.676   7.436   4.105 -0.2088  0.2681 -0.3932
 9266TIP3    H127734   4.655   7.488   4.182  0.9797 -2.2895  1.7194
 9266TIP3    H227735   4.617   7.361   4.109  1.7787 -1.3257 -0.4027
 9267TIP3   OH227736   6.675   0.374   5.077 -0.3849  0.5814 -0.1864
 9267TIP3    H127737   6.758   0.330   5.060 -0.7515 -0.4575  0.6546
 9267TIP3    H227738   6.609   0.319   5.035 -0.5661  2.0584 -1.9463
 9268TIP3   OH227739   5.867   0.616   4.281 -0.4807 -0.1659 -0.0066
 9268TIP3    H127740   5.957   0.639   4.256 -0.8419 -0.0817 -1.3048
 9268TIP3    H227741   5.821   0.700   4.282 -0.7007 -0.2875 -0.0195
 9269TIP3   OH227742   4.340   7.372   3.429  0.0390  0.3117 -0.1232
 9269TIP3    H127743   4.435   7.370   3.440 -0.1404  0.4559  1.5192
 9269TIP3    H227744   4.325   7.441   3.364  0.9575  1.3014  0.6978
 9270TIP3   OH227745   5.354   6.906   5.405  0.1410  0.2099 -0.9572
 9270TIP3    H127746   5.314   6.822   5.382  0.2400 -0.2615  0.5870
 9270TIP3    H227747   5.285   6.954   5.450  0.5468  0.3613 -0.4911
 9271TIP3   OH227748   4.098   5.605   4.615  0.1400  0.5346 -0.6010
 9271TIP3    H127749   4.034   5.604   4.543  2.3355 -0.1078 -2.6101
 9271TIP3    H227750   4.156   5.678   4.594  0.0476  1.1467  1.2372
 9272TIP3   OH227751   5.727   0.641   4.943 -0.4309  0.1124 -0.4543
 9272TIP3    H127752   5.738   0.638   4.848 -0.9348 -0.5483 -0.4960
 9272TIP3    H227753   5.762   0.558   4.974  1.1404  0.9527  0.0985
 9273TIP3   OH227754   7.574   0.040   3.554 -0.2294  0.1740 -0.6426
 9273TIP3    H127755   7.554  -0.015   3.630 -1.7306  0.1406 -1.0501
 9273TIP3    H227756   7.559  -0.016   3.478  0.9572  0.3065 -0.9896
 9274TIP3   OH227757   8.030   0.721   3.796  0.2586 -0.0695 -0.4896
 9274TIP3    H127758   8.006   0.716   3.889 -0.0157  1.3176 -0.4771
 9274TIP3    H227759   8.103   0.783   3.794 -0.9429  1.3557 -1.4181
 9275TIP3   OH227760   6.405   7.377   4.159 -0.3000 -0.2829 -0.4362
 9275TIP3    H127761   6.424   7.465   4.191 -0.4238 -0.1594 -0.7028
 9275TIP3    H227762   6.344   7.390   4.087 -1.6641 -0.6956  0.6276
 9276TIP3   OH227763   5.253   1.714   5.138  1.2923 -0.3448 -0.6642
 9276TIP3    H127764   5.313   1.788   5.129  1.7094 -0.5160  0.6563
 9276TIP3    H227765   5.240   1.705   5.232 -1.4200  0.1790 -0.9348
 9277TIP3   OH227766   2.325   2.679   0.119 -0.2565 -0.5617 -0.6557
 9277TIP3    H127767   2.398   2.635   0.162  0.0468  0.0557 -0.5406
 9277TIP3    H227768   2.316   2.634   0.035  0.6945 -0.1888 -0.9613
 9278TIP3   OH227769   8.246   0.269   3.778  0.1672  0.0851  0.5642
 9278TIP3    H127770   8.168   0.217   3.762  1.0154 -0.7441 -1.1259
 9278TIP3    H227771   8.216   0.345   3.827 -1.9633  0.5276 -1.3328
 9279TIP3   OH227772   5.494   0.082   1.794  0.0901 -0.0451  0.3082
 9279TIP3    H127773   5.413   0.107   1.839  0.5425  0.0906  1.0417
 9279TIP3    H227774   5.506  -0.011   1.816 -0.0657 -0.1662 -0.1099
 9280TIP3   OH227775   6.763   0.370   3.090 -0.1402  0.0878 -0.1987
 9280TIP3    H127776   6.782   0.315   3.014  1.2128 -0.6744  0.6606
 9280TIP3    H227777   6.689   0.327   3.133  0.5283 -0.7430  0.1389
 9281TIP3   OH227778   3.933   7.993   3.463 -0.4727  0.4851 -0.2235
 9281TIP3    H127779   3.938   7.901   3.489 -0.3304  0.5642  0.0300
 9281TIP3    H227780   3.938   7.990   3.367  0.2217  0.2683 -0.1901
 9282TIP3   OH227781   2.786   6.816   3.030  0.3197  0.2028  0.5502
 9282TIP3    H127782   2.835   6.776   3.102 -2.0782 -2.1427  0.9642
 9282TIP3    H227783   2.738   6.888   3.071  0.3506  0.0097  0.9280
 9283TIP3   OH227784   3.488   7.240   4.180 -0.1200  0.9123  0.5678
 9283TIP3    H127785   3.411   7.184   4.193  0.0816  0.1836 -1.2184
 9283TIP3    H227786   3.452   7.322   4.147 -0.1208  0.4067 -0.7304
 9284TIP3   OH227787   4.412   6.712   1.731  0.3169 -0.2771  0.1555
 9284TIP3    H127788   4.332   6.763   1.736 -0.8832 -2.0526 -0.5638
 9284TIP3    H227789   4.482   6.775   1.746 -1.0975  1.7104 -1.4435
 9285TIP3   OH227790   6.264   0.258   6.718  0.0718 -0.3061  0.2500
 9285TIP3    H127791   6.234   0.348   6.713 -1.4708 -0.7871  0.6592
 9285TIP3    H227792   6.359   0.265   6.732  0.2061  1.2248 -1.2429
 9286TIP3   OH227793   7.344   7.379   3.165 -0.3910 -0.3307 -0.0131
 9286TIP3    H127794   7.276   7.392   3.231 -0.5995  1.5744 -0.5741
 9286TIP3    H227795   7.304   7.322   3.099 -0.3736 -1.7641  1.2011
 9287TIP3   OH227796   3.555   7.403   5.133  0.4072  0.0629  0.5688
 9287TIP3    H127797   3.544   7.311   5.157 -0.6345  0.6150  2.3129
 9287TIP3    H227798   3.599   7.400   5.049 -1.1779 -2.0868 -0.2541
 9288TIP3   OH227799   4.798   6.313   4.541  0.2081  0.5436  0.0972
 9288TIP3    H127800   4.788   6.241   4.603  1.0020 -0.8961 -1.3976
 9288TIP3    H227801   4.760   6.389   4.585 -0.6474 -0.7923  1.6997
 9289TIP3   OH227802   5.504   0.596   4.516  0.1523  0.8239 -0.1448
 9289TIP3    H127803   5.505   0.692   4.514 -0.5575  0.8305 -0.6699
 9289TIP3    H227804   5.507   0.571   4.423 -0.0706  0.3537 -0.0255
 9290TIP3   OH227805   3.304   7.453   2.459  0.3083  0.2961  0.6995
 9290TIP3    H127806   3.262   7.524   2.412 -0.8763 -0.9550 -0.1803
 9290TIP3    H227807   3.341   7.397   2.391  2.1799  0.6147  1.4179
 9291TIP3   OH227808   3.432   7.084   3.268 -0.0863  0.3562 -1.4464
 9291TIP3    H127809   3.371   7.099   3.340  1.2391  2.9399 -0.7944
 9291TIP3    H227810   3.397   7.136   3.196  0.7509  0.9876 -1.4013
 9292TIP3   OH227811   3.460   6.783   2.527 -0.6355 -0.1409 -0.0996
 9292TIP3    H127812   3.443   6.781   2.621  0.6935  3.0067  0.2614
 9292TIP3    H227813   3.541   6.733   2.515 -1.2239 -1.1925  0.3162
 9293TIP3   OH227814   4.991   6.981   3.230  0.0616  0.5622  0.8750
 9293TIP3    H127815   4.898   6.960   3.222  0.1693  0.5631 -0.4657
 9293TIP3    H227816   5.005   6.992   3.324 -1.3913  1.0172  1.0499
 9294TIP3   OH227817   6.344   0.694   4.336 -0.9213 -0.4092 -0.1720
 9294TIP3    H127818   6.394   0.619   4.306  1.1378  0.1504  1.6892
 9294TIP3    H227819   6.367   0.702   4.429 -2.8418  1.1655  0.2075
 9295TIP3   OH227820   8.497   0.041   1.959  0.1318  0.1229  0.1555
 9295TIP3    H127821   8.493   0.113   2.023 -1.6189 -1.4390  1.9085
 9295TIP3    H227822   8.407   0.007   1.957  0.5854 -0.9913 -1.8276
 9296TIP3   OH227823   3.537   4.813   4.953 -0.1626  0.4418  0.2562
 9296TIP3    H127824   3.544   4.824   4.858  0.0155 -0.4230  0.1614
 9296TIP3    H227825   3.453   4.854   4.976 -0.6349 -0.1286 -0.4064
 9297TIP3   OH227826   3.010   6.636   2.255  0.1004  0.1635 -0.1783
 9297TIP3    H127827   3.044   6.694   2.323 -2.5786  0.2620  1.1597
 9297TIP3    H227828   2.990   6.694   2.182  1.1033  0.3536 -0.3013
 9298TIP3   OH227829   2.049   6.510   2.712  0.8503 -0.0691 -0.0765
 9298TIP3    H127830   2.003   6.537   2.791 -0.1342 -2.0322  0.0687
 9298TIP3    H227831   1.996   6.545   2.640  2.4928  2.8904  0.1019
 9299TIP3   OH227832   5.347   6.164   5.085  0.0500  0.1501 -0.9124
 9299TIP3    H127833   5.322   6.072   5.087 -0.4900  0.2647 -2.3127
 9299TIP3    H227834   5.385   6.178   4.999 -0.3463  1.3662 -0.9041
 9300TIP3   OH227835   2.655   7.579   3.525  0.1180 -0.4048 -1.0586
 9300TIP3    H127836   2.659   7.661   3.574  0.8787 -1.5766  0.8927
 9300TIP3    H227837   2.705   7.596   3.445  2.5871  0.2066  0.5632
 9301TIP3   OH227838   2.933   7.379   3.616 -0.0926  0.6845  0.0499
 9301TIP3    H127839   2.907   7.409   3.703  0.3091 -0.5731  0.6202
 9301TIP3    H227840   2.953   7.459   3.568 -0.2772  1.3906  1.1297
 9302TIP3   OH227841   2.102   7.055   4.790 -0.5797 -0.5702  0.2044
 9302TIP3    H127842   2.115   7.117   4.861 -0.4397 -1.1579  0.7031
 9302TIP3    H227843   2.169   6.988   4.804 -3.1794 -2.9064  2.0007
 9303TIP3   OH227844   5.928   8.040   3.075 -0.1465 -0.2566 -0.5825
 9303TIP3    H127845   5.840   8.003   3.063  0.2141 -0.8491 -1.4840
 9303TIP3    H227846   5.986   7.964   3.072  0.2867 -0.0184  1.4756
 9304TIP3   OH227847   6.705   5.383   2.763  0.3684 -0.3669  0.2545
 9304TIP3    H127848   6.786   5.342   2.792 -0.3161  0.1479  3.0290
 9304TIP3    H227849   6.636   5.323   2.792 -0.3594  0.3616  0.0519
 9305TIP3   OH227850   4.266   7.083   4.368 -0.2202 -0.3077 -0.1393
 9305TIP3    H127851   4.288   7.172   4.340 -0.6264 -0.2571 -0.3019
 9305TIP3    H227852   4.213   7.096   4.447  0.9929 -0.4526  0.7014
 9306TIP3   OH227853   0.565   0.069   3.466  0.6277  0.9715  0.2657
 9306TIP3    H127854   0.610   0.044   3.546  0.7301  0.1748 -0.0370
 9306TIP3    H227855   0.612   0.146   3.434  1.4291  0.4691  0.2372
 9307TIP3   OH227856   3.520   7.413   2.618  0.3442 -0.2865 -0.4805
 9307TIP3    H127857   3.450   7.435   2.556  1.1996 -0.9552 -1.6935
 9307TIP3    H227858   3.556   7.498   2.643 -1.5291  0.1335  0.9183
 9308TIP3   OH227859   2.016   6.234   3.150 -0.5052  0.5025 -0.0365
 9308TIP3    H127860   2.019   6.185   3.068 -1.5093  1.2547 -0.5416
 9308TIP3    H227861   2.034   6.325   3.124  3.6879  0.1257  1.1938
 9309TIP3   OH227862   4.125   5.040   4.054  0.1130  0.5719  0.2004
 9309TIP3    H127863   4.123   4.949   4.083  0.9173  0.5798  0.2672
 9309TIP3    H227864   4.215   5.055   4.027  0.1902  1.5991  0.9929
 9310TIP3   OH227865   7.880   0.097   4.394 -0.6591 -0.3828 -0.6808
 9310TIP3    H127866   7.869   0.013   4.438 -0.7217  0.0006  0.0294
 9310TIP3    H227867   7.794   0.115   4.356 -0.6472 -0.6322 -0.8323
 9311TIP3   OH227868   4.867   7.519   3.808 -0.3694 -0.1453  0.0365
 9311TIP3    H127869   4.888   7.447   3.867  0.7343 -1.0718 -1.4470
 9311TIP3    H227870   4.939   7.582   3.820 -0.0223 -0.4402 -0.4770
 9312TIP3   OH227871   0.783   6.622   2.894 -0.0179  0.0151  0.2740
 9312TIP3    H127872   0.833   6.588   2.968 -2.2027 -1.2979  1.1759
 9312TIP3    H227873   0.771   6.547   2.836  1.2158  0.9141 -1.1945
 9313TIP3   OH227874   8.459   6.030   1.803  0.1247 -0.0650 -0.0540
 9313TIP3    H127875   8.469   6.103   1.864 -0.1948 -0.6209  0.6602
 9313TIP3    H227876   8.436   6.072   1.720 -0.1210  0.6437  0.3663
 9314TIP3   OH227877   5.717   1.029   3.798 -0.1190  0.2636 -0.1443
 9314TIP3    H127878   5.790   1.082   3.767 -2.0764  1.4948 -2.7871
 9314TIP3    H227879   5.745   0.939   3.785  1.1568  0.7084 -0.5312
 9315TIP3   OH227880   3.795   6.802   3.129 -0.2565 -0.3731  0.8809
 9315TIP3    H127881   3.705   6.806   3.097  0.0759  0.2075 -0.0242
 9315TIP3    H227882   3.790   6.834   3.219 -0.9159 -0.0747  0.7400
 9316TIP3   OH227883   1.962   5.813   4.703  0.3308 -0.1351  0.1078
 9316TIP3    H127884   1.957   5.864   4.783 -0.0655 -0.9328  0.5997
 9316TIP3    H227885   1.918   5.867   4.637  3.2528  1.8348 -0.2793
 9317TIP3   OH227886   8.288   0.114   1.079 -0.1197 -0.4123  0.1305
 9317TIP3    H127887   8.355   0.096   1.014  0.9575 -0.2150  1.1758
 9317TIP3    H227888   8.250   0.198   1.052 -0.6975 -1.0422 -1.0609
 9318TIP3   OH227889   6.604   0.017   2.977 -0.0006 -0.1098  0.3701
 9318TIP3    H127890   6.599  -0.036   2.897 -0.2083 -1.1728  1.0781
 9318TIP3    H227891   6.626   0.105   2.946  2.2786 -1.0111 -0.6848
 9319TIP3   OH227892   1.477   0.021   3.278  0.0183 -0.0392 -0.4320
 9319TIP3    H127893   1.484  -0.071   3.306 -0.5749  0.1171  0.2507
 9319TIP3    H227894   1.564   0.057   3.293 -0.0564 -0.1897  0.4306
 9320TIP3   OH227895   5.915   7.070   1.503  0.4408 -0.2565 -0.1478
 9320TIP3    H127896   5.945   6.992   1.552  0.5478  0.5182  1.0534
 9320TIP3    H227897   5.859   7.035   1.434 -2.3700 -1.2341  2.4819
 9321TIP3   OH227898   0.291   2.016   4.936 -0.3272 -0.3106 -0.4126
 9321TIP3    H127899   0.385   2.005   4.920 -0.3217  0.5725 -0.9734
 9321TIP3    H227900   0.286   2.086   5.002 -0.7242  1.9566 -2.7809
 9322TIP3   OH227901   6.116   7.722   4.106  0.6364  0.8117  0.4597
 9322TIP3    H127902   6.135   7.635   4.143 -2.2282  0.2241  0.6438
 9322TIP3    H227903   6.083   7.704   4.018  1.5930  1.8469 -0.1240
 9323TIP3   OH227904   8.236   2.514   2.261 -0.2261 -0.0667  0.0968
 9323TIP3    H127905   8.253   2.420   2.273  2.4933  0.2396 -0.9806
 9323TIP3    H227906   8.142   2.519   2.244 -0.3643 -2.6365 -0.1606
 9324TIP3   OH227907   4.763   7.903   3.022 -0.1349 -0.3525 -0.1250
 9324TIP3    H127908   4.823   7.844   2.977  0.7728 -1.9892  3.0827
 9324TIP3    H227909   4.820   7.965   3.067 -1.0012  0.5403 -0.2370
 9325TIP3   OH227910   6.198   7.082   3.047  0.2076 -0.2832 -0.0891
 9325TIP3    H127911   6.140   7.067   3.122  1.3158 -2.1090  0.4249
 9325TIP3    H227912   6.145   7.132   2.985 -1.6627 -1.2503  0.6985
 9326TIP3   OH227913   0.538   0.094   3.031 -0.6645 -0.2113 -0.1914
 9326TIP3    H127914   0.545   0.003   3.002  1.2859 -0.7106  1.7464
 9326TIP3    H227915   0.451   0.099   3.071 -0.6825 -1.2813 -0.0805
 9327TIP3   OH227916   4.121   7.058   1.527 -0.0427 -0.4631 -0.3029
 9327TIP3    H127917   4.049   7.121   1.536  0.2531  0.0537 -1.4179
 9327TIP3    H227918   4.087   6.993   1.466 -0.2416 -1.2356  0.6269
 9328TIP3   OH227919   6.758   6.247   4.085 -0.5442  0.0767  0.0680
 9328TIP3    H127920   6.761   6.307   4.160  0.3658  0.1118  0.0080
 9328TIP3    H227921   6.829   6.185   4.102 -1.3583 -0.8907  0.0417
 9329TIP3   OH227922   5.115   6.638   3.612 -0.1003  0.5569 -0.3923
 9329TIP3    H127923   5.030   6.680   3.628 -1.2125 -1.4747 -0.7204
 9329TIP3    H227924   5.092   6.547   3.591  2.0429  0.4679 -2.4284
 9330TIP3   OH227925   7.454   2.109   3.809 -0.2312 -0.2313  0.6363
 9330TIP3    H127926   7.486   2.063   3.887  1.7932 -1.2162 -0.7302
 9330TIP3    H227927   7.379   2.058   3.779 -1.3043  0.4036  2.1547
 9331TIP3   OH227928   6.014   7.914   1.529 -0.0926  0.2187  0.5301
 9331TIP3    H127929   5.975   7.828   1.545  0.0296  0.5144  2.6543
 9331TIP3    H227930   6.101   7.908   1.571  0.0714  1.2385  0.3436
 9332TIP3   OH227931   1.173   1.396   3.470 -0.9361  0.2578 -0.3159
 9332TIP3    H127932   1.163   1.433   3.558 -1.1732 -0.9173  0.1595
 9332TIP3    H227933   1.112   1.322   3.468 -0.5581 -0.0313 -1.2946
 9333TIP3   OH227934   0.397   1.277   1.459 -0.4277  0.0487 -0.5725
 9333TIP3    H127935   0.372   1.239   1.374 -0.5965 -0.6004 -0.2395
 9333TIP3    H227936   0.343   1.230   1.523  0.2266  0.0190 -0.0347
 9334TIP3   OH227937   0.691   0.989   2.548  0.5553 -0.0822  0.3588
 9334TIP3    H127938   0.725   1.034   2.625  0.8356 -0.0300  0.2066
 9334TIP3    H227939   0.597   1.006   2.549  0.7339  0.9831 -0.0005
 9335TIP3   OH227940   4.112   7.603   5.320  0.6369  0.2046 -0.5286
 9335TIP3    H127941   4.152   7.581   5.404  1.3767 -1.0271 -1.1814
 9335TIP3    H227942   4.084   7.694   5.330  1.0196  0.1830  0.9304
 9336TIP3   OH227943   6.626   1.834   6.324  0.0868  0.0665  0.1623
 9336TIP3    H127944   6.613   1.914   6.273  1.0471 -0.0734 -0.3176
 9336TIP3    H227945   6.658   1.770   6.260  0.4730 -0.3574  0.7704
 9337TIP3   OH227946   7.739   3.382   1.457  0.4836 -0.2096  0.2706
 9337TIP3    H127947   7.754   3.343   1.371  0.5617  2.9228 -1.1919
 9337TIP3    H227948   7.827   3.392   1.494  0.5517 -0.1661  0.0968
 9338TIP3   OH227949   6.048   7.298   0.574 -0.0578 -0.3459  0.0642
 9338TIP3    H127950   6.058   7.209   0.541 -0.7691 -1.0355  1.6691
 9338TIP3    H227951   6.116   7.305   0.642 -0.6789 -0.0173  0.6520
 9339TIP3   OH227952   8.148   6.976   2.734 -0.0325  0.0702 -0.1490
 9339TIP3    H127953   8.114   7.048   2.680 -0.8593 -0.1423  0.0688
 9339TIP3    H227954   8.200   6.924   2.674 -1.4153 -0.4809 -0.8972
 9340TIP3   OH227955   7.557   6.608   3.946  0.4555 -0.1986  0.0833
 9340TIP3    H127956   7.609   6.579   3.872 -1.6957 -0.6238 -1.3164
 9340TIP3    H227957   7.482   6.549   3.947 -1.8916  2.6469 -0.2356
 9341TIP3   OH227958   1.582   0.364   3.708 -0.3412 -0.2503  0.5227
 9341TIP3    H127959   1.523   0.436   3.731  0.5156  0.8998 -0.7463
 9341TIP3    H227960   1.526   0.287   3.705 -1.6816  0.7306 -0.1503
 9342TIP3   OH227961   6.472   1.606   5.468  0.0632  0.3375 -0.2101
 9342TIP3    H127962   6.555   1.652   5.457 -1.0416  2.2421 -0.8342
 9342TIP3    H227963   6.494   1.526   5.515  2.1185  1.2484  0.3956
 9343TIP3   OH227964   1.768   1.466   2.610  0.3198 -0.0001 -0.2028
 9343TIP3    H127965   1.720   1.544   2.636  1.5982  0.9040 -0.5066
 9343TIP3    H227966   1.780   1.417   2.691 -0.3221  0.1988  0.0191
 9344TIP3   OH227967   8.490   1.079   4.531  0.0953  0.1864  0.5526
 9344TIP3    H127968   8.397   1.071   4.553 -0.4061  0.2644 -1.4314
 9344TIP3    H227969   8.505   1.012   4.465  1.2939  0.6114  0.3778
 9345TIP3   OH227970   3.499   1.906   2.285  0.0009 -0.2161  0.0157
 9345TIP3    H127971   3.540   1.861   2.358 -0.6538  0.6333  0.9154
 9345TIP3    H227972   3.542   1.870   2.207  0.4258 -1.4037  0.7928
 9346TIP3   OH227973   6.095   7.419   2.689  0.4138  0.5066 -0.0636
 9346TIP3    H127974   6.156   7.479   2.646  0.8418  0.1526  0.0458
 9346TIP3    H227975   6.018   7.472   2.708  0.3188  0.7170 -1.0582
 9347TIP3   OH227976   8.357   1.279   4.066 -0.0188 -0.5910 -0.2789
 9347TIP3    H127977   8.441   1.273   4.112  0.2161  1.7812 -0.3141
 9347TIP3    H227978   8.378   1.321   3.983 -1.4028  1.3726  0.3106
 9348TIP3   OH227979   5.387   6.589   2.294  0.0603  0.0233 -0.0626
 9348TIP3    H127980   5.429   6.504   2.282 -0.1385  0.1905 -2.1534
 9348TIP3    H227981   5.427   6.645   2.228 -0.7536  1.1895  0.4194
 9349TIP3   OH227982   5.213   7.706   3.213 -0.1671  0.2632  0.8365
 9349TIP3    H127983   5.235   7.757   3.135 -0.2627 -1.3939 -0.2992
 9349TIP3    H227984   5.215   7.770   3.284  1.7706  1.4561 -0.2293
 9350TIP3   OH227985   6.226   6.907   3.371  0.0299 -0.5199 -0.8048
 9350TIP3    H127986   6.320   6.904   3.351 -0.2031 -1.2804 -1.8535
 9350TIP3    H227987   6.186   6.855   3.302 -1.3084  0.9091 -1.1094
 9351TIP3   OH227988   8.178   1.740   3.797 -0.2095  0.3866 -0.3221
 9351TIP3    H127989   8.189   1.645   3.809 -1.5722  0.4005  1.3057
 9351TIP3    H227990   8.099   1.749   3.744  0.3885  0.5914 -1.1791
 9352TIP3   OH227991   1.313   0.930   2.702 -0.7592  0.0685 -0.3609
 9352TIP3    H127992   1.329   0.916   2.795 -1.6697 -0.4471 -0.2725
 9352TIP3    H227993   1.390   0.892   2.658 -0.1403  0.6768  0.1940
 9353TIP3   OH227994   6.335   1.801   4.580 -0.1271  0.0021 -0.0120
 9353TIP3    H127995   6.381   1.730   4.625 -0.4161 -1.2240 -1.6016
 9353TIP3    H227996   6.252   1.761   4.552 -0.3469  1.0072 -0.8189
 9354TIP3   OH227997   4.586   7.684   2.465 -0.4546  0.1800  0.0021
 9354TIP3    H127998   4.586   7.766   2.514 -1.4520  0.6623 -0.7989
 9354TIP3    H227999   4.656   7.632   2.505 -0.1906  1.2005  0.8709
 9355TIP3   OH228000   4.525   7.715   3.515 -0.0937 -0.2759  0.3008
 9355TIP3    H128001   4.588   7.675   3.455 -0.1632  0.7437 -0.4692
 9355TIP3    H228002   4.453   7.742   3.458 -0.3092  0.4055  0.8913
 9356TIP3   OH228003   3.984   7.766   4.104 -0.7972 -0.0405 -0.1897
 9356TIP3    H128004   4.059   7.755   4.046  0.3174  1.5225  0.9270
 9356TIP3    H228005   3.988   7.690   4.162 -0.5532 -0.3667 -0.6251
 9357TIP3   OH228006   5.335   6.731   3.467 -0.0564 -0.0477 -0.0783
 9357TIP3    H128007   5.376   6.801   3.518  0.0108  1.2881 -1.9584
 9357TIP3    H228008   5.252   6.714   3.512 -0.1794  1.3934  0.2462
 9358TIP3   OH228009   4.271   7.394   2.989 -0.5385 -0.1624 -0.1700
 9358TIP3    H128010   4.276   7.443   3.070 -0.6540 -0.5125  0.0507
 9358TIP3    H228011   4.306   7.453   2.922 -0.6878  0.2154  0.0910
 9359TIP3   OH228012   4.173   5.339   2.372 -0.0187  0.2553  0.0847
 9359TIP3    H128013   4.183   5.327   2.278  2.9950  0.9376  0.2630
 9359TIP3    H228014   4.097   5.395   2.381  0.0144  0.6679 -1.9864
 9360TIP3   OH228015   8.125   1.349   3.295 -0.0949  0.0869  0.7476
 9360TIP3    H128016   8.212   1.321   3.266  0.0797 -0.0718  1.4270
 9360TIP3    H228017   8.099   1.416   3.232  0.3784 -0.1023  0.3488
 9361TIP3   OH228018   7.455   0.261   5.605  0.4326  0.0055  0.4546
 9361TIP3    H128019   7.404   0.184   5.579  1.2475 -0.0423 -1.0865
 9361TIP3    H228020   7.435   0.273   5.697 -1.7508 -0.4708  0.0671
 9362TIP3   OH228021   0.033   0.054   0.910  0.1103 -0.4455  0.1929
 9362TIP3    H128022   0.038   0.058   0.815  0.8623 -1.3007  0.1883
 9362TIP3    H228023   0.084   0.130   0.940  0.5447 -0.6296 -0.0750
 9363TIP3   OH228024   6.159   7.015   3.942 -0.2403 -0.2732 -0.4739
 9363TIP3    H128025   6.171   6.978   3.854  2.2214  1.8367 -1.0651
 9363TIP3    H228026   6.101   7.090   3.928 -1.7654 -1.3155  0.0966
 9364TIP3   OH228027   8.460   0.912   4.047  0.0282 -0.0483  0.1718
 9364TIP3    H128028   8.382   0.860   4.029 -0.9583  1.9092 -1.5113
 9364TIP3    H228029   8.533   0.855   4.025 -1.0401 -0.3371 -2.9164
 9365TIP3   OH228030   3.983   6.568   2.996 -0.2503 -0.1978  0.8373
 9365TIP3    H128031   3.899   6.607   2.971  0.6776  0.1302 -1.8596
 9365TIP3    H228032   4.032   6.641   3.035 -1.7061 -0.7236  3.8283
 9366TIP3   OH228033   6.614   5.573   1.625  0.5130 -0.2281 -0.4498
 9366TIP3    H128034   6.550   5.507   1.598  1.2504 -1.1142 -0.0360
 9366TIP3    H228035   6.626   5.628   1.547 -1.1616  0.2795 -0.3583
 9367TIP3   OH228036   1.263   0.451   3.607  0.6842  0.1693  0.0506
 9367TIP3    H128037   1.241   0.441   3.514  0.6611 -2.9122  0.3473
 9367TIP3    H228038   1.179   0.448   3.652  0.7123  1.5035  0.2324
 9368TIP3   OH228039   4.499   7.754   2.021 -0.3964  0.9677 -0.3347
 9368TIP3    H128040   4.422   7.705   1.993  0.2538  0.8065 -1.9037
 9368TIP3    H228041   4.548   7.693   2.077 -1.1361  0.8954  0.2340
 9369TIP3   OH228042   2.293   5.515   3.637  0.3004 -0.8728 -0.5532
 9369TIP3    H128043   2.327   5.472   3.716 -0.6517 -1.3884 -0.4143
 9369TIP3    H228044   2.199   5.515   3.649  0.2609  0.7986 -0.8043
 9370TIP3   OH228045   7.270   1.381   5.077  0.1059 -0.3385  0.0885
 9370TIP3    H128046   7.237   1.314   5.138  1.7968 -1.0731  0.2250
 9370TIP3    H228047   7.295   1.332   4.999  0.8586  0.2160 -0.0201
 9371TIP3   OH228048   7.095   0.074   4.089 -0.2726  0.1124  0.2147
 9371TIP3    H128049   7.055   0.159   4.105  0.1568  0.4484 -0.4588
 9371TIP3    H228050   7.062   0.048   4.003 -1.8842 -1.2692  1.2051
 9372TIP3   OH228051   2.437   6.460   2.042 -0.4835  0.0701  0.0301
 9372TIP3    H128052   2.500   6.464   1.970 -1.1591  2.0865 -0.5029
 9372TIP3    H228053   2.458   6.537   2.096 -1.7914  0.1527  0.4316
 9373TIP3   OH228054   0.143   0.803   2.557  0.2550  0.0669 -0.0668
 9373TIP3    H128055   0.224   0.853   2.563  0.1490  0.2989 -0.5045
 9373TIP3    H228056   0.077   0.868   2.533  0.6009 -0.6935 -3.4562
 9374TIP3   OH228057   8.335   0.591   2.372 -0.1799  0.7269  0.1106
 9374TIP3    H128058   8.370   0.622   2.456  1.9715 -0.3037 -0.3843
 9374TIP3    H228059   8.292   0.508   2.393  0.2605  0.5240  0.2139
 9375TIP3   OH228060   3.392   7.092   4.536 -0.3509  0.0342  0.1340
 9375TIP3    H128061   3.342   7.109   4.456 -1.2740 -0.6677  0.5442
 9375TIP3    H228062   3.375   6.999   4.555 -0.7468  0.3836  1.5453
 9376TIP3   OH228063   2.768   6.243   3.272 -0.1558 -0.1897 -0.0096
 9376TIP3    H128064   2.854   6.257   3.233  0.0824  0.4486  0.7315
 9376TIP3    H228065   2.769   6.296   3.352 -1.6443  0.7315 -0.5835
 9377TIP3   OH228066   2.570   7.037   2.316 -0.1748  0.7266 -0.0343
 9377TIP3    H128067   2.539   7.078   2.397  1.8919  0.1218  1.1047
 9377TIP3    H228068   2.664   7.050   2.317  0.2070 -1.6398 -1.0124
 9378TIP3   OH228069   4.785   7.102   2.175 -0.0751 -0.2840 -0.1607
 9378TIP3    H128070   4.879   7.114   2.165 -0.3114  0.9547 -1.0064
 9378TIP3    H228071   4.766   7.136   2.263  0.0150  1.0843 -0.6592
 9379TIP3   OH228072   1.295   1.953   4.527  0.0276 -0.1596 -0.5139
 9379TIP3    H128073   1.311   2.045   4.509  1.0900  0.0419  1.3279
 9379TIP3    H228074   1.334   1.938   4.614 -0.8495 -2.1344 -0.4269
 9380TIP3   OH228075   6.092   7.323   4.201  0.3322 -0.0322  0.1204
 9380TIP3    H128076   6.011   7.332   4.252  0.8734 -0.3103  1.0427
 9380TIP3    H228077   6.134   7.244   4.236  0.8352 -0.0747 -0.5803
 9381TIP3   OH228078   7.955   0.719   4.089  0.2102 -0.5016 -0.0547
 9381TIP3    H128079   7.921   0.808   4.095  1.0019 -0.1454 -0.7349
 9381TIP3    H228080   7.964   0.691   4.180 -0.1357  0.0756  0.1596
 9382TIP3   OH228081   2.914   7.209   3.389 -0.5093 -0.0777 -0.4404
 9382TIP3    H128082   2.918   7.248   3.477 -2.0549  0.2842 -0.5253
 9382TIP3    H228083   2.892   7.118   3.405 -0.1893 -0.1537 -0.4269
 9383TIP3   OH228084   6.542   6.004   1.624 -0.3921  0.0808  0.0490
 9383TIP3    H128085   6.585   6.089   1.616 -0.2774  0.0741  0.5904
 9383TIP3    H228086   6.533   5.990   1.718 -0.4208 -0.4988 -0.0370
 9384TIP3   OH228087   7.332   7.757   4.411 -0.1016  0.0776  0.0345
 9384TIP3    H128088   7.313   7.848   4.390  0.4989 -0.0400 -1.0697
 9384TIP3    H228089   7.316   7.750   4.505 -0.1529  1.3148  0.1248
 9385TIP3   OH228090   6.290   7.138   4.286 -0.4623  0.2398 -0.2204
 9385TIP3    H128091   6.365   7.117   4.341 -0.8641 -0.8297 -0.0694
 9385TIP3    H228092   6.325   7.194   4.217  0.4874 -0.2891 -0.1698
 9386TIP3   OH228093   4.291   6.913   2.265  0.4362  0.0678 -0.0587
 9386TIP3    H128094   4.360   6.858   2.302 -1.2262 -0.6854  2.0629
 9386TIP3    H228095   4.301   6.997   2.310 -0.1872 -0.1417  0.4870
 9387TIP3   OH228096   3.629   6.909   5.315  0.3713 -0.0590 -0.3249
 9387TIP3    H128097   3.606   6.839   5.376 -0.5800  0.5785  0.0611
 9387TIP3    H228098   3.665   6.978   5.371  1.7853 -0.4281 -0.7565
 9388TIP3   OH228099   8.198   1.157   2.836  0.2216  0.0667 -0.4729
 9388TIP3    H128100   8.224   1.168   2.928 -4.0090  1.8434  0.6036
 9388TIP3    H228101   8.232   1.235   2.793  0.0868  0.4466  0.0962
 9389TIP3   OH228102   4.906   7.803   3.295  0.1065 -0.3482 -0.2876
 9389TIP3    H128103   4.905   7.757   3.379  0.3760 -0.3388 -0.2768
 9389TIP3    H228104   4.996   7.793   3.264  0.0680 -0.1514 -0.4634
 9390TIP3   OH228105   7.222   2.585   2.771  0.6078 -0.1754  0.3666
 9390TIP3    H128106   7.293   2.524   2.750  0.4233 -0.9082  1.8079
 9390TIP3    H228107   7.149   2.556   2.717  0.9527 -0.3477 -0.0142
 9391TIP3   OH228108   0.363   1.814   1.130  0.1819  1.1337  0.2228
 9391TIP3    H128109   0.292   1.829   1.067 -0.1616  2.2841  0.8658
 9391TIP3    H228110   0.373   1.898   1.175  1.7508  0.8865  0.3557
 9392TIP3   OH228111   8.382   1.249   3.037 -0.0598 -0.1493  0.2163
 9392TIP3    H128112   8.393   1.339   3.067 -0.0148 -0.3015  0.6665
 9392TIP3    H228113   8.448   1.200   3.086 -1.2253 -0.7065  1.2315
 9393TIP3   OH228114   0.541   1.010   2.943  0.0655 -0.0608 -0.0432
 9393TIP3    H128115   0.544   0.983   2.851 -0.7495 -2.7570  0.6760
 9393TIP3    H228116   0.593   0.944   2.989  1.1667  1.7239  1.3458
 9394TIP3   OH228117   4.898   7.226   2.704 -0.4203  0.3999  0.2089
 9394TIP3    H128118   4.887   7.144   2.752  0.0182 -0.3275 -0.9083
 9394TIP3    H228119   4.874   7.294   2.767 -2.7257 -0.6674  0.5476
 9395TIP3   OH228120   1.683   1.608   3.413  0.1335  0.7902 -0.3344
 9395TIP3    H128121   1.667   1.655   3.332  1.5537  1.6048 -0.1511
 9395TIP3    H228122   1.676   1.675   3.482  0.5996  0.4304  0.0678
 9396TIP3   OH228123   1.990   0.626   2.661 -0.4012  0.3978  0.5675
 9396TIP3    H128124   2.028   0.688   2.722  0.0092  0.8583 -0.1455
 9396TIP3    H228125   1.974   0.547   2.712  0.4850  0.5790  1.1195
 9397TIP3   OH228126   0.244   0.150   2.792  0.4063 -0.3674 -0.1660
 9397TIP3    H128127   0.226   0.240   2.766  1.1460  0.0566  0.7394
 9397TIP3    H228128   0.210   0.144   2.881 -0.5021 -1.2679 -0.5695
 9398TIP3   OH228129   7.679   0.130   3.173 -0.3161  0.4713 -0.2766
 9398TIP3    H128130   7.624   0.094   3.243 -0.5282 -1.0889 -1.2300
 9398TIP3    H228131   7.768   0.103   3.197 -0.2529  0.9048 -0.0189
 9399TIP3   OH228132   6.268   7.579   2.552 -0.2245 -0.9062 -0.4076
 9399TIP3    H128133   6.230   7.561   2.466 -0.6015  1.4255 -0.7701
 9399TIP3    H228134   6.262   7.674   2.561  0.7952 -1.0194  1.7503
 9400TIP3   OH228135   5.768   6.620   1.126 -0.0843  0.1761  0.0469
 9400TIP3    H128136   5.717   6.617   1.045 -0.1226 -2.1974  0.1220
 9400TIP3    H228137   5.820   6.700   1.119 -1.5577  1.0309 -1.4172
 9401TIP3   OH228138   4.720   6.403   3.946  0.0709  0.4382  0.4201
 9401TIP3    H128139   4.806   6.416   3.988  0.6804 -2.2904  0.1138
 9401TIP3    H228140   4.683   6.327   3.991 -1.9241  1.1920  0.0854
 9402TIP3   OH228141   1.377   1.280   3.126  0.3035  0.4156  0.1440
 9402TIP3    H128142   1.461   1.246   3.095  0.3190  1.5133 -1.0491
 9402TIP3    H228143   1.381   1.271   3.221  0.5760 -2.2789 -0.0753
 9403TIP3   OH228144   4.473   7.320   2.255  0.2186  0.6114  0.1520
 9403TIP3    H128145   4.568   7.303   2.250  0.8320  3.5764  0.7643
 9403TIP3    H228146   4.447   7.336   2.164  0.3170  0.0072  0.0092
 9404TIP3   OH228147   6.912   7.402   3.507  0.1027  0.3399  0.3425
 9404TIP3    H128148   6.817   7.409   3.501 -0.0309 -1.7631 -0.5974
 9404TIP3    H228149   6.927   7.325   3.561  1.2695  0.0959 -0.3037
 9405TIP3   OH228150   4.638   7.626   3.276  0.1307 -0.0137  0.0172
 9405TIP3    H128151   4.615   7.568   3.203 -2.1309 -0.0399  0.7065
 9405TIP3    H228152   4.719   7.668   3.248  0.0322 -1.0344 -1.9278
 9406TIP3   OH228153   3.692   6.039   0.091  0.3379 -0.0444  0.3410
 9406TIP3    H128154   3.731   5.960   0.127  0.7935 -0.1905 -0.4643
 9406TIP3    H228155   3.606   6.011   0.059  0.3677 -0.1385  0.3432
 9407TIP3   OH228156   6.818   6.027   5.340 -0.4895  0.5115 -0.5000
 9407TIP3    H128157   6.733   6.056   5.373 -0.9139 -0.6561 -0.5514
 9407TIP3    H228158   6.800   5.945   5.296  0.6485  0.3364 -0.6514
 9408TIP3   OH228159   7.097   7.751   3.163  0.1010 -0.2852 -0.2275
 9408TIP3    H128160   7.132   7.813   3.100 -0.3509 -0.1385 -0.3375
 9408TIP3    H228161   7.173   7.719   3.211  0.6747 -1.7784 -2.0502
 9409TIP3   OH228162   0.919   3.084   3.630 -0.0212  0.0702  0.3636
 9409TIP3    H128163   0.978   3.009   3.636  0.4859  0.4773  0.4765
 9409TIP3    H228164   0.950   3.133   3.555 -0.3166  0.2025  0.3277
 9410TIP3   OH228165   7.125   0.610   3.334  0.4550 -0.3749 -0.3686
 9410TIP3    H128166   7.211   0.584   3.366  0.2786 -0.8199 -0.2497
 9410TIP3    H228167   7.101   0.542   3.271  0.3729 -0.0288 -0.7146
 9411TIP3   OH228168   2.648   6.760   4.945 -0.4224 -0.0737  0.5043
 9411TIP3    H128169   2.579   6.826   4.954 -0.3073  0.0562  0.4504
 9411TIP3    H228170   2.700   6.769   5.025  0.6810  1.1734 -0.3255
 9412TIP3   OH228171   4.908   6.189   2.941 -0.6644 -0.2066  0.1620
 9412TIP3    H128172   4.836   6.138   2.977  2.0473 -1.8549  3.6500
 9412TIP3    H228173   4.896   6.277   2.979 -1.3267 -0.2381  0.0237
 9413TIP3   OH228174   3.082   7.179   5.772 -0.2130  0.2398  0.5752
 9413TIP3    H128175   3.057   7.265   5.806  0.3405  1.1730 -1.3035
 9413TIP3    H228176   3.014   7.158   5.708  0.6977  0.1671 -0.3786
 9414TIP3   OH228177   8.231   0.765   1.699 -0.3578 -0.4596 -0.1357
 9414TIP3    H128178   8.311   0.793   1.744 -1.0389 -0.3369  1.0303
 9414TIP3    H228179   8.171   0.839   1.708 -0.1453 -0.0071 -2.2081
 9415TIP3   OH228180   6.053   7.529   3.794 -0.1719 -0.2705  0.6206
 9415TIP3    H128181   6.022   7.609   3.751  0.7306  0.4278  1.2850
 9415TIP3    H228182   5.972   7.486   3.824 -0.6998  0.0678 -0.2867
 9416TIP3   OH228183   7.491   1.801   1.787 -0.2590 -0.1669  0.2752
 9416TIP3    H128184   7.567   1.857   1.798 -0.4310  0.1033  0.1022
 9416TIP3    H228185   7.516   1.717   1.826  0.7764 -0.6478 -1.3870
 9417TIP3   OH228186   6.356   2.951   4.639  0.4119 -0.1395  0.2935
 9417TIP3    H128187   6.351   2.965   4.733  0.5059  3.3361 -0.1506
 9417TIP3    H228188   6.449   2.959   4.619  0.4413 -1.2617 -0.0680
 9418TIP3   OH228189   4.323   2.201   4.716 -0.1529 -0.8371 -0.0179
 9418TIP3    H128190   4.311   2.106   4.713  1.9114 -1.0757 -1.4375
 9418TIP3    H228191   4.408   2.213   4.758  0.4993  0.3202 -1.6470
 9419TIP3   OH228192   5.083   7.891   1.882  0.1222 -0.3415  0.5983
 9419TIP3    H128193   5.041   7.835   1.948 -0.6001 -1.9132 -1.1456
 9419TIP3    H228194   5.039   7.975   1.891  0.2550 -0.4248  2.3326
 9420TIP3   OH228195   1.198   0.908   3.898  0.1507  0.1388 -0.1082
 9420TIP3    H128196   1.255   0.973   3.857 -0.0684 -0.3801 -1.2358
 9420TIP3    H228197   1.199   0.833   3.839 -2.7041  0.6001 -0.8379
 9421TIP3   OH228198   6.156   7.419   1.817  0.0689  0.6873 -0.1952
 9421TIP3    H128199   6.228   7.425   1.879 -0.6071 -1.1438  0.8031
 9421TIP3    H228200   6.131   7.510   1.801 -0.4417  1.1930  3.0816
 9422TIP3   OH228201   0.242   1.153   3.980 -0.5671  0.2536  0.0932
 9422TIP3    H128202   0.189   1.187   4.053  0.5748  1.2098  0.4886
 9422TIP3    H228203   0.177   1.125   3.915 -1.5939 -0.3455  1.3589
 9423TIP3   OH228204   5.642   0.583   2.028 -0.1918 -0.4304 -0.1071
 9423TIP3    H128205   5.607   0.613   2.112 -2.5708  1.2894 -1.6212
 9423TIP3    H228206   5.653   0.489   2.038 -1.1945 -0.3492  1.8743
 9424TIP3   OH228207   8.224   0.957   2.500  0.2572 -0.3680 -0.4109
 9424TIP3    H128208   8.200   1.037   2.454  0.8084  0.1753  0.2444
 9424TIP3    H228209   8.304   0.979   2.548  0.9222 -1.5779 -0.9532
 9425TIP3   OH228210   6.465   6.980   4.051  0.1557 -0.0559  0.3413
 9425TIP3    H128211   6.527   6.977   3.979 -0.6221  1.7470 -0.4400
 9425TIP3    H228212   6.391   7.030   4.017 -1.5634 -1.8251  1.3771
 9426TIP3   OH228213   0.049   2.716   3.747  0.2290 -0.1613 -0.5298
 9426TIP3    H128214   0.062   2.632   3.790  2.3519 -0.1991 -1.1950
 9426TIP3    H228215  -0.038   2.710   3.708 -1.5405 -0.3456  3.1936
 9427TIP3   OH228216   0.548   0.112   2.179  0.4761  0.1147 -0.2313
 9427TIP3    H128217   0.490   0.157   2.240  1.2705  1.5297 -0.5116
 9427TIP3    H228218   0.635   0.145   2.199  1.1812 -1.7701 -0.0200
 9428TIP3   OH228219   0.653   0.719   3.414 -0.6567  0.1619  0.2298
 9428TIP3    H128220   0.591   0.686   3.349  0.6713 -0.7950 -0.5703
 9428TIP3    H228221   0.676   0.807   3.384  0.1462 -0.3717 -0.7483
 9429TIP3   OH228222   8.009   0.946   2.881  0.0257 -0.1599  0.0348
 9429TIP3    H128223   8.047   0.897   2.808  2.1042 -0.0196  1.0065
 9429TIP3    H228224   8.058   1.028   2.884  0.9914 -0.7718  2.4804
 9430TIP3   OH228225   7.138   7.430   3.720  0.4229  0.0222 -0.3330
 9430TIP3    H128226   7.131   7.519   3.686  2.1364 -0.3110 -1.6307
 9430TIP3    H228227   7.226   7.402   3.695  0.1420 -1.7981  0.6543
 9431TIP3   OH228228   5.532   7.533   4.862 -0.7276 -0.5612  0.9698
 9431TIP3    H128229   5.452   7.580   4.887 -0.6140 -0.1947  0.6577
 9431TIP3    H228230   5.520   7.445   4.896 -1.0943 -0.3961  1.2680
 9432TIP3   OH228231   1.705   0.116   3.589 -0.6877  0.5792 -0.0202
 9432TIP3    H128232   1.611   0.106   3.607 -0.3193  0.2583  1.7359
 9432TIP3    H228233   1.711   0.201   3.546 -1.6606  1.0590  0.7613
 9433TIP3   OH228234   7.018   7.177   3.697 -0.1941  0.3050 -0.9084
 9433TIP3    H128235   7.015   7.134   3.782 -2.5592 -1.4917 -1.8662
 9433TIP3    H228236   7.057   7.263   3.715 -0.5296 -0.1085  1.9415
 9434TIP3   OH228237   6.704   7.090   3.930 -0.1786  0.0753 -0.1933
 9434TIP3    H128238   6.669   7.165   3.978 -0.4015  0.9426 -1.6798
 9434TIP3    H228239   6.797   7.089   3.950 -0.3012  0.3396  0.3858
 9435TIP3   OH228240   4.176   6.973   4.120 -0.0589 -0.3329 -0.3750
 9435TIP3    H128241   4.086   7.004   4.107  0.3115  0.5061 -0.9700
 9435TIP3    H228242   4.201   7.011   4.205  0.2376  0.6429 -0.8921
 9436TIP3   OH228243   6.301   7.393   3.872  0.0754  0.3263  0.2078
 9436TIP3    H128244   6.320   7.484   3.849 -0.1749  0.5015  0.7069
 9436TIP3    H228245   6.206   7.387   3.870  0.1342 -0.3671 -1.5328
 9437TIP3   OH228246   6.269   1.576   2.017  0.1419  0.0533  0.3507
 9437TIP3    H128247   6.354   1.617   2.034  0.4026 -0.2110 -0.3087
 9437TIP3    H228248   6.291   1.490   1.980 -0.4012  1.0560 -2.4133
 9438TIP3   OH228249   7.518   2.965   4.996  0.1960 -0.1283 -0.0528
 9438TIP3    H128250   7.522   3.001   5.085 -0.0221 -1.0391  0.3279
 9438TIP3    H228251   7.527   2.871   5.008 -1.6639 -0.4280 -0.8470
 9439TIP3   OH228252   6.498   7.820   2.175 -0.7892  0.3287 -0.3309
 9439TIP3    H128253   6.404   7.822   2.160 -1.0208  0.3500  1.0672
 9439TIP3    H228254   6.522   7.728   2.161 -1.4122 -0.1449  1.5234
 9440TIP3   OH228255   7.857   1.762   3.316 -0.2379 -0.1063 -0.4423
 9440TIP3    H128256   7.889   1.757   3.226  1.9087  0.3603  0.2754
 9440TIP3    H228257   7.866   1.854   3.340  1.9921 -0.7236  1.2273
 9441TIP3   OH228258   8.220   0.438   1.951  0.3782 -0.2081 -0.0238
 9441TIP3    H128259   8.165   0.511   1.978  0.6434  0.1357 -0.4084
 9441TIP3    H228260   8.158   0.371   1.921  0.1725  0.2091 -0.5301
 9442TIP3   OH228261   7.388   2.110   0.633  0.0826  0.0762 -0.5867
 9442TIP3    H128262   7.435   2.192   0.648  0.3080  0.0002 -0.8804
 9442TIP3    H228263   7.298   2.137   0.616  0.4317  0.3592 -2.0544
 9443TIP3   OH228264   6.401   7.233   1.368 -0.1961  0.3032 -0.0531
 9443TIP3    H128265   6.445   7.242   1.453 -2.4599  0.4400  1.1611
 9443TIP3    H228266   6.309   7.249   1.388 -0.5769  1.8230 -2.8203
 9444TIP3   OH228267   6.480   7.634   4.214 -0.1072  0.8212 -0.0948
 9444TIP3    H128268   6.559   7.660   4.166  0.7861  0.5417  1.2116
 9444TIP3    H228269   6.498   7.659   4.305 -0.4200 -1.7020  0.6930
 9445TIP3   OH228270   0.633   3.672   2.598 -0.0379  0.5906 -0.7742
 9445TIP3    H128271   0.652   3.755   2.640  1.5164 -0.2627  0.2193
 9445TIP3    H228272   0.659   3.684   2.507 -2.0018  1.9340 -1.1990
 9446TIP3   OH228273   1.247   2.788   3.130  0.0138  0.2415 -0.3585
 9446TIP3    H128274   1.171   2.788   3.073  1.3997  0.8432 -2.2550
 9446TIP3    H228275   1.269   2.695   3.141  0.5909  0.1663 -2.0054
 9447TIP3   OH228276   6.786   7.730   2.847 -0.6378  0.0480  0.1462
 9447TIP3    H128277   6.812   7.656   2.902 -0.8584 -0.5273 -0.5236
 9447TIP3    H228278   6.730   7.783   2.903  0.9261  0.6381  1.2020
 9448TIP3   OH228279   4.889   6.419   3.107 -0.3761 -0.2233 -0.4678
 9448TIP3    H128280   4.935   6.491   3.151  0.0405 -0.4814 -0.4796
 9448TIP3    H228281   4.797   6.431   3.131 -0.3351  0.4260 -0.6214
 9449TIP3   OH228282   7.533   0.228   2.653  0.1392  0.2367  0.3318
 9449TIP3    H128283   7.554   0.231   2.747 -1.2467 -0.6240  0.6995
 9449TIP3    H228284   7.575   0.148   2.622 -0.1950  0.0093  0.4500
 9450TIP3   OH228285   1.728   1.059   4.484 -0.1081  0.1787  0.5819
 9450TIP3    H128286   1.686   0.973   4.485  2.4418 -1.0785  1.8860
 9450TIP3    H228287   1.804   1.049   4.428  0.4457  1.4788  1.0793
 9451TIP3   OH228288   7.640   1.689   4.215 -0.1927 -0.1306 -0.2018
 9451TIP3    H128289   7.642   1.711   4.308 -1.9595 -0.0990 -0.1471
 9451TIP3    H228290   7.555   1.645   4.203  0.6020 -1.3405 -1.5307
 9452TIP3   OH228291   0.910   0.877   2.923 -0.5884  0.4993 -0.2821
 9452TIP3    H128292   0.827   0.857   2.966 -0.6741  2.0118  0.2616
 9452TIP3    H228293   0.967   0.803   2.946 -1.5874 -0.2469 -0.1647
 9453TIP3   OH228294   3.446   2.890   2.752  0.0412  0.4931  0.2842
 9453TIP3    H128295   3.525   2.860   2.708  0.4186  1.4055  0.3316
 9453TIP3    H228296   3.471   2.902   2.843 -0.6603 -1.0835  0.7059
 9454TIP3   OH228297   8.495   0.765   2.211  0.1701  0.1804 -0.0186
 9454TIP3    H128298   8.410   0.788   2.172 -0.1769  1.2723  1.3170
 9454TIP3    H228299   8.476   0.688   2.265  0.1241  0.1338 -0.1010
 9455TIP3   OH228300   7.854   1.112   3.642 -0.3932 -0.1337 -0.1220
 9455TIP3    H128301   7.812   1.155   3.716 -1.2243 -1.9753  0.4762
 9455TIP3    H228302   7.817   1.155   3.565 -1.1346  0.2965  0.4750
 9456TIP3   OH228303   5.248   5.748   3.362 -0.3291 -0.2580  0.7375
 9456TIP3    H128304   5.243   5.781   3.451 -1.0552  0.3179  0.4938
 9456TIP3    H228305   5.182   5.799   3.314  2.1155  1.5423 -0.8023
 9457TIP3   OH228306   7.569   6.359   3.753 -0.0228 -0.9735  0.1580
 9457TIP3    H128307   7.516   6.365   3.674  1.6347  0.8877 -0.8501
 9457TIP3    H228308   7.648   6.312   3.727 -0.0160 -1.4488  1.0110
 9458TIP3   OH228309   2.254   2.488   3.126 -0.2354 -0.4647 -0.2917
 9458TIP3    H128310   2.301   2.455   3.049  0.1375  0.4073 -0.4482
 9458TIP3    H228311   2.164   2.459   3.113 -0.1936 -0.2637 -1.1045
 9459TIP3   OH228312   2.671   6.731   2.611 -0.1203  0.0831  0.6898
 9459TIP3    H128313   2.648   6.697   2.697  1.2656  1.6017  1.6852
 9459TIP3    H228314   2.708   6.818   2.628  0.0274  0.4773 -1.4435
 9460TIP3   OH228315   3.996   6.676   4.397  0.2996  0.7408  0.8829
 9460TIP3    H128316   3.996   6.601   4.338  1.2601  0.5305  1.1396
 9460TIP3    H228317   3.938   6.740   4.355  4.1184  2.2386 -2.4374
 9461TIP3   OH228318   7.133   6.377   4.244 -0.1212 -0.6500  0.0393
 9461TIP3    H128319   7.068   6.441   4.216 -0.4204 -0.7809  0.4217
 9461TIP3    H228320   7.156   6.404   4.333  0.7550 -0.2814 -0.2973
 9462TIP3   OH228321   5.895   6.172   3.349  0.2797  0.5724  0.0620
 9462TIP3    H128322   5.914   6.155   3.442 -0.2217  2.2812  0.5022
 9462TIP3    H228323   5.967   6.227   3.319 -1.0891  2.5258  0.2682
 9463TIP3   OH228324   1.330   0.849   2.995 -0.2530 -0.4639  0.6575
 9463TIP3    H128325   1.331   0.757   2.969  0.4200 -0.4749  0.7114
 9463TIP3    H228326   1.244   0.863   3.034 -0.4922 -0.9777  0.3135
 9464TIP3   OH228327   0.658   0.248   3.253 -0.3736 -0.8687  0.3704
 9464TIP3    H128328   0.564   0.267   3.251 -0.0606  0.7110 -0.4616
 9464TIP3    H228329   0.671   0.187   3.181 -0.7871 -1.1660  0.5452
 9465TIP3   OH228330   8.183   0.074   1.656  0.2549 -0.3761  0.7657
 9465TIP3    H128331   8.272   0.085   1.623  0.0433 -1.1533 -0.0796
 9465TIP3    H228332   8.136   0.033   1.584 -0.4460 -1.2215  1.6959
 9466TIP3   OH228333   7.172   7.754   2.254  0.7024 -0.1478  0.2024
 9466TIP3    H128334   7.252   7.735   2.204  0.6668  2.2454 -0.8136
 9466TIP3    H228335   7.122   7.672   2.250  1.4548 -0.5285 -2.3002
 9467TIP3   OH228336   2.763   7.538   2.792  0.6919 -0.1481  0.3139
 9467TIP3    H128337   2.778   7.596   2.867 -0.7553  0.2781  0.3033
 9467TIP3    H228338   2.821   7.571   2.724  0.8791  0.4426  0.7549
 9468TIP3   OH228339   1.014   0.487   3.736 -0.2644 -0.0307  0.0315
 9468TIP3    H128340   0.948   0.523   3.677 -1.3230 -1.0558  0.5466
 9468TIP3    H228341   0.999   0.533   3.819 -1.1950 -1.1450  0.5071
 9469TIP3   OH228342   6.697   0.023   2.377 -0.1563 -0.1685  0.2962
 9469TIP3    H128343   6.695   0.101   2.322  0.0553 -0.6828 -0.4453
 9469TIP3    H228344   6.672  -0.048   2.319  0.4908 -0.7780  0.7555
 9470TIP3   OH228345   4.411   6.478   2.700  0.3021  0.2842 -0.1495
 9470TIP3    H128346   4.400   6.571   2.719 -0.1558  0.5764 -1.7852
 9470TIP3    H228347   4.463   6.475   2.620  0.0214 -0.8518 -0.3066
 9471TIP3   OH228348   0.819   1.423   3.659  0.4802  0.3669  0.5870
 9471TIP3    H128349   0.760   1.367   3.709 -0.1620  0.5993  0.0839
 9471TIP3    H228350   0.764   1.494   3.627  0.7590 -0.0912 -0.9641
 9472TIP3   OH228351   6.485   5.833   2.643 -0.2674  0.3486  0.8791
 9472TIP3    H128352   6.395   5.800   2.640 -0.2071  0.2849 -0.5731
 9472TIP3    H228353   6.529   5.777   2.707 -0.6836 -1.0749 -0.0749
 9473TIP3   OH228354   6.179   6.908   4.206  0.0594  0.0426 -0.8208
 9473TIP3    H128355   6.159   6.911   4.112  1.5328 -1.0076 -1.1888
 9473TIP3    H228356   6.236   6.984   4.221 -1.2331  0.9690 -0.4935
 9474TIP3   OH228357   7.459   6.883   3.800  0.3103  0.2553  0.0744
 9474TIP3    H128358   7.537   6.901   3.853  0.1583  3.2220 -0.6155
 9474TIP3    H228359   7.485   6.904   3.711 -0.6504 -0.7701 -0.4540
 9475TIP3   OH228360   2.659   6.157   2.267 -0.2312  0.1285 -0.0120
 9475TIP3    H128361   2.740   6.209   2.269 -0.9803  1.3181  0.0122
 9475TIP3    H228362   2.624   6.165   2.355  0.6296 -2.0500  0.5659
 9476TIP3   OH228363   1.986   2.294   1.304 -1.0034 -0.5944  0.1377
 9476TIP3    H128364   2.013   2.354   1.373 -1.8756 -0.3252  0.2532
 9476TIP3    H228365   2.056   2.229   1.300 -1.5062 -1.2858  2.0851
 9477TIP3   OH228366   1.327   3.655   4.019 -0.0686 -0.9537 -0.3395
 9477TIP3    H128367   1.301   3.726   3.961  2.1978  1.1901  1.1925
 9477TIP3    H228368   1.305   3.686   4.107  1.1636 -2.0472  0.3696
 9478TIP3   OH228369   1.611   1.152   4.875 -0.2544  0.2927 -0.1339
 9478TIP3    H128370   1.540   1.182   4.818 -0.9651 -0.6478  0.2544
 9478TIP3    H228371   1.691   1.178   4.829 -0.8530  2.3299 -0.0408
 9479TIP3   OH228372   8.259   7.897   2.206 -0.0535 -0.4026 -0.1513
 9479TIP3    H128373   8.244   7.912   2.113  2.1034 -0.7194 -0.5705
 9479TIP3    H228374   8.353   7.881   2.213  0.1016  1.3693  2.3291
 9480TIP3   OH228375   1.421   0.090   4.768  0.1734  0.6153  0.1376
 9480TIP3    H128376   1.330   0.078   4.797  0.4375  0.3774  0.8710
 9480TIP3    H228377   1.415   0.092   4.672 -0.4379 -0.7915  0.1352
 9481TIP3   OH228378   4.631   6.970   0.953 -0.1482 -0.6893 -0.1418
 9481TIP3    H128379   4.610   6.983   1.045 -0.6743  1.0208 -0.4766
 9481TIP3    H228380   4.726   6.982   0.948 -0.4895  2.4191 -0.2806
 9482TIP3   OH228381   0.242   1.045   1.580 -0.1600 -0.4208  0.0353
 9482TIP3    H128382   0.251   0.993   1.500  0.3204  0.0981 -0.2534
 9482TIP3    H228383   0.296   1.001   1.645  2.5075  1.2419 -0.9679
 9483TIP3   OH228384   0.816   0.730   4.292 -0.2856 -0.0099  0.2672
 9483TIP3    H128385   0.878   0.659   4.279 -1.0816 -0.8192  0.7930
 9483TIP3    H228386   0.869   0.809   4.297  0.7098 -0.7325  1.0342
 9484TIP3   OH228387   0.871   0.272   2.468  0.3438 -0.1852 -0.0699
 9484TIP3    H128388   0.958   0.310   2.465 -0.4143  1.5555 -0.4220
 9484TIP3    H228389   0.849   0.254   2.377  0.7474 -1.6211  0.1012
 9485TIP3   OH228390   7.180   1.979   2.577  0.3181  0.0569  0.0835
 9485TIP3    H128391   7.108   2.038   2.596  0.8163  0.9801 -0.8620
 9485TIP3    H228392   7.222   2.016   2.499  1.7152 -0.5545  0.5320
 9486TIP3   OH228393   6.957   7.733   3.422 -0.5756 -0.6307  0.2258
 9486TIP3    H128394   7.013   7.717   3.347 -1.1071  0.5885 -0.4408
 9486TIP3    H228395   7.017   7.761   3.491 -0.0703 -1.9153  0.3255
 9487TIP3   OH228396   1.569   0.406   2.612 -0.3764 -0.5815 -0.3739
 9487TIP3    H128397   1.477   0.390   2.591 -0.1607  0.6747 -2.4138
 9487TIP3    H228398   1.587   0.350   2.687 -3.0078 -0.2980  0.5118
 9488TIP3   OH228399   4.190   0.506   3.090  0.5114  0.3428 -0.4195
 9488TIP3    H128400   4.247   0.579   3.114  0.9238  0.0088 -0.3750
 9488TIP3    H228401   4.173   0.518   2.997 -0.2041  1.0339 -0.2051
 9489TIP3   OH228402   7.484   7.550   3.787  0.4085 -0.2721 -0.4413
 9489TIP3    H128403   7.472   7.457   3.806  0.3009 -0.0354  0.7289
 9489TIP3    H228404   7.492   7.555   3.692 -2.4708 -1.1538 -0.7625
 9490TIP3   OH228405   8.181   7.332   3.421 -0.2901 -0.1131 -0.5729
 9490TIP3    H128406   8.190   7.328   3.516 -1.1957 -1.5503 -0.5461
 9490TIP3    H228407   8.164   7.425   3.403 -0.0980  0.1697  0.6613
 9491TIP3   OH228408   0.389   0.295   3.821  0.4548  0.3801  0.1151
 9491TIP3    H128409   0.376   0.318   3.914  1.0763  1.2104  0.0053
 9491TIP3    H228410   0.476   0.256   3.818  0.3295  0.1161 -0.0789
 9492TIP3   OH228411   6.567   7.693   2.491 -0.2174 -0.6521  0.3539
 9492TIP3    H128412   6.513   7.636   2.545 -1.3019  1.0789  1.1213
 9492TIP3    H228413   6.652   7.694   2.536 -0.5099 -0.8264  0.9205
 9493TIP3   OH228414   1.302   0.543   2.973 -0.1348  0.3530 -0.0031
 9493TIP3    H128415   1.364   0.536   3.046 -0.3866 -0.1386  0.1708
 9493TIP3    H228416   1.238   0.474   2.991 -1.0003  1.1744  0.0792
 9494TIP3   OH228417   6.970   7.887   2.094 -0.0743 -0.1400  0.2390
 9494TIP3    H128418   6.937   7.854   2.011  0.0589 -1.2131  0.6023
 9494TIP3    H228419   7.036   7.823   2.121  0.6510  0.7635  0.6477
 9495TIP3   OH228420   0.031   1.112   3.831  0.1842  0.6095 -0.2664
 9495TIP3    H128421  -0.037   1.079   3.890  0.6882  0.8331  0.4506
 9495TIP3    H228422   0.008   1.077   3.745 -1.1265  1.1149 -0.1199
 9496TIP3   OH228423   6.199   7.920   1.190 -0.1981  0.4982  0.6210
 9496TIP3    H128424   6.176   8.003   1.148 -0.7705  0.4843  0.8927
 9496TIP3    H228425   6.287   7.933   1.223 -0.1631  0.8871  0.3768
 9497TIP3   OH228426   0.706   2.179   3.821  0.2958  0.1465 -0.0781
 9497TIP3    H128427   0.756   2.147   3.745 -0.0764  1.5567 -0.9421
 9497TIP3    H228428   0.761   2.158   3.896  0.7802 -1.0728 -0.7575
 9498TIP3   OH228429   0.770   0.980   3.323 -0.5810  0.2071  0.1607
 9498TIP3    H128430   0.777   1.019   3.410 -2.5093  0.7944  0.0677
 9498TIP3    H228431   0.792   1.051   3.262  0.6559 -0.1732  0.1426
 9499TIP3   OH228432   7.917   1.780   2.972 -0.8476  0.5569  0.0905
 9499TIP3    H128433   7.888   1.691   2.953  0.2466 -0.4926  3.0021
 9499TIP3    H228434   8.011   1.778   2.957 -0.5771  0.7466  1.6186
 9500TIP3   OH228435   2.036   0.100   3.576 -0.3848  0.1285 -0.2118
 9500TIP3    H128436   2.056   0.008   3.560  1.8059  0.5869 -0.2915
 9500TIP3    H228437   2.054   0.113   3.669 -0.7044  0.4812 -0.1947
 9501TIP3   OH228438   5.672   7.211   2.593  0.0419  0.5472 -0.5930
 9501TIP3    H128439   5.591   7.258   2.613  1.2919  2.6989 -0.5093
 9501TIP3    H228440   5.726   7.222   2.671  0.4381 -0.9112 -0.6355
 9502TIP3   OH228441   6.295   7.840   3.324  0.4369 -0.2199  0.4811
 9502TIP3    H128442   6.261   7.928   3.342 -1.0152 -0.8161  0.6907
 9502TIP3    H228443   6.374   7.856   3.272  0.4641  1.2255  0.9305
 9503TIP3   OH228444   1.464   0.333   1.795  0.2755  0.3620 -0.2488
 9503TIP3    H128445   1.480   0.348   1.889  0.0397  0.4224 -0.2198
 9503TIP3    H228446   1.372   0.354   1.782  0.6107  1.5618 -0.7428
 9504TIP3   OH228447   8.421   0.883   3.078 -0.0008  0.2278 -0.7022
 9504TIP3    H128448   8.469   0.869   2.996  1.2626  0.6629 -0.0518
 9504TIP3    H228449   8.474   0.948   3.125  0.6320 -1.8641  1.5380
 9505TIP3   OH228450   8.402   2.318   2.893 -0.9992  0.1993 -0.2119
 9505TIP3    H128451   8.359   2.313   2.807 -0.3569  2.1349 -0.6747
 9505TIP3    H228452   8.397   2.411   2.916 -0.0923 -0.1267  1.2976
 9506TIP3   OH228453   2.248   1.442   1.786 -0.0597 -0.3861  0.7120
 9506TIP3    H128454   2.294   1.526   1.783 -3.1963  1.3522 -0.2109
 9506TIP3    H228455   2.198   1.445   1.867 -1.0458 -0.8761  0.1287
 9507TIP3   OH228456   6.823   6.948   1.213 -0.0986 -0.4710 -0.1767
 9507TIP3    H128457   6.868   7.003   1.148 -1.9158 -0.6048 -1.5809
 9507TIP3    H228458   6.787   7.010   1.276 -0.5947 -0.1597 -0.7611
 9508TIP3   OH228459   3.580   0.022   2.711 -0.2458 -0.6688 -0.0746
 9508TIP3    H128460   3.579   0.089   2.643  2.0512  0.0716  0.5537
 9508TIP3    H228461   3.547   0.067   2.789  1.0024 -0.3109  0.2699
 9509TIP3   OH228462   0.757   1.721   3.232 -0.4966 -0.0340 -0.1851
 9509TIP3    H128463   0.803   1.793   3.189 -0.3793  0.7972  1.3081
 9509TIP3    H228464   0.682   1.761   3.275 -0.2557 -0.7329  0.9245
 9510TIP3   OH228465   7.209   0.752   2.252  0.0153  0.0833 -0.1857
 9510TIP3    H128466   7.289   0.787   2.291 -1.0103  1.0490  1.1252
 9510TIP3    H228467   7.197   0.803   2.172  0.2809  0.5012  0.0383
 9511TIP3   OH228468   0.063   7.891   3.601 -0.0165 -0.0803  0.0640
 9511TIP3    H128469   0.070   7.981   3.635  3.1026 -0.1668 -0.1996
 9511TIP3    H228470   0.088   7.898   3.509  1.5483 -1.4255  0.3740
 9512TIP3   OH228471   2.567   1.504   1.825 -0.5578  0.0781  0.5790
 9512TIP3    H128472   2.586   1.510   1.732  0.2174  1.0496  0.7929
 9512TIP3    H228473   2.649   1.530   1.868 -1.0225 -0.0014  1.5326
 9513TIP3   OH228474   0.902   0.298   2.770  0.2094 -0.1122 -0.0142
 9513TIP3    H128475   0.846   0.292   2.693  0.1999  1.5871 -0.1578
 9513TIP3    H228476   0.928   0.390   2.774 -0.0026 -0.1143  2.1508
 9514TIP3   OH228477   1.941   0.903   1.600  0.1573 -0.2242  0.2200
 9514TIP3    H128478   1.968   0.989   1.570  0.9571  0.1797  2.0269
 9514TIP3    H228479   1.980   0.842   1.537  0.3985  0.6630 -0.5068
 9515TIP3   OH228480   7.133   7.386   4.589 -0.1023 -0.4229  0.0337
 9515TIP3    H128481   7.064   7.364   4.527 -1.1731 -0.1943  1.0999
 9515TIP3    H228482   7.111   7.336   4.668  0.6142  0.1046  0.5776
 9516TIP3   OH228483   1.739   1.109   1.676 -0.2144  0.0412 -0.3691
 9516TIP3    H128484   1.795   1.044   1.633  0.2770 -0.0991  0.4684
 9516TIP3    H228485   1.650   1.084   1.652 -0.0035 -0.7076 -0.3863
 9517TIP3   OH228486   7.668   7.287   1.516 -0.1463 -0.1890 -0.5631
 9517TIP3    H128487   7.659   7.325   1.604  0.2905  0.3930 -0.7665
 9517TIP3    H228488   7.586   7.239   1.502 -0.7243  0.7307 -0.3333
 9518TIP3   OH228489   7.495   1.016   2.062 -0.0728  0.0133  0.1875
 9518TIP3    H128490   7.528   1.076   1.996 -1.6872  1.5829  0.7547
 9518TIP3    H228491   7.498   0.930   2.020  1.9940  0.5241 -0.7358
 9519TIP3   OH228492   1.236   2.037   2.861  0.8012 -0.6623  0.0586
 9519TIP3    H128493   1.224   2.087   2.781  0.5639 -0.1637  0.4026
 9519TIP3    H228494   1.325   2.003   2.855  0.9725 -0.1842 -0.1704
 9520TIP3   OH228495   1.114   0.344   3.000 -0.7356 -0.2092  0.6009
 9520TIP3    H128496   1.040   0.293   2.969 -0.5808 -0.5898  0.8584
 9520TIP3    H228497   1.175   0.280   3.035 -0.3628  0.1175  0.5578
 9521TIP3   OH228498   7.432   7.395   2.080  0.1410 -0.2299 -0.2733
 9521TIP3    H128499   7.339   7.372   2.086 -0.0530  0.8591  0.9138
 9521TIP3    H228500   7.471   7.359   2.159  0.2331  1.6144  0.5368
 9522TIP3   OH228501   7.379   6.383   3.551 -0.2315 -0.5123  0.0130
 9522TIP3    H128502   7.399   6.465   3.505  3.5590 -0.5341  1.4680
 9522TIP3    H228503   7.383   6.316   3.483 -1.4585  0.2656 -0.8410
 9523TIP3   OH228504   5.193   6.587   1.942  0.0545  0.4313 -0.2999
 9523TIP3    H128505   5.274   6.562   1.986  0.0255 -0.1025 -0.5446
 9523TIP3    H228506   5.208   6.567   1.850 -1.7766 -3.5757  0.1417
 9524TIP3   OH228507   7.651   7.019   3.443  0.4892 -0.0605 -0.2954
 9524TIP3    H128508   7.722   7.052   3.389  1.3907 -0.8301  0.4171
 9524TIP3    H228509   7.652   7.075   3.521 -0.7454  0.9840 -1.0017
 9525TIP3   OH228510   6.141   4.504   2.921  0.1806 -0.3654  0.0199
 9525TIP3    H128511   6.132   4.571   2.989 -1.2018 -2.9238  2.4330
 9525TIP3    H228512   6.220   4.456   2.946  0.0869 -0.8542 -0.6281
 9526TIP3   OH228513   0.848   1.098   2.766 -0.5495 -0.4165  0.5488
 9526TIP3    H128514   0.877   1.039   2.836 -1.9580  0.3401  1.7860
 9526TIP3    H228515   0.836   1.182   2.809  1.6720  0.8895 -1.2691
 9527TIP3   OH228516   3.426   4.608   0.597 -0.3414  0.4551  0.4736
 9527TIP3    H128517   3.333   4.628   0.609 -0.9881 -0.7212 -2.1827
 9527TIP3    H228518   3.437   4.519   0.628 -0.5455 -0.0992 -0.9854
 9528TIP3   OH228519   6.174   4.785   2.067  0.1376  0.1315  0.1769
 9528TIP3    H128520   6.106   4.720   2.084 -0.6224  1.2687  1.5853
 9528TIP3    H228521   6.248   4.758   2.122  0.3584 -0.3690 -0.3629
 9529TIP3   OH228522   1.359   1.706   6.266 -0.1168 -0.0327 -0.1393
 9529TIP3    H128523   1.341   1.694   6.172 -0.0740 -2.3345  0.1368
 9529TIP3    H228524   1.281   1.672   6.310  0.2963  0.1020  0.7017
 9530TIP3   OH228525   0.389   3.633   5.276  0.3863 -0.0737 -0.0764
 9530TIP3    H128526   0.457   3.584   5.321  0.5378 -0.3678 -0.6279
 9530TIP3    H228527   0.309   3.583   5.292  0.0479  0.9811  1.7078
 9531TIP3   OH228528   3.804   3.551   2.294  0.1702 -0.6067 -0.1934
 9531TIP3    H128529   3.823   3.639   2.326  0.4760 -0.5864 -0.4376
 9531TIP3    H228530   3.787   3.500   2.374 -0.4381 -0.2253 -0.0774
 9532TIP3   OH228531   4.855   3.657   1.993 -0.2794 -0.1279  0.2374
 9532TIP3    H128532   4.810   3.730   2.035  0.9704  0.6021  0.3301
 9532TIP3    H228533   4.841   3.670   1.899 -0.3243  0.0670  0.2709
 9533TIP3   OH228534   2.928   3.516   1.528  0.3377 -0.3839  0.5441
 9533TIP3    H128535   2.860   3.492   1.464 -0.0992  1.1461  0.3983
 9533TIP3    H228536   2.915   3.456   1.601  0.0113 -1.3091 -0.2666
 9534TIP3   OH228537   3.320   2.305   3.994  0.0949  0.2612 -0.3597
 9534TIP3    H128538   3.246   2.357   4.025  0.2527  0.9417 -1.1123
 9534TIP3    H228539   3.394   2.366   3.992  0.7373 -0.4628  0.5859
 9535TIP3   OH228540   2.979   6.074   0.215 -0.2899  0.1916  0.2303
 9535TIP3    H128541   2.924   6.093   0.291 -2.0851 -0.6120 -0.8127
 9535TIP3    H228542   3.025   5.994   0.237  0.3718  0.8016  1.0728
 9536TIP3   OH228543   1.218   0.480   5.217  0.3470  0.9127  0.2023
 9536TIP3    H128544   1.188   0.465   5.307 -1.6563 -0.2662 -0.6554
 9536TIP3    H228545   1.230   0.575   5.212 -0.3519  1.0830  1.4628
 9537TIP3   OH228546   1.487   1.519   4.715  0.2275  0.3699 -0.1856
 9537TIP3    H128547   1.446   1.434   4.700 -1.0251  1.4801 -3.7170
 9537TIP3    H228548   1.575   1.499   4.746 -0.5240 -2.1552  0.4374
 9538TIP3   OH228549   7.439   5.032   0.899  0.0362 -0.0363  1.0910
 9538TIP3    H128550   7.409   5.089   0.970  0.4279  0.7907  0.6040
 9538TIP3    H228551   7.495   4.967   0.943 -1.1495 -0.6167  1.7707
 9539TIP3   OH228552   3.569   5.484   0.284  0.1113  0.3349 -0.0143
 9539TIP3    H128553   3.597   5.509   0.372 -0.5834 -0.2407  0.3755
 9539TIP3    H228554   3.475   5.469   0.292  0.2543 -0.9054 -0.5701
 9540TIP3   OH228555   5.491   4.099   0.634 -0.0363  0.0288  0.6427
 9540TIP3    H128556   5.476   4.048   0.714  0.5770 -1.4736 -0.1699
 9540TIP3    H228557   5.566   4.056   0.592  0.5101  1.6453 -0.0562
 9541TIP3   OH228558   4.157   5.890   1.123 -0.3349  0.2049 -0.4061
 9541TIP3    H128559   4.209   5.906   1.045  0.1878 -2.1315 -0.5692
 9541TIP3    H228560   4.214   5.839   1.181 -1.8028 -0.8441  0.1589
 9542TIP3   OH228561   3.975   5.037   1.456  0.9952  0.0060  0.2618
 9542TIP3    H128562   4.020   5.102   1.511 -0.2190 -0.2574  1.6003
 9542TIP3    H228563   3.939   5.088   1.384 -0.2632  0.8870  1.4966
 9543TIP3   OH228564   2.247   0.733   5.462  0.1281  0.0046 -0.6362
 9543TIP3    H128565   2.234   0.739   5.367  1.7166  0.2483 -0.8507
 9543TIP3    H228566   2.322   0.675   5.471 -0.4248 -0.5422  0.5097
 9544TIP3   OH228567   4.385   0.563   4.717 -0.0044 -0.2523  0.0408
 9544TIP3    H128568   4.393   0.498   4.647 -1.1688 -0.4520  0.0863
 9544TIP3    H228569   4.458   0.623   4.703  1.2645 -1.7425  0.1716
 9545TIP3   OH228570   5.186   5.012   0.933  0.2387  0.0928  0.2651
 9545TIP3    H128571   5.277   4.991   0.954  0.6468  0.0760 -1.4752
 9545TIP3    H228572   5.135   4.947   0.982  1.2069 -0.7007  0.2471
 9546TIP3   OH228573   4.288   5.258   1.212 -0.5071  0.0285  0.2955
 9546TIP3    H128574   4.254   5.177   1.174 -0.5440  1.1086 -2.0158
 9546TIP3    H228575   4.213   5.296   1.258 -0.5220 -1.1604  1.2882
 9547TIP3   OH228576   6.988   6.440   0.377 -0.5514 -0.8873  0.0222
 9547TIP3    H128577   7.004   6.509   0.442  1.8809 -1.2258 -0.1833
 9547TIP3    H228578   7.024   6.361   0.416  0.2369 -1.2551 -1.4104
 9548TIP3   OH228579   4.849   5.507   0.247 -0.2834 -0.0430 -0.4773
 9548TIP3    H128580   4.783   5.577   0.245  0.6002  0.8122 -0.2673
 9548TIP3    H228581   4.806   5.435   0.292 -0.0756  1.5724  2.4258
 9549TIP3   OH228582   1.003   0.847   2.655  0.2111  0.4772  0.1184
 9549TIP3    H128583   1.080   0.864   2.710  0.2056  0.6492  0.0734
 9549TIP3    H228584   0.949   0.925   2.666 -0.8305 -0.4315  1.6066
 9550TIP3   OH228585   0.161   1.813   6.759  0.2071 -0.7232  0.3091
 9550TIP3    H128586   0.115   1.875   6.816 -0.8899  2.0421 -3.3711
 9550TIP3    H228587   0.125   1.728   6.782 -3.6049  0.8611  0.6252
 9551TIP3   OH228588   4.521   5.314   2.356 -0.1366  0.4736  0.4895
 9551TIP3    H128589   4.458   5.375   2.318 -2.5732 -2.1858  0.0107
 9551TIP3    H228590   4.496   5.308   2.448  2.1641  2.6317  1.2726
 9552TIP3   OH228591   2.025   0.803   4.451  0.0113  0.2546  0.4764
 9552TIP3    H128592   2.113   0.763   4.453 -0.4199 -0.7349 -0.0249
 9552TIP3    H228593   1.972   0.746   4.506 -0.7231 -0.1205 -0.6095
 9553TIP3   OH228594   5.003   5.383   1.246 -0.0476 -0.8403  0.7238
 9553TIP3    H128595   4.912   5.382   1.274 -0.4232 -0.0901 -0.4465
 9553TIP3    H228596   5.045   5.448   1.302 -0.0044 -1.8611  1.9082
 9554TIP3   OH228597   4.434   2.233   0.531  0.0285 -0.1568 -0.1305
 9554TIP3    H128598   4.455   2.265   0.444 -0.0111 -0.7552 -0.3655
 9554TIP3    H228599   4.372   2.297   0.567  0.1360  0.1481 -0.4955
 9555TIP3   OH228600   3.925   4.439   0.473  0.1692  0.4668 -0.0226
 9555TIP3    H128601   3.894   4.432   0.563 -1.2516  0.5135 -0.4976
 9555TIP3    H228602   3.845   4.440   0.420  0.9944  0.3105 -1.2913
 9556TIP3   OH228603   0.035   0.462   5.912 -0.2159  0.2621 -0.1343
 9556TIP3    H128604   0.025   0.511   5.994  0.6820  0.0431  0.1109
 9556TIP3    H228605   0.056   0.529   5.847 -1.9101  0.5664 -0.4035
 9557TIP3   OH228606   6.412   3.786   0.766  0.1591  0.4506  0.3817
 9557TIP3    H128607   6.434   3.715   0.827  1.5844 -0.7457 -1.5028
 9557TIP3    H228608   6.493   3.835   0.755 -0.0658  0.6137 -0.6069
 9558TIP3   OH228609   1.445   0.095   4.465  0.1503  0.8121 -0.4152
 9558TIP3    H128610   1.437   0.012   4.419  0.9366  1.1520 -1.1790
 9558TIP3    H228611   1.539   0.108   4.475 -0.0115  0.8615  1.0689
 9559TIP3   OH228612   1.529   1.806   5.925  0.1634  0.3265 -0.3409
 9559TIP3    H128613   1.497   1.720   5.953 -0.6894  1.1268  1.2446
 9559TIP3    H228614   1.507   1.812   5.833  0.3243 -1.1991 -0.4870
 9560TIP3   OH228615   1.225   2.085   6.102 -0.1018 -0.1432  0.7611
 9560TIP3    H128616   1.217   2.145   6.176 -0.2193 -2.5775  2.7981
 9560TIP3    H228617   1.318   2.088   6.079 -0.2579  1.4272  0.2956
 9561TIP3   OH228618   4.225   0.202   5.042 -0.2516 -0.1144 -0.7091
 9561TIP3    H128619   4.242   0.282   4.991  0.9295  1.4938  2.0751
 9561TIP3    H228620   4.153   0.225   5.100  0.5348 -0.8312  0.5797
 9562TIP3   OH228621   4.533   2.877   1.067  0.0868 -0.5483 -0.0468
 9562TIP3    H128622   4.487   2.915   1.142  0.7228 -0.4468  0.2893
 9562TIP3    H228623   4.605   2.937   1.049 -0.5813 -0.0993 -1.3081
 9563TIP3   OH228624   6.839   4.062   2.974  0.0585  0.3432 -0.9960
 9563TIP3    H128625   6.865   4.011   3.050 -0.6603 -1.1012 -1.6911
 9563TIP3    H228626   6.751   4.093   2.994 -0.4519 -0.7093 -1.5432
 9564TIP3   OH228627   7.463   4.441   0.833  0.7270  0.4655  0.3053
 9564TIP3    H128628   7.427   4.437   0.745  1.2206 -0.7889  0.1548
 9564TIP3    H228629   7.400   4.495   0.882 -0.9384 -0.9880 -0.1661
 9565TIP3   OH228630   3.649   1.262   0.329 -0.4847  0.1373 -0.1144
 9565TIP3    H128631   3.628   1.353   0.309 -0.8780 -0.0246 -0.4352
 9565TIP3    H228632   3.731   1.267   0.378  0.7458  0.5148 -2.1257
 9566TIP3   OH228633   4.364   2.996   1.669  0.0104  0.1813 -0.4118
 9566TIP3    H128634   4.411   3.068   1.711  0.3533  0.3267 -1.0398
 9566TIP3    H228635   4.421   2.920   1.679 -0.0503  0.1433 -0.3457
 9567TIP3   OH228636   4.133   4.365   1.963  0.5703 -0.0094 -0.0254
 9567TIP3    H128637   4.186   4.422   1.907  0.2450  1.3396  1.0253
 9567TIP3    H228638   4.132   4.409   2.048 -1.6972 -0.3487  0.1432
 9568TIP3   OH228639   4.371   2.468   6.756  0.0987 -0.0158 -0.0658
 9568TIP3    H128640   4.279   2.445   6.743  0.3310 -0.6829 -0.6145
 9568TIP3    H228641   4.369   2.549   6.806 -0.7944  0.3181 -0.6267
 9569TIP3   OH228642   2.718   1.809   6.650  0.3398 -0.0185  0.0679
 9569TIP3    H128643   2.738   1.826   6.558 -1.8841  0.2171 -0.3967
 9569TIP3    H228644   2.748   1.887   6.696  1.8748 -0.3257 -0.3810
 9570TIP3   OH228645   6.973   4.854   0.500  0.3400 -0.1050 -1.0284
 9570TIP3    H128646   6.958   4.948   0.490  2.4983  0.3799  0.0767
 9570TIP3    H228647   6.909   4.814   0.441 -0.1139  2.0645 -2.0834
 9571TIP3   OH228648   6.161   4.583   0.952  0.4719  0.2642 -0.2856
 9571TIP3    H128649   6.181   4.656   1.010 -1.5825 -0.4003  1.3101
 9571TIP3    H228650   6.099   4.618   0.889 -0.1206  0.0328  0.1673
 9572TIP3   OH228651   7.173   4.709   0.217 -0.0000 -0.2065 -0.3998
 9572TIP3    H128652   7.212   4.780   0.269 -2.5357 -0.5967  2.1483
 9572TIP3    H228653   7.105   4.752   0.165  1.2297 -0.1532 -2.0372
 9573TIP3   OH228654   3.164   5.012   0.728  0.2920  0.1637  0.3592
 9573TIP3    H128655   3.222   5.073   0.773  1.0626  0.7296 -1.3987
 9573TIP3    H228656   3.102   5.068   0.680 -0.9456 -0.4374  1.2036
 9574TIP3   OH228657   6.603   5.593   0.834  0.2142  0.0407  0.0802
 9574TIP3    H128658   6.636   5.561   0.918 -0.7982 -0.3636  0.3282
 9574TIP3    H228659   6.669   5.564   0.770  0.6317 -0.2586  0.6381
 9575TIP3   OH228660   8.348   3.892   0.730  0.3638 -0.1749  0.0866
 9575TIP3    H128661   8.417   3.888   0.796 -0.1370  0.6651  0.6827
 9575TIP3    H228662   8.394   3.883   0.647  1.1501 -0.0255  0.4945
 9576TIP3   OH228663   6.606   5.224   0.447  0.1142  0.9414 -0.4328
 9576TIP3    H128664   6.638   5.175   0.523 -1.5815 -0.6545 -0.7181
 9576TIP3    H228665   6.539   5.282   0.483 -1.5034 -0.6289 -0.8461
 9577TIP3   OH228666   2.708   1.007   6.218  0.7213  0.1241 -0.0868
 9577TIP3    H128667   2.763   0.944   6.173 -2.6998 -2.2102 -1.2155
 9577TIP3    H228668   2.729   0.996   6.311  1.1772 -1.7135 -0.3987
 9578TIP3   OH228669   3.284   6.381   0.849 -0.5733 -0.1366 -0.1420
 9578TIP3    H128670   3.270   6.469   0.884 -0.1269  0.0972 -0.5379
 9578TIP3    H228671   3.197   6.346   0.833 -0.7494  0.2342  0.0214
 9579TIP3   OH228672   3.953   6.439   0.071  0.2580  0.0230 -0.2864
 9579TIP3    H128673   3.861   6.417   0.086  0.0742  0.4715 -0.7465
 9579TIP3    H228674   3.988   6.365   0.021 -0.3811  0.7936 -1.9035
 9580TIP3   OH228675   3.591   0.652   6.634  0.7663 -0.1916  0.0792
 9580TIP3    H128676   3.649   0.663   6.559 -0.2968  0.2158 -0.6866
 9580TIP3    H228677   3.553   0.565   6.623  0.5879 -0.1202  0.1247
 9581TIP3   OH228678   5.221   4.835   1.266 -0.4540 -0.1249  0.2796
 9581TIP3    H128679   5.150   4.847   1.203  0.5223 -1.1695 -1.0442
 9581TIP3    H228680   5.190   4.767   1.325 -1.3324  0.7920  0.8949
 9582TIP3   OH228681   6.354   7.385   0.864 -0.0570 -0.2814 -0.4862
 9582TIP3    H128682   6.389   7.334   0.791  1.2159  1.5134 -1.1529
 9582TIP3    H228683   6.321   7.465   0.823  0.4843  0.6561  0.8843
 9583TIP3   OH228684   3.136   2.480   6.015  0.1541 -0.2460 -0.1013
 9583TIP3    H128685   3.116   2.430   5.936 -0.5380 -1.1033  0.6151
 9583TIP3    H228686   3.128   2.571   5.988  1.5731 -0.4992 -1.4555
 9584TIP3   OH228687   6.623   6.381   0.123 -0.3929  0.3161 -0.0473
 9584TIP3    H128688   6.647   6.379   0.216 -0.4292  1.5181 -0.0045
 9584TIP3    H228689   6.698   6.343   0.078  0.8423  2.3380  0.2478
 9585TIP3   OH228690   5.925   1.136   6.152  0.3287  0.6216  0.1923
 9585TIP3    H128691   5.925   1.231   6.153  0.2474  0.6437 -0.7999
 9585TIP3    H228692   5.928   1.110   6.244 -0.1029  1.5769  0.4762
 9586TIP3   OH228693   1.760   7.677   6.848 -0.1215 -0.5795 -0.2987
 9586TIP3    H128694   1.684   7.666   6.791 -0.0600  0.5284 -0.6083
 9586TIP3    H228695   1.727   7.722   6.925  0.8726  3.5540 -2.1216
 9587TIP3   OH228696   5.660   5.108   0.539  0.6452 -0.1045  0.2117
 9587TIP3    H128697   5.596   5.179   0.546 -1.4955 -2.1230  1.9838
 9587TIP3    H228698   5.729   5.132   0.602 -0.4055  0.0919  1.3126
 9588TIP3   OH228699   5.038   0.864   5.689 -0.0373 -0.0616 -0.3856
 9588TIP3    H128700   5.031   0.914   5.608  2.2665 -1.5113 -1.5471
 9588TIP3    H228701   5.097   0.916   5.744 -1.7702  1.0292  0.4910
 9589TIP3   OH228702   5.763   5.480   0.562  0.2876  0.1781 -0.0529
 9589TIP3    H128703   5.671   5.486   0.538  0.0468 -0.8864  0.5718
 9589TIP3    H228704   5.767   5.510   0.652  0.3374 -1.0268  0.3584
 9590TIP3   OH228705   4.355   4.074   1.260 -0.0833  0.3485  0.1203
 9590TIP3    H128706   4.450   4.067   1.269 -0.1203 -0.4350  0.0092
 9590TIP3    H228707   4.320   4.011   1.323 -0.4695 -0.8073 -1.2227
 9591TIP3   OH228708   2.068   2.880   3.624 -0.1033 -0.2474 -0.1434
 9591TIP3    H128709   2.017   2.799   3.621  2.6783 -2.1501  1.7093
 9591TIP3    H228710   2.059   2.911   3.714 -1.2367  1.6405 -0.8663
 9592TIP3   OH228711   4.610   3.797   1.070  0.3727  0.7894  0.0557
 9592TIP3    H128712   4.519   3.825   1.058  0.7604  1.6247 -1.0805
 9592TIP3    H228713   4.629   3.818   1.161 -0.4315  1.0429  0.1760
 9593TIP3   OH228714   2.753   0.903   6.819 -0.0260 -0.4657  0.4782
 9593TIP3    H128715   2.836   0.952   6.816 -0.5600  0.4414  0.4238
 9593TIP3    H228716   2.768   0.828   6.762 -0.4165  1.5389 -2.3273
 9594TIP3   OH228717   5.628   3.510   0.924  0.4676 -0.2195 -0.4687
 9594TIP3    H128718   5.683   3.588   0.915 -1.4967  1.1240 -1.2195
 9594TIP3    H228719   5.686   3.444   0.964  2.1597  1.5989  0.1656
 9595TIP3   OH228720   4.736   1.929   5.667  0.3790 -0.6931 -0.3188
 9595TIP3    H128721   4.781   2.013   5.672 -0.6524 -0.1851  0.8641
 9595TIP3    H228722   4.648   1.947   5.702 -0.1763 -2.0367 -0.9737
 9596TIP3   OH228723   6.981   4.382   1.205 -0.3809  0.1815 -0.2957
 9596TIP3    H128724   6.930   4.307   1.173  0.2336  0.1251 -1.1418
 9596TIP3    H228725   7.037   4.345   1.274 -0.1580 -0.1181 -0.6353
 9597TIP3   OH228726   3.750   2.282   6.113 -0.2547 -0.1151  0.2983
 9597TIP3    H128727   3.701   2.201   6.103 -0.2533 -0.1635  0.6977
 9597TIP3    H228728   3.728   2.333   6.034 -0.4141 -0.4152  0.1485
 9598TIP3   OH228729   3.286   0.618   5.509  0.6685 -0.4980  0.5672
 9598TIP3    H128730   3.342   0.546   5.537  1.0051 -0.3439  0.2859
 9598TIP3    H228731   3.241   0.646   5.589 -0.7444 -2.1280  0.3767
 9599TIP3   OH228732   4.525   0.276   5.146 -0.1047 -0.2200  0.2139
 9599TIP3    H128733   4.582   0.353   5.144 -0.5594  0.1048 -1.2840
 9599TIP3    H228734   4.459   0.297   5.211 -1.6861  1.7605 -1.9227
 9600TIP3   OH228735   6.071   7.042   0.467  0.2077  0.0759 -0.1571
 9600TIP3    H128736   6.016   6.987   0.412  1.3579  0.7703 -2.0756
 9600TIP3    H228737   6.088   6.990   0.545 -0.1605 -1.5680 -1.1651
 9601TIP3   OH228738   6.652   7.127   0.902  0.0307  0.0670 -0.0286
 9601TIP3    H128739   6.582   7.113   0.965 -2.0078  0.8580 -2.0379
 9601TIP3    H228740   6.650   7.048   0.846  1.3247 -0.2972  0.4192
 9602TIP3   OH228741   4.609   3.434   1.521 -0.2805  0.1666 -0.0529
 9602TIP3    H128742   4.575   3.508   1.470  0.6141 -0.1524 -1.1174
 9602TIP3    H228743   4.698   3.460   1.545 -0.4362 -0.0058  0.7254
 9603TIP3   OH228744   2.954   2.246   4.167  0.6995  0.0902  0.0514
 9603TIP3    H128745   2.858   2.250   4.164  0.5656  0.1542  3.0408
 9603TIP3    H228746   2.983   2.307   4.100 -1.3399 -0.8634 -1.7670
 9604TIP3   OH228747   4.410   1.813   6.040  0.2989 -0.5962  0.2801
 9604TIP3    H128748   4.451   1.899   6.034  0.8646 -0.9294 -0.8683
 9604TIP3    H228749   4.325   1.824   5.996 -0.7492  0.0289  2.4322
 9605TIP3   OH228750   2.808   2.296   5.183  0.5206 -0.1168 -0.3907
 9605TIP3    H128751   2.823   2.389   5.203 -0.7764  0.1553 -0.5865
 9605TIP3    H228752   2.856   2.249   5.251 -0.0433  0.7309  0.6227
 9606TIP3   OH228753   3.931   0.619   5.125  0.4903  0.2621 -0.1045
 9606TIP3    H128754   3.853   0.667   5.152  0.7483  1.0784 -0.7728
 9606TIP3    H228755   4.004   0.672   5.159  0.7728  0.1855 -0.5889
 9607TIP3   OH228756   0.553   4.404   1.383 -0.4857 -0.0130  0.0041
 9607TIP3    H128757   0.466   4.418   1.422 -1.8248  0.9420 -3.1672
 9607TIP3    H228758   0.545   4.321   1.337 -0.4585  1.1416 -2.1527
 9608TIP3   OH228759   6.855   3.593   2.394 -0.4903 -0.4619 -0.3280
 9608TIP3    H128760   6.916   3.666   2.409  0.0903 -1.0604  0.2815
 9608TIP3    H228761   6.868   3.569   2.302  0.3460 -0.7203 -0.1437
 9609TIP3   OH228762   3.185   7.425   5.058  0.0332 -0.5678 -0.2086
 9609TIP3    H128763   3.190   7.329   5.053 -0.2771 -0.7022  1.6937
 9609TIP3    H228764   3.145   7.451   4.975 -0.1671 -2.1164 -0.6168
 9610TIP3   OH228765   3.935   4.683   0.125 -0.2055  0.1599  0.0082
 9610TIP3    H128766   3.865   4.729   0.079  0.5674  0.0727 -1.2661
 9610TIP3    H228767   3.953   4.606   0.072  1.6609  0.7945 -0.3094
 9611TIP3   OH228768   3.729   0.981   6.602 -0.1067 -0.0134  0.4682
 9611TIP3    H128769   3.716   1.043   6.674 -0.2710  1.3137 -0.6814
 9611TIP3    H228770   3.640   0.955   6.577 -0.1052  0.4874 -0.0671
 9612TIP3   OH228771   6.288   3.394   0.604 -0.0701  0.0068  0.2102
 9612TIP3    H128772   6.368   3.412   0.654 -1.8488  0.9130  2.8494
 9612TIP3    H228773   6.254   3.312   0.641 -0.5158 -0.2111 -0.6766
 9613TIP3   OH228774   2.425   7.073   6.010 -0.1027  0.0005  0.3899
 9613TIP3    H128775   2.390   7.091   6.097 -0.3956  3.3786 -0.3567
 9613TIP3    H228776   2.350   7.082   5.952  0.6388  0.4665 -0.4951
 9614TIP3   OH228777   3.642   4.833   1.434  0.1242 -0.5214  0.7721
 9614TIP3    H128778   3.657   4.745   1.467  0.6386 -0.6423  0.2157
 9614TIP3    H228779   3.702   4.888   1.483  0.7984 -0.6827  0.1236
 9615TIP3   OH228780   4.739   1.738   6.265  0.5375  0.0505 -0.7953
 9615TIP3    H128781   4.702   1.821   6.235  2.2536  1.0970 -0.0943
 9615TIP3    H228782   4.709   1.730   6.356 -1.2241 -1.0689 -1.4574
 9616TIP3   OH228783   4.306   3.746   2.956 -0.6167 -0.1395 -0.3125
 9616TIP3    H128784   4.233   3.804   2.934 -0.8391 -0.1288  0.4163
 9616TIP3    H228785   4.320   3.761   3.050  0.0521 -0.4469 -0.3618
 9617TIP3   OH228786   6.487   5.099   0.202 -0.2799  0.4702  0.6110
 9617TIP3    H128787   6.468   5.027   0.262 -1.0912 -0.5340 -0.8134
 9617TIP3    H228788   6.407   5.151   0.200 -0.8336 -0.3929 -0.7855
 9618TIP3   OH228789   3.889   0.293   3.923  0.3876 -0.7661  0.4195
 9618TIP3    H128790   3.847   0.221   3.971  1.3004  0.2025  2.7184
 9618TIP3    H228791   3.816   0.348   3.894 -0.2540 -2.0990 -0.5172
 9619TIP3   OH228792   5.583   4.917   0.751  0.1499  0.1723 -0.1169
 9619TIP3    H128793   5.583   4.946   0.660 -0.6832 -2.0718 -0.8491
 9619TIP3    H228794   5.493   4.889   0.768  0.8703 -1.7347  0.6384
 9620TIP3   OH228795   5.456   2.974   0.773 -0.2586 -0.0423 -0.2038
 9620TIP3    H128796   5.507   2.894   0.761 -1.7287 -0.9587 -0.5559
 9620TIP3    H228797   5.392   2.971   0.701  0.0575  1.7520 -0.5679
 9621TIP3   OH228798   7.197   1.854   0.624  0.0542 -0.1138  0.1227
 9621TIP3    H128799   7.177   1.946   0.642  1.4834  0.3488 -0.6025
 9621TIP3    H228800   7.224   1.818   0.709  0.1890  0.3141  0.2609
 9622TIP3   OH228801   4.075   0.732   5.880  0.0277  0.4319 -0.4759
 9622TIP3    H128802   4.110   0.819   5.898  2.9947 -0.6690 -0.7018
 9622TIP3    H228803   3.989   0.749   5.841 -0.2997  3.1843  1.2360
 9623TIP3   OH228804   8.152   4.886   1.049  0.8540  0.1648  0.3136
 9623TIP3    H128805   8.110   4.869   1.133  1.0085 -2.4670 -0.1059
 9623TIP3    H228806   8.245   4.871   1.066  0.9663  0.3454 -0.1393
 9624TIP3   OH228807   4.240   1.064   5.139 -0.1487 -0.1842 -1.0480
 9624TIP3    H128808   4.216   1.151   5.172  1.0814  0.3217 -1.4384
 9624TIP3    H228809   4.210   1.064   5.048  0.9221  0.2863 -1.4066
 9625TIP3   OH228810   4.052   7.066   0.063 -0.9119 -0.4129 -0.5687
 9625TIP3    H128811   4.078   6.993   0.119 -2.2528 -0.4353  0.0505
 9625TIP3    H228812   4.110   7.059  -0.013 -0.6307 -1.7708 -0.2520
 9626TIP3   OH228813   6.437   4.578   0.301  0.2659  0.1592  0.7532
 9626TIP3    H128814   6.374   4.549   0.235 -1.0831  1.4848  1.4552
 9626TIP3    H228815   6.477   4.497   0.333  0.2203 -0.5598 -0.9720
 9627TIP3   OH228816   4.888   6.775   0.078 -0.3696 -0.3025  0.1993
 9627TIP3    H128817   4.952   6.808   0.015  0.3977 -1.5943  0.2786
 9627TIP3    H228818   4.914   6.685   0.093 -0.6336 -0.0488  2.2774
 9628TIP3   OH228819   2.655   1.305   5.190 -0.2650 -0.6911 -0.3289
 9628TIP3    H128820   2.601   1.379   5.163  0.4101 -0.3275 -0.7194
 9628TIP3    H228821   2.733   1.346   5.229  0.6138 -1.1592 -1.5330
 9629TIP3   OH228822   6.012   5.809   0.912  0.1683  0.0865  0.5698
 9629TIP3    H128823   5.953   5.877   0.945 -0.8968 -0.4110 -0.2951
 9629TIP3    H228824   6.013   5.744   0.982 -0.7770 -0.1851  0.3346
 9630TIP3   OH228825   0.264   2.987   0.615 -0.7412 -0.1372  0.3857
 9630TIP3    H128826   0.305   3.057   0.563 -0.1961 -0.9290 -0.2659
 9630TIP3    H228827   0.338   2.943   0.658 -1.0328 -0.6099  0.4064
 9631TIP3   OH228828   5.377   1.730   5.568 -0.2063  0.1754 -0.3696
 9631TIP3    H128829   5.431   1.704   5.643  0.2608  1.8839 -0.1029
 9631TIP3    H228830   5.338   1.813   5.593 -0.2435  0.6463 -1.9216
 9632TIP3   OH228831   3.495   1.453   5.503  0.3426 -0.3027  0.6122
 9632TIP3    H128832   3.413   1.414   5.534 -0.2031 -0.3019 -0.8284
 9632TIP3    H228833   3.535   1.386   5.448  0.7095  0.1622  0.3081
 9633TIP3   OH228834   5.745   3.020   0.636 -0.1629  0.5278  0.4339
 9633TIP3    H128835   5.692   2.939   0.636 -0.2612  0.5675 -0.9246
 9633TIP3    H228836   5.835   2.990   0.645 -0.2514  0.3120  0.6090
 9634TIP3   OH228837   5.341   0.017   5.444  0.2804  0.6171 -0.2617
 9634TIP3    H128838   5.400   0.086   5.473  0.3771  0.6108 -0.4355
 9634TIP3    H228839   5.333  -0.042   5.519  0.7644  0.4385 -0.3500
 9635TIP3   OH228840   4.884   5.857   2.390 -0.1266 -0.4422 -0.1539
 9635TIP3    H128841   4.949   5.912   2.434  0.3403 -0.8064 -0.3754
 9635TIP3    H228842   4.894   5.771   2.431 -0.0817 -0.6400 -0.5768
 9636TIP3   OH228843   0.792   3.954   0.983 -0.0308  0.1155  0.2167
 9636TIP3    H128844   0.814   3.961   1.076  1.0913  0.3757 -0.0600
 9636TIP3    H228845   0.726   3.885   0.979 -0.6617  0.6432  1.3009
 9637TIP3   OH228846   4.734   4.621   0.306 -0.0533 -0.1711  0.1061
 9637TIP3    H128847   4.655   4.595   0.354 -0.3253  0.7963  0.1831
 9637TIP3    H228848   4.802   4.561   0.338 -0.2980  0.2921  1.4935
 9638TIP3   OH228849   1.703   1.612   6.686 -0.1067 -0.2511  0.3366
 9638TIP3    H128850   1.622   1.620   6.635  0.7073 -2.4733 -1.3761
 9638TIP3    H228851   1.684   1.542   6.749  0.0514  0.1442  0.8281
 9639TIP3   OH228852   5.319   6.186   2.510 -0.3838  0.1455  0.1466
 9639TIP3    H128853   5.303   6.197   2.416 -0.0729 -0.0722  0.0639
 9639TIP3    H228854   5.312   6.274   2.546  0.8315  0.4468 -0.3017
 9640TIP3   OH228855   7.268   5.581   0.250 -0.0066 -0.1292  0.2999
 9640TIP3    H128856   7.340   5.640   0.271  0.5745 -0.6373 -0.2464
 9640TIP3    H228857   7.249   5.536   0.332  0.1940  0.1106  0.4792
 9641TIP3   OH228858   4.432   2.170   6.890  0.2119  0.6734 -0.0096
 9641TIP3    H128859   4.490   2.212   6.954  0.1656  1.7068 -0.6418
 9641TIP3    H228860   4.394   2.242   6.841 -0.1508 -0.0922 -0.8704
 9642TIP3   OH228861   4.099   2.855   6.704 -0.1097 -0.3429 -0.0848
 9642TIP3    H128862   4.099   2.760   6.721 -0.3417 -0.7834 -2.4673
 9642TIP3    H228863   4.043   2.866   6.627  1.0939  1.5741 -0.7189
 9643TIP3   OH228864   3.267   7.495   5.558 -0.3440  0.6652  0.3689
 9643TIP3    H128865   3.295   7.500   5.466 -1.0420  0.2652  0.1334
 9643TIP3    H228866   3.176   7.524   5.557 -0.6040 -0.1207  0.8192
 9644TIP3   OH228867   2.718   5.679   1.480  1.0550  0.1109 -0.3864
 9644TIP3    H128868   2.636   5.726   1.462  0.9670  0.0048 -0.2679
 9644TIP3    H228869   2.731   5.623   1.404 -0.8504 -2.5102  1.1209
 9645TIP3   OH228870   1.773   0.873   6.324  0.7597  1.3992  0.0933
 9645TIP3    H128871   1.838   0.895   6.391  0.1782  0.7348  0.8907
 9645TIP3    H228872   1.691   0.910   6.357  0.1809 -0.1440  0.4542
 9646TIP3   OH228873   3.513   1.358   6.456 -0.0596 -0.5513 -0.0288
 9646TIP3    H128874   3.554   1.399   6.532  0.6794  0.7579 -1.1053
 9646TIP3    H228875   3.420   1.352   6.478 -0.3517  2.6134 -0.2354
 9647TIP3   OH228876   4.905   0.973   5.452 -0.4577 -0.3581  0.0836
 9647TIP3    H128877   4.918   0.898   5.394  0.2439  0.2022 -0.4943
 9647TIP3    H228878   4.872   1.043   5.395  0.5394  0.2930  0.2860
 9648TIP3   OH228879   5.263   6.262   2.230 -0.4788  0.0361 -0.3805
 9648TIP3    H128880   5.178   6.301   2.211 -0.0145  0.6179 -1.3005
 9648TIP3    H228881   5.249   6.168   2.217 -1.3047 -0.0111  0.7355
 9649TIP3   OH228882   4.505   2.189   6.318 -0.3726  0.1159 -0.1608
 9649TIP3    H128883   4.430   2.220   6.268 -0.6135 -1.2336 -0.6632
 9649TIP3    H228884   4.477   2.194   6.410  0.4437  3.5805 -0.0564
 9650TIP3   OH228885   6.592   4.958   1.674  0.0713 -0.3049  0.9411
 9650TIP3    H128886   6.568   4.923   1.760  0.0362 -1.3418  0.5184
 9650TIP3    H228887   6.518   4.936   1.618 -0.3000  1.1602  0.8437
 9651TIP3   OH228888   3.016   2.733   5.963 -0.5542 -0.0494  0.1268
 9651TIP3    H128889   2.928   2.697   5.956 -0.3786 -0.2876 -0.8700
 9651TIP3    H228890   3.026   2.790   5.887  0.0541  0.1855  0.3762
 9652TIP3   OH228891   3.741   3.473   6.450 -0.4716 -0.3759  0.3733
 9652TIP3    H128892   3.769   3.390   6.413 -0.8353 -0.7941  1.0183
 9652TIP3    H228893   3.664   3.451   6.503 -0.9418  0.4635  0.0566
 9653TIP3   OH228894   4.269   4.080   0.896  0.1559 -0.3907 -0.3546
 9653TIP3    H128895   4.287   4.108   0.806  2.7846 -0.7510  0.0287
 9653TIP3    H228896   4.287   4.157   0.950  0.1992 -0.6687  0.0292
 9654TIP3   OH228897   3.164   7.033   6.768  0.5523 -0.3147  0.0798
 9654TIP3    H128898   3.132   7.123   6.775  0.3014 -0.3557 -0.5066
 9654TIP3    H228899   3.237   7.028   6.830  0.2636  0.1571  0.4586
 9655TIP3   OH228900   6.048   6.096   1.087  0.5063  0.5595  0.1636
 9655TIP3    H128901   6.084   6.028   1.145  1.1074  0.1768 -0.6436
 9655TIP3    H228902   5.956   6.072   1.076  0.2944  0.8502  1.2682
 9656TIP3   OH228903   4.007   0.815   4.825  0.2394 -0.1942  0.0813
 9656TIP3    H128904   4.053   0.890   4.864 -0.5475  0.8697 -0.9803
 9656TIP3    H228905   4.063   0.788   4.752 -0.4914  0.7258 -0.8448
 9657TIP3   OH228906   4.034   1.555   6.129  0.3542 -0.0072  0.3300
 9657TIP3    H128907   4.113   1.593   6.167 -1.5305  1.5056  2.9569
 9657TIP3    H228908   3.996   1.626   6.076  1.4858 -1.2115 -2.1855
 9658TIP3   OH228909   6.083   3.543   1.445 -0.2249 -0.5687 -0.5244
 9658TIP3    H128910   6.094   3.448   1.455 -3.3550 -0.7939  1.7075
 9658TIP3    H228911   6.006   3.551   1.388 -0.8345  0.5869  0.4436
 9659TIP3   OH228912   4.296   1.714   5.701 -0.0972  0.0109  0.0688
 9659TIP3    H128913   4.210   1.741   5.734 -0.1793  0.3490 -0.4103
 9659TIP3    H228914   4.331   1.793   5.659  0.2336 -0.2656 -0.1740
 9660TIP3   OH228915   3.252   1.803   4.521 -0.5638  0.5587  0.0022
 9660TIP3    H128916   3.319   1.870   4.510  1.5989 -1.5940 -0.1637
 9660TIP3    H228917   3.213   1.822   4.606  0.0067  2.0163 -0.0419
 9661TIP3   OH228918   4.361   0.285   6.041  0.5695 -0.4570 -0.3692
 9661TIP3    H128919   4.306   0.295   5.963 -0.1850 -2.2118 -0.0773
 9661TIP3    H228920   4.448   0.264   6.006  0.5068 -0.0320 -0.7748
 9662TIP3   OH228921   6.495   4.619   1.422 -0.3144 -0.4831  0.1887
 9662TIP3    H128922   6.561   4.580   1.363  1.3360 -1.0655  2.3393
 9662TIP3    H228923   6.474   4.703   1.382  1.7855 -0.2693 -0.5557
 9663TIP3   OH228924   2.005   1.955   6.514  0.3416  0.1436  0.4771
 9663TIP3    H128925   1.963   1.886   6.566  0.5129  1.1893  2.0300
 9663TIP3    H228926   2.079   1.911   6.472  0.6724 -0.5452  1.7500
 9664TIP3   OH228927   6.377   4.861   0.331 -0.5504 -0.2862  0.1167
 9664TIP3    H128928   6.355   4.768   0.338 -0.7802 -0.2157  0.3353
 9664TIP3    H228929   6.317   4.905   0.391 -1.0493  0.1014 -0.6515
 9665TIP3   OH228930   4.093   1.733   3.701  0.7692  0.5146 -0.3965
 9665TIP3    H128931   4.130   1.645   3.710  0.7590  0.6122  0.6568
 9665TIP3    H228932   4.078   1.743   3.607  1.8068 -0.1916 -0.6488
 9666TIP3   OH228933   4.118   4.960   3.547  0.1033 -0.4341  0.2241
 9666TIP3    H128934   4.188   4.896   3.533  0.1430 -0.5956  1.1055
 9666TIP3    H228935   4.149   5.040   3.506  0.4759 -0.7158 -0.0410
 9667TIP3   OH228936   4.496   2.485   6.516 -0.3344  0.0980  1.1357
 9667TIP3    H128937   4.478   2.495   6.609  1.3927  0.6120  1.4342
 9667TIP3    H228938   4.412   2.502   6.473 -1.1944 -0.3681  2.5936
 9668TIP3   OH228939   3.281   3.190   6.042 -0.3354 -0.3554  0.1567
 9668TIP3    H128940   3.224   3.266   6.030  0.8236  0.7691  1.5798
 9668TIP3    H228941   3.358   3.209   5.988 -0.1233 -0.6115  0.3690
 9669TIP3   OH228942   1.749   1.222   5.101  0.1706 -0.2968  0.7349
 9669TIP3    H128943   1.686   1.251   5.167  0.5706 -0.2320  1.0956
 9669TIP3    H228944   1.696   1.199   5.025 -0.3053 -0.4817  1.1183
 9670TIP3   OH228945   2.990   1.464   6.725  0.6484 -0.0667  0.1839
 9670TIP3    H128946   3.045   1.413   6.785 -0.2877 -0.6499  0.5692
 9670TIP3    H228947   2.931   1.399   6.687 -0.8733  0.8017  1.0292
 9671TIP3   OH228948   1.686   1.040   5.984 -0.1680  0.1450 -0.4968
 9671TIP3    H128949   1.621   0.984   6.026 -1.6806  2.9298  1.0421
 9671TIP3    H228950   1.768   0.991   5.991 -1.3001 -1.5286  1.5218
 9672TIP3   OH228951   4.612   2.858   6.406 -0.1192 -0.3668 -0.3379
 9672TIP3    H128952   4.608   2.862   6.501  2.7640 -0.4799 -0.1706
 9672TIP3    H228953   4.643   2.769   6.387 -0.8747 -0.4160 -1.4054
 9673TIP3   OH228954   7.973   5.841   2.243  0.2985  0.1461 -0.1688
 9673TIP3    H128955   7.979   5.851   2.338  0.0525 -2.9574  0.2446
 9673TIP3    H228956   8.062   5.856   2.212  0.6272  0.0178  0.6934
 9674TIP3   OH228957   5.331   5.527   0.934  0.5661 -0.0229  0.1051
 9674TIP3    H128958   5.370   5.524   1.022  1.0343 -1.4294 -0.1379
 9674TIP3    H228959   5.402   5.501   0.876 -0.3278 -1.1303 -0.4902
 9675TIP3   OH228960   2.558   2.189   4.504  0.4322 -0.2791 -0.3469
 9675TIP3    H128961   2.646   2.194   4.465  0.6660 -1.6463 -0.0301
 9675TIP3    H228962   2.545   2.095   4.520 -0.6664  0.0302  0.5752
 9676TIP3   OH228963   4.904   2.161   4.851 -0.3911  0.0930  0.0249
 9676TIP3    H128964   4.979   2.108   4.878 -0.8112 -0.3391  0.3449
 9676TIP3    H228965   4.836   2.142   4.916 -1.2704 -0.6381 -1.0884
 9677TIP3   OH228966   3.664   2.018   6.093  0.0912 -0.2278  0.2240
 9677TIP3    H128967   3.610   1.978   6.160 -1.2273  1.5068  0.2306
 9677TIP3    H228968   3.602   2.044   6.024  1.1561 -0.0271 -0.6845
 9678TIP3   OH228969   7.853   5.561   1.089  0.0930  0.4236 -0.1505
 9678TIP3    H128970   7.904   5.642   1.089  0.6742  0.0581 -0.2307
 9678TIP3    H228971   7.908   5.498   1.042  0.0403 -0.2698  0.6991
 9679TIP3   OH228972   3.948   1.855   5.566  0.2403  0.2212  0.4580
 9679TIP3    H128973   3.878   1.882   5.624  0.8577  1.8015  0.4765
 9679TIP3    H228974   3.913   1.779   5.520 -1.4588  0.9743  0.4975
 9680TIP3   OH228975   6.894   7.157   0.596  0.3585 -0.0148 -0.7444
 9680TIP3    H128976   6.976   7.109   0.584 -0.6652 -1.2311 -3.0186
 9680TIP3    H228977   6.889   7.216   0.521 -0.7533  0.2029 -0.5084
 9681TIP3   OH228978   6.497   3.655   0.369  0.1945 -0.0773 -0.4424
 9681TIP3    H128979   6.441   3.733   0.372  2.1976  1.4740 -1.4865
 9681TIP3    H228980   6.509   3.638   0.275 -1.6317 -2.7276 -0.2300
 9682TIP3   OH228981   6.659   4.156   0.538 -0.6767 -0.0914  0.6988
 9682TIP3    H128982   6.680   4.230   0.595 -0.9080  0.6938 -0.2279
 9682TIP3    H228983   6.728   4.155   0.472 -1.3419  0.0579 -0.0077
 9683TIP3   OH228984   5.875   4.360   1.936  0.4987  0.1247 -0.0674
 9683TIP3    H128985   5.874   4.291   1.869 -1.3635  0.5132 -0.4673
 9683TIP3    H228986   5.816   4.327   2.004 -2.0070  2.1951 -1.1845
 9684TIP3   OH228987   3.865   2.761   5.661 -0.0058  0.2287 -0.4207
 9684TIP3    H128988   3.879   2.723   5.748  0.8267  0.5854 -0.3917
 9684TIP3    H228989   3.945   2.811   5.644 -0.4210  0.6559 -1.1344
 9685TIP3   OH228990   5.132   3.400   1.107  0.4491 -0.3970 -0.2327
 9685TIP3    H128991   5.150   3.354   1.025  0.1569 -1.5908  0.3656
 9685TIP3    H228992   5.089   3.335   1.162  0.1669  0.5552  0.6790
 9686TIP3   OH228993   3.700   7.969   6.281 -0.0881 -0.7724 -0.0608
 9686TIP3    H128994   3.704   7.932   6.193 -0.9768 -1.4846  0.1949
 9686TIP3    H228995   3.611   7.950   6.311  0.0289 -0.0149  0.7636
 9687TIP3   OH228996   6.549   3.370   0.738  0.3428  0.0985 -0.3135
 9687TIP3    H128997   6.596   3.441   0.693  3.3728 -1.2803  0.5312
 9687TIP3    H228998   6.566   3.385   0.831 -0.3289 -0.8423 -0.0299
 9688TIP3   OH228999   4.411   1.516   6.467 -0.2126  0.0112 -0.5027
 9688TIP3    H129000   4.497   1.500   6.505 -0.6381 -1.7801 -0.2534
 9688TIP3    H229001   4.350   1.483   6.533 -1.0332 -0.6237 -1.5653
 9689TIP3   OH229002   5.797   3.766   1.516 -0.3800 -0.7969 -0.1796
 9689TIP3    H129003   5.765   3.794   1.430 -1.7404 -2.0817 -0.0950
 9689TIP3    H229004   5.799   3.671   1.511  0.8162 -0.8337  0.7736
 9690TIP3   OH229005   6.969   4.642   1.317  0.2373 -0.5322  0.6559
 9690TIP3    H129006   7.053   4.597   1.316 -0.1632 -1.3227  1.4886
 9690TIP3    H229007   6.935   4.627   1.405 -0.1551  0.9527  0.7780
 9691TIP3   OH229008   3.965   0.456   6.625  0.3310 -0.0028  0.6615
 9691TIP3    H129009   3.925   0.535   6.590  1.6404  0.0841 -0.6928
 9691TIP3    H229010   4.048   0.448   6.578  1.1705 -1.0398  2.2796
 9692TIP3   OH229011   6.415   5.055   1.258  0.4176  0.2425 -0.4003
 9692TIP3    H129012   6.489   5.097   1.303 -1.5981  3.4859  0.0097
 9692TIP3    H229013   6.354   5.034   1.329 -0.0293 -0.3960 -0.9796
 9693TIP3   OH229014   5.206   4.453   0.757 -0.5433  0.9200  0.5315
 9693TIP3    H129015   5.181   4.495   0.675  2.0197  2.6796  0.5598
 9693TIP3    H229016   5.210   4.360   0.736 -2.8152  1.0245 -0.5138
 9694TIP3   OH229017   5.958   7.020   2.002 -0.3537  0.3870  0.1109
 9694TIP3    H129018   5.875   6.983   2.032  0.6804 -0.3306  2.1434
 9694TIP3    H229019   6.021   6.948   2.008  0.4328  0.9130 -1.4334
 9695TIP3   OH229020   4.511   5.966   1.920  0.7634 -0.2293  0.4007
 9695TIP3    H129021   4.531   6.013   2.001  1.7738 -0.6615  0.4110
 9695TIP3    H229022   4.450   6.023   1.873  0.0107 -0.0685  1.5548
 9696TIP3   OH229023   5.338   6.276   3.591 -0.0460  0.1715  0.2910
 9696TIP3    H129024   5.375   6.188   3.604  1.3668  0.7641  0.4494
 9696TIP3    H229025   5.411   6.335   3.611 -0.8959  1.3710 -0.1187
 9697TIP3   OH229026   5.016   4.668   0.833  0.3040  0.3904  0.5137
 9697TIP3    H129027   4.944   4.617   0.796  1.2132 -0.5453  0.0053
 9697TIP3    H229028   5.087   4.658   0.770  0.8613  1.3507  0.9863
 9698TIP3   OH229029   3.815   5.815   2.872 -0.1391  0.3504 -0.0258
 9698TIP3    H129030   3.741   5.763   2.840  0.5131 -0.6520  0.0620
 9698TIP3    H229031   3.817   5.798   2.966 -0.0445  0.7042  0.0374
 9699TIP3   OH229032   3.659   1.169   6.781 -0.6309  0.3181 -0.1054
 9699TIP3    H129033   3.716   1.246   6.785  1.0381 -0.8669 -0.4652
 9699TIP3    H229034   3.571   1.203   6.796 -0.0251  2.4223 -1.1483
 9700TIP3   OH229035   3.896   0.061   6.703  0.2971 -0.2348 -0.3493
 9700TIP3    H129036   3.932  -0.027   6.720  1.6841  0.1607 -1.1945
 9700TIP3    H229037   3.871   0.093   6.789  0.6467 -1.0883  0.0808
 9701TIP3   OH229038   1.742   2.964   5.776 -0.0022  0.0259 -0.3224
 9701TIP3    H129039   1.676   2.894   5.783 -0.2259  0.2262 -0.4001
 9701TIP3    H229040   1.741   2.987   5.683 -0.1682  0.3592 -0.2392
 9702TIP3   OH229041   3.501   2.617   4.470 -0.8628  0.4873 -0.7447
 9702TIP3    H129042   3.414   2.610   4.510 -0.0044 -0.2704  1.0855
 9702TIP3    H229043   3.554   2.554   4.519  0.7222  0.9667 -1.8227
 9703TIP3   OH229044   1.715   0.627   5.916 -0.3414  0.3764  0.2611
 9703TIP3    H129045   1.737   0.696   5.979 -0.0056 -0.4298  1.0421
 9703TIP3    H229046   1.686   0.553   5.971 -2.4397  0.5003 -0.6206
 9704TIP3   OH229047   0.994   5.771   1.662 -0.0386  0.3068  0.0169
 9704TIP3    H129048   1.028   5.791   1.575 -0.5778 -1.2861 -0.5667
 9704TIP3    H229049   0.905   5.739   1.647  0.1356 -0.7213  1.0800
 9705TIP3   OH229050   7.137   5.093   0.651 -0.3894 -0.5105 -0.9013
 9705TIP3    H129051   7.149   5.184   0.680 -1.8017 -1.2620  2.1958
 9705TIP3    H229052   7.080   5.100   0.574 -0.1447  1.2288 -0.9529
 9706TIP3   OH229053   1.513   4.396   1.877 -0.1758 -0.2599 -0.0550
 9706TIP3    H129054   1.459   4.410   1.799 -0.0705  0.5266  0.0010
 9706TIP3    H229055   1.490   4.309   1.908 -1.3177  0.0097 -0.1194
 9707TIP3   OH229056   6.067   3.774   1.021  0.5548 -0.7242 -0.3653
 9707TIP3    H129057   5.980   3.803   0.996  0.5832 -1.0903 -0.9026
 9707TIP3    H229058   6.089   3.707   0.957  1.7570  0.2839 -1.0307
 9708TIP3   OH229059   6.042   0.710   6.654  0.1160 -0.8073  0.2148
 9708TIP3    H129060   5.952   0.740   6.665 -0.2639 -1.9127  0.1713
 9708TIP3    H229061   6.087   0.784   6.614 -0.8593 -0.3772 -0.0997
 9709TIP3   OH229062   8.031   0.872   5.629 -0.1155 -0.0101 -0.3904
 9709TIP3    H129063   8.106   0.892   5.574  1.0739 -0.5541  0.9805
 9709TIP3    H229064   7.998   0.789   5.594 -1.1636  1.0857 -2.0766
 9710TIP3   OH229065   2.769   1.828   6.370  0.1426 -0.0647  0.0923
 9710TIP3    H129066   2.849   1.779   6.355  0.0680  0.3369 -1.7060
 9710TIP3    H229067   2.783   1.911   6.326 -1.7605 -0.5026 -1.4140
 9711TIP3   OH229068   7.395   6.485   0.146 -0.1931 -0.0989  0.9049
 9711TIP3    H129069   7.301   6.486   0.162 -0.0019  0.4154  2.0144
 9711TIP3    H229070   7.425   6.400   0.179 -0.2301 -0.1788  0.7369
 9712TIP3   OH229071   7.193   1.765   6.541 -0.0780  0.2497 -0.3422
 9712TIP3    H129072   7.264   1.824   6.518 -0.0397  0.8615  1.2385
 9712TIP3    H229073   7.229   1.678   6.529  0.3478  0.5556 -1.2894
 9713TIP3   OH229074   6.104   0.714   6.315 -0.4580  0.0560 -0.6005
 9713TIP3    H129075   6.095   0.668   6.399 -0.8293  0.6105 -0.3390
 9713TIP3    H229076   6.015   0.719   6.280 -0.3260 -0.0253 -0.9543
 9714TIP3   OH229077   4.734   3.191   5.831 -0.1945 -0.6279  0.0393
 9714TIP3    H129078   4.801   3.245   5.873  0.8609 -1.9661  0.0847
 9714TIP3    H229079   4.714   3.122   5.894 -1.5253 -0.3283 -0.0270
 9715TIP3   OH229080   5.985   4.777   1.772 -0.4059  0.0240  0.0210
 9715TIP3    H129081   5.899   4.789   1.812  0.4175  0.8629  1.5771
 9715TIP3    H229082   6.017   4.693   1.805 -1.0900 -0.8170 -1.4341
 9716TIP3   OH229083   4.307   0.995   3.926  0.1916 -0.0078  0.2764
 9716TIP3    H129084   4.285   1.034   3.841 -1.3909  1.6832  1.4200
 9716TIP3    H229085   4.402   1.003   3.932  0.2726  0.2601 -1.1354
 9717TIP3   OH229086   0.755   2.834   1.267  0.1825 -0.5873  0.5684
 9717TIP3    H129087   0.743   2.829   1.362  4.0105 -0.3335  1.1269
 9717TIP3    H229088   0.702   2.762   1.232 -2.8669  0.5281  2.6860
 9718TIP3   OH229089   7.423   6.108   0.460 -0.2231 -0.5822  0.7675
 9718TIP3    H129090   7.345   6.120   0.515 -0.5206  0.4438  0.1496
 9718TIP3    H229091   7.490   6.076   0.520 -0.4401  0.8624  1.8140
 9719TIP3   OH229092   2.393   4.273   1.842 -0.1100  0.1406  0.0615
 9719TIP3    H129093   2.386   4.321   1.760  0.2643 -0.3995 -0.2910
 9719TIP3    H229094   2.412   4.183   1.816 -1.7017 -0.3912  0.6913
 9720TIP3   OH229095   0.624   4.709   1.621 -0.0583  0.5057  0.2568
 9720TIP3    H129096   0.554   4.644   1.629 -0.1582  0.2958 -2.0070
 9720TIP3    H229097   0.688   4.684   1.687  1.0794 -3.4021 -2.2034
 9721TIP3   OH229098   7.875   2.641   4.627  0.2604 -0.2361 -0.5952
 9721TIP3    H129099   7.956   2.630   4.577  1.2803  2.2896  0.4320
 9721TIP3    H229100   7.894   2.712   4.688 -3.8291  2.9108 -2.7529
 9722TIP3   OH229101   6.475   4.350   1.118  0.1212  0.7652 -0.7029
 9722TIP3    H129102   6.438   4.409   1.052 -0.6606  0.7991 -0.2422
 9722TIP3    H229103   6.399   4.320   1.168  0.3487 -1.6685 -1.7620
 9723TIP3   OH229104   7.422   5.099   0.073 -0.4313  0.6666 -0.3003
 9723TIP3    H129105   7.498   5.147   0.040  0.8416 -0.6411  0.6596
 9723TIP3    H229106   7.375   5.071  -0.006  1.3270 -0.4566 -0.9828
 9724TIP3   OH229107   4.849   0.917   6.784 -0.1757  0.0823  0.1614
 9724TIP3    H129108   4.789   0.874   6.722  1.3750  0.2422 -1.5023
 9724TIP3    H229109   4.798   0.926   6.865 -1.9086 -1.0751 -0.7703
 9725TIP3   OH229110   4.980   1.858   5.166  0.1929  0.4163 -0.4464
 9725TIP3    H129111   4.884   1.852   5.164  0.0747  1.9205 -0.0493
 9725TIP3    H229112   5.009   1.802   5.094 -1.0705  1.2303 -1.6283
 9726TIP3   OH229113   6.260   1.585   5.278  0.0680  0.5321 -0.6263
 9726TIP3    H129114   6.338   1.614   5.325  0.2410  0.8487 -1.1124
 9726TIP3    H229115   6.200   1.555   5.347 -0.1751  2.1547 -0.1037
 9727TIP3   OH229116   2.933   3.112   1.582 -0.0825 -0.8234  0.3353
 9727TIP3    H129117   3.017   3.130   1.539 -0.2131 -2.1258 -0.4758
 9727TIP3    H229118   2.909   3.196   1.623  0.4852  0.2114 -1.3658
 9728TIP3   OH229119   8.348   4.021   0.217 -0.0514 -0.2314 -0.7188
 9728TIP3    H129120   8.316   3.964   0.286  2.7786 -2.6972 -1.3396
 9728TIP3    H229121   8.277   4.023   0.153 -1.4505 -0.4368  0.7955
 9729TIP3   OH229122   5.993   1.507   5.364 -0.4382 -0.7286  0.2749
 9729TIP3    H129123   5.960   1.531   5.278 -0.7743  1.0380  0.8767
 9729TIP3    H229124   5.918   1.521   5.423  0.9573  2.0011  1.4475
 9730TIP3   OH229125   6.934   1.979   6.236 -0.2451 -0.0064  0.3340
 9730TIP3    H129126   6.928   1.886   6.215 -5.3543  0.0573  0.8862
 9730TIP3    H229127   6.935   1.982   6.332 -0.0441  0.4956  0.3179
 9731TIP3   OH229128   2.742   4.977   1.675 -0.3038 -0.0902  0.1577
 9731TIP3    H129129   2.801   5.009   1.744  1.7329 -1.2400 -0.9779
 9731TIP3    H229130   2.733   4.883   1.693 -0.2108 -0.2896 -0.8032
 9732TIP3   OH229131   4.489   0.539   6.053  0.2716 -0.2417 -0.3520
 9732TIP3    H129132   4.548   0.470   6.021  0.0583 -1.2776  1.4490
 9732TIP3    H229133   4.401   0.503   6.041  0.2268 -1.5062  3.1907
 9733TIP3   OH229134   0.579   5.999   1.634 -0.5844  0.7612  0.7142
 9733TIP3    H129135   0.578   6.088   1.669  0.6803  0.3081  1.9648
 9733TIP3    H229136   0.671   5.983   1.613 -0.5580 -0.7839  1.9200
 9734TIP3   OH229137   5.535   0.377   6.403  0.0966 -0.0327 -0.2121
 9734TIP3    H129138   5.499   0.450   6.352  1.8787  0.7252 -0.4319
 9734TIP3    H229139   5.491   0.383   6.488 -1.2400  0.0682 -0.9002
 9735TIP3   OH229140   0.030   5.189   0.004  0.2540 -0.8367 -0.1502
 9735TIP3    H129141   0.005   5.278  -0.023  1.8378  0.8361  3.6157
 9735TIP3    H229142  -0.021   5.173   0.083  1.5225 -2.4611  0.3482
 9736TIP3   OH229143   5.711   1.398   6.353 -0.0486  0.1395  0.4484
 9736TIP3    H129144   5.750   1.337   6.416 -1.3075 -0.2931  0.8253
 9736TIP3    H229145   5.776   1.405   6.283  1.1499  0.2287  1.5494
 9737TIP3   OH229146   7.637   5.772   0.780  0.1712 -0.2420 -0.2134
 9737TIP3    H129147   7.605   5.808   0.863 -0.3009 -0.6244 -0.2364
 9737TIP3    H229148   7.727   5.805   0.774 -0.0988  0.5424  0.0052
 9738TIP3   OH229149   5.016   1.156   3.344  0.3128 -0.0392 -0.4430
 9738TIP3    H129150   5.043   1.182   3.432  1.2344  0.6301 -0.9246
 9738TIP3    H229151   5.079   1.089   3.318 -1.5356 -2.2097  0.4498
 9739TIP3   OH229152   5.770   2.707   5.864  0.2747  0.1326  0.0974
 9739TIP3    H129153   5.842   2.648   5.888 -0.6557 -0.7312  0.7730
 9739TIP3    H229154   5.692   2.653   5.868 -0.5653  1.3604  0.5239
 9740TIP3   OH229155   7.674   5.671   2.330 -0.5181 -0.4876 -0.1452
 9740TIP3    H129156   7.735   5.744   2.336 -0.5151 -0.5072  0.0461
 9740TIP3    H229157   7.689   5.635   2.242  0.3792 -1.0533  0.2368
 9741TIP3   OH229158   0.580   4.839   1.380  0.3092 -0.2180  0.2498
 9741TIP3    H129159   0.597   4.760   1.330 -0.1085 -1.1917  1.6236
 9741TIP3    H229160   0.578   4.810   1.472 -2.6391  0.8792  0.5772
 9742TIP3   OH229161   6.743   1.522   0.323 -0.4107 -0.5494 -0.5991
 9742TIP3    H129162   6.785   1.608   0.328  0.9346 -1.2556  0.6705
 9742TIP3    H229163   6.813   1.462   0.299 -0.3154 -1.9559  2.8284
 9743TIP3   OH229164   6.171   0.932   6.537 -0.3741  0.0498  0.0822
 9743TIP3    H129165   6.232   0.878   6.487 -1.7037 -0.6984 -0.7908
 9743TIP3    H229166   6.208   0.937   6.625  1.0285 -0.2201 -0.4889
 9744TIP3   OH229167   5.426   6.933   1.613 -0.3202 -0.1696 -0.2177
 9744TIP3    H129168   5.476   6.960   1.536 -0.4493 -0.5724 -0.4434
 9744TIP3    H229169   5.379   6.854   1.585 -0.4217 -0.2778  0.2521
 9745TIP3   OH229170   5.705   5.528   0.247  0.3847  0.2037  0.2760
 9745TIP3    H129171   5.641   5.537   0.318 -0.6600  0.9958 -0.7656
 9745TIP3    H229172   5.665   5.571   0.172  1.9064  0.2247 -0.5461
 9746TIP3   OH229173   8.253   5.191   0.988 -0.0153  0.2514  1.0103
 9746TIP3    H129174   8.309   5.159   0.918  0.6242  0.8816  1.2302
 9746TIP3    H229175   8.265   5.128   1.059  1.2006  0.9098  1.4217
 9747TIP3   OH229176   5.943   1.923   6.782  0.4438 -1.1373 -0.2451
 9747TIP3    H129177   5.939   1.871   6.862  0.8796 -0.5475  0.1506
 9747TIP3    H229178   5.985   1.865   6.718  2.8161 -0.5385  0.7546
 9748TIP3   OH229179   3.661   0.689   5.134  1.2022 -0.7310  0.4295
 9748TIP3    H129180   3.623   0.708   5.219 -1.2275 -4.2580  0.2330
 9748TIP3    H229181   3.601   0.731   5.071  1.8573  0.1255  0.3693
 9749TIP3   OH229182   6.982   2.510   6.260 -0.0039 -0.2485 -0.0932
 9749TIP3    H129183   6.887   2.509   6.266  0.0271  1.7857  1.1242
 9749TIP3    H229184   7.002   2.450   6.188 -2.2391  0.0583 -1.0105
 9750TIP3   OH229185   6.705   2.499   4.442 -0.4917  0.2854  0.0175
 9750TIP3    H129186   6.656   2.428   4.484  3.8671 -0.7784  3.6561
 9750TIP3    H229187   6.693   2.575   4.499 -0.4754  0.8872 -0.7707
 9751TIP3   OH229188   7.503   6.987   0.685 -0.0940  0.0916 -0.2177
 9751TIP3    H129189   7.414   6.995   0.720 -0.3521 -0.2290 -0.7847
 9751TIP3    H229190   7.492   6.940   0.602  0.6796 -0.5836  0.0507
 9752TIP3   OH229191   8.279   6.467   0.391 -0.0929  0.0626  0.2973
 9752TIP3    H129192   8.335   6.532   0.433  0.3525  0.1569 -0.4348
 9752TIP3    H229193   8.303   6.385   0.434  1.4701 -0.0941 -0.8421
 9753TIP3   OH229194   8.464   5.719   0.026 -0.0194  0.5934 -0.6070
 9753TIP3    H129195   8.424   5.745   0.110 -0.7147 -0.2299 -0.6754
 9753TIP3    H229196   8.557   5.735   0.038 -0.3514  2.5036 -0.4212
 9754TIP3   OH229197   8.029   3.626   1.049  0.0376  0.1394 -0.3809
 9754TIP3    H129198   8.063   3.589   1.130  0.9235  1.1157 -0.3088
 9754TIP3    H229199   8.073   3.710   1.040  1.6835 -0.9174 -3.0249
 9755TIP3   OH229200   0.000   3.854   0.497 -0.1905  0.2315  0.3660
 9755TIP3    H129201   0.044   3.771   0.475  0.7020  1.0259 -0.9613
 9755TIP3    H229202   0.072   3.916   0.512 -0.8478  0.6847  1.7221
 9756TIP3   OH229203   8.458   3.369   1.207  0.0046  0.2075 -0.0019
 9756TIP3    H129204   8.544   3.376   1.249 -1.4924  1.3135  2.9790
 9756TIP3    H229205   8.460   3.436   1.138  1.3750  0.5067  0.3061
 9757TIP3   OH229206   7.429   0.872   6.620  0.1567 -0.0523 -0.1693
 9757TIP3    H129207   7.402   0.886   6.529  2.6780 -0.1882 -0.9792
 9757TIP3    H229208   7.454   0.959   6.651  0.9582 -0.2788 -0.1724
 9758TIP3   OH229209   7.025   4.367   1.735  0.1366  0.2185  0.3652
 9758TIP3    H129210   7.075   4.326   1.805  0.2671 -1.4613 -0.6834
 9758TIP3    H229211   6.934   4.342   1.752 -0.0159  0.9860  0.7172
 9759TIP3   OH229212   5.436   0.732   5.392  0.3339  0.3142 -0.2672
 9759TIP3    H129213   5.519   0.721   5.344  0.8650  0.6482  0.5714
 9759TIP3    H229214   5.403   0.817   5.364  0.1228  0.0469 -0.8335
 9760TIP3   OH229215   0.193   3.677   1.620  0.0333 -0.1569 -0.0650
 9760TIP3    H129216   0.192   3.700   1.713  1.2570  1.6449 -0.4755
 9760TIP3    H229217   0.268   3.618   1.611  1.6732  1.9344 -0.3999
 9761TIP3   OH229218   7.906   4.716   0.530  0.1988  0.4609  0.0211
 9761TIP3    H129219   7.972   4.647   0.531  1.4965  1.6405 -1.2638
 9761TIP3    H229220   7.830   4.676   0.488  0.9226 -0.2036 -0.6797
 9762TIP3   OH229221   6.758   4.169   0.935 -0.1717 -0.2625 -0.0706
 9762TIP3    H129222   6.845   4.152   0.970  0.0026  1.6741  0.5008
 9762TIP3    H229223   6.698   4.149   1.007  0.0392  1.5215  0.6326
 9763TIP3   OH229224   0.191   4.265   0.445 -0.3313 -0.4866 -0.1029
 9763TIP3    H129225   0.163   4.301   0.361  1.0531  0.1308 -0.3168
 9763TIP3    H229226   0.277   4.303   0.459  0.5107 -2.5379  0.4090
 9764TIP3   OH229227   5.092   1.895   4.500 -0.0058  0.2790 -0.3371
 9764TIP3    H129228   5.054   1.845   4.572 -0.6782  0.5360 -0.5174
 9764TIP3    H229229   5.026   1.960   4.478  0.6305  0.8800 -0.4863
 9765TIP3   OH229230   5.126   2.134   6.833  0.2478 -0.3948 -0.2034
 9765TIP3    H129231   5.216   2.127   6.865  0.6847  0.2389 -1.2633
 9765TIP3    H229232   5.122   2.219   6.790 -0.0799 -1.5381 -2.5177
 9766TIP3   OH229233   8.037   6.369   2.480  0.3707 -0.3217  0.5974
 9766TIP3    H129234   7.942   6.379   2.466  0.3932  0.5347  1.0606
 9766TIP3    H229235   8.076   6.437   2.426  0.6897 -0.1862  1.0018
 9767TIP3   OH229236   1.226   7.606   6.704 -0.6822 -0.5987 -0.4825
 9767TIP3    H129237   1.189   7.636   6.787  1.8369  0.4581  0.2974
 9767TIP3    H229238   1.183   7.661   6.638 -0.9210  0.2154  0.3452
 9768TIP3   OH229239   3.817   1.262   6.468 -0.0694  0.3590  0.3096
 9768TIP3    H129240   3.844   1.171   6.481 -0.6459  0.4419  2.2994
 9768TIP3    H229241   3.728   1.256   6.435 -0.1110  0.1852  0.4492
 9769TIP3   OH229242   3.783   3.846   1.995 -0.0732  0.0480 -0.1584
 9769TIP3    H129243   3.745   3.913   2.051 -0.7362 -1.8170  1.6695
 9769TIP3    H229244   3.865   3.822   2.039  0.0272 -0.5355 -0.6603
 9770TIP3   OH229245   4.243   0.856   6.808 -0.1721  0.4492 -0.4758
 9770TIP3    H129246   4.196   0.775   6.786  0.5602  0.0097 -0.4395
 9770TIP3    H229247   4.248   0.855   6.903 -0.3313  0.6320 -0.4666
 9771TIP3   OH229248   1.158   6.314   1.947  0.1836  0.4516  0.4547
 9771TIP3    H129249   1.075   6.281   1.981  0.5374  0.2534  1.1311
 9771TIP3    H229250   1.134   6.359   1.866 -0.7551  1.4927  1.2932
 9772TIP3   OH229251   0.329   4.838   0.592  0.7805 -0.2348 -0.6184
 9772TIP3    H129252   0.317   4.931   0.612  3.8983  0.4460 -1.6242
 9772TIP3    H229253   0.377   4.804   0.667  1.4117 -0.5736 -1.1763
 9773TIP3   OH229254   2.162   7.377   5.457 -0.0157 -0.1127  0.3868
 9773TIP3    H129255   2.207   7.352   5.537 -0.2035 -0.7661  0.2908
 9773TIP3    H229256   2.098   7.307   5.442  0.7069 -0.5221 -0.8696
 9774TIP3   OH229257   0.239   5.754   0.065  0.5777  0.3656  0.0395
 9774TIP3    H129258   0.308   5.692   0.041  0.8120  0.2871  0.9023
 9774TIP3    H229259   0.266   5.789   0.149 -0.4427  0.3320  0.3938
 9775TIP3   OH229260   5.828   5.505   2.541  0.7836  0.3386  0.0294
 9775TIP3    H129261   5.872   5.508   2.626  1.4306  3.4580 -0.3606
 9775TIP3    H229262   5.898   5.519   2.477 -0.6031  5.3545 -0.6023
 9776TIP3   OH229263   0.469   4.481   0.107 -0.1577 -0.0587 -0.2695
 9776TIP3    H129264   0.522   4.505   0.031 -0.2055  1.4331  0.1633
 9776TIP3    H229265   0.408   4.415   0.073  1.9838 -1.8878 -0.7613
 9777TIP3   OH229266   4.891   2.681   6.683 -0.0199  0.8660 -0.4613
 9777TIP3    H129267   4.927   2.737   6.752 -0.5288 -0.3594  0.8404
 9777TIP3    H229268   4.825   2.628   6.727 -0.9317  0.6106 -2.0843
 9778TIP3   OH229269   2.871   7.378   4.620 -0.0094 -0.1401  0.0398
 9778TIP3    H129270   2.814   7.435   4.672 -0.2971 -0.8319  0.4978
 9778TIP3    H229271   2.826   7.293   4.621  0.1508 -0.2400 -1.0740
 9779TIP3   OH229272   1.774   4.363   2.563 -0.3715  0.7392  0.0135
 9779TIP3    H129273   1.727   4.377   2.645 -0.9126 -2.6919  0.3741
 9779TIP3    H229274   1.712   4.391   2.495 -0.9474  1.0810  0.6673
 9780TIP3   OH229275   1.902   4.463   0.654  0.5515  0.4104 -0.2860
 9780TIP3    H129276   1.850   4.486   0.731 -0.1685  4.0708 -1.7609
 9780TIP3    H229277   1.985   4.508   0.666  1.1595 -0.5576 -0.7691
 9781TIP3   OH229278   4.782   6.481   6.351  0.4697  0.6466  0.2793
 9781TIP3    H129279   4.853   6.422   6.376  0.5860  1.4904  2.0136
 9781TIP3    H229280   4.825   6.551   6.302  0.5716  0.2408 -0.2230
 9782TIP3   OH229281   5.562   1.078   5.681  0.0308 -0.0184 -0.0021
 9782TIP3    H129282   5.633   1.102   5.740 -0.6344 -0.2207  0.8974
 9782TIP3    H229283   5.563   0.983   5.678  0.0193 -0.0103 -0.2557
 9783TIP3   OH229284   4.366   2.944   6.798  0.3267 -0.4804  0.8615
 9783TIP3    H129285   4.289   2.912   6.751  1.1962 -0.6955 -0.4250
 9783TIP3    H229286   4.440   2.915   6.745  1.2638  0.4137  1.6754
 9784TIP3   OH229287   5.113   3.885   6.447  0.4680 -0.4351  0.0006
 9784TIP3    H129288   5.175   3.896   6.519 -0.4089 -0.1841  0.7320
 9784TIP3    H229289   5.163   3.904   6.368  1.0205  0.9104  0.6626
 9785TIP3   OH229290   4.499   7.833   0.029  0.3390  0.2086 -0.1062
 9785TIP3    H129291   4.415   7.866   0.061  0.6865  0.1803  0.8554
 9785TIP3    H229292   4.538   7.789   0.105  1.5889  0.9314 -0.3056
 9786TIP3   OH229293   4.687   2.529   5.230 -0.2428  0.1256 -0.2006
 9786TIP3    H129294   4.636   2.588   5.286 -0.4284  0.7134 -0.9815
 9786TIP3    H229295   4.637   2.524   5.148  1.0227  0.8231 -1.0291
 9787TIP3   OH229296   0.281   6.090   0.208  0.8705  0.3590 -0.1788
 9787TIP3    H129297   0.270   6.147   0.284 -0.1511  0.5864 -0.4856
 9787TIP3    H229298   0.226   6.014   0.227 -0.1825  0.8636 -1.1128
 9788TIP3   OH229299   0.737   5.134   2.179 -0.8128  0.6717 -0.5795
 9788TIP3    H129300   0.817   5.159   2.225 -0.1091 -1.6857 -0.4572
 9788TIP3    H229301   0.767   5.097   2.096 -1.5165 -3.2137  0.7991
 9789TIP3   OH229302   4.108   1.680   5.296 -0.5330  0.7936  0.4848
 9789TIP3    H129303   4.129   1.762   5.341 -1.1814  1.8502 -1.0966
 9789TIP3    H229304   4.126   1.698   5.204 -1.7581 -0.5005 -0.0242
 9790TIP3   OH229305   7.406   4.102   0.622 -0.0935  0.0319  0.1374
 9790TIP3    H129306   7.485   4.126   0.575  1.1374 -1.6469  1.2939
 9790TIP3    H229307   7.367   4.186   0.648  1.5951  0.8597  0.0466
 9791TIP3   OH229308   6.107   2.645   6.625  0.2455 -0.2770  0.4041
 9791TIP3    H129309   6.188   2.696   6.627 -0.0160  0.0795  1.8117
 9791TIP3    H229310   6.115   2.585   6.699  0.7284 -2.5891 -1.4150
 9792TIP3   OH229311   8.152   0.578   6.917  0.6483  0.7667  0.2432
 9792TIP3    H129312   8.089   0.548   6.982  0.5201  0.9438  0.2008
 9792TIP3    H229313   8.121   0.665   6.891  0.6136  0.6335 -0.1629
 9793TIP3   OH229314   1.703   7.289   5.491  0.0022  0.0863  0.4742
 9793TIP3    H129315   1.644   7.215   5.474  0.5736 -0.4349  0.7559
 9793TIP3    H229316   1.669   7.359   5.436 -0.8147 -0.2516  0.5418
 9794TIP3   OH229317   3.664   1.371   4.470 -0.1706  0.1673 -0.1711
 9794TIP3    H129318   3.570   1.382   4.455 -1.0245 -3.2316  2.1369
 9794TIP3    H229319   3.693   1.312   4.400  0.4155  1.6758 -1.2308
 9795TIP3   OH229320   3.237   0.345   4.614 -0.7462  0.3139  0.3343
 9795TIP3    H129321   3.288   0.325   4.536 -2.2009  0.9518 -0.8030
 9795TIP3    H229322   3.194   0.428   4.594 -1.5129  0.2415  1.6166
 9796TIP3   OH229323   8.412   3.964   1.712  0.5195 -0.2345 -0.4685
 9796TIP3    H129324   8.322   3.985   1.734 -0.0863 -0.9577 -2.1403
 9796TIP3    H229325   8.461   3.979   1.792 -1.3061 -1.1699  0.8647
 9797TIP3   OH229326   3.272   1.087   6.194 -0.2872 -0.0595 -0.4082
 9797TIP3    H129327   3.204   1.032   6.155 -0.1278 -0.7755  0.2985
 9797TIP3    H229328   3.239   1.109   6.281  0.1597  0.0071 -0.2525
 9798TIP3   OH229329   3.321   0.735   6.336  0.3614  0.3836 -0.4790
 9798TIP3    H129330   3.278   0.793   6.399 -1.4453  0.2761 -1.5847
 9798TIP3    H229331   3.397   0.785   6.305  0.4197  1.0173  0.6811
 9799TIP3   OH229332   6.982   3.963   0.025 -0.2361 -0.1486 -0.5427
 9799TIP3    H129333   7.033   3.975   0.106 -1.5631 -0.7682  0.4007
 9799TIP3    H229334   6.997   4.043  -0.025  0.4787  0.3092  0.3786
 9800TIP3   OH229335   5.107   0.313   5.427  0.7502  0.2399 -0.8650
 9800TIP3    H129336   5.099   0.358   5.343  0.2297  0.8103 -0.5111
 9800TIP3    H229337   5.070   0.374   5.491  2.0068  0.1940 -0.0922
 9801TIP3   OH229338   5.186   0.156   5.849  0.2515 -0.2498 -0.0087
 9801TIP3    H129339   5.138   0.100   5.787 -0.9416  1.0254 -0.2531
 9801TIP3    H229340   5.136   0.150   5.930 -0.0270  0.6547 -0.1071
 9802TIP3   OH229341   3.691   1.556   6.227 -0.1961 -0.2434  0.4535
 9802TIP3    H129342   3.642   1.597   6.298 -0.2975  0.4357 -0.0052
 9802TIP3    H229343   3.782   1.556   6.258 -0.0217  1.3385  0.0114
 9803TIP3   OH229344   4.377   1.864   5.291  0.3380 -0.2775  0.2034
 9803TIP3    H129345   4.417   1.923   5.227 -0.3660  0.5787  0.5378
 9803TIP3    H229346   4.305   1.915   5.328 -0.3381 -1.3882  0.4354
 9804TIP3   OH229347   3.332   1.455   5.202  0.1601  0.0210 -0.0426
 9804TIP3    H129348   3.266   1.386   5.191  0.4870 -0.3479  0.3319
 9804TIP3    H229349   3.407   1.425   5.151  0.0594  0.4187 -0.4281
 9805TIP3   OH229350   7.656   7.012   0.191  0.8633  0.5337 -0.4333
 9805TIP3    H129351   7.641   7.102   0.222  1.1918  0.5859 -0.4298
 9805TIP3    H229352   7.748   6.995   0.208  0.7060  0.0460 -0.0544
 9806TIP3   OH229353   4.992   0.552   6.473 -0.1055 -0.4507  0.1644
 9806TIP3    H129354   5.037   0.622   6.520 -1.7952 -0.4708  1.8511
 9806TIP3    H229355   4.932   0.597   6.414 -0.1415 -0.4472  0.2033
 9807TIP3   OH229356   0.094   4.622   0.322  0.3179 -0.0482  0.1742
 9807TIP3    H129357   0.175   4.586   0.359 -0.0444 -0.3788  0.6469
 9807TIP3    H229358   0.065   4.556   0.259 -0.1613 -0.4210  0.7890
 9808TIP3   OH229359   4.066   3.130   5.867 -0.0709 -0.0134 -0.2135
 9808TIP3    H129360   4.029   3.177   5.941  0.4988 -1.9299  1.3229
 9808TIP3    H229361   4.009   3.154   5.793 -1.3109  1.0530  1.0549
 9809TIP3   OH229362   1.793   6.269   1.840  0.3926 -0.2236 -0.0129
 9809TIP3    H129363   1.814   6.321   1.762  0.4065  0.5773  0.5136
 9809TIP3    H229364   1.726   6.321   1.885  0.6841 -0.4796  0.7192
 9810TIP3   OH229365   5.141   2.208   4.439 -0.5577  0.1442  0.1160
 9810TIP3    H129366   5.209   2.158   4.484 -0.7101 -0.1077  0.0627
 9810TIP3    H229367   5.136   2.290   4.489 -0.3924  0.0605  0.2733
 9811TIP3   OH229368   7.314   3.779   1.835  0.5121  0.2009  0.2245
 9811TIP3    H129369   7.339   3.827   1.915 -0.9257  1.2048  0.0855
 9811TIP3    H229370   7.316   3.687   1.861  2.6054  0.3549  0.7003
 9812TIP3   OH229371   3.688   1.068   6.080  0.7512 -0.1967 -0.1074
 9812TIP3    H129372   3.776   1.064   6.117  0.9988  0.2050 -0.6457
 9812TIP3    H229373   3.648   1.144   6.123  1.3915  0.8991 -1.4030
 9813TIP3   OH229374   7.899   6.679   0.170  0.0941  0.0817  0.2992
 9813TIP3    H129375   7.889   6.584   0.170 -0.0386  0.0884 -0.3933
 9813TIP3    H229376   7.981   6.695   0.216  1.2211 -0.5000 -1.4410
 9814TIP3   OH229377   8.146   5.245   0.226  0.2399  0.3635 -0.7713
 9814TIP3    H129378   8.057   5.213   0.211  0.6373 -1.5118  0.7360
 9814TIP3    H229379   8.136   5.314   0.291  0.2672 -2.7524  2.7114
 9815TIP3   OH229380   6.680   4.697   0.195  0.3652  0.1055  0.2723
 9815TIP3    H129381   6.678   4.706   0.099  0.2832 -0.1260  0.2511
 9815TIP3    H229382   6.591   4.672   0.218  0.5951 -0.6862  0.3186
 9816TIP3   OH229383   0.625   5.492   0.314 -0.4374  0.5134 -1.2213
 9816TIP3    H129384   0.634   5.455   0.226  0.0627 -0.4815 -0.7592
 9816TIP3    H229385   0.551   5.446   0.352 -0.7383  1.0399 -1.1649
 9817TIP3   OH229386   5.774   0.734   6.672 -0.1899  0.4246  0.4536
 9817TIP3    H129387   5.736   0.747   6.760  2.1886 -0.4099  1.6467
 9817TIP3    H229388   5.752   0.644   6.650 -1.9521  1.0498 -0.4180
 9818TIP3   OH229389   1.619   4.166   0.421  0.0390 -0.4585  0.3176
 9818TIP3    H129390   1.543   4.172   0.363  0.3759 -0.4581 -0.1249
 9818TIP3    H229391   1.590   4.108   0.492 -0.6043  0.0972  0.5186
 9819TIP3   OH229392   4.851   2.081   4.123 -0.0843  0.1870 -0.0099
 9819TIP3    H129393   4.816   2.083   4.034  2.4415 -1.6929 -1.1180
 9819TIP3    H229394   4.815   2.000   4.160 -0.1853  0.3691  0.2924
 9820TIP3   OH229395   0.837   4.775   1.786 -0.5754  0.1596 -0.4222
 9820TIP3    H129396   0.878   4.778   1.699  0.2324  3.3730  0.0178
 9820TIP3    H229397   0.900   4.727   1.840  0.4765  1.0400 -0.8445
 9821TIP3   OH229398   3.902   1.939   6.197 -0.2809 -0.2629  0.3172
 9821TIP3    H129399   3.827   1.955   6.141 -1.3361 -0.8434  1.5363
 9821TIP3    H229400   3.975   1.926   6.136 -1.2970 -0.4057 -0.8952
 9822TIP3   OH229401   6.932   3.718   1.701 -0.2694 -0.0832 -0.0644
 9822TIP3    H129402   6.898   3.628   1.704 -2.7746  0.8233  0.0002
 9822TIP3    H229403   6.979   3.729   1.783 -1.5919 -0.7244  0.7925
 9823TIP3   OH229404   7.139   7.428   0.788 -0.1131  0.3436 -0.0772
 9823TIP3    H129405   7.204   7.488   0.753 -0.5564 -0.1690 -1.8238
 9823TIP3    H229406   7.186   7.346   0.802  0.2325  0.7538  1.2566
 9824TIP3   OH229407   7.954   4.997   0.894  0.6304 -0.0997 -0.3945
 9824TIP3    H129408   7.916   5.058   0.956  0.8373  0.0102 -0.3760
 9824TIP3    H229409   8.035   4.967   0.936 -0.3166 -1.6982  0.3713
 9825TIP3   OH229410   6.820   0.970   6.875 -0.6338  0.1280  0.0366
 9825TIP3    H129411   6.812   0.933   6.964  0.7260 -0.6070 -0.1473
 9825TIP3    H229412   6.742   0.939   6.830  0.9384 -3.3565 -0.3969
 9826TIP3   OH229413   3.611   1.927   6.386  0.3305 -0.1206  0.7696
 9826TIP3    H129414   3.704   1.920   6.409 -0.3250 -0.8575  3.3894
 9826TIP3    H229415   3.576   1.840   6.404 -0.7809  0.0473 -0.5981
 9827TIP3   OH229416   6.583   4.027   0.284  0.1285  0.2559 -0.5179
 9827TIP3    H129417   6.588   4.065   0.371  0.8269  1.5952 -1.1272
 9827TIP3    H229418   6.507   3.969   0.287 -0.6710  1.3388  0.5873
 9828TIP3   OH229419   6.579   5.775   1.426  0.2735 -0.0652  0.6816
 9828TIP3    H129420   6.546   5.832   1.495  0.6239  0.8907  0.0733
 9828TIP3    H229421   6.520   5.791   1.352  0.5897 -0.2279  0.3940
 9829TIP3   OH229422   3.937   1.736   5.898  0.1341 -0.0492  0.5478
 9829TIP3    H129423   3.942   1.662   5.837 -0.4926  0.5185 -0.2046
 9829TIP3    H229424   3.848   1.769   5.889  0.3996  0.7807  0.8940
 9830TIP3   OH229425   6.729   1.752   4.068 -0.1111 -0.3896 -0.0439
 9830TIP3    H129426   6.697   1.799   4.145 -1.2027 -1.8127  0.4040
 9830TIP3    H229427   6.813   1.716   4.095  0.3598  0.6219 -0.1303
 9831TIP3   OH229428   0.983   1.293   5.780  0.5139  0.4094  0.3119
 9831TIP3    H129429   1.048   1.345   5.827  1.0953 -0.2116  0.2082
 9831TIP3    H229430   0.929   1.254   5.849  1.7407 -0.9855  0.5006
 9832TIP3   OH229431   1.215   5.890   1.826 -0.2285  0.4006  0.2326
 9832TIP3    H129432   1.131   5.864   1.789 -0.8945  0.3533  1.7602
 9832TIP3    H229433   1.193   5.946   1.899  1.0813  0.5815  0.5037
 9833TIP3   OH229434   2.559   6.558   6.895 -0.0406  0.0236 -0.1798
 9833TIP3    H129435   2.471   6.528   6.921  1.0209 -2.9925  0.1902
 9833TIP3    H229436   2.553   6.571   6.800 -0.9198 -0.0862 -0.1444
 9834TIP3   OH229437   0.050   4.141   0.057 -0.3867 -0.3200  0.2610
 9834TIP3    H129438   0.047   4.089  -0.023  1.4772 -1.8401  1.1448
 9834TIP3    H229439  -0.017   4.103   0.114  0.8944 -1.7438  0.8612
 9835TIP3   OH229440   0.870   4.589   0.236  0.3250  0.1399 -0.3323
 9835TIP3    H129441   0.895   4.543   0.156 -0.5052  0.7947 -0.9738
 9835TIP3    H229442   0.950   4.590   0.289  1.1868  0.6554 -1.6073
 9836TIP3   OH229443   4.527   4.828   0.394 -0.0014  0.1699 -0.6748
 9836TIP3    H129444   4.502   4.736   0.386 -3.9772  1.3016 -2.5379
 9836TIP3    H229445   4.505   4.851   0.485 -0.2107 -0.4124 -0.5781
 9837TIP3   OH229446   3.697   0.924   3.660 -0.1805  0.3358 -0.1507
 9837TIP3    H129447   3.703   1.014   3.629  1.3996  0.5782  0.7925
 9837TIP3    H229448   3.639   0.929   3.737 -1.4373  0.2604 -1.0763
 9838TIP3   OH229449   6.469   0.092   4.732  0.1068 -0.0715  0.4709
 9838TIP3    H129450   6.458   0.011   4.781  1.9177 -1.5981 -1.5595
 9838TIP3    H229451   6.415   0.080   4.654 -0.1025  0.9459  0.4467
 9839TIP3   OH229452   4.795   2.027   6.637 -0.0339 -0.2606 -0.5613
 9839TIP3    H129453   4.784   2.122   6.643  3.1976  0.2210 -0.8952
 9839TIP3    H229454   4.851   2.014   6.560  1.6266 -2.2100  0.9062
 9840TIP3   OH229455   5.323   4.718   0.238  0.2063 -0.1629 -0.0248
 9840TIP3    H129456   5.235   4.754   0.243  0.1769 -0.0181 -1.4135
 9840TIP3    H229457   5.324   4.647   0.302 -0.7239  0.2384  0.4354
 9841TIP3   OH229458   0.054   4.558   2.844 -0.1060 -0.7172  0.7325
 9841TIP3    H129459   0.100   4.566   2.928  2.5217  1.9821 -0.8716
 9841TIP3    H229460   0.000   4.637   2.838 -0.0870 -0.7692 -0.2276
 9842TIP3   OH229461   2.419   3.530   2.152  0.1817 -0.4888 -1.0052
 9842TIP3    H129462   2.428   3.624   2.168  0.1488 -0.8411  1.4024
 9842TIP3    H229463   2.497   3.506   2.103  1.5082  0.3412  0.6550
 9843TIP3   OH229464   7.960   4.483   0.164  0.0005 -0.1512  0.0792
 9843TIP3    H129465   7.899   4.431   0.217 -0.2465  0.7572  0.6923
 9843TIP3    H229466   7.905   4.551   0.126  0.4718  0.1338 -0.0850
 9844TIP3   OH229467   3.845   7.173   5.489  0.0170  0.3373 -0.4830
 9844TIP3    H129468   3.873   7.114   5.419  3.4135  1.2474  0.0476
 9844TIP3    H229469   3.791   7.119   5.546 -0.3239 -1.1643 -2.1770
 9845TIP3   OH229470   2.434   4.888   1.610  0.2604  0.1863  0.0208
 9845TIP3    H129471   2.458   4.965   1.560  1.9781 -0.6666 -0.5045
 9845TIP3    H229472   2.338   4.892   1.616  0.1527  1.1183 -1.9960
 9846TIP3   OH229473   0.170   5.957   5.823  0.2815 -1.2655 -0.0459
 9846TIP3    H129474   0.097   5.903   5.855 -0.5119 -0.5196 -0.5617
 9846TIP3    H229475   0.205   5.999   5.902 -1.7848  0.7128 -0.1101
 9847TIP3   OH229476   5.249   0.806   6.204 -0.0605 -0.2762  0.5321
 9847TIP3    H129477   5.226   0.851   6.286  0.5967  2.4073 -0.7108
 9847TIP3    H229478   5.165   0.790   6.161 -0.2191  1.0831  0.3242
 9848TIP3   OH229479   5.092   2.062   5.904 -0.4994 -0.2110  0.2745
 9848TIP3    H129480   5.184   2.039   5.889  0.0710 -1.4872  4.9042
 9848TIP3    H229481   5.048   1.977   5.913 -1.6613  0.4129  0.4744
 9849TIP3   OH229482   7.624   4.852   0.452  0.3639 -0.7985  0.0199
 9849TIP3    H129483   7.707   4.883   0.415 -0.1112 -1.3205 -1.5337
 9849TIP3    H229484   7.585   4.930   0.491  0.3740  0.0347 -1.5741
 9850TIP3   OH229485   6.476   6.614   0.943  0.9501 -0.2763  0.2269
 9850TIP3    H129486   6.541   6.652   1.002  1.3790 -0.6474 -0.0007
 9850TIP3    H229487   6.525   6.548   0.892 -0.0679 -2.1563  1.6022
 9851TIP3   OH229488   0.134   5.765   2.068  0.1237  0.2480 -0.3582
 9851TIP3    H129489   0.075   5.722   2.130 -0.9685  2.6800  0.3703
 9851TIP3    H229490   0.082   5.775   1.989  0.0678  0.9412 -0.2427
 9852TIP3   OH229491   8.126   4.546   0.586 -0.5781  0.7315  0.5177
 9852TIP3    H129492   8.152   4.509   0.670 -1.1372 -1.8537 -0.3953
 9852TIP3    H229493   8.199   4.602   0.561  0.1615  0.5159  2.1065
 9853TIP3   OH229494   8.380   5.055   0.759 -0.3431 -0.0179 -0.5301
 9853TIP3    H129495   8.446   5.095   0.703  0.0258  0.7037  0.3983
 9853TIP3    H229496   8.345   4.983   0.707  0.9525 -0.2123 -1.1637
 9854TIP3   OH229497   5.223   1.967   5.393  0.2525 -0.2229  0.0928
 9854TIP3    H129498   5.289   1.971   5.324  0.9672  0.2151  0.7929
 9854TIP3    H229499   5.271   1.988   5.473 -0.4811 -1.1433  0.7811
 9855TIP3   OH229500   5.353   3.904   5.269  0.2051  0.5231 -0.0147
 9855TIP3    H129501   5.347   3.991   5.231  0.2978  0.6473  0.2483
 9855TIP3    H229502   5.439   3.902   5.312  0.1287  0.3662  0.1325
 9856TIP3   OH229503   5.584   2.008   6.252  0.2280 -0.8192  0.2051
 9856TIP3    H129504   5.653   2.000   6.318  1.2888 -0.1236 -0.7887
 9856TIP3    H229505   5.521   1.941   6.275  1.0847 -1.2592  1.3276
 9857TIP3   OH229506   0.162   6.538   0.124  0.3605 -0.4544 -0.7303
 9857TIP3    H129507   0.100   6.566   0.192  2.2186 -3.0233  2.1712
 9857TIP3    H229508   0.118   6.466   0.080  0.4539 -0.9040 -0.0862
 9858TIP3   OH229509   7.340   6.556   1.120  0.3778  0.5285 -0.1192
 9858TIP3    H129510   7.277   6.615   1.161  1.0137  0.5649  0.8159
 9858TIP3    H229511   7.317   6.469   1.154  1.3258  0.6464  0.8665
 9859TIP3   OH229512   4.458   3.104   6.437 -0.3659  0.2997  0.5605
 9859TIP3    H129513   4.518   3.150   6.497 -0.9445  0.6840  0.8527
 9859TIP3    H229514   4.490   3.014   6.435  0.6543  0.6699  0.1453
 9860TIP3   OH229515   6.796   3.424   0.394  0.1126 -0.2165 -0.1099
 9860TIP3    H129516   6.818   3.516   0.378  1.1872 -0.6174 -0.9937
 9860TIP3    H229517   6.880   3.382   0.409 -0.2896 -1.2691 -0.8053
 9861TIP3   OH229518   3.845   3.967   6.714  0.3995 -0.4419  0.4600
 9861TIP3    H129519   3.832   4.060   6.735  2.9102  0.0618 -0.0053
 9861TIP3    H229520   3.818   3.920   6.793 -3.2201  0.4676 -0.1476
 9862TIP3   OH229521   3.939   0.955   6.451  0.5216  0.4165  0.7662
 9862TIP3    H129522   3.850   0.965   6.484  0.5410  0.5928  0.7656
 9862TIP3    H229523   3.928   0.950   6.356  0.5749  1.1512  0.7199
 9863TIP3   OH229524   3.312   2.774   5.754 -0.4174 -0.1875  0.2933
 9863TIP3    H129525   3.334   2.853   5.804 -1.9315  0.9447 -0.8049
 9863TIP3    H229526   3.392   2.721   5.759  0.6927  1.4618  0.9108
 9864TIP3   OH229527   8.185   5.513   1.798 -0.3948 -0.1931 -0.0455
 9864TIP3    H129528   8.257   5.459   1.767 -1.2243 -1.4367  0.1742
 9864TIP3    H229529   8.108   5.458   1.788 -0.9420  0.0816  2.3715
 9865TIP3   OH229530   7.830   3.696   5.425 -0.0773  0.2186 -0.2609
 9865TIP3    H129531   7.900   3.657   5.477 -0.0641  1.2321  0.4926
 9865TIP3    H229532   7.854   3.679   5.334  0.6121 -0.3417  0.0308
 9866TIP3   OH229533   0.375   3.507   5.989  0.0373 -0.0661  0.1029
 9866TIP3    H129534   0.366   3.560   6.069 -0.1100 -1.1853  0.8326
 9866TIP3    H229535   0.468   3.485   5.985 -0.4472 -2.4712  1.5633
 9867TIP3   OH229536   1.695   6.654   1.732 -0.2660  0.2827  0.7574
 9867TIP3    H129537   1.752   6.583   1.701 -0.7247  0.0025  0.5611
 9867TIP3    H229538   1.718   6.728   1.675  0.1891  0.2862  0.9406
 9868TIP3   OH229539   5.246   7.426   6.740 -0.1379  0.1914 -0.1901
 9868TIP3    H129540   5.283   7.514   6.742 -0.9023  0.5311 -0.4999
 9868TIP3    H229541   5.303   7.377   6.681  1.0118  0.1319  0.9416
 9869TIP3   OH229542   7.756   1.417   5.619  0.0227 -0.3280  0.4686
 9869TIP3    H129543   7.783   1.373   5.699 -0.4365  0.2712  0.9637
 9869TIP3    H229544   7.751   1.510   5.643  0.3467 -0.0871 -0.3794
 9870TIP3   OH229545   4.972   6.846   5.368  0.4635  0.4581  0.1541
 9870TIP3    H129546   4.977   6.908   5.442 -1.0531  0.1687  0.5175
 9870TIP3    H229547   4.950   6.901   5.293 -1.3647  0.3062  0.5691
 9871TIP3   OH229548   1.866   4.945   1.014  0.0857  0.2599  0.0259
 9871TIP3    H129549   1.856   4.979   0.926 -0.9812  0.5903  0.2675
 9871TIP3    H229550   1.936   4.880   1.007  0.7028  1.0095 -0.8473
 9872TIP3   OH229551   5.339   2.004   5.638 -0.0614 -0.3134 -0.2248
 9872TIP3    H129552   5.320   1.993   5.731  2.3041 -0.5983  0.2447
 9872TIP3    H229553   5.321   2.096   5.621 -0.3266 -0.2177  0.5421
 9873TIP3   OH229554   2.668   6.524   0.593  0.1076  0.1898  0.5798
 9873TIP3    H129555   2.690   6.461   0.525  0.6196  2.0657 -1.0526
 9873TIP3    H229556   2.751   6.567   0.613 -0.1341 -0.0181  2.0536
 9874TIP3   OH229557   8.108   2.812   6.002  0.4625 -0.4124  0.2020
 9874TIP3    H129558   8.170   2.883   5.986 -0.3304  0.2771  0.1519
 9874TIP3    H229559   8.081   2.823   6.093  2.0818 -2.0472  0.9073
 9875TIP3   OH229560   7.645   0.830   4.657  0.0108  0.6324 -0.0031
 9875TIP3    H129561   7.644   0.865   4.567 -0.0785  0.0614 -0.2257
 9875TIP3    H229562   7.692   0.747   4.649 -0.3574  0.3889  0.4124
 9876TIP3   OH229563   6.145   0.720   5.602  0.3699  0.0605 -0.0372
 9876TIP3    H129564   6.126   0.813   5.591  0.5116  0.0183 -0.7078
 9876TIP3    H229565   6.160   0.709   5.696  0.6404  0.7696  0.0094
 9877TIP3   OH229566   7.970   0.289   5.318  0.1896 -0.2807 -0.0639
 9877TIP3    H129567   8.015   0.368   5.349  0.1331 -0.6535  0.9943
 9877TIP3    H229568   7.894   0.321   5.271 -0.6062  0.2706  1.5773
 9878TIP3   OH229569   7.167   0.711   6.696 -0.2727  0.7434 -0.7450
 9878TIP3    H129570   7.167   0.806   6.688  4.0915  0.8574 -0.5936
 9878TIP3    H229571   7.251   0.690   6.738 -1.3252 -3.1481 -0.3449
 9879TIP3   OH229572   0.121   1.641   6.231  0.5711  0.0989  0.2413
 9879TIP3    H129573   0.030   1.615   6.221  0.4235  0.3792  0.8900
 9879TIP3    H229574   0.120   1.736   6.227  0.6174  0.1907  1.9950
 9880TIP3   OH229575   7.276   1.753   5.723  0.0238 -0.2465  0.0105
 9880TIP3    H129576   7.193   1.797   5.740 -0.8866 -1.8679 -0.1586
 9880TIP3    H229577   7.334   1.783   5.794 -0.4205  1.5879 -0.3950
 9881TIP3   OH229578   1.829   6.231   0.618  0.2524  0.2564  0.2212
 9881TIP3    H129579   1.788   6.297   0.674 -1.1468 -0.5391  0.1645
 9881TIP3    H229580   1.839   6.274   0.534 -0.8350  0.3519  0.1305
 9882TIP3   OH229581   8.398   5.464   0.292  0.8233 -0.1314  0.3398
 9882TIP3    H129582   8.378   5.391   0.351 -0.2242  0.7669  1.1237
 9882TIP3    H229583   8.313   5.486   0.252  1.0893  0.8098  0.2897
 9883TIP3   OH229584   6.542   0.163   5.920  0.1145  0.3304 -0.9488
 9883TIP3    H129585   6.462   0.116   5.901 -0.6678  0.7544  1.2474
 9883TIP3    H229586   6.532   0.247   5.875 -0.5730  0.2963 -0.8532
 9884TIP3   OH229587   6.081   0.401   6.374  0.0966 -0.3101  0.1023
 9884TIP3    H129588   6.074   0.311   6.341  0.1091  0.3156 -1.6497
 9884TIP3    H229589   5.991   0.424   6.397 -0.3043  0.0155 -1.6582
 9885TIP3   OH229590   3.943   7.398   0.081 -0.0891  0.6618 -0.1903
 9885TIP3    H129591   3.942   7.471   0.019  1.2895 -0.5797 -1.7099
 9885TIP3    H229592   3.990   7.328   0.036 -0.9166 -0.9999  1.4515
 9886TIP3   OH229593   8.164   1.322   5.625 -0.1053  0.5617 -0.1132
 9886TIP3    H129594   8.083   1.302   5.578  0.0947  0.6064 -0.4801
 9886TIP3    H229595   8.171   1.253   5.691  0.4809 -0.4804 -1.2500
 9887TIP3   OH229596   7.475   0.619   6.273  0.0977 -0.3642 -1.1388
 9887TIP3    H129597   7.434   0.575   6.198 -0.7959 -1.0656 -0.2554
 9887TIP3    H229598   7.438   0.707   6.272  0.2749 -0.2907 -1.6589
 9888TIP3   OH229599   8.099   0.926   6.049 -0.1432  0.2270 -0.2191
 9888TIP3    H129600   8.137   0.935   6.136 -0.6158 -0.4758  0.0613
 9888TIP3    H229601   8.155   0.864   6.003 -0.4677 -0.1643 -0.0849
 9889TIP3   OH229602   7.117   1.179   5.193  0.1233  0.7690 -0.1620
 9889TIP3    H129603   7.033   1.133   5.186  0.3730 -0.4306  3.8103
 9889TIP3    H229604   7.181   1.116   5.159 -0.1348  0.2066  0.3935
 9890TIP3   OH229605   7.432   2.126   0.002 -0.0920 -0.3697 -0.2552
 9890TIP3    H129606   7.512   2.083   0.030 -0.7942 -1.2186  0.5094
 9890TIP3    H229607   7.455   2.218  -0.006  0.8184 -0.5275  0.4893
 9891TIP3   OH229608   8.381   0.586   5.338  0.3353 -0.1672 -0.7245
 9891TIP3    H129609   8.420   0.561   5.254  2.0019  0.2376 -0.0930
 9891TIP3    H229610   8.452   0.575   5.402 -1.1021 -1.1632  0.7647
 9892TIP3   OH229611   7.980   2.118   5.552 -0.1180 -0.2585  0.9198
 9892TIP3    H129612   7.889   2.100   5.577 -0.4333  0.3613  0.2147
 9892TIP3    H229613   7.984   2.213   5.541 -0.0416 -0.5173 -1.5442
 9893TIP3   OH229614   6.128   1.767   5.583  0.0551 -0.2091  0.2717
 9893TIP3    H129615   6.096   1.698   5.525 -2.6024  1.2010  0.0064
 9893TIP3    H229616   6.196   1.811   5.533 -0.9584 -0.1502 -1.0834
 9894TIP3   OH229617   2.261   7.537   0.776 -0.0150  0.1571 -0.4077
 9894TIP3    H129618   2.247   7.600   0.846  0.3773  0.1766 -0.3489
 9894TIP3    H229619   2.355   7.540   0.759  0.5901 -2.8847  1.9389
 9895TIP3   OH229620   6.677   0.452   6.147  0.3093 -0.1532 -0.1119
 9895TIP3    H129621   6.658   0.374   6.199  1.5566 -0.2054  0.2958
 9895TIP3    H229622   6.752   0.492   6.191 -0.2978  1.2604 -0.3376
 9896TIP3   OH229623   2.096   6.558   0.267 -0.2994  0.0688 -0.0898
 9896TIP3    H129624   2.020   6.515   0.227 -1.0521  0.9651  0.3751
 9896TIP3    H229625   2.121   6.499   0.339 -0.3451 -0.3958 -0.4516
 9897TIP3   OH229626   2.043   6.651   2.026  0.2496  0.8464  0.2053
 9897TIP3    H129627   2.121   6.706   2.035  0.6755  0.1496  0.8560
 9897TIP3    H229628   1.977   6.710   1.990  1.1103  1.4164 -0.4754
 9898TIP3   OH229629   4.404   6.181   6.022 -0.1625  0.4169  0.3112
 9898TIP3    H129630   4.485   6.182   6.073 -0.5594  2.4293  0.9502
 9898TIP3    H229631   4.426   6.130   5.944  1.8030  1.1504  0.3415
 9899TIP3   OH229632   7.959   0.287   4.551  0.4707 -0.1726  0.2727
 9899TIP3    H129633   7.951   0.212   4.492 -0.0715 -0.9632  1.3404
 9899TIP3    H229634   7.947   0.251   4.639 -2.1539  1.5182  0.6614
 9900TIP3   OH229635   1.522   4.017   0.077 -0.0817  0.9045 -0.3696
 9900TIP3    H129636   1.444   3.972   0.110 -0.0095 -0.7620 -2.3592
 9900TIP3    H229637   1.494   4.108   0.067 -1.0533  0.7962  1.1771
 9901TIP3   OH229638   5.128   7.630   5.695  0.6634  0.4615  0.3490
 9901TIP3    H129639   5.058   7.567   5.713  2.5049 -2.1076 -1.0852
 9901TIP3    H229640   5.198   7.605   5.756  2.1797 -0.2198 -1.6208
 9902TIP3   OH229641   0.829   6.002   0.572  0.0841  0.1104 -0.8023
 9902TIP3    H129642   0.781   6.020   0.653  0.4833  0.6189 -0.6717
 9902TIP3    H229643   0.820   5.908   0.559 -0.2772  0.0800 -0.3496
 9903TIP3   OH229644   1.258   4.275   1.246  0.1833 -0.2952 -0.0499
 9903TIP3    H129645   1.204   4.326   1.307  0.2620  0.4164 -0.5696
 9903TIP3    H229646   1.249   4.320   1.162 -0.5025 -1.6841 -0.7447
 9904TIP3   OH229647   6.806   2.057   4.791  0.2307  0.5284  0.0168
 9904TIP3    H129648   6.781   2.016   4.708 -0.2772 -0.3031  0.5702
 9904TIP3    H229649   6.750   2.014   4.856  1.3269  0.4739  0.9211
 9905TIP3   OH229650   3.369   7.735   5.190  0.0520  0.0462  0.1276
 9905TIP3    H129651   3.353   7.649   5.229  2.7259 -0.0110  1.2098
 9905TIP3    H229652   3.408   7.716   5.105 -3.9134  0.2015 -1.8501
 9906TIP3   OH229653   3.948   2.503   6.490  0.5090  0.0818 -0.0854
 9906TIP3    H129654   3.891   2.441   6.444 -0.1140  0.9373 -0.4752
 9906TIP3    H229655   3.891   2.545   6.554  1.0686 -0.1538  0.5767
 9907TIP3   OH229656   1.489   2.342   5.971 -0.2765  0.0901 -0.2681
 9907TIP3    H129657   1.540   2.395   6.031 -3.2500  1.9379  0.7320
 9907TIP3    H229658   1.481   2.257   6.014  1.8714 -0.2340 -0.4514
 9908TIP3   OH229659   1.057   2.931   6.663 -0.1292  0.3231  0.5804
 9908TIP3    H129660   0.982   2.984   6.634 -0.7451 -0.2976  1.0546
 9908TIP3    H229661   1.083   2.970   6.746  0.6963  1.1506 -0.0437
 9909TIP3   OH229662   6.289   1.219   5.215  0.2927 -0.1978 -0.3627
 9909TIP3    H129663   6.369   1.204   5.266  0.0836  1.9175  0.6852
 9909TIP3    H229664   6.301   1.170   5.134  1.0113 -2.9476  1.3651
 9910TIP3   OH229665   0.455   5.189   0.966  0.1906 -0.3419  0.5538
 9910TIP3    H129666   0.400   5.112   0.981  1.0307 -1.3829 -1.6018
 9910TIP3    H229667   0.477   5.219   1.054 -0.7659 -2.1039  1.4309
 9911TIP3   OH229668   8.445   3.863   4.930  0.4380 -0.5540 -0.5846
 9911TIP3    H129669   8.507   3.844   4.859  0.9694 -1.1735  0.0382
 9911TIP3    H229670   8.467   3.800   4.998  2.5957  2.5831  1.7789
 9912TIP3   OH229671   8.213   2.083   5.685 -0.1001 -0.0755  0.2346
 9912TIP3    H129672   8.173   2.076   5.772 -0.6143 -2.0643 -0.1419
 9912TIP3    H229673   8.139   2.081   5.625  0.4272 -1.7459 -0.3806
 9913TIP3   OH229674   5.385   0.105   6.310  0.1852 -0.1659 -0.3106
 9913TIP3    H129675   5.396   0.081   6.218  0.1081 -0.2239 -0.3049
 9913TIP3    H229676   5.459   0.162   6.329  0.2914 -0.2869 -0.3628
 9914TIP3   OH229677   6.349   0.612   5.424  0.4122 -0.0794 -0.5375
 9914TIP3    H129678   6.294   0.626   5.501  1.5803  0.7564  0.1600
 9914TIP3    H229679   6.294   0.641   5.350  0.1640  1.4434  0.2225
 9915TIP3   OH229680   6.270   0.299   5.786 -0.3260 -0.4533 -0.1095
 9915TIP3    H129681   6.280   0.208   5.757 -0.5107 -0.3090 -0.6430
 9915TIP3    H229682   6.259   0.294   5.880  0.9872 -0.8941  0.0252
 9916TIP3   OH229683   4.040   5.478  -0.005  0.2086  0.4670 -0.2450
 9916TIP3    H129684   4.125   5.521  -0.014 -0.2979  1.1587 -1.8963
 9916TIP3    H229685   3.998   5.524   0.067  0.9232  0.6492  0.0630
 9917TIP3   OH229686   6.467   5.765   5.523 -0.2756 -0.1879 -0.0350
 9917TIP3    H129687   6.480   5.682   5.476 -1.2257 -1.6561  2.2468
 9917TIP3    H229688   6.552   5.810   5.515  1.1107 -2.5400  0.9193
 9918TIP3   OH229689   7.006   2.074   6.508  0.0503  0.0295 -0.3306
 9918TIP3    H129690   6.915   2.069   6.535  0.2102 -0.6399  0.0659
 9918TIP3    H229691   7.050   2.004   6.555  1.3511  2.1764  1.7320
 9919TIP3   OH229692   2.100   5.429   0.044  0.2293 -0.1923 -0.0720
 9919TIP3    H129693   2.144   5.480   0.112  1.3651 -1.1511 -0.0655
 9919TIP3    H229694   2.013   5.466   0.039 -0.2701 -0.8309  2.7448
 9920TIP3   OH229695   5.502   1.149   6.115 -0.0222 -0.5125 -0.4629
 9920TIP3    H129696   5.409   1.166   6.129 -0.0619 -2.7766  2.4798
 9920TIP3    H229697   5.504   1.069   6.062  0.2201 -1.0574  0.3521
 9921TIP3   OH229698   2.646   6.327   0.412 -0.2469 -0.0963 -0.9294
 9921TIP3    H129699   2.686   6.242   0.431 -0.8865 -0.2150 -0.0636
 9921TIP3    H229700   2.555   6.307   0.391 -0.3814  0.3674 -0.7985
 9922TIP3   OH229701   7.813   0.889   6.608  0.0018 -0.1987  0.5115
 9922TIP3    H129702   7.735   0.889   6.553 -0.2234 -1.0766  0.8240
 9922TIP3    H229703   7.797   0.821   6.673  0.0852  1.1433  1.9361
 9923TIP3   OH229704   0.135   0.548   3.709  0.1843  0.4024  0.2561
 9923TIP3    H129705   0.128   0.454   3.693  1.5175  0.3707 -0.2243
 9923TIP3    H229706   0.054   0.584   3.672  0.2920 -0.4030 -0.7948
 9924TIP3   OH229707   5.819   7.462   3.941  0.2318  1.1248  0.2609
 9924TIP3    H129708   5.743   7.490   3.891  0.0524  0.2097  0.0122
 9924TIP3    H229709   5.783   7.400   4.005  1.2204 -2.0508 -2.1292
 9925TIP3   OH229710   3.399   7.502   1.028 -0.0967  0.3194  0.3475
 9925TIP3    H129711   3.491   7.487   1.049 -0.4718 -0.3668  1.5225
 9925TIP3    H229712   3.401   7.572   0.963  1.2387  0.5392  0.6061
 9926TIP3   OH229713   2.717   4.714   1.740  0.8151 -0.0921 -0.5994
 9926TIP3    H129714   2.789   4.652   1.748  1.0052  0.3384  1.1647
 9926TIP3    H229715   2.688   4.729   1.830 -1.1568  0.1195 -1.2485
 9927TIP3   OH229716   1.321   4.381   0.660 -0.1619  0.2296  0.2046
 9927TIP3    H129717   1.394   4.434   0.693 -0.1352  0.5090 -0.2949
 9927TIP3    H229718   1.307   4.315   0.728  1.9347 -1.1201 -0.6357
 9928TIP3   OH229719   8.087   0.671   5.154  0.1192  0.2297 -0.2191
 9928TIP3    H129720   8.146   0.675   5.079  0.1563 -0.5221 -0.2358
 9928TIP3    H229721   8.145   0.666   5.230  0.0807  0.1703 -0.1927
 9929TIP3   OH229722   8.356   1.250   5.162 -0.1288  0.2499  0.7300
 9929TIP3    H129723   8.322   1.219   5.245  0.3812 -0.2595  0.7517
 9929TIP3    H229724   8.445   1.215   5.158 -0.5215 -0.6486 -0.5212
 9930TIP3   OH229725   4.293   7.691   6.564  1.0804 -0.3102  0.2482
 9930TIP3    H129726   4.382   7.704   6.598  0.0206  2.8469  1.9469
 9930TIP3    H229727   4.236   7.704   6.639 -0.8998 -1.1869 -1.0700
 9931TIP3   OH229728   8.143   1.716   6.041 -0.0938 -0.2503 -0.2890
 9931TIP3    H129729   8.106   1.641   5.995 -0.7419  0.7003 -1.3380
 9931TIP3    H229730   8.107   1.710   6.130 -1.5129 -0.2427 -0.8497
 9932TIP3   OH229731   1.333   3.262   6.854  0.7917  0.3714 -0.3892
 9932TIP3    H129732   1.367   3.338   6.902  2.4123 -1.1307  0.9311
 9932TIP3    H229733   1.405   3.238   6.795  0.2211 -0.0297 -0.9216
 9933TIP3   OH229734   6.232   1.583   3.510 -0.0785  0.9397  0.4177
 9933TIP3    H129735   6.314   1.616   3.546 -0.8383  2.7852  0.4809
 9933TIP3    H229736   6.174   1.659   3.506 -2.2718 -0.6078  1.7003
 9934TIP3   OH229737   4.982   0.391   5.178 -0.0378  0.2036 -0.2808
 9934TIP3    H129738   4.920   0.330   5.137  1.2031  0.1376 -2.1177
 9934TIP3    H229739   5.003   0.453   5.109  1.8343  0.3245  0.3792
 9935TIP3   OH229740   5.469   1.455   4.001 -0.1547  0.2364  0.1092
 9935TIP3    H129741   5.380   1.451   3.964 -0.2703 -1.0543  0.5231
 9935TIP3    H229742   5.521   1.399   3.943 -0.3476 -1.8531  1.8907
 9936TIP3   OH229743   0.595   2.730   5.237 -0.0684  0.7671 -0.3639
 9936TIP3    H129744   0.529   2.750   5.304  1.0032  0.9281  0.6523
 9936TIP3    H229745   0.674   2.707   5.287  0.1981 -1.0047 -1.5574
 9937TIP3   OH229746   1.661   7.342   0.147 -0.3180 -0.0716  0.0956
 9937TIP3    H129747   1.612   7.296   0.216  0.8181 -0.0110  0.9747
 9937TIP3    H229748   1.731   7.281   0.123  0.2571  0.5601  0.1493
 9938TIP3   OH229749   7.960   2.935   5.467  0.8124  0.1790 -0.8805
 9938TIP3    H129750   7.906   2.995   5.417 -1.3282 -1.9782 -1.2393
 9938TIP3    H229751   8.025   2.902   5.404 -0.8038 -1.2301 -1.8556
 9939TIP3   OH229752   4.360   7.810   5.233 -0.2742  0.1198  0.5794
 9939TIP3    H129753   4.266   7.799   5.222 -0.0665 -0.5853 -0.6353
 9939TIP3    H229754   4.376   7.791   5.326 -1.4248  1.0522  0.9822
 9940TIP3   OH229755   1.076   2.807   4.503  0.2858 -0.0235 -0.1374
 9940TIP3    H129756   1.120   2.722   4.504  0.2917 -0.0235 -0.3514
 9940TIP3    H229757   1.008   2.800   4.570  0.7528  0.0504  0.3466
 9941TIP3   OH229758   1.072   2.643   3.910  0.3050  1.0941 -0.4825
 9941TIP3    H129759   1.014   2.717   3.928 -0.6743  0.3684 -0.6338
 9941TIP3    H229760   1.016   2.566   3.913  1.0889  0.4558 -1.4895
 9942TIP3   OH229761   5.198   7.312   6.257 -0.1550 -0.0669 -0.0207
 9942TIP3    H129762   5.287   7.320   6.224  0.5097 -1.4930  1.3493
 9942TIP3    H229763   5.143   7.317   6.178  1.1017  0.8952 -0.8687
 9943TIP3   OH229764   1.729   4.351   0.254 -0.3554  0.0688 -0.6521
 9943TIP3    H129765   1.768   4.291   0.191 -1.6540  1.2016 -2.6018
 9943TIP3    H229766   1.699   4.296   0.326  1.7724 -1.1690 -0.7085
 9944TIP3   OH229767   7.040   0.552   4.457  0.0833 -0.4521  0.1339
 9944TIP3    H129768   7.038   0.459   4.434  0.5528 -0.3328 -0.4184
 9944TIP3    H229769   7.050   0.554   4.552 -1.6050 -0.9592  0.3286
 9945TIP3   OH229770   1.873   7.398   0.688  0.1303  0.4815 -0.2405
 9945TIP3    H129771   1.783   7.432   0.687 -0.2612 -0.5268 -0.3011
 9945TIP3    H229772   1.872   7.326   0.626  0.6063 -0.4703  0.8416
 9946TIP3   OH229773   5.826   1.252   5.608  0.5315 -0.2406  0.1145
 9946TIP3    H129774   5.798   1.193   5.539 -0.4613 -0.6504  0.8627
 9946TIP3    H229775   5.787   1.336   5.586  1.3068 -0.0496 -0.5335
 9947TIP3   OH229776   6.274   2.437   5.352  0.6895 -0.2668  0.2708
 9947TIP3    H129777   6.332   2.393   5.290 -0.5495 -0.8473 -0.4930
 9947TIP3    H229778   6.315   2.422   5.437  1.6535 -0.6718 -0.2478
 9948TIP3   OH229779   5.846   1.685   6.494 -0.0408 -0.2982 -0.0338
 9948TIP3    H129780   5.785   1.722   6.558 -1.2032  0.3542 -1.4791
 9948TIP3    H229781   5.901   1.626   6.544 -1.8854 -0.9134  1.3214
 9949TIP3   OH229782   0.086   2.429   6.575  0.1774 -0.0315 -0.1372
 9949TIP3    H129783   0.052   2.481   6.502  0.7230  0.3198 -0.1449
 9949TIP3    H229784   0.039   2.346   6.569 -1.5198  0.8455  0.5311
 9950TIP3   OH229785   5.687   2.711   6.163 -0.0344  0.4378  0.3559
 9950TIP3    H129786   5.726   2.656   6.231  1.5339 -3.1814 -3.2816
 9950TIP3    H229787   5.755   2.776   6.142  0.0975  0.5327  1.0687
 9951TIP3   OH229788   7.251   0.917   5.105  0.1763 -0.2553  0.0357
 9951TIP3    H129789   7.340   0.951   5.112  0.4750 -1.1999  0.9553
 9951TIP3    H229790   7.238   0.867   5.186 -1.3737  0.3169  0.1492
 9952TIP3   OH229791   5.974   2.101   6.090  0.3785  0.0518  0.2389
 9952TIP3    H129792   5.893   2.078   6.044 -0.6688  1.4133  1.3612
 9952TIP3    H229793   6.044   2.066   6.034 -0.9449 -0.4550 -1.1426
 9953TIP3   OH229794   5.688   2.341   5.678 -0.2955 -0.2499 -0.0693
 9953TIP3    H129795   5.766   2.358   5.626 -0.2131 -1.1317 -0.2393
 9953TIP3    H229796   5.703   2.254   5.715 -1.6391 -0.8388 -0.8997
 9954TIP3   OH229797   5.593   0.797   6.450 -0.1131 -0.4173 -0.6379
 9954TIP3    H129798   5.571   0.888   6.428  0.4895 -0.5764 -2.0009
 9954TIP3    H229799   5.622   0.801   6.541 -3.1786  0.2020  0.3575
 9955TIP3   OH229800   7.938   1.302   5.434  0.1215 -0.5728  0.1513
 9955TIP3    H129801   7.901   1.319   5.347 -1.0123 -0.0595  0.7179
 9955TIP3    H229802   7.896   1.366   5.491 -0.1212 -1.7352  1.3146
 9956TIP3   OH229803   4.234   7.754   5.752 -0.3432  0.0323 -0.2741
 9956TIP3    H129804   4.278   7.765   5.836  2.2934  1.8473 -1.8366
 9956TIP3    H229805   4.161   7.816   5.755  0.3927  0.8793  0.2355
 9957TIP3   OH229806   7.944   1.269   6.297 -0.7217 -0.5783 -0.2622
 9957TIP3    H129807   7.917   1.246   6.386  0.6474 -0.9762  0.0645
 9957TIP3    H229808   8.039   1.278   6.303 -0.7117  0.2203 -1.5063
 9958TIP3   OH229809   2.336   3.305   0.040 -0.0355  0.3809 -0.0877
 9958TIP3    H129810   2.345   3.347  -0.045 -1.5712  1.5228  0.2835
 9958TIP3    H229811   2.373   3.218   0.028 -2.0308 -0.1941 -2.5135
 9959TIP3   OH229812   7.946   2.694   5.801 -0.7584 -0.0633  0.2925
 9959TIP3    H129813   7.859   2.699   5.842 -0.3337  0.3712  1.1572
 9959TIP3    H229814   8.006   2.723   5.870  0.0315  0.0414 -0.4424
 9960TIP3   OH229815   4.146   1.283   5.269 -0.2083 -0.5222  0.3988
 9960TIP3    H129816   4.126   1.356   5.210  2.2826 -0.2387 -0.1613
 9960TIP3    H229817   4.176   1.325   5.349  0.2567 -0.9310  0.4376
 9961TIP3   OH229818   4.939   1.523   5.617 -0.0116  0.2968  0.5449
 9961TIP3    H129819   4.938   1.584   5.543 -0.7160  0.4919  0.7085
 9961TIP3    H229820   4.945   1.437   5.577  0.1878  0.4357  0.2786
 9962TIP3   OH229821   2.055   6.334   1.532  0.0927  0.1725  0.4926
 9962TIP3    H129822   2.065   6.317   1.439  0.8566  0.8025  0.4464
 9962TIP3    H229823   2.101   6.262   1.575 -1.0215 -0.5994  0.4074
 9963TIP3   OH229824   4.386   2.700   5.687 -0.2951 -0.5153 -0.2339
 9963TIP3    H129825   4.433   2.783   5.701  1.2431 -1.4014 -0.0295
 9963TIP3    H229826   4.316   2.702   5.753  0.2267  0.2615  0.3214
 9964TIP3   OH229827   4.664   0.928   2.272 -0.2074  0.1280  0.1835
 9964TIP3    H129828   4.594   0.902   2.213 -0.0634  0.3736 -0.0998
 9964TIP3    H229829   4.728   0.971   2.215 -0.0730  0.3724  0.5203
 9965TIP3   OH229830   0.886   5.739   0.686 -0.3713  0.2633  0.4692
 9965TIP3    H129831   0.905   5.681   0.759 -0.5951 -0.4953 -0.0608
 9965TIP3    H229832   0.812   5.698   0.641 -0.4339  0.8785 -0.0070
 9966TIP3   OH229833   8.425   4.236   6.465  0.5609  0.2230 -0.0109
 9966TIP3    H129834   8.483   4.208   6.394  1.5571  1.4862  0.2880
 9966TIP3    H229835   8.337   4.236   6.427  0.9538 -0.1850 -0.9153
 9967TIP3   OH229836   1.793   5.616   0.328  0.6117 -0.2028 -0.1384
 9967TIP3    H129837   1.829   5.539   0.284  2.2992  0.6034 -0.2232
 9967TIP3    H229838   1.698   5.607   0.319  0.8087 -1.9413 -0.6853
 9968TIP3   OH229839   6.692   1.633   6.861  0.2008  0.2184  0.1854
 9968TIP3    H129840   6.651   1.716   6.839 -0.8566 -0.5886 -1.0152
 9968TIP3    H229841   6.644   1.568   6.808  2.6200 -0.8305 -0.7863
 9969TIP3   OH229842   1.774   5.969   0.519  0.8679  0.8857 -0.0503
 9969TIP3    H129843   1.816   6.045   0.560  1.5554  0.2650  0.3959
 9969TIP3    H229844   1.717   6.007   0.452  0.0112  1.8721  1.2283
 9970TIP3   OH229845   0.294   1.403   4.407  0.4046  0.1371  0.0674
 9970TIP3    H129846   0.365   1.341   4.427 -0.2913 -0.4147  0.8463
 9970TIP3    H229847   0.248   1.416   4.490  0.9591  2.2629  0.0671
 9971TIP3   OH229848   6.892   1.304   6.386 -0.2261 -0.2877 -0.5055
 9971TIP3    H129849   6.894   1.303   6.290  0.1165  0.7607 -0.5196
 9971TIP3    H229850   6.827   1.239   6.409 -0.6613 -0.2087 -1.4699
 9972TIP3   OH229851   7.774   5.186   1.048 -0.0187  0.0142 -0.2079
 9972TIP3    H129852   7.721   5.259   1.016  1.8109 -0.2683 -4.2569
 9972TIP3    H229853   7.733   5.108   1.012  1.1556 -0.4751 -0.5164
 9973TIP3   OH229854   7.780   0.363   6.774  0.3329  0.2329  0.7942
 9973TIP3    H129855   7.813   0.447   6.806 -0.3067  0.9539 -0.3950
 9973TIP3    H229856   7.694   0.354   6.815 -0.2992  0.9480 -0.3574
 9974TIP3   OH229857   8.124   2.365   5.521 -0.3766  0.3270  0.8463
 9974TIP3    H129858   8.152   2.321   5.601 -0.3492  1.1851  1.3203
 9974TIP3    H229859   8.121   2.458   5.545 -0.1353  0.6192 -0.2137
 9975TIP3   OH229860   6.329   1.157   5.728 -0.0011  0.0437 -0.1314
 9975TIP3    H129861   6.234   1.147   5.722  0.0210 -0.4918  0.3675
 9975TIP3    H229862   6.359   1.076   5.770  0.6083  0.4907  0.3041
 9976TIP3   OH229863   8.091   2.730   4.202  0.0250  0.1585  0.4592
 9976TIP3    H129864   8.028   2.801   4.203  0.7088  0.8286 -1.3805
 9976TIP3    H229865   8.040   2.652   4.181 -0.3386  0.5277 -0.0202
 9977TIP3   OH229866   3.171   5.229   1.473 -0.3105  0.5682  0.5652
 9977TIP3    H129867   3.260   5.245   1.442 -0.6796  0.4576 -0.5655
 9977TIP3    H229868   3.151   5.304   1.530  0.1472  1.0835  0.0498
 9978TIP3   OH229869   6.828   0.594   6.669  0.1526 -0.3433  0.2114
 9978TIP3    H129870   6.890   0.612   6.598 -0.8138 -1.4577 -0.9457
 9978TIP3    H229871   6.882   0.591   6.748  1.2384  0.9488 -0.4591
 9979TIP3   OH229872   3.379   4.086   0.387  0.2208 -0.0751 -0.3267
 9979TIP3    H129873   3.416   4.030   0.455 -1.0232 -0.4594  0.0417
 9979TIP3    H229874   3.323   4.028   0.336  0.8235  0.3020 -1.4367
 9980TIP3   OH229875   7.393   1.424   6.134  0.0392 -0.1339  0.6029
 9980TIP3    H129876   7.487   1.412   6.123 -0.0852 -1.4409  0.8370
 9980TIP3    H229877   7.382   1.517   6.151  1.1699  0.2145 -0.5772
 9981TIP3   OH229878   6.184   0.748   5.873  0.2469  0.5041 -0.2540
 9981TIP3    H129879   6.144   0.737   5.959 -1.9045  0.0656 -1.2926
 9981TIP3    H229880   6.245   0.821   5.884  1.1279 -0.5486  2.0178
 9982TIP3   OH229881   3.033   7.814   6.881  0.3263  0.1551 -0.4458
 9982TIP3    H129882   2.982   7.890   6.854  0.4529 -0.4781 -2.5776
 9982TIP3    H229883   2.991   7.784   6.962  0.4848  2.6455  0.6023
 9983TIP3   OH229884   7.070   1.553   5.529  0.5640  0.3940 -0.6814
 9983TIP3    H129885   7.057   1.502   5.449  0.7221 -1.0662  0.2044
 9983TIP3    H229886   7.010   1.628   5.519 -0.8942 -0.8134 -1.2716
 9984TIP3   OH229887   8.056   4.418   5.364  0.3488  0.4539 -0.4816
 9984TIP3    H129888   8.032   4.328   5.385 -0.0162  0.0703 -2.4367
 9984TIP3    H229889   8.152   4.418   5.360  0.3653  0.2535 -0.0449
 9985TIP3   OH229890   2.174   2.453   6.266 -0.1319 -0.2342 -0.0438
 9985TIP3    H129891   2.079   2.447   6.270 -0.2533  1.4517 -0.1006
 9985TIP3    H229892   2.196   2.440   6.174 -0.4327  0.8333 -0.2748
 9986TIP3   OH229893   8.172   1.092   3.977  0.1253 -0.2722 -0.0709
 9986TIP3    H129894   8.235   1.158   4.003  0.3114 -0.5874  0.2876
 9986TIP3    H229895   8.093   1.114   4.025 -0.0589  0.1554 -0.5624
 9987TIP3   OH229896   0.848   1.814   4.859  0.1422 -0.1471 -0.6611
 9987TIP3    H129897   0.932   1.774   4.883  0.6112  0.6887 -0.8584
 9987TIP3    H229898   0.782   1.756   4.895  0.8264  0.2614  1.3254
 9988TIP3   OH229899   8.429   0.919   5.774 -0.3810 -0.0522  0.0867
 9988TIP3    H129900   8.497   0.939   5.710 -0.4725  0.7001  0.2221
 9988TIP3    H229901   8.390   0.837   5.743  0.4104 -0.3571 -0.1329
 9989TIP3   OH229902   0.535   1.140   6.581  0.5195 -0.4039  0.5319
 9989TIP3    H129903   0.512   1.226   6.544  0.1564 -0.5403  0.4430
 9989TIP3    H229904   0.459   1.114   6.632  0.3847 -0.9503  0.0635
 9990TIP3   OH229905   8.049   0.013   3.733 -0.7215 -0.1759  0.3199
 9990TIP3    H129906   7.992   0.078   3.694 -1.1544 -2.2335 -2.6295
 9990TIP3    H229907   8.003  -0.015   3.812 -1.6416  1.3727  0.3528
 9991TIP3   OH229908   5.606   2.055   5.990  0.2537  0.0585 -0.1038
 9991TIP3    H129909   5.678   2.004   5.954  0.3523 -0.1182  0.3523
 9991TIP3    H229910   5.604   2.033   6.083  0.0902  0.6359  0.0320
 9992TIP3   OH229911   7.780   2.747   5.232  0.0087  0.0028 -0.2976
 9992TIP3    H129912   7.768   2.706   5.146  2.6132  0.2411 -0.8243
 9992TIP3    H229913   7.868   2.720   5.259  0.1708  1.9257  1.1947
 9993TIP3   OH229914   8.410   1.062   6.290 -0.5451  0.5102  0.0582
 9993TIP3    H129915   8.437   1.026   6.206 -2.5315 -1.0269  0.0484
 9993TIP3    H229916   8.489   1.105   6.324  0.8062 -0.5213 -1.6863
 9994TIP3   OH229917   6.155   1.473   4.326  0.3542  0.1762 -0.2944
 9994TIP3    H129918   6.244   1.438   4.325  0.7493  1.0906  1.3221
 9994TIP3    H229919   6.144   1.513   4.240  2.7381  3.0174  0.6553
 9995TIP3   OH229920   0.509   2.902   4.997 -0.2208  0.2299  0.0456
 9995TIP3    H129921   0.589   2.940   4.961 -1.8351  1.8293 -2.0044
 9995TIP3    H229922   0.527   2.891   5.090  2.0033  1.5959 -0.2035
 9996TIP3   OH229923   1.389   4.810   0.318  0.2948  0.9068 -0.0852
 9996TIP3    H129924   1.378   4.763   0.236 -1.6222  0.1290  0.5758
 9996TIP3    H229925   1.484   4.818   0.329  0.6225 -1.2517 -1.0928
 9997TIP3   OH229926   7.089   6.635   2.254 -0.2912  0.1967 -0.4457
 9997TIP3    H129927   7.124   6.658   2.340 -0.8641  0.2094 -0.2207
 9997TIP3    H229928   7.021   6.570   2.271 -2.0427  1.9236 -0.6721
 9998TIP3   OH229929   0.480   2.013   4.058 -0.2127 -0.1472  0.3470
 9998TIP3    H129930   0.500   1.942   3.998 -0.3947  1.1752 -1.3131
 9998TIP3    H229931   0.565   2.053   4.077 -0.4549  1.3233 -1.4697
 9999TIP3   OH229932   0.420   5.131   1.400  0.1634  0.1510  0.1501
 9999TIP3    H129933   0.427   5.069   1.473  1.0841  1.9882  1.6713
 9999TIP3    H229934   0.361   5.199   1.431 -1.5390 -0.3739 -1.8374
10000TIP3   OH229935   3.578   7.137   5.977 -0.3462 -0.6309 -0.0322
10000TIP3    H129936   3.490   7.121   5.945 -0.1026  1.3360 -1.8603
10000TIP3    H229937   3.634   7.079   5.924 -0.2880  0.2020 -0.9140
10001TIP3   OH229938   0.743   3.461   6.892  0.2367  0.1247  0.4486
10001TIP3    H129939   0.744   3.545   6.938 -1.8602  0.1797  0.4208
10001TIP3    H229940   0.747   3.484   6.799  0.1026  0.1707  0.4547
10002TIP3   OH229941   4.233   2.336   5.911 -0.1626  0.0337  0.0129
10002TIP3    H129942   4.308   2.394   5.894  0.0109 -0.4208 -0.8114
10002TIP3    H229943   4.181   2.382   5.976  1.0803  0.1437  0.9430
10003TIP3   OH229944   8.357   5.427   0.775  0.7881  0.2279 -0.1736
10003TIP3    H129945   8.412   5.506   0.773  0.5874  0.3900  0.6463
10003TIP3    H229946   8.377   5.385   0.859 -1.2707  0.9677  0.7268
10004TIP3   OH229947   7.696   2.619   5.947  0.2190 -0.1683  0.9161
10004TIP3    H129948   7.691   2.673   6.026  2.0485  0.8875  0.3333
10004TIP3    H229949   7.638   2.664   5.885 -1.6411 -1.2906  1.7822
10005TIP3   OH229950   7.872   1.881   6.661  0.4508  0.3798 -0.0816
10005TIP3    H129951   7.812   1.933   6.608 -0.3303 -1.1319 -0.7177
10005TIP3    H229952   7.878   1.798   6.615  3.0983  0.5231 -0.0624
10006TIP3   OH229953   5.576   7.376   5.426  0.2568  0.2568 -0.2715
10006TIP3    H129954   5.608   7.387   5.516  1.5635  0.3525 -0.7377
10006TIP3    H229955   5.616   7.447   5.377 -1.4532  0.9524 -0.6924
10007TIP3   OH229956   7.761   1.460   4.873  0.2894 -0.2250  0.0745
10007TIP3    H129957   7.737   1.371   4.846  0.6454 -0.4485  0.4875
10007TIP3    H229958   7.840   1.480   4.823  0.2711 -0.1818  0.0620
10008TIP3   OH229959   8.446   4.467   0.534  0.8906  0.6220  0.2286
10008TIP3    H129960   8.456   4.491   0.442  0.3417 -0.9390 -0.2650
10008TIP3    H229961   8.416   4.376   0.531 -0.2817  0.9335  1.9238
10009TIP3   OH229962   5.909   0.548   5.963 -0.2528 -0.2684 -0.2394
10009TIP3    H129963   5.987   0.498   5.936 -0.6485 -0.0111 -1.8935
10009TIP3    H229964   5.873   0.498   6.036  1.2631 -0.5815  0.3273
10010TIP3   OH229965   5.833   1.699   5.747 -0.4526 -0.7365 -0.0379
10010TIP3    H129966   5.843   1.791   5.770 -0.8769 -0.8839  0.7601
10010TIP3    H229967   5.869   1.651   5.822  0.7092 -1.2186 -0.8873
10011TIP3   OH229968   8.058   4.037   5.670 -0.1108 -0.4525  0.1025
10011TIP3    H129969   8.121   4.100   5.704 -0.9505 -1.3296  3.4281
10011TIP3    H229970   8.021   4.080   5.593 -0.6745  3.1834  2.2523
10012TIP3   OH229971   1.145   6.561   0.612 -0.2932 -0.1016 -0.3874
10012TIP3    H129972   1.120   6.605   0.693 -0.7753 -0.1768 -0.4935
10012TIP3    H229973   1.085   6.486   0.606  0.0036 -0.3248 -0.6085
10013TIP3   OH229974   6.958   2.063   5.298  0.4320 -0.0452  0.4409
10013TIP3    H129975   6.993   2.136   5.247 -0.1128  0.2333  0.4583
10013TIP3    H229976   7.034   2.026   5.343  1.0995 -0.9570 -1.3719
10014TIP3   OH229977   1.240   0.955   5.427 -0.9210  0.1820  0.2207
10014TIP3    H129978   1.163   1.011   5.421 -0.4540  1.1558  2.6585
10014TIP3    H229979   1.221   0.896   5.500  0.3438 -0.0090  0.4093
10015TIP3   OH229980   1.305   3.369   4.090  0.2611  0.4204  0.2488
10015TIP3    H129981   1.383   3.330   4.129  1.0610  1.0108 -0.7314
10015TIP3    H229982   1.323   3.463   4.089 -0.0536  0.4785 -0.8659
10016TIP3   OH229983   7.624   0.894   5.690 -0.1854 -0.4925  0.0589
10016TIP3    H129984   7.624   0.847   5.774  0.9198  0.5656  0.6581
10016TIP3    H229985   7.628   0.986   5.714  1.1997 -0.2227 -1.1805
10017TIP3   OH229986   1.839   4.601   0.315 -0.2027  0.2721  0.2092
10017TIP3    H129987   1.793   4.526   0.276  1.1003 -0.2383 -0.3592
10017TIP3    H229988   1.882   4.564   0.392  3.1027 -0.3321 -1.8194
10018TIP3   OH229989   0.803   2.496   3.064 -0.1594  0.4760  0.1453
10018TIP3    H129990   0.725   2.461   3.107 -0.4372 -2.0312 -2.3037
10018TIP3    H229991   0.771   2.571   3.014 -0.7063  0.4372  0.4386
10019TIP3   OH229992   2.106   1.622   6.104  0.1536 -0.8792 -0.0741
10019TIP3    H129993   2.097   1.680   6.028 -2.1566 -1.4556 -0.2644
10019TIP3    H229994   2.153   1.545   6.070  1.3907 -0.0377 -0.3017
10020TIP3   OH229995   0.602   0.957   5.786 -0.2034 -0.5644  0.1156
10020TIP3    H129996   0.694   0.979   5.800 -0.2755 -0.5589  0.5918
10020TIP3    H229997   0.558   1.042   5.777 -0.5712 -0.4872  2.5263
10021TIP3   OH229998   8.466   1.975   5.210 -0.1123 -0.7661  0.5988
10021TIP3    H129999   8.557   1.963   5.237 -0.4287  0.5623  2.3359
10021TIP3    H230000   8.421   1.898   5.243  0.3521 -1.3631 -0.1490
10022TIP3   OH230001   7.867   2.126   4.931 -0.7643 -0.2929 -0.7134
10022TIP3    H130002   7.891   2.174   4.852 -0.5056  0.2777 -0.2873
10022TIP3    H230003   7.840   2.193   4.993  0.1028 -0.6544  0.0636
10023TIP3   OH230004   7.607   2.453   4.645 -0.3295  0.0805 -0.1989
10023TIP3    H130005   7.685   2.468   4.592 -0.4287 -1.6845 -0.9026
10023TIP3    H230006   7.627   2.373   4.695 -1.6986 -0.4346 -0.4543
10024TIP3   OH230007   7.251   1.438   6.666 -0.2748  0.3076 -0.3359
10024TIP3    H130008   7.168   1.402   6.634 -0.6182  1.8084 -1.1397
10024TIP3    H230009   7.227   1.484   6.747  0.1798 -1.3025  0.7410
10025TIP3   OH230010   0.628   2.049   3.380 -0.3924  0.1560 -0.8652
10025TIP3    H130011   0.588   2.114   3.322 -0.2231  1.8178  0.8247
10025TIP3    H230012   0.713   2.087   3.403 -1.1129  0.3081  1.7274
10026TIP3   OH230013   7.240   0.825   4.839 -0.3075 -0.2952  0.7460
10026TIP3    H130014   7.219   0.855   4.927 -0.0379  0.9449  0.4026
10026TIP3    H230015   7.332   0.798   4.844  0.7214  2.8359  0.1127
10027TIP3   OH230016   1.963   2.121   3.510  0.2432  0.5685 -0.0736
10027TIP3    H130017   1.871   2.109   3.531  0.0461 -1.4531 -1.9645
10027TIP3    H230018   1.972   2.088   3.420  2.8909  0.3023  0.2494
10028TIP3   OH230019   6.550   2.038   6.137 -0.2024  0.0569  0.2118
10028TIP3    H130020   6.487   2.105   6.110 -0.0561  1.1316  2.4916
10028TIP3    H230021   6.576   1.996   6.055 -1.7977  1.4375 -1.0431
10029TIP3   OH230022   1.368   0.730   6.660  0.6013  0.3221  0.2188
10029TIP3    H130023   1.309   0.788   6.709  0.4375  0.0236  0.3743
10029TIP3    H230024   1.452   0.738   6.705  0.2785 -0.4937  0.9814
10030TIP3   OH230025   0.621   0.386   4.907 -0.2001  0.4406  0.0580
10030TIP3    H130026   0.698   0.440   4.894 -0.2214  0.6089  0.6088
10030TIP3    H230027   0.595   0.403   4.998 -1.7258  1.4660 -0.5616
10031TIP3   OH230028   2.414   7.075   1.169 -0.3019 -0.1998 -0.5764
10031TIP3    H130029   2.497   7.104   1.133 -0.8059  1.7195 -0.2438
10031TIP3    H230030   2.435   7.045   1.257  0.0986 -0.0209 -0.6093
10032TIP3   OH230031   0.801   0.949   4.919 -0.4789 -0.0272 -0.5774
10032TIP3    H130032   0.788   1.027   4.972  1.4637 -0.4668  0.5905
10032TIP3    H230033   0.713   0.912   4.909 -1.0643  0.8759  1.0730
10033TIP3   OH230034   0.623   1.957   6.914 -0.3776 -0.4271 -0.8388
10033TIP3    H130035   0.570   1.921   6.842  0.3182 -1.4179 -0.8666
10033TIP3    H230036   0.618   1.890   6.982  1.4518 -0.8846 -1.1371
10034TIP3   OH230037   8.300   1.801   5.626  0.5495 -0.1101  0.2987
10034TIP3    H130038   8.246   1.878   5.612  1.3859  0.2848 -0.7577
10034TIP3    H230039   8.324   1.772   5.538  1.3607 -0.7798  0.7384
10035TIP3   OH230040   2.528   1.202   6.125 -0.2634  0.0156  0.2126
10035TIP3    H130041   2.595   1.134   6.138  0.5628  0.2342 -2.5150
10035TIP3    H230042   2.454   1.155   6.088 -0.0638  0.4305 -0.7207
10036TIP3   OH230043   1.679   2.104   6.742  0.3818 -0.0497 -0.1556
10036TIP3    H130044   1.659   2.193   6.715  0.0058 -0.4486 -1.2225
10036TIP3    H230045   1.595   2.067   6.767  0.2056 -0.7742 -1.7623
10037TIP3   OH230046   5.873   7.899   5.980  0.3281 -0.1731  0.2255
10037TIP3    H130047   5.785   7.878   6.012 -0.5345 -0.1111 -2.0154
10037TIP3    H230048   5.911   7.952   6.049 -0.9273 -1.2403  1.7909
10038TIP3   OH230049   7.882   1.132   5.059  0.3865 -0.3405  0.3373
10038TIP3    H130050   7.975   1.114   5.075  0.1432 -1.7274  0.2407
10038TIP3    H230051   7.856   1.067   4.995 -0.4585  0.5738 -0.2532
10039TIP3   OH230052   7.072   2.871   4.944  0.1394  0.3784 -0.7367
10039TIP3    H130053   7.069   2.832   4.856  0.2844 -1.3134 -0.0169
10039TIP3    H230054   7.146   2.931   4.941  1.7764 -1.6136 -1.0081
10040TIP3   OH230055   0.485   1.566   6.732  0.4117 -0.4754  0.0485
10040TIP3    H130056   0.540   1.527   6.801 -2.0761 -1.2859  1.6510
10040TIP3    H230057   0.419   1.498   6.713 -1.5761  1.4127  0.0222
10041TIP3   OH230058   4.833   6.467   0.147  0.2285  0.1435  0.3463
10041TIP3    H130059   4.916   6.502   0.115  1.7469 -0.3122  3.6303
10041TIP3    H230060   4.805   6.526   0.216 -1.7336 -0.2297 -0.0783
10042TIP3   OH230061   1.580   4.016   4.989  0.0149 -0.1615 -0.3249
10042TIP3    H130062   1.656   4.066   4.959 -1.1250  1.7614 -0.1491
10042TIP3    H230063   1.559   3.959   4.916  1.5685 -0.6542 -0.4083
10043TIP3   OH230064   4.752   5.666   0.593  0.3699 -0.3665  0.4649
10043TIP3    H130065   4.733   5.646   0.684 -1.6556 -0.0271  0.1250
10043TIP3    H230066   4.689   5.615   0.542  2.7665 -2.1355 -0.8686
10044TIP3   OH230067   1.979   5.848   0.731 -0.0918 -0.0644  0.2581
10044TIP3    H130068   2.040   5.786   0.771 -0.5693  0.0418  1.1685
10044TIP3    H230069   1.986   5.831   0.637 -0.5229 -1.7969  0.5194
10045TIP3   OH230070   7.446   1.807   0.443 -0.0894 -0.3790  0.6934
10045TIP3    H130071   7.380   1.876   0.436 -1.3930 -1.5830  0.7124
10045TIP3    H230072   7.437   1.775   0.533 -1.9010 -2.8404 -0.2744
10046TIP3   OH230073   6.592   6.607   2.266  0.1910 -0.6414  0.3505
10046TIP3    H130074   6.497   6.609   2.253  0.1955  0.9327  0.4345
10046TIP3    H230075   6.611   6.517   2.291 -1.3959 -0.7696  1.1810
10047TIP3   OH230076   6.767   6.446   2.457  0.6989 -0.1508 -0.7974
10047TIP3    H130077   6.853   6.453   2.498  0.6566  1.6247 -0.9380
10047TIP3    H230078   6.714   6.511   2.503 -1.0816 -2.4736  0.4942
10048TIP3   OH230079   2.828   0.549   6.799  0.0557 -0.1498  0.2497
10048TIP3    H130080   2.790   0.580   6.881  0.1802 -0.0869  0.2834
10048TIP3    H230081   2.876   0.469   6.824  0.4529  0.1063  0.3153
10049TIP3   OH230082   1.078   1.233   6.854 -0.1842  0.1212  0.7477
10049TIP3    H130083   1.057   1.203   6.943  1.5135  0.0906  1.1583
10049TIP3    H230084   1.132   1.311   6.868  1.2152 -0.6603 -0.2374
10050TIP3   OH230085   2.538   1.979   4.954  0.2583 -0.0390  0.1849
10050TIP3    H130086   2.611   1.994   4.894 -0.2668  0.8820 -0.2353
10050TIP3    H230087   2.465   2.025   4.914 -0.2821 -0.0433  1.1668
10051TIP3   OH230088   3.571   5.160   1.173  0.2750 -0.5569  0.5977
10051TIP3    H130089   3.521   5.166   1.092  1.2838  1.0029  0.0449
10051TIP3    H230090   3.560   5.070   1.202 -0.9737 -0.8470 -0.7060
10052TIP3   OH230091   2.568   6.150   3.446 -0.2169  0.3016  0.0610
10052TIP3    H130092   2.658   6.164   3.415 -0.6218  1.2894 -0.6788
10052TIP3    H230093   2.538   6.072   3.399  0.5091 -0.4955  0.8867
10053TIP3   OH230094   4.992   6.076   0.281  0.4417 -0.2366  0.2833
10053TIP3    H130095   4.903   6.112   0.287  0.5366 -0.1271  1.0551
10053TIP3    H230096   5.047   6.152   0.263  0.3035 -0.3954 -0.8409
10054TIP3   OH230097   1.464   1.820   5.658 -0.5686  0.5669  0.1801
10054TIP3    H130098   1.386   1.870   5.632  0.1412  1.5921  0.0097
10054TIP3    H230099   1.535   1.860   5.609  0.0352 -0.5264  0.1624
10055TIP3   OH230100   5.993   0.553   0.625 -0.1049  0.0317  0.3479
10055TIP3    H130101   6.072   0.516   0.585  0.3693  0.9494  0.4180
10055TIP3    H230102   5.958   0.611   0.558 -0.3353  0.1583  0.5802
10056TIP3   OH230103   4.680   6.693   0.970 -0.1764  0.1438  0.2698
10056TIP3    H130104   4.587   6.675   0.984 -0.1894 -0.7154 -0.8178
10056TIP3    H230105   4.682   6.774   0.920 -0.3681 -0.2260 -0.3372
10057TIP3   OH230106   4.408   5.551   3.762 -0.3371  0.2743 -0.6239
10057TIP3    H130107   4.418   5.616   3.692 -1.1571  0.5991 -0.4492
10057TIP3    H230108   4.498   5.533   3.791 -0.1809  2.4428  0.3235
10058TIP3   OH230109   4.634   7.532   1.560  0.0294 -0.1944 -0.6967
10058TIP3    H130110   4.590   7.447   1.562 -0.2069 -0.1260 -2.2146
10058TIP3    H230111   4.647   7.550   1.467  0.7418  1.0914 -0.3604
10059TIP3   OH230112   2.047   0.868   6.433  0.2456 -0.3674  0.2313
10059TIP3    H130113   2.059   0.785   6.387  1.0888 -1.5788  2.5269
10059TIP3    H230114   2.135   0.890   6.466 -0.6182 -0.4461  2.6930
10060TIP3   OH230115   2.793   6.152   0.707 -0.0892  0.2847  0.0087
10060TIP3    H130116   2.727   6.209   0.746  0.2318 -0.2427  1.3440
10060TIP3    H230117   2.748   6.068   0.693  0.7538 -0.6210  2.5497
10061TIP3   OH230118   1.047   1.596   6.013  0.1161 -0.1165 -0.4447
10061TIP3    H130119   1.076   1.681   6.046  0.3450  0.6299 -2.4812
10061TIP3    H230120   1.079   1.593   5.923 -0.2515 -2.1941 -0.5371
10062TIP3   OH230121   2.791   1.639   5.295  0.0297  0.0679 -0.9662
10062TIP3    H130122   2.726   1.622   5.227 -1.2233 -0.1561  0.2656
10062TIP3    H230123   2.818   1.552   5.325  0.4046  0.1684 -1.0081
10063TIP3   OH230124   4.325   7.465   0.056 -0.2458  0.2345  0.4073
10063TIP3    H130125   4.297   7.489   0.144 -0.1892 -0.5913  0.6588
10063TIP3    H230126   4.420   7.453   0.064 -0.1115  1.0489  0.0244
10064TIP3   OH230127   4.321   7.127   0.628  0.1285  0.5568 -0.0921
10064TIP3    H130128   4.379   7.135   0.704 -1.1586 -0.7361  1.0481
10064TIP3    H230129   4.374   7.080   0.563 -0.3175 -2.5542  1.7175
10065TIP3   OH230130   0.983   4.913   6.697 -0.1098  0.1381  0.1668
10065TIP3    H130131   0.957   4.959   6.617  0.0345 -0.7324 -0.3915
10065TIP3    H230132   0.973   4.977   6.767 -1.5681  0.4898 -0.3642
10066TIP3   OH230133   2.433   5.891   0.219 -0.3647 -0.9473 -0.1954
10066TIP3    H130134   2.442   5.923   0.130 -2.2803 -0.2224 -0.1540
10066TIP3    H230135   2.339   5.882   0.232 -0.0332 -3.1359  1.0227
10067TIP3   OH230136   2.054   2.677   5.452 -0.1356 -0.0173  0.1714
10067TIP3    H130137   1.991   2.749   5.451 -0.3715 -0.2225 -0.7805
10067TIP3    H230138   2.139   2.718   5.442 -0.2008  0.1928  0.4821
10068TIP3   OH230139   5.045   6.143   1.238  0.8243 -0.2128  0.4528
10068TIP3    H130140   5.100   6.136   1.161 -0.4791 -1.3188 -0.4006
10068TIP3    H230141   4.966   6.094   1.216  0.3636 -0.4053  2.4200
10069TIP3   OH230142   3.799   5.782   1.770  0.1051  0.1099  0.3183
10069TIP3    H130143   3.780   5.776   1.864 -0.2728  1.9153  0.3713
10069TIP3    H230144   3.765   5.867   1.744 -2.7428 -1.6816 -2.1683
10070TIP3   OH230145   1.030   2.379   5.223 -0.4761  0.2314  0.0702
10070TIP3    H130146   0.986   2.346   5.301 -0.4191 -2.1016 -0.8604
10070TIP3    H230147   1.113   2.415   5.255 -1.7506  2.0248  1.4422
10071TIP3   OH230148   5.604   5.942   0.310  0.4431 -0.2072  0.3532
10071TIP3    H130149   5.569   6.023   0.349 -1.6133 -0.3590 -1.1333
10071TIP3    H230150   5.639   5.970   0.226  1.8371 -0.4831  0.8308
10072TIP3   OH230151   5.523   5.380   0.817  0.5131 -0.2257  0.2778
10072TIP3    H130152   5.601   5.437   0.820  0.1012  0.2973  1.2228
10072TIP3    H230153   5.543   5.309   0.877  0.5517 -0.4733 -0.0275
10073TIP3   OH230154   2.070   2.215   5.312  0.1219 -0.1330  0.7513
10073TIP3    H130155   2.153   2.231   5.266  0.7598 -0.1430  1.8788
10073TIP3    H230156   2.059   2.292   5.368  0.0362 -0.7476  1.5830
10074TIP3   OH230157   2.429   2.659   4.116 -0.2617  0.2427 -0.3906
10074TIP3    H130158   2.355   2.650   4.056 -2.3340 -1.0012  2.2788
10074TIP3    H230159   2.390   2.684   4.200  2.1537 -1.9403  1.4667
10075TIP3   OH230160   5.178   5.305   0.825 -0.0411  0.2257 -0.7105
10075TIP3    H130161   5.102   5.276   0.875 -0.2517  2.3421  0.2144
10075TIP3    H230162   5.232   5.353   0.887  3.3914 -3.3693 -0.6761
10076TIP3   OH230163   4.959   7.860   2.530 -0.4325  0.5815  0.1056
10076TIP3    H130164   5.049   7.862   2.496 -0.8445  0.4804 -1.0068
10076TIP3    H230165   4.925   7.775   2.502 -1.1737  0.9981 -0.2559
10077TIP3   OH230166   7.593   4.436   6.216  0.0294  0.0585  0.4213
10077TIP3    H130167   7.645   4.497   6.267  0.6523  1.4111 -1.7518
10077TIP3    H230168   7.610   4.351   6.256  1.9054  0.8231  1.3288
10078TIP3   OH230169   2.919   7.582   0.263  0.7004 -0.1699  0.5188
10078TIP3    H130170   2.990   7.608   0.322 -0.9325  0.3075  2.3276
10078TIP3    H230171   2.840   7.617   0.304 -0.5274 -0.2198 -1.7515
10079TIP3   OH230172   2.252   2.604   3.655  0.4099  0.0283 -0.1198
10079TIP3    H130173   2.160   2.629   3.645  0.2778 -0.4929 -0.2238
10079TIP3    H230174   2.274   2.560   3.573  0.8292  0.3876 -0.2001
10080TIP3   OH230175   2.200   1.459   6.330  0.3098 -0.6633 -0.4779
10080TIP3    H130176   2.181   1.366   6.345 -0.9152 -0.0513  2.1324
10080TIP3    H230177   2.269   1.479   6.394  2.6910 -0.4105 -2.9971
10081TIP3   OH230178   6.320   6.057   0.588 -0.2308 -0.7541  0.2017
10081TIP3    H130179   6.229   6.086   0.591 -0.0477 -0.3118  1.9720
10081TIP3    H230180   6.321   5.974   0.634  0.2596 -0.7741  0.1606
10082TIP3   OH230181   3.298   5.611   2.088 -0.9194  0.2055 -0.0034
10082TIP3    H130182   3.324   5.652   2.005 -1.0283  0.6774  0.1991
10082TIP3    H230183   3.306   5.517   2.071 -2.5337  0.2404 -1.0692
10083TIP3   OH230184   4.455   5.693   1.979 -0.4223 -0.1124 -0.2223
10083TIP3    H130185   4.470   5.782   1.945 -0.4513 -0.4420 -1.1277
10083TIP3    H230186   4.361   5.689   1.996 -0.4375  0.0004 -0.2825
10084TIP3   OH230187   4.397   7.100   2.807  0.1594  0.1258  0.0240
10084TIP3    H130188   4.416   7.040   2.879 -0.4232  0.0698  0.1304
10084TIP3    H230189   4.307   7.127   2.821 -0.0112 -0.0090 -0.7776
10085TIP3   OH230190   2.425   2.678   4.515  0.5288 -0.6664  0.0319
10085TIP3    H130191   2.484   2.611   4.482  1.0282  0.0722 -0.5903
10085TIP3    H230192   2.474   2.760   4.508 -0.4889 -0.0691 -0.3258
10086TIP3   OH230193   0.502   1.365   6.445 -0.3332  0.5641 -1.0496
10086TIP3    H130194   0.584   1.412   6.431 -1.1405  1.7942 -1.6739
10086TIP3    H230195   0.455   1.373   6.362 -0.9336 -0.4472 -0.8161
10087TIP3   OH230196   3.955   4.147   0.485  0.0393 -0.7533 -0.4730
10087TIP3    H130197   3.995   4.228   0.455  1.1807 -0.5272  1.6115
10087TIP3    H230198   3.874   4.174   0.528  0.8756 -0.6043  1.0469
10088TIP3   OH230199   0.499   1.827   6.736 -0.1565  0.3513 -0.2811
10088TIP3    H130200   0.412   1.855   6.706 -0.6251  1.0903  1.6943
10088TIP3    H230201   0.492   1.732   6.745 -1.3868  0.6198  1.7917
10089TIP3   OH230202   6.093   5.412   2.633  0.2454  0.2168 -0.6221
10089TIP3    H130203   6.036   5.445   2.702  1.0943  1.7051 -0.6029
10089TIP3    H230204   6.104   5.319   2.652 -1.1195  0.1910  0.1005
10090TIP3   OH230205   5.369   6.336   2.942  0.3113  0.8174  0.0841
10090TIP3    H130206   5.328   6.343   3.029  1.6372  1.8650  0.6327
10090TIP3    H230207   5.296   6.314   2.884 -0.6744  0.5341  1.3864
10091TIP3   OH230208   1.376   2.945   6.807  0.3105 -0.2230 -0.7700
10091TIP3    H130209   1.456   2.927   6.758  0.8722  0.4864 -0.1164
10091TIP3    H230210   1.318   2.872   6.786  0.9968 -0.5516 -1.5255
10092TIP3   OH230211   0.701   3.004   6.020 -0.2222  0.0765  0.6619
10092TIP3    H130212   0.627   2.943   6.021 -0.2647  0.0769 -1.0166
10092TIP3    H230213   0.763   2.965   5.958  0.2178  1.2031  0.3880
10093TIP3   OH230214   4.896   5.634   1.754 -1.0253 -0.0071 -0.2057
10093TIP3    H130215   4.838   5.699   1.794 -0.6557 -0.6081  1.3470
10093TIP3    H230216   4.856   5.614   1.669 -2.8667 -0.1191  0.6701
10094TIP3   OH230217   3.195   4.558   1.081  0.7560  0.8780 -0.2638
10094TIP3    H130218   3.283   4.576   1.115  1.2384  0.4135 -1.2515
10094TIP3    H230219   3.138   4.562   1.158  2.2541 -3.4239  1.2090
10095TIP3   OH230220   4.006   4.467   1.600  1.5002 -0.0978 -0.1761
10095TIP3    H130221   4.092   4.460   1.557  1.5983 -2.4972  0.3575
10095TIP3    H230222   4.003   4.392   1.659 -1.3393 -0.5136 -0.8099
10096TIP3   OH230223   1.840   2.838   6.880  0.0515 -0.3417 -0.1362
10096TIP3    H130224   1.832   2.742   6.875  0.0578 -0.4576  1.7210
10096TIP3    H230225   1.922   2.852   6.927 -0.1663  0.5588 -0.0239
10097TIP3   OH230226   6.525   6.001   0.912 -0.7451 -0.3214 -0.1173
10097TIP3    H130227   6.593   6.030   0.851  0.7669 -2.0177  0.7673
10097TIP3    H230228   6.455   5.968   0.855 -0.3085  0.2187 -0.9782
10098TIP3   OH230229   5.117   3.552   0.865 -0.5376 -0.0195 -0.4132
10098TIP3    H130230   5.141   3.508   0.947 -2.7930  0.5481  0.6030
10098TIP3    H230231   5.163   3.503   0.797 -1.8648 -3.1460  0.8007
10099TIP3   OH230232   8.408   1.218   6.589  0.0830 -0.0413 -0.3938
10099TIP3    H130233   8.330   1.174   6.623 -0.2005  1.5539  1.0823
10099TIP3    H230234   8.481   1.177   6.635 -0.1323  0.5544  0.4929
10100TIP3   OH230235   3.007   7.605   1.840 -0.2062  0.3827  0.3594
10100TIP3    H130236   2.957   7.524   1.830  1.1042 -0.1948 -1.6269
10100TIP3    H230237   3.093   7.576   1.869  0.5233  1.0030 -1.1773
10101TIP3   OH230238   2.984   3.323   4.201 -0.1561 -0.2409 -0.3532
10101TIP3    H130239   2.925   3.255   4.234  0.4704 -1.1609 -1.1174
10101TIP3    H230240   2.988   3.308   4.106  0.8723  0.1593 -0.3826
10102TIP3   OH230241   3.417   5.655   2.325  0.0296 -0.4273 -0.3980
10102TIP3    H130242   3.363   5.672   2.247  1.6267 -0.9013 -1.6367
10102TIP3    H230243   3.387   5.718   2.390 -2.0124 -0.6820 -1.0547
10103TIP3   OH230244   5.266   7.345   0.510 -0.7130  0.1657  0.1381
10103TIP3    H130245   5.233   7.369   0.424 -1.8745 -0.7505  0.3141
10103TIP3    H230246   5.301   7.427   0.546  0.5631  0.3776 -1.5224
10104TIP3   OH230247   8.095   1.236   6.968  0.2368  0.2175 -0.2273
10104TIP3    H130248   8.064   1.304   6.909 -1.8299 -1.7257 -1.4761
10104TIP3    H230249   8.176   1.205   6.928  1.7526  2.5800  0.9010
10105TIP3   OH230250   5.367   5.226   0.047 -0.4292  0.0726 -0.0422
10105TIP3    H130251   5.363   5.145   0.098 -3.0968 -0.4644 -1.0051
10105TIP3    H230252   5.372   5.296   0.112 -0.9818 -0.7401  0.8930
10106TIP3   OH230253   3.921   3.925   0.994 -0.3424 -0.0155  0.4574
10106TIP3    H130254   3.981   3.879   1.052 -1.1610  0.4154  1.6602
10106TIP3    H230255   3.898   3.861   0.927 -1.3316 -1.3050  1.9997
10107TIP3   OH230256   5.222   0.258   0.625  0.1170  0.8621  0.1688
10107TIP3    H130257   5.177   0.174   0.618 -1.1104  1.5916 -0.8543
10107TIP3    H230258   5.233   0.270   0.720  1.9892 -1.3032  0.2770
10108TIP3   OH230259   5.501   6.749   2.026  0.0163  0.7933 -0.3420
10108TIP3    H130260   5.470   6.817   1.966 -0.3332 -0.0664 -1.1560
10108TIP3    H230261   5.537   6.797   2.100 -1.4843  1.8544 -0.2662
10109TIP3   OH230262   0.652   2.374   5.838 -0.4873 -0.3282  0.2686
10109TIP3    H130263   0.657   2.435   5.912 -0.3462  0.3695 -0.3059
10109TIP3    H230264   0.586   2.310   5.863  0.5897 -0.9328  1.6116
10110TIP3   OH230265   2.059   6.154   0.101  0.0524 -0.3192 -0.3548
10110TIP3    H130266   2.005   6.230   0.124  0.0256 -0.7411  1.0627
10110TIP3    H230267   2.082   6.116   0.186  0.3283 -1.7044 -1.0475
10111TIP3   OH230268   2.304   2.242   5.156 -0.5363  0.0483 -0.4521
10111TIP3    H130269   2.277   2.174   5.094 -1.3714  0.1462 -0.2092
10111TIP3    H230270   2.384   2.278   5.119  0.2883 -1.5323 -0.2336
10112TIP3   OH230271   2.609   1.146   6.730 -0.8292 -0.1624 -0.2826
10112TIP3    H130272   2.587   1.183   6.816  0.4581  0.4780 -0.2088
10112TIP3    H230273   2.663   1.070   6.751 -0.0415  0.3226 -0.5302
10113TIP3   OH230274   1.554   3.512   6.059 -0.6787 -0.1270 -0.1801
10113TIP3    H130275   1.548   3.496   5.965  0.1083  1.1741 -0.4711
10113TIP3    H230276   1.648   3.510   6.078 -0.8531 -0.7118  0.6396
10114TIP3   OH230277   2.100   1.865   5.932  0.5971  0.0384  0.4215
10114TIP3    H130278   2.180   1.839   5.886 -0.1515  1.5731 -1.8474
10114TIP3    H230279   2.124   1.946   5.977  0.1498  0.8442 -0.7844
10115TIP3   OH230280   5.036   6.825   0.381 -0.0675 -0.1171  0.8227
10115TIP3    H130281   5.025   6.730   0.386  0.9648 -0.1994  1.6620
10115TIP3    H230282   4.947   6.858   0.368 -0.5180 -1.1652  1.1537
10116TIP3   OH230283   3.412   1.096   5.683  0.2496 -0.8130  0.1618
10116TIP3    H130284   3.352   1.023   5.670  0.3606 -1.1041  1.2150
10116TIP3    H230285   3.362   1.173   5.655 -0.1909 -1.1877 -0.0921
10117TIP3   OH230286   4.004   4.954   0.130 -0.2102 -0.4162 -0.8916
10117TIP3    H130287   3.995   4.859   0.129  0.4775 -0.5399  1.0522
10117TIP3    H230288   4.092   4.969   0.166 -0.4256  0.9466 -0.9191
10118TIP3   OH230289   4.612   5.957   0.219  0.0329  0.1573 -0.2275
10118TIP3    H130290   4.624   5.957   0.124 -0.2072  1.1935 -0.2686
10118TIP3    H230291   4.671   6.025   0.251  0.7405 -0.7645  0.4594
10119TIP3   OH230292   1.536   1.030   6.424  0.2375 -0.3294 -0.2628
10119TIP3    H130293   1.446   1.012   6.398  0.9636 -0.9975 -2.3949
10119TIP3    H230294   1.539   1.124   6.439 -0.8880 -0.3560  0.1710
10120TIP3   OH230295   0.300   0.369   5.757 -0.2994 -0.2464 -0.0151
10120TIP3    H130296   0.224   0.382   5.814  1.1370 -0.7906  2.0671
10120TIP3    H230297   0.375   0.393   5.811  1.2409 -2.4701 -1.0944
10121TIP3   OH230298   4.464   5.278   1.700  0.2775  0.5676  0.1266
10121TIP3    H130299   4.420   5.243   1.777 -0.6901  1.7373  0.1185
10121TIP3    H230300   4.529   5.339   1.736 -1.8907  3.0339 -0.0482
10122TIP3   OH230301   1.922   5.325   0.268 -0.2061  0.4120 -0.6783
10122TIP3    H130302   1.958   5.252   0.320  1.1442  0.0957 -2.0302
10122TIP3    H230303   1.854   5.284   0.215 -2.0490  0.8542  1.2591
10123TIP3   OH230304   0.376   1.681   5.090  0.0275  0.1163  0.1641
10123TIP3    H130305   0.373   1.587   5.073  2.0787  0.2142 -0.8311
10123TIP3    H230306   0.284   1.707   5.094 -0.5945 -2.1725  1.9732
10124TIP3   OH230307   5.665   7.038   1.002 -0.2974  0.2778  0.4274
10124TIP3    H130308   5.682   6.952   0.962  0.0191 -0.6641  2.5312
10124TIP3    H230309   5.655   7.097   0.927  0.5867 -1.3702 -1.0383
10125TIP3   OH230310   5.287   5.982   1.899  0.2445 -0.4524 -0.2282
10125TIP3    H130311   5.249   5.965   1.985 -1.4038 -0.9062 -1.0292
10125TIP3    H230312   5.371   6.025   1.918 -0.5975  0.4545  1.5587
10126TIP3   OH230313   3.375   4.325   1.501  0.2833  0.4434 -0.1000
10126TIP3    H130314   3.401   4.416   1.511  1.0240  0.1191  0.9268
10126TIP3    H230315   3.390   4.285   1.586 -1.5445 -0.2763 -0.0829
10127TIP3   OH230316   4.695   5.541   0.841 -0.5050  0.2937 -0.4444
10127TIP3    H130317   4.724   5.612   0.898 -0.7011  0.5732 -0.6912
10127TIP3    H230318   4.604   5.527   0.865  0.4554 -2.1715  1.9709
10128TIP3   OH230319   5.302   6.763   0.488  0.1853 -0.4371  0.4707
10128TIP3    H130320   5.337   6.762   0.399 -0.6540 -1.1829  0.1415
10128TIP3    H230321   5.221   6.814   0.482  0.2424 -0.2929  0.8576
10129TIP3   OH230322   3.859   6.739   0.491  0.0206 -0.3261 -0.2173
10129TIP3    H130323   3.822   6.747   0.579  3.7109  0.8459  1.3298
10129TIP3    H230324   3.832   6.652   0.461 -1.0334 -0.8731  2.2327
10130TIP3   OH230325   0.843   2.727   6.626  0.3494  0.2504 -0.3565
10130TIP3    H130326   0.839   2.635   6.651 -0.0975  0.5331  0.6513
10130TIP3    H230327   0.935   2.751   6.637  0.4025  0.0160 -0.2831
10131TIP3   OH230328   0.547   0.689   5.537 -0.1011 -0.1804  0.5006
10131TIP3    H130329   0.517   0.746   5.607 -0.6907 -0.6070  0.6012
10131TIP3    H230330   0.639   0.670   5.559  0.2695  1.1847  0.1465
10132TIP3   OH230331   8.389   3.194   6.762 -0.0696 -0.4782  0.1392
10132TIP3    H130332   8.430   3.274   6.729  0.6638 -0.9441 -0.0973
10132TIP3    H230333   8.297   3.218   6.774 -0.1945 -0.0841 -1.5111
10133TIP3   OH230334   1.788   6.641   1.119  0.2785 -0.5869 -0.4684
10133TIP3    H130335   1.701   6.641   1.159  0.4272 -2.9525 -0.1090
10133TIP3    H230336   1.771   6.650   1.025 -0.3176 -0.2237 -0.3291
10134TIP3   OH230337   1.163   1.325   4.835  0.6083  0.1071  0.3412
10134TIP3    H130338   1.094   1.284   4.887  0.8141 -0.5302  0.1055
10134TIP3    H230339   1.234   1.342   4.897  0.6859 -0.2638  0.3522
10135TIP3   OH230340   1.613   1.873   5.245 -0.4420  0.1207  0.2883
10135TIP3    H130341   1.612   1.826   5.162 -2.3061 -0.2794  0.5205
10135TIP3    H230342   1.534   1.927   5.243 -0.7853 -0.2924  2.0319
10136TIP3   OH230343   2.499   2.069   3.863 -0.0165  0.1345  0.0460
10136TIP3    H130344   2.515   2.009   3.935 -1.1855 -0.1650  0.0548
10136TIP3    H230345   2.583   2.113   3.850  0.3207 -0.1178  1.2984
10137TIP3   OH230346   4.523   5.347   1.113  0.6939 -0.3018 -0.3104
10137TIP3    H130347   4.481   5.405   1.050 -0.8055 -2.5228 -1.4075
10137TIP3    H230348   4.453   5.324   1.174  1.5843 -0.0029  0.8412
10138TIP3   OH230349   0.519   2.569   6.312 -0.0130 -0.5935  0.0134
10138TIP3    H130350   0.496   2.525   6.393 -1.4580 -0.3775 -0.2722
10138TIP3    H230351   0.438   2.571   6.261  0.9735 -1.1050 -1.6166
10139TIP3   OH230352   5.336   6.652   1.468 -0.1764  0.0321  0.0995
10139TIP3    H130353   5.266   6.678   1.409 -1.1443 -0.6407  0.9236
10139TIP3    H230354   5.394   6.598   1.414 -1.6960 -1.5923  0.0260
10140TIP3   OH230355   2.971   6.641   1.195 -0.1951  0.2447  0.6083
10140TIP3    H130356   3.027   6.574   1.236 -1.5739 -2.4382 -1.7529
10140TIP3    H230357   3.032   6.693   1.143  0.4877 -1.1203  0.0042
10141TIP3   OH230358   7.070   1.685   2.132 -0.1892 -0.0684  0.0655
10141TIP3    H130359   7.044   1.765   2.087 -2.8267 -0.8372  0.1484
10141TIP3    H230360   7.113   1.716   2.212 -2.7521  1.3017  0.9783
10142TIP3   OH230361   3.999   7.718   1.192 -0.6918  1.0701  0.3453
10142TIP3    H130362   4.030   7.711   1.283 -0.5860  0.3710  0.2630
10142TIP3    H230363   3.954   7.635   1.176  0.2866  0.7131 -0.6104
10143TIP3   OH230364   3.639   0.332   6.342 -0.0380 -0.2274  0.6551
10143TIP3    H130365   3.692   0.323   6.263  1.3836  2.6505  1.1952
10143TIP3    H230366   3.668   0.261   6.398  0.5893 -0.9164 -0.5195
10144TIP3   OH230367   6.504   7.067   1.157  0.4243 -1.1114  0.3548
10144TIP3    H130368   6.461   7.123   1.222  0.9205 -0.1390 -0.1418
10144TIP3    H230369   6.592   7.052   1.193  1.2574  0.7671 -0.8418
10145TIP3   OH230370   6.520   7.602   0.987 -0.0085  0.1516  0.2335
10145TIP3    H130371   6.493   7.516   0.953 -0.8713 -1.0860  3.8246
10145TIP3    H230372   6.459   7.619   1.059  1.7840  2.5938  1.2368
10146TIP3   OH230373   3.315   5.462   5.954  0.7231 -0.6785  0.3309
10146TIP3    H130374   3.254   5.466   5.880  1.4746  0.9855 -0.2097
10146TIP3    H230375   3.292   5.381   5.999 -1.2520 -0.5554 -0.4136
10147TIP3   OH230376   7.309   6.292   0.745 -0.9208 -0.0226 -0.1402
10147TIP3    H130377   7.327   6.359   0.680 -2.8820  0.4397 -0.2488
10147TIP3    H230378   7.227   6.320   0.786 -0.4239 -1.0078  1.5984
10148TIP3   OH230379   2.945   0.680   5.819  0.6001  0.6571 -0.1389
10148TIP3    H130380   3.039   0.665   5.812  0.4781 -0.7977  1.0610
10148TIP3    H230381   2.908   0.641   5.740  0.6436 -2.4581  1.2941
10149TIP3   OH230382   3.112   6.830   2.740  0.1579  0.2216  0.4125
10149TIP3    H130383   3.135   6.892   2.672  0.2635  2.4875  2.4471
10149TIP3    H230384   3.016   6.831   2.743  0.1611  0.3157  0.4763
10150TIP3   OH230385   4.184   6.604   0.103 -0.2772 -0.5237 -0.2692
10150TIP3    H130386   4.256   6.549   0.134  0.8602 -0.2838 -2.3634
10150TIP3    H230387   4.113   6.543   0.085 -0.2662 -0.8778  0.8342
10151TIP3   OH230388   6.487   5.794   1.131 -0.0667 -0.2723  0.4896
10151TIP3    H130389   6.476   5.851   1.055  0.3785 -1.3600 -0.4052
10151TIP3    H230390   6.425   5.723   1.117  2.4212 -2.3054 -0.6329
10152TIP3   OH230391   5.044   7.063   2.215  0.4825 -0.0633 -0.3696
10152TIP3    H130392   5.037   6.973   2.246 -0.3527  0.2440  0.3568
10152TIP3    H230393   5.077   7.112   2.291 -0.7099  0.5417 -0.2417
10153TIP3   OH230394   5.454   2.524   0.748 -0.6406 -0.4163  0.4210
10153TIP3    H130395   5.543   2.554   0.730 -1.1028  0.2568 -0.7946
10153TIP3    H230396   5.459   2.486   0.836  1.0231 -1.1058  0.0543
10154TIP3   OH230397   0.050   0.603   6.152 -0.1196  0.1516  0.4154
10154TIP3    H130398   0.135   0.578   6.190  0.1964  0.1669 -0.2807
10154TIP3    H230399  -0.010   0.602   6.227  0.3067 -0.7074  0.7626
10155TIP3   OH230400   3.569   5.382   1.687  0.2985 -0.7280  0.3165
10155TIP3    H130401   3.626   5.319   1.642  0.5688  1.7842 -3.0821
10155TIP3    H230402   3.487   5.378   1.638  0.2643  1.4108  0.1711
10156TIP3   OH230403   4.280   7.323   0.885  0.1156 -0.4964  1.2535
10156TIP3    H130404   4.347   7.264   0.849  1.5611  0.8028  1.7445
10156TIP3    H230405   4.292   7.405   0.837  0.1522  0.3470  2.6772
10157TIP3   OH230406   0.340   4.016   6.861 -0.0446 -0.4008  0.9004
10157TIP3    H130407   0.373   3.978   6.779  0.9788  1.2754  0.5095
10157TIP3    H230408   0.266   3.960   6.885 -0.6051 -0.6924 -1.3762
10158TIP3   OH230409   5.021   7.481   1.440 -0.4708  0.2909  0.1264
10158TIP3    H130410   5.104   7.517   1.409  0.2127 -1.5668 -0.2069
10158TIP3    H230411   4.954   7.530   1.391  0.3784  2.1238  0.7328
10159TIP3   OH230412   2.620   7.383   1.024  0.1375 -0.7855 -0.4105
10159TIP3    H130413   2.625   7.288   1.026 -0.1614 -0.7871  1.4627
10159TIP3    H230414   2.529   7.402   1.047  0.6113 -0.0358  0.9434
10160TIP3   OH230415   4.172   6.517   0.444 -0.1636 -0.5474 -0.1438
10160TIP3    H130416   4.108   6.479   0.505 -1.7864  1.6675 -0.3695
10160TIP3    H230417   4.159   6.611   0.452  2.4465 -0.0789 -0.9450
10161TIP3   OH230418   2.472   4.038   6.598  0.1659 -0.1943 -0.3908
10161TIP3    H130419   2.553   4.026   6.549  0.2769  2.5567 -0.9442
10161TIP3    H230420   2.499   4.042   6.690  0.6601  0.6823 -0.5722
10162TIP3   OH230421   1.617   2.779   6.208 -0.1546 -0.1851 -0.1545
10162TIP3    H130422   1.573   2.851   6.254 -0.9331 -0.6313 -0.2069
10162TIP3    H230423   1.707   2.812   6.195 -0.4523  0.7098 -0.0257
10163TIP3   OH230424   1.069   4.670   5.884  0.5781 -0.0113 -0.1795
10163TIP3    H130425   1.122   4.606   5.836  1.3982  1.2086 -0.9083
10163TIP3    H230426   1.116   4.682   5.967  0.6558 -0.0085 -0.2246
10164TIP3   OH230427   2.034   7.355   1.993 -0.0461 -0.0229  0.3239
10164TIP3    H130428   2.122   7.335   2.026 -0.0797 -0.4732  0.1484
10164TIP3    H230429   2.038   7.330   1.900 -0.1626  0.5712  0.1577
10165TIP3   OH230430   3.110   6.805   1.015 -0.3332  0.4352  0.7349
10165TIP3    H130431   3.150   6.746   0.952 -2.4590  0.0727 -0.3365
10165TIP3    H230432   3.114   6.891   0.974 -2.5480  0.0528 -0.3506
10166TIP3   OH230433   4.697   5.148   1.209  0.0547  0.5293 -0.4889
10166TIP3    H130434   4.655   5.183   1.288 -0.2671 -2.0363  0.5250
10166TIP3    H230435   4.646   5.186   1.137 -0.7008  1.5918  0.5762
10167TIP3   OH230436   6.000   6.087   0.383  0.0501  0.1502  0.1889
10167TIP3    H130437   5.952   6.004   0.379 -0.7935  0.5554  1.3352
10167TIP3    H230438   6.032   6.090   0.473  2.8141 -0.4070 -0.7382
10168TIP3   OH230439   6.680   7.097   1.410  0.0309  0.6016 -0.3651
10168TIP3    H130440   6.597   7.088   1.456  0.5104  0.3661  0.4787
10168TIP3    H230441   6.706   7.188   1.423  0.4707  0.3796  0.3863
10169TIP3   OH230442   3.547   3.638   1.530  0.1870 -0.0114  0.2193
10169TIP3    H130443   3.518   3.584   1.457  2.3456 -0.4799 -0.3512
10169TIP3    H230444   3.494   3.609   1.604  1.5784 -3.2889  0.0495
10170TIP3   OH230445   5.924   6.568   5.784 -0.1894  0.6855 -0.6062
10170TIP3    H130446   5.883   6.653   5.803 -2.6366 -0.1477 -2.1077
10170TIP3    H230447   5.901   6.513   5.859 -2.0964  0.1404 -1.5672
10171TIP3   OH230448   4.376   0.801   5.998 -0.3261 -0.2436  0.0914
10171TIP3    H130449   4.418   0.854   5.930 -0.1466  0.7596  0.9576
10171TIP3    H230450   4.406   0.712   5.982  2.2424  0.4616  0.7570
10172TIP3   OH230451   2.408   2.503   5.245 -0.5008 -0.5085  0.5624
10172TIP3    H130452   2.343   2.549   5.193 -0.7640 -0.7609  0.6668
10172TIP3    H230453   2.359   2.434   5.290  0.1581 -1.8942 -0.8038
10173TIP3   OH230454   3.392   4.697   0.312 -0.5006  0.0209 -0.0006
10173TIP3    H130455   3.400   4.652   0.396 -2.0088  0.8192  0.5914
10173TIP3    H230456   3.422   4.786   0.331  0.8953 -0.2780 -0.7637
10174TIP3   OH230457   1.407   5.106   0.310 -0.2999 -0.4588 -0.4360
10174TIP3    H130458   1.411   5.015   0.279  0.8021 -0.0320 -1.5715
10174TIP3    H230459   1.358   5.101   0.392  0.0894 -2.1416 -0.2903
10175TIP3   OH230460   2.604   2.933   5.679  0.2339 -0.3810 -0.2819
10175TIP3    H130461   2.628   2.950   5.588  2.2165 -1.9823 -0.0841
10175TIP3    H230462   2.579   2.840   5.680  1.6053 -0.7489  1.0728
10176TIP3   OH230463   6.366   0.007   0.818  0.0493  0.5402 -0.7741
10176TIP3    H130464   6.384   0.099   0.837 -1.7948  1.0306 -1.3994
10176TIP3    H230465   6.305  -0.020   0.886  0.4210 -0.1806 -0.7185
10177TIP3   OH230466   7.369   1.079   0.043 -0.4872 -0.0277  0.2361
10177TIP3    H130467   7.358   1.043  -0.045  2.8343  0.7146 -0.5449
10177TIP3    H230468   7.390   1.002   0.097 -2.2353 -0.4452  0.3322
10178TIP3   OH230469   6.176   6.836   1.986 -0.8193  0.2543 -0.1022
10178TIP3    H130470   6.181   6.748   1.951 -1.7804  0.3760 -0.5717
10178TIP3    H230471   6.265   6.871   1.979  0.1347 -1.5204  2.3327
10179TIP3   OH230472   7.873   0.250   0.328  0.3101  0.2773 -0.0967
10179TIP3    H130473   7.851   0.215   0.242  0.2013  0.8518 -0.3057
10179TIP3    H230474   7.791   0.282   0.363  0.5650  1.2018 -0.3186
10180TIP3   OH230475   2.568   5.442   6.764 -0.1030 -0.4892 -0.0591
10180TIP3    H130476   2.516   5.500   6.820 -0.4221 -0.2608 -0.5827
10180TIP3    H230477   2.504   5.380   6.728  0.1934 -0.9972  0.2852
10181TIP3   OH230478   2.924   3.556   3.891 -0.1324  0.7609  0.0220
10181TIP3    H130479   2.963   3.472   3.914  0.9024  1.4157  0.7133
10181TIP3    H230480   2.845   3.562   3.944  1.0196  1.2476  1.6919
10182TIP3   OH230481   5.458   6.844   1.262 -0.2549 -0.0887  0.1736
10182TIP3    H130482   5.437   6.924   1.213  0.3706 -0.1853 -0.2673
10182TIP3    H230483   5.392   6.781   1.233 -0.7520  0.2725  0.5243
10183TIP3   OH230484   4.242   7.082   1.036  0.2264  0.2308 -0.4411
10183TIP3    H130485   4.228   7.157   0.978  0.3064  1.5516  1.2445
10183TIP3    H230486   4.167   7.025   1.019 -0.4067  1.1941 -0.9474
10184TIP3   OH230487   6.588   6.243   2.260  0.3191 -0.2522 -0.3404
10184TIP3    H130488   6.567   6.264   2.351  0.3478 -2.8360  0.3199
10184TIP3    H230489   6.607   6.149   2.261  1.1397 -0.1598 -2.8768
10185TIP3   OH230490   3.118   3.388   6.248 -0.3327 -0.7244  0.6723
10185TIP3    H130491   3.077   3.474   6.234 -0.3405 -0.8769 -0.2916
10185TIP3    H230492   3.045   3.329   6.263 -0.5164 -1.0291 -1.2234
10186TIP3   OH230493   2.335   2.306   4.651 -0.1115  0.4399 -0.1933
10186TIP3    H130494   2.401   2.265   4.596 -0.0330  1.1738 -0.6587
10186TIP3    H230495   2.382   2.331   4.731  0.1411  0.8489 -0.4716
10187TIP3   OH230496   4.598   3.829   6.195  0.2149  0.3412  0.2250
10187TIP3    H130497   4.641   3.746   6.212 -0.7331 -0.1648  0.1519
10187TIP3    H230498   4.589   3.870   6.282  0.3232  0.2014  0.3016
10188TIP3   OH230499   5.518   5.603   0.408 -0.5814  0.3576 -0.2943
10188TIP3    H130500   5.499   5.629   0.498  0.6703  0.1289  0.0373
10188TIP3    H230501   5.432   5.601   0.365 -1.0117  2.1067  0.4467
10189TIP3   OH230502   5.265   6.367   0.980 -0.6402 -0.4177  0.4969
10189TIP3    H130503   5.348   6.365   1.027 -1.4167 -1.3901  1.8458
10189TIP3    H230504   5.258   6.281   0.940 -0.7319 -0.1353 -0.1049
10190TIP3   OH230505   7.162   7.830   0.229 -0.5696 -0.0963  0.1483
10190TIP3    H130506   7.160   7.921   0.200  0.7692  0.5087  1.8819
10190TIP3    H230507   7.082   7.820   0.281 -0.0615  0.4552  1.0337
10191TIP3   OH230508   4.221   5.274   0.149 -0.1823  0.1638 -0.0011
10191TIP3    H130509   4.253   5.199   0.100  0.0837 -1.0731  2.0311
10191TIP3    H230510   4.126   5.261   0.153 -0.2500  0.4730 -0.4976
10192TIP3   OH230511   2.050   1.571   5.594  0.0526  0.3852  0.0519
10192TIP3    H130512   2.012   1.632   5.658  0.4220  0.7687 -0.0889
10192TIP3    H230513   2.125   1.618   5.558 -1.1003  0.8060 -1.8534
10193TIP3   OH230514   6.082   6.338   0.282  0.4807  0.3444  0.1479
10193TIP3    H130515   6.010   6.340   0.218  0.5989  1.7834  0.0457
10193TIP3    H230516   6.060   6.266   0.340 -0.1274 -0.3691 -0.9511
10194TIP3   OH230517   4.542   5.091   0.261 -0.5890  0.0519  0.0467
10194TIP3    H130518   4.503   5.022   0.314 -0.1498 -0.0590  0.2216
10194TIP3    H230519   4.486   5.095   0.183 -1.5327  0.5777  0.7595
10195TIP3   OH230520   2.777   2.284   6.542  0.7479  0.0139 -0.2056
10195TIP3    H130521   2.690   2.320   6.562  1.9149  3.2460 -0.6434
10195TIP3    H230522   2.819   2.273   6.627 -0.0124 -1.4236 -0.0021
10196TIP3   OH230523   2.865   2.159   5.675 -0.2533 -0.4265  0.0570
10196TIP3    H130524   2.941   2.217   5.663  0.4290 -1.2709  0.2499
10196TIP3    H230525   2.887   2.081   5.624  0.0777 -1.6730  2.0552
10197TIP3   OH230526   7.618   7.610   1.662 -0.0977 -0.3869 -0.3461
10197TIP3    H130527   7.679   7.684   1.659 -2.0160  1.4843  3.7619
10197TIP3    H230528   7.546   7.636   1.605 -0.9864  1.1523  1.4564
10198TIP3   OH230529   2.096   2.150   5.968 -0.4893 -0.1271  0.2141
10198TIP3    H130530   2.166   2.166   5.905  0.0159 -0.4589  0.6874
10198TIP3    H230531   2.056   2.236   5.980  0.5047  0.2766  0.7164
10199TIP3   OH230532   2.072   0.537   1.256  0.1263  0.1385  0.0099
10199TIP3    H130533   1.991   0.497   1.288  0.3693 -1.0619 -0.8736
10199TIP3    H230534   2.142   0.490   1.300  0.3792  0.5153  0.0151
10200TIP3   OH230535   4.954   5.284   0.493  0.6066 -0.6443  0.4794
10200TIP3    H130536   4.873   5.290   0.443  0.9943  1.4681  0.0431
10200TIP3    H230537   4.929   5.310   0.582  0.8122  0.0750  0.3288
10201TIP3   OH230538   3.276   4.293   6.067  0.2082  0.5080  0.2680
10201TIP3    H130539   3.307   4.206   6.041  1.4234  1.1865 -0.6330
10201TIP3    H230540   3.334   4.319   6.138 -3.2852 -1.4573  4.0332
10202TIP3   OH230541   3.047   3.316   5.462  0.0339  0.3124  0.1969
10202TIP3    H130542   2.956   3.344   5.467 -0.6428 -1.8255  0.4967
10202TIP3    H230543   3.054   3.270   5.378  0.4550 -0.7287  0.7852
10203TIP3   OH230544   3.462   5.710   1.879  0.3519  0.2266  0.5208
10203TIP3    H130545   3.501   5.719   1.792  0.7033 -0.7472  0.5759
10203TIP3    H230546   3.529   5.667   1.932 -0.5545 -0.8679  0.7850
10204TIP3   OH230547   1.565   2.569   6.483 -0.7700 -0.3414  0.4350
10204TIP3    H130548   1.578   2.525   6.398 -0.4448 -3.6145  2.0835
10204TIP3    H230549   1.475   2.600   6.480 -1.0809 -1.3183 -0.7402
10205TIP3   OH230550   0.839   4.763   5.743  0.6429  0.0924 -0.2736
10205TIP3    H130551   0.872   4.791   5.657 -1.1570  3.0483 -0.0729
10205TIP3    H230552   0.914   4.773   5.801  1.5705 -0.8603 -1.2662
10206TIP3   OH230553   6.173   6.842   2.878 -0.8383 -0.2089  0.2748
10206TIP3    H130554   6.190   6.903   2.950  0.0030 -0.6645  0.4703
10206TIP3    H230555   6.090   6.801   2.900 -0.8401  0.0313  0.7244
10207TIP3   OH230556   2.130   3.738   3.658 -0.1564  0.5453  0.1433
10207TIP3    H130557   2.208   3.683   3.666  0.9409  1.6772 -2.1765
10207TIP3    H230558   2.146   3.811   3.718  0.8913  1.0787 -0.7479
10208TIP3   OH230559   1.004   3.120   5.132 -0.1469 -0.4624  0.3095
10208TIP3    H130560   1.051   3.042   5.160  1.4311  0.6019  0.6920
10208TIP3    H230561   1.053   3.152   5.056 -0.1801  0.7141  0.7727
10209TIP3   OH230562   5.284   6.093   0.884  0.3118  0.1836  0.1951
10209TIP3    H130563   5.200   6.069   0.923  0.4664  0.9065  0.9851
10209TIP3    H230564   5.303   6.022   0.822  0.2907 -1.2233  1.7795
10210TIP3   OH230565   5.066   6.948   1.251  0.2132  0.3717 -0.7102
10210TIP3    H130566   5.081   6.917   1.161  0.5827  0.2594 -0.6092
10210TIP3    H230567   5.063   7.044   1.242  2.0503  0.4653 -0.5820
10211TIP3   OH230568   4.599   2.641   6.835 -0.2658 -0.3238  0.3119
10211TIP3    H130569   4.638   2.555   6.845  0.3947 -0.0994 -0.3485
10211TIP3    H230570   4.581   2.669   6.925  0.9666 -0.4822  0.6171
10212TIP3   OH230571   4.738   5.478   1.277 -0.5960  0.7281 -0.1935
10212TIP3    H130572   4.671   5.439   1.222  0.0543 -1.0147  0.2371
10212TIP3    H230573   4.773   5.551   1.226 -1.7066  0.6501 -1.0595
10213TIP3   OH230574   3.975   6.646   0.982 -0.2295 -0.4903  0.2015
10213TIP3    H130575   4.019   6.572   0.940 -0.8344 -0.9439  0.3562
10213TIP3    H230576   3.982   6.628   1.076  1.4541  0.7159  0.3261
10214TIP3   OH230577   3.913   3.680   6.428  0.4611  0.0899 -0.0216
10214TIP3    H130578   3.887   3.621   6.499  1.6993  0.5481  0.8346
10214TIP3    H230579   3.990   3.638   6.390  1.0522  0.8965  0.2746
10215TIP3   OH230580   3.465   2.147   6.395 -0.2681  0.0750 -0.2376
10215TIP3    H130581   3.384   2.100   6.415  0.0729 -0.0659  0.8440
10215TIP3    H230582   3.529   2.079   6.379 -0.1926  0.1819 -0.3906
10216TIP3   OH230583   1.878   3.791   6.171  0.2768  0.1805 -0.4712
10216TIP3    H130584   1.830   3.815   6.091  0.1065 -0.9823 -0.7312
10216TIP3    H230585   1.860   3.862   6.232  0.9394  1.4154 -1.6838
10217TIP3   OH230586   5.456   5.892   1.271 -0.1529  0.3928  0.1477
10217TIP3    H130587   5.432   5.851   1.188 -0.2361 -0.0730  0.3972
10217TIP3    H230588   5.509   5.968   1.246 -0.8826  0.7336 -0.3559
10218TIP3   OH230589   5.496   5.826   3.832  0.3981 -0.1739 -0.3820
10218TIP3    H130590   5.467   5.893   3.770  1.2470  0.5021 -0.0793
10218TIP3    H230591   5.419   5.807   3.885  0.6864  2.2436  1.0081
10219TIP3   OH230592   3.297   2.883   5.225  0.5505 -0.0067  0.3710
10219TIP3    H130593   3.239   2.891   5.300  1.5841  0.9727  1.0949
10219TIP3    H230594   3.239   2.876   5.149 -0.5129 -2.2489  1.3666
10220TIP3   OH230595   7.901   0.220   1.248 -0.1600  0.2665  0.2525
10220TIP3    H130596   7.889   0.130   1.219 -0.4949  0.3647  0.0730
10220TIP3    H230597   7.849   0.227   1.328  0.6195  0.0447  0.7789
10221TIP3   OH230598   6.338   5.657   0.793  0.2080 -0.2310 -0.3488
10221TIP3    H130599   6.433   5.655   0.803  0.0600  0.3800  1.3837
10221TIP3    H230600   6.315   5.750   0.798 -0.5959 -0.4677  0.5811
10222TIP3   OH230601   4.403   6.537   0.290 -0.2789 -0.4917 -0.1884
10222TIP3    H130602   4.324   6.527   0.343 -0.0296 -3.8586 -0.3539
10222TIP3    H230603   4.464   6.582   0.348 -1.8428  0.8691  0.4357
10223TIP3   OH230604   4.290   7.559   0.299 -0.0891 -0.0621 -0.1156
10223TIP3    H130605   4.299   7.487   0.360  0.0140 -1.0998 -1.3427
10223TIP3    H230606   4.258   7.632   0.353 -0.0023 -0.9507  1.1610
10224TIP3   OH230607   3.510   3.132   3.945  0.3624  0.7929  0.3850
10224TIP3    H130608   3.552   3.208   3.904  1.7568 -0.8393 -1.2774
10224TIP3    H230609   3.420   3.135   3.914  0.4001  1.7984  0.3602
10225TIP3   OH230610   0.662   0.977   1.892  0.0211  0.4971  0.0577
10225TIP3    H130611   0.727   1.045   1.912  1.0841 -0.3465 -0.4651
10225TIP3    H230612   0.624   1.005   1.808 -1.2037  1.6564  0.9875
10226TIP3   OH230613   1.078   0.135   1.012  0.1273 -0.1615  0.0028
10226TIP3    H130614   1.117   0.064   1.063 -0.2082 -2.2551 -2.5682
10226TIP3    H230615   1.109   0.215   1.055  1.0966 -1.8341  2.5249
10227TIP3   OH230616   0.229   0.387   1.873  0.0415  0.2926 -0.0675
10227TIP3    H130617   0.153   0.409   1.927 -0.7075  0.5347 -1.1997
10227TIP3    H230618   0.267   0.309   1.914 -0.7726  0.2242  0.5533
10228TIP3   OH230619   1.110   3.792   5.871  0.3713  0.7894  0.1740
10228TIP3    H130620   1.107   3.817   5.779 -0.6467  0.2541  0.0547
10228TIP3    H230621   1.146   3.703   5.871  0.6537  0.9010  0.3226
10229TIP3   OH230622   6.139   6.739   1.316  0.1317 -0.5040  0.0466
10229TIP3    H130623   6.100   6.776   1.237 -0.1086 -0.6491  0.0968
10229TIP3    H230624   6.233   6.743   1.300  0.1146  0.4111  0.1832
10230TIP3   OH230625   2.399   3.672   6.452 -0.1174  0.2285  0.0366
10230TIP3    H130626   2.477   3.673   6.397  0.2210 -1.4061  0.4647
10230TIP3    H230627   2.334   3.623   6.402 -0.6438  0.9429  0.0039
10231TIP3   OH230628   4.891   5.914   6.791 -0.0526  0.1348 -0.4612
10231TIP3    H130629   4.952   5.845   6.818  1.0256  0.8836 -0.9503
10231TIP3    H230630   4.806   5.883   6.820  0.6574 -0.5599  0.9393
10232TIP3   OH230631   6.857   6.663   0.087 -0.2305 -0.1544  0.2773
10232TIP3    H130632   6.863   6.592   0.023  0.3024 -0.0120  0.1666
10232TIP3    H230633   6.800   6.728   0.045 -0.1479 -0.2050  0.0848
10233TIP3   OH230634   1.998   4.678   6.422 -0.0358 -0.1091  0.8217
10233TIP3    H130635   1.998   4.739   6.349 -3.1687 -0.0470  0.8068
10233TIP3    H230636   2.023   4.731   6.498  1.4960  0.2043  0.1128
10234TIP3   OH230637   3.011   0.981   6.841 -0.1687  0.5103 -0.0033
10234TIP3    H130638   3.038   1.005   6.929 -0.6676  0.8022  0.0699
10234TIP3    H230639   3.075   0.916   6.813 -0.7095 -0.4775  1.0288
10235TIP3   OH230640   0.814   0.383   5.687 -0.2603  0.1309  0.1709
10235TIP3    H130641   0.735   0.329   5.682  0.6348 -1.1112 -0.7315
10235TIP3    H230642   0.824   0.420   5.599  1.6779 -1.9123 -0.5010
10236TIP3   OH230643   3.619   5.260   0.561  0.1705 -0.0057  0.2768
10236TIP3    H130644   3.539   5.301   0.593 -0.4347  0.5941 -1.9106
10236TIP3    H230645   3.653   5.212   0.637 -1.7334  0.5121  1.5078
10237TIP3   OH230646   3.848   3.808   5.875 -0.1038 -0.1987  0.0839
10237TIP3    H130647   3.818   3.751   5.945 -1.0082  0.5196  0.2840
10237TIP3    H230648   3.911   3.867   5.917  0.4871 -0.7322 -0.0303
10238TIP3   OH230649   2.595   1.222   4.855 -0.6345 -0.4760  0.7637
10238TIP3    H130650   2.627   1.148   4.906 -1.7802 -1.3431  0.2507
10238TIP3    H230651   2.569   1.184   4.771 -2.7018  0.2154  1.0499
10239TIP3   OH230652   2.851   0.704   6.564 -0.2486  0.1019 -0.1201
10239TIP3    H130653   2.936   0.685   6.524  0.6873  0.7258  1.5047
10239TIP3    H230654   2.839   0.635   6.629 -3.1284 -2.6338 -3.3507
10240TIP3   OH230655   2.490   0.721   5.303  0.1561 -0.4164 -0.0727
10240TIP3    H130656   2.549   0.650   5.280 -0.6928 -0.4117 -2.3685
10240TIP3    H230657   2.473   0.710   5.396  3.1831 -0.8398  0.4473
10241TIP3   OH230658   2.390   0.667   4.161 -0.3288  0.0106  0.0574
10241TIP3    H130659   2.386   0.575   4.136 -1.1996  0.2086 -0.5383
10241TIP3    H230660   2.416   0.665   4.254  2.4522 -0.7239 -0.6823
10242TIP3   OH230661   3.861   6.884   0.259  0.2487  0.4607 -0.3536
10242TIP3    H130662   3.863   6.835   0.341  2.7753 -0.2319 -0.7790
10242TIP3    H230663   3.948   6.872   0.222 -0.7009  1.1346 -2.9292
10243TIP3   OH230664   6.916   7.145   1.005 -0.0241 -0.3211  0.2784
10243TIP3    H130665   6.843   7.150   0.944  0.7267  0.9310 -0.5374
10243TIP3    H230666   6.977   7.083   0.965 -0.8630 -1.8361  1.2486
10244TIP3   OH230667   4.774   4.517   0.742  0.2723 -0.2381 -0.4305
10244TIP3    H130668   4.737   4.457   0.807  1.7481  1.3648  1.9735
10244TIP3    H230669   4.702   4.576   0.720 -0.2860 -0.8891 -0.3879
10245TIP3   OH230670   2.271   2.768   4.750  0.7349 -0.3448  0.0074
10245TIP3    H130671   2.192   2.716   4.764  0.3762 -0.0612 -0.9354
10245TIP3    H230672   2.300   2.744   4.661  1.9519 -0.7725  0.5075
10246TIP3   OH230673   2.378   1.003   5.990  0.5321  0.1573  0.9258
10246TIP3    H130674   2.301   1.013   6.046 -0.1284 -1.2856  0.3144
10246TIP3    H230675   2.343   1.005   5.901  1.1867 -0.5510  0.6447
10247TIP3   OH230676   6.047   6.147   0.645 -0.2568  0.8344 -0.3370
10247TIP3    H130677   6.073   6.148   0.737  0.9266  0.8192 -0.6615
10247TIP3    H230678   5.963   6.193   0.643  0.0962  1.5395  0.6397
10248TIP3   OH230679   5.250   5.058   0.399  0.7545 -0.1137 -0.2682
10248TIP3    H130680   5.345   5.044   0.397  0.8374  0.5468 -1.4454
10248TIP3    H230681   5.217   5.008   0.324  0.3941  1.1723 -0.9848
10249TIP3   OH230682   3.745   1.047   5.816 -0.6732  0.4984  0.4160
10249TIP3    H130683   3.719   1.052   5.908 -1.0565 -0.1072  0.3391
10249TIP3    H230684   3.711   1.128   5.778  0.4417  1.2738  1.0429
10250TIP3   OH230685   3.324   1.977   5.818 -0.2804  0.3989 -0.2772
10250TIP3    H130686   3.250   2.034   5.835  0.5293  0.9932  1.3679
10250TIP3    H230687   3.292   1.915   5.753 -1.6977  1.6591 -0.8047
10251TIP3   OH230688   2.466   2.700   5.861  0.0537 -0.1988 -0.0930
10251TIP3    H130689   2.414   2.758   5.917  0.8624 -1.3809  1.9532
10251TIP3    H230690   2.414   2.691   5.781 -1.2176  1.4023  0.5195
10252TIP3   OH230691   2.311   3.118   5.967 -0.2032 -0.4441 -0.2142
10252TIP3    H130692   2.406   3.108   5.969 -0.1516  0.1139  0.2686
10252TIP3    H230693   2.293   3.155   5.880  0.0467 -0.2826 -0.1981
10253TIP3   OH230694   1.074   3.272   4.212 -0.0248 -0.2929 -0.0323
10253TIP3    H130695   1.155   3.321   4.199  0.7253 -1.4014  0.3883
10253TIP3    H230696   1.102   3.189   4.250 -1.3858 -0.5791  0.3740
10254TIP3   OH230697   1.770   0.604   0.250 -0.1106  0.1704  0.4862
10254TIP3    H130698   1.699   0.668   0.255 -0.9788 -0.7419  0.0551
10254TIP3    H230699   1.829   0.628   0.322 -0.8113  0.9840  0.8006
10255TIP3   OH230700   2.687   7.305   2.643  0.1961 -0.2729 -0.6898
10255TIP3    H130701   2.767   7.254   2.649 -0.3166 -1.2481 -1.9896
10255TIP3    H230702   2.710   7.391   2.679  1.6126 -0.7754 -0.3956
10256TIP3   OH230703   5.742   6.351   0.559 -0.0089 -0.8989  0.2430
10256TIP3    H130704   5.804   6.388   0.496  1.4862  0.5853  2.4913
10256TIP3    H230705   5.661   6.399   0.545  0.3875 -0.4030 -0.3646
10257TIP3   OH230706   3.449   2.382   6.859  0.2706 -0.1283  0.0579
10257TIP3    H130707   3.386   2.310   6.867 -0.6154  0.7993  1.8986
10257TIP3    H230708   3.502   2.359   6.783  0.8273 -3.3670  1.3038
10258TIP3   OH230709   2.978   1.156   6.270 -0.1510 -0.2542 -0.2532
10258TIP3    H130710   2.884   1.174   6.279 -0.0160  0.1171  0.4148
10258TIP3    H230711   3.005   1.210   6.196 -0.6014 -0.8970 -0.9063
10259TIP3   OH230712   2.727   4.048   5.947  0.6432  0.1239 -0.2906
10259TIP3    H130713   2.742   3.955   5.930  2.2700  0.2957  0.1909
10259TIP3    H230714   2.643   4.051   5.992  0.6375 -1.1161 -0.2236
10260TIP3   OH230715   3.135   0.979   4.899  0.2297 -0.4442  0.1705
10260TIP3    H130716   3.097   0.916   4.961 -1.1249  1.6008  1.4624
10260TIP3    H230717   3.215   1.008   4.942 -0.0524  0.0255  0.3768
10261TIP3   OH230718   2.869   1.117   5.895 -0.2466  0.3090 -0.3686
10261TIP3    H130719   2.960   1.119   5.923 -0.5934  0.2957  0.7859
10261TIP3    H230720   2.863   1.184   5.827  0.7786 -0.1865 -0.9658
10262TIP3   OH230721   2.809   2.123   6.321 -0.2996  0.0317 -0.6023
10262TIP3    H130722   2.902   2.103   6.309 -0.1830  0.2312 -0.0658
10262TIP3    H230723   2.808   2.188   6.392 -0.9010 -0.5182 -0.1044
10263TIP3   OH230724   2.972   2.412   6.759  0.0818  0.1839 -0.3899
10263TIP3    H130725   3.012   2.393   6.675  2.4259  1.6260  0.3615
10263TIP3    H230726   2.939   2.501   6.751 -1.3969 -0.3335 -0.3685
10264TIP3   OH230727   4.530   6.953   3.044 -0.4058 -0.1568  0.5786
10264TIP3    H130728   4.474   6.883   3.077 -2.5352  1.5500  0.7377
10264TIP3    H230729   4.496   7.032   3.086  1.3080  1.1130 -0.3542
10265TIP3   OH230730   6.344   7.924   0.030  0.0305 -1.0510 -0.1272
10265TIP3    H130731   6.411   7.857   0.044  0.9144  0.1103  1.3612
10265TIP3    H230732   6.278   7.907   0.097 -0.1925 -0.9723 -0.3237
10266TIP3   OH230733   8.168   1.515   6.482 -0.1339 -0.5433 -0.1471
10266TIP3    H130734   8.155   1.446   6.417  1.1983 -1.0551  0.1206
10266TIP3    H230735   8.195   1.591   6.431 -0.8915 -0.4188 -0.3707
10267TIP3   OH230736   7.173   5.355   0.728  0.2391  0.3571  0.2162
10267TIP3    H130737   7.164   5.304   0.809 -1.7024 -0.0777 -0.2498
10267TIP3    H230738   7.181   5.446   0.758 -2.9135  0.4761  0.8451
10268TIP3   OH230739   2.031   3.611   5.091 -0.0523  0.1898 -0.1705
10268TIP3    H130740   1.973   3.576   5.024  1.1767  0.9184 -1.6421
10268TIP3    H230741   2.003   3.702   5.101 -0.7303 -0.1273  0.8660
10269TIP3   OH230742   1.373   2.015   6.795 -0.2496 -0.7020  0.9177
10269TIP3    H130743   1.321   2.061   6.729  0.5572  0.7971  1.3067
10269TIP3    H230744   1.315   2.008   6.871 -0.8294 -1.5165  0.4040
10270TIP3   OH230745   7.516   7.438   0.552  0.0660 -0.9600 -0.5976
10270TIP3    H130746   7.585   7.498   0.523  1.0158 -1.3938  0.7033
10270TIP3    H230747   7.435   7.479   0.522  0.7374  0.6948 -0.2264
10271TIP3   OH230748   1.953   5.280   6.764 -0.0951  0.3682  0.1988
10271TIP3    H130749   1.964   5.280   6.859  4.1511 -1.4889 -0.1729
10271TIP3    H230750   1.917   5.194   6.744 -0.6702  0.6334  0.0983
10272TIP3   OH230751   4.498   7.150   0.843 -0.3091 -0.1953  0.1666
10272TIP3    H130752   4.539   7.065   0.860  1.8165  0.7618 -0.0100
10272TIP3    H230753   4.509   7.199   0.925 -1.0709  0.1019  0.0992
10273TIP3   OH230754   6.393   7.607   1.281  0.0799  0.5602 -0.1328
10273TIP3    H130755   6.348   7.523   1.287 -1.3865  1.4144  1.0380
10273TIP3    H230756   6.375   7.650   1.364  2.8962  1.0248  0.2926
10274TIP3   OH230757   1.596   3.932   4.705 -0.6790 -0.0814  0.2880
10274TIP3    H130758   1.691   3.946   4.713 -0.3047 -2.3296  0.2782
10274TIP3    H230759   1.568   3.998   4.642  0.7755  1.0259  0.7612
10275TIP3   OH230760   2.415   3.371   6.233  0.4246 -0.1631 -0.2865
10275TIP3    H130761   2.378   3.386   6.146  0.5337 -0.6727 -0.4248
10275TIP3    H230762   2.487   3.433   6.240  0.4612 -0.1694 -0.5894
10276TIP3   OH230763   4.645   7.591   2.187 -0.1858 -0.1872 -0.0248
10276TIP3    H130764   4.594   7.621   2.263 -0.9438 -0.9739 -0.2150
10276TIP3    H230765   4.727   7.558   2.224 -1.0145 -1.6236  0.5729
10277TIP3   OH230766   2.496   3.624   4.696  0.1916  0.9393 -0.4463
10277TIP3    H130767   2.458   3.552   4.646 -0.1642  2.2171 -2.0881
10277TIP3    H230768   2.432   3.641   4.766 -0.4021  0.5820 -0.8956
10278TIP3   OH230769   2.049   2.221   6.428 -0.2917  0.3810 -0.5888
10278TIP3    H130770   2.037   2.130   6.457 -0.5648 -0.2440 -2.6171
10278TIP3    H230771   2.073   2.214   6.336 -1.5304  2.4415 -1.0970
10279TIP3   OH230772   3.470   1.613   2.613  0.6379  0.2550  0.1582
10279TIP3    H130773   3.415   1.672   2.665 -0.4826 -1.1916  0.6545
10279TIP3    H230774   3.447   1.526   2.644  2.4023 -0.4383 -0.4511
10280TIP3   OH230775   4.755   7.308   0.501  0.1986 -0.1456  0.4742
10280TIP3    H130776   4.832   7.366   0.505  1.3090 -1.5689  0.1283
10280TIP3    H230777   4.789   7.222   0.526 -1.2494 -0.8300  0.1118
10281TIP3   OH230778   3.244   2.694   4.004 -0.1243  0.7007 -0.6140
10281TIP3    H130779   3.222   2.787   4.011  0.3088  0.7528  0.1251
10281TIP3    H230780   3.296   2.676   4.083 -0.5648 -0.2679 -0.5414
10282TIP3   OH230781   6.592   3.496   1.832  0.2738  0.5062  0.1061
10282TIP3    H130782   6.681   3.487   1.798  0.8097 -0.0296  1.6073
10282TIP3    H230783   6.599   3.562   1.901 -0.7644  1.4706 -0.6954
10283TIP3   OH230784   4.971   6.556   0.596 -0.2031  0.2149  0.3532
10283TIP3    H130785   5.028   6.561   0.673 -0.1655  0.8285  0.2880
10283TIP3    H230786   5.027   6.523   0.526 -0.2602 -0.4307  0.6115
10284TIP3   OH230787   4.115   6.529   3.693  0.3909 -0.3340 -0.0722
10284TIP3    H130788   4.156   6.463   3.749  2.6085 -0.5899 -1.8901
10284TIP3    H230789   4.065   6.478   3.629  1.5038 -0.2935 -1.0177
10285TIP3   OH230790   2.891   3.240   6.219 -0.4276  0.0611 -0.5672
10285TIP3    H130791   2.831   3.192   6.276  0.4734  0.6829  0.9282
10285TIP3    H230792   2.949   3.173   6.184 -0.0805 -0.1450  0.3839
10286TIP3   OH230793   1.913   0.996   6.637  0.7561  0.5326 -0.2046
10286TIP3    H130794   1.960   0.937   6.578 -1.7163 -0.6699 -1.0156
10286TIP3    H230795   1.883   1.068   6.581  0.8705  0.8529  0.1426
10287TIP3   OH230796   3.133   2.362   6.270  0.5022  0.3201  0.0852
10287TIP3    H130797   3.126   2.366   6.175  0.5921 -0.0183  0.0632
10287TIP3    H230798   3.139   2.453   6.298  0.7576  0.4079 -0.2573
10288TIP3   OH230799   5.115   4.538   2.038  0.4677  0.0548 -0.3368
10288TIP3    H130800   5.038   4.588   2.011  0.0323  0.3478  1.3288
10288TIP3    H230801   5.168   4.601   2.087 -1.2031 -1.5400  3.8561
10289TIP3   OH230802   3.091   1.374   6.097  0.3197  0.1100 -0.2545
10289TIP3    H130803   3.129   1.406   6.179  0.1385  0.0223 -0.1364
10289TIP3    H230804   3.007   1.420   6.090 -0.3229 -0.9437  0.3329
10290TIP3   OH230805   1.519   1.045   5.419 -0.3298 -0.2608 -0.4116
10290TIP3    H130806   1.433   1.030   5.459  0.9635 -1.9823  1.8416
10290TIP3    H230807   1.582   1.015   5.484  2.1515  3.9859 -0.6510
10291TIP3   OH230808   4.720   5.794   1.889  0.0818  0.2789  0.0819
10291TIP3    H130809   4.717   5.770   1.982  2.1408  3.1006  0.9282
10291TIP3    H230810   4.643   5.851   1.877 -0.8905 -1.0762 -0.2838
10292TIP3   OH230811   6.131   3.330   0.934  0.2100  0.2230  0.6533
10292TIP3    H130812   6.174   3.265   0.879 -1.2671 -0.0698 -0.1744
10292TIP3    H230813   6.187   3.337   1.011  0.5796 -1.7417  0.5790
10293TIP3   OH230814   4.553   4.206   0.553  0.2607  0.0789  0.3730
10293TIP3    H130815   4.568   4.224   0.460  0.3040  2.4264  0.8130
10293TIP3    H230816   4.641   4.209   0.592  0.3152 -1.5070  0.4155
10294TIP3   OH230817   2.257   5.180   4.818  1.0875 -0.2695  0.0805
10294TIP3    H130818   2.348   5.209   4.808 -0.2373  4.5991  0.4976
10294TIP3    H230819   2.254   5.136   4.902  2.7152  1.4280  1.0670
10295TIP3   OH230820   7.238   0.800   3.730  0.6143  0.0970  0.1179
10295TIP3    H130821   7.188   0.769   3.806 -0.1571 -0.5950 -0.6698
10295TIP3    H230822   7.301   0.730   3.713  1.2371  0.5463  0.5133
10296TIP3   OH230823   3.582   2.259   6.650  0.1654  0.1319 -0.0066
10296TIP3    H130824   3.664   2.212   6.635  0.7964  0.9502  0.7808
10296TIP3    H230825   3.526   2.235   6.576  0.5150 -1.7501  0.3128
10297TIP3   OH230826   6.574   6.201   1.986  0.4489 -0.3195  0.3765
10297TIP3    H130827   6.561   6.239   2.074  0.6201 -0.4942  0.4762
10297TIP3    H230828   6.489   6.163   1.964 -0.7729  3.0418 -1.1276
10298TIP3   OH230829   3.669   5.665   0.040 -0.2319 -0.0650 -0.2554
10298TIP3    H130830   3.601   5.678   0.106  0.0952 -1.7189  0.4250
10298TIP3    H230831   3.750   5.654   0.089 -0.0004 -1.4046 -0.8996
10299TIP3   OH230832   4.771   6.226   0.250  0.5122  0.3001 -0.1093
10299TIP3    H130833   4.816   6.310   0.242 -3.3639  2.6757  1.4571
10299TIP3    H230834   4.682   6.244   0.220 -0.5590 -3.1593  0.7421
10300TIP3   OH230835   5.495   5.393   6.196  0.7160  0.3172 -0.0138
10300TIP3    H130836   5.507   5.349   6.112 -0.3067  1.7995 -0.9476
10300TIP3    H230837   5.574   5.447   6.206  0.3506  0.9360 -0.5031
10301TIP3   OH230838   6.176   5.565   0.394 -0.2805  0.4507  0.1419
10301TIP3    H130839   6.134   5.506   0.456 -2.1715  0.6985 -0.8783
10301TIP3    H230840   6.104   5.604   0.344  1.1637  0.6903 -1.8191
10302TIP3   OH230841   4.552   7.374   0.286  0.0413 -0.0953  0.5416
10302TIP3    H130842   4.626   7.332   0.329 -0.4674  0.2205  1.7555
10302TIP3    H230843   4.575   7.467   0.284 -0.5423  0.0731  1.3988
10303TIP3   OH230844   3.429   2.287   5.072 -0.1947 -0.1302  0.0588
10303TIP3    H130845   3.471   2.309   4.989 -1.2026  1.3629 -0.0658
10303TIP3    H230846   3.489   2.319   5.139 -0.9998  1.8074 -0.1156
10304TIP3   OH230847   4.132   7.457   2.523 -0.0110 -0.0672  0.1952
10304TIP3    H130848   4.079   7.415   2.455  1.2262  0.6792 -1.2603
10304TIP3    H230849   4.219   7.468   2.483  1.1486 -0.9120  2.3923
10305TIP3   OH230850   2.738   1.749   5.888 -0.4386 -0.1319 -0.1633
10305TIP3    H130851   2.697   1.736   5.973  0.4855  0.9863  0.4662
10305TIP3    H230852   2.713   1.837   5.862  1.3951  0.5105  0.1643
10306TIP3   OH230853   7.114   7.575   0.113  0.1489 -0.1068 -0.1129
10306TIP3    H130854   7.137   7.651   0.166  1.1324 -0.1412 -0.4677
10306TIP3    H230855   7.114   7.608   0.023  2.0309 -0.8284 -0.4064
10307TIP3   OH230856   1.939   3.809   4.419 -0.2703 -0.4739  0.3930
10307TIP3    H130857   1.931   3.729   4.367 -2.0364  0.7701 -1.3469
10307TIP3    H230858   2.025   3.844   4.396  0.0471 -1.3036  0.3062
10308TIP3   OH230859   5.791   4.450   1.186  0.0805  0.1992  0.1094
10308TIP3    H130860   5.795   4.380   1.251  2.3639 -0.5510 -0.7750
10308TIP3    H230861   5.699   4.455   1.161 -0.1195 -2.5327  0.1553
10309TIP3   OH230862   7.127   2.925   5.865  0.1819  0.3120  0.1541
10309TIP3    H130863   7.084   2.858   5.919 -0.5780  0.0187 -0.8076
10309TIP3    H230864   7.080   3.005   5.884  0.8470  0.5144  1.0150
10310TIP3   OH230865   2.564   2.358   5.096 -0.4753 -0.2626 -0.6965
10310TIP3    H130866   2.649   2.323   5.121 -1.3487 -2.3214 -0.4761
10310TIP3    H230867   2.537   2.411   5.171  0.3357 -0.0910 -0.5208
10311TIP3   OH230868   6.618   6.460   0.769 -0.9337  0.0256 -0.6578
10311TIP3    H130869   6.701   6.428   0.734 -0.7064  0.9156 -0.9457
10311TIP3    H230870   6.552   6.401   0.732 -0.2819 -1.7399  0.9320
10312TIP3   OH230871   2.884   1.110   4.871  0.3744  0.5731 -0.2432
10312TIP3    H130872   2.974   1.083   4.887 -0.1388 -1.3743 -0.4862
10312TIP3    H230873   2.838   1.087   4.953  0.2750  2.3756  0.2140
10313TIP3   OH230874   4.791   4.400   1.335 -0.1148 -0.0948  0.0882
10313TIP3    H130875   4.822   4.462   1.269 -0.5784 -0.2972 -0.3190
10313TIP3    H230876   4.788   4.452   1.416  2.3479 -0.3449  0.3934
10314TIP3   OH230877   1.593   3.428   5.108 -0.4327  0.1729 -1.0975
10314TIP3    H130878   1.536   3.388   5.043 -1.5618  1.2179 -0.7722
10314TIP3    H230879   1.679   3.431   5.066 -0.8541 -0.3916 -2.0146
10315TIP3   OH230880   4.622   5.865   2.500 -0.1631  0.3269 -0.3792
10315TIP3    H130881   4.715   5.856   2.480 -0.1780  0.2735 -0.4270
10315TIP3    H230882   4.580   5.797   2.447 -0.1302 -0.3413  0.4480
10316TIP3   OH230883   0.945   1.749   6.715 -0.0061 -0.8754 -0.7458
10316TIP3    H130884   0.901   1.748   6.800  2.0641 -0.6482  0.3697
10316TIP3    H230885   0.930   1.662   6.679 -0.4021 -1.1755  0.1290
10317TIP3   OH230886   3.987   2.570   6.770  0.3926 -0.0225  0.1166
10317TIP3    H130887   3.902   2.528   6.762  0.4547  0.3671 -3.2603
10317TIP3    H230888   4.050   2.505   6.739  1.0876  0.5582  0.2808
10318TIP3   OH230889   3.012   4.049   5.505  0.3031  0.1294  0.3061
10318TIP3    H130890   3.102   4.025   5.528  0.5017  2.9653  2.6983
10318TIP3    H230891   2.958   3.999   5.566  0.3428 -0.0879  0.1639
10319TIP3   OH230892   5.890   5.028   0.159 -0.0843 -0.1404  0.0626
10319TIP3    H130893   5.836   4.974   0.216 -0.1323  0.3382  0.4693
10319TIP3    H230894   5.901   5.110   0.207  1.6131 -0.5024  0.2956
10320TIP3   OH230895   6.785   5.759   1.089  0.0767  0.3902  0.4039
10320TIP3    H130896   6.691   5.766   1.108 -0.2018  0.8024 -1.0573
10320TIP3    H230897   6.824   5.731   1.172 -1.2155  1.1379  1.2929
10321TIP3   OH230898   6.185   6.249   2.242 -0.4019  0.2128 -0.8800
10321TIP3    H130899   6.236   6.199   2.179  1.3799  0.2310  0.5113
10321TIP3    H230900   6.166   6.187   2.312 -2.5257  0.1374 -1.5011
10322TIP3   OH230901   3.758   0.708   6.851  0.5299 -0.0937  0.0823
10322TIP3    H130902   3.720   0.675   6.770  0.9354  0.2033 -0.2325
10322TIP3    H230903   3.691   0.765   6.888  0.3229 -0.2741 -0.0178
10323TIP3   OH230904   6.653   7.469   1.823  0.1236 -0.0269  0.2974
10323TIP3    H130905   6.691   7.383   1.843 -1.0750 -0.4747  0.6931
10323TIP3    H230906   6.728   7.527   1.815  0.8862 -0.8596  1.2749
10324TIP3   OH230907   7.698   6.764   1.133  0.0010  0.4103 -0.2071
10324TIP3    H130908   7.672   6.775   1.041  1.6158  0.0607 -0.7208
10324TIP3    H230909   7.766   6.830   1.147 -1.8588  2.0468  1.4347
10325TIP3   OH230910   0.649   3.392   6.201 -0.5808  0.0477  0.2514
10325TIP3    H130911   0.626   3.360   6.114 -0.9302  2.2221 -0.4761
10325TIP3    H230912   0.714   3.330   6.233 -0.1069 -0.5048 -1.7472
10326TIP3   OH230913   7.564   5.516   0.127  0.4264 -0.2758 -0.5713
10326TIP3    H130914   7.577   5.459   0.202 -0.8139  1.5735  1.1046
10326TIP3    H230915   7.469   5.513   0.111  0.2918  1.5422 -0.2450
10327TIP3   OH230916   3.161   0.970   6.458 -0.1471  0.1024 -0.2021
10327TIP3    H130917   3.132   0.886   6.492 -1.1681  0.3801 -0.3781
10327TIP3    H230918   3.081   1.016   6.433  0.4721  0.6148 -1.3216
10328TIP3   OH230919   7.092   5.500   1.165  0.3328  1.3165 -0.9701
10328TIP3    H130920   7.172   5.550   1.145  0.1219  1.5612 -1.2191
10328TIP3    H230921   7.083   5.508   1.260  1.8902 -0.6860 -0.6300
10329TIP3   OH230922   7.190   5.889   0.343 -0.4905 -0.3933 -0.2722
10329TIP3    H130923   7.273   5.881   0.295 -0.3948  0.2486 -0.2131
10329TIP3    H230924   7.145   5.962   0.302  0.2448  1.1452  1.5660
10330TIP3   OH230925   0.972   2.463   6.667  0.0688 -0.0878 -0.1114
10330TIP3    H130926   0.891   2.443   6.714  0.5371  0.1378  0.8164
10330TIP3    H230927   1.022   2.381   6.672 -0.6672 -0.6584 -1.8820
10331TIP3   OH230928   7.360   6.658   0.864  0.3752  0.7376 -0.2637
10331TIP3    H130929   7.316   6.619   0.940  1.1954  0.0227 -0.1452
10331TIP3    H230930   7.434   6.599   0.847  1.7475  2.3641  0.0213
10332TIP3   OH230931   3.689   1.735   3.963  0.0062 -0.7077 -0.4731
10332TIP3    H130932   3.776   1.750   3.927  0.1873  1.6531  0.8650
10332TIP3    H230933   3.657   1.822   3.985 -1.8950 -1.7314  0.9216
10333TIP3   OH230934   3.596   3.429   4.589 -0.4064 -0.4527  0.0473
10333TIP3    H130935   3.511   3.461   4.559  0.1198  1.3841  0.4552
10333TIP3    H230936   3.613   3.478   4.669  0.9327 -0.9610  0.0819
10334TIP3   OH230937   3.717   6.928   1.096  0.1240  0.3441 -0.6698
10334TIP3    H130938   3.668   6.846   1.082 -1.2076  0.9421  0.4377
10334TIP3    H230939   3.653   6.989   1.131  1.5842  1.2720  0.4575
10335TIP3   OH230940   6.839   1.427   0.947  0.6063  0.0361  0.3325
10335TIP3    H130941   6.882   1.465   0.871  1.3978 -0.9250  0.2930
10335TIP3    H230942   6.891   1.458   1.022 -0.7697  1.8133  0.5743
10336TIP3   OH230943   6.025   6.872   1.050 -0.7091 -0.1577 -0.2152
10336TIP3    H130944   6.025   6.789   1.001  0.8291  0.8580 -2.0172
10336TIP3    H230945   6.092   6.925   1.006 -0.1710  1.2655  2.2402
10337TIP3   OH230946   5.207   5.669   5.029 -0.1359  0.4407  0.1691
10337TIP3    H130947   5.117   5.703   5.030 -0.5711 -0.6864 -0.0772
10337TIP3    H230948   5.202   5.587   5.079  0.2128 -0.9878 -2.0736
10338TIP3   OH230949   6.462   7.978   1.290  0.2510 -0.4686 -0.0613
10338TIP3    H130950   6.457   8.071   1.272  0.7694 -0.1553  1.2999
10338TIP3    H230951   6.550   7.953   1.261  0.1133 -0.5276 -0.4232
10339TIP3   OH230952   2.240   1.390   4.896  0.6085 -0.1472 -0.5638
10339TIP3    H130953   2.208   1.406   4.985  2.1370 -2.0640  0.3701
10339TIP3    H230954   2.169   1.340   4.855  0.9728 -1.5398  0.4429
10340TIP3   OH230955   1.942   3.500   3.884  0.1545 -0.1813 -0.3171
10340TIP3    H130956   1.861   3.529   3.925  1.5323 -0.3089  2.5709
10340TIP3    H230957   1.922   3.412   3.852 -0.7306 -0.3822  0.7472
10341TIP3   OH230958   7.267   7.302   1.332 -0.0254  0.2758  0.1786
10341TIP3    H130959   7.174   7.290   1.313  0.2544  0.6378 -1.4645
10341TIP3    H230960   7.309   7.306   1.246  1.4563  0.5450  0.9017
10342TIP3   OH230961   6.861   5.626   1.335  0.1796 -0.2123  0.3019
10342TIP3    H130962   6.835   5.702   1.388  0.1645  0.5786 -0.8188
10342TIP3    H230963   6.941   5.594   1.376  0.1548  0.3770  0.8204
10343TIP3   OH230964   2.709   0.798   3.343 -0.0355 -0.4202  0.3687
10343TIP3    H130965   2.658   0.724   3.310 -0.5356 -0.0139  0.2375
10343TIP3    H230966   2.782   0.805   3.282  1.3917 -2.3627  1.7554
10344TIP3   OH230967   7.391   7.595   0.804 -0.5029  0.0141 -0.3971
10344TIP3    H130968   7.365   7.682   0.835  0.2960 -0.1993  0.9414
10344TIP3    H230969   7.410   7.546   0.884 -0.7421 -1.3293 -1.1537
10345TIP3   OH230970   4.904   4.083   5.057  0.5322  0.6972 -0.3919
10345TIP3    H130971   4.905   4.053   5.148  1.0053  1.0466 -0.2777
10345TIP3    H230972   4.813   4.107   5.040 -0.4960 -3.4739 -1.3842
10346TIP3   OH230973   3.699   3.340   6.777 -0.5856 -0.2264 -0.1109
10346TIP3    H130974   3.747   3.317   6.698 -1.3493 -1.3984 -0.2584
10346TIP3    H230975   3.764   3.340   6.847 -0.2848 -1.3833 -0.3791
10347TIP3   OH230976   4.340   1.927   6.802  0.1703 -0.3709  0.2896
10347TIP3    H130977   4.341   2.011   6.848 -0.6901  0.3844 -1.0300
10347TIP3    H230978   4.428   1.892   6.814  0.9984  1.4168 -0.3705
10348TIP3   OH230979   4.564   2.659   6.052  0.7662 -0.4266 -0.0848
10348TIP3    H130980   4.652   2.686   6.077  0.5897  0.2096 -0.1431
10348TIP3    H230981   4.539   2.593   6.118 -0.0888  1.9783  2.0604
10349TIP3   OH230982   6.151   3.267   5.759  0.5848 -0.4505 -0.0250
10349TIP3    H130983   6.100   3.221   5.693 -0.2573  0.2686  0.1123
10349TIP3    H230984   6.124   3.359   5.750 -0.3408 -0.4929  2.0193
10350TIP3   OH230985   5.092   5.520   1.917  0.3800 -0.7780  0.7648
10350TIP3    H130986   5.064   5.433   1.888  0.3088 -1.1202  1.8576
10350TIP3    H230987   5.043   5.581   1.862 -0.8534 -1.4052  1.1627
10351TIP3   OH230988   5.434   4.863   1.474 -0.4049  0.1063  0.6044
10351TIP3    H130989   5.386   4.868   1.391  0.4637 -1.4908 -0.0168
10351TIP3    H230990   5.438   4.769   1.493  0.0765  0.4165  2.0730
10352TIP3   OH230991   2.485   3.147   6.814  0.3345  0.0093  0.3720
10352TIP3    H130992   2.457   3.088   6.744 -0.0197 -0.2618  0.7346
10352TIP3    H230993   2.560   3.103   6.855  0.6541  0.2537  0.0457
10353TIP3   OH230994   4.894   6.394   1.182  0.1617  0.5289 -0.1492
10353TIP3    H130995   4.952   6.318   1.182  0.4858  0.7309 -2.8242
10353TIP3    H230996   4.902   6.431   1.270 -0.1540 -2.6128  1.2719
10354TIP3   OH230997   4.928   1.189   5.869 -0.3495  0.1295 -0.3202
10354TIP3    H130998   4.838   1.210   5.893 -0.5403 -1.3162  0.3065
10354TIP3    H230999   4.980   1.210   5.947 -0.4884 -1.2747  0.1709
10355TIP3   OH231000   4.405   2.095   5.933 -0.1693  0.5117 -0.1091
10355TIP3    H131001   4.483   2.150   5.930  0.0860  0.0800 -2.1568
10355TIP3    H231002   4.332   2.157   5.929  0.0505  0.9399  2.2433
10356TIP3   OH231003   5.094   7.274   0.297  0.7064 -0.4708  0.2295
10356TIP3    H131004   5.169   7.255   0.241  0.5204  0.3809 -0.3187
10356TIP3    H231005   5.025   7.302   0.237 -0.6589 -3.0390  0.5574
10357TIP3   OH231006   4.357   6.206   2.574  0.2358 -0.1459 -0.3039
10357TIP3    H131007   4.342   6.225   2.482  1.3827  1.5729 -0.1516
10357TIP3    H231008   4.444   6.240   2.592 -0.8199  1.4866  1.9518
10358TIP3   OH231009   7.746   6.482   1.679  0.0874 -0.1736  0.0989
10358TIP3    H131010   7.792   6.443   1.605  1.2126 -0.4721  0.9470
10358TIP3    H231011   7.804   6.553   1.709 -0.5436  0.1998  0.4499
10359TIP3   OH231012   2.531   0.612   3.313  0.6535  0.2206 -0.4752
10359TIP3    H131013   2.578   0.529   3.311 -0.7401 -0.5529 -1.3411
10359TIP3    H231014   2.443   0.591   3.283 -0.2105  1.6912  0.9462
10360TIP3   OH231015   4.893   5.003   0.634 -0.3106  0.1866  0.5438
10360TIP3    H131016   4.935   5.083   0.601  1.1395 -0.6841  0.2238
10360TIP3    H231017   4.950   4.932   0.604 -0.0158 -0.7700  3.2763
10361TIP3   OH231018   5.597   5.012   5.500 -0.6193 -0.0760 -0.3331
10361TIP3    H131019   5.584   4.925   5.462  0.0640 -0.3815  0.1331
10361TIP3    H231020   5.683   5.040   5.468 -0.1579 -0.2215  0.7554
10362TIP3   OH231021   6.707   7.894   0.528  0.1737 -0.1621  0.0851
10362TIP3    H131022   6.768   7.872   0.598 -0.3393 -1.2050  0.2270
10362TIP3    H231023   6.620   7.883   0.568 -0.1072  1.0769 -0.1782
10363TIP3   OH231024   6.215   5.645   3.622  1.0836 -0.5034  0.4121
10363TIP3    H131025   6.218   5.724   3.568  1.6579 -1.5290 -1.1024
10363TIP3    H231026   6.138   5.656   3.678 -0.8237 -0.3647 -2.1623
10364TIP3   OH231027   8.097   1.143   1.006 -0.3122  0.2164 -0.8130
10364TIP3    H131028   8.086   1.058   0.963 -0.6385 -0.0784 -0.1602
10364TIP3    H231029   8.010   1.183   1.003 -0.1738  0.5109 -1.0659
10365TIP3   OH231030   4.898   8.039   1.492 -0.5158  0.2291 -0.0756
10365TIP3    H131031   4.983   8.008   1.523 -0.6942  0.2220  0.4157
10365TIP3    H231032   4.841   7.962   1.498 -0.8613  0.5467  0.7707
10366TIP3   OH231033   7.874   1.188   0.119 -0.0577  0.2400 -0.2425
10366TIP3    H131034   7.900   1.251   0.185  1.4278 -1.2813  0.6773
10366TIP3    H231035   7.779   1.188   0.121 -0.0357 -0.4428  2.5582
10367TIP3   OH231036   7.092   5.185   0.055  0.2977  0.2917 -0.3218
10367TIP3    H131037   7.177   5.142   0.061  0.1065 -0.0702 -0.1544
10367TIP3    H231038   7.068   5.205   0.145  0.4194  0.8256 -0.4043
10368TIP3   OH231039   1.892   4.717   6.085 -0.1671  0.1006  0.0856
10368TIP3    H131040   1.926   4.785   6.142  0.2908  1.0582 -1.2998
10368TIP3    H231041   1.932   4.735   6.000 -0.5710 -1.4927 -0.4546
10369TIP3   OH231042   7.372   0.796   0.822 -0.1684 -0.1099  0.2113
10369TIP3    H131043   7.333   0.873   0.864 -0.8752 -0.6569  0.5618
10369TIP3    H231044   7.461   0.824   0.800 -1.0173  1.4650 -1.4231
10370TIP3   OH231045   5.096   7.930   0.657  0.4119  0.3682  0.1416
10370TIP3    H131046   5.131   8.019   0.664  0.5952  0.2042  1.4879
10370TIP3    H231047   5.033   7.934   0.585  1.6790  1.1650 -0.9546
10371TIP3   OH231048   4.989   7.948   0.262 -0.0762 -0.4554  0.0015
10371TIP3    H131049   4.951   8.014   0.203  0.9338 -0.0575 -0.2113
10371TIP3    H231050   5.073   7.984   0.287 -0.2179 -0.9342  1.1837
10372TIP3   OH231051   2.980   5.278   6.525  0.0446 -0.9863  0.4834
10372TIP3    H131052   2.988   5.320   6.440 -0.4642 -0.7824  0.5331
10372TIP3    H231053   2.913   5.329   6.571 -2.3895 -3.2974 -0.3665
10373TIP3   OH231054   1.968   1.021   5.770  0.0121 -0.2100 -0.2935
10373TIP3    H131055   1.995   1.010   5.861  0.8959  0.3724 -0.4818
10373TIP3    H231056   1.971   0.933   5.733 -0.8779 -0.5329  0.3808
10374TIP3   OH231057   4.162   6.475   0.877 -0.2435  0.0982  0.1284
10374TIP3    H131058   4.186   6.426   0.956  0.3108  0.5875  0.2751
10374TIP3    H231059   4.231   6.452   0.814 -0.8840 -0.5705 -0.3345
10375TIP3   OH231060   1.798   3.230   4.244 -0.2056  0.3325  0.2340
10375TIP3    H131061   1.796   3.134   4.240 -2.9310  0.3287  1.0229
10375TIP3    H231062   1.871   3.250   4.302  2.1502 -1.1578 -2.0861
10376TIP3   OH231063   2.574   1.596   6.705 -0.0634 -0.8805  0.2435
10376TIP3    H131064   2.623   1.676   6.690 -2.8852  0.5738 -1.7003
10376TIP3    H231065   2.541   1.604   6.794 -0.0864 -0.0138  0.1561
10377TIP3   OH231066   4.122   2.361   6.687  0.0279 -0.2975 -0.3159
10377TIP3    H131067   4.112   2.268   6.709  0.1341 -0.1007  0.5742
10377TIP3    H231068   4.077   2.370   6.603  0.6421 -1.3021 -0.7681
10378TIP3   OH231069   4.490   6.984   0.439  0.8280  0.8230  0.0939
10378TIP3    H131070   4.428   7.037   0.388 -1.4848 -3.0823 -1.4469
10378TIP3    H231071   4.556   6.957   0.375 -0.4629 -1.6736 -0.2693
10379TIP3   OH231072   6.824   3.721   0.311  1.0364  0.2359 -0.1292
10379TIP3    H131073   6.736   3.715   0.346  1.2746 -2.8510  0.0678
10379TIP3    H231074   6.865   3.793   0.360 -0.8913  0.7166  0.7950
10380TIP3   OH231075   7.899   0.815   6.367 -0.9591  0.6641  0.1545
10380TIP3    H131076   7.875   0.846   6.455 -2.5276  1.5077 -0.5583
10380TIP3    H231077   7.873   0.886   6.309  1.0174  0.5366 -0.9029
10381TIP3   OH231078   6.255   5.321  -0.005  0.9339 -0.2490 -0.1173
10381TIP3    H131079   6.237   5.277   0.077 -0.2169 -0.8607 -0.6908
10381TIP3    H231080   6.169   5.340  -0.042  1.4280 -1.3447 -1.8992
10382TIP3   OH231081   3.554   3.288   5.641  0.2988 -0.1280  0.0636
10382TIP3    H131082   3.617   3.315   5.574 -1.3140  2.8818 -0.3331
10382TIP3    H231083   3.472   3.329   5.614 -1.4536 -2.5767  1.4878
10383TIP3   OH231084   3.498   3.162   6.714 -0.0767  0.3276 -0.4361
10383TIP3    H131085   3.565   3.227   6.733  0.8707 -0.3426 -1.4409
10383TIP3    H231086   3.492   3.110   6.794  1.0622 -0.0077 -0.5572
10384TIP3   OH231087   2.479   4.294   6.272  0.0248 -0.6996 -0.0026
10384TIP3    H131088   2.480   4.272   6.179  1.7247 -0.3482 -0.0909
10384TIP3    H231089   2.442   4.217   6.315 -0.7924 -0.8530 -0.9600
10385TIP3   OH231090   1.265   2.281   6.530 -0.2175 -0.3589 -0.2476
10385TIP3    H131091   1.311   2.215   6.478 -0.6260  0.9977 -2.3536
10385TIP3    H231092   1.200   2.231   6.580 -0.6053 -1.5368 -1.9045
10386TIP3   OH231093   0.674   2.801   6.291 -0.1154 -0.2976  0.1155
10386TIP3    H131094   0.612   2.729   6.302 -0.8151  0.1882 -0.5991
10386TIP3    H231095   0.623   2.880   6.311  0.5571  0.0253  0.5750
10387TIP3   OH231096   2.038   5.126   5.679 -0.5183 -0.0006 -0.0082
10387TIP3    H131097   1.993   5.070   5.742  1.4215  0.5119  1.8859
10387TIP3    H231098   1.982   5.203   5.672 -1.8540 -0.9953 -0.6099
10388TIP3   OH231099   3.894   4.195   5.795  0.2304  0.1856  0.2373
10388TIP3    H131100   3.891   4.240   5.880  0.9152  0.5445  0.0709
10388TIP3    H231101   3.806   4.159   5.785 -0.4445  1.7695  0.2265
10389TIP3   OH231102   4.268   5.620   0.039 -0.3021 -0.1093 -0.0786
10389TIP3    H131103   4.197   5.683   0.053 -0.0902  0.1836 -0.2997
10389TIP3    H231104   4.344   5.675   0.020 -0.4378 -0.4592 -1.7147
10390TIP3   OH231105   5.623   6.330   0.200 -0.2152  0.4798 -0.2602
10390TIP3    H131106   5.707   6.309   0.159 -0.1709  0.9887 -0.4359
10390TIP3    H231107   5.626   6.424   0.213 -0.2549  0.3248  0.8643
10391TIP3   OH231108   6.501   5.539   0.531 -0.8148 -0.2817  0.0375
10391TIP3    H131109   6.574   5.523   0.590 -0.7200  3.3102  1.0248
10391TIP3    H231110   6.424   5.544   0.588 -1.2263 -0.1614 -0.5230
10392TIP3   OH231111   5.243   6.620   1.186  0.9497  0.1362 -0.3741
10392TIP3    H131112   5.220   6.528   1.174  1.5337 -0.4967  2.8219
10392TIP3    H231113   5.171   6.668   1.146  0.4969 -1.6712 -1.8526
10393TIP3   OH231114   4.074   3.356   6.554  0.1755 -0.1960 -0.2033
10393TIP3    H131115   4.075   3.375   6.648 -1.2929 -1.9371  0.2042
10393TIP3    H231116   4.045   3.265   6.548 -2.3467  0.6733 -2.4467
10394TIP3   OH231117   4.196   2.299   6.222 -0.1589  0.7078 -0.5666
10394TIP3    H131118   4.116   2.274   6.175  0.4179  0.5743 -1.5024
10394TIP3    H231119   4.222   2.220   6.269 -1.2015  1.0870  0.6499
10395TIP3   OH231120   5.218   2.582   6.433  0.3970  0.0383  0.1545
10395TIP3    H131121   5.270   2.619   6.362  3.2993 -1.1540  1.5646
10395TIP3    H231122   5.233   2.640   6.507  0.3917 -0.7747  0.8050
10396TIP3   OH231123   1.471   5.901   0.561 -0.0155 -0.5063  0.8087
10396TIP3    H131124   1.470   5.961   0.635  0.1658 -0.5928  0.8839
10396TIP3    H231125   1.551   5.922   0.513  1.7412 -2.7879  2.6075
10397TIP3   OH231126   3.720   4.591   6.195 -0.4222  0.3363  0.1200
10397TIP3    H131127   3.713   4.557   6.106 -0.2934  0.7639 -0.0503
10397TIP3    H231128   3.807   4.563   6.225 -1.0445 -1.1081  0.6514
10398TIP3   OH231129   6.292   7.046   0.987  0.7182 -0.0465  0.2350
10398TIP3    H131130   6.373   7.054   1.037  0.4374  0.5638  0.6106
10398TIP3    H231131   6.240   7.122   1.014  0.4268  0.1094 -0.7463
10399TIP3   OH231132   5.046   5.852   5.921 -0.4249 -0.0432 -0.2692
10399TIP3    H131133   5.093   5.785   5.969  1.7284  1.1689 -0.6096
10399TIP3    H231134   5.035   5.924   5.984 -1.9393 -0.3299 -0.1684
10400TIP3   OH231135   4.865   5.207   6.960 -0.3098 -0.3171  0.0124
10400TIP3    H131136   4.795   5.224   6.896  1.8677  0.7086 -2.1604
10400TIP3    H231137   4.926   5.150   6.914  1.5638  0.8399  1.0118
10401TIP3   OH231138   7.667   1.343   6.130  0.2843  0.1047  0.5251
10401TIP3    H131139   7.634   1.261   6.093  0.3950 -1.3629  3.5590
10401TIP3    H231140   7.757   1.324   6.154  0.4899  1.3084  0.7075
10402TIP3   OH231141   8.398   3.428   5.068  0.0410 -0.1434  0.0642
10402TIP3    H131142   8.395   3.355   5.130 -1.6644 -1.7897 -1.8657
10402TIP3    H231143   8.428   3.388   4.985 -0.3762  1.4539 -0.8774
10403TIP3   OH231144   4.947   2.017   6.401  0.1384 -0.2080  0.1209
10403TIP3    H131145   5.026   2.056   6.439 -0.1416  0.1528  0.3443
10403TIP3    H231146   4.937   2.060   6.317 -0.5009  0.6428  0.6245
10404TIP3   OH231147   4.675   2.586   6.333 -0.2672 -0.2741 -0.4100
10404TIP3    H131148   4.761   2.599   6.373 -0.1979  0.5342 -0.8041
10404TIP3    H231149   4.624   2.539   6.399  0.9570 -2.1553 -0.8030
10405TIP3   OH231150   3.273   4.076   5.573 -0.6825  1.0661 -0.3437
10405TIP3    H131151   3.354   4.074   5.522 -0.6841 -1.3949 -0.2858
10405TIP3    H231152   3.272   4.164   5.611  1.5309  1.4366 -1.0270
10406TIP3   OH231153   3.872   1.514   6.510  0.3635  0.1807  0.5265
10406TIP3    H131154   3.873   1.536   6.603 -1.0744 -0.5599  0.7372
10406TIP3    H231155   3.857   1.419   6.508  0.2881  0.2080 -0.4599
10407TIP3   OH231156   6.251   2.045   5.309  1.1115  0.6755  0.0881
10407TIP3    H131157   6.297   1.999   5.238 -0.4902 -0.7723 -0.0474
10407TIP3    H231158   6.199   2.112   5.265  1.0084  0.5301 -0.0153
10408TIP3   OH231159   4.409   0.563   5.025 -0.4498  0.4031 -0.1361
10408TIP3    H131160   4.360   0.492   4.982  0.2749  0.5570 -1.2524
10408TIP3    H231161   4.372   0.568   5.113 -2.3399  0.4185 -0.9024
10409TIP3   OH231162   4.104   3.984   5.978  0.1481 -0.5432  0.2048
10409TIP3    H131163   4.179   3.996   6.036 -0.7929  1.1364  1.1199
10409TIP3    H231164   4.131   4.025   5.895 -0.1991  1.1701  0.9193
10410TIP3   OH231165   6.201   2.469   5.747 -0.2130  0.3252 -0.3567
10410TIP3    H131166   6.149   2.489   5.825  0.1389 -1.9364  0.5084
10410TIP3    H231167   6.272   2.534   5.748  0.7321 -0.7012  2.1525
10411TIP3   OH231168   5.137   2.460   5.961 -0.1257 -0.1877 -0.1737
10411TIP3    H131169   5.177   2.547   5.960 -0.0073 -0.2420 -0.2561
10411TIP3    H231170   5.194   2.409   6.018  0.0416 -0.3214 -0.4597
10412TIP3   OH231171   2.920   4.392   6.548 -0.3282  0.4756 -0.3559
10412TIP3    H131172   2.987   4.324   6.539  0.6125  1.1599  1.2549
10412TIP3    H231173   2.871   4.388   6.466 -0.0728 -1.9016 -0.4387
10413TIP3   OH231174   1.736   0.076   0.109 -0.1711 -0.1228  0.1950
10413TIP3    H131175   1.658   0.107   0.064  0.3177  0.3406 -0.3364
10413TIP3    H231176   1.732   0.117   0.196 -1.1104 -1.0175  0.5760
10414TIP3   OH231177   4.169   4.306   5.794 -0.4795 -0.4451 -0.3580
10414TIP3    H131178   4.095   4.271   5.745  0.8006  0.2745 -2.8524
10414TIP3    H231179   4.231   4.233   5.799  0.6366  0.3442 -2.3899
10415TIP3   OH231180   7.291   2.369   5.945 -0.2850 -0.3153  0.2357
10415TIP3    H131181   7.340   2.409   5.873  0.6154 -2.1737 -0.1982
10415TIP3    H231182   7.270   2.281   5.914 -1.9132 -0.3371  1.3359
10416TIP3   OH231183   4.173   7.509   5.595 -0.2179  0.4034 -0.4549
10416TIP3    H131184   4.186   7.595   5.636  0.4476  0.0241  0.1399
10416TIP3    H231185   4.079   7.494   5.600 -0.6272  2.0661 -2.5267
10417TIP3   OH231186   3.709   1.402   5.717 -0.6813 -0.1618  0.4168
10417TIP3    H131187   3.657   1.429   5.641 -1.2138  0.4233  0.9800
10417TIP3    H231188   3.645   1.391   5.788 -0.2377 -1.1205  0.6739
10418TIP3   OH231189   1.229   7.364   1.078  0.1996  0.0959 -0.1322
10418TIP3    H131190   1.209   7.456   1.063  0.2514  0.5550  2.3504
10418TIP3    H231191   1.291   7.365   1.151  0.2156 -1.9106 -0.0936
10419TIP3   OH231192   3.754   2.438   6.760 -0.2670 -0.3454  0.1618
10419TIP3    H131193   3.723   2.475   6.843 -0.2180 -1.7617  0.8388
10419TIP3    H231194   3.680   2.385   6.729 -0.6561  0.9929 -1.2281
10420TIP3   OH231195   1.002   5.304   0.118 -0.5640  0.1635  0.6306
10420TIP3    H131196   1.027   5.314   0.026  1.6444 -1.5314  0.9960
10420TIP3    H231197   1.076   5.339   0.167 -1.6909  0.9702  1.7952
10421TIP3   OH231198   3.129   3.783   5.970  0.9675 -0.7906 -0.1163
10421TIP3    H131199   3.091   3.718   6.030  0.0054 -0.5562 -0.4623
10421TIP3    H231200   3.176   3.843   6.028 -0.7627 -0.0156  0.5225
10422TIP3   OH231201   2.772   7.828   5.443 -0.1306 -0.5661 -0.0841
10422TIP3    H131202   2.859   7.869   5.439  0.2915 -1.1358  2.3816
10422TIP3    H231203   2.743   7.824   5.352  2.0593  0.4306 -0.8593
10423TIP3   OH231204   7.210   2.337   6.186 -0.1275 -0.4675  0.5776
10423TIP3    H131205   7.295   2.362   6.221 -0.6362  1.4300  0.4806
10423TIP3    H231206   7.212   2.362   6.094 -1.7374  2.1192  1.1864
10424TIP3   OH231207   3.055   3.139   6.482 -0.0750  0.4311 -0.2446
10424TIP3    H131208   3.137   3.115   6.438  0.0965  1.4184 -0.4646
10424TIP3    H231209   3.083   3.181   6.563 -0.3880 -0.9287  0.5918
10425TIP3   OH231210   8.016   7.776   0.612  0.3871 -0.0381  0.0823
10425TIP3    H131211   8.059   7.701   0.573  0.0049  0.2157 -0.8533
10425TIP3    H231212   8.049   7.851   0.563 -0.1295  0.2825  0.2192
10426TIP3   OH231213   7.469   6.779   1.925  0.0518  0.1710  0.1243
10426TIP3    H131214   7.525   6.805   1.998 -0.2674 -0.4214  0.5819
10426TIP3    H231215   7.391   6.834   1.934 -0.3442 -0.4735  0.7173
10427TIP3   OH231216   3.266   1.798   6.100  0.2957  0.0028  0.2450
10427TIP3    H131217   3.199   1.787   6.033  1.0539 -0.8337 -0.3945
10427TIP3    H231218   3.324   1.867   6.066 -0.0891  0.5434  0.6767
10428TIP3   OH231219   3.989   1.309   6.030  0.3541  0.4022 -0.2726
10428TIP3    H131220   4.030   1.299   5.944  0.5120  1.4212 -0.3244
10428TIP3    H231221   4.000   1.402   6.050 -1.2868  0.5393  0.0361
10429TIP3   OH231222   3.550   4.830   6.094  0.0483 -0.6599 -0.6049
10429TIP3    H131223   3.581   4.765   6.032  1.2809  0.2288 -0.9328
10429TIP3    H231224   3.620   4.838   6.159 -0.6513 -0.6012  0.1546
10430TIP3   OH231225   7.128   6.698   1.236  0.0992  0.1377  0.4491
10430TIP3    H131226   7.126   6.790   1.209 -0.7983  0.5337  1.8239
10430TIP3    H231227   7.042   6.682   1.274  0.3873 -1.1696  0.5784
10431TIP3   OH231228   6.848   6.213   0.063  0.7239  0.6763 -0.2344
10431TIP3    H131229   6.808   6.137   0.107 -0.3192  2.2041  1.5381
10431TIP3    H231230   6.906   6.175  -0.003  0.3425 -1.6689  0.7348
10432TIP3   OH231231   7.117   6.395   0.144 -0.5639  0.5442 -0.5500
10432TIP3    H131232   7.068   6.412   0.224 -0.4208  0.3567 -0.4220
10432TIP3    H231233   7.056   6.418   0.073 -0.1053  2.3147 -0.3732
10433TIP3   OH231234   2.910   3.192   4.855 -0.0325  0.4714 -0.0203
10433TIP3    H131235   2.963   3.113   4.869 -0.9320 -0.2820 -0.7530
10433TIP3    H231236   2.820   3.162   4.867 -0.5298  0.8934 -2.3869
10434TIP3   OH231237   3.086   3.873   5.730 -0.2266  0.4460  0.4336
10434TIP3    H131238   3.094   3.835   5.817 -0.0194  1.9485  1.0829
10434TIP3    H231239   3.152   3.828   5.678  1.0979  1.0293  1.5874
10435TIP3   OH231240   4.500   1.520   5.660 -0.0274  0.5065  0.6683
10435TIP3    H131241   4.428   1.583   5.662 -1.2150 -0.7575 -0.5856
10435TIP3    H231242   4.564   1.554   5.722 -0.7291  2.8298  0.1589
10436TIP3   OH231243   6.300   7.632   0.426  0.1855 -0.2519  0.2705
10436TIP3    H131244   6.213   7.595   0.436  0.8724 -2.2137 -0.7505
10436TIP3    H231245   6.359   7.557   0.432  1.5839  0.5639 -2.3137
10437TIP3   OH231246   4.461   3.700   4.808 -0.2899  0.0821  0.6403
10437TIP3    H131247   4.431   3.750   4.732  1.6858  0.4242  0.0583
10437TIP3    H231248   4.474   3.766   4.876 -1.0165 -0.0968  0.9674
10438TIP3   OH231249   2.255   3.472   6.033 -0.1512  0.0854  0.1781
10438TIP3    H131250   2.267   3.410   5.961  1.0931  0.7472 -0.2004
10438TIP3    H231251   2.167   3.509   6.019 -0.5469 -0.9446 -0.0825
10439TIP3   OH231252   7.931   6.196   1.637 -0.0220  0.1172  0.2942
10439TIP3    H131253   8.025   6.182   1.642 -0.0391 -0.3968 -0.7283
10439TIP3    H231254   7.921   6.265   1.572 -0.3991 -0.3694 -0.1654
10440TIP3   OH231255   5.714   3.537   4.703  0.7659 -0.0665 -0.1582
10440TIP3    H131256   5.770   3.468   4.669 -0.4125 -0.5624 -1.1328
10440TIP3    H231257   5.759   3.568   4.782  1.9144 -1.0963 -0.3962
10441TIP3   OH231258   0.423   4.853   0.155 -0.0397  0.0363  0.2079
10441TIP3    H131259   0.441   4.789   0.087 -1.0488 -0.7499  0.6665
10441TIP3    H231260   0.328   4.865   0.153  0.1252  1.4718  0.1722
10442TIP3   OH231261   5.858   5.840   0.420 -0.0708  0.1815 -0.1840
10442TIP3    H131262   5.774   5.870   0.384 -0.0079 -1.4570 -1.7431
10442TIP3    H231263   5.834   5.797   0.502 -0.8860 -1.0851 -1.0630
10443TIP3   OH231264   2.683   3.690   6.917  0.2612 -0.3797  0.1889
10443TIP3    H131265   2.653   3.645   6.997  0.6119 -0.5578  0.2204
10443TIP3    H231266   2.736   3.625   6.871  0.5041 -0.1029  0.0728
10444TIP3   OH231267   4.009   4.353   6.540 -0.0355  0.4052  0.4352
10444TIP3    H131268   3.932   4.340   6.596 -0.0325  0.1890  0.3902
10444TIP3    H231269   4.084   4.343   6.598 -0.0575  1.5052  0.6570
10445TIP3   OH231270   1.461   6.128   1.522 -0.3823  0.3185  0.0386
10445TIP3    H131271   1.444   6.055   1.462  0.0881 -0.1739  0.4960
10445TIP3    H231272   1.418   6.203   1.481 -1.2757 -0.3084 -0.2077
10446TIP3   OH231273   8.141   6.441   1.664  0.3930  0.5609 -0.0478
10446TIP3    H131274   8.231   6.410   1.670 -0.8256 -3.4208 -1.0161
10446TIP3    H231275   8.098   6.405   1.742 -0.7481  1.0296 -0.4490
10447TIP3   OH231276   3.422   3.316   6.495 -0.2136  0.3520  0.1654
10447TIP3    H131277   3.446   3.272   6.577  1.8030  0.7500 -0.2116
10447TIP3    H231278   3.374   3.250   6.445 -1.3113  0.0527  1.5727
10448TIP3   OH231279   6.898   7.497   0.864  0.5880  0.6553 -0.1965
10448TIP3    H131280   6.825   7.471   0.808  0.6254  2.2455 -1.0185
10448TIP3    H231281   6.970   7.440   0.838 -0.2691 -0.7044  0.3953
10449TIP3   OH231282   7.060   6.050   0.979 -0.1572 -0.3392 -0.1704
10449TIP3    H131283   7.016   6.130   1.009  0.3081 -0.0379 -0.2775
10449TIP3    H231284   7.002   5.979   1.004 -2.2365  0.2404 -3.1331
10450TIP3   OH231285   8.233   6.910   1.447  0.2417 -0.1091  0.2665
10450TIP3    H131286   8.190   6.825   1.455 -0.2976  0.0802 -0.5336
10450TIP3    H231287   8.165   6.974   1.467  0.1488  0.1849 -0.9091
10451TIP3   OH231288   8.135   6.715   0.320  0.3812  0.1642 -0.2464
10451TIP3    H131289   8.123   6.715   0.415  0.5323  0.6722 -0.2282
10451TIP3    H231290   8.212   6.661   0.305 -0.7877 -1.5709 -0.2274
10452TIP3   OH231291   7.017   4.917   0.152  0.3222 -0.1968  0.1304
10452TIP3    H131292   6.932   4.932   0.111 -0.0507  0.5996  1.1643
10452TIP3    H231293   7.017   4.976   0.228  0.9956 -1.6153  1.2584
10453TIP3   OH231294   0.648   4.992   0.236 -0.4296  0.1722 -0.1495
10453TIP3    H131295   0.706   4.915   0.239  0.0623  0.5677  0.4830
10453TIP3    H231296   0.565   4.958   0.202 -0.0266 -0.5240 -0.4462
10454TIP3   OH231297   6.655   7.756   0.299  0.0171 -0.4748 -0.3233
10454TIP3    H131298   6.624   7.795   0.381 -0.4367 -0.8379 -0.3239
10454TIP3    H231299   6.646   7.662   0.312  0.5082 -0.5597 -0.5696
10455TIP3   OH231300   2.559   1.414   4.518 -0.2974  0.3182  0.5309
10455TIP3    H131301   2.639   1.443   4.564  0.0838  0.5783 -0.2883
10455TIP3    H231302   2.585   1.333   4.475 -0.3476  0.6265 -0.0887
10456TIP3   OH231303   3.638   2.815   5.834 -0.0852  0.0332  0.3041
10456TIP3    H131304   3.714   2.809   5.776  0.1599 -0.4128  0.6799
10456TIP3    H231305   3.578   2.875   5.788  0.0010 -0.5217 -0.5363
10457TIP3   OH231306   4.065   7.957   5.788 -0.4108  0.4935 -0.2145
10457TIP3    H131307   3.976   7.937   5.758 -1.0257  2.5246  0.1938
10457TIP3    H231308   4.085   8.042   5.749  1.3342  0.1072 -0.2076
10458TIP3   OH231309   0.230   4.019   0.567  0.3597 -0.6272  0.1207
10458TIP3    H131310   0.195   4.092   0.516  0.0280 -1.0524 -0.2703
10458TIP3    H231311   0.315   4.049   0.599 -0.3766  0.4288  1.0937
10459TIP3   OH231312   3.832   1.427   4.927 -0.8890 -0.8471 -0.3862
10459TIP3    H131313   3.795   1.418   4.839 -3.3262 -1.2278  0.6440
10459TIP3    H231314   3.813   1.343   4.970 -0.0855 -0.5171  0.6475
10460TIP3   OH231315   3.413   3.728   6.728 -0.3715  0.6166  0.3290
10460TIP3    H131316   3.439   3.742   6.819  2.0047  0.5475 -0.3227
10460TIP3    H231317   3.378   3.639   6.727 -2.7468  1.4868  1.6566
10461TIP3   OH231318   1.274   7.206   0.836  0.1998 -0.2471  0.2009
10461TIP3    H131319   1.217   7.132   0.855 -1.0645  0.0263 -2.3992
10461TIP3    H231320   1.285   7.250   0.921  0.0335 -2.6969  1.5450
10462TIP3   OH231321   4.039   3.935   6.522 -0.0062  0.4879  0.1676
10462TIP3    H131322   4.038   3.845   6.490 -0.0752  0.7640 -0.6046
10462TIP3    H231323   3.972   3.936   6.591  0.5351 -0.2419  0.7052
10463TIP3   OH231324   5.889   6.365   0.078  0.1500  0.2277  0.3162
10463TIP3    H131325   5.844   6.395  -0.001 -0.2831 -0.4516  0.2962
10463TIP3    H231326   5.935   6.286   0.050  0.8083  0.5432  0.5045
10464TIP3   OH231327   3.390   2.168   5.542  0.3914  0.2155 -0.1368
10464TIP3    H131328   3.374   2.074   5.534  1.0807  0.1333 -0.5854
10464TIP3    H231329   3.367   2.204   5.456 -0.1027  0.4943  0.1085
10465TIP3   OH231330   2.484   3.800   5.328  0.0992  0.8380 -1.0522
10465TIP3    H131331   2.428   3.726   5.304 -0.2271  0.6826  0.1660
10465TIP3    H231332   2.573   3.769   5.311  0.1108 -0.6114  1.4073
10466TIP3   OH231333   7.740   7.135   0.494 -0.3031  0.0704 -0.2302
10466TIP3    H131334   7.681   7.193   0.445  0.1743  1.0937  0.3956
10466TIP3    H231335   7.703   7.048   0.482 -1.2826  0.5608 -0.8220
10467TIP3   OH231336   5.828   2.406   6.700  0.4608 -0.5760  0.4874
10467TIP3    H131337   5.872   2.336   6.748  0.5579 -0.1535  1.0173
10467TIP3    H231338   5.814   2.370   6.613  0.6877 -1.1849  0.7002
10468TIP3   OH231339   5.145   7.145   0.912  0.4630 -0.1482 -0.2561
10468TIP3    H131340   5.204   7.124   0.984  0.3929  1.4736  0.2916
10468TIP3    H231341   5.181   7.097   0.837  1.5309 -0.4608  0.4450
10469TIP3   OH231342   7.502   0.523   1.780 -0.0285  0.2361 -0.0318
10469TIP3    H131343   7.520   0.437   1.818 -2.5027 -0.2674  0.1029
10469TIP3    H231344   7.489   0.507   1.686  0.0284  0.5264 -0.0924
10470TIP3   OH231345   1.042   0.932   6.567  0.3092 -0.4704 -0.1977
10470TIP3    H131346   0.999   1.014   6.543  0.8927 -0.4942 -1.3977
10470TIP3    H231347   1.067   0.943   6.658 -1.3527 -0.0743  0.2375
10471TIP3   OH231348   2.744   3.117   5.853  0.0633 -0.3559 -0.0941
10471TIP3    H131349   2.703   3.047   5.803  2.4604 -0.3587 -2.1743
10471TIP3    H231350   2.703   3.113   5.939 -1.4438 -2.8163 -0.8868
10472TIP3   OH231351   6.258   5.241   0.259  0.0513  0.2763 -0.3658
10472TIP3    H131352   6.202   5.308   0.299 -0.0960  0.6450 -1.1903
10472TIP3    H231353   6.256   5.168   0.322  2.4953  2.0864  1.9235
10473TIP3   OH231354   0.490   5.596   1.324  0.2207  0.0526 -0.1674
10473TIP3    H131355   0.548   5.544   1.268  1.1627  1.1617 -0.2438
10473TIP3    H231356   0.509   5.687   1.299 -2.1198  0.4105 -0.7425
10474TIP3   OH231357   6.197   3.109   5.365 -0.0718 -0.5646 -0.3266
10474TIP3    H131358   6.136   3.119   5.438 -2.1008  1.4076 -2.2068
10474TIP3    H231359   6.162   3.037   5.314 -0.4669  0.1356 -1.0518
10475TIP3   OH231360   1.673   0.355   0.222 -0.0678  0.5659  0.4572
10475TIP3    H131361   1.712   0.443   0.226 -0.5273  0.8104 -0.1771
10475TIP3    H231362   1.585   0.367   0.258 -0.5245  0.6120 -0.6309
10476TIP3   OH231363   5.820   2.750   5.518  0.2114  0.2270  0.5148
10476TIP3    H131364   5.841   2.794   5.436 -0.8408 -0.3926 -0.0951
10476TIP3    H231365   5.801   2.822   5.579  1.9414  0.7184  0.5012
10477TIP3   OH231366   3.496   3.331   5.917 -0.2887 -0.6276 -0.4033
10477TIP3    H131367   3.506   3.300   5.827 -1.4134  0.9475 -1.0893
10477TIP3    H231368   3.578   3.377   5.937 -0.8477  0.7932 -1.3488
10478TIP3   OH231369   0.944   4.046   5.312  0.4800  0.3707 -0.0869
10478TIP3    H131370   1.012   4.002   5.261  1.0975  1.1554  0.0654
10478TIP3    H231371   0.933   4.131   5.271 -1.4470 -0.2744 -1.0147
10479TIP3   OH231372   5.690   3.971   5.548 -0.0950 -0.0663  0.3501
10479TIP3    H131373   5.617   3.980   5.610 -0.9305  0.5709 -0.7081
10479TIP3    H231374   5.743   4.049   5.563 -0.5350  0.3104 -0.0412
10480TIP3   OH231375   5.712   5.960   1.693  0.0888  0.2310 -0.4523
10480TIP3    H131376   5.707   5.915   1.777  1.8081 -1.6886 -1.3399
10480TIP3    H231377   5.666   5.902   1.632  0.1380  0.8874 -1.1268
10481TIP3   OH231378   2.235   2.183   6.862  0.3210  0.5644 -0.1483
10481TIP3    H131379   2.271   2.196   6.774 -0.3293  2.1948 -0.2036
10481TIP3    H231380   2.141   2.172   6.849  0.5926 -2.3599  0.1064
10482TIP3   OH231381   5.557   5.728   0.103  0.5549  0.2957 -0.1317
10482TIP3    H131382   5.461   5.724   0.103  0.6054 -1.2360  0.2022
10482TIP3    H231383   5.578   5.791   0.172 -0.1685 -1.0934  1.4008
10483TIP3   OH231384   6.740   3.625   3.813  0.0135  0.8110  0.2857
10483TIP3    H131385   6.712   3.650   3.902  1.0263  0.2904  0.7598
10483TIP3    H231386   6.791   3.545   3.826 -0.4062  0.3524 -0.8485
10484TIP3   OH231387   5.773   2.080   4.119 -0.2199 -0.3817  0.1265
10484TIP3    H131388   5.795   2.170   4.094 -0.4920 -0.3898 -0.1439
10484TIP3    H231389   5.723   2.046   4.045 -0.2067 -0.7230  0.2734
10485TIP3   OH231390   1.063   4.318   0.345 -0.0198  0.4114  0.2836
10485TIP3    H131391   1.081   4.302   0.253  1.1333  2.4446  0.1385
10485TIP3    H231392   1.130   4.267   0.391  1.1252  1.5588 -0.0811
10486TIP3   OH231393   7.484   2.450   6.223  0.7278 -0.0198 -0.0476
10486TIP3    H131394   7.540   2.393   6.171 -0.5481 -2.3204  1.0346
10486TIP3    H231395   7.525   2.536   6.217  1.1103 -0.4191 -4.0675
10487TIP3   OH231396   3.914   2.158   6.583 -0.5406  0.3358  0.4215
10487TIP3    H131397   3.894   2.067   6.565  2.8607 -0.2274 -1.0060
10487TIP3    H231398   3.897   2.204   6.501 -3.1215  1.1939  1.3947
10488TIP3   OH231399   0.061   0.744   0.032  0.5586  0.2110  0.7693
10488TIP3    H131400   0.064   0.706  -0.056  1.1255  0.2049  0.7856
10488TIP3    H231401  -0.023   0.716   0.068 -0.6786  2.0539 -0.5927
10489TIP3   OH231402   4.922   2.610   6.434  0.7488  0.3844  0.6701
10489TIP3    H131403   5.016   2.609   6.416  0.5577 -0.9229 -0.3096
10489TIP3    H231404   4.916   2.619   6.529  1.8681  0.2478  0.7603
10490TIP3   OH231405   4.341   4.804   4.897  0.1557  0.7398 -0.2102
10490TIP3    H131406   4.257   4.760   4.885  0.0904  1.0633 -0.9741
10490TIP3    H231407   4.327   4.893   4.865 -0.0128  1.6656  2.3215
10491TIP3   OH231408   5.028   2.877   5.143  0.0187 -0.3202  0.2499
10491TIP3    H131409   5.077   2.940   5.090 -0.0608 -1.4619 -1.2101
10491TIP3    H231410   4.953   2.853   5.088 -0.0279 -1.5861  0.8601
10492TIP3   OH231411   4.810   3.350   4.815 -0.1044 -0.0160  0.2880
10492TIP3    H131412   4.874   3.340   4.745  0.8917  0.2111  1.1433
10492TIP3    H231413   4.734   3.390   4.774  0.8745  1.1074 -0.4361
10493TIP3   OH231414   3.524   2.447   6.404  0.4966  0.0306  0.5423
10493TIP3    H131415   3.473   2.479   6.478 -0.1630 -0.2629  0.2119
10493TIP3    H231416   3.479   2.368   6.376  0.9779 -0.0790  0.0764
10494TIP3   OH231417   8.154   7.243   0.635  0.2916 -0.2673  0.1878
10494TIP3    H131418   8.161   7.150   0.656  1.7727 -0.1875  0.0846
10494TIP3    H231419   8.101   7.245   0.556  2.1908 -1.2124 -1.1634
10495TIP3   OH231420   5.183   5.018   4.599  0.5644 -0.2811 -0.2693
10495TIP3    H131421   5.140   4.981   4.522 -1.3882 -0.5818  0.9268
10495TIP3    H231422   5.253   4.956   4.619 -0.9160 -1.9096  0.0517
10496TIP3   OH231423   1.090   0.468   2.167 -0.0185 -0.0984  0.0687
10496TIP3    H131424   1.130   0.395   2.120  1.8562  0.4918  0.6562
10496TIP3    H231425   1.086   0.438   2.258 -1.2849 -0.2933 -0.0503
10497TIP3   OH231426   2.673   3.644   6.270 -0.0329 -0.2375 -0.2015
10497TIP3    H131427   2.650   3.727   6.229  2.4152 -0.0859 -1.3134
10497TIP3    H231428   2.723   3.597   6.204  0.6879 -1.6003  1.2680
10498TIP3   OH231429   6.184   4.830   0.638 -0.4208 -0.4620  1.2958
10498TIP3    H131430   6.164   4.741   0.609  1.5969 -0.3802 -0.5283
10498TIP3    H231431   6.278   4.828   0.658  0.1874  1.7706 -1.0067
10499TIP3   OH231432   2.753   2.664   5.846 -0.0372 -0.6149 -0.7277
10499TIP3    H131433   2.783   2.584   5.802 -0.1022 -0.3078 -1.3346
10499TIP3    H231434   2.662   2.673   5.820  0.2808  0.2677 -1.5686
10500TIP3   OH231435   5.784   7.129   0.021  0.4440  0.4785 -0.8899
10500TIP3    H131436   5.859   7.091   0.067 -0.8125 -0.9469  0.0119
10500TIP3    H231437   5.821   7.201  -0.030  2.1750  0.8241  0.8191
10501TIP3   OH231438   3.694   4.310   6.595 -0.6562 -0.2784 -0.2247
10501TIP3    H131439   3.650   4.283   6.675 -0.6606  0.9259  0.1898
10501TIP3    H231440   3.662   4.249   6.528 -1.7043 -0.4285  0.4053
10502TIP3   OH231441   0.784   6.895   1.093  0.1116 -0.4664 -0.1120
10502TIP3    H131442   0.694   6.926   1.098  0.3335  0.1529  0.1258
10502TIP3    H231443   0.798   6.848   1.174  0.4821  0.7734  0.5646
10503TIP3   OH231444   7.440   6.526   0.592  0.1583 -0.3045  0.2784
10503TIP3    H131445   7.494   6.547   0.668  1.3888  1.6629 -1.0879
10503TIP3    H231446   7.503   6.505   0.522 -0.8723  0.3430 -0.8739
10504TIP3   OH231447   5.519   1.571   6.311 -0.2390  0.2803  0.1652
10504TIP3    H131448   5.535   1.620   6.230  0.7661  0.2181  0.3096
10504TIP3    H231449   5.596   1.515   6.319 -0.1587  0.5603  1.3577
10505TIP3   OH231450   3.801   1.412   6.796  0.4806 -0.0828 -0.0818
10505TIP3    H131451   3.829   1.486   6.850  1.3038 -0.4262 -0.0349
10505TIP3    H231452   3.877   1.354   6.794 -0.4515 -1.3380  0.5923
10506TIP3   OH231453   3.763   1.929   5.760 -0.2266 -0.6829 -0.0273
10506TIP3    H131454   3.750   2.016   5.797  0.0391  0.2344 -2.0056
10506TIP3    H231455   3.688   1.879   5.790  0.1076 -0.0594  1.9224
10507TIP3   OH231456   5.000   1.829   5.626  0.2035  0.1733  0.1223
10507TIP3    H131457   5.063   1.768   5.665  1.5404  0.6187 -1.3088
10507TIP3    H231458   4.950   1.862   5.701  0.1813 -1.8364  1.0485
10508TIP3   OH231459   6.298   6.416   0.956 -0.0491  0.4569 -0.0822
10508TIP3    H131460   6.352   6.493   0.976  0.0390  0.0158  1.4154
10508TIP3    H231461   6.210   6.441   0.983 -0.0525  0.0889  0.2378
10509TIP3   OH231462   2.921   1.926   5.515 -0.1414  0.3015  0.2609
10509TIP3    H131463   2.953   1.850   5.564  0.1085  0.0121 -0.3460
10509TIP3    H231464   2.831   1.902   5.490 -0.3240  0.5140  0.7128
10510TIP3   OH231465   2.342   0.586   0.887  0.4206 -0.5567 -0.4460
10510TIP3    H131466   2.247   0.593   0.897  0.4920  0.5119 -0.4493
10510TIP3    H231467   2.367   0.511   0.941 -0.5926 -1.6771 -1.4999
10511TIP3   OH231468   0.538   6.055   0.514  0.4998  0.6025  0.4161
10511TIP3    H131469   0.619   6.016   0.481 -0.7279 -1.8666  0.1795
10511TIP3    H231470   0.556   6.075   0.606  0.9404 -1.2100  0.7341
10512TIP3   OH231471   6.924   6.768   0.378 -0.5154  0.4102 -0.2611
10512TIP3    H131472   6.922   6.705   0.306  3.0522  1.1819 -1.0904
10512TIP3    H231473   6.917   6.715   0.457  1.6760 -1.0030 -0.9811
10513TIP3   OH231474   1.457   1.617   6.574  0.1835 -0.1667 -0.0957
10513TIP3    H131475   1.461   1.635   6.480 -2.0201 -2.1973 -0.6124
10513TIP3    H231476   1.371   1.650   6.601  0.8556  0.5248  1.2650
10514TIP3   OH231477   0.417   5.103   0.702  1.0284  0.7754  0.8868
10514TIP3    H131478   0.423   5.150   0.785  0.9503  0.6497  0.9637
10514TIP3    H231479   0.474   5.152   0.642  1.8547  0.2868  1.2834
10515TIP3   OH231480   1.808   2.572   6.884 -0.1174 -1.0462  0.3700
10515TIP3    H131481   1.857   2.509   6.938 -1.3628 -1.6363  0.8204
10515TIP3    H231482   1.762   2.517   6.820 -0.7981 -0.5529  0.4388
10516TIP3   OH231483   2.952   6.394   5.441 -0.4088 -0.1788  0.8766
10516TIP3    H131484   2.908   6.332   5.383 -1.0749 -0.1386  1.3439
10516TIP3    H231485   2.932   6.364   5.529 -1.3445  1.1302  1.1234
10517TIP3   OH231486   2.259   3.340   5.776 -0.1981  0.1051  0.3342
10517TIP3    H131487   2.212   3.411   5.731 -1.8085 -0.6874  0.7051
10517TIP3    H231488   2.295   3.287   5.705 -3.4669 -1.6311 -0.1621
10518TIP3   OH231489   5.574   3.556   6.492 -0.0894  0.3869 -0.2765
10518TIP3    H131490   5.593   3.474   6.448 -0.0257  0.3965 -0.2677
10518TIP3    H231491   5.495   3.588   6.450 -0.6855 -0.1822  0.4105
10519TIP3   OH231492   4.053   3.048   5.284  0.0681 -0.1361 -0.2313
10519TIP3    H131493   4.099   2.964   5.280 -0.4843 -0.3909 -1.1727
10519TIP3    H231494   4.072   3.090   5.200  0.3619  0.6912  0.2454
10520TIP3   OH231495   7.274   6.686   1.546  1.2912  0.2568  0.9343
10520TIP3    H131496   7.209   6.734   1.495  2.3843  2.2559  1.3682
10520TIP3    H231497   7.223   6.626   1.601 -0.1324  1.3569  0.8148
10521TIP3   OH231498   1.395   0.297   0.029 -0.2772  0.0214 -0.7148
10521TIP3    H131499   1.400   0.386   0.066  2.3361  0.1863 -1.3825
10521TIP3    H231500   1.418   0.240   0.102  3.2721  0.2533 -1.5632
10522TIP3   OH231501   2.529   0.128   1.565  0.0062  0.1164 -0.4921
10522TIP3    H131502   2.492   0.202   1.614  1.2569  0.8081 -0.5725
10522TIP3    H231503   2.622   0.127   1.590  0.1164 -1.0790 -0.9308
10523TIP3   OH231504   5.192   2.313   5.052  0.1415  0.2800  0.5593
10523TIP3    H131505   5.132   2.369   5.004 -0.3561  1.0565  2.0445
10523TIP3    H231506   5.278   2.351   5.036 -0.2693  2.0408  2.2305
10524TIP3   OH231507   1.335   0.060   1.175  0.1516  0.0179  0.0909
10524TIP3    H131508   1.347   0.141   1.225 -1.8347 -0.6725  1.7867
10524TIP3    H231509   1.413   0.008   1.195 -0.4606 -0.1197  2.3303
10525TIP3   OH231510   3.198   3.894   6.764  0.2034 -0.1064 -0.2490
10525TIP3    H131511   3.122   3.858   6.810  0.6604  0.1033  0.6791
10525TIP3    H231512   3.253   3.818   6.745 -0.8002 -0.4316 -2.0311
10526TIP3   OH231513   0.700   5.861   0.223 -0.0406 -0.2451 -0.1547
10526TIP3    H131514   0.702   5.779   0.174 -0.8578 -0.1048 -0.4236
10526TIP3    H231515   0.635   5.915   0.178  2.2253  1.4894 -1.4553
10527TIP3   OH231516   5.459   5.542   1.181  0.1453  0.6201  0.0039
10527TIP3    H131517   5.515   5.617   1.159 -0.5836  1.3931  0.7135
10527TIP3    H231518   5.519   5.476   1.214  0.6625  1.4135  0.6758
10528TIP3   OH231519   4.913   2.134   5.677  0.4298  0.0835 -0.3926
10528TIP3    H131520   4.984   2.076   5.706  0.6332  0.1621 -0.7295
10528TIP3    H231521   4.915   2.207   5.738  0.0926 -0.3252  0.1106
10529TIP3   OH231522   1.910   0.583   0.036 -0.3159  0.0990  0.1847
10529TIP3    H131523   1.846   0.578   0.107 -0.3770  1.0825  0.2076
10529TIP3    H231524   1.993   0.601   0.079 -0.0666 -0.8823  0.1289
10530TIP3   OH231525   4.410   0.434   6.347 -0.4735 -0.5672 -0.2021
10530TIP3    H131526   4.469   0.359   6.351 -0.3017 -0.5470 -1.8560
10530TIP3    H231527   4.343   0.408   6.283 -0.9864  0.2892 -0.0232
10531TIP3   OH231528   8.281   6.964   0.656  0.3270  0.4152  0.2204
10531TIP3    H131529   8.220   6.930   0.591 -0.2509  1.2087  0.3413
10531TIP3    H231530   8.352   7.002   0.603 -0.0511  0.8934  0.0504
10532TIP3   OH231531   8.125   3.094   6.340  0.1470  0.4467  0.1996
10532TIP3    H131532   8.186   3.023   6.360 -0.3425  0.3934  1.5531
10532TIP3    H231533   8.050   3.051   6.300 -0.7863 -0.0156  2.3522
10533TIP3   OH231534   6.045   7.293   2.098 -0.0559  0.3888  0.9127
10533TIP3    H131535   6.025   7.200   2.106  1.4149  0.1010  1.4788
10533TIP3    H231536   6.131   7.294   2.055 -1.0730  1.5441 -1.1488
10534TIP3   OH231537   0.803   5.468   1.403  0.5440 -0.2080  0.9972
10534TIP3    H131538   0.760   5.383   1.400  1.4965 -0.6509 -0.6033
10534TIP3    H231539   0.882   5.457   1.351 -0.9582  2.5527 -2.0796
10535TIP3   OH231540   1.845   3.572   5.797  0.3910 -0.5562 -0.2950
10535TIP3    H131541   1.798   3.622   5.730  1.4387 -0.2910 -0.8437
10535TIP3    H231542   1.799   3.488   5.801  0.1237 -0.4535 -1.1146
10536TIP3   OH231543   5.691   0.435   6.691  0.3281 -0.5644 -0.5895
10536TIP3    H131544   5.693   0.460   6.784  0.1971  1.0595 -1.0028
10536TIP3    H231545   5.738   0.352   6.687  1.3279 -0.0848  0.7755
10537TIP3   OH231546   5.491   2.333   4.496  0.0478  0.1568 -0.3287
10537TIP3    H131547   5.493   2.303   4.586  0.0450 -0.1240 -0.4198
10537TIP3    H231548   5.409   2.382   4.489 -0.5916 -0.9058 -0.5114
10538TIP3   OH231549   4.668   4.654   6.730 -0.4680 -0.2808  0.5357
10538TIP3    H131550   4.698   4.616   6.812 -1.6157 -0.9685  0.6464
10538TIP3    H231551   4.663   4.580   6.669 -0.0056  0.1573 -0.0427
10539TIP3   OH231552   6.155   2.730   6.363 -0.3637  0.8007  0.2386
10539TIP3    H131553   6.251   2.730   6.352 -0.3029  1.5899  0.7959
10539TIP3    H231554   6.139   2.672   6.437 -0.3188  0.7055  0.1747
10540TIP3   OH231555   0.265   7.574   1.273 -0.0904  0.4573 -0.3724
10540TIP3    H131556   0.220   7.533   1.199  1.9795 -3.1023  0.2013
10540TIP3    H231557   0.214   7.550   1.350  0.6879 -0.3917 -0.1131
10541TIP3   OH231558   2.073   4.766   0.682 -0.6487  0.4462  0.2437
10541TIP3    H131559   2.164   4.782   0.704 -0.4988 -0.9984  0.7401
10541TIP3    H231560   2.068   4.779   0.588  0.0385  0.7070  0.2426
10542TIP3   OH231561   5.449   0.970   6.838  0.6616 -0.4060 -0.2198
10542TIP3    H131562   5.465   1.022   6.917  1.7628  0.9178 -1.2834
10542TIP3    H231563   5.409   1.032   6.777 -1.6568 -1.8135 -0.1780
10543TIP3   OH231564   4.435   2.670   5.391 -0.0399 -0.5116 -0.2911
10543TIP3    H131565   4.523   2.706   5.407  0.6017 -2.2047  0.1309
10543TIP3    H231566   4.398   2.658   5.478  0.6086 -2.8742 -0.3099
10544TIP3   OH231567   7.021   2.363   6.762 -0.6812  0.2664  0.0702
10544TIP3    H131568   7.003   2.289   6.705 -1.3914  0.3749  0.1491
10544TIP3    H231569   6.940   2.413   6.763 -0.1681  1.1288 -0.0955
10545TIP3   OH231570   1.222   0.613   1.376 -0.1074  0.6850 -0.3768
10545TIP3    H131571   1.284   0.655   1.317  2.1428  1.4983  2.4527
10545TIP3    H231572   1.266   0.533   1.405 -1.4707 -0.0701 -0.3318
10546TIP3   OH231573   4.000   1.741   4.578 -0.0349  0.1519 -0.1248
10546TIP3    H131574   4.067   1.702   4.521  0.3654  1.7953 -0.7878
10546TIP3    H231575   3.918   1.701   4.549  0.3675 -0.2177 -0.7720
10547TIP3   OH231576   3.373   4.183   6.495 -0.2194  0.3368  0.3536
10547TIP3    H131577   3.367   4.206   6.587 -1.8506 -1.1068  0.6348
10547TIP3    H231578   3.387   4.088   6.495  0.3721  0.4025 -0.8819
10548TIP3   OH231579   2.486   2.665   6.434 -0.1896  0.2637 -0.6909
10548TIP3    H131580   2.550   2.706   6.375 -0.5612 -1.2957 -2.2299
10548TIP3    H231581   2.510   2.572   6.433  0.0162  0.2589  1.9371
10549TIP3   OH231582   3.249   1.953   6.466 -0.4662 -0.1176  0.2784
10549TIP3    H131583   3.273   1.948   6.558  1.7750 -1.6779 -0.3483
10549TIP3    H231584   3.241   1.861   6.439  0.3603  0.3082 -1.4468
10550TIP3   OH231585   3.681   5.586   4.371  0.0089  0.0413  0.1485
10550TIP3    H131586   3.774   5.605   4.361  0.1430 -0.2533  0.8238
10550TIP3    H231587   3.645   5.664   4.413 -0.6140  1.4133 -2.7858
10551TIP3   OH231588   5.313   6.998   4.946  0.2678 -0.0513 -0.0438
10551TIP3    H131589   5.374   6.946   4.895  1.1505  1.4999 -0.6024
10551TIP3    H231590   5.234   7.004   4.891  1.0337  1.1911 -1.0445
10552TIP3   OH231591   5.392   2.609   4.745 -0.4530 -0.7684  0.6086
10552TIP3    H131592   5.386   2.574   4.834  0.6435  1.4905  1.6098
10552TIP3    H231593   5.486   2.613   4.727 -0.5671  1.1847  0.3587
10553TIP3   OH231594   3.272   2.603   5.409  0.2801 -0.0130  0.0327
10553TIP3    H131595   3.238   2.691   5.391  0.7703  0.2020  0.1585
10553TIP3    H231596   3.365   2.616   5.426 -0.0813 -0.2447  2.4160
10554TIP3   OH231597   7.302   7.114   0.479  0.0497  1.0467  0.0040
10554TIP3    H131598   7.346   7.031   0.462  1.6631  1.9626 -0.3802
10554TIP3    H231599   7.220   7.108   0.430 -0.1079 -0.5344  0.4399
10555TIP3   OH231600   0.832   6.017   1.357 -0.0378  0.0544 -0.0871
10555TIP3    H131601   0.840   6.106   1.323 -0.5851 -0.3646 -1.3830
10555TIP3    H231602   0.918   5.997   1.393  0.5681  0.5363 -1.2384
10556TIP3   OH231603   5.797   1.458   4.892  0.5587  0.0490 -0.2528
10556TIP3    H131604   5.718   1.444   4.944  0.3985 -2.1001 -1.0246
10556TIP3    H231605   5.832   1.370   4.878  2.2979  0.8617 -1.1434
10557TIP3   OH231606   7.794   2.469   0.170  0.3193  0.6183 -0.3378
10557TIP3    H131607   7.809   2.476   0.265 -0.5294  1.3468 -0.2497
10557TIP3    H231608   7.760   2.380   0.159  1.4356  0.1482 -0.1111
10558TIP3   OH231609   3.315   3.110   6.351  0.1243 -0.2510  0.2817
10558TIP3    H131610   3.293   3.145   6.264 -1.8681  1.1632  1.3207
10558TIP3    H231611   3.292   3.017   6.345 -1.8112  0.2304 -0.1318
10559TIP3   OH231612   5.600   1.442   6.910  0.4056 -0.4057  0.3116
10559TIP3    H131613   5.609   1.537   6.919  0.4205 -0.2683 -1.1316
10559TIP3    H231614   5.589   1.427   6.817 -0.4522 -1.7677  0.6144
10560TIP3   OH231615   7.418   7.662   2.155 -0.3348 -0.3275  0.3138
10560TIP3    H131616   7.425   7.576   2.114  0.3095 -0.2051  0.1731
10560TIP3    H231617   7.506   7.699   2.151 -0.6325  0.3962  0.2458
10561TIP3   OH231618   6.613   3.630   6.493 -0.3884  0.0024 -0.4969
10561TIP3    H131619   6.528   3.599   6.462  0.0733 -1.4270 -0.3541
10561TIP3    H231620   6.628   3.581   6.574  0.2408  0.7774 -0.1426
10562TIP3   OH231621   5.967   2.304   6.278 -0.3352  0.0905 -0.3389
10562TIP3    H131622   6.062   2.318   6.281 -0.3801  0.1978  1.0893
10562TIP3    H231623   5.954   2.248   6.202  0.6263  1.8209 -1.8195
10563TIP3   OH231624   5.121   2.522   5.678 -0.7507  0.8591 -0.1493
10563TIP3    H131625   5.101   2.614   5.693  1.6453  1.2921  0.4956
10563TIP3    H231626   5.135   2.485   5.765  0.1591  0.3233 -0.5133
10564TIP3   OH231627   5.854   1.728   4.766 -0.0138  0.3933 -0.7481
10564TIP3    H131628   5.915   1.665   4.804 -0.0650  1.2269  0.7819
10564TIP3    H231629   5.910   1.799   4.733 -0.0652  0.4488 -0.7166
10565TIP3   OH231630   5.975   1.402   6.255 -0.0664  0.1830  0.4523
10565TIP3    H131631   6.011   1.490   6.264 -0.3459  0.3885 -0.4000
10565TIP3    H231632   6.039   1.345   6.296 -0.0418  0.8226  1.3055
10566TIP3   OH231633   0.939   0.910   1.659 -0.2924  0.1663 -0.2249
10566TIP3    H131634   1.011   0.851   1.683 -1.6173 -1.3581  0.0754
10566TIP3    H231635   0.939   0.909   1.563  1.1802  1.5365 -0.2501
10567TIP3   OH231636   6.604   7.552   1.474  0.4759 -0.3371  0.1224
10567TIP3    H131637   6.528   7.546   1.532  1.0501  2.3254  1.2311
10567TIP3    H231638   6.566   7.561   1.386 -0.4074 -2.6979  0.1983
10568TIP3   OH231639   3.292   6.381   6.208  0.2006  0.0012  0.0611
10568TIP3    H131640   3.366   6.330   6.241 -0.2807  0.2340  1.5109
10568TIP3    H231641   3.308   6.470   6.239 -0.2368  0.2407 -0.3906
10569TIP3   OH231642   0.662   6.327   0.045 -0.1113 -0.3401 -0.2309
10569TIP3    H131643   0.651   6.419   0.068 -0.6690 -0.2459 -0.8831
10569TIP3    H231644   0.724   6.294   0.110 -1.9703 -0.1693  1.6671
10570TIP3   OH231645   5.388   3.297   6.637 -0.1439 -0.2776  0.1416
10570TIP3    H131646   5.294   3.302   6.620 -0.0798 -0.8400 -0.3903
10570TIP3    H231647   5.411   3.384   6.671 -0.9145 -0.2452  0.5885
10571TIP3   OH231648   8.083   6.594   1.412  0.0025  0.4197 -0.0096
10571TIP3    H131649   8.094   6.573   1.504 -1.3623 -0.6455 -0.0691
10571TIP3    H231650   8.157   6.553   1.368 -1.1493 -1.9893  0.2265
10572TIP3   OH231651   0.049   6.219   0.872  0.7110 -0.5674 -0.3919
10572TIP3    H131652   0.090   6.152   0.926 -0.9984 -0.4354  1.1158
10572TIP3    H231653  -0.045   6.201   0.878  0.3060  1.3021 -0.8112
10573TIP3   OH231654   3.493   7.068   0.418 -0.1302 -0.0622 -0.0718
10573TIP3    H131655   3.565   7.058   0.356 -0.5816  0.1412 -0.6429
10573TIP3    H231656   3.534   7.065   0.504  0.7743  1.7702 -0.4152
10574TIP3   OH231657   5.722   0.632   4.669  0.1848  0.3074 -0.2425
10574TIP3    H131658   5.650   0.598   4.616 -0.0709  0.9306 -0.3048
10574TIP3    H231659   5.753   0.709   4.620  1.1385 -0.1748 -0.4083
10575TIP3   OH231660   7.020   5.436   1.986 -0.5670 -0.6699 -0.0921
10575TIP3    H131661   7.011   5.485   2.068 -2.1343 -1.7077  0.3702
10575TIP3    H231662   7.111   5.407   1.986 -0.3274  0.0556  0.8776
10576TIP3   OH231663   3.088   0.670   5.332  0.5752 -0.0075 -0.2179
10576TIP3    H131664   3.149   0.631   5.395 -0.9798  2.2795  2.8547
10576TIP3    H231665   3.102   0.764   5.341 -1.4010  0.4325 -1.5288
10577TIP3   OH231666   6.771   5.303   0.799  0.1850 -0.2597 -0.1192
10577TIP3    H131667   6.824   5.333   0.873  0.3508 -0.5933 -0.1033
10577TIP3    H231668   6.722   5.228   0.832 -0.7978  0.4483  0.0557
10578TIP3   OH231669   1.667   0.331   0.593  0.1112  0.0955  0.0503
10578TIP3    H131670   1.651   0.390   0.666 -0.2473  1.1654 -0.8781
10578TIP3    H231671   1.597   0.350   0.531  0.8466 -0.2535 -0.9015
10579TIP3   OH231672   1.931   7.779   0.572  0.2955 -0.2726 -0.0422
10579TIP3    H131673   1.852   7.725   0.580  1.2546 -1.6920  0.0654
10579TIP3    H231674   1.919   7.848   0.636 -1.7826  0.7014 -1.4117
10580TIP3   OH231675   6.401   6.154   0.234  0.0583  0.6575 -0.4587
10580TIP3    H131676   6.391   6.219   0.165 -0.0462  0.1438 -0.9326
10580TIP3    H231677   6.327   6.094   0.222 -0.1210  0.7213  0.2731
10581TIP3   OH231678   6.031   2.509   6.877  0.5069  0.2036  0.2475
10581TIP3    H131679   6.003   2.495   6.967  0.7140 -0.1899  0.2491
10581TIP3    H231680   5.955   2.485   6.824 -0.1840  1.9612  0.3750
10582TIP3   OH231681   0.754   0.199   0.867  0.1554  0.3888  0.0197
10582TIP3    H131682   0.748   0.294   0.880  0.5480  0.4697 -0.3617
10582TIP3    H231683   0.789   0.190   0.778  2.1112 -0.0814  0.8137
10583TIP3   OH231684   6.509   3.169   5.916 -0.1303 -0.8354  0.0331
10583TIP3    H131685   6.576   3.108   5.948 -0.6567 -0.8303  1.1937
10583TIP3    H231686   6.432   3.115   5.899  0.3983 -0.9552 -2.0602
10584TIP3   OH231687   7.753   7.154   1.079 -0.3443 -0.1702  0.2431
10584TIP3    H131688   7.727   7.245   1.095  2.0605  0.7556 -0.8432
10584TIP3    H231689   7.747   7.144   0.984  1.9363 -0.3279  0.1090
10585TIP3   OH231690   6.916   7.810   0.340  0.3409  0.2284  0.3923
10585TIP3    H131691   6.821   7.810   0.329  0.3339 -0.9697  0.3927
10585TIP3    H231692   6.931   7.751   0.414  1.0317  1.0223  0.8944
10586TIP3   OH231693   5.641   2.051   5.640 -0.2443 -0.1672  0.4703
10586TIP3    H131694   5.567   2.033   5.582 -0.0501 -1.0570  0.4972
10586TIP3    H231695   5.715   2.006   5.600 -0.0225 -0.4542  1.1864
10587TIP3   OH231696   7.227   7.950   1.263  0.0182  0.2625 -0.1773
10587TIP3    H131697   7.244   7.858   1.248  0.3107  0.5181 -1.5087
10587TIP3    H231698   7.300   7.980   1.317 -0.3910 -0.4148  0.7522
10588TIP3   OH231699   3.534   1.966   6.749 -0.6743 -0.3473 -0.1644
10588TIP3    H131700   3.603   2.030   6.769 -0.4707 -0.1267 -1.5534
10588TIP3    H231701   3.562   1.886   6.793 -0.2949  0.1628  0.5309
10589TIP3   OH231702   4.687   3.315   6.184  0.0397  0.1135  0.3178
10589TIP3    H131703   4.591   3.322   6.183 -0.0259 -0.8324  0.1870
10589TIP3    H231704   4.705   3.225   6.209  0.8756 -0.2519 -1.4885
10590TIP3   OH231705   3.832   2.651   6.131  0.1305 -0.3055  0.4279
10590TIP3    H131706   3.855   2.619   6.218  1.3823  0.0648  0.2349
10590TIP3    H231707   3.743   2.685   6.142  0.5445  0.3970  1.7457
10591TIP3   OH231708   4.035   1.356   4.631  0.3726  0.4903  0.6720
10591TIP3    H131709   3.994   1.311   4.706  0.5405  0.3885  0.7031
10591TIP3    H231710   4.079   1.431   4.670  0.9610  0.1036  0.7502
10592TIP3   OH231711   8.188   2.944   5.626 -0.1823  0.1573 -0.0466
10592TIP3    H131712   8.187   3.024   5.678 -3.0926  0.3466 -0.3063
10592TIP3    H231713   8.102   2.941   5.585  0.3496 -2.4344 -1.0850
10593TIP3   OH231714   5.034   6.831   1.494 -0.2790  0.1038  0.2818
10593TIP3    H131715   5.066   6.891   1.427 -2.4484  1.5124  0.4426
10593TIP3    H231716   4.963   6.878   1.537 -1.1941 -2.0879  1.2863
10594TIP3   OH231717   2.703   3.030   5.378  0.3007 -0.2754 -0.4146
10594TIP3    H131718   2.629   3.022   5.317  1.2059 -1.7446 -1.3471
10594TIP3    H231719   2.781   3.023   5.323  1.2126  3.0359  0.3241
10595TIP3   OH231720   5.402   6.184   0.219 -0.2590 -0.4228 -0.4135
10595TIP3    H131721   5.468   6.251   0.202 -0.5978  0.4565  1.6242
10595TIP3    H231722   5.410   6.165   0.312 -1.6486 -1.6408 -0.5214
10596TIP3   OH231723   3.523   1.350   5.035  0.4025 -0.1157  0.6224
10596TIP3    H131724   3.526   1.346   4.939  0.6304 -0.3172  0.6367
10596TIP3    H231725   3.594   1.293   5.063  0.6361  0.3104  0.9047
10597TIP3   OH231726   2.955   7.449   5.698 -0.3174  0.1525  0.5276
10597TIP3    H131727   2.932   7.475   5.609 -1.2337  0.5764  0.8766
10597TIP3    H231728   2.876   7.406   5.731  0.2299 -0.5644  0.9210
10598TIP3   OH231729   6.866   1.753   5.488 -0.2530  0.0827 -0.3328
10598TIP3    H131730   6.827   1.841   5.491 -0.1677  0.1218 -0.3342
10598TIP3    H231731   6.831   1.714   5.408  0.5049  0.4949 -0.8782
10599TIP3   OH231732   2.482   2.071   6.666  0.0497 -0.4643  0.0791
10599TIP3    H131733   2.537   2.054   6.743 -0.9116 -0.6748  0.7237
10599TIP3    H231734   2.490   2.166   6.652  1.4747 -0.6586 -0.5252
10600TIP3   OH231735   4.666   1.981   6.178 -0.0104 -0.4753 -0.4764
10600TIP3    H131736   4.610   2.033   6.236 -1.3528 -1.7830 -0.5643
10600TIP3    H231737   4.743   2.036   6.162 -0.3720  0.5554  1.2377
10601TIP3   OH231738   6.435   6.197   1.083  0.1235  0.4981  0.0985
10601TIP3    H131739   6.479   6.118   1.051 -0.3768 -0.1447  0.9763
10601TIP3    H231740   6.418   6.249   1.004  0.2994 -0.3502 -0.5038
10602TIP3   OH231741   0.782   5.026   1.495  0.3543  0.1039  0.1831
10602TIP3    H131742   0.711   4.969   1.464  0.2404  1.5565 -2.4102
10602TIP3    H231743   0.849   5.018   1.427  1.5300  0.8615  1.2499
10603TIP3   OH231744   8.005   7.184   0.403 -0.1179  0.0952 -0.3442
10603TIP3    H131745   7.920   7.144   0.423 -1.7811  3.5960 -0.1080
10603TIP3    H231746   8.004   7.196   0.308  0.2625 -0.1647 -0.3816
10604TIP3   OH231747   5.763   4.135   0.395  0.1249  0.0718  0.1600
10604TIP3    H131748   5.829   4.128   0.326 -0.1079  0.9572 -0.1524
10604TIP3    H231749   5.792   4.207   0.449 -0.8864  0.8487 -0.3099
10605TIP3   OH231750   2.412   5.598   5.869 -0.0136  0.3850 -0.1866
10605TIP3    H131751   2.411   5.672   5.930 -1.1691 -0.8853  1.4005
10605TIP3    H231752   2.321   5.590   5.840  0.2225 -0.0314 -0.8344
10606TIP3   OH231753   7.704   7.166   1.924  0.5287 -0.2098  0.3118
10606TIP3    H131754   7.666   7.128   1.845 -1.4855  2.2512  0.0353
10606TIP3    H231755   7.732   7.254   1.898  0.1891  0.4892  2.2035
10607TIP3   OH231756   6.697   6.718   1.113  0.2692 -0.0221 -0.3779
10607TIP3    H131757   6.745   6.763   1.183  0.9050 -0.0122 -0.8156
10607TIP3    H231758   6.741   6.744   1.033 -1.8786  1.7955 -1.0111
10608TIP3   OH231759   6.846   2.631   3.105  0.1419 -0.2237 -0.0803
10608TIP3    H131760   6.868   2.557   3.048 -0.4634  1.1250 -2.1349
10608TIP3    H231761   6.752   2.620   3.122  1.1691 -3.1112  4.4364
10609TIP3   OH231762   7.561   2.601   5.393  0.4237  0.3990  0.2099
10609TIP3    H131763   7.637   2.640   5.350  1.1018  0.5634  1.5629
10609TIP3    H231764   7.495   2.671   5.393 -0.0560 -0.0168 -1.7450
10610TIP3   OH231765   4.880   3.276   6.901  0.1251 -0.6819  0.2590
10610TIP3    H131766   4.969   3.290   6.933 -0.5038  1.9569  0.9603
10610TIP3    H231767   4.873   3.332   6.824 -1.0680 -0.4606  0.5162
10611TIP3   OH231768   7.345   3.216   5.803  0.2987  0.2391  0.8292
10611TIP3    H131769   7.420   3.269   5.830  0.5300 -0.7037  2.0894
10611TIP3    H231770   7.294   3.203   5.883 -1.8385  1.8117 -0.2101
10612TIP3   OH231771   5.810   4.155   6.068  0.4423  0.2102 -0.2219
10612TIP3    H131772   5.732   4.206   6.092  0.1300  0.3037 -1.4098
10612TIP3    H231773   5.845   4.199   5.990 -0.2514 -1.7894 -1.7080
10613TIP3   OH231774   1.496   5.638   0.475 -0.3309 -0.0358  0.5457
10613TIP3    H131775   1.452   5.644   0.390  2.8912  0.6457 -1.1358
10613TIP3    H231776   1.504   5.728   0.505  0.6248 -0.0942  0.4711
10614TIP3   OH231777   5.707   2.578   5.171 -0.1034 -0.4054  0.4818
10614TIP3    H131778   5.611   2.582   5.175 -0.2000 -1.3990 -0.6293
10614TIP3    H231779   5.733   2.545   5.257 -0.8649 -1.7289  0.2170
10615TIP3   OH231780   5.686   2.884   5.021  0.0472 -0.5141  0.1735
10615TIP3    H131781   5.755   2.855   4.961  0.0325 -0.0243 -0.0932
10615TIP3    H231782   5.611   2.900   4.963 -0.4333 -1.5002  0.5231
10616TIP3   OH231783   1.314   6.084   0.228  0.1901  0.3717 -0.0110
10616TIP3    H131784   1.265   6.036   0.295  0.6228  0.6176  0.4934
10616TIP3    H231785   1.354   6.156   0.276  2.4623 -0.8036 -0.0627
10617TIP3   OH231786   7.482   3.517   6.544  0.0236  0.1031 -0.7611
10617TIP3    H131787   7.499   3.535   6.636 -0.5457  2.1248 -1.0374
10617TIP3    H231788   7.527   3.434   6.527 -1.7710 -1.4855  1.8970
10618TIP3   OH231789   1.090   5.787   0.467  0.3052 -0.1239 -0.2017
10618TIP3    H131790   1.067   5.769   0.376 -1.6293  0.1151  0.2187
10618TIP3    H231791   1.024   5.740   0.518 -0.4303  2.2074  1.0278
10619TIP3   OH231792   5.670   2.311   4.946  0.1354  0.1909 -0.2189
10619TIP3    H131793   5.703   2.255   5.016 -0.2441  1.1017  0.6987
10619TIP3    H231794   5.748   2.351   4.908  0.5931 -2.4916 -2.2325
10620TIP3   OH231795   5.993   1.982   4.744  0.3090  0.1817  0.8816
10620TIP3    H131796   6.036   1.935   4.815  0.1014 -0.2217  0.7394
10620TIP3    H231797   6.065   2.015   4.689  0.4413 -0.3210  0.7542
10621TIP3   OH231798   1.864   4.218   0.052 -0.3581 -0.0678  0.0605
10621TIP3    H131799   1.937   4.158   0.070  0.4676  1.2071  1.0245
10621TIP3    H231800   1.844   4.204  -0.041 -0.3825 -2.0360  0.3376
10622TIP3   OH231801   7.541   3.396   4.592  0.1937 -0.3972 -0.1243
10622TIP3    H131802   7.468   3.433   4.542  0.6166  1.1205  0.3593
10622TIP3    H231803   7.605   3.370   4.526 -0.3478 -0.8124 -0.4948
10623TIP3   OH231804   2.135   6.263   2.454  0.2866 -0.5321 -0.0619
10623TIP3    H131805   2.053   6.259   2.405 -0.5761 -0.3494  1.3542
10623TIP3    H231806   2.192   6.319   2.400 -1.9204  2.8318  0.9487
10624TIP3   OH231807   7.169   1.941   5.433 -0.8369 -0.1641  0.1147
10624TIP3    H131808   7.236   2.004   5.461  0.6140 -0.1343 -3.1391
10624TIP3    H231809   7.212   1.856   5.441 -1.0242 -0.3002 -0.3113
10625TIP3   OH231810   8.313   6.049   0.924 -0.4980  0.5473  0.1389
10625TIP3    H131811   8.302   5.975   0.984 -0.4753  0.8268  0.4950
10625TIP3    H231812   8.230   6.097   0.930 -1.1836 -0.4177 -1.4366
10626TIP3   OH231813   6.938   1.575   6.810  0.7033  0.3110 -0.1661
10626TIP3    H131814   6.854   1.591   6.853  0.8308 -1.4394  0.8056
10626TIP3    H231815   6.942   1.639   6.739 -2.2800 -0.7944 -1.3812
10627TIP3   OH231816   1.860   7.121   0.093  0.3925  0.0509  0.1577
10627TIP3    H131817   1.812   7.107   0.012 -1.8971  0.1435  1.4497
10627TIP3    H231818   1.853   7.038   0.140  2.1731 -0.1835  0.0665
10628TIP3   OH231819   6.760   4.842   5.972  0.1109 -0.3548  0.1519
10628TIP3    H131820   6.849   4.834   6.006 -0.2414 -0.1273  1.1262
10628TIP3    H231821   6.737   4.753   5.946  0.5232 -0.4598  0.1401
10629TIP3   OH231822   7.132   6.997   1.191  0.1517  0.3550  0.2555
10629TIP3    H131823   7.110   7.090   1.190  0.6988  0.4937  1.0356
10629TIP3    H231824   7.218   6.992   1.150 -0.7247 -0.0350 -1.5694
10630TIP3   OH231825   1.598   7.410   0.697  0.4974 -0.4926  0.3753
10630TIP3    H131826   1.517   7.382   0.654  0.8294 -1.2862  0.2664
10630TIP3    H231827   1.579   7.404   0.790  1.0767 -2.6339  0.3843
10631TIP3   OH231828   0.801   1.641   4.579 -0.0358 -0.4234 -0.3550
10631TIP3    H131829   0.881   1.681   4.615  0.5918 -1.4710 -0.5558
10631TIP3    H231830   0.733   1.707   4.591  0.4035 -0.3178  1.7569
10632TIP3   OH231831   8.296   3.716   6.800  0.5502 -0.0963 -0.0189
10632TIP3    H131832   8.244   3.777   6.748 -2.0450 -1.8922  0.3559
10632TIP3    H231833   8.322   3.766   6.877 -0.4716  0.9286 -0.3256
10633TIP3   OH231834   8.083   5.753   0.758  0.3419  0.4198  0.0137
10633TIP3    H131835   8.063   5.766   0.851  1.4281  0.1728  0.2828
10633TIP3    H231836   8.153   5.815   0.739  0.2826  0.3046 -0.5790
10634TIP3   OH231837   7.058   3.706   3.908  0.3234  0.3731 -0.5649
10634TIP3    H131838   7.054   3.677   3.999 -1.7509 -0.3313 -0.8343
10634TIP3    H231839   7.136   3.664   3.872 -0.7381 -2.1423 -0.0073
10635TIP3   OH231840   0.009   4.446   6.255  0.1715  0.4850 -0.0225
10635TIP3    H131841  -0.062   4.405   6.305  1.4058 -0.2258  1.1794
10635TIP3    H231842   0.065   4.486   6.321  2.1403 -0.9495 -0.7798
10636TIP3   OH231843   6.638   5.089   5.511  0.4948 -0.4292 -0.0993
10636TIP3    H131844   6.662   5.004   5.549  0.3828 -0.9053 -1.0664
10636TIP3    H231845   6.720   5.137   5.506  0.3784 -0.0299  1.5241
10637TIP3   OH231846   5.283   3.221   5.688  0.4238  0.5688 -0.0220
10637TIP3    H131847   5.274   3.315   5.673 -1.7820  0.3274 -0.3182
10637TIP3    H231848   5.322   3.214   5.776  0.3123  1.7380  0.1204
10638TIP3   OH231849   6.885   2.765   5.446 -0.6174  0.2966  0.0005
10638TIP3    H131850   6.901   2.729   5.359 -0.6311 -0.2078  0.2014
10638TIP3    H231851   6.796   2.800   5.441 -0.1280  1.4609 -0.5750
10639TIP3   OH231852   5.568   2.507   5.849  0.5434  0.4282  0.0514
10639TIP3    H131853   5.508   2.443   5.887  1.2899  1.0546  2.3701
10639TIP3    H231854   5.619   2.457   5.785  0.4577 -1.0719  1.1253
10640TIP3   OH231855   1.287   8.002   1.465 -0.2389 -0.0104 -0.0126
10640TIP3    H131856   1.251   7.952   1.538 -1.0822  2.3633  1.2555
10640TIP3    H231857   1.344   8.066   1.506  1.4548 -0.4221 -1.6669
10641TIP3   OH231858   4.825   4.408   6.131 -0.2496 -0.6030 -0.2864
10641TIP3    H131859   4.744   4.457   6.120  0.3215  0.3223 -0.4055
10641TIP3    H231860   4.843   4.410   6.225 -0.4601 -0.9574 -0.2391
10642TIP3   OH231861   6.430   3.397   6.334 -0.4039 -0.5426 -0.5921
10642TIP3    H131862   6.477   3.425   6.255 -0.8802  0.6691 -0.4474
10642TIP3    H231863   6.467   3.311   6.354  0.6727 -0.2657 -1.3551
10643TIP3   OH231864   5.303   4.023   6.593  0.1181  0.0068 -0.2128
10643TIP3    H131865   5.353   3.945   6.618 -1.0768 -0.3996  0.9673
10643TIP3    H231866   5.368   4.081   6.552  1.2987 -1.0255  0.1688
10644TIP3   OH231867   7.369   3.227   5.518  0.0324  0.2909 -0.0717
10644TIP3    H131868   7.276   3.234   5.496  0.1149 -2.6952 -1.7709
10644TIP3    H231869   7.373   3.231   5.613 -2.0324 -1.0016  0.0893
10645TIP3   OH231870   7.786   7.358   0.625 -0.7281  0.5238 -0.6285
10645TIP3    H131871   7.799   7.295   0.553  0.1978  0.5427 -0.4800
10645TIP3    H231872   7.691   7.370   0.629 -1.1360 -2.6897  0.8810
10646TIP3   OH231873   7.751   3.646   4.740  0.0691  0.4014  0.5538
10646TIP3    H131874   7.815   3.603   4.684 -0.7401  0.9177 -0.8144
10646TIP3    H231875   7.757   3.601   4.824  1.9708  0.2307  0.3353
10647TIP3   OH231876   6.653   2.898   5.339  0.3055 -0.1804  0.5440
10647TIP3    H131877   6.692   2.928   5.257 -0.1494 -1.0600  0.0078
10647TIP3    H231878   6.571   2.947   5.346 -0.7044 -1.6658 -0.6057
10648TIP3   OH231879   6.304   2.363   4.374  0.1427 -0.1992  0.0152
10648TIP3    H131880   6.243   2.306   4.327  0.1553 -0.9782  0.9260
10648TIP3    H231881   6.389   2.345   4.334  0.1277 -0.7501  0.2249
10649TIP3   OH231882   7.381   4.204   4.882  0.0071 -0.2310  0.6096
10649TIP3    H131883   7.465   4.212   4.836  0.3973 -0.9535  1.1847
10649TIP3    H231884   7.401   4.224   4.973 -0.2533 -1.3535  0.9188
10650TIP3   OH231885   7.791   3.188   4.066  1.1388  0.3798  0.3399
10650TIP3    H131886   7.763   3.235   3.987  1.8981 -0.9448 -0.7362
10650TIP3    H231887   7.873   3.145   4.041 -0.6954 -3.4506  0.5271
10651TIP3   OH231888   5.367   1.946   5.902  0.1096 -0.3203  0.3785
10651TIP3    H131889   5.333   1.899   5.979  1.5526 -0.4530  0.9576
10651TIP3    H231890   5.459   1.964   5.924  0.2257  0.6383 -0.8567
10652TIP3   OH231891   6.792   3.131   5.441  0.0329  0.3897 -0.0373
10652TIP3    H131892   6.858   3.108   5.375 -0.0003  0.7231 -0.1880
10652TIP3    H231893   6.720   3.070   5.425  0.6667 -0.5687  0.7050
10653TIP3   OH231894   6.526   1.745   4.911  0.3915 -0.4375  0.0843
10653TIP3    H131895   6.503   1.706   4.827 -1.3866  0.6612  0.0494
10653TIP3    H231896   6.500   1.680   4.976 -0.7321 -0.1608 -0.0806
10654TIP3   OH231897   7.117   3.064   3.689 -0.1815 -0.8607  0.0969
10654TIP3    H131898   7.140   3.013   3.767 -0.2150 -0.7180  0.2005
10654TIP3    H231899   7.022   3.057   3.683 -0.3792  0.7141  1.1684
10655TIP3   OH231900   7.910   5.318   5.675  0.5382 -0.4897 -0.3976
10655TIP3    H131901   7.910   5.305   5.770  0.9723  0.0013 -0.3266
10655TIP3    H231902   7.817   5.322   5.651  0.4281 -0.7992 -0.0202
10656TIP3   OH231903   8.244   6.944   0.372 -0.4292  0.0846  0.1826
10656TIP3    H131904   8.186   6.868   0.365  0.7938 -1.3695  4.5184
10656TIP3    H231905   8.321   6.920   0.321 -1.6168  0.0992 -1.6860
10657TIP3   OH231906   6.817   4.354   4.924 -0.0713  0.3864 -0.3830
10657TIP3    H131907   6.758   4.430   4.925 -1.4732 -0.6949  1.2400
10657TIP3    H231908   6.874   4.366   5.000 -0.2329 -0.1248 -0.1766
10658TIP3   OH231909   2.349   0.487   1.417  0.1458 -0.3092  0.4296
10658TIP3    H131910   2.285   0.417   1.428  0.9047 -0.5679  3.8970
10658TIP3    H231911   2.431   0.441   1.395  0.0340 -0.3117  0.0273
10659TIP3   OH231912   7.529   5.916   2.756 -0.0820 -0.4468  0.3195
10659TIP3    H131913   7.575   5.919   2.840 -0.5456  0.2056  0.5487
10659TIP3    H231914   7.469   5.842   2.764 -1.1642  0.5017  1.1054
10660TIP3   OH231915   4.408   4.471   5.144 -0.0876 -0.2989 -0.2658
10660TIP3    H131916   4.427   4.552   5.097  0.8709  0.3971  1.2638
10660TIP3    H231917   4.313   4.460   5.135 -0.6970  2.5147  1.8132
10661TIP3   OH231918   7.545   2.199   5.698 -0.9529 -0.1973 -0.4689
10661TIP3    H131919   7.619   2.183   5.639 -0.2594 -0.8897  0.5744
10661TIP3    H231920   7.580   2.258   5.765 -1.1577 -1.0472  0.3939
10662TIP3   OH231921   6.083   2.628   6.115 -0.1141 -1.0924  0.4439
10662TIP3    H131922   6.049   2.656   6.200 -0.3687 -1.6771  0.5425
10662TIP3    H231923   6.131   2.703   6.082 -1.1119 -0.4138  0.5166
10663TIP3   OH231924   0.053   3.236   5.782 -0.3709 -0.1744 -0.1722
10663TIP3    H131925   0.126   3.260   5.726 -0.1569  1.1553  0.6452
10663TIP3    H231926   0.085   3.252   5.871 -1.5772  0.2332  0.2025
10664TIP3   OH231927   5.709   3.274   6.643 -0.8682  0.3578  0.1875
10664TIP3    H131928   5.616   3.293   6.629 -1.0305 -1.5152 -1.6471
10664TIP3    H231929   5.722   3.283   6.737 -2.9045  0.6627  0.4588
10665TIP3   OH231930   0.476   3.333   4.657  0.2136  0.0855  0.0480
10665TIP3    H131931   0.543   3.265   4.643  0.3482  0.0656  0.7937
10665TIP3    H231932   0.526   3.412   4.675  0.0369 -0.2497  2.1354
10666TIP3   OH231933   8.204   2.556   5.952  0.2073  0.1254 -0.3739
10666TIP3    H131934   8.258   2.590   5.880  0.0385  1.5521  0.1665
10666TIP3    H231935   8.146   2.629   5.975  0.2201 -0.3386  1.1767
10667TIP3   OH231936   6.549   2.768   3.755 -0.2228 -0.5946 -0.0552
10667TIP3    H131937   6.549   2.769   3.850  0.4357 -0.3662 -0.0513
10667TIP3    H231938   6.610   2.698   3.732  1.4641  0.9108 -0.3009
10668TIP3   OH231939   1.629   7.695   0.663  0.0990 -0.6437  0.1580
10668TIP3    H131940   1.601   7.751   0.591  0.1540  0.0737  0.6962
10668TIP3    H231941   1.582   7.612   0.648 -2.5072  0.5785  1.1459
10669TIP3   OH231942   5.820   4.954   5.305 -0.0200  0.4440 -0.1261
10669TIP3    H131943   5.784   4.872   5.272  1.9298 -0.8870  1.0291
10669TIP3    H231944   5.816   5.013   5.229 -1.0615 -0.7938 -1.0697
10670TIP3   OH231945   1.160   7.605   0.043  0.0516 -0.2816  0.0610
10670TIP3    H131946   1.169   7.510   0.052  0.9093 -0.3212 -1.1101
10670TIP3    H231947   1.104   7.630   0.117  1.1187 -1.4781  1.3194
10671TIP3   OH231948   1.119   5.896   1.058  0.0281  0.2486 -0.9968
10671TIP3    H131949   1.072   5.868   1.136 -0.7878  0.5910 -1.3584
10671TIP3    H231950   1.050   5.906   0.991  0.2726  3.1796 -0.8609
10672TIP3   OH231951   6.334   3.366   5.427  0.1080  0.5327  0.4529
10672TIP3    H131952   6.345   3.332   5.515  1.6598 -0.2471 -0.0421
10672TIP3    H231953   6.289   3.296   5.379 -0.4848  0.8480  0.5392
10673TIP3   OH231954   7.621   6.325   1.885  0.4921 -0.2064  0.1485
10673TIP3    H131955   7.689   6.365   1.831 -0.0820 -0.1851 -0.5515
10673TIP3    H231956   7.553   6.391   1.892  0.2547 -0.4660  0.3260
10674TIP3   OH231957   7.215   1.206   4.843 -0.5563  0.8565 -0.0416
10674TIP3    H131958   7.158   1.137   4.810  0.1243 -0.4775  1.4634
10674TIP3    H231959   7.283   1.216   4.777 -0.6909  0.1044 -0.2955
10675TIP3   OH231960   4.551   2.592   4.979  0.4289  0.3955  0.3541
10675TIP3    H131961   4.570   2.622   4.891 -0.8733  1.3904  0.3940
10675TIP3    H231962   4.455   2.597   4.986  0.3853 -1.3284  1.2298
10676TIP3   OH231963   5.160   2.070   2.792  0.1876 -0.0037 -0.4412
10676TIP3    H131964   5.177   2.080   2.699  1.1865  0.5820 -0.1982
10676TIP3    H231965   5.104   2.144   2.815 -1.8882 -1.3319 -1.0087
10677TIP3   OH231966   6.776   2.770   6.406 -0.3771  0.5683 -0.1933
10677TIP3    H131967   6.701   2.711   6.403 -0.5405  0.7637 -0.0037
10677TIP3    H231968   6.779   2.810   6.319  0.0321 -0.0832 -0.4827
10678TIP3   OH231969   8.026   0.850   6.862 -0.1928 -0.2916  0.4049
10678TIP3    H131970   7.934   0.874   6.865 -0.4780 -1.4072  0.8941
10678TIP3    H231971   8.035   0.796   6.784  0.3492  1.0298 -0.4460
10679TIP3   OH231972   8.304   3.324   6.359 -0.5088 -0.4961  0.2283
10679TIP3    H131973   8.248   3.259   6.317 -0.1770 -1.1639  0.8042
10679TIP3    H231974   8.353   3.275   6.425 -0.7622  0.4684  1.1530
10680TIP3   OH231975   7.474   4.140   5.743 -0.4215 -0.3999  0.0622
10680TIP3    H131976   7.430   4.058   5.765  0.7039 -1.2527 -0.7851
10680TIP3    H231977   7.477   4.189   5.825 -0.5195 -1.4897  0.7175
10681TIP3   OH231978   7.045   4.999   5.939 -0.3031 -0.5111  0.1110
10681TIP3    H131979   7.008   4.964   5.858  0.3179  1.5352 -1.1156
10681TIP3    H231980   7.038   5.094   5.929  1.3202 -0.1919  1.7421
10682TIP3   OH231981   7.557   6.013   0.670 -0.0762  0.0960  0.4523
10682TIP3    H131982   7.486   5.991   0.731 -0.7135 -0.0069 -0.3166
10682TIP3    H231983   7.619   5.940   0.678  0.5253  0.7648  1.9994
10683TIP3   OH231984   0.162   4.509   6.746  0.4693  0.5352  0.4011
10683TIP3    H131985   0.126   4.569   6.811 -0.5032  1.1104 -0.6357
10683TIP3    H231986   0.173   4.426   6.793 -0.6006  0.8256  1.1994
10684TIP3   OH231987   6.799   4.085   5.378 -0.1602 -0.3769  0.7002
10684TIP3    H131988   6.887   4.047   5.389  0.1824 -0.1506 -1.0782
10684TIP3    H231989   6.739   4.016   5.406  0.5360 -1.1135  0.3889
10685TIP3   OH231990   7.644   2.191   6.090 -0.0431  0.5681  0.4195
10685TIP3    H131991   7.685   2.242   6.021  0.3923 -1.7791 -1.1415
10685TIP3    H231992   7.718   2.163   6.145 -0.4355  2.7990  2.1272
10686TIP3   OH231993   5.968   0.647   6.912  0.4662  0.2506 -0.5182
10686TIP3    H131994   6.035   0.617   6.973  0.9449 -0.3854 -1.3373
10686TIP3    H231995   6.012   0.649   6.827 -0.6258 -0.4948 -1.1287
10687TIP3   OH231996   1.834   7.614   0.901  0.1279 -1.0266 -0.1124
10687TIP3    H131997   1.846   7.534   0.850 -1.6767 -0.8862 -0.8068
10687TIP3    H231998   1.760   7.658   0.860  1.0016  0.9381  0.3725
10688TIP3   OH231999   5.518   4.871   6.151 -0.0928  0.7678  0.0454
10688TIP3    H132000   5.579   4.900   6.219  0.2203  1.3572 -0.4736
10688TIP3    H232001   5.432   4.877   6.192  0.2144 -0.3358  0.8706
10689TIP3   OH232002   6.146   4.166   4.994  0.0753 -0.2011 -0.0057
10689TIP3    H132003   6.131   4.126   5.080  0.2675 -0.2629 -0.0010
10689TIP3    H232004   6.203   4.240   5.011 -2.7441  1.9749  0.4293
10690TIP3   OH232005   7.064   3.578   4.454 -0.0045 -0.2609 -0.8927
10690TIP3    H132006   6.999   3.530   4.506  0.1231  0.9070  0.3666
10690TIP3    H232007   7.036   3.669   4.458  1.6316  0.2435 -0.4264
10691TIP3   OH232008   0.566   6.230   1.337 -0.0453  0.4965  0.6609
10691TIP3    H132009   0.645   6.231   1.284  1.1265 -0.5691  2.3627
10691TIP3    H232010   0.536   6.140   1.334 -0.6094  0.6731  0.8924
10692TIP3   OH232011   1.122   4.925   1.589  0.1350  0.3288  0.2668
10692TIP3    H132012   1.051   4.884   1.539 -0.9328  0.2400  1.8005
10692TIP3    H232013   1.125   5.015   1.556 -0.8503  0.3962  0.3252
10693TIP3   OH232014   5.845   3.608   5.645  1.1433  0.5166 -0.9203
10693TIP3    H132015   5.760   3.649   5.632  0.3590 -0.0987  1.8679
10693TIP3    H232016   5.871   3.576   5.558 -2.2568 -0.7954 -1.5157
10694TIP3   OH232017   0.181   7.694   0.416  0.0952 -1.0426 -0.2668
10694TIP3    H132018   0.161   7.758   0.484  2.5767 -2.2175  1.6770
10694TIP3    H232019   0.200   7.746   0.338  1.5914  0.5953  1.1375
10695TIP3   OH232020   7.840   7.819   0.355  0.4657  0.2056  0.0445
10695TIP3    H132021   7.824   7.881   0.427 -2.3896 -0.1439 -0.2095
10695TIP3    H232022   7.904   7.758   0.390  0.3879  1.0271  1.7006
10696TIP3   OH232023   2.146   7.247   0.594 -0.6016  0.4224  0.1105
10696TIP3    H132024   2.113   7.231   0.506 -0.5048  1.8512 -0.1959
10696TIP3    H232025   2.235   7.279   0.581  0.4144 -1.9891  0.8648
10697TIP3   OH232026   5.480   2.247   6.321 -0.5214 -1.0107 -0.1274
10697TIP3    H132027   5.519   2.163   6.294  3.4085  1.1350 -1.5709
10697TIP3    H232028   5.528   2.271   6.401 -0.4040  0.6681 -0.6804
10698TIP3   OH232029   1.558   7.857   1.525  0.3812 -0.7856  0.0182
10698TIP3    H132030   1.486   7.813   1.570  0.4708 -0.1912  0.7556
10698TIP3    H232031   1.518   7.935   1.487  0.3619 -1.1495 -0.7187
10699TIP3   OH232032   8.147   4.908   5.732 -0.1251 -0.7635  0.0751
10699TIP3    H132033   8.053   4.906   5.715 -0.3688 -0.6541  1.3384
10699TIP3    H232034   8.182   4.967   5.665 -0.9087 -1.0373 -0.5905
10700TIP3   OH232035   5.672   4.485   3.498 -0.5376  0.2311  0.0831
10700TIP3    H132036   5.686   4.539   3.576  0.3581 -0.7039  0.5788
10700TIP3    H232037   5.656   4.397   3.533 -3.1228  0.3776 -0.6612
10701TIP3   OH232038   5.289   4.483   6.839 -0.3505 -0.1283  0.1161
10701TIP3    H132039   5.354   4.552   6.852  1.4095 -2.0479  1.6236
10701TIP3    H232040   5.244   4.475   6.923 -1.2772 -0.1232 -0.3637
10702TIP3   OH232041   0.891   2.678   6.173 -0.2255  0.1751  0.2584
10702TIP3    H132042   0.818   2.728   6.209  1.1439  0.4010  2.8158
10702TIP3    H232043   0.933   2.738   6.111 -0.6739  0.9762  0.7184
10703TIP3   OH232044   7.213   1.764   4.100  0.6725  0.2812 -0.3108
10703TIP3    H132045   7.279   1.695   4.089  0.4817  0.4454 -2.9281
10703TIP3    H232046   7.250   1.840   4.055 -0.3340  1.0515  0.1332
10704TIP3   OH232047   4.391   3.839   4.607  0.1321  0.4623  0.1985
10704TIP3    H132048   4.323   3.798   4.554  2.6859 -0.5567 -2.4030
10704TIP3    H232049   4.395   3.929   4.574 -0.4887  0.7473  0.8963
10705TIP3   OH232050   0.265   6.966   0.601  0.6120  0.2212 -0.5023
10705TIP3    H132051   0.238   6.982   0.691  0.2700 -0.0465 -0.5559
10705TIP3    H232052   0.358   6.945   0.607  0.0534 -2.1755  0.0544
10706TIP3   OH232053   4.416   3.336   6.111 -0.3772 -0.4723  0.4082
10706TIP3    H132054   4.386   3.419   6.147 -3.5914 -0.1261 -2.7823
10706TIP3    H232055   4.362   3.270   6.155 -0.8159 -0.4898 -0.1570
10707TIP3   OH232056   6.985   3.550   5.908  0.0501  0.0165  0.6732
10707TIP3    H132057   6.962   3.581   5.820  2.7202 -0.9582 -0.4052
10707TIP3    H232058   7.077   3.524   5.902  1.2399  2.8752  4.5868
10708TIP3   OH232059   1.392   5.857   1.048  0.4159 -0.0320 -0.1292
10708TIP3    H132060   1.301   5.887   1.051 -0.2588 -2.0217 -0.1632
10708TIP3    H232061   1.392   5.786   0.984  1.8632 -0.4840  0.3462
10709TIP3   OH232062   4.563   1.041   0.300 -0.0824  0.3084 -0.5312
10709TIP3    H132063   4.505   1.048   0.224  0.5405  2.1625 -0.8537
10709TIP3    H232064   4.551   1.123   0.348  1.7009  0.4136 -0.2151
10710TIP3   OH232065   6.401   4.724   5.443  0.4105 -0.1717 -0.2963
10710TIP3    H132066   6.482   4.728   5.393  0.5862 -3.4794 -0.3557
10710TIP3    H232067   6.427   4.699   5.531 -0.3218  1.4283  0.4103
10711TIP3   OH232068   0.510   4.779   0.782  0.2285  0.4322 -0.0478
10711TIP3    H132069   0.499   4.686   0.797  1.5533  0.3829  0.7193
10711TIP3    H232070   0.563   4.810   0.856 -0.3864  1.8281 -0.1651
10712TIP3   OH232071   8.019   1.987   6.252  0.1961 -0.2678  0.5289
10712TIP3    H132072   7.938   1.936   6.262  0.2327 -0.1557  1.4000
10712TIP3    H232073   8.008   2.033   6.169  0.2580 -1.8912 -0.4009
10713TIP3   OH232074   6.504   3.982   4.721 -0.4386 -0.3219 -0.3138
10713TIP3    H132075   6.412   3.956   4.724 -0.1501 -1.3677 -0.3857
10713TIP3    H232076   6.513   4.047   4.791 -0.8799 -1.3689  0.7440
10714TIP3   OH232077   4.950   2.940   5.463  0.5935 -0.1438  0.1792
10714TIP3    H132078   5.028   2.890   5.487  0.5864  0.2620  1.0901
10714TIP3    H232079   4.979   2.998   5.393  1.7054  1.5426  1.9606
10715TIP3   OH232080   6.460   4.277   6.027  0.0515  0.2279  0.1146
10715TIP3    H132081   6.415   4.194   6.043  1.5693 -0.6156  0.1049
10715TIP3    H232082   6.404   4.343   6.068 -0.5716 -0.9323  1.1637
10716TIP3   OH232083   5.410   5.492   4.528 -0.3978 -0.5296 -0.1860
10716TIP3    H132084   5.456   5.427   4.581 -4.0159  0.0159  3.9568
10716TIP3    H232085   5.331   5.447   4.498 -0.5162  0.4852 -1.4203
10717TIP3   OH232086   0.433   2.763   5.452  0.1417  0.2343 -0.2965
10717TIP3    H132087   0.491   2.818   5.504  1.5946  0.1078 -1.7426
10717TIP3    H232088   0.350   2.811   5.450 -0.1673 -0.0913  2.6746
10718TIP3   OH232089   2.707   4.351   0.192 -0.3475  0.1617  0.1597
10718TIP3    H132090   2.776   4.332   0.128  0.6883  0.1736  1.2536
10718TIP3    H232091   2.626   4.330   0.147  0.0586  3.9836 -2.6504
10719TIP3   OH232092   7.752   2.775   5.567  0.2195  0.4021 -0.6740
10719TIP3    H132093   7.736   2.816   5.481  0.9917  0.7561 -0.6559
10719TIP3    H232094   7.848   2.770   5.573  0.1367 -2.1038 -0.9990
10720TIP3   OH232095   6.926   3.479   6.602 -0.5087 -0.5792  0.2601
10720TIP3    H132096   6.945   3.403   6.657  1.1987 -0.0541  0.4469
10720TIP3    H232097   7.009   3.497   6.558 -0.8256  1.3324  0.4241
10721TIP3   OH232098   8.203   2.903   6.721  0.0275 -0.5286  0.1451
10721TIP3    H132099   8.275   2.965   6.712 -0.0265 -0.7712 -2.2817
10721TIP3    H232100   8.242   2.827   6.765  0.7084  0.2089  0.8247
10722TIP3   OH232101   3.761   7.515   6.225 -0.2127 -0.0934 -0.6727
10722TIP3    H132102   3.671   7.500   6.255  0.2030  1.1759  1.3413
10722TIP3    H232103   3.808   7.542   6.304  1.4532  1.2996 -2.0917
10723TIP3   OH232104   7.570   2.867   6.669 -0.7556 -0.2731  0.5725
10723TIP3    H132105   7.611   2.807   6.731  1.2881  0.8458  0.3510
10723TIP3    H232106   7.528   2.810   6.605  3.9791 -1.6991 -1.5478
10724TIP3   OH232107   6.892   0.124   6.494 -0.3494  0.0004 -0.2146
10724TIP3    H132108   6.967   0.110   6.552  1.6765  1.3768 -2.3938
10724TIP3    H232109   6.858   0.037   6.477  0.5468 -0.6206  1.0551
10725TIP3   OH232110   8.174   3.252   6.040  0.0107  0.2548 -0.6426
10725TIP3    H132111   8.193   3.196   6.115  0.2385  0.5924 -0.4446
10725TIP3    H232112   8.119   3.322   6.075  0.6211  0.7509 -0.6563
10726TIP3   OH232113   0.032   4.165   6.775  0.6229  0.9286  0.1844
10726TIP3    H132114   0.057   4.080   6.812 -0.8299  0.3757 -0.0412
10726TIP3    H232115  -0.009   4.143   6.691  0.8598  1.9098 -0.1965
10727TIP3   OH232116   6.445   2.922   5.730  0.0674  0.0220 -0.2400
10727TIP3    H132117   6.415   2.837   5.698  0.5524 -0.3383  0.2606
10727TIP3    H232118   6.539   2.923   5.710 -0.2025  1.0395 -1.5822
10728TIP3   OH232119   6.534   3.272   4.325  0.0267 -0.5177  0.1731
10728TIP3    H132120   6.439   3.281   4.321  0.0221 -0.3819  0.5190
10728TIP3    H232121   6.556   3.297   4.415  0.4489  0.0588 -0.0879
10729TIP3   OH232122   2.196   7.694   0.987  0.3630 -0.1124  0.0148
10729TIP3    H132123   2.102   7.705   1.000 -0.1145 -0.3595 -2.8887
10729TIP3    H232124   2.234   7.780   1.005 -0.1899 -0.4067  2.7519
10730TIP3   OH232125   0.745   4.971   0.692 -0.3486  0.1960 -0.0818
10730TIP3    H132126   0.789   4.923   0.622 -0.0697 -0.9854  0.9004
10730TIP3    H232127   0.653   4.943   0.686 -0.2867 -0.0535  0.1580
10731TIP3   OH232128   5.287   4.650   6.123 -0.5147 -0.1673 -0.0410
10731TIP3    H132129   5.255   4.591   6.191 -0.5541  0.9951  0.9586
10731TIP3    H232130   5.382   4.646   6.130 -0.5244  1.3624  1.3438
10732TIP3   OH232131   5.456   3.194   6.282 -0.4079 -0.3509  0.1711
10732TIP3    H132132   5.411   3.274   6.310  0.9808  0.6351 -0.3336
10732TIP3    H232133   5.433   3.184   6.190  0.8284  0.4773 -0.2438
10733TIP3   OH232134   0.757   0.486   0.852 -0.0101  0.1006 -0.3412
10733TIP3    H132135   0.669   0.523   0.844 -0.2265 -0.5469 -1.0685
10733TIP3    H232136   0.810   0.537   0.790  0.5114  1.6110  1.3240
10734TIP3   OH232137   6.500   3.521   5.055  0.2443  0.3927  0.3314
10734TIP3    H132138   6.446   3.584   5.102  0.1902  1.0874 -0.6482
10734TIP3    H232139   6.548   3.475   5.124 -1.0988  0.2156  1.1617
10735TIP3   OH232140   7.301   5.998   1.293 -0.4040  1.0176  0.1794
10735TIP3    H132141   7.245   5.943   1.238  0.4727  1.8684 -1.6226
10735TIP3    H232142   7.308   5.951   1.376 -1.1000 -0.7016 -0.7141
10736TIP3   OH232143   7.015   4.713   5.233 -0.5093  0.7588  0.2666
10736TIP3    H132144   7.000   4.803   5.263 -1.8174  0.4722  0.4810
10736TIP3    H232145   7.088   4.682   5.286 -0.2579  1.5900  0.4105
10737TIP3   OH232146   5.401   3.751   6.665  0.4224  0.1511 -0.1615
10737TIP3    H132147   5.393   3.669   6.617 -1.0744  1.1538 -1.6798
10737TIP3    H232148   5.393   3.726   6.757 -0.3086 -1.3669 -0.6269
10738TIP3   OH232149   3.927   2.038   4.538 -0.4313  0.3077 -0.0898
10738TIP3    H132150   3.913   1.957   4.587  0.2339  0.0730 -0.2815
10738TIP3    H232151   3.876   2.026   4.458  0.3685 -0.2860 -0.5099
10739TIP3   OH232152   7.447   6.804   2.457  0.0787  0.2341  0.3837
10739TIP3    H132153   7.541   6.785   2.462  0.0049 -0.3091 -0.2178
10739TIP3    H232154   7.417   6.755   2.380 -0.2403  2.3077 -0.8470
10740TIP3   OH232155   6.703   2.491   4.177  0.2745 -0.0935 -0.1267
10740TIP3    H132156   6.728   2.496   4.269 -1.4867 -1.0965  0.4136
10740TIP3    H232157   6.785   2.474   4.131  1.1638  0.4022  1.2392
10741TIP3   OH232158   6.609   4.146   6.651 -0.7452  0.0288  0.0065
10741TIP3    H132159   6.698   4.136   6.685 -0.9976  0.5924  0.8449
10741TIP3    H232160   6.564   4.066   6.679 -0.4108 -0.4466 -0.7648
10742TIP3   OH232161   5.383   1.834   6.329  0.9465 -0.1173 -0.2608
10742TIP3    H132162   5.337   1.814   6.248 -0.7600  0.7685  0.4701
10742TIP3    H232163   5.382   1.753   6.379  2.5831 -0.8521 -1.3809
10743TIP3   OH232164   5.771   3.233   4.795 -0.5497 -0.1332 -0.1439
10743TIP3    H132165   5.816   3.283   4.863 -0.5296  2.2199 -1.8104
10743TIP3    H232166   5.791   3.280   4.714 -1.4007 -2.2878 -1.6480
10744TIP3   OH232167   6.168   3.471   6.223 -0.6345  0.0187  0.1474
10744TIP3    H132168   6.253   3.444   6.257  0.1874  0.8655 -1.2195
10744TIP3    H232169   6.153   3.414   6.148 -0.1437  1.5284 -1.1065
10745TIP3   OH232170   5.080   3.022   6.757  0.2098  0.3033 -0.5636
10745TIP3    H132171   5.144   2.996   6.823 -0.7676 -2.5969 -0.6660
10745TIP3    H232172   4.995   3.003   6.797 -0.4837  1.1235 -1.6081
10746TIP3   OH232173   6.753   2.362   5.428  0.2637 -0.1117 -0.0586
10746TIP3    H132174   6.780   2.436   5.482  1.5634  0.1072 -0.9653
10746TIP3    H232175   6.749   2.398   5.339  1.8585 -1.3409 -0.6499
10747TIP3   OH232176   6.545   1.255   5.377 -0.0846  0.3591  0.8338
10747TIP3    H132177   6.572   1.174   5.421 -1.6315  0.7912  2.6981
10747TIP3    H232178   6.561   1.324   5.442  1.3479  1.5728 -0.7859
10748TIP3   OH232179   1.246   6.767   0.458  0.1087 -0.4525 -0.2444
10748TIP3    H132180   1.223   6.691   0.511 -1.2919  0.2901  0.2537
10748TIP3    H232181   1.178   6.831   0.477 -0.4704 -0.1688 -3.0002
10749TIP3   OH232182   0.536   3.691   6.545  0.4128 -0.4200 -0.1729
10749TIP3    H132183   0.537   3.695   6.450 -0.1640  1.9580 -0.1261
10749TIP3    H232184   0.493   3.608   6.566  0.3145 -0.8307 -1.9860
10750TIP3   OH232185   6.588   7.296   0.708  0.2502  0.3471  0.2054
10750TIP3    H132186   6.655   7.355   0.674  0.5049  0.3583  0.7247
10750TIP3    H232187   6.632   7.248   0.778 -0.7039  1.4363  1.5952
10751TIP3   OH232188   0.558   3.080   6.345 -0.2696 -0.1708  0.0420
10751TIP3    H132189   0.527   3.152   6.400 -2.7184 -0.6701 -0.6250
10751TIP3    H232190   0.631   3.118   6.296 -0.9984  1.6240  0.2907
10752TIP3   OH232191   3.170   4.642   0.167 -0.4932 -0.1369  0.3245
10752TIP3    H132192   3.241   4.667   0.226 -0.7699  0.0732  0.5732
10752TIP3    H232193   3.127   4.568   0.210  1.9135 -2.7447 -1.6438
10753TIP3   OH232194   0.785   4.431   2.408 -0.3549 -0.0195 -0.1840
10753TIP3    H132195   0.837   4.479   2.344  2.0660  1.7883  3.0068
10753TIP3    H232196   0.740   4.499   2.458 -1.8530 -1.3870  0.3854
10754TIP3   OH232197   2.654   7.284   1.354 -0.1574  0.3532 -0.3772
10754TIP3    H132198   2.665   7.305   1.262  0.2620 -0.7195 -0.5779
10754TIP3    H232199   2.653   7.189   1.357  0.9431  0.3710  0.8527
10755TIP3   OH232200   8.471   2.351   6.045  0.1312  0.4728  0.2527
10755TIP3    H132201   8.453   2.446   6.046  3.6751  1.2232  0.0639
10755TIP3    H232202   8.548   2.341   6.101 -0.8206 -2.4870  1.0947
10756TIP3   OH232203   1.606   6.417   0.023  0.3432 -0.5859 -0.0048
10756TIP3    H132204   1.622   6.323   0.033  0.6462 -0.5387 -0.0186
10756TIP3    H232205   1.511   6.425   0.019  0.2320 -0.7063  1.8146
10757TIP3   OH232206   1.234   2.571   4.569 -0.0966 -0.2171  0.6918
10757TIP3    H132207   1.252   2.589   4.661  1.1102  1.6646  0.1086
10757TIP3    H232208   1.321   2.559   4.529 -0.6310 -1.7094 -0.0846
10758TIP3   OH232209   1.691   2.711   5.038 -0.1315  0.2092  0.0091
10758TIP3    H132210   1.713   2.622   5.063  0.0944  0.2873  0.0893
10758TIP3    H232211   1.705   2.713   4.943 -0.0732  0.1781  0.0174
10759TIP3   OH232212   1.271   5.346   0.161 -0.3125 -0.1664  0.0599
10759TIP3    H132213   1.322   5.348   0.080 -1.3207  0.3366 -0.5756
10759TIP3    H232214   1.305   5.271   0.210 -1.4128 -2.0152 -1.9561
10760TIP3   OH232215   3.715   5.381   1.443  0.2376 -0.2997 -0.7081
10760TIP3    H132216   3.728   5.455   1.503  0.4987 -0.6095 -0.3791
10760TIP3    H232217   3.647   5.411   1.382  0.3015  0.1911 -0.5432
10761TIP3   OH232218   6.163   2.684   5.457  0.0428 -0.1227 -0.1263
10761TIP3    H132219   6.238   2.627   5.441  0.8402  0.6804  0.6985
10761TIP3    H232220   6.143   2.723   5.371 -0.1109 -1.1429 -0.5591
10762TIP3   OH232221   7.284   2.351   5.343 -0.0370 -0.2661  0.0172
10762TIP3    H132222   7.319   2.436   5.316 -1.4835  0.4474  0.2990
10762TIP3    H232223   7.215   2.373   5.406 -1.5181 -1.5735 -1.1178
10763TIP3   OH232224   5.691   2.804   6.915  0.3565 -0.2224 -0.7964
10763TIP3    H132225   5.621   2.812   6.851  0.0075 -0.0201 -0.3892
10763TIP3    H232226   5.772   2.816   6.865  0.1011 -0.4515 -1.2615
10764TIP3   OH232227   1.984   5.884   0.273 -0.2139 -0.1680 -0.2520
10764TIP3    H132228   1.901   5.904   0.316 -0.0772  1.7309 -0.8323
10764TIP3    H232229   1.959   5.859   0.183 -0.2665 -1.1253  0.0244
10765TIP3   OH232230   5.997   3.384   6.943  0.3231  0.0404  0.0694
10765TIP3    H132231   6.024   3.318   6.879  0.3280  0.0739  0.0364
10765TIP3    H232232   5.902   3.388   6.935  0.4100  0.8457 -0.7426
10766TIP3   OH232233   8.298   5.478   4.125 -0.4314  0.2952  0.3065
10766TIP3    H132234   8.238   5.403   4.122  0.1171 -0.1232 -0.2742
10766TIP3    H232235   8.385   5.439   4.115 -0.3304  1.3117 -3.0905
10767TIP3   OH232236   3.603   7.265   1.929 -0.1719  0.3001  0.6270
10767TIP3    H132237   3.671   7.305   1.984  0.2329 -1.6764  1.6209
10767TIP3    H232238   3.562   7.338   1.884  2.0277  1.6329  0.7002
10768TIP3   OH232239   0.420   2.275   4.614 -0.0485 -0.1254 -0.1632
10768TIP3    H132240   0.441   2.273   4.520  1.3181  0.1393  0.1207
10768TIP3    H232241   0.365   2.352   4.625 -0.6100 -0.4294 -0.8258
10769TIP3   OH232242   6.637   3.027   4.630  0.7985 -0.0536  0.6407
10769TIP3    H132243   6.581   3.104   4.628 -2.1841 -2.0911  2.4496
10769TIP3    H232244   6.725   3.062   4.643 -0.5108  3.0186  1.6278
10770TIP3   OH232245   8.201   4.610   6.895  0.0825  0.3397 -0.5777
10770TIP3    H132246   8.115   4.579   6.923  0.9397 -1.5031  0.0331
10770TIP3    H232247   8.235   4.541   6.839  2.1047  0.0242  0.9733
10771TIP3   OH232248   8.187   5.592   0.211 -0.3595  0.4093  0.6328
10771TIP3    H132249   8.115   5.570   0.270 -1.1540 -0.5762 -0.6694
10771TIP3    H232250   8.199   5.686   0.221 -0.9038  0.3519  1.8917
10772TIP3   OH232251   7.090   2.982   6.210  0.2558 -0.0730  0.3626
10772TIP3    H132252   7.084   3.076   6.225 -0.4821  0.0047 -0.3523
10772TIP3    H232253   7.078   2.943   6.297 -3.4077  0.3725  0.1536
10773TIP3   OH232254   7.630   2.686   4.485  0.5207 -0.0844 -0.0724
10773TIP3    H132255   7.603   2.598   4.513 -0.8714 -0.0012 -1.1312
10773TIP3    H232256   7.715   2.699   4.527  0.7096 -1.9137  0.1499
10774TIP3   OH232257   7.461   5.827   0.231  0.0582  0.6403 -0.5190
10774TIP3    H132258   7.494   5.912   0.201 -0.2394  1.7394  2.1451
10774TIP3    H232259   7.522   5.801   0.300  1.7766 -2.6861 -3.1003
10775TIP3   OH232260   5.491   2.192   4.759  0.3293 -0.1030  0.5040
10775TIP3    H132261   5.531   2.247   4.826 -0.5280  1.5603 -0.3016
10775TIP3    H232262   5.472   2.109   4.803  1.8315  0.1603  1.6965
10776TIP3   OH232263   6.120   4.199   6.576 -0.0840 -0.0647  0.3078
10776TIP3    H132264   6.185   4.133   6.599  0.8142 -0.0364 -1.9239
10776TIP3    H232265   6.076   4.163   6.498 -2.3084  0.2111  1.3939
10777TIP3   OH232266   0.227   1.988   5.335 -0.1011 -0.0734  0.3764
10777TIP3    H132267   0.206   2.064   5.390 -0.7511 -0.2038  0.3159
10777TIP3    H232268   0.195   1.913   5.385  0.7469 -0.3263  0.5376
10778TIP3   OH232269   5.910   1.417   2.705  0.0709 -0.1838 -0.0866
10778TIP3    H132270   5.997   1.379   2.701  0.1485 -0.5203  3.0248
10778TIP3    H232271   5.851   1.347   2.678  0.6304 -0.6927  0.0153
10779TIP3   OH232272   7.586   3.335   5.838  0.1754 -0.7613 -0.4179
10779TIP3    H132273   7.637   3.277   5.781  2.0211 -0.6332  1.0430
10779TIP3    H232274   7.588   3.292   5.923 -0.5939  0.1996  0.0859
10780TIP3   OH232275   1.941   4.017   1.791  0.1329  0.4649  0.4417
10780TIP3    H132276   1.942   4.112   1.775  0.5431  0.4096  0.1463
10780TIP3    H232277   1.913   4.009   1.882  0.2745  0.8836  0.5244
10781TIP3   OH232278   1.922   1.801   6.726  0.2417 -0.6678 -0.2094
10781TIP3    H132279   1.840   1.756   6.705 -0.5754  0.2832  0.8100
10781TIP3    H232280   1.961   1.748   6.795 -0.3351 -0.2603  0.4451
10782TIP3   OH232281   1.834   5.069   0.777  0.2790 -0.1557  0.3586
10782TIP3    H132282   1.749   5.027   0.759 -0.8600  1.8098  1.0768
10782TIP3    H232283   1.812   5.159   0.798  2.4492  0.0194  1.9464
10783TIP3   OH232284   8.253   1.801   5.243 -0.3756 -0.3891  0.1040
10783TIP3    H132285   8.181   1.816   5.304 -0.0670 -1.3428  0.7353
10783TIP3    H232286   8.217   1.818   5.157 -0.6283  1.6871  0.6048
10784TIP3   OH232287   7.955   1.700   5.260  0.2007 -0.2273 -0.3957
10784TIP3    H132288   7.996   1.624   5.218  0.6796  0.1675 -0.6491
10784TIP3    H232289   7.869   1.708   5.217  0.5796  0.0138 -1.1188
10785TIP3   OH232290   1.927   2.653   3.242  0.7516 -0.4184 -0.0302
10785TIP3    H132291   1.929   2.558   3.240  0.7266 -0.4125 -0.3305
10785TIP3    H232292   1.959   2.680   3.156  1.3361 -0.1486  0.2692
10786TIP3   OH232293   6.803   2.917   6.628  0.5103 -0.2732  0.8885
10786TIP3    H132294   6.764   2.889   6.711 -0.8775  0.8371  0.6447
10786TIP3    H232295   6.775   2.850   6.566  0.5396 -0.4711  1.0862
10787TIP3   OH232296   1.484   6.377   0.937 -0.1375  0.3265 -0.2858
10787TIP3    H132297   1.531   6.317   0.996 -0.6369 -1.9506 -2.1139
10787TIP3    H232298   1.550   6.442   0.912  0.3476  0.7497  1.9521
10788TIP3   OH232299   6.838   3.753   6.734  0.5828 -0.3282  0.7526
10788TIP3    H132300   6.811   3.694   6.805 -3.5392 -0.0399 -0.4392
10788TIP3    H232301   6.897   3.700   6.680 -0.9080 -2.4865  1.1814
10789TIP3   OH232302   1.783   3.482   2.034  0.0947 -0.1735 -0.4573
10789TIP3    H132303   1.805   3.437   2.116 -0.4153  2.8140  1.3560
10789TIP3    H232304   1.858   3.464   1.977  1.6926 -0.1314  1.5583
10790TIP3   OH232305   6.669   1.984   6.571  0.1262 -0.1638 -0.1515
10790TIP3    H132306   6.663   1.940   6.656  1.3990 -0.5589 -0.2605
10790TIP3    H232307   6.651   1.915   6.507  0.0143 -0.0577 -0.2348
10791TIP3   OH232308   7.050   6.964   0.866 -0.2979  0.4383  0.2795
10791TIP3    H132309   7.049   6.979   0.772  0.4561 -3.0200 -0.3298
10791TIP3    H232310   7.143   6.964   0.889 -0.4864  1.4879  1.0806
10792TIP3   OH232311   2.512   1.000   0.091  0.1123  0.4029 -0.3330
10792TIP3    H132312   2.602   1.016   0.121 -0.1319  1.7857 -0.2903
10792TIP3    H232313   2.457   1.030   0.163 -0.3905 -0.2163 -0.4579
10793TIP3   OH232314   7.740   2.805   6.154  0.0940 -0.5373 -0.0575
10793TIP3    H132315   7.663   2.770   6.198 -0.1223 -1.6028 -1.2419
10793TIP3    H232316   7.728   2.900   6.155 -0.1751 -0.5685  1.6479
10794TIP3   OH232317   3.684   7.074   0.202  0.2119  0.0678 -0.0113
10794TIP3    H132318   3.750   7.006   0.211 -1.8868 -2.1706 -0.9467
10794TIP3    H232319   3.694   7.106   0.112  1.8918  1.8181  0.7492
10795TIP3   OH232320   7.206   2.135   5.841 -0.0496  0.0085  0.1347
10795TIP3    H132321   7.214   2.126   5.746  0.3925 -0.6441  0.2270
10795TIP3    H232322   7.118   2.103   5.861 -1.8471  4.3097 -0.5365
10796TIP3   OH232323   6.970   4.247   6.341 -0.5031 -0.4853 -0.1218
10796TIP3    H132324   6.989   4.180   6.406 -0.7363  0.1303  0.5869
10796TIP3    H232325   7.053   4.294   6.329 -0.4829 -0.5410 -0.2020
10797TIP3   OH232326   0.435   4.177   5.042  0.1140  0.1263 -0.2343
10797TIP3    H132327   0.522   4.142   5.061 -0.1687  0.3130  1.4916
10797TIP3    H232328   0.383   4.100   5.019  0.5401 -0.0873 -0.4812
10798TIP3   OH232329   4.216   0.342   0.688 -0.4192 -0.1545  0.2205
10798TIP3    H132330   4.291   0.378   0.735  0.3121 -0.3229 -0.8038
10798TIP3    H232331   4.217   0.249   0.707 -1.9155  0.2094  2.3200
10799TIP3   OH232332   7.670   3.314   6.551 -0.1771  0.1963 -0.0410
10799TIP3    H132333   7.671   3.324   6.646 -0.9102  0.0000 -0.0079
10799TIP3    H232334   7.689   3.222   6.536  3.3329  0.8765 -0.2260
10800TIP3   OH232335   5.571   3.658   5.557 -0.0582  0.2078 -0.0024
10800TIP3    H132336   5.546   3.745   5.588  1.2656  0.5929 -0.0209
10800TIP3    H232337   5.566   3.665   5.462 -2.5318 -0.5145  0.0214
10801TIP3   OH232338   5.832   3.662   6.849  0.4661 -0.3603  0.4015
10801TIP3    H132339   5.903   3.658   6.913  2.7274  0.7495 -1.9446
10801TIP3    H232340   5.858   3.600   6.781 -1.2072 -0.5215 -0.1030
10802TIP3   OH232341   5.199   4.072   6.922  0.3638  0.4046 -0.0389
10802TIP3    H132342   5.291   4.061   6.946  0.4722  0.2097 -0.5365
10802TIP3    H232343   5.164   3.983   6.919  0.3378  0.4306 -0.5497
10803TIP3   OH232344   0.562   2.303   5.009 -0.0406  0.0965  0.1413
10803TIP3    H132345   0.489   2.270   5.060 -1.4660  1.2792 -1.0952
10803TIP3    H232346   0.542   2.396   4.994  2.3371  0.7698  0.8897
10804TIP3   OH232347   7.572   1.158   5.966 -0.2854  0.1421 -0.3661
10804TIP3    H132348   7.509   1.143   5.895  0.2302 -0.4655 -0.6959
10804TIP3    H232349   7.557   1.086   6.026 -0.6220  0.5792  0.0749
10805TIP3   OH232350   7.526   5.000   6.499  0.5923  0.6179  0.3081
10805TIP3    H132351   7.483   5.059   6.561  0.8257  1.7230 -0.5629
10805TIP3    H232352   7.595   5.053   6.459 -0.5721  0.4022 -2.0576
10806TIP3   OH232353   1.149   4.863   0.826  0.4504  0.3246  0.4591
10806TIP3    H132354   1.074   4.880   0.883 -3.1225 -1.4208 -3.3804
10806TIP3    H232355   1.184   4.949   0.806 -2.3712  1.4576  0.1270
10807TIP3   OH232356   5.984   2.238   5.788  0.0475 -0.0060 -0.0347
10807TIP3    H132357   6.006   2.290   5.711 -1.8321  1.1962  0.2046
10807TIP3    H232358   5.965   2.303   5.856  2.3976 -1.0542  1.6616
10808TIP3   OH232359   8.344   2.664   6.786 -0.8224  0.1397  0.1352
10808TIP3    H132360   8.397   2.710   6.851  1.8085 -0.5157 -1.5060
10808TIP3    H232361   8.355   2.571   6.807 -1.8106  0.0147  0.1363
10809TIP3   OH232362   7.545   3.610   5.141 -0.2754 -0.5778  0.0230
10809TIP3    H132363   7.514   3.524   5.170 -1.3998 -0.3186 -0.4000
10809TIP3    H232364   7.476   3.671   5.167  0.3257  0.1382 -0.0579
10810TIP3   OH232365   0.275   2.910   6.342  0.7832  0.4965 -0.0579
10810TIP3    H132366   0.354   2.937   6.387  1.1266 -1.0000  0.2868
10810TIP3    H232367   0.232   2.991   6.316  0.5172  1.3986  3.0601
10811TIP3   OH232368   5.527   4.229   6.036 -0.0439 -0.6197 -0.0839
10811TIP3    H132369   5.471   4.293   5.992  1.0798 -1.7696 -3.3863
10811TIP3    H232370   5.467   4.172   6.083 -1.3894  0.1917 -0.7939
10812TIP3   OH232371   0.382   4.628   1.072 -0.3053  0.0020  0.3659
10812TIP3    H132372   0.288   4.613   1.079 -0.6680  1.9356 -0.1204
10812TIP3    H232373   0.410   4.570   1.001 -1.1826 -0.2781  0.2355
10813TIP3   OH232374   2.177   5.859   1.366  0.1566 -0.3153 -0.6093
10813TIP3    H132375   2.223   5.783   1.331 -0.4085  0.1637 -2.4230
10813TIP3    H232376   2.205   5.932   1.311  0.1872  0.6713  0.6979
10814TIP3   OH232377   6.814   4.958   1.920  0.2838  0.3913  0.2378
10814TIP3    H132378   6.903   4.929   1.899 -0.4414 -1.7480  0.0275
10814TIP3    H232379   6.826   5.039   1.970  2.3065  0.7263 -0.7519
10815TIP3   OH232380   7.768   4.243   3.029  0.3310 -0.9380 -0.0252
10815TIP3    H132381   7.745   4.323   3.077  3.6793 -0.2066  0.5000
10815TIP3    H232382   7.752   4.172   3.091 -1.5631 -0.5921 -0.0957
10816TIP3   OH232383   6.167   1.275   6.452 -0.4888 -0.2920  0.0718
10816TIP3    H132384   6.215   1.352   6.483  1.7138 -1.6776  0.1961
10816TIP3    H232385   6.133   1.234   6.531  1.6699 -1.5765  0.3706
10817TIP3   OH232386   1.233   7.364   1.497 -0.1590 -0.9133  0.3430
10817TIP3    H132387   1.179   7.299   1.542 -1.4817 -0.1875 -0.1647
10817TIP3    H232388   1.194   7.448   1.521 -0.7947 -0.4964 -2.0024
10818TIP3   OH232389   4.203   1.080   6.348 -0.6525  0.8168  0.1961
10818TIP3    H132390   4.122   1.048   6.388 -0.6968  1.0549  0.2999
10818TIP3    H232391   4.185   1.172   6.329 -1.3231  0.2515 -2.1237
10819TIP3   OH232392   8.118   1.016   5.088 -0.2696  0.0658  0.1264
10819TIP3    H132393   8.165   1.013   5.171 -1.1740 -1.5461  0.6045
10819TIP3    H232394   8.172   0.966   5.027  0.1704  0.8664 -0.1405
10820TIP3   OH232395   8.012   3.917   5.116 -0.6423  0.0396 -0.0466
10820TIP3    H132396   7.967   3.974   5.178  1.6818 -0.9469  2.7033
10820TIP3    H232397   7.967   3.833   5.122 -0.2814 -0.1197  0.5331
10821TIP3   OH232398   7.281   3.704   5.723 -0.1558 -0.0335 -0.1252
10821TIP3    H132399   7.311   3.783   5.768 -2.4627  0.4387  0.6284
10821TIP3    H232400   7.276   3.637   5.791 -0.6203 -0.1586 -0.2814
10822TIP3   OH232401   8.148   3.507   5.105  0.0441 -0.3188  0.2861
10822TIP3    H132402   8.126   3.492   5.013  1.4370  1.3074 -0.3368
10822TIP3    H232403   8.243   3.496   5.110  0.1615  0.9569  1.2373
10823TIP3   OH232404   6.254   3.800   5.846  0.6818 -0.3914  0.2956
10823TIP3    H132405   6.170   3.840   5.870 -1.2287 -2.5665 -2.3627
10823TIP3    H232406   6.242   3.707   5.865  2.3484 -0.7794 -0.4702
10824TIP3   OH232407   0.078   1.817   5.747  0.4015 -0.3121  0.1728
10824TIP3    H132408   0.023   1.746   5.780 -0.8971  0.9440  0.7439
10824TIP3    H232409   0.135   1.839   5.821  1.1547 -1.1030 -0.1714
10825TIP3   OH232410   6.209   1.131   0.993 -0.4699 -0.2802 -0.0464
10825TIP3    H132411   6.221   1.138   0.898 -1.2707 -1.3628 -0.2441
10825TIP3    H232412   6.125   1.174   1.009 -0.8207 -0.9785  0.0246
10826TIP3   OH232413   7.324   2.206   4.930  0.0415  0.2819  0.1999
10826TIP3    H132414   7.316   2.133   4.868 -1.3609 -1.1530  2.0039
10826TIP3    H232415   7.404   2.188   4.979  0.6189  0.8949 -0.4961
10827TIP3   OH232416   0.578   0.764   4.899 -0.5527 -0.3420  0.2462
10827TIP3    H132417   0.624   0.694   4.852 -0.2038  0.6148 -0.8603
10827TIP3    H232418   0.486   0.748   4.881 -0.4793 -0.5472  0.0494
10828TIP3   OH232419   6.946   3.805   4.482 -0.0709 -0.0855 -0.3734
10828TIP3    H132420   6.875   3.823   4.544  1.1058 -1.0192  1.3238
10828TIP3    H232421   7.006   3.878   4.493  0.1721 -0.2875 -0.3409
10829TIP3   OH232422   6.366   4.680   5.897  0.3037 -0.2592  0.3153
10829TIP3    H132423   6.405   4.618   5.836 -0.5197  0.1632 -0.6410
10829TIP3    H232424   6.287   4.712   5.854  0.8516  1.6779  0.6590
10830TIP3   OH232425   7.776   2.924   2.588 -0.4368 -0.4450 -0.4056
10830TIP3    H132426   7.722   2.882   2.654 -1.4639  0.0257 -0.9254
10830TIP3    H232427   7.815   2.852   2.538  0.2522 -0.7968  0.6333
10831TIP3   OH232428   6.583   3.290   4.900  0.0093  0.0414  0.4868
10831TIP3    H132429   6.556   3.368   4.949 -0.9933 -0.8542  1.4015
10831TIP3    H232430   6.669   3.312   4.865 -0.5032  1.7614  0.2750
10832TIP3   OH232431   7.716   2.364   5.862  0.1425  0.0536  0.0503
10832TIP3    H132432   7.703   2.456   5.885  0.1741  0.4705 -1.5691
10832TIP3    H232433   7.799   2.362   5.815 -0.7219 -0.5312 -1.4815
10833TIP3   OH232434   7.010   4.225   5.883  0.2240 -0.1226 -0.0645
10833TIP3    H132435   7.053   4.141   5.865  0.4699 -0.0646  0.2568
10833TIP3    H232436   6.916   4.207   5.871  0.2130 -0.6439  0.7859
10834TIP3   OH232437   6.235   2.707   4.963 -0.5091  0.2756 -0.4449
10834TIP3    H132438   6.205   2.797   4.981 -1.9611  0.2481 -2.6190
10834TIP3    H232439   6.204   2.689   4.875  2.3701 -1.3134 -1.1733
10835TIP3   OH232440   0.559   2.127   4.798  0.5362 -0.0278 -0.3440
10835TIP3    H132441   0.587   2.191   4.863 -0.0416  1.0934 -1.1932
10835TIP3    H232442   0.495   2.173   4.745 -0.2594 -1.4687 -0.6562
10836TIP3   OH232443   0.288   3.570   4.935  0.3608  0.4489 -0.3116
10836TIP3    H132444   0.236   3.550   4.857 -0.6104  0.8108  0.2267
10836TIP3    H232445   0.342   3.645   4.909  0.3247  0.3224 -0.7563
10837TIP3   OH232446   8.309   1.923   6.648 -0.4889  0.1613 -0.1518
10837TIP3    H132447   8.272   1.961   6.569  0.5216 -0.2561 -0.8348
10837TIP3    H232448   8.296   1.990   6.715  0.4813  1.3425 -1.1326
10838TIP3   OH232449   2.856   7.530   0.659 -0.1305  0.5222 -0.2081
10838TIP3    H132450   2.914   7.563   0.727  0.4521 -0.8726 -0.0130
10838TIP3    H232451   2.773   7.513   0.703 -0.3263  1.3641 -0.2385
10839TIP3   OH232452   7.834   2.170   6.413 -0.1703  0.4769 -0.1038
10839TIP3    H132453   7.769   2.113   6.457 -1.1199  0.9764 -0.8425
10839TIP3    H232454   7.916   2.150   6.457 -1.2111  1.4191  2.3652
10840TIP3   OH232455   0.163   3.800   4.776  0.5744 -0.1301 -0.5234
10840TIP3    H132456   0.149   3.707   4.789  2.0923 -0.4004 -0.8026
10840TIP3    H232457   0.138   3.816   4.685 -1.0192  0.0038 -0.0711
10841TIP3   OH232458   2.807   1.559   0.214  0.3510 -0.8156  0.3783
10841TIP3    H132459   2.750   1.528   0.284 -1.6069  0.6605 -0.4990
10841TIP3    H232460   2.817   1.485   0.156 -1.3596 -0.8734  0.1326
10842TIP3   OH232461   8.273   2.731   4.402  0.9012  0.5514 -0.1780
10842TIP3    H132462   8.224   2.739   4.321  0.7970  0.1955 -0.1508
10842TIP3    H232463   8.275   2.819   4.438 -0.2365  0.4577  0.1267
10843TIP3   OH232464   1.269   2.631   5.821 -0.5707  0.6612  0.3262
10843TIP3    H132465   1.300   2.611   5.909 -1.2192  0.9697  0.6228
10843TIP3    H232466   1.211   2.706   5.831  0.2408  1.4161 -0.5174
10844TIP3   OH232467   4.517   4.897   6.240  0.3756  0.7510  0.2204
10844TIP3    H132468   4.522   4.909   6.145 -0.4897 -0.8868 -0.0379
10844TIP3    H232469   4.604   4.864   6.264 -0.2031 -1.3093 -0.3929
10845TIP3   OH232470   1.631   3.161   4.551 -0.7175  0.0710 -0.1991
10845TIP3    H132471   1.574   3.087   4.532 -0.1032 -1.0433  2.1476
10845TIP3    H232472   1.720   3.124   4.548 -0.3236  1.0119 -0.3401
10846TIP3   OH232473   3.855   7.301   0.743 -0.6080  0.4579 -0.2963
10846TIP3    H132474   3.934   7.247   0.732 -0.5433  0.5595 -0.3272
10846TIP3    H232475   3.825   7.318   0.654 -1.3942 -0.6543 -0.2626
10847TIP3   OH232476   5.508   1.726  -0.023 -0.1171 -0.2475  0.0709
10847TIP3    H132477   5.505   1.822  -0.031  0.3943 -0.1328  1.3069
10847TIP3    H232478   5.458   1.707   0.056  1.2805 -0.8910  0.7949
10848TIP3   OH232479   0.193   2.845   5.370 -0.4125  0.2937  0.3582
10848TIP3    H132480   0.179   2.751   5.384 -0.8325 -0.0058 -1.8642
10848TIP3    H232481   0.138   2.888   5.435  1.5325 -0.9997  2.9341
10849TIP3   OH232482   7.883   4.958   4.851 -0.0095 -0.5096 -0.1480
10849TIP3    H132483   7.821   4.910   4.906  0.5061 -2.7798 -1.4816
10849TIP3    H232484   7.937   4.890   4.810  2.3929  1.3293 -0.1933
10850TIP3   OH232485   5.812   0.196   0.412 -0.2876 -0.0347  0.8811
10850TIP3    H132486   5.772   0.144   0.342  0.9240  0.1188  0.0567
10850TIP3    H232487   5.808   0.286   0.380  2.3442 -0.2023 -0.0619
10851TIP3   OH232488   0.412   1.038   5.389 -0.0088  0.4208 -0.5326
10851TIP3    H132489   0.503   1.007   5.385  0.7841  1.7105  4.3606
10851TIP3    H232490   0.360   0.958   5.391  1.1580 -0.3622 -0.8791
10852TIP3   OH232491   1.047   4.379   5.140 -0.7172  0.5000  0.3433
10852TIP3    H132492   1.073   4.440   5.071 -1.1253 -0.2556 -0.4770
10852TIP3    H232493   1.067   4.426   5.222  0.4339  1.1028 -0.2768
10853TIP3   OH232494   8.404   2.156   4.746 -0.6921 -0.1211 -0.5095
10853TIP3    H132495   8.487   2.143   4.700 -0.6983  1.9273 -1.1600
10853TIP3    H232496   8.410   2.099   4.822 -0.3849 -3.0435 -2.6385
10854TIP3   OH232497   8.523   1.474   5.943  0.4601 -0.5436 -0.1806
10854TIP3    H132498   8.462   1.544   5.919  1.2052  0.8649  1.8978
10854TIP3    H232499   8.502   1.455   6.035  1.8895 -1.3387 -0.0098
10855TIP3   OH232500   7.503   2.186   6.727 -0.4922 -0.2233 -0.1358
10855TIP3    H132501   7.430   2.226   6.678  0.7478 -0.2674 -2.0713
10855TIP3    H232502   7.577   2.244   6.711  0.6627 -1.8281 -0.7780
10856TIP3   OH232503   6.812   3.398   4.806  0.3214 -0.0630 -0.3131
10856TIP3    H132504   6.781   3.488   4.794 -0.3583 -0.2012  0.3790
10856TIP3    H232505   6.901   3.399   4.772  1.7307  1.8283  3.1623
10857TIP3   OH232506   6.100   3.215   4.637  0.5039 -0.2892  0.7098
10857TIP3    H132507   6.118   3.278   4.706  1.6140  2.3611 -1.9202
10857TIP3    H232508   6.169   3.228   4.572 -0.7670 -2.3320 -1.1603
10858TIP3   OH232509   8.332   2.958   4.603  0.0916 -0.3527  0.3281
10858TIP3    H132510   8.391   3.028   4.574 -0.7554 -0.5646 -2.0479
10858TIP3    H232511   8.379   2.915   4.675  1.7373  1.0330  0.1155
10859TIP3   OH232512   8.023   1.770   5.743 -0.1170 -0.4255  0.3442
10859TIP3    H132513   8.077   1.787   5.666  0.1132 -1.3877  0.2810
10859TIP3    H232514   8.070   1.701   5.790  0.1679  0.7307  1.7900
10860TIP3   OH232515   0.291   2.217   5.108 -0.2482  0.3400  0.1119
10860TIP3    H132516   0.322   2.232   5.197  1.3316 -1.5215 -0.0949
10860TIP3    H232517   0.207   2.263   5.104  1.2231  3.2738  1.4908
10861TIP3   OH232518   1.247   4.517   6.115 -0.6015 -0.1908  0.0878
10861TIP3    H132519   1.294   4.439   6.145  0.1837  0.5897  0.9102
10861TIP3    H232520   1.154   4.495   6.128 -0.3023  0.1004  3.0824
10862TIP3   OH232521   0.855   2.930   5.403 -0.5742 -0.3135  0.2172
10862TIP3    H132522   0.895   2.864   5.460 -1.2292 -0.7702  0.1555
10862TIP3    H232523   0.854   2.889   5.317  2.1168  1.0863 -0.5197
10863TIP3   OH232524   0.314   3.648   5.754  0.4739 -0.2136  0.3055
10863TIP3    H132525   0.324   3.583   5.824  1.8554 -0.3951 -0.0336
10863TIP3    H232526   0.319   3.597   5.673  0.9967  0.2372  0.0466
10864TIP3   OH232527   0.949   4.021   3.836 -0.1101 -0.7658 -0.2295
10864TIP3    H132528   0.887   4.085   3.800  1.0779 -0.2979 -1.5038
10864TIP3    H232529   0.911   3.936   3.813 -1.0579 -0.5041  0.3542
10865TIP3   OH232530   8.184   3.775   4.856 -0.0818  0.0260 -0.0057
10865TIP3    H132531   8.118   3.840   4.834  0.2010  0.1327 -0.5503
10865TIP3    H232532   8.252   3.824   4.901  0.8432  0.4075 -1.7394
10866TIP3   OH232533   0.755   1.239   4.610  0.0206 -0.2263 -0.3081
10866TIP3    H132534   0.818   1.170   4.629 -0.3112 -0.8673 -1.5047
10866TIP3    H232535   0.734   1.277   4.696 -2.0994 -3.6355  0.7665
10867TIP3   OH232536   7.548   4.036   6.859  0.6967 -0.1667  0.3373
10867TIP3    H132537   7.474   4.005   6.806  0.0354 -0.4041  1.3776
10867TIP3    H232538   7.605   4.081   6.797 -0.1436 -0.3081 -0.5470
10868TIP3   OH232539   3.454   7.701   0.033 -0.2649 -0.5074  0.0183
10868TIP3    H132540   3.431   7.769   0.096  0.3945  2.0301 -2.3721
10868TIP3    H232541   3.375   7.648   0.025 -1.7171  1.5754  0.0105
10869TIP3   OH232542   0.324   3.413   4.172  0.0662  0.7023 -0.4827
10869TIP3    H132543   0.321   3.504   4.144 -2.3437  0.7033 -0.3102
10869TIP3    H232544   0.354   3.365   4.094 -1.8024  1.2649 -1.5660
10870TIP3   OH232545   0.031   3.414   4.474  0.7543  0.1333 -0.3232
10870TIP3    H132546  -0.021   3.392   4.397 -1.3342  1.6196  0.6214
10870TIP3    H232547   0.121   3.421   4.441 -0.0111  0.1086 -2.4981
10871TIP3   OH232548   1.704   5.459   5.365  0.4337 -0.5122 -0.0916
10871TIP3    H132549   1.661   5.383   5.326 -1.2057  1.1070 -1.5447
10871TIP3    H232550   1.766   5.488   5.298  0.2463  0.1262  0.0170
10872TIP3   OH232551   6.820   5.467   6.222  0.2097  0.0407 -0.0400
10872TIP3    H132552   6.908   5.434   6.204 -0.2818 -0.5952 -1.3397
10872TIP3    H232553   6.827   5.562   6.212  1.2227  0.1840  1.9502
10873TIP3   OH232554   7.066   5.195   5.652 -0.1629  0.1769  0.3675
10873TIP3    H132555   7.140   5.244   5.616  0.1004 -1.0285 -0.7732
10873TIP3    H232556   7.057   5.228   5.742  2.7071 -0.7217  1.0264
10874TIP3   OH232557   0.758   6.552   0.846 -0.2897  0.0943  0.3445
10874TIP3    H132558   0.819   6.545   0.919 -1.6349  0.5671  1.5386
10874TIP3    H232559   0.771   6.641   0.813 -1.6224  0.8616  1.7980
10875TIP3   OH232560   6.691   4.450   6.430 -0.5948 -0.8425  0.1409
10875TIP3    H132561   6.745   4.467   6.353 -2.9748  4.1940 -0.6492
10875TIP3    H232562   6.637   4.375   6.405 -1.1370  0.5121 -3.0657
10876TIP3   OH232563   7.136   4.472   3.181  0.2006  0.3311  0.3156
10876TIP3    H132564   7.210   4.419   3.151 -0.0590 -0.2369  0.6667
10876TIP3    H232565   7.088   4.414   3.239 -0.9906  0.4233 -0.5750
10877TIP3   OH232566   1.279   2.620   4.824  0.4412  0.3976  0.1819
10877TIP3    H132567   1.334   2.585   4.895 -0.5513  1.4494  1.4954
10877TIP3    H232568   1.191   2.588   4.843  0.3635 -0.2780 -1.2454
10878TIP3   OH232569   7.572   3.429   5.501 -0.5686  0.2806  0.2517
10878TIP3    H132570   7.482   3.396   5.497 -1.0697  1.5412  0.7105
10878TIP3    H232571   7.563   3.516   5.542  0.8343  0.4877  0.1242
10879TIP3   OH232572   7.501   3.729   4.708 -0.0670 -0.2913  0.1405
10879TIP3    H132573   7.500   3.819   4.740 -0.8135 -0.1978 -0.1339
10879TIP3    H232574   7.588   3.696   4.731 -0.0468  0.2703  0.8698
10880TIP3   OH232575   7.467   5.268   5.387 -0.2686  0.3852 -0.0557
10880TIP3    H132576   7.542   5.319   5.418  0.4599 -0.6013 -0.2124
10880TIP3    H232577   7.409   5.264   5.463  0.4008  0.0841  0.4447
10881TIP3   OH232578   7.191   2.453   4.874  0.2623 -0.3180 -0.9986
10881TIP3    H132579   7.116   2.400   4.850  0.4827 -1.3651  0.5977
10881TIP3    H232580   7.260   2.390   4.893  0.3763  0.4878  1.4230
10882TIP3   OH232581   0.585   3.772   4.857 -0.3915 -0.3218  0.2180
10882TIP3    H132582   0.543   3.772   4.943 -0.2549  1.5514  0.2973
10882TIP3    H232583   0.679   3.774   4.877 -0.3683  2.7035  0.0749
10883TIP3   OH232584   6.636   1.996   3.967  0.2336 -0.0472  0.2205
10883TIP3    H132585   6.623   2.030   4.056  2.1903  1.6630 -0.1235
10883TIP3    H232586   6.687   1.916   3.980  3.0343  1.7130  0.5011
10884TIP3   OH232587   7.214   1.640   4.716  0.6523  1.0520 -0.4429
10884TIP3    H132588   7.171   1.566   4.759  0.7843  0.7494 -0.8295
10884TIP3    H232589   7.142   1.695   4.685  0.4530 -0.9322 -3.6855
10885TIP3   OH232590   7.144   3.230   4.568 -0.0740  0.5466 -0.7693
10885TIP3    H132591   7.195   3.226   4.487  0.2537 -0.8724 -0.5039
10885TIP3    H232592   7.184   3.164   4.625  0.1653  2.0576  0.8354
10886TIP3   OH232593   6.950   1.446   0.007  0.1043  0.1370  0.5350
10886TIP3    H132594   6.957   1.472   0.099 -5.5480  1.2874  0.8514
10886TIP3    H232595   6.922   1.354   0.011  0.4610  0.0027 -0.0640
10887TIP3   OH232596   7.440   4.769   5.381  0.1081 -0.1108 -0.2271
10887TIP3    H132597   7.486   4.694   5.344  1.2410  1.2812 -1.7384
10887TIP3    H232598   7.348   4.741   5.385  0.1203 -0.7353 -3.1348
10888TIP3   OH232599   1.109   2.988   3.851 -0.3649 -0.5460  0.2766
10888TIP3    H132600   1.090   3.079   3.875 -1.1307 -0.7842  0.5968
10888TIP3    H232601   1.170   2.995   3.778 -3.2198  0.3128 -2.1287
10889TIP3   OH232602   7.709   4.542   6.580 -0.3407 -0.1242 -0.1482
10889TIP3    H132603   7.689   4.587   6.497  0.0456  1.4799  0.5976
10889TIP3    H232604   7.796   4.576   6.604 -1.1056  0.6085  1.6795
10890TIP3   OH232605   0.087   3.797   4.492 -0.2510 -0.2512  0.0186
10890TIP3    H132606   0.032   3.876   4.495  0.3115  0.1541 -0.2141
10890TIP3    H232607   0.029   3.729   4.458 -0.9197 -0.0907  0.8191
10891TIP3   OH232608   3.962   6.188   1.027  0.3828  0.1134 -0.0621
10891TIP3    H132609   3.966   6.122   1.097  1.5388 -0.5071 -0.6851
10891TIP3    H232610   4.050   6.226   1.025  0.2576  0.3753 -0.9316
10892TIP3   OH232611   6.281   2.739   3.395  0.1644 -0.1935  0.1504
10892TIP3    H132612   6.305   2.736   3.487  1.1732 -1.7616 -0.1534
10892TIP3    H232613   6.351   2.788   3.353  0.2665 -0.4292  0.0461
10893TIP3   OH232614   0.398   3.358   3.003  0.4402 -0.6407  0.2854
10893TIP3    H132615   0.321   3.311   2.970 -0.0985  0.2402  0.2812
10893TIP3    H232616   0.467   3.292   3.006 -0.3944 -1.5025  0.5713
10894TIP3   OH232617   7.272   2.730   5.163  0.8320 -0.5418  0.9630
10894TIP3    H132618   7.241   2.756   5.250 -0.2778  0.2250  0.3593
10894TIP3    H232619   7.211   2.773   5.103  2.3475 -0.0307 -0.2330
10895TIP3   OH232620   2.270   2.802   5.369 -0.5781  0.4264  0.1902
10895TIP3    H132621   2.311   2.761   5.292 -0.8240 -1.7642  1.1962
10895TIP3    H232622   2.311   2.888   5.374  1.2765 -0.3447 -0.9625
10896TIP3   OH232623   7.953   3.417   5.987 -0.0396 -0.0837  0.2397
10896TIP3    H132624   7.886   3.469   6.032 -0.3589  0.2962 -0.6627
10896TIP3    H232625   7.922   3.327   5.994  0.0967 -0.0720  1.0908
10897TIP3   OH232626   2.126   7.568   0.542 -0.0419  0.5092  0.0229
10897TIP3    H132627   2.039   7.604   0.560  0.1432  0.7994  0.3338
10897TIP3    H232628   2.157   7.536   0.627 -1.5113 -3.3323 -0.7496
10898TIP3   OH232629   6.672   2.018   5.719  0.0378 -0.0974  0.4484
10898TIP3    H132630   6.580   2.003   5.696  0.2145 -1.6555  0.6685
10898TIP3    H232631   6.715   2.035   5.636 -0.2708 -0.4008  0.2239
10899TIP3   OH232632   1.335   4.039   4.803 -0.1759 -0.2539 -0.3382
10899TIP3    H132633   1.409   3.993   4.764  0.6497  0.7171  0.0977
10899TIP3    H232634   1.371   4.121   4.836 -1.2700 -0.1584  0.6519
10900TIP3   OH232635   1.882   2.055   6.921  0.0240  0.2198 -0.4231
10900TIP3    H132636   1.809   2.065   6.859 -0.2617 -2.4914 -0.5825
10900TIP3    H232637   1.939   1.991   6.880  0.6194 -0.4607  1.4359
10901TIP3   OH232638   4.891   7.016   0.908 -0.2709 -0.0464 -0.5998
10901TIP3    H132639   4.979   7.054   0.906 -0.7747  1.2097  0.4679
10901TIP3    H232640   4.854   7.036   0.823  0.3344 -0.2329 -0.9086
10902TIP3   OH232641   0.407   4.272   3.307 -0.1757 -0.3735 -0.2161
10902TIP3    H132642   0.491   4.300   3.270 -1.4777  0.6122 -2.4805
10902TIP3    H232643   0.388   4.188   3.264 -0.0466 -0.9520  0.8181
10903TIP3   OH232644   6.222   3.071   4.191  0.1891 -0.1507 -0.6330
10903TIP3    H132645   6.208   3.100   4.101 -0.2367  0.3409 -0.4082
10903TIP3    H232646   6.310   3.033   4.190  0.7309  1.0841 -0.9369
10904TIP3   OH232647   4.445   0.668   0.702  0.6444 -0.2811  0.2470
10904TIP3    H132648   4.358   0.647   0.668  0.4118  2.4440 -0.9383
10904TIP3    H232649   4.488   0.583   0.713 -1.1257 -1.4868 -1.9566
10905TIP3   OH232650   1.544   4.138   4.199 -0.8690 -0.3082 -0.0814
10905TIP3    H132651   1.472   4.076   4.215  0.2885 -1.3450  1.2735
10905TIP3    H232652   1.621   4.082   4.187 -0.4612  0.7349 -2.6620
10906TIP3   OH232653   5.141   0.445   0.337  0.3696 -0.3297  0.3791
10906TIP3    H132654   5.071   0.380   0.344 -0.9926  1.1425  0.6748
10906TIP3    H232655   5.157   0.472   0.428 -0.4664  1.1886  0.0894
10907TIP3   OH232656   1.889   2.572   4.186  0.4408 -0.3681 -0.0053
10907TIP3    H132657   1.966   2.624   4.162 -0.4421  0.6947 -0.5975
10907TIP3    H232658   1.925   2.489   4.217  2.0221  1.2411  2.7736
10908TIP3   OH232659   7.022   3.151   5.243 -0.1376 -0.6533  0.5854
10908TIP3    H132660   6.985   3.238   5.230  1.2585 -0.2112 -0.7224
10908TIP3    H232661   6.999   3.103   5.163  2.3382 -0.2419 -0.4314
10909TIP3   OH232662   7.493   3.087   6.385 -0.2860 -0.4075 -0.3165
10909TIP3    H132663   7.538   3.110   6.466 -0.8040 -1.9868  0.4524
10909TIP3    H232664   7.449   3.004   6.405 -1.4267 -0.1945 -1.8352
10910TIP3   OH232665   5.943   2.564   3.764 -0.1205 -0.1790 -0.3334
10910TIP3    H132666   5.942   2.622   3.840 -0.4912 -0.4726 -0.1124
10910TIP3    H232667   5.959   2.477   3.801 -0.8867 -0.4062 -0.5331
10911TIP3   OH232668   0.537   1.853   5.473 -0.3578  0.8065  0.2649
10911TIP3    H132669   0.502   1.768   5.499 -1.1632  1.1263  0.2199
10911TIP3    H232670   0.503   1.868   5.385  0.1352  0.9809  0.1016
10912TIP3   OH232671   2.713   7.872   0.675 -0.3016 -0.2791 -0.2594
10912TIP3    H132672   2.758   7.954   0.655  0.4390 -0.8204 -0.8633
10912TIP3    H232673   2.625   7.898   0.699  0.8490  0.9672  2.8301
10913TIP3   OH232674   1.353   4.974   5.570  0.1220 -0.1886 -0.0969
10913TIP3    H132675   1.314   5.008   5.489 -0.6182 -0.5568  0.0972
10913TIP3    H232676   1.423   4.916   5.541 -1.4242 -1.8707 -0.5216
10914TIP3   OH232677   0.295   3.182   5.329  0.0538 -0.2484 -0.3024
10914TIP3    H132678   0.245   3.259   5.354  2.4586  1.0819  0.6335
10914TIP3    H232679   0.277   3.170   5.236 -2.1112  0.0537  0.0490
10915TIP3   OH232680   8.241   3.998   4.353 -0.7431 -0.1060  0.2782
10915TIP3    H132681   8.191   3.958   4.282  0.2302 -2.7132  1.0120
10915TIP3    H232682   8.186   3.989   4.430  0.4144 -2.1377  0.8986
10916TIP3   OH232683   1.892   5.878   6.122  0.3858  0.0698 -0.1531
10916TIP3    H132684   1.897   5.939   6.049  0.3116  0.5728  0.2604
10916TIP3    H232685   1.799   5.879   6.147  0.9201  2.3042  1.9734
10917TIP3   OH232686   5.971   3.636   6.315 -0.5425 -0.1503  0.1475
10917TIP3    H132687   5.895   3.613   6.261  0.0332  0.6432 -1.0164
10917TIP3    H232688   6.047   3.610   6.263 -0.0012 -0.9676  1.3190
10918TIP3   OH232689   2.415   5.264   6.070 -0.0406  0.2436 -0.3996
10918TIP3    H132690   2.442   5.353   6.090 -1.5113  0.6162 -0.0079
10918TIP3    H232691   2.495   5.212   6.076  0.8138  1.5305 -0.6118
10919TIP3   OH232692   7.217   2.978   4.108 -0.0240 -0.0145 -0.5528
10919TIP3    H132693   7.175   2.911   4.055  0.0767 -1.6314  1.3643
10919TIP3    H232694   7.301   2.939   4.134 -0.3117  0.5329  1.2325
10920TIP3   OH232695   5.148   5.431   6.809 -0.5976  0.2879  0.1177
10920TIP3    H132696   5.189   5.370   6.870 -0.6123  1.0261  0.8792
10920TIP3    H232697   5.143   5.383   6.726 -0.3343 -0.6286  0.6255
10921TIP3   OH232698   5.683   4.294   6.548 -0.4946 -0.2976  0.3927
10921TIP3    H132699   5.701   4.273   6.640  2.7143  0.9191  0.0934
10921TIP3    H232700   5.749   4.359   6.525 -3.3198  1.9452 -1.8618
10922TIP3   OH232701   7.329   3.645   6.140 -0.4108  0.4623 -0.2312
10922TIP3    H132702   7.313   3.586   6.214 -1.9236 -0.6842 -1.4356
10922TIP3    H232703   7.385   3.713   6.176 -0.3889 -0.5503  1.7516
10923TIP3   OH232704   0.058   2.886   6.127  0.5910 -0.7029 -0.4083
10923TIP3    H132705   0.076   2.960   6.185 -3.5559  0.4891 -0.4584
10923TIP3    H232706   0.051   2.926   6.040  1.1442 -1.5965 -0.8630
10924TIP3   OH232707   8.060   2.466   4.843 -0.5906  0.1747 -0.1073
10924TIP3    H132708   8.038   2.387   4.794  2.7888 -0.2375 -1.1017
10924TIP3    H232709   8.025   2.538   4.790  0.8313 -0.4033 -1.8781
10925TIP3   OH232710   6.798   3.336   3.659  0.0703  0.3380 -0.1973
10925TIP3    H132711   6.856   3.380   3.720 -1.1160  0.5609  0.7781
10925TIP3    H232712   6.857   3.295   3.595  1.3164  0.0569  1.1131
10926TIP3   OH232713   7.478   2.260   3.578  0.3914  0.1779 -0.1459
10926TIP3    H132714   7.499   2.186   3.636  0.8602  1.0403  0.8047
10926TIP3    H232715   7.410   2.227   3.520  0.1524 -0.8046  0.6858
10927TIP3   OH232716   7.458   5.100   4.196 -0.4659  0.0197  0.1795
10927TIP3    H132717   7.525   5.116   4.262  0.9068 -1.9276 -0.7036
10927TIP3    H232718   7.421   5.014   4.219  0.8248 -1.2161 -2.2149
10928TIP3   OH232719   1.440   0.123   3.662  0.4806  0.0200 -0.0147
10928TIP3    H132720   1.347   0.130   3.642  0.6623  0.3034 -0.7405
10928TIP3    H232721   1.443   0.073   3.744 -0.2192 -1.7599 -1.0407
10929TIP3   OH232722   5.625   3.874   3.224 -0.0510 -0.2153  0.0823
10929TIP3    H132723   5.605   3.784   3.200 -0.6388 -0.2156  0.5438
10929TIP3    H232724   5.659   3.914   3.144  0.9416 -1.0542  0.0843
10930TIP3   OH232725   1.025   5.355   6.387  0.1545  0.2006 -0.2516
10930TIP3    H132726   1.099   5.406   6.420 -0.9866  1.0196  1.0921
10930TIP3    H232727   1.053   5.325   6.301  1.7555  1.1251 -0.0730
10931TIP3   OH232728   3.399   7.715   0.829 -0.0043 -0.0925 -0.8227
10931TIP3    H132729   3.473   7.729   0.771 -0.7581  1.4096 -1.4634
10931TIP3    H232730   3.397   7.792   0.885 -0.7779 -0.3537 -0.4773
10932TIP3   OH232731   7.747   0.993   1.128  0.1896  0.7000  0.0778
10932TIP3    H132732   7.791   0.957   1.050 -0.0584  1.9448 -0.6463
10932TIP3    H232733   7.797   0.956   1.201  0.2708 -0.6998 -0.6455
10933TIP3   OH232734   3.601   4.543   5.430 -0.9846  0.6939  0.2207
10933TIP3    H132735   3.563   4.562   5.515 -0.6019  1.0977  0.3049
10933TIP3    H232736   3.597   4.626   5.382 -1.6680  0.3447 -0.3395
10934TIP3   OH232737   6.577   2.065   0.939 -0.6618  0.0182 -0.6720
10934TIP3    H132738   6.561   2.069   0.845  0.5097 -0.1806 -0.8914
10934TIP3    H232739   6.669   2.039   0.946 -0.2212  1.7955  0.5110
10935TIP3   OH232740   3.791   7.741   0.416  0.2106  0.2465  0.2445
10935TIP3    H132741   3.871   7.691   0.434  0.0712 -0.1261 -0.1863
10935TIP3    H232742   3.796   7.761   0.323 -2.4209 -3.6722 -0.8451
10936TIP3   OH232743   2.434   7.883   0.519 -0.1662 -0.3514 -0.0046
10936TIP3    H132744   2.362   7.912   0.575  0.7798  0.7837  0.6373
10936TIP3    H232745   2.392   7.829   0.452 -1.7098  0.9969 -0.1413
10937TIP3   OH232746   7.227   2.321   0.761 -0.9619  0.2686  0.0805
10937TIP3    H132747   7.229   2.232   0.798 -1.6263  0.0412 -0.4276
10937TIP3    H232748   7.136   2.335   0.738 -1.4703  2.2578  2.9680
10938TIP3   OH232749   3.179   7.258   0.256 -0.2235 -0.2616 -0.1883
10938TIP3    H132750   3.274   7.248   0.252 -0.1762  0.8499 -2.4812
10938TIP3    H232751   3.164   7.310   0.335  1.1042 -0.2347  0.0626
10939TIP3   OH232752   4.795   6.603   0.374 -0.4029  0.0658 -0.2759
10939TIP3    H132753   4.702   6.623   0.377  0.5322  4.8077 -0.0132
10939TIP3    H232754   4.817   6.576   0.463 -0.9901  1.6550  0.3598
10940TIP3   OH232755   3.937   7.544   0.844  0.2461 -0.2225 -0.3290
10940TIP3    H132756   3.897   7.462   0.812  0.0487 -0.3405  0.2164
10940TIP3    H232757   3.916   7.545   0.937 -0.6106  0.9453 -0.5257
10941TIP3   OH232758   1.926   1.589   6.537  0.5685 -0.0065 -0.0900
10941TIP3    H132759   1.983   1.580   6.614  1.5357  0.8918 -0.6702
10941TIP3    H232760   1.837   1.581   6.571  1.0017  0.0432  1.0748
10942TIP3   OH232761   8.467   3.920   6.536 -0.4916  0.3222 -0.6287
10942TIP3    H132762   8.514   3.853   6.586 -0.7126  0.7380  0.1383
10942TIP3    H232763   8.509   3.919   6.450 -0.6156 -0.9375 -0.6868
10943TIP3   OH232764   3.019   5.714   6.888  0.0429 -0.4137  0.3509
10943TIP3    H132765   3.080   5.658   6.840 -0.8148 -0.6032 -0.5091
10943TIP3    H232766   2.978   5.656   6.952  1.1810 -0.1617  1.3317
10944TIP3   OH232767   8.041   0.009   1.019 -0.1363 -0.1852 -0.1736
10944TIP3    H132768   8.100   0.060   1.074  0.9075  0.1602 -1.5785
10944TIP3    H232769   8.055   0.044   0.931 -1.0506 -1.3893 -0.8063
10945TIP3   OH232770   1.532   3.970   6.539  0.0668  0.3003 -0.2319
10945TIP3    H132771   1.516   4.064   6.545 -1.3689 -0.0200  1.1435
10945TIP3    H232772   1.599   3.953   6.605  0.9784  0.4725 -1.0868
10946TIP3   OH232773   2.669   6.068   6.859 -0.1578  0.3219 -0.2906
10946TIP3    H132774   2.665   5.975   6.882  0.3954  0.4003  0.1567
10946TIP3    H232775   2.629   6.113   6.934  0.4559  0.5004 -0.0670
10947TIP3   OH232776   3.359   5.184   6.392  0.6400  0.0865  0.0111
10947TIP3    H132777   3.343   5.120   6.322 -2.3992  1.4120 -0.6074
10947TIP3    H232778   3.356   5.269   6.348 -1.1854  0.9405  1.6632
10948TIP3   OH232779   1.722   3.238   6.386  0.6071 -0.4646 -0.0124
10948TIP3    H132780   1.701   3.325   6.420 -0.2435 -0.7200  0.1225
10948TIP3    H232781   1.799   3.252   6.331  0.5322  0.3546  0.0832
10949TIP3   OH232782   0.849   3.502   5.150 -0.4409  0.2578  0.4145
10949TIP3    H132783   0.819   3.447   5.078 -0.6139  1.0352 -0.1158
10949TIP3    H232784   0.846   3.591   5.115  2.1802  0.4102  0.4086
10950TIP3   OH232785   8.248   1.969   0.369  0.0518  0.2135 -0.1399
10950TIP3    H132786   8.279   2.021   0.443  0.6444 -0.6175  0.2071
10950TIP3    H232787   8.259   2.026   0.293 -1.9753  1.6218  0.6029
10951TIP3   OH232788   0.163   3.314   6.015 -0.1129 -0.3253 -0.2391
10951TIP3    H132789   0.232   3.376   5.992 -1.5780  1.2166 -0.5503
10951TIP3    H232790   0.209   3.239   6.053  1.7513  0.4930 -0.8526
10952TIP3   OH232791   6.573   0.144   1.209  0.2231 -0.9797  0.2918
10952TIP3    H132792   6.582   0.155   1.304  2.7780  1.8912 -0.2245
10952TIP3    H232793   6.644   0.085   1.185  0.4576 -0.5688 -0.0275
10953TIP3   OH232794   1.862   3.393   5.010 -0.3347 -0.3182 -0.6745
10953TIP3    H132795   1.844   3.357   4.923  0.0845  0.2244 -0.9880
10953TIP3    H232796   1.863   3.317   5.068  3.1032 -1.1621 -1.7380
10954TIP3   OH232797   5.751   7.284   1.543  0.4321 -0.5019  0.6727
10954TIP3    H132798   5.699   7.242   1.474 -0.0653 -1.0733  1.3825
10954TIP3    H232799   5.814   7.217   1.570 -1.4394 -1.4500  2.9675
10955TIP3   OH232800   8.425   0.150   1.576 -0.8803  0.1132  0.2213
10955TIP3    H132801   8.502   0.129   1.628 -0.8950 -0.3650  0.0534
10955TIP3    H232802   8.435   0.099   1.495 -0.6206  1.2160 -0.4580
10956TIP3   OH232803   3.246   4.653   5.636  0.3300  0.8798 -0.3609
10956TIP3    H132804   3.225   4.653   5.542 -1.6709  1.8618  0.0621
10956TIP3    H232805   3.162   4.639   5.679  0.8972  2.5577  1.3507
10957TIP3   OH232806   0.655   4.811   6.881  0.4816  0.2928  0.2891
10957TIP3    H132807   0.570   4.776   6.907  0.9255 -0.8827  0.2003
10957TIP3    H232808   0.684   4.863   6.956  0.0604  0.0246  0.6345
10958TIP3   OH232809   0.361   6.152   6.357 -0.3995 -0.5967  0.5526
10958TIP3    H132810   0.380   6.246   6.347 -1.1393 -0.7473 -2.8996
10958TIP3    H232811   0.447   6.110   6.351 -0.0146 -0.1316  2.5596
10959TIP3   OH232812   4.975   7.383   0.076  0.0414 -0.5580  0.3107
10959TIP3    H132813   4.951   7.471   0.104  2.1924  0.1119  0.1681
10959TIP3    H232814   4.910   7.361   0.009  0.7392  1.8258 -1.2353
10960TIP3   OH232815   6.331   1.219   0.082 -0.4123 -0.5587 -0.5334
10960TIP3    H132816   6.256   1.224   0.142  0.1226  1.2958  0.0082
10960TIP3    H232817   6.405   1.251   0.134  0.6243 -1.7058 -1.2926
10961TIP3   OH232818   1.877   2.899   5.138 -0.2912  0.5546 -0.0438
10961TIP3    H132819   1.904   2.888   5.229  2.9188  2.0004 -0.7545
10961TIP3    H232820   1.818   2.825   5.121  2.2447 -2.0524  2.0196
10962TIP3   OH232821   1.506   6.083   6.847 -0.6620 -0.2744  0.7430
10962TIP3    H132822   1.496   6.104   6.754 -3.0856  2.3386  1.5084
10962TIP3    H232823   1.593   6.114   6.869  0.0591 -1.1961 -0.6920
10963TIP3   OH232824   1.131   3.485   6.563  0.1668 -0.0654  0.0043
10963TIP3    H132825   1.115   3.407   6.617  0.8717 -0.9019 -0.9751
10963TIP3    H232826   1.129   3.558   6.625 -1.2381 -0.7805  0.8229
10964TIP3   OH232827   3.108   6.373   1.112  0.3645  0.6683 -0.5564
10964TIP3    H132828   3.044   6.365   1.183  1.3280 -2.4719  0.0394
10964TIP3    H232829   3.181   6.421   1.151  1.1496 -1.5746  0.8294
10965TIP3   OH232830   6.940   2.253   0.528 -0.3048  0.3690  0.5188
10965TIP3    H132831   6.848   2.276   0.519 -0.4083  0.5357  1.8263
10965TIP3    H232832   6.971   2.307   0.602  1.2551  1.5738 -0.9648
10966TIP3   OH232833   7.270   5.270   6.334 -0.0508  0.0822  0.0391
10966TIP3    H132834   7.246   5.258   6.426 -3.3763  0.2595 -0.7495
10966TIP3    H232835   7.287   5.181   6.303  2.5246  0.1375  1.1287
10967TIP3   OH232836   7.370   0.099   0.309  0.7821  0.2152 -0.2409
10967TIP3    H132837   7.449   0.153   0.307  1.2802 -0.5670 -2.2271
10967TIP3    H232838   7.311   0.139   0.245 -0.5155  0.8683  1.3097
10968TIP3   OH232839   7.306   3.054   0.063 -0.1151 -0.3824 -0.0606
10968TIP3    H132840   7.351   2.970   0.053 -0.7887 -0.6301 -0.9727
10968TIP3    H232841   7.358   3.115   0.011 -1.1963 -0.8039 -1.6548
10969TIP3   OH232842   7.949   4.189   5.456 -0.1115 -0.1588 -0.1066
10969TIP3    H132843   7.900   4.108   5.448  0.4164 -0.4008 -1.0369
10969TIP3    H232844   7.895   4.245   5.512 -0.9215 -0.8145 -0.2248
10970TIP3   OH232845   6.440   1.910   1.767  0.0992 -0.0329 -0.2134
10970TIP3    H132846   6.430   1.860   1.686 -2.1721 -1.8818  1.1146
10970TIP3    H232847   6.502   1.860   1.820  2.4788  1.7835 -1.2312
10971TIP3   OH232848   0.517   3.842   5.549  0.4185 -0.0056 -0.7017
10971TIP3    H132849   0.579   3.890   5.494  0.5221 -0.1087 -0.6748
10971TIP3    H232850   0.558   3.757   5.563  1.0063  0.4758  0.6134
10972TIP3   OH232851   5.863   0.257   0.829 -0.0649  0.8129  0.0344
10972TIP3    H132852   5.869   0.229   0.921 -1.9991 -2.7888 -0.8711
10972TIP3    H232853   5.954   0.266   0.801  0.5473  1.3322  2.0969
10973TIP3   OH232854   4.793   7.063   0.653  0.3905  0.2857 -0.5545
10973TIP3    H132855   4.720   7.005   0.634 -0.5522  0.7175  1.6232
10973TIP3    H232856   4.857   7.045   0.584 -1.3734 -0.7454 -1.9551
10974TIP3   OH232857   5.124   6.831   1.024 -0.7023  0.2195 -0.0501
10974TIP3    H132858   5.196   6.832   0.962 -1.1339 -1.1858 -0.5965
10974TIP3    H232859   5.057   6.776   0.983 -1.3780  0.0541  1.2353
10975TIP3   OH232860   1.818   4.238   6.944 -0.1441 -0.0072  0.0736
10975TIP3    H132861   1.831   4.223   6.850  0.8403  0.1786  0.1692
10975TIP3    H232862   1.730   4.204   6.962 -0.9039  1.2382 -1.1900
10976TIP3   OH232863   0.447   4.177   6.629 -0.0824 -0.0417  0.1336
10976TIP3    H132864   0.511   4.120   6.670  1.2428  0.6888 -0.8577
10976TIP3    H232865   0.367   4.166   6.680  0.5156 -1.8280  0.6879
10977TIP3   OH232866   8.303   4.776   4.652 -0.4107 -0.0450 -0.3736
10977TIP3    H132867   8.317   4.754   4.560 -0.5557  0.1009 -0.4300
10977TIP3    H232868   8.359   4.851   4.668  1.0276 -1.1970  0.1422
10978TIP3   OH232869   0.825   3.040   5.695  0.1118  0.7070 -0.6690
10978TIP3    H132870   0.773   3.001   5.623 -2.2488  0.9303  0.8538
10978TIP3    H232871   0.844   2.967   5.753  2.0579  0.5205 -1.5309
10979TIP3   OH232872   5.288   7.441   2.006 -0.1582 -0.2669  0.0217
10979TIP3    H132873   5.275   7.534   2.024 -0.2530 -0.0478 -1.1381
10979TIP3    H232874   5.205   7.400   2.029 -1.4176  0.4649 -2.8886
10980TIP3   OH232875   6.976   0.827   6.164  0.0183  0.5558 -0.2082
10980TIP3    H132876   6.891   0.837   6.206 -0.5433 -0.1633 -1.1632
10980TIP3    H232877   6.956   0.791   6.078  1.2509  0.8712 -0.6295
10981TIP3   OH232878   5.403   5.678   0.644 -0.5087  0.0245  0.0109
10981TIP3    H132879   5.435   5.683   0.734  0.0573  0.9036 -0.2354
10981TIP3    H232880   5.346   5.601   0.643 -1.7092  0.8653  1.4986
10982TIP3   OH232881   7.781   2.254   6.772  0.2787 -0.4320 -0.0145
10982TIP3    H132882   7.740   2.340   6.773  1.4220  0.1625 -1.8152
10982TIP3    H232883   7.805   2.237   6.863  0.0519  1.1695  0.3468
10983TIP3   OH232884   8.109   1.525   0.236 -0.3760 -0.2005 -0.2748
10983TIP3    H132885   8.117   1.519   0.331  0.3170 -1.4594 -0.4010
10983TIP3    H232886   8.198   1.513   0.203 -0.4853  1.0946 -1.0513
10984TIP3   OH232887   2.782   6.816   0.040  0.0144 -0.2980  0.6603
10984TIP3    H132888   2.769   6.866   0.120 -1.2655 -2.0502  1.5849
10984TIP3    H232889   2.851   6.753   0.062  0.5379  0.0389 -0.0071
10985TIP3   OH232890   6.803   1.035   0.866  0.2109 -0.5207  0.3471
10985TIP3    H132891   6.737   1.009   0.931  0.3242 -0.0338  0.6583
10985TIP3    H232892   6.752   1.080   0.798  0.3259  0.6641  1.0275
10986TIP3   OH232893   1.316   4.365   6.722 -0.2298 -0.0745 -0.0663
10986TIP3    H132894   1.267   4.401   6.796 -2.2193 -2.2430 -0.2519
10986TIP3    H232895   1.252   4.361   6.651  0.8082 -0.9015 -0.9700
10987TIP3   OH232896   1.323   2.550   6.092 -0.1163  1.0460  0.3442
10987TIP3    H132897   1.343   2.580   6.180 -1.1410 -3.0910  2.0783
10987TIP3    H232898   1.385   2.479   6.075 -0.8815  0.8170 -1.6930
10988TIP3   OH232899   1.968   4.569   5.797 -0.4414 -0.2688  0.0185
10988TIP3    H132900   1.943   4.487   5.841 -0.1886  0.1103  0.8780
10988TIP3    H232901   2.063   4.573   5.807 -0.3406 -0.3500 -0.8761
10989TIP3   OH232902   2.730   1.389   6.637 -0.2575 -0.0156  0.2946
10989TIP3    H132903   2.687   1.466   6.675  0.0597  0.5501 -0.4740
10989TIP3    H232904   2.682   1.315   6.674 -0.4291  0.5383  1.2158
10990TIP3   OH232905   6.273   2.215   0.346 -0.1714 -0.1514  0.2309
10990TIP3    H132906   6.365   2.201   0.325 -0.3400 -0.9110 -0.0293
10990TIP3    H232907   6.274   2.271   0.423  0.5057 -0.0261  0.1307
10991TIP3   OH232908   0.391   3.391   5.645  0.1602 -0.1073  0.3957
10991TIP3    H132909   0.465   3.393   5.705  1.0738 -0.9487 -0.6744
10991TIP3    H232910   0.371   3.298   5.635  0.9606 -0.0671 -1.7254
10992TIP3   OH232911   2.317   5.002   5.623  0.3258  0.0671 -0.7107
10992TIP3    H132912   2.243   5.055   5.655  0.6615 -0.1152  0.4032
10992TIP3    H232913   2.298   4.989   5.530 -1.7679 -1.1368 -0.1589
10993TIP3   OH232914   6.279   0.595   1.745  0.1727  0.2845 -0.6240
10993TIP3    H132915   6.318   0.616   1.831  0.0716  2.6764 -1.1388
10993TIP3    H232916   6.208   0.534   1.765  2.1802 -1.7459  0.6479
10994TIP3   OH232917   1.574   3.827   6.314 -0.0009 -0.2533  0.0797
10994TIP3    H132918   1.525   3.849   6.393  1.3661  0.9048  0.6220
10994TIP3    H232919   1.507   3.795   6.253 -1.7109  2.6138  0.3078
10995TIP3   OH232920   3.790   7.528   1.116 -0.2441 -0.3013 -0.0644
10995TIP3    H132921   3.749   7.613   1.126 -0.6520 -0.6866  1.5361
10995TIP3    H232922   3.736   7.468   1.167  2.3973 -0.7750  2.3215
10996TIP3   OH232923   1.311   3.255   4.460  0.3481 -0.0527 -0.4432
10996TIP3    H132924   1.384   3.229   4.516  0.8830 -0.2050 -1.2009
10996TIP3    H232925   1.334   3.222   4.373 -0.1667  0.7487 -0.8891
10997TIP3   OH232926   4.326   5.976   0.261  0.7373 -0.8776 -0.3695
10997TIP3    H132927   4.415   5.973   0.226  0.4667 -2.6854 -0.9527
10997TIP3    H232928   4.310   6.069   0.276  2.5305 -0.4804 -0.7467
10998TIP3   OH232929   4.145   6.781   0.512 -0.2220  0.0986 -0.3216
10998TIP3    H132930   4.176   6.785   0.602 -1.9134 -0.6159  0.3060
10998TIP3    H232931   4.050   6.783   0.519 -0.4100 -1.7047 -2.0043
10999TIP3   OH232932   6.267   0.406   1.265 -0.4290  0.2996  1.2761
10999TIP3    H132933   6.180   0.443   1.256 -1.4631 -2.5067 -1.2062
10999TIP3    H232934   6.322   0.456   1.205 -1.2078 -0.3469  0.0018
11000TIP3   OH232935   8.347   5.126   5.899  0.0048 -0.0349  0.0794
11000TIP3    H132936   8.303   5.046   5.927 -0.2910  0.2659  0.4762
11000TIP3    H232937   8.439   5.101   5.890  0.4950  0.3756  3.4063
11001TIP3   OH232938   0.293   3.867   6.258  0.3158  0.1867  0.3566
11001TIP3    H132939   0.230   3.888   6.189 -0.0205 -1.2482  0.2099
11001TIP3    H232940   0.345   3.947   6.268  0.5095  0.3411 -1.6964
11002TIP3   OH232941   8.362   0.633   0.420 -0.8742  0.7613  0.0040
11002TIP3    H132942   8.392   0.598   0.503  1.4593 -0.1872 -1.1757
11002TIP3    H232943   8.401   0.720   0.414  1.0289 -0.1516 -1.1755
11003TIP3   OH232944   1.131   3.613   6.866  0.1488 -0.3220 -0.4991
11003TIP3    H132945   1.088   3.654   6.790  0.7826  0.0757 -0.6501
11003TIP3    H232946   1.224   3.630   6.852  0.4879 -2.3266 -0.8648
11004TIP3   OH232947   1.677   2.406   6.704  0.0563 -0.1175  0.4261
11004TIP3    H132948   1.637   2.449   6.628 -0.3234  0.4001  0.9116
11004TIP3    H232949   1.770   2.407   6.685 -0.0141  0.2432  0.0834
11005TIP3   OH232950   5.303   7.293   1.532 -0.4809 -0.1601 -0.0442
11005TIP3    H132951   5.213   7.285   1.499 -0.4172 -0.0710 -0.2396
11005TIP3    H232952   5.295   7.351   1.608 -0.0086  3.3845 -2.5339
11006TIP3   OH232953   8.117   4.580   6.008  0.5813  0.2339  0.6244
11006TIP3    H132954   8.146   4.588   5.917  0.5792 -1.7449  0.4177
11006TIP3    H232955   8.186   4.622   6.059  0.1412  2.1611 -0.3364
11007TIP3   OH232956   1.880   4.166   6.676 -0.9303 -0.0138  0.7435
11007TIP3    H132957   1.876   4.213   6.593 -0.8079 -3.4862 -1.3327
11007TIP3    H232958   1.972   4.140   6.685 -1.2695 -1.1667  1.0449
11008TIP3   OH232959   6.961   1.886   1.963 -0.1426 -0.3586 -0.9644
11008TIP3    H132960   6.907   1.884   1.884 -3.2104 -0.7601  1.0598
11008TIP3    H232961   6.939   1.970   2.005  0.0578 -0.9735  0.4024
11009TIP3   OH232962   5.002   7.577   0.881 -0.4426  0.2656 -0.8163
11009TIP3    H132963   5.048   7.496   0.857 -1.6071 -1.1702  1.5572
11009TIP3    H232964   5.072   7.642   0.888  0.8120 -1.0633 -0.6032
11010TIP3   OH232965   1.133   3.515   6.290 -0.4842 -0.0969 -0.3231
11010TIP3    H132966   1.091   3.594   6.254  0.8734  0.8056  0.0267
11010TIP3    H232967   1.145   3.534   6.383 -1.4127 -1.2940  0.0557
11011TIP3   OH232968   0.852   3.751   5.942 -0.1223 -0.0063 -0.8334
11011TIP3    H132969   0.943   3.760   5.913  0.3003 -1.1357  0.1330
11011TIP3    H232970   0.824   3.666   5.910  0.2845 -1.1973  1.7975
11012TIP3   OH232971   7.684   1.515   2.443 -0.3138 -0.2628 -0.2926
11012TIP3    H132972   7.635   1.589   2.409 -1.8832 -0.2725  1.8065
11012TIP3    H232973   7.699   1.459   2.367 -0.9127  1.2157 -1.5278
11013TIP3   OH232974   0.931   4.479   6.563  0.0917  0.3203  0.7621
11013TIP3    H132975   0.869   4.450   6.496  0.0058 -0.9048  1.3643
11013TIP3    H232976   0.879   4.537   6.620  0.0276  0.9259  0.0977
11014TIP3   OH232977   1.972   2.946   5.941 -0.2161 -0.2018 -0.3576
11014TIP3    H132978   2.011   3.021   5.896 -1.3355  1.3931  1.2445
11014TIP3    H232979   1.883   2.942   5.908 -0.6064  0.0919  0.6509
11015TIP3   OH232980   2.803   5.536   6.678  0.6218  0.4778  0.0520
11015TIP3    H132981   2.722   5.502   6.716 -0.0910  2.0837  0.0035
11015TIP3    H232982   2.872   5.511   6.740  0.0323 -0.4888  0.3203
11016TIP3   OH232983   0.102   6.105   6.451  0.1041  0.1542  0.3419
11016TIP3    H132984   0.087   6.119   6.544 -0.9143  1.5572 -0.0249
11016TIP3    H232985   0.175   6.163   6.429 -0.3973  0.6736  0.0312
11017TIP3   OH232986   1.592   4.934   6.441  0.4766 -0.4204 -0.0137
11017TIP3    H132987   1.504   4.902   6.419  0.1705 -1.0838  2.0582
11017TIP3    H232988   1.651   4.866   6.407 -0.0093 -1.6714  1.5815
11018TIP3   OH232989   7.855   4.697   6.085  0.0071  0.1514 -0.0864
11018TIP3    H132990   7.843   4.749   6.005 -2.7823 -1.2753 -0.6369
11018TIP3    H232991   7.937   4.649   6.071  0.0572  0.6814 -1.6352
11019TIP3   OH232992   6.139   4.169   3.531 -0.0290 -0.7239 -0.4440
11019TIP3    H132993   6.062   4.225   3.522  1.4317  1.7700  2.0069
11019TIP3    H232994   6.207   4.213   3.480  1.2255 -0.0557  1.7772
11020TIP3   OH232995   6.007   1.011   0.637  0.2252 -0.3740 -0.9565
11020TIP3    H132996   5.924   1.003   0.590 -0.3389  1.9378 -0.4506
11020TIP3    H232997   6.055   1.080   0.591  1.0046 -0.2799 -0.0461
11021TIP3   OH232998   7.972   1.238   0.623 -0.0067  0.1329 -0.1137
11021TIP3    H132999   7.884   1.246   0.658 -0.3421 -0.0238 -0.9033
11021TIP3    H233000   8.030   1.263   0.695 -0.5491 -2.8233  1.4008
11022TIP3   OH233001   0.087   4.119   4.577 -0.4002  0.4438  0.2004
11022TIP3    H133002   0.010   4.135   4.522 -1.9981 -0.2562  2.1240
11022TIP3    H233003   0.060   4.151   4.664  1.9368  1.2751  0.6547
11023TIP3   OH233004   3.918   7.269   1.198 -0.1055  0.0500 -0.2964
11023TIP3    H133005   3.995   7.319   1.173 -1.0008  2.1841  1.0610
11023TIP3    H233006   3.869   7.259   1.116  1.2692 -0.7344 -1.0363
11024TIP3   OH233007   1.695   3.372   5.429  0.1112 -1.1419  0.5195
11024TIP3    H133008   1.600   3.380   5.435 -0.0302 -2.1250 -0.3277
11024TIP3    H233009   1.715   3.394   5.338  0.7556 -0.4255  0.8277
11025TIP3   OH233010   3.200   6.337   5.355 -0.2380  0.4437  0.1882
11025TIP3    H133011   3.246   6.403   5.405 -0.9801  0.3964  0.9445
11025TIP3    H233012   3.107   6.355   5.371 -0.4632 -0.1067 -0.4630
11026TIP3   OH233013   1.446   7.385   6.714 -0.0750 -0.4777  0.5530
11026TIP3    H133014   1.497   7.335   6.651  1.9974  1.1610  0.8908
11026TIP3    H233015   1.355   7.375   6.684  0.6506 -1.5136 -1.4001
11027TIP3   OH233016   8.434   4.309   4.470  0.0943 -0.2052  0.3487
11027TIP3    H133017   8.392   4.375   4.414  0.5870  0.1374  0.3709
11027TIP3    H233018   8.490   4.360   4.528  0.2569 -0.6262  0.5614
11028TIP3   OH233019   1.193   4.549   4.985  0.8503 -0.4264 -0.1121
11028TIP3    H133020   1.283   4.523   5.003  1.1056  1.6110  1.7165
11028TIP3    H233021   1.199   4.605   4.907  1.1351 -0.4317 -0.0934
11029TIP3   OH233022   7.910   4.668   5.796 -0.3017  0.4777 -0.4221
11029TIP3    H133023   7.911   4.757   5.762  1.2629  0.7059  0.1751
11029TIP3    H233024   7.968   4.619   5.737 -1.8501 -0.3604 -1.2844
11030TIP3   OH233025   0.554   3.782   6.026  0.3030  0.3393  0.0820
11030TIP3    H133026   0.647   3.762   6.017 -0.1847 -0.9097 -2.7423
11030TIP3    H233027   0.539   3.854   5.963 -1.0107 -0.8454 -1.0008
11031TIP3   OH233028   2.413   2.414   5.569 -0.1790  0.1377  0.2213
11031TIP3    H133029   2.444   2.499   5.538  1.0522  0.0863  1.2888
11031TIP3    H233030   2.492   2.362   5.584 -0.8902 -0.9913  0.1833
11032TIP3   OH233031   5.107   6.490   0.360 -0.2791  0.1313 -0.2244
11032TIP3    H133032   5.120   6.410   0.310 -0.6724  0.4886 -0.9060
11032TIP3    H233033   5.159   6.556   0.314 -0.1234  0.3175  0.2126
11033TIP3   OH233034   0.436   2.409   0.406  0.6254  0.5963  0.1722
11033TIP3    H133035   0.464   2.347   0.474  1.9304 -0.1551 -0.9965
11033TIP3    H233036   0.487   2.383   0.329 -0.8714  1.3834 -1.1065
11034TIP3   OH233037   0.813   5.047   5.028 -0.0945 -0.2785  0.1145
11034TIP3    H133038   0.860   4.988   5.087  3.8240  1.8077 -0.7432
11034TIP3    H233039   0.783   5.118   5.085 -0.2346 -0.4933  0.3077
11035TIP3   OH233040   4.784   7.898   2.201  0.4359 -0.2142 -0.1421
11035TIP3    H133041   4.823   7.812   2.188  1.0211  0.2084 -1.2629
11035TIP3    H233042   4.801   7.919   2.293  0.2019 -1.3297  0.1636
11036TIP3   OH233043   1.022   6.431   0.244 -0.0482 -0.1590  0.2616
11036TIP3    H133044   0.949   6.493   0.243  1.2831  1.4395 -0.8648
11036TIP3    H233045   1.045   6.422   0.336 -1.1576 -0.0618  0.5497
11037TIP3   OH233046   1.761   7.614   0.104 -0.4002 -0.0072  0.2563
11037TIP3    H133047   1.723   7.529   0.128  1.5044 -0.9247  0.1519
11037TIP3    H233048   1.750   7.668   0.182  1.2901 -1.4037  1.5181
11038TIP3   OH233049   1.054   4.831   4.757  0.7224  0.4431  0.3834
11038TIP3    H133050   0.992   4.894   4.721 -0.4565 -0.8104  0.1673
11038TIP3    H233051   1.032   4.825   4.850  1.6478  1.2601  0.6660
11039TIP3   OH233052   4.830   7.665   0.405  0.3467 -0.6798 -0.4121
11039TIP3    H133053   4.899   7.654   0.470 -0.8031 -1.4915  0.7083
11039TIP3    H233054   4.873   7.654   0.320  1.9338  0.7123  0.1922
11040TIP3   OH233055   2.787   3.265   5.484 -0.0528 -0.3742  0.5298
11040TIP3    H133056   2.749   3.188   5.442 -0.0610  0.4711 -1.0445
11040TIP3    H233057   2.719   3.332   5.477  0.2838  0.0341  1.1196
11041TIP3   OH233058   6.505   1.253   3.709  0.2878 -0.5625 -0.1945
11041TIP3    H133059   6.541   1.267   3.621  0.0030  0.4773 -0.1574
11041TIP3    H233060   6.581   1.257   3.767  0.4191 -0.8080 -0.3466
11042TIP3   OH233061   1.895   4.320   5.864  0.3534 -0.0120 -0.7060
11042TIP3    H133062   1.902   4.249   5.928 -0.1541  1.2144  0.7211
11042TIP3    H233063   1.803   4.321   5.839  0.6910 -0.9913 -2.0692
11043TIP3   OH233064   1.402   3.309   5.423 -0.1602  0.3309  0.0644
11043TIP3    H133065   1.358   3.394   5.425 -0.3808  0.2090  0.8585
11043TIP3    H233066   1.380   3.273   5.337 -2.3758 -0.1005  0.7756
11044TIP3   OH233067   6.509   0.054   1.928  0.2361  0.0710  0.2252
11044TIP3    H133068   6.444   0.000   1.884  0.7302  1.0510 -1.7822
11044TIP3    H233069   6.573   0.076   1.859 -0.3378  3.7916  0.7421
11045TIP3   OH233070   7.662   1.942   0.100  0.3738 -0.2970 -0.1581
11045TIP3    H133071   7.725   1.880   0.137 -2.0908 -1.9687  1.3869
11045TIP3    H233072   7.687   2.027   0.136  0.9696 -1.1382  1.4509
11046TIP3   OH233073   2.096   4.790   6.671  0.2328 -0.8323 -0.2838
11046TIP3    H133074   2.125   4.734   6.743  0.5259  2.0936  1.9650
11046TIP3    H233075   2.173   4.799   6.615  1.2224  0.0838  1.1872
11047TIP3   OH233076   0.462   1.163   1.211  0.2268 -0.6484  0.8365
11047TIP3    H133077   0.558   1.158   1.210  0.1782 -1.7353 -0.6982
11047TIP3    H233078   0.434   1.086   1.161 -1.3869  1.0687 -0.9878
11048TIP3   OH233079   0.493   5.750   4.918 -0.2241 -0.6213 -0.0954
11048TIP3    H133080   0.481   5.655   4.913  0.7929 -0.7259 -0.6564
11048TIP3    H233081   0.410   5.786   4.886 -0.7603 -1.3206  0.4965
11049TIP3   OH233082   0.825   3.451   6.615  0.3645 -0.3056  1.4181
11049TIP3    H133083   0.907   3.418   6.579 -0.4412 -0.1602 -0.6426
11049TIP3    H233084   0.807   3.531   6.565 -0.4109  0.3317  2.6840
11050TIP3   OH233085   6.205   0.104   0.611  0.3989  0.1875  0.1398
11050TIP3    H133086   6.284   0.079   0.658  1.5425 -0.6762 -2.1890
11050TIP3    H233087   6.142   0.035   0.630  0.0774  1.0277  2.2310
11051TIP3   OH233088   8.407   4.046   5.171 -0.6703  0.5005 -0.2990
11051TIP3    H133089   8.328   3.999   5.195 -0.4566  0.1822 -0.2136
11051TIP3    H233090   8.455   3.986   5.114 -0.4430  0.6514 -0.2697
11052TIP3   OH233091   1.660   3.657   6.707 -0.1428 -0.0635 -0.0811
11052TIP3    H133092   1.698   3.650   6.619 -0.1585 -0.9901 -0.0144
11052TIP3    H233093   1.687   3.744   6.738 -1.3940  0.9145 -1.6034
11053TIP3   OH233094   0.913   5.940   5.263  0.1773  0.0844  0.4060
11053TIP3    H133095   0.908   5.998   5.187  0.4481  0.7571  0.9005
11053TIP3    H233096   0.821   5.924   5.287  0.0189 -1.7109 -1.2376
11054TIP3   OH233097   3.994   7.004   2.115 -0.8837  0.0411 -0.0408
11054TIP3    H133098   3.952   6.967   2.192 -1.2796 -0.1827 -0.3610
11054TIP3    H233099   3.951   6.960   2.041  0.1005 -0.3908 -0.3600
11055TIP3   OH233100   1.763   5.837   6.452 -0.6692  0.1830  0.3344
11055TIP3    H133101   1.775   5.818   6.545 -0.6261  0.2154  0.3357
11055TIP3    H233102   1.808   5.766   6.407 -0.4841  0.2981  0.3390
11056TIP3   OH233103   3.779   7.165   2.447 -0.3471 -0.1314 -0.8906
11056TIP3    H133104   3.779   7.196   2.356 -0.0098 -2.5486 -1.7607
11056TIP3    H233105   3.865   7.124   2.458 -0.9674 -1.2096  0.0300
11057TIP3   OH233106   2.714   5.691   5.396  0.0603 -0.0954 -0.4018
11057TIP3    H133107   2.765   5.630   5.450  0.5903  2.1520  1.6718
11057TIP3    H233108   2.626   5.687   5.432 -0.5794 -1.6125 -2.0092
11058TIP3   OH233109   6.729   6.811   2.399 -0.4847 -0.7987 -0.0487
11058TIP3    H133110   6.796   6.823   2.331 -1.5080 -1.1739 -1.1305
11058TIP3    H233111   6.689   6.726   2.378 -1.1037 -0.7077  0.7658
11059TIP3   OH233112   7.721   3.059   6.245 -0.2336 -0.4945  0.1171
11059TIP3    H133113   7.640   3.089   6.287 -0.3436 -0.6957  0.0486
11059TIP3    H233114   7.785   3.057   6.316  0.6620  3.1270 -0.4815
11060TIP3   OH233115   4.761   6.794   2.306  0.1681 -0.3870  0.2420
11060TIP3    H133116   4.744   6.874   2.357 -0.0132  0.6110 -1.3376
11060TIP3    H233117   4.845   6.810   2.264  0.0621 -0.9700 -0.1910
11061TIP3   OH233118   2.463   7.195   2.544 -0.4785  0.7707  0.8066
11061TIP3    H133119   2.533   7.248   2.581 -0.6478  1.5639  0.0097
11061TIP3    H233120   2.384   7.222   2.590 -0.1002 -1.0016  2.5864
11062TIP3   OH233121  -0.033   3.443   6.672  0.0188  0.4405 -0.0087
11062TIP3    H133122   0.031   3.464   6.604 -1.7170  1.3372 -1.4071
11062TIP3    H233123   0.012   3.462   6.754  0.7214  3.5602 -1.0498
11063TIP3   OH233124   1.155   0.696   0.753 -0.2508  0.4370  0.2519
11063TIP3    H133125   1.060   0.706   0.759 -0.5800 -0.9369 -1.9714
11063TIP3    H233126   1.167   0.609   0.715  1.8608  1.2506 -1.0228
11064TIP3   OH233127   4.010   7.667   3.007  0.0631  0.3918 -0.0067
11064TIP3    H133128   3.965   7.741   3.048  0.4798  0.2245  0.7569
11064TIP3    H233129   4.086   7.651   3.064 -0.4520 -1.1105  0.2709
11065TIP3   OH233130   0.491   0.210   1.260 -0.2523  0.3587  0.2340
11065TIP3    H133131   0.449   0.208   1.174 -0.4596  2.6271  0.2575
11065TIP3    H233132   0.426   0.172   1.319 -0.4338 -0.4345 -0.4598
11066TIP3   OH233133   4.621   7.545   1.056  0.4752  0.6133  0.3320
11066TIP3    H133134   4.606   7.584   0.969  1.3525 -1.8046 -0.9616
11066TIP3    H233135   4.608   7.451   1.042 -0.1226  0.2746  3.0243
11067TIP3   OH233136   4.625   7.738   0.246 -0.3390  0.7669 -0.1544
11067TIP3    H133137   4.711   7.707   0.276 -1.3341 -2.8609 -0.7448
11067TIP3    H233138   4.574   7.745   0.327 -0.7527 -1.5002 -0.1665
11068TIP3   OH233139   7.171   0.492   1.039 -0.0694 -0.2328 -0.0228
11068TIP3    H133140   7.087   0.453   1.064 -0.7615  0.8175 -0.6829
11068TIP3    H233141   7.184   0.466   0.948  0.8768 -1.3253  0.4080
11069TIP3   OH233142   1.954   5.487   5.945  0.1885  0.4427 -0.5290
11069TIP3    H133143   1.869   5.473   5.987  1.2781 -1.8493  0.9868
11069TIP3    H233144   2.015   5.500   6.018  0.9662  3.4175 -1.6331
11070TIP3   OH233145   7.059   0.344   1.633  0.0842  0.2033  0.1837
11070TIP3    H133146   7.111   0.409   1.585  0.6666 -0.2796  0.1593
11070TIP3    H233147   7.096   0.260   1.607 -0.5462 -0.1321  0.3657
11071TIP3   OH233148   0.092   0.427   1.581 -0.4726 -0.1075  0.1691
11071TIP3    H133149   0.114   0.336   1.601 -0.1205 -0.4221 -1.5982
11071TIP3    H233150   0.173   0.465   1.545 -1.1389  0.3951 -0.8100
11072TIP3   OH233151   6.554   2.066   0.662  0.5365 -0.4062  0.3486
11072TIP3    H133152   6.538   1.988   0.609  1.5346  0.0865 -0.7052
11072TIP3    H233153   6.477   2.120   0.648  0.3207 -0.7422  0.2335
11073TIP3   OH233154   2.392   5.068   6.310  0.3920 -0.4289  0.3683
11073TIP3    H133155   2.387   5.161   6.288 -2.2209 -0.7368 -0.5392
11073TIP3    H233156   2.430   5.066   6.398 -0.4041  1.5549  0.7838
11074TIP3   OH233157   8.257   2.290   0.762  0.1674 -0.2446 -1.0582
11074TIP3    H133158   8.284   2.221   0.823 -0.0659  0.4584 -0.1532
11074TIP3    H233159   8.265   2.250   0.675 -0.3341 -1.5447 -0.5167
11075TIP3   OH233160   3.597   4.676   5.856 -0.4289 -0.0321 -0.5454
11075TIP3    H133161   3.611   4.716   5.770 -1.3874 -0.0941 -0.7377
11075TIP3    H233162   3.664   4.608   5.862  0.5240  0.8951 -0.6613
11076TIP3   OH233163   5.006   5.636   0.450  0.5394  0.5316  0.4876
11076TIP3    H133164   4.940   5.642   0.518 -1.2307  2.0440 -1.3012
11076TIP3    H233165   4.963   5.588   0.379  2.5805 -1.6282  0.6374
11077TIP3   OH233166   6.474   7.653   0.062  0.3899 -0.4772  0.1156
11077TIP3    H133167   6.427   7.587   0.010 -1.2232  0.5428  0.2338
11077TIP3    H233168   6.511   7.604   0.135  0.7250 -1.5497 -0.7585
11078TIP3   OH233169   3.062   7.126   1.889  0.0952  0.7047  0.0035
11078TIP3    H133170   3.002   7.200   1.894 -2.1475 -1.0004 -0.6011
11078TIP3    H233171   3.048   7.090   1.801  2.5060  0.6548 -0.3939
11079TIP3   OH233172   0.247   1.302   2.989  0.1821 -0.1003  0.4960
11079TIP3    H133173   0.341   1.310   2.972  0.0998 -0.7830 -0.2854
11079TIP3    H233174   0.242   1.247   3.067  0.4298 -0.1669  0.4654
11080TIP3   OH233175   2.922   5.309   5.403  0.5147  0.2240 -0.2466
11080TIP3    H133176   3.010   5.275   5.385  0.5944 -0.3829  1.2522
11080TIP3    H233177   2.937   5.393   5.446  0.3364  0.6147 -0.9314
11081TIP3   OH233178   1.864   3.949   4.678  0.3905  0.1366 -0.0897
11081TIP3    H133179   1.876   3.909   4.592  2.2728  0.7099 -0.1146
11081TIP3    H233180   1.918   4.028   4.676  0.8404 -0.0874  1.7641
11082TIP3   OH233181   5.902   7.614   0.373  0.5293 -0.0586  0.3466
11082TIP3    H133182   5.825   7.558   0.375 -0.2038  0.9225 -0.1009
11082TIP3    H233183   5.976   7.553   0.366 -0.2872 -0.9509 -0.6526
11083TIP3   OH233184   1.813   4.877   5.089 -0.0303 -0.5446 -0.3441
11083TIP3    H133185   1.828   4.971   5.077  0.9145 -0.4876  1.1331
11083TIP3    H233186   1.861   4.836   5.017  0.4127  0.0652 -0.4078
11084TIP3   OH233187   4.032   7.368   3.292 -0.3948  0.1332 -0.6279
11084TIP3    H133188   3.967   7.372   3.362 -0.7107  1.6281 -0.9840
11084TIP3    H233189   3.982   7.378   3.212 -0.0003 -1.2954 -1.0531
11085TIP3   OH233190   5.799   6.985   2.473 -0.3371 -0.2321  0.8983
11085TIP3    H133191   5.748   7.064   2.492  1.2927  0.6867  1.5488
11085TIP3    H233192   5.872   6.988   2.536  0.7847 -1.2725 -0.3273
11086TIP3   OH233193   2.815   2.473   5.644  0.2591 -0.3950  0.4220
11086TIP3    H133194   2.742   2.415   5.624  0.3613 -0.8050  1.2450
11086TIP3    H233195   2.893   2.422   5.623  0.3131  0.3934 -1.4336
11087TIP3   OH233196   3.089   7.456   2.166 -0.2214 -0.7337  0.2690
11087TIP3    H133197   3.085   7.552   2.161  0.2335 -0.6571  1.2433
11087TIP3    H233198   3.098   7.428   2.075  1.2582  0.2338  0.1010
11088TIP3   OH233199   3.755   3.612   5.162  0.4460  0.7353  0.4956
11088TIP3    H133200   3.817   3.681   5.137  0.7209  0.9171  1.6370
11088TIP3    H233201   3.690   3.657   5.216  0.1259  0.2770  0.4919
11089TIP3   OH233202   0.697   2.833   6.924 -0.2958  0.6290 -0.1118
11089TIP3    H133203   0.768   2.872   6.872  0.7713  0.4035  1.1310
11089TIP3    H233204   0.619   2.880   6.897  0.5486  1.8121 -0.5552
11090TIP3   OH233205   3.641   7.773   1.134  0.3498  0.5785 -0.5780
11090TIP3    H133206   3.596   7.851   1.100 -2.8974 -0.9366  0.0262
11090TIP3    H233207   3.641   7.786   1.229  1.5605  0.7489 -0.6008
11091TIP3   OH233208   4.065   7.149   0.739  0.2560  0.0257 -0.5606
11091TIP3    H133209   4.159   7.160   0.725  0.2569  1.0614  0.2397
11091TIP3    H233210   4.052   7.054   0.744  1.3570 -0.0969  0.0328
11092TIP3   OH233211   1.723   5.161   6.396  0.2567 -0.0314 -0.3513
11092TIP3    H133212   1.804   5.128   6.435 -0.5514  1.2314  2.5423
11092TIP3    H233213   1.660   5.090   6.407 -0.1213  0.5249  1.2526
11093TIP3   OH233214   6.861   3.411   1.755  0.3165  0.4601  0.4823
11093TIP3    H133215   6.893   3.358   1.682  0.6348  0.6101  0.5138
11093TIP3    H233216   6.923   3.395   1.826  0.2418  0.6403  0.5889
11094TIP3   OH233217   7.312   2.779   0.295  0.1817 -0.7592 -0.2059
11094TIP3    H133218   7.355   2.782   0.210 -0.0871 -0.5040 -0.3302
11094TIP3    H233219   7.218   2.783   0.276  0.1755  1.4437  0.2128
11095TIP3   OH233220   8.137   0.530   2.813 -0.5655 -0.2422 -0.8278
11095TIP3    H133221   8.045   0.506   2.819 -1.1468  1.8861 -0.8246
11095TIP3    H233222   8.141   0.595   2.742  0.5196  1.4652  0.7450
11096TIP3   OH233223   3.632   6.391   5.985  0.0898  0.5243  0.4527
11096TIP3    H133224   3.661   6.350   6.066  0.3762  0.4950  0.3378
11096TIP3    H233225   3.713   6.424   5.945  0.6830 -4.0099 -2.4035
11097TIP3   OH233226   5.424   0.870   0.178  0.1486 -0.2697  0.1626
11097TIP3    H133227   5.373   0.809   0.125 -0.8490  0.4212  0.3285
11097TIP3    H233228   5.363   0.940   0.200  0.7544 -0.1963  1.6381
11098TIP3   OH233229   2.306   3.824   5.705  0.1607  0.2500  0.4846
11098TIP3    H133230   2.385   3.779   5.677 -0.5331 -1.2003  0.7832
11098TIP3    H233231   2.237   3.788   5.650 -0.6509 -0.1587  1.7318
11099TIP3   OH233232   8.417   1.648   1.744  0.5979 -0.0229  0.3761
11099TIP3    H133233   8.505   1.640   1.780  0.2883  0.0060  1.1587
11099TIP3    H233234   8.424   1.718   1.679  1.7920 -1.9707 -1.6637
11100TIP3   OH233235   2.445   6.160   5.140 -0.3714  0.5306  0.0404
11100TIP3    H133236   2.497   6.235   5.110 -2.0810  2.0976  0.8636
11100TIP3    H233237   2.489   6.131   5.220  2.6620 -1.9966 -2.3809
11101TIP3   OH233238   2.009   6.507   6.798 -0.4493  0.1268  0.5620
11101TIP3    H133239   1.920   6.476   6.817 -0.4321  0.0567  0.5263
11101TIP3    H233240   2.049   6.516   6.885 -0.3906 -0.1374  0.5620
11102TIP3   OH233241   4.953   4.936   0.036 -0.6102 -0.4527 -0.0357
11102TIP3    H133242   4.940   5.016  -0.015 -0.9046 -1.5947 -1.7954
11102TIP3    H233243   4.883   4.938   0.101  0.3754  1.5271  1.0171
11103TIP3   OH233244   2.540   4.038   4.978 -0.0631  0.5753  0.0146
11103TIP3    H133245   2.620   3.991   4.951  0.7432  0.4830  2.4428
11103TIP3    H233246   2.473   4.007   4.917  1.8661  1.1347 -2.4903
11104TIP3   OH233247   6.718   0.267   2.233 -0.2554 -0.2691  0.4815
11104TIP3    H133248   6.629   0.292   2.207 -0.3725  1.3396  2.2756
11104TIP3    H233249   6.770   0.276   2.152 -1.1238  1.9390  0.1173
11105TIP3   OH233250   0.413   3.449   6.607  0.0707  0.7812 -0.7703
11105TIP3    H133251   0.395   3.412   6.693  1.1099  1.5303 -0.2173
11105TIP3    H233252   0.327   3.463   6.568 -0.3616 -1.3589 -0.6457
11106TIP3   OH233253   0.145   3.130   6.289  0.5106 -0.0001  0.2756
11106TIP3    H133254   0.151   3.146   6.383 -0.9224 -1.3470  0.6268
11106TIP3    H233255   0.073   3.187   6.260 -0.8634 -1.5688  0.5166
11107TIP3   OH233256   0.572   3.586   5.571  0.1889 -0.0135  0.2891
11107TIP3    H133257   0.610   3.580   5.483  0.9787 -1.3984  0.7037
11107TIP3    H233258   0.502   3.519   5.571 -0.4769  0.6746  0.3953
11108TIP3   OH233259   1.291   3.020   6.486  0.7892  0.2857 -0.4644
11108TIP3    H133260   1.340   3.061   6.558  0.3496 -1.3735  0.7963
11108TIP3    H233261   1.241   2.950   6.528 -0.4263  0.0886 -2.2039
11109TIP3   OH233262   1.333   3.985   6.046 -0.4568  0.4122  0.6093
11109TIP3    H133263   1.273   3.949   5.981  0.0864  1.5562 -0.5552
11109TIP3    H233264   1.370   3.909   6.090 -3.0938 -0.3301  1.6808
11110TIP3   OH233265   2.309   2.247   5.809 -0.3184 -0.1620  0.2819
11110TIP3    H133266   2.369   2.287   5.746 -1.0851 -1.1808 -1.0969
11110TIP3    H233267   2.365   2.192   5.864  0.2672  0.3043  0.1588
11111TIP3   OH233268   7.885   3.269   4.431 -0.3905  0.1655  0.6546
11111TIP3    H133269   7.800   3.265   4.386 -0.4653  2.5041  0.5605
11111TIP3    H233270   7.880   3.201   4.498 -1.6427 -0.9361 -0.5351
11112TIP3   OH233271   6.962   3.812   5.539 -0.5012  0.0590 -0.0917
11112TIP3    H133272   6.972   3.725   5.579 -2.3544 -0.5375 -0.8735
11112TIP3    H233273   6.907   3.861   5.599 -1.7100 -0.2123 -0.9632
11113TIP3   OH233274   2.587   5.044   5.268  0.0152  0.1885 -0.1720
11113TIP3    H133275   2.533   5.006   5.199 -0.2536 -1.6437  1.0083
11113TIP3    H233276   2.676   5.015   5.249  0.2359  1.2276 -0.7729
11114TIP3   OH233277   6.999   0.731   0.620 -0.2943 -0.0952  0.0379
11114TIP3    H133278   6.937   0.768   0.557 -0.4329 -0.7785 -0.2339
11114TIP3    H233279   6.945   0.698   0.691 -0.0863  1.3474  0.8773
11115TIP3   OH233280   8.357   2.871   1.029 -0.6451  0.2798  0.3645
11115TIP3    H133281   8.411   2.934   1.077 -0.1697 -0.0435  0.2642
11115TIP3    H233282   8.298   2.925   0.976  0.0889  0.6518 -0.0942
11116TIP3   OH233283   1.041   4.792   5.015 -0.2193  0.4883  0.1313
11116TIP3    H133284   1.081   4.717   5.059  0.2978  0.6138 -0.1299
11116TIP3    H233285   0.983   4.830   5.082  0.1496  0.3542  0.5341
11117TIP3   OH233286   3.081   6.003   6.377  0.0602  0.1931 -0.1584
11117TIP3    H133287   3.069   5.938   6.308  1.4569 -1.7322  1.3437
11117TIP3    H233288   3.153   6.059   6.345  1.9685 -1.8170  0.4888
11118TIP3   OH233289   0.600   0.720   1.325 -0.1091 -0.2740  0.7498
11118TIP3    H133290   0.587   0.781   1.398 -1.1396  0.1584  0.2211
11118TIP3    H233291   0.617   0.777   1.250 -1.4331 -0.6070  0.1744
11119TIP3   OH233292   2.822   5.674   5.742 -0.3329  0.0303  0.2563
11119TIP3    H133293   2.860   5.726   5.813 -0.3342 -1.8628  1.6981
11119TIP3    H233294   2.744   5.635   5.780 -0.9890 -0.0792 -1.1635
11120TIP3   OH233295   0.742   1.756  -0.017 -0.4994 -0.1743  0.0561
11120TIP3    H133296   0.799   1.702   0.038 -0.4616  0.5199  0.7103
11120TIP3    H233297   0.703   1.820   0.044  1.2962  2.0654 -1.0539
11121TIP3   OH233298   6.646   6.825   0.415 -0.4461 -0.1747  0.1920
11121TIP3    H133299   6.721   6.814   0.356 -0.2485  0.8463  0.2514
11121TIP3    H233300   6.598   6.743   0.408 -2.0524  1.0206 -3.6652
11122TIP3   OH233301   4.069   6.722   1.263 -0.0607  0.8953  0.0242
11122TIP3    H133302   4.124   6.729   1.341 -0.8952 -1.3992  0.8422
11122TIP3    H233303   4.026   6.807   1.257  0.0133  1.1035  2.0632
11123TIP3   OH233304   4.429   5.247   6.138 -0.5329 -0.0122 -0.4194
11123TIP3    H133305   4.470   5.253   6.225 -1.5156 -2.0399  0.2217
11123TIP3    H233306   4.499   5.216   6.081 -0.0546  0.6869 -0.2208
11124TIP3   OH233307   2.265   4.971   6.041  0.0280 -0.2425  0.2551
11124TIP3    H133308   2.298   5.006   6.124  0.6821  0.5752 -0.3418
11124TIP3    H233309   2.341   4.972   5.983 -0.3036 -1.2901 -0.2057
11125TIP3   OH233310   2.483   2.914   6.144  0.1053  0.4411  0.0475
11125TIP3    H133311   2.411   2.872   6.098  0.1475  0.3033  0.1080
11125TIP3    H233312   2.544   2.843   6.163 -1.0476  0.0402  2.5117
11126TIP3   OH233313   6.791   0.635   0.835 -0.6317 -1.0221 -0.5466
11126TIP3    H133314   6.832   0.558   0.873  2.4260  0.5752 -0.4583
11126TIP3    H233315   6.748   0.679   0.908 -1.5865 -2.1365 -0.4351
11127TIP3   OH233316   3.081   2.326   5.035 -0.2513 -0.7023  0.1230
11127TIP3    H133317   3.120   2.391   5.095  1.2675 -0.3391 -1.2185
11127TIP3    H233318   3.076   2.371   4.951 -0.6208 -1.8359 -0.4687
11128TIP3   OH233319   7.166   5.658   0.840  0.7861  0.1427  0.2408
11128TIP3    H133320   7.164   5.700   0.755  0.0796  2.6706  1.4426
11128TIP3    H233321   7.258   5.657   0.865  0.8610  0.5122 -0.0266
11129TIP3   OH233322   0.627   0.272   1.846  0.1251 -0.8337  0.0447
11129TIP3    H133323   0.592   0.256   1.758 -0.2398 -0.8870  0.1994
11129TIP3    H233324   0.677   0.353   1.838  1.6884 -1.8350 -0.6727
11130TIP3   OH233325   4.017   5.128   5.028 -0.1787  0.2652  0.2271
11130TIP3    H133326   4.099   5.172   5.004 -0.2563 -0.3138 -1.1309
11130TIP3    H233327   4.045   5.045   5.067 -0.1203 -0.0832 -0.5477
11131TIP3   OH233328   2.583   4.539   6.139  0.3157 -0.1484 -0.9066
11131TIP3    H133329   2.533   4.481   6.196  0.5463  0.0860 -0.4636
11131TIP3    H233330   2.663   4.558   6.188 -0.1567  1.2619 -0.6530
11132TIP3   OH233331   1.932   4.366   6.511  0.0638 -0.0466 -0.0449
11132TIP3    H133332   1.988   4.376   6.588 -1.1197 -0.2619  0.8442
11132TIP3    H233333   1.971   4.425   6.446  2.0414 -1.1003  0.1465
11133TIP3   OH233334   4.480   4.142   5.806 -0.4992  0.2545  0.4116
11133TIP3    H133335   4.565   4.156   5.848 -0.4068  0.4724  0.1586
11133TIP3    H233336   4.443   4.065   5.850  0.2073 -0.3655 -0.0651
11134TIP3   OH233337   7.685   0.051   0.938  0.5197  0.4741  0.0828
11134TIP3    H133338   7.700   0.105   0.860  0.8032 -0.9612 -0.8816
11134TIP3    H233339   7.616   0.096   0.986  1.3868  2.1667 -0.2431
11135TIP3   OH233340   3.054   1.463   0.927  0.1695 -0.8750 -0.5349
11135TIP3    H133341   3.045   1.504   0.841 -0.6441  0.8185  0.3465
11135TIP3    H233342   2.966   1.433   0.948 -0.6567  2.7560  1.6651
11136TIP3   OH233343   3.998   4.551   6.834 -0.2751  0.2182 -0.0568
11136TIP3    H133344   3.958   4.610   6.771 -0.1369  0.1090 -0.2466
11136TIP3    H233345   3.945   4.471   6.830 -0.9553  0.6220  0.7885
11137TIP3   OH233346   2.073   6.314   6.626 -0.1362 -0.0488  0.4160
11137TIP3    H133347   2.072   6.378   6.697  1.6035  2.7808 -2.0025
11137TIP3    H233348   1.985   6.319   6.588 -1.8125 -3.1507  3.5762
11138TIP3   OH233349   2.082   7.564   6.681  0.0088  0.3038 -0.1255
11138TIP3    H133350   2.043   7.638   6.729 -1.5844 -0.7743  0.2814
11138TIP3    H233351   2.007   7.517   6.645  1.0022 -1.2153 -0.2387
11139TIP3   OH233352   3.105   6.745   6.254  0.4781 -0.1322 -0.0771
11139TIP3    H133353   3.023   6.697   6.245 -0.0465  0.5956  0.8017
11139TIP3    H233354   3.091   6.827   6.207 -0.2430  1.1485  2.2792
11140TIP3   OH233355   6.208   6.573   1.901 -0.2429  0.5596 -0.2028
11140TIP3    H133356   6.299   6.543   1.906 -0.4614  0.1071  1.4024
11140TIP3    H233357   6.156   6.493   1.912 -0.8346  0.9611 -0.0704
11141TIP3   OH233358   5.132   5.701   1.022  0.3620  0.0465  0.2630
11141TIP3    H133359   5.140   5.678   1.115 -1.1856 -0.0973  0.3605
11141TIP3    H233360   5.195   5.643   0.978  1.7242  0.7183  1.3018
11142TIP3   OH233361   0.800   2.416   0.185 -0.2012  0.2477  0.7143
11142TIP3    H133362   0.820   2.436   0.277 -2.3615 -0.3598  1.3575
11142TIP3    H233363   0.827   2.325   0.174 -0.3635  0.1781  0.8841
11143TIP3   OH233364   1.726   7.043   5.727 -0.4019 -0.2646 -0.0090
11143TIP3    H133365   1.720   6.949   5.711 -1.1901 -0.1545 -0.4055
11143TIP3    H233366   1.635   7.073   5.729 -0.1824  0.3762  0.8102
11144TIP3   OH233367   3.474   5.227   5.697 -0.4364 -0.5829 -0.4919
11144TIP3    H133368   3.467   5.303   5.754 -2.6984 -0.3262 -1.0736
11144TIP3    H233369   3.557   5.240   5.650  1.3921 -0.7232  2.5570
11145TIP3   OH233370   4.021   5.962   6.202 -0.3334  0.3287  0.1037
11145TIP3    H133371   4.079   5.886   6.214  0.4664  0.9452  0.1553
11145TIP3    H233372   4.061   6.031   6.254 -1.0476  0.8075  0.0289
11146TIP3   OH233373   3.585   5.394   5.307  0.1124  0.1059  0.1095
11146TIP3    H133374   3.625   5.382   5.393 -0.1371 -1.3268  0.0259
11146TIP3    H233375   3.656   5.382   5.245 -0.0635 -0.5637  0.0397
11147TIP3   OH233376   6.734   7.604   2.247  0.4900  0.2978  0.8382
11147TIP3    H133377   6.685   7.647   2.176  0.6114 -0.3919  0.3269
11147TIP3    H233378   6.687   7.628   2.327 -1.0123 -0.7976  0.3065
11148TIP3   OH233379   2.887   4.697   5.901  0.1822 -0.0369  0.0108
11148TIP3    H133380   2.925   4.664   5.819 -0.3199 -2.0512  0.5487
11148TIP3    H233381   2.962   4.722   5.954  0.5961 -0.4459 -0.3779
11149TIP3   OH233382   7.163   2.138   1.251  0.1290 -0.2510 -0.0047
11149TIP3    H133383   7.196   2.056   1.214  0.6419  0.6751 -1.6678
11149TIP3    H233384   7.100   2.111   1.318 -0.3239 -1.9855 -1.1061
11150TIP3   OH233385   4.557   5.142   6.372 -0.1641 -0.0498  0.0687
11150TIP3    H133386   4.522   5.066   6.324 -1.6909  1.1764 -0.8124
11150TIP3    H233387   4.552   5.116   6.464  2.5588 -2.3383 -0.3419
11151TIP3   OH233388   5.666   7.968   3.078 -0.7978  0.1681  0.1243
11151TIP3    H133389   5.601   7.978   3.147 -1.6389 -1.1347 -0.4575
11151TIP3    H233390   5.621   7.994   2.998  0.4418  2.5373  0.1611
11152TIP3   OH233391   0.656   0.485   0.150 -0.1123  0.0490  0.0024
11152TIP3    H133392   0.671   0.432   0.072 -0.3212  1.7934 -1.2663
11152TIP3    H233393   0.579   0.539   0.128 -0.5857  0.0836  1.6623
11153TIP3   OH233394   7.692   1.747   1.162  0.2489  0.4067 -0.1409
11153TIP3    H133395   7.624   1.679   1.163 -0.1114  0.7583 -0.4377
11153TIP3    H233396   7.696   1.777   1.253 -0.7773  1.1463 -0.3236
11154TIP3   OH233397   3.365   4.032   6.015  0.1786 -0.2085 -0.0549
11154TIP3    H133398   3.360   3.993   5.928  1.4950 -0.8273  0.1379
11154TIP3    H233399   3.455   4.016   6.044 -0.4811 -0.7445  1.7523
11155TIP3   OH233400   4.023   6.275   4.754  0.1140 -0.0613 -0.0261
11155TIP3    H133401   3.973   6.211   4.805  0.9210 -0.5513  0.1505
11155TIP3    H233402   4.113   6.245   4.758  0.5430  1.2269  0.2576
11156TIP3   OH233403   0.166   1.201   0.656 -0.2205  0.1906  0.1926
11156TIP3    H133404   0.212   1.143   0.596 -1.8956 -1.0896  0.0952
11156TIP3    H233405   0.235   1.247   0.703  1.1696 -1.8746  0.2593
11157TIP3   OH233406   4.463   4.951   5.972  0.1178 -0.3411 -0.2000
11157TIP3    H133407   4.382   5.002   5.968  0.5841  0.4150  0.0213
11157TIP3    H233408   4.446   4.876   5.915 -0.6905 -0.1198 -0.2638
11158TIP3   OH233409   3.067   6.058   6.713  0.2187 -0.1089  0.0848
11158TIP3    H133410   3.137   6.099   6.662  0.5937 -0.4669  0.3168
11158TIP3    H233411   3.027   5.996   6.653  0.2867 -0.1132  0.0438
11159TIP3   OH233412   3.229   3.486   6.674  0.5609 -0.4715  0.3921
11159TIP3    H133413   3.194   3.558   6.622 -0.0002 -0.4923  0.7410
11159TIP3    H233414   3.282   3.436   6.612  0.1716 -0.3032 -0.0815
11160TIP3   OH233415   7.495   1.911   0.797  0.2277  0.1175 -0.2829
11160TIP3    H133416   7.447   1.973   0.741  0.8715 -0.6142 -1.6715
11160TIP3    H233417   7.434   1.838   0.809  0.3877 -0.0925 -0.7229
11161TIP3   OH233418   2.471   4.538   5.156 -0.2628  0.2245  0.3457
11161TIP3    H133419   2.438   4.448   5.152 -1.9756  0.7940  1.2593
11161TIP3    H233420   2.438   4.579   5.076 -0.5457  0.3852  0.5428
11162TIP3   OH233421   1.587   7.381   6.308  0.0609  0.5798  0.1193
11162TIP3    H133422   1.656   7.398   6.243 -1.1745 -0.6439 -1.5543
11162TIP3    H233423   1.635   7.368   6.390  1.6515  2.2980 -0.4823
11163TIP3   OH233424   3.898   5.054   6.889  0.5553 -0.4235  0.5454
11163TIP3    H133425   3.865   5.050   6.799  2.3641 -2.0260 -0.0783
11163TIP3    H233426   3.859   4.979   6.933  1.1512 -0.7226  0.5703
11164TIP3   OH233427   4.166   5.651   5.045  0.1324 -1.0371  0.3394
11164TIP3    H133428   4.124   5.598   5.113  0.1531 -1.8360 -0.2717
11164TIP3    H233429   4.260   5.644   5.064  0.1619 -1.6088 -0.0355
11165TIP3   OH233430   0.853   1.262   0.370 -0.2161  0.1990  0.2522
11165TIP3    H133431   0.785   1.259   0.303 -1.5291 -0.6586  1.5978
11165TIP3    H233432   0.934   1.240   0.323 -1.0827 -0.2282 -1.0702
11166TIP3   OH233433   3.841   4.966   5.845 -0.2698 -0.1360  0.3137
11166TIP3    H133434   3.850   4.882   5.890  2.3173  0.0822  0.2683
11166TIP3    H233435   3.866   5.031   5.911 -0.6900  0.4866 -0.1359
11167TIP3   OH233436   3.243   5.812   6.479  0.2792 -0.4845 -0.1960
11167TIP3    H133437   3.181   5.871   6.436 -0.3780 -0.8069  0.3083
11167TIP3    H233438   3.216   5.725   6.451  0.1841 -0.6625  0.4449
11168TIP3   OH233439   2.724   7.068   6.345 -0.0656 -0.3400  0.5684
11168TIP3    H133440   2.727   6.982   6.304  1.6618  0.4477 -1.0941
11168TIP3    H233441   2.634   7.099   6.331 -0.6250 -1.7606  0.9758
11169TIP3   OH233442   7.599   2.496   1.025  0.2661 -0.1078  0.2832
11169TIP3    H133443   7.673   2.504   1.086  1.2168 -2.6591 -0.4972
11169TIP3    H233444   7.540   2.433   1.067  1.0889 -2.1442 -1.5368
11170TIP3   OH233445   2.559   2.779   6.732  0.1495 -0.6144 -0.4076
11170TIP3    H133446   2.608   2.847   6.778 -1.9014  1.5498 -1.2678
11170TIP3    H233447   2.561   2.806   6.640 -0.4990 -1.8443 -0.7969
11171TIP3   OH233448   7.941   1.483   1.465 -0.1463 -0.0174  0.0327
11171TIP3    H133449   7.975   1.571   1.448  3.1308 -0.5483  3.1703
11171TIP3    H233450   8.004   1.425   1.422 -0.9741 -0.8699 -0.0229
11172TIP3   OH233451   6.201   6.697   0.359  0.3685 -0.4814 -0.3048
11172TIP3    H133452   6.274   6.635   0.357 -0.7182 -1.7800 -0.6359
11172TIP3    H233453   6.150   6.671   0.436  0.5857  0.7977  0.2695
11173TIP3   OH233454   0.438   0.858   1.699 -0.2152  0.2158 -0.2266
11173TIP3    H133455   0.405   0.772   1.726  1.0859  0.1851  1.3675
11173TIP3    H233456   0.522   0.839   1.658 -1.2131  0.4839 -2.4634
11174TIP3   OH233457   0.732   0.549   1.781  0.2023 -0.8107  0.2464
11174TIP3    H133458   0.642   0.575   1.799  0.4643 -1.3903  2.5125
11174TIP3    H233459   0.784   0.627   1.798  0.2936 -0.9191  0.4620
11175TIP3   OH233460   3.333   4.796   5.847 -0.4851  0.4795  0.1174
11175TIP3    H133461   3.308   4.741   5.773 -0.8988 -1.1484  1.4308
11175TIP3    H233462   3.417   4.761   5.876 -0.7893  0.4801  1.0165
11176TIP3   OH233463   1.813   4.110   5.387  0.6364  0.4316  0.3103
11176TIP3    H133464   1.740   4.170   5.374  1.5247  0.9094 -2.8092
11176TIP3    H233465   1.792   4.035   5.332  2.6058  0.6884 -0.8281
11177TIP3   OH233466   3.267   5.081   5.863 -0.4000  0.2003  0.1735
11177TIP3    H133467   3.271   4.986   5.851 -0.0547 -0.0120  1.7967
11177TIP3    H233468   3.341   5.115   5.812 -1.0453 -0.3033 -1.1269
11178TIP3   OH233469   1.698   1.709   0.141  0.2914  0.5983  0.5916
11178TIP3    H133470   1.766   1.683   0.203  0.1086 -0.6513  0.2757
11178TIP3    H233471   1.746   1.738   0.063  0.5061  1.7136  1.1237
11179TIP3   OH233472   2.264   6.554   4.406  0.0683 -0.6507  0.0424
11179TIP3    H133473   2.168   6.551   4.403  0.0995 -0.3474 -1.8198
11179TIP3    H233474   2.290   6.462   4.411 -0.3011 -0.7671 -0.1132
11180TIP3   OH233475   4.314   4.389   6.137 -0.6135 -0.3981  0.0282
11180TIP3    H133476   4.338   4.474   6.173  0.8168 -1.2149  1.0974
11180TIP3    H233477   4.347   4.390   6.047 -1.3754  0.4904 -0.2413
11181TIP3   OH233478   1.416   0.176   2.090 -0.4723 -0.3823  0.2443
11181TIP3    H133479   1.425   0.095   2.039 -0.2322 -1.3794  1.8431
11181TIP3    H233480   1.506   0.201   2.111 -0.6209 -0.7253  1.3234
11182TIP3   OH233481   0.303   0.380   0.396  0.2524 -0.3524  0.0662
11182TIP3    H133482   0.347   0.304   0.358  0.6189  0.3139 -0.8689
11182TIP3    H233483   0.309   0.448   0.328  0.7277  0.7917  1.2386
11183TIP3   OH233484   4.575   7.759   0.566  0.1398  0.5817  0.2808
11183TIP3    H133485   4.652   7.705   0.543  0.2699 -0.0020  1.9863
11183TIP3    H233486   4.567   7.748   0.660 -2.1235  0.5635  0.0961
11184TIP3   OH233487   5.127   7.067   0.052  0.2397  0.2362 -0.7525
11184TIP3    H133488   5.169   7.119  -0.016  1.2904  0.1099 -0.2050
11184TIP3    H233489   5.083   6.996   0.006  0.4572  0.4880 -1.3403
11185TIP3   OH233490   4.529   6.508   1.485  0.0861  1.2333  0.1030
11185TIP3    H133491   4.520   6.469   1.572  0.1072 -1.1834 -0.9462
11185TIP3    H233492   4.616   6.548   1.487  0.3881  0.5732  0.9691
11186TIP3   OH233493   4.625   6.616   5.380 -0.7987 -0.0422 -0.6089
11186TIP3    H133494   4.646   6.524   5.397 -1.7481 -0.6072 -2.4588
11186TIP3    H233495   4.551   6.635   5.439  2.1818  0.8752  3.0891
11187TIP3   OH233496   2.510   3.600   5.680  0.3035  0.4538  0.1259
11187TIP3    H133497   2.517   3.569   5.589 -2.0603 -0.3654  0.2009
11187TIP3    H233498   2.546   3.528   5.732 -1.8373 -0.6774  0.0651
11188TIP3   OH233499   6.384   7.070   0.011  0.0317 -0.0681  0.0021
11188TIP3    H133500   6.450   7.121   0.058  0.7648 -0.7351 -0.3084
11188TIP3    H233501   6.359   7.001   0.073 -0.1332 -0.0173 -0.0071
11189TIP3   OH233502   2.456   4.798   6.242  0.2687 -0.3866  0.2656
11189TIP3    H133503   2.458   4.892   6.260  1.2283 -0.5464  0.9991
11189TIP3    H233504   2.548   4.772   6.237  0.0277 -1.5083  1.2561
11190TIP3   OH233505   6.233   7.157   0.724 -0.1959  0.3043  0.1793
11190TIP3    H133506   6.280   7.124   0.647  1.0045  0.0523  1.0092
11190TIP3    H233507   6.235   7.084   0.786 -0.9176  0.6024  0.5531
11191TIP3   OH233508   3.401   4.251   5.096 -0.3889  0.5340 -0.1461
11191TIP3    H133509   3.412   4.332   5.146 -0.8259  0.5626 -0.0901
11191TIP3    H233510   3.452   4.264   5.016  0.5207  0.3872  0.4087
11192TIP3   OH233511   3.981   7.311   6.207 -0.3306 -0.1317 -0.8062
11192TIP3    H133512   3.905   7.363   6.233  0.4548  0.1233  1.0903
11192TIP3    H233513   4.041   7.375   6.168  0.0720  0.1804  0.2968
11193TIP3   OH233514   5.435   7.619   0.216 -0.8426 -0.3542  0.2991
11193TIP3    H133515   5.388   7.632   0.298  1.2254 -1.3264  1.6886
11193TIP3    H233516   5.374   7.570   0.161 -2.8042  1.5992  0.6991
11194TIP3   OH233517   3.515   6.296   6.792 -0.3632  0.2586  0.1485
11194TIP3    H133518   3.588   6.354   6.812  0.6258 -1.0496  0.3646
11194TIP3    H233519   3.439   6.354   6.790  0.7034  1.6610 -0.3181
11195TIP3   OH233520   2.486   2.583   6.902  0.0177 -0.5084 -0.5798
11195TIP3    H133521   2.504   2.650   6.835 -0.9197  2.1552  1.7130
11195TIP3    H233522   2.519   2.622   6.983 -2.6334 -1.8462  1.1967
11196TIP3   OH233523   4.461   4.123   6.776 -0.0216 -0.1637  0.5261
11196TIP3    H133524   4.505   4.075   6.707 -2.2434  1.5119 -2.1714
11196TIP3    H233525   4.385   4.069   6.799  0.3827 -0.4331  1.2458
11197TIP3   OH233526   1.407   0.555   0.062 -0.0596  0.4131 -0.1153
11197TIP3    H133527   1.316   0.577   0.039  0.1122  1.3410  0.0882
11197TIP3    H233528   1.442   0.635   0.100  1.4231  0.6138 -1.8840
11198TIP3   OH233529   2.623   6.008   5.742 -0.0971 -0.2586  0.2589
11198TIP3    H133530   2.709   5.989   5.704 -1.1840  0.5758 -2.8059
11198TIP3    H233531   2.569   5.934   5.713 -0.5602 -0.4633  1.6519
11199TIP3   OH233532   2.293   4.072   6.295  0.2142 -0.3700 -0.0583
11199TIP3    H133533   2.264   4.046   6.383 -0.0133 -0.7114 -0.2309
11199TIP3    H233534   2.213   4.068   6.242  0.2258  0.4336 -0.1491
11200TIP3   OH233535   1.942   5.993   5.870  0.5618 -0.0880 -0.3320
11200TIP3    H133536   1.915   5.910   5.832 -0.6499  0.9394 -1.7465
11200TIP3    H233537   2.003   6.030   5.807 -0.6418  1.1358 -0.7818
11201TIP3   OH233538   3.377   6.287   4.889 -0.5661 -0.3829 -0.1548
11201TIP3    H133539   3.443   6.310   4.955 -2.9257  2.4636  1.3431
11201TIP3    H233540   3.297   6.276   4.939 -1.9974 -0.1702 -2.3421
11202TIP3   OH233541   0.835   2.645   4.682 -0.1804  0.6904 -0.6996
11202TIP3    H133542   0.823   2.657   4.588 -0.5232 -3.5114 -1.2713
11202TIP3    H233543   0.756   2.600   4.711  1.2809 -0.8892  0.9768
11203TIP3   OH233544   3.053   3.405   4.736 -0.0724  0.2271 -0.2541
11203TIP3    H133545   2.993   3.354   4.791 -1.2540 -0.7320 -2.3515
11203TIP3    H233546   3.034   3.496   4.759 -1.0328 -0.1289  0.4224
11204TIP3   OH233547   1.624   7.516   5.905 -0.0322  0.0148 -0.0750
11204TIP3    H133548   1.665   7.603   5.908 -0.8115  0.4022 -0.5709
11204TIP3    H233549   1.674   7.464   5.968  0.2128  0.9221  0.4910
11205TIP3   OH233550   2.248   5.581   5.307 -0.4432  0.0979  0.2471
11205TIP3    H133551   2.222   5.527   5.382  1.6514  0.0128  0.9563
11205TIP3    H233552   2.253   5.520   5.234 -0.0995 -0.3035  0.5999
11206TIP3   OH233553   3.123   4.155   6.929 -0.2760 -0.2528  0.0892
11206TIP3    H133554   3.146   4.113   6.847 -3.1848 -0.9300 -0.4241
11206TIP3    H233555   3.108   4.247   6.906  0.8772 -0.0213  0.2434
11207TIP3   OH233556   4.167   6.150   6.792 -0.0852  0.1687 -0.4394
11207TIP3    H133557   4.095   6.090   6.811  0.3345  0.0015  0.6358
11207TIP3    H233558   4.246   6.095   6.795  0.0899  0.3086 -1.7991
11208TIP3   OH233559   1.063   2.865   6.052 -0.1425  0.6172 -0.2459
11208TIP3    H133560   1.138   2.898   6.002  0.2386  1.6906  0.9940
11208TIP3    H233561   1.088   2.879   6.143 -0.9836 -0.9605  0.2375
11209TIP3   OH233562   3.964   5.434   5.641  0.4731  0.2518  0.9761
11209TIP3    H133563   3.939   5.526   5.628  0.2628  0.2046  1.0513
11209TIP3    H233564   3.979   5.426   5.735 -0.0983  0.0591  1.0525
11210TIP3   OH233565   0.780   0.109   0.592  0.1554  0.3255 -0.0420
11210TIP3    H133566   0.764   0.014   0.596  0.1909  0.2798 -1.0023
11210TIP3    H233567   0.712   0.143   0.534 -0.4916  1.0440  1.1032
11211TIP3   OH233568   1.447   3.024   6.024 -0.4502 -0.1351 -0.1968
11211TIP3    H133569   1.412   2.994   6.108 -0.0025  1.4322  0.5797
11211TIP3    H233570   1.482   3.112   6.043 -2.5994  1.2997 -2.5870
11212TIP3   OH233571   4.601   7.546   0.034  0.1156 -0.1066 -0.0914
11212TIP3    H133572   4.624   7.606   0.106 -0.4943  0.6186 -0.4944
11212TIP3    H233573   4.564   7.603  -0.033  1.0022 -0.7301 -1.1309
11213TIP3   OH233574   1.706   7.081   6.138  0.2213  0.2645  0.0202
11213TIP3    H133575   1.643   7.119   6.078  0.2205  1.9311  1.0553
11213TIP3    H233576   1.791   7.097   6.098  0.1156 -0.2766 -0.4305
11214TIP3   OH233577   0.796   2.097   0.905 -0.1024  0.0106  0.4724
11214TIP3    H133578   0.745   2.021   0.879  1.3235 -0.1805 -1.8703
11214TIP3    H233579   0.731   2.166   0.920 -1.0950 -0.3346 -2.0857
11215TIP3   OH233580   3.351   5.946   5.915 -0.2599  0.3282  0.2628
11215TIP3    H133581   3.311   5.952   5.828 -1.2957  1.2570  0.7933
11215TIP3    H233582   3.440   5.981   5.903 -0.5254  0.8006 -0.3303
11216TIP3   OH233583   3.785   6.760   6.532 -0.2721  0.1329 -0.4005
11216TIP3    H133584   3.764   6.699   6.461 -0.7767  0.3039 -0.4015
11216TIP3    H233585   3.711   6.752   6.593 -0.2168  0.5505 -0.2754
11217TIP3   OH233586   0.755   4.552   4.218 -0.3603 -0.3073  0.2826
11217TIP3    H133587   0.678   4.572   4.270 -0.0426  0.4189  0.4815
11217TIP3    H233588   0.777   4.462   4.240 -0.8331 -0.3343  0.6347
11218TIP3   OH233589   3.275   7.970   5.095 -0.0656  0.0656  0.2227
11218TIP3    H133590   3.294   7.887   5.138  0.3024 -0.7553 -1.5066
11218TIP3    H233591   3.188   7.995   5.127  0.3117 -0.3986  1.6244
11219TIP3   OH233592   5.598   4.354   5.057 -0.1943 -0.1229 -0.6578
11219TIP3    H133593   5.530   4.364   5.123  0.9484 -1.0280  0.6978
11219TIP3    H233594   5.573   4.275   5.008  0.2108 -0.8456  0.2756
11220TIP3   OH233595   2.825   4.598   6.307 -0.2664 -0.2326 -0.3768
11220TIP3    H133596   2.904   4.571   6.260  0.7525 -1.5857  2.0350
11220TIP3    H233597   2.786   4.517   6.338 -1.8023  0.5361 -0.2568
11221TIP3   OH233598   2.641   3.398   5.827 -0.2956 -0.4899  0.2355
11221TIP3    H133599   2.637   3.310   5.863  1.2392 -0.1341  1.3509
11221TIP3    H233600   2.722   3.399   5.775  0.7902  0.8200  1.8755
11222TIP3   OH233601   0.773   5.813   6.810  0.2784 -0.3962  0.0201
11222TIP3    H133602   0.720   5.856   6.742  0.4391 -0.2775 -0.0305
11222TIP3    H233603   0.805   5.733   6.768 -1.7041 -1.6377  0.7584
11223TIP3   OH233604   0.933   5.500   6.040  0.0734  0.2044 -1.1742
11223TIP3    H133605   0.883   5.521   6.119  0.6940  1.5708 -1.1358
11223TIP3    H233606   0.999   5.437   6.069 -1.0157 -0.8907 -1.0357
11224TIP3   OH233607   7.857   0.867   0.654 -0.6121  0.0942  0.1332
11224TIP3    H133608   7.932   0.845   0.599  0.1433  1.5904  0.5337
11224TIP3    H233609   7.800   0.919   0.598 -0.5449  0.3796  0.3286
11225TIP3   OH233610   3.467   4.578   6.261 -0.2493  0.6470  0.2643
11225TIP3    H133611   3.460   4.482   6.264 -1.8238  0.7634  0.9377
11225TIP3    H233612   3.557   4.595   6.234  0.6864 -1.0002  2.2472
11226TIP3   OH233613   5.586   6.500   0.728 -0.6426 -0.1259  0.0810
11226TIP3    H133614   5.569   6.542   0.812 -0.9528 -1.9168  0.9290
11226TIP3    H233615   5.529   6.424   0.726 -1.4772  0.4990 -2.2580
11227TIP3   OH233616   1.113   5.396   4.709  0.3061  0.2170 -0.0842
11227TIP3    H133617   1.194   5.345   4.701  1.3401  2.0121 -1.6627
11227TIP3    H233618   1.135   5.482   4.671 -1.9289  1.2071  0.7688
11228TIP3   OH233619   1.892   5.748   5.719  0.6590 -0.1751 -0.0264
11228TIP3    H133620   1.815   5.690   5.716 -0.7474  1.6457  0.0104
11228TIP3    H233621   1.904   5.777   5.629 -1.7506  3.3727  0.6730
11229TIP3   OH233622   6.046   7.702   1.154 -0.4543 -0.2994  0.2879
11229TIP3    H133623   6.078   7.786   1.189  0.2357 -0.1736 -0.6260
11229TIP3    H233624   6.017   7.724   1.065 -0.4589 -0.9916  0.1216
11230TIP3   OH233625   7.598   0.247   0.250 -0.4955  0.6442  0.5870
11230TIP3    H133626   7.591   0.201   0.166  0.3003  1.2369  0.1919
11230TIP3    H233627   7.607   0.339   0.227 -2.4495  1.0700  1.3949
11231TIP3   OH233628   1.951   2.679   6.423  0.7527  0.0120 -0.0108
11231TIP3    H133629   1.916   2.590   6.432 -0.1573  0.4375  0.7294
11231TIP3    H233630   2.046   2.667   6.421  0.6036 -1.0851 -1.1898
11232TIP3   OH233631   1.295   0.927   0.657 -0.3025 -0.4020  0.5766
11232TIP3    H133632   1.242   0.849   0.671 -1.4189  0.5986  2.0335
11232TIP3    H233633   1.296   0.972   0.741  1.1571  0.6500  0.0233
11233TIP3   OH233634   2.636   2.479   6.268  0.4486 -0.6647 -0.2394
11233TIP3    H133635   2.562   2.502   6.212  1.3220  0.2635 -1.0403
11233TIP3    H233636   2.617   2.390   6.298 -0.5150 -0.7957 -1.1966
11234TIP3   OH233637   0.971   1.185   1.390 -0.1759  0.0117  0.8824
11234TIP3    H133638   1.002   1.182   1.480  1.1670 -0.4746  0.4111
11234TIP3    H233639   1.012   1.262   1.352  1.0305 -1.0107  0.0626
11235TIP3   OH233640   3.586   4.705   6.743 -0.3529  0.2633  0.0101
11235TIP3    H133641   3.639   4.658   6.679  0.1955 -1.0604  1.4184
11235TIP3    H233642   3.527   4.758   6.690  0.2036 -0.6872 -1.6004
11236TIP3   OH233643   0.232   5.955   5.155 -0.0398  0.1181  0.2393
11236TIP3    H133644   0.299   5.991   5.096  1.2906 -0.8335  1.1353
11236TIP3    H233645   0.206   5.873   5.114  1.5231 -0.9757  1.3956
11237TIP3   OH233646   0.480   0.983   0.639 -0.1988  0.3704  0.0877
11237TIP3    H133647   0.512   0.953   0.725 -0.9918  2.3464  1.1031
11237TIP3    H233648   0.556   1.023   0.598 -0.1534  0.6265  0.4235
11238TIP3   OH233649   5.123   5.672   6.146 -0.6675  0.3579 -0.6219
11238TIP3    H133650   5.108   5.744   6.207 -0.4611  0.2664 -0.4626
11238TIP3    H233651   5.043   5.620   6.150 -1.0544  0.8947 -1.1744
11239TIP3   OH233652   7.203   0.523   0.111  0.4588 -0.3147  0.4122
11239TIP3    H133653   7.170   0.435   0.132  1.1856 -0.9789 -1.1774
11239TIP3    H233654   7.142   0.582   0.155 -1.8772 -1.5459 -1.0420
11240TIP3   OH233655   2.178   4.356   5.189  0.3551  0.1568 -0.2174
11240TIP3    H133656   2.117   4.283   5.176  1.9439 -0.9202 -1.9738
11240TIP3    H233657   2.263   4.314   5.200  0.9282  1.6764  1.2474
11241TIP3   OH233658   8.028   2.125   1.347  0.2937  0.5528  0.0640
11241TIP3    H133659   8.032   2.033   1.319  0.6092  0.5045  0.2647
11241TIP3    H233660   7.941   2.135   1.384  1.2239 -0.4078  2.6196
11242TIP3   OH233661   3.533   6.088   6.154  0.4059 -0.3355  0.3022
11242TIP3    H133662   3.591   6.074   6.079  1.0937 -0.5845  0.8781
11242TIP3    H233663   3.445   6.077   6.118  0.7831 -2.1169 -0.1338
11243TIP3   OH233664   2.938   4.629   4.858 -0.0339  0.1109  0.5988
11243TIP3    H133665   2.993   4.641   4.780 -2.5675  1.3034 -1.0707
11243TIP3    H233666   2.907   4.538   4.850  0.3493 -0.0244  0.6412
11244TIP3   OH233667   6.880   7.878   0.754  0.1830  0.1057 -0.2765
11244TIP3    H133668   6.799   7.842   0.792 -0.3940  0.9439 -0.7020
11244TIP3    H233669   6.942   7.880   0.827 -0.0712 -0.8681 -0.0289
11245TIP3   OH233670   5.095   6.509   5.693  0.4050  0.3285 -0.0302
11245TIP3    H133671   5.167   6.535   5.636 -0.5389  1.3347 -0.7964
11245TIP3    H233672   5.126   6.430   5.738  1.6171  0.2232 -1.0413
11246TIP3   OH233673   8.146   0.185   0.367  0.3146 -0.2543  0.8857
11246TIP3    H133674   8.136   0.116   0.301  0.2856 -0.8486  1.5049
11246TIP3    H233675   8.062   0.232   0.366  0.3670 -0.1752  0.4033
11247TIP3   OH233676   3.428   5.634   6.632 -0.1725  0.6260  0.0687
11247TIP3    H133677   3.366   5.620   6.561 -0.2973  0.0146  0.2937
11247TIP3    H233678   3.463   5.722   6.617 -0.8901  0.8652 -0.2111
11248TIP3   OH233679   1.270   2.368   1.437 -0.3802 -0.3746 -0.2349
11248TIP3    H133680   1.350   2.374   1.385  0.0801  2.0486  0.6887
11248TIP3    H233681   1.279   2.287   1.487  1.4430 -0.1696 -0.2270
11249TIP3   OH233682   1.153   7.087   6.845  0.3155 -0.0328  0.4555
11249TIP3    H133683   1.198   7.092   6.929  1.4230 -1.0610 -0.0572
11249TIP3    H233684   1.191   7.011   6.801  2.7575  2.7550 -2.6340
11250TIP3   OH233685   2.409   4.224   5.168 -0.2981 -0.0239  0.0620
11250TIP3    H133686   2.469   4.203   5.240 -0.8005 -1.1571  0.1657
11250TIP3    H233687   2.460   4.209   5.089  0.3506  1.5140  0.1852
11251TIP3   OH233688   1.907   7.106   5.928  0.2653  0.0984  0.3427
11251TIP3    H133689   1.848   7.081   5.857  2.3811 -3.4198 -0.3484
11251TIP3    H233690   1.977   7.155   5.884  0.0256  0.5510  0.4697
11252TIP3   OH233691   7.905   0.810   2.435 -0.6126  0.8262 -0.4346
11252TIP3    H133692   7.905   0.767   2.349  0.6492  1.1767 -0.6186
11252TIP3    H233693   7.837   0.764   2.484 -0.2184 -0.4815 -1.0833
11253TIP3   OH233694   8.289   0.630   0.051 -0.3129 -0.3566 -0.6895
11253TIP3    H133695   8.248   0.592  -0.026 -2.1879 -2.2622  1.1616
11253TIP3    H233696   8.290   0.558   0.115 -0.5175  1.6803  1.6685
11254TIP3   OH233697   2.150   4.649   5.192 -0.0931  0.3033  0.3206
11254TIP3    H133698   2.164   4.560   5.224 -2.6730 -0.4359 -0.5325
11254TIP3    H233699   2.209   4.657   5.117  0.0194 -0.7385  0.3017
11255TIP3   OH233700   4.013   5.074   6.399  0.0951 -0.0640  0.1084
11255TIP3    H133701   3.948   5.051   6.333  0.9840  0.2522 -0.8856
11255TIP3    H233702   4.030   4.992   6.445  0.3712 -0.5646 -0.8615
11256TIP3   OH233703   3.483   4.966   6.640 -0.4230  0.4714  0.3052
11256TIP3    H133704   3.526   5.023   6.704  0.0384  1.4233 -0.8093
11256TIP3    H233705   3.449   5.027   6.574 -1.5811 -0.4308  0.0513
11257TIP3   OH233706   2.230   4.477   6.349  0.3280  0.0894  0.8462
11257TIP3    H133707   2.162   4.512   6.292  0.4740  0.7228  1.0516
11257TIP3    H233708   2.275   4.411   6.296 -0.4206 -0.3078  0.7012
11258TIP3   OH233709   5.932   7.128   1.130  0.1351 -0.2430 -0.6730
11258TIP3    H133710   5.927   7.039   1.094 -0.5319 -0.9018  0.9884
11258TIP3    H233711   6.014   7.163   1.097  1.7667 -2.4865  0.8935
11259TIP3   OH233712   3.882   4.485   5.493 -0.4769 -0.4944  0.2547
11259TIP3    H133713   3.886   4.476   5.588  2.3942 -3.1824 -0.0363
11259TIP3    H233714   3.789   4.494   5.474 -1.6043 -4.8235  2.9884
11260TIP3   OH233715   4.159   5.258   6.179  0.5552 -0.1010 -0.0162
11260TIP3    H133716   4.154   5.317   6.255  0.2241  0.7864 -0.7267
11260TIP3    H233717   4.253   5.248   6.163  0.6681 -1.1794  1.1873
11261TIP3   OH233718   7.288   1.945   1.693  0.2780 -0.2614 -0.0694
11261TIP3    H133719   7.350   1.882   1.732  1.7712  1.7385  0.9078
11261TIP3    H233720   7.276   1.915   1.603 -2.2557 -4.2856  1.4673
11262TIP3   OH233721   0.928   1.952   0.286  0.0726 -0.5399 -0.3125
11262TIP3    H133722   0.874   1.872   0.282 -0.0201 -0.4349 -1.1559
11262TIP3    H233723   1.013   1.921   0.317  0.0373 -0.9720 -0.6383
11263TIP3   OH233724   6.426   6.809   1.863  0.2257 -0.3404  0.0280
11263TIP3    H133725   6.389   6.733   1.817 -0.2706  1.1178 -2.0810
11263TIP3    H233726   6.519   6.788   1.873  0.4110 -0.5975 -1.9453
11264TIP3   OH233727   2.529   0.760   0.764  0.6014 -0.5201  0.7271
11264TIP3    H133728   2.518   0.852   0.787  2.3161 -0.1105  0.0001
11264TIP3    H233729   2.444   0.720   0.784 -0.9718  1.6861 -1.2082
11265TIP3   OH233730   7.782   7.555   1.371 -0.2873  0.0189 -0.0945
11265TIP3    H133731   7.738   7.640   1.377  1.2927  0.8251  0.6228
11265TIP3    H233732   7.809   7.536   1.461  1.8915  0.1734 -0.6649
11266TIP3   OH233733   4.920   7.577   2.572 -0.1254  0.1856 -0.2064
11266TIP3    H133734   4.840   7.529   2.596 -1.6205  3.2938  1.3043
11266TIP3    H233735   4.978   7.562   2.647 -0.5592  0.6298  0.2280
11267TIP3   OH233736   2.764   7.539   2.120 -0.4342  0.1878  0.1944
11267TIP3    H133737   2.847   7.492   2.126 -0.3059  0.2837 -0.7178
11267TIP3    H233738   2.729   7.537   2.209 -0.4160 -1.5899  0.1812
11268TIP3   OH233739   3.687   7.070   1.468 -0.2333  0.3338  0.2783
11268TIP3    H133740   3.593   7.088   1.474 -0.1802  1.1655 -1.1256
11268TIP3    H233741   3.692   6.976   1.450 -0.8716  0.5239 -0.9824
11269TIP3   OH233742   7.161   7.662   1.824 -0.1813 -0.1247  0.4248
11269TIP3    H133743   7.167   7.589   1.763 -0.5334  2.3208 -2.6918
11269TIP3    H233744   7.246   7.705   1.820 -1.0482  1.5932 -0.4430
11270TIP3   OH233745   3.020   7.133   6.305 -0.2471 -0.3127 -0.2198
11270TIP3    H133746   2.926   7.136   6.287 -0.4792 -1.3014  0.7332
11270TIP3    H233747   3.058   7.092   6.228 -0.5769  0.1796 -0.6520
11271TIP3   OH233748   7.564   2.289   0.730  0.0577 -0.4299 -0.0134
11271TIP3    H133749   7.613   2.368   0.756  1.9067 -1.4305 -0.3772
11271TIP3    H233750   7.524   2.258   0.812  1.1644 -0.3587  0.5704
11272TIP3   OH233751   4.513   7.447   0.604  0.1891 -0.2737 -0.0734
11272TIP3    H133752   4.560   7.365   0.616  0.0419 -0.2507  0.7524
11272TIP3    H233753   4.445   7.427   0.539  0.0737 -0.8414  0.2164
11273TIP3   OH233754   2.549   6.166   5.950  0.2030  0.2926 -0.5138
11273TIP3    H133755   2.587   6.125   5.872  2.6343  0.7710  0.3680
11273TIP3    H233756   2.612   6.235   5.973  0.2388 -0.7452  2.6923
11274TIP3   OH233757   5.018   5.279   6.204  0.2172  0.4267  0.3608
11274TIP3    H133758   5.003   5.335   6.128 -1.6315 -0.0742  0.3301
11274TIP3    H233759   4.937   5.287   6.256 -0.0168 -2.0536  0.4356
11275TIP3   OH233760   1.433   5.718   5.657 -0.3906 -0.6663  0.4827
11275TIP3    H133761   1.410   5.765   5.577  0.8286 -0.1241  0.4347
11275TIP3    H233762   1.350   5.701   5.701 -0.9269  0.4657 -0.0974
11276TIP3   OH233763   2.011   3.119   1.139 -0.0075  0.5877 -0.0668
11276TIP3    H133764   2.071   3.167   1.081 -0.3856  0.4030 -0.6082
11276TIP3    H233765   1.926   3.122   1.094 -0.1611 -0.0980  0.1693
11277TIP3   OH233766   4.372   5.946   6.438  0.0955  0.1144  0.4278
11277TIP3    H133767   4.354   5.896   6.518  1.5595 -0.7269  0.2426
11277TIP3    H233768   4.423   6.021   6.467  0.0936  0.1421  0.3600
11278TIP3   OH233769   3.335   1.905   5.478  0.2420  0.3628 -0.2449
11278TIP3    H133770   3.424   1.877   5.502 -0.4486 -1.9318 -0.2498
11278TIP3    H233771   3.331   1.891   5.383 -0.7555 -1.4449  0.0470
11279TIP3   OH233772   7.696   7.625   0.489 -0.0704  0.1426  0.3013
11279TIP3    H133773   7.710   7.717   0.466  0.7755 -0.1851 -0.5467
11279TIP3    H233774   7.711   7.621   0.583  1.2948  0.6265  0.1148
11280TIP3   OH233775   2.127   4.079   6.653 -0.2130 -0.2827  0.3615
11280TIP3    H133776   2.213   4.097   6.691 -0.2009 -1.7303  1.0381
11280TIP3    H233777   2.136   3.993   6.612 -1.4886 -0.6703  0.8742
11281TIP3   OH233778   3.838   4.566   4.803 -0.1396  0.2730 -0.0478
11281TIP3    H133779   3.900   4.544   4.734  0.8756  0.6141  0.7351
11281TIP3    H233780   3.788   4.641   4.769  0.3876  0.4687 -0.3878
11282TIP3   OH233781   4.840   4.490   4.581  0.5631 -0.2286 -0.0565
11282TIP3    H133782   4.883   4.412   4.545  2.0082  1.0071 -1.0852
11282TIP3    H233783   4.778   4.516   4.513 -0.3881 -0.8394  0.5645
11283TIP3   OH233784   3.741   4.679   5.137  0.2567  0.1355 -0.5863
11283TIP3    H133785   3.689   4.754   5.167 -0.1014 -0.8406  1.2570
11283TIP3    H233786   3.713   4.666   5.046 -1.3690  0.7932 -0.1932
11284TIP3   OH233787   8.278   1.041   1.536  0.3265  0.1950 -0.1373
11284TIP3    H133788   8.211   1.102   1.507 -1.2096 -1.0716  0.6785
11284TIP3    H233789   8.343   1.096   1.581 -0.6830  1.2941 -0.0029
11285TIP3   OH233790   3.527   4.089   6.726  0.2560  0.1040 -0.4919
11285TIP3    H133791   3.505   4.045   6.644 -2.1571  0.4661 -0.0797
11285TIP3    H233792   3.516   4.022   6.793  0.9414  0.1583 -0.3216
11286TIP3   OH233793   5.881   7.126   0.764  0.0837 -0.0412  0.4826
11286TIP3    H133794   5.841   7.212   0.777 -3.5252 -1.3136 -1.6824
11286TIP3    H233795   5.971   7.145   0.738 -0.4097  3.0482  0.9047
11287TIP3   OH233796   3.907   6.025   5.338  0.3061  0.0125  0.0457
11287TIP3    H133797   3.992   6.004   5.378 -0.3306  0.2041  1.4926
11287TIP3    H233798   3.918   6.115   5.306  0.6894 -0.0093  0.1051
11288TIP3   OH233799   4.019   4.455   5.002  0.5472  0.3288 -0.1388
11288TIP3    H133800   4.011   4.511   5.080  3.3739  0.9535 -0.2414
11288TIP3    H233801   3.969   4.501   4.935  1.2180  1.7454  0.3033
11289TIP3   OH233802   2.660   3.983   6.405  0.3502 -0.2278  0.0855
11289TIP3    H133803   2.627   3.930   6.333 -0.1856 -1.1004  0.9679
11289TIP3    H233804   2.750   4.005   6.380  0.4912 -1.3383 -0.3998
11290TIP3   OH233805   4.219   2.795   5.233 -0.3504 -0.0987 -0.1053
11290TIP3    H133806   4.200   2.716   5.183  0.3289 -0.6394  0.4705
11290TIP3    H233807   4.273   2.765   5.306  1.9276  1.2415 -1.1864
11291TIP3   OH233808   7.754   2.437   1.355 -0.6493 -0.0125 -0.0109
11291TIP3    H133809   7.811   2.412   1.427 -1.3786 -1.7887 -0.0274
11291TIP3    H233810   7.760   2.365   1.293 -2.3870  0.0590 -0.3123
11292TIP3   OH233811   3.418   3.611   5.975 -0.4519 -0.6220  0.1722
11292TIP3    H133812   3.498   3.651   6.009 -0.8290 -0.5071  0.9431
11292TIP3    H233813   3.418   3.523   6.013 -0.1926 -0.9711 -0.6227
11293TIP3   OH233814   1.229   5.385   6.197 -0.5597 -0.0440  0.3282
11293TIP3    H133815   1.299   5.410   6.257 -0.1358  2.1029 -1.0092
11293TIP3    H233816   1.258   5.302   6.159  1.1903  0.7218 -0.0634
11294TIP3   OH233817   3.851   5.440   0.505  0.4038 -0.4410 -0.4625
11294TIP3    H133818   3.925   5.390   0.540  0.5843  0.0163 -0.1748
11294TIP3    H233819   3.775   5.383   0.516  0.2616  0.1289  1.7394
11295TIP3   OH233820   6.471   7.733   1.674 -0.0522 -0.2050 -0.2060
11295TIP3    H133821   6.480   7.824   1.647  1.0444 -0.3707 -0.4221
11295TIP3    H233822   6.515   7.728   1.759 -0.2215 -0.5016 -0.1326
11296TIP3   OH233823   4.219   3.092   6.275 -0.2584 -0.0386  0.1376
11296TIP3    H133824   4.295   3.123   6.324 -0.9040  0.6002  0.7412
11296TIP3    H233825   4.193   3.011   6.319 -1.7221  1.2918  1.7676
11297TIP3   OH233826   3.942   4.707   5.969  0.8026 -0.1051 -0.0503
11297TIP3    H133827   3.922   4.671   6.055 -0.7731 -0.2330 -0.4683
11297TIP3    H233828   4.037   4.722   5.971  1.0611 -1.7828  1.0660
11298TIP3   OH233829   1.078   4.145   4.322 -0.4408  0.1302  0.0679
11298TIP3    H133830   1.117   4.103   4.399  0.1919  1.4344  0.4806
11298TIP3    H233831   1.144   4.138   4.254  0.7156  2.6492  0.8679
11299TIP3   OH233832   5.702   6.238   6.368 -0.1099 -0.2655 -0.2898
11299TIP3    H133833   5.660   6.175   6.426  0.8418 -1.7837 -1.2087
11299TIP3    H233834   5.789   6.251   6.407 -0.4566  0.8442  0.1411
11300TIP3   OH233835   0.638   3.272   5.689 -0.0206  0.2339  0.5985
11300TIP3    H133836   0.608   3.237   5.605 -0.8366 -0.4302  1.1557
11300TIP3    H233837   0.710   3.214   5.715 -1.2071 -0.9127  1.3990
11301TIP3   OH233838   2.880   6.571   6.286  0.0226  0.6199 -0.0341
11301TIP3    H133839   2.825   6.561   6.364 -0.1686 -0.5744 -0.3050
11301TIP3    H233840   2.836   6.520   6.219  1.2932 -0.1292 -0.3351
11302TIP3   OH233841   3.414   5.289   6.716 -0.3027 -0.0268  0.0915
11302TIP3    H133842   3.459   5.309   6.633 -0.9413  1.7442  0.1537
11302TIP3    H233843   3.453   5.349   6.779  0.9241 -2.0903  1.3427
11303TIP3   OH233844   0.674   1.467   0.996 -0.3158 -0.1196  0.1652
11303TIP3    H133845   0.713   1.463   1.084 -1.1610 -1.4730  0.4989
11303TIP3    H233846   0.596   1.412   1.002  0.0488 -0.8828 -1.6493
11304TIP3   OH233847   4.150   6.528   6.054  0.0734 -0.2843  0.6577
11304TIP3    H133848   4.154   6.622   6.076  1.9678 -0.1691 -0.0872
11304TIP3    H233849   4.141   6.485   6.139 -1.2322  0.5788  0.9815
11305TIP3   OH233850   7.914   7.533   0.792  0.1601  0.4668 -0.2371
11305TIP3    H133851   7.854   7.606   0.777 -0.3101  0.0895 -0.1884
11305TIP3    H233852   7.888   7.467   0.728  0.7937  0.4631 -0.4982
11306TIP3   OH233853   1.026   3.186   0.688  0.2558  0.7497  0.6766
11306TIP3    H133854   1.064   3.169   0.774  1.0727 -2.5331 -0.2758
11306TIP3    H233855   1.098   3.221   0.636  0.9605 -1.4965  0.0854
11307TIP3   OH233856   8.330   3.647   0.022 -0.3846  0.4109 -0.1669
11307TIP3    H133857   8.267   3.595   0.072 -1.9600  2.6396  0.2353
11307TIP3    H233858   8.288   3.662  -0.062 -0.0828  1.2775 -0.1740
11308TIP3   OH233859   3.465   5.662   6.206 -0.0171  0.6745 -0.4474
11308TIP3    H133860   3.508   5.583   6.237 -0.6606  0.0370 -1.1581
11308TIP3    H233861   3.499   5.732   6.262  2.2224  0.2550 -1.2711
11309TIP3   OH233862   1.932   6.444   5.433  0.3144 -0.0770  0.2079
11309TIP3    H133863   1.905   6.529   5.466 -0.9161 -0.7512  0.9660
11309TIP3    H233864   1.856   6.411   5.385  0.6368 -0.9286  0.2781
11310TIP3   OH233865   1.386   2.012   0.666  0.8434  0.7798 -0.2731
11310TIP3    H133866   1.471   2.019   0.623  0.3454 -2.8073 -1.9649
11310TIP3    H233867   1.322   2.018   0.596 -0.0755 -2.3327  0.2401
11311TIP3   OH233868   3.635   4.795   5.589 -0.0968 -0.8113  0.8662
11311TIP3    H133869   3.698   4.867   5.587 -0.4757 -0.4747  1.0864
11311TIP3    H233870   3.557   4.829   5.544  0.0659 -1.4058  0.1097
11312TIP3   OH233871   3.879   4.528   5.761  0.4246  0.2058 -0.0223
11312TIP3    H133872   3.834   4.461   5.812  0.0906  1.0000  0.7530
11312TIP3    H233873   3.907   4.593   5.826 -0.3301  1.4150 -0.8778
11313TIP3   OH233874   1.726   4.717   6.708  0.0091  0.4684 -0.1138
11313TIP3    H133875   1.636   4.712   6.740 -0.2592  0.3206 -0.8910
11313TIP3    H233876   1.735   4.644   6.647 -0.0454  1.8257 -1.7729
11314TIP3   OH233877   8.094   6.428   0.665  0.4270  0.2711 -0.5581
11314TIP3    H133878   8.012   6.405   0.621  0.9795 -1.6686 -0.6476
11314TIP3    H233879   8.116   6.349   0.715  1.6190  1.2080  0.4226
11315TIP3   OH233880   4.753   2.425   6.890 -0.1206 -0.0279 -0.0873
11315TIP3    H133881   4.845   2.421   6.915  0.1381  0.2399 -1.0068
11315TIP3    H233882   4.708   2.456   6.969  0.7106  0.8909  0.0198
11316TIP3   OH233883   5.008   4.273   4.523 -0.3157 -0.4856 -1.0720
11316TIP3    H133884   5.050   4.276   4.609 -1.3070 -1.3430 -0.5517
11316TIP3    H233885   5.061   4.210   4.473  0.3894  0.1726 -1.1768
11317TIP3   OH233886   3.244   5.214   6.109 -0.3622  0.5622 -0.0301
11317TIP3    H133887   3.235   5.133   6.159  0.0492  0.2133 -0.5113
11317TIP3    H233888   3.255   5.185   6.018 -2.4812  1.2425 -0.5189
11318TIP3   OH233889   1.738   3.914   6.727  0.2290 -0.2590  0.6469
11318TIP3    H133890   1.790   3.991   6.703  0.6585 -0.5564  0.6212
11318TIP3    H233891   1.743   3.910   6.823  0.4985 -0.4593  0.6239
11319TIP3   OH233892   5.439   7.098   1.152  0.5090 -0.7979 -0.1688
11319TIP3    H133893   5.516   7.071   1.100  1.0929 -0.5764  0.5713
11319TIP3    H233894   5.431   7.192   1.136 -0.7877 -1.1574 -1.7759
11320TIP3   OH233895   5.691   7.919   0.457  0.0671 -0.0863  0.3140
11320TIP3    H133896   5.618   7.940   0.398  0.6645  0.6498 -0.1895
11320TIP3    H233897   5.681   7.979   0.530  0.5583  0.4989 -0.0930
11321TIP3   OH233898   5.152   4.070   5.707  0.2152 -0.6723  0.3750
11321TIP3    H133899   5.155   4.065   5.611  1.2101 -2.5391  0.4825
11321TIP3    H233900   5.061   4.051   5.729  0.0210 -0.4196 -0.1906
11322TIP3   OH233901   7.107   1.844   0.365 -0.4269  0.3537  0.2331
11322TIP3    H133902   7.129   1.822   0.455  2.1740 -3.2329 -1.1275
11322TIP3    H233903   7.172   1.909   0.339  1.7574 -1.9696 -0.3504
11323TIP3   OH233904   2.474   1.448   3.515  0.0079 -0.1402 -0.2573
11323TIP3    H133905   2.507   1.524   3.561  2.5004 -1.2540 -0.1332
11323TIP3    H233906   2.391   1.428   3.558 -0.3986  2.1282  0.0813
11324TIP3   OH233907   1.714   5.619   4.842 -0.6497 -0.2970  0.1440
11324TIP3    H133908   1.641   5.629   4.781 -0.9070  0.7646  0.6209
11324TIP3    H233909   1.784   5.580   4.789 -1.1184 -0.0862 -0.6419
11325TIP3   OH233910   3.110   6.512   4.949  0.8972 -0.1056  0.5066
11325TIP3    H133911   3.050   6.541   4.881  1.6496  2.7889  0.9910
11325TIP3    H233912   3.076   6.427   4.977 -0.5616 -0.4223 -2.0592
11326TIP3   OH233913   2.838   5.150   6.157 -0.5727  0.0860  0.1957
11326TIP3    H133914   2.751   5.139   6.118 -0.1309 -0.9723 -0.5173
11326TIP3    H233915   2.895   5.092   6.105  0.3309 -0.1257  1.4120
11327TIP3   OH233916   3.118   7.234   0.563  0.9640  0.0325 -0.3257
11327TIP3    H133917   3.142   7.157   0.512  0.5945 -0.9328  0.9457
11327TIP3    H233918   3.025   7.248   0.543  0.6885 -0.6438  0.4502
11328TIP3   OH233919   5.532   5.007   5.904 -0.1819  0.6693 -0.0031
11328TIP3    H133920   5.465   4.972   5.845  0.0064  0.2910  0.0029
11328TIP3    H233921   5.514   4.964   5.988  1.0963 -0.7415 -0.4192
11329TIP3   OH233922   5.246   5.681   0.013 -0.2862 -0.4813 -0.2447
11329TIP3    H133923   5.216   5.619   0.080 -2.5789  1.4096  0.5527
11329TIP3    H233924   5.219   5.767   0.046  3.5216  1.0966 -0.9214
11330TIP3   OH233925   0.431   2.810   0.209 -0.4658  0.0487 -0.5623
11330TIP3    H133926   0.489   2.805   0.285  0.5248 -0.0177 -1.2999
11330TIP3    H233927   0.365   2.742   0.223 -0.9660  0.8111  0.7835
11331TIP3   OH233928   5.896   5.754   4.661  0.6311 -0.3281  0.0981
11331TIP3    H133929   5.832   5.825   4.658 -0.1532 -1.0379 -0.1262
11331TIP3    H233930   5.975   5.791   4.622  0.1057  0.3013 -0.3767
11332TIP3   OH233931   4.542   5.880   5.444  0.5472 -0.1831  0.4006
11332TIP3    H133932   4.464   5.933   5.459  0.9282  0.7309 -0.7624
11332TIP3    H233933   4.512   5.809   5.387  0.5071  0.0140  0.1758
11333TIP3   OH233934   2.608   4.178   5.718 -0.2803  0.5471 -0.2198
11333TIP3    H133935   2.686   4.232   5.711  1.3791 -1.8791 -1.1127
11333TIP3    H233936   2.623   4.124   5.796 -2.2675  1.8708  1.1225
11334TIP3   OH233937   5.353   4.610   4.929 -0.2371  0.3074 -0.0414
11334TIP3    H133938   5.286   4.654   4.982 -2.8456 -0.5999 -2.4634
11334TIP3    H233939   5.318   4.610   4.840  2.3473 -1.5076 -1.1445
11335TIP3   OH233940   4.076   7.532   4.285 -0.4717  0.1138 -0.4834
11335TIP3    H133941   4.165   7.498   4.286 -0.0736  1.1584  0.1680
11335TIP3    H233942   4.057   7.554   4.376 -0.2864  2.7075 -1.0426
11336TIP3   OH233943   2.078   4.389   6.918 -0.6171 -0.1545  0.2214
11336TIP3    H133944   2.109   4.478   6.936  0.8727 -0.3749 -1.0923
11336TIP3    H233945   2.082   4.381   6.822 -1.7179 -1.2943  0.2564
11337TIP3   OH233946   3.994   4.490   6.293 -0.0379 -0.1255 -0.1170
11337TIP3    H133947   4.007   4.455   6.381 -1.6281 -2.0173 -0.5901
11337TIP3    H233948   3.998   4.585   6.304 -0.1972 -0.3414  1.9972
11338TIP3   OH233949   5.140   7.117   6.428  0.4598 -0.0159  0.0223
11338TIP3    H133950   5.046   7.125   6.440  0.6118  2.0639 -0.0305
11338TIP3    H233951   5.161   7.176   6.356  1.5610 -1.9084 -1.2758
11339TIP3   OH233952   5.184   4.479   6.584  0.2524 -0.1104  0.7649
11339TIP3    H133953   5.219   4.479   6.672 -1.5287  0.8274  1.4937
11339TIP3    H233954   5.133   4.397   6.579  0.3554 -0.1647  0.6008
11340TIP3   OH233955   5.834   3.158   5.371  0.0522  0.1331 -0.2809
11340TIP3    H133956   5.874   3.141   5.286  1.6527 -2.7766  0.9510
11340TIP3    H233957   5.752   3.109   5.370 -0.0973  0.3846 -0.2943
11341TIP3   OH233958   6.640   3.918   3.913  0.3888  0.0557 -0.3704
11341TIP3    H133959   6.633   3.847   3.977 -1.1514  0.9687  0.5157
11341TIP3    H233960   6.583   3.891   3.842 -0.8132  0.7358  0.3136
11342TIP3   OH233961   7.830   6.386   0.083  0.2329  0.1691 -0.2967
11342TIP3    H133962   7.888   6.387   0.007  0.2473 -0.1937 -0.2919
11342TIP3    H233963   7.889   6.385   0.158  0.2233  1.3317 -0.2582
11343TIP3   OH233964   4.650   3.148   5.448 -0.0144 -0.0215  0.3297
11343TIP3    H133965   4.580   3.098   5.406 -0.3970  1.3366 -0.7178
11343TIP3    H233966   4.650   3.232   5.400  3.3674 -0.5682 -0.7227
11344TIP3   OH233967   4.375   3.444   5.613  0.1152 -0.6435  0.5446
11344TIP3    H133968   4.453   3.389   5.615  0.3393 -0.3412  0.1159
11344TIP3    H233969   4.393   3.514   5.676  0.0326 -0.7918  0.7303
11345TIP3   OH233970   5.096   3.979   4.417  0.4867 -0.1904 -0.1473
11345TIP3    H133971   5.115   4.012   4.329  0.2776  0.1741 -0.0516
11345TIP3    H233972   5.176   3.932   4.442  0.5025 -0.4012 -0.5796
11346TIP3   OH233973   6.854   5.274   6.421  0.1842  0.5487  0.3475
11346TIP3    H133974   6.808   5.322   6.489 -0.4083 -0.2343  0.5157
11346TIP3    H233975   6.848   5.330   6.344  0.0158  1.0057  0.6891
11347TIP3   OH233976   6.003   6.581   1.575  0.0387  0.3285 -0.4572
11347TIP3    H133977   5.970   6.641   1.642  0.8445  0.5208 -0.2333
11347TIP3    H233978   6.060   6.636   1.521  0.1433 -0.0544 -0.7349
11348TIP3   OH233979   1.842   0.861   0.448 -0.0008 -0.0544 -0.4406
11348TIP3    H133980   1.810   0.857   0.539  0.8373 -0.3673 -0.1588
11348TIP3    H233981   1.899   0.785   0.439 -0.7344 -0.4842 -1.4895
11349TIP3   OH233982   1.779   6.800   6.405  0.0405  0.1220 -0.7635
11349TIP3    H133983   1.789   6.895   6.410 -1.3834  0.1835  1.3132
11349TIP3    H233984   1.691   6.786   6.369 -0.2894 -0.4129  0.2502
11350TIP3   OH233985   3.573   2.839   5.136 -0.3079  0.0833 -0.4044
11350TIP3    H133986   3.481   2.846   5.162  0.2982  1.2449  1.5383
11350TIP3    H233987   3.593   2.746   5.143 -1.5097 -0.2805 -1.5225
11351TIP3   OH233988   7.553   1.123   0.664 -0.4600 -0.3275 -0.3350
11351TIP3    H133989   7.593   1.206   0.636 -2.1497 -0.0474 -2.0906
11351TIP3    H233990   7.482   1.149   0.722  0.9982 -0.7525  1.6956
11352TIP3   OH233991   3.742   5.036   5.588  0.1991 -0.5892 -0.2512
11352TIP3    H133992   3.758   5.026   5.682  0.7016  0.3500 -0.2316
11352TIP3    H233993   3.827   5.025   5.547  0.3445  0.9718 -0.4239
11353TIP3   OH233994   6.480   2.600   5.639  0.0054  0.3984  0.3871
11353TIP3    H133995   6.460   2.628   5.549 -0.0464 -1.0858 -0.0668
11353TIP3    H233996   6.569   2.565   5.634 -0.8715 -1.8799  0.4078
11354TIP3   OH233997   4.189   6.288   3.862  0.2918  0.3057  0.2078
11354TIP3    H133998   4.221   6.315   3.947 -0.0678 -0.6936  0.6688
11354TIP3    H233999   4.166   6.195   3.873 -1.8647  0.7304 -0.3500
11355TIP3   OH234000   0.162   6.799   0.412  0.4919  0.1438 -0.2553
11355TIP3    H134001   0.218   6.860   0.460  3.1512 -1.6835 -0.9388
11355TIP3    H234002   0.205   6.714   0.422 -1.6589 -1.1583 -1.6313
11356TIP3   OH234003   7.294   6.753   0.326 -0.1514 -0.1636 -0.8140
11356TIP3    H134004   7.310   6.662   0.301 -2.7261 -0.6305 -0.9477
11356TIP3    H234005   7.255   6.793   0.249  1.4043  1.2280 -0.9250
11357TIP3   OH234006   4.952   5.331   5.236 -0.1603  0.0782  0.1857
11357TIP3    H134007   4.961   5.289   5.322  0.9222  0.7318  0.4030
11357TIP3    H234008   5.001   5.413   5.245 -2.6492  1.6363 -0.0660
11358TIP3   OH234009   4.531   3.478   5.002 -0.2672  0.4122 -0.1411
11358TIP3    H134010   4.470   3.494   4.930  1.3683 -0.3303 -1.7418
11358TIP3    H234011   4.586   3.556   5.004 -0.6677  0.6744  0.6834
11359TIP3   OH234012   2.168   2.998   1.375  0.5148 -0.2029 -0.0617
11359TIP3    H134013   2.108   3.032   1.308 -0.3021 -0.9000  0.3070
11359TIP3    H234014   2.241   3.060   1.375  0.9032 -0.6053 -2.1478
11360TIP3   OH234015   4.492   5.458   5.269 -0.4016  0.5121 -1.0721
11360TIP3    H134016   4.570   5.419   5.309 -1.5881 -1.3623 -0.4997
11360TIP3    H234017   4.486   5.417   5.183 -0.1513  1.4844 -1.5638
11361TIP3   OH234018   5.868   5.347   4.776 -0.2576  0.1477 -0.0327
11361TIP3    H134019   5.807   5.381   4.841  0.5577  1.6832 -0.0665
11361TIP3    H234020   5.955   5.365   4.812  0.2008 -0.0262 -1.0228
11362TIP3   OH234021   5.639   0.259   0.124  0.2278 -0.5061  0.0649
11362TIP3    H134022   5.549   0.240   0.151  0.6546 -0.5530  1.5111
11362TIP3    H234023   5.644   0.228   0.034 -2.0209  2.0853 -1.0378
11363TIP3   OH234024   4.958   3.636   6.560 -0.4729  0.3633 -0.6264
11363TIP3    H134025   4.970   3.693   6.484 -0.2265 -0.1899 -1.0013
11363TIP3    H234026   4.969   3.695   6.635  3.9895  0.0793 -0.9276
11364TIP3   OH234027   4.889   5.020   6.054 -0.3332  0.1557 -0.3858
11364TIP3    H134028   4.879   4.925   6.057  0.2358  0.1413  1.6229
11364TIP3    H234029   4.984   5.034   6.052 -0.3866  0.6955  0.5034
11365TIP3   OH234030   2.148   2.374   0.045 -0.2055  0.5181 -0.1926
11365TIP3    H134031   2.236   2.385   0.007 -0.6895 -0.0755 -1.5018
11365TIP3    H234032   2.117   2.464   0.059  1.0092  0.7281  1.2101
11366TIP3   OH234033   3.809   5.632   6.058 -0.3384  0.3472  0.0488
11366TIP3    H134034   3.833   5.666   6.144  1.1880 -0.2487 -0.1196
11366TIP3    H234035   3.889   5.639   6.006 -1.0582  0.0726 -1.1197
11367TIP3   OH234036   3.694   4.335   4.863 -0.4530 -0.0046 -0.3714
11367TIP3    H134037   3.601   4.329   4.840 -1.0076 -0.5325  1.8605
11367TIP3    H234038   3.718   4.426   4.843 -1.4318  0.1008 -1.0769
11368TIP3   OH234039   5.892   6.846   0.348  0.1496 -0.5692  0.1841
11368TIP3    H134040   5.915   6.753   0.348  0.0626 -0.6704  3.4608
11368TIP3    H234041   5.798   6.848   0.366 -0.2505  0.1146 -1.9194
11369TIP3   OH234042   3.565   5.343   4.456  0.1429 -0.2039 -0.2866
11369TIP3    H134043   3.608   5.343   4.541  2.3988 -1.1587 -1.3854
11369TIP3    H234044   3.580   5.431   4.421  0.9302 -0.4300 -0.5242
11370TIP3   OH234045   4.223   4.169   4.738 -0.0206 -0.2173  0.1155
11370TIP3    H134046   4.295   4.138   4.683  0.7100  0.4688  0.6724
11370TIP3    H234047   4.190   4.247   4.692  0.3807  0.1681  0.4719
11371TIP3   OH234048   1.998   0.493   0.800  0.3626 -0.2335  0.5699
11371TIP3    H134049   1.974   0.423   0.859 -2.4603  0.9698  0.9571
11371TIP3    H234050   1.984   0.457   0.712  1.0564 -0.8698  0.7281
11372TIP3   OH234051   6.233   4.620   4.618  0.5559 -0.0098  0.4052
11372TIP3    H134052   6.147   4.647   4.585 -0.2802  2.2075  4.0104
11372TIP3    H234053   6.295   4.681   4.577 -0.3091  1.9205  1.8482
11373TIP3   OH234054   5.051   6.670   5.899  0.8084  0.3272  0.0702
11373TIP3    H134055   5.064   6.640   5.809  1.9113  1.1682 -0.0538
11373TIP3    H234056   4.962   6.643   5.920  1.5802 -2.6402 -0.2042
11374TIP3   OH234057   4.853   5.019   6.753 -0.2112  0.3678 -0.0660
11374TIP3    H134058   4.883   4.985   6.669 -2.8690 -0.9263 -0.5583
11374TIP3    H234059   4.891   4.960   6.818 -0.0648 -0.0581 -0.5328
11375TIP3   OH234060   8.447   0.311  -0.029  0.9034  0.3123  0.2742
11375TIP3    H134061   8.405   0.346   0.050  1.5896  0.6434  0.5022
11375TIP3    H234062   8.538   0.296  -0.002  0.8881 -0.5606 -0.1563
11376TIP3   OH234063   5.952   5.149   3.128  0.2891  0.2488  0.0476
11376TIP3    H134064   5.959   5.133   3.222  0.0115 -0.2789 -0.0161
11376TIP3    H234065   5.862   5.125   3.106  1.1192 -2.1842 -0.8269
11377TIP3   OH234066   5.026   5.156   5.429 -0.1620  0.2684  0.3467
11377TIP3    H134067   5.022   5.109   5.512  0.4875 -0.4040  0.0017
11377TIP3    H234068   5.114   5.140   5.397  0.1533  1.9364  0.3432
11378TIP3   OH234069   4.234   4.922   6.200  0.2693  0.4345 -0.0609
11378TIP3    H134070   4.186   4.987   6.252  0.5994  1.5700 -1.1606
11378TIP3    H234071   4.326   4.938   6.220  0.2934 -0.5847  0.6884
11379TIP3   OH234072   5.039   4.897   6.945 -0.0374 -0.5048  0.6492
11379TIP3    H134073   5.131   4.923   6.946 -0.3645  0.8083 -0.4800
11379TIP3    H234074   5.037   4.816   6.895  0.2130  0.7898 -1.5126
11380TIP3   OH234075   3.720   5.119   6.324  0.1526  0.2001  0.6962
11380TIP3    H134076   3.705   5.030   6.357  1.8332  0.6285  2.7433
11380TIP3    H234077   3.683   5.119   6.235 -0.6542 -2.2703  1.0090
11381TIP3   OH234078   6.588   6.519   4.861  0.1511 -0.1689 -0.7793
11381TIP3    H134079   6.595   6.450   4.794  0.6530 -1.2891  0.4092
11381TIP3    H234080   6.669   6.512   4.911  0.4192  1.6245 -0.9446
11382TIP3   OH234081   4.541   4.719   5.065 -0.0954 -0.4103 -0.2285
11382TIP3    H134082   4.478   4.749   4.999  1.0022 -2.0223 -2.0733
11382TIP3    H234083   4.624   4.713   5.017  1.0780 -0.0953  1.7085
11383TIP3   OH234084   4.732   4.133   5.917  0.2073 -0.1233 -0.1959
11383TIP3    H134085   4.797   4.157   5.852  1.4389 -0.4710  0.8933
11383TIP3    H234086   4.778   4.137   6.001 -1.4037  0.5721  0.7044
11384TIP3   OH234087   5.247   4.640   4.225 -0.1354  0.5029 -0.4121
11384TIP3    H134088   5.286   4.687   4.151 -0.2392  0.2276 -0.6406
11384TIP3    H234089   5.318   4.586   4.259 -0.0210  0.8094 -0.1599
11385TIP3   OH234090   3.925   3.825   5.118 -0.4947 -0.3581 -0.4487
11385TIP3    H134091   3.902   3.900   5.173  2.1815 -0.1061  0.3612
11385TIP3    H234092   4.010   3.846   5.081 -0.7086 -2.0503 -1.9971
11386TIP3   OH234093   5.518   5.885   5.784  0.4439 -0.7143  0.0839
11386TIP3    H134094   5.511   5.838   5.867  0.1155 -0.7099  0.0584
11386TIP3    H234095   5.429   5.914   5.765  0.3880 -1.3580 -0.6477
11387TIP3   OH234096   5.019   3.767   5.832  0.0045  0.2358 -0.3788
11387TIP3    H134097   5.065   3.843   5.869  0.5933 -0.0744 -0.4812
11387TIP3    H234098   4.940   3.759   5.886 -0.6068  1.5948 -1.0556
11388TIP3   OH234099   4.202   3.609   4.013  0.4099 -0.5379 -0.0763
11388TIP3    H134100   4.271   3.571   3.959 -1.2230 -0.6328 -2.1636
11388TIP3    H234101   4.205   3.703   3.994  0.4596 -0.4386  0.4142
11389TIP3   OH234102   5.035   5.406   5.591 -0.3803 -0.1575  0.2783
11389TIP3    H134103   4.977   5.456   5.534 -0.5549 -0.7310 -0.0516
11389TIP3    H234104   5.114   5.392   5.538  0.2737  1.0612  0.9050
11390TIP3   OH234105   5.773   3.423   5.420  0.3029  0.8613 -0.4779
11390TIP3    H134106   5.793   3.330   5.419  1.1898  1.0150  1.2038
11390TIP3    H234107   5.683   3.428   5.452  0.4604  0.6110  0.0079
11391TIP3   OH234108   3.314   3.290   4.766  0.0913  0.6111 -0.6147
11391TIP3    H134109   3.225   3.294   4.732  1.3103  0.9906 -3.9424
11391TIP3    H234110   3.338   3.382   4.780 -0.5277  0.4490  1.7846
11392TIP3   OH234111   3.029   1.086   0.672  0.1286  0.1772  0.0238
11392TIP3    H134112   3.114   1.041   0.676 -0.9969 -2.0322  0.2721
11392TIP3    H234113   2.988   1.053   0.592 -0.5068  1.2264 -0.0913
11393TIP3   OH234114   3.949   5.106   6.076 -0.1430  0.6323 -0.0145
11393TIP3    H134115   4.029   5.152   6.099 -0.0129  0.8367 -0.8616
11393TIP3    H234116   3.883   5.140   6.137  0.4490  0.3088  0.8236
11394TIP3   OH234117   4.087   3.206   5.513  0.1818 -0.1989  0.0744
11394TIP3    H134118   4.022   3.184   5.446  3.1981 -0.4467 -2.8681
11394TIP3    H234119   4.065   3.296   5.538  0.0910  0.5487 -2.5792
11395TIP3   OH234120   2.359   2.989   6.612  0.3218 -0.1425  0.1668
11395TIP3    H134121   2.380   3.014   6.522 -0.1834 -2.6502 -0.6985
11395TIP3    H234122   2.265   2.971   6.610  0.2288  0.1842  1.3110
11396TIP3   OH234123   2.165   1.337   0.473 -0.0259  0.7958 -0.0257
11396TIP3    H134124   2.096   1.319   0.408  0.2463  1.8475 -0.6047
11396TIP3    H234125   2.141   1.282   0.548 -1.2081  0.7544 -0.4215
11397TIP3   OH234126   4.466   5.037   5.183 -0.2004 -0.1311 -0.5343
11397TIP3    H134127   4.383   4.989   5.195 -0.4995  0.8309  1.5157
11397TIP3    H234128   4.534   4.973   5.204 -0.3289 -1.2663 -3.3458
11398TIP3   OH234129   4.393   4.463   4.563  0.1735 -0.3034 -0.2553
11398TIP3    H134130   4.474   4.444   4.611 -0.0108 -2.2860 -0.6961
11398TIP3    H234131   4.323   4.431   4.621 -0.3611  1.8477  0.3493
11399TIP3   OH234132   3.133   3.879   6.328  0.6776  0.1055  0.1980
11399TIP3    H134133   3.207   3.823   6.305 -1.3049 -2.7801  0.6396
11399TIP3    H234134   3.144   3.896   6.422  0.9161 -0.0722  0.2025
11400TIP3   OH234135   3.600   5.698   5.895  0.8485  0.4633 -0.1783
11400TIP3    H134136   3.668   5.686   5.961  2.0699 -0.1812 -1.5348
11400TIP3    H234137   3.647   5.714   5.814 -0.6402  1.1979 -0.9178
11401TIP3   OH234138   1.928   0.403   0.560 -0.4484  0.0543 -0.1768
11401TIP3    H134139   1.982   0.326   0.540 -0.0144  0.4569 -0.5806
11401TIP3    H234140   1.838   0.369   0.562 -0.2422 -0.4992 -0.1682
11402TIP3   OH234141   7.706   6.241   0.722  0.6454  1.0589  0.0541
11402TIP3    H134142   7.630   6.188   0.697 -0.7827  2.6126  1.0473
11402TIP3    H234143   7.760   6.182   0.774  0.2920 -0.1614 -0.9401
11403TIP3   OH234144   5.213   4.975   5.126 -0.2387 -0.3985  0.2032
11403TIP3    H134145   5.224   5.052   5.070 -1.4024 -1.4986 -1.5719
11403TIP3    H234146   5.302   4.943   5.141  0.2369  1.0940  0.7115
11404TIP3   OH234147   5.353   4.423   5.928 -0.1306  0.1451 -0.1475
11404TIP3    H134148   5.337   4.514   5.953  0.3846  0.4128 -0.7934
11404TIP3    H234149   5.269   4.392   5.895 -0.8131 -0.1856  1.7921
11405TIP3   OH234150   4.854   2.641   6.029 -0.0454  0.0229 -0.0676
11405TIP3    H134151   4.904   2.707   6.076  0.2267  0.7523 -1.3835
11405TIP3    H234152   4.894   2.637   5.942  1.1672 -3.2001  0.5509
11406TIP3   OH234153   3.948   5.707   5.415 -0.2596  0.3381 -0.6362
11406TIP3    H134154   3.853   5.716   5.413 -0.3655 -0.4588  0.3808
11406TIP3    H234155   3.968   5.639   5.351 -0.3535  0.6489 -0.9968
11407TIP3   OH234156   3.906   6.454   5.498 -0.5090 -0.0849  0.3724
11407TIP3    H134157   3.895   6.515   5.425 -0.7054  2.0668  2.1576
11407TIP3    H234158   3.994   6.418   5.486  0.4578  2.1607  0.4594
11408TIP3   OH234159   3.238   4.866   6.739 -0.1344 -0.0611  0.2916
11408TIP3    H134160   3.326   4.874   6.701  0.0726 -0.8590  0.6110
11408TIP3    H234161   3.188   4.936   6.696  0.3298 -0.3737 -0.7944
11409TIP3   OH234162   3.849   4.999   4.846  0.3662 -0.5462  0.1022
11409TIP3    H134163   3.820   5.057   4.776 -0.4327 -0.0751  0.8194
11409TIP3    H234164   3.917   5.048   4.891 -0.4512 -0.0760  0.8348
11410TIP3   OH234165   2.926   5.370   4.625 -0.1648 -0.3853  0.5904
11410TIP3    H134166   2.935   5.364   4.721  1.2492 -0.5687  0.4553
11410TIP3    H234167   2.989   5.437   4.599 -1.2401  0.3602 -0.1213
11411TIP3   OH234168   4.011   2.626   5.871 -0.0736 -0.0104  0.4535
11411TIP3    H134169   4.107   2.632   5.878 -0.0102  0.4513 -0.6463
11411TIP3    H234170   3.980   2.629   5.961  0.9130  0.4696  0.7873
11412TIP3   OH234171   3.138   5.285   5.117 -0.0193 -0.5204 -0.3491
11412TIP3    H134172   3.203   5.328   5.172 -0.5542  1.3426 -1.1301
11412TIP3    H234173   3.095   5.222   5.175  1.5127 -0.7779  0.5319
11413TIP3   OH234174   5.130   3.997   5.969 -0.2873 -0.4240  0.0425
11413TIP3    H134175   5.068   4.044   6.024  0.5498  0.5873  0.1471
11413TIP3    H234176   5.151   4.058   5.898  2.0098  0.0065  1.0323
11414TIP3   OH234177   6.771   7.311   0.353  0.6313 -0.1370 -0.1224
11414TIP3    H134178   6.849   7.295   0.301 -0.2595  0.5906 -1.7188
11414TIP3    H234179   6.717   7.232   0.340  0.9366 -0.4807  0.6813
11415TIP3   OH234180   0.709   1.090   1.429  0.1581 -0.3564  0.2167
11415TIP3    H134181   0.800   1.118   1.438  0.0283 -0.2472  1.2456
11415TIP3    H234182   0.691   1.094   1.334  0.9660  0.4099  0.0972
11416TIP3   OH234183   5.529   4.679   5.760  0.3998 -0.2012 -0.3185
11416TIP3    H134184   5.437   4.655   5.750  0.6447 -1.4506  0.2733
11416TIP3    H234185   5.560   4.692   5.670 -0.3781  0.3186 -0.5133
11417TIP3   OH234186   4.922   4.443   5.136 -0.2888  0.0441  0.7310
11417TIP3    H134187   4.956   4.445   5.047  0.7088  1.0394  1.1158
11417TIP3    H234188   4.841   4.494   5.132  0.7139  1.6851  0.7565
11418TIP3   OH234189   2.145   1.191   6.388 -0.4203 -0.5070  0.0293
11418TIP3    H134190   2.050   1.194   6.399 -0.3912 -0.9303  0.4570
11418TIP3    H234191   2.177   1.162   6.474  0.0356 -1.1321 -0.3519
11419TIP3   OH234192   1.440   0.059   0.619  0.2352  0.5241 -0.0717
11419TIP3    H134193   1.363   0.103   0.585  0.2379 -0.1573 -0.9732
11419TIP3    H234194   1.406  -0.022   0.657  0.5811 -0.1180 -1.1117
11420TIP3   OH234195   4.453   4.094   5.523  0.3426 -0.1553  0.0899
11420TIP3    H134196   4.448   4.089   5.618  1.9495 -0.2076  0.1832
11420TIP3    H234197   4.451   4.187   5.503 -0.1220 -0.1485  0.1602
11421TIP3   OH234198   6.103   3.791   6.505  0.3157 -0.1636  0.7540
11421TIP3    H134199   6.033   3.843   6.546 -1.0223 -0.3859 -1.1703
11421TIP3    H234200   6.057   3.719   6.461  1.8476 -0.8560  0.2432
11422TIP3   OH234201   3.128   1.483   0.349  0.1829 -0.1330  0.2742
11422TIP3    H134202   3.195   1.417   0.368  0.0258 -0.7340 -1.1861
11422TIP3    H234203   3.046   1.434   0.347 -0.2682  0.5523  1.7593
11423TIP3   OH234204   6.609   5.074   4.504  0.0849 -0.4341  0.2722
11423TIP3    H134205   6.619   5.073   4.599  0.4048  1.4845  0.2693
11423TIP3    H234206   6.697   5.085   4.470 -0.0248 -1.1401 -0.2650
11424TIP3   OH234207   5.414   4.239   4.722 -0.3641  0.0931 -0.1054
11424TIP3    H134208   5.484   4.176   4.743 -2.0902 -1.7224  0.3598
11424TIP3    H234209   5.451   4.293   4.653  1.0241 -1.7447 -0.8535
11425TIP3   OH234210   2.443   5.465   4.955  0.0670  0.5590 -0.2597
11425TIP3    H134211   2.451   5.385   5.008 -1.1697  1.2776  1.0656
11425TIP3    H234212   2.513   5.458   4.891 -0.3913 -1.8778 -0.5472
11426TIP3   OH234213   4.927   4.136   6.144  0.0360 -0.0448 -0.1795
11426TIP3    H134214   4.952   4.117   6.235  1.9826 -0.8470 -0.8726
11426TIP3    H234215   4.909   4.230   6.144 -0.1601 -0.0721  1.0821
11427TIP3   OH234216   7.102   6.363   0.978  0.2454 -0.2310 -0.4177
11427TIP3    H134217   7.178   6.403   1.021  1.5115 -3.2114  0.2028
11427TIP3    H234218   7.040   6.348   1.049  0.2346 -0.3807 -0.4581
11428TIP3   OH234219   4.627   5.844   5.000 -0.3061  0.5187 -0.1600
11428TIP3    H134220   4.700   5.895   5.037 -0.0603  1.0566 -1.3643
11428TIP3    H234221   4.665   5.759   4.980 -0.0938  0.6807 -0.4488
11429TIP3   OH234222   4.934   4.085   6.409  0.7338 -0.1638 -0.0535
11429TIP3    H134223   4.992   4.009   6.404 -1.3260 -1.6916 -1.9406
11429TIP3    H234224   4.871   4.063   6.478  0.5102  0.0741 -0.1787
11430TIP3   OH234225   4.055   3.746   5.681 -0.6209 -0.1082  0.0228
11430TIP3    H134226   3.970   3.774   5.713 -1.4302 -0.7907 -1.4730
11430TIP3    H234227   4.067   3.795   5.599 -0.3157 -1.2277 -0.6070
11431TIP3   OH234228   4.323   4.794   5.234 -0.0828  0.3222 -0.2296
11431TIP3    H134229   4.411   4.759   5.214 -0.3662  0.6467 -2.1717
11431TIP3    H234230   4.301   4.756   5.319  1.8538  0.0623  0.1894
11432TIP3   OH234231   7.925   7.838   0.071 -0.3769  0.1481 -0.1437
11432TIP3    H134232   7.975   7.855   0.151  0.8043  0.0596 -0.8552
11432TIP3    H234233   7.853   7.782   0.100  1.5685 -2.1241  0.4182
11433TIP3   OH234234   3.094   0.788   1.537 -0.0264  0.2737 -0.3777
11433TIP3    H134235   3.019   0.739   1.504 -0.4362 -1.4213  2.8339
11433TIP3    H234236   3.056   0.860   1.587  0.4773  0.1566  0.1841
11434TIP3   OH234237   6.112   6.563   0.577  0.2930 -0.0284  0.8629
11434TIP3    H134238   6.020   6.562   0.604  0.2270 -1.9314  0.6469
11434TIP3    H234239   6.161   6.549   0.658  0.5299  2.9240  1.3016
11435TIP3   OH234240   5.608   4.832   4.335  0.3525 -0.1932 -0.6618
11435TIP3    H134241   5.574   4.859   4.250 -1.9833 -0.1994  0.2442
11435TIP3    H234242   5.665   4.757   4.314  2.2807  1.7189 -2.5214
11436TIP3   OH234243   3.906   3.220   4.831  0.0444  0.0980 -0.2472
11436TIP3    H134244   3.880   3.299   4.784 -0.8942 -0.5351 -0.8027
11436TIP3    H234245   3.823   3.178   4.855  0.5270 -0.3016  0.7532
11437TIP3   OH234246   0.075   2.052   0.303 -0.3904 -0.2922  0.1963
11437TIP3    H134247   0.127   2.036   0.224 -1.4352 -0.2359 -0.5130
11437TIP3    H234248   0.129   2.017   0.374  1.1032  0.7179 -0.3968
11438TIP3   OH234249   4.909   5.501   4.463  0.3025  0.0330  0.1658
11438TIP3    H134250   4.890   5.460   4.379  2.3373 -0.0810 -0.2626
11438TIP3    H234251   4.899   5.595   4.448  1.0380  0.0399 -0.3306
11439TIP3   OH234252   4.431   4.340   5.372 -0.4886 -0.2163  0.0716
11439TIP3    H134253   4.452   4.388   5.292 -0.1906 -2.5505 -1.2925
11439TIP3    H234254   4.346   4.374   5.399  1.2491  3.5982  1.1853
11440TIP3   OH234255   4.653   3.762   5.698  0.7813 -0.0860 -0.0351
11440TIP3    H134256   4.682   3.809   5.776  1.4578  0.1983 -0.4544
11440TIP3    H234257   4.570   3.722   5.724  1.6944 -1.1486  1.2670
11441TIP3   OH234258   2.974   3.661   6.217  0.1737 -0.1726 -0.4296
11441TIP3    H134259   2.902   3.652   6.155 -0.6589  0.4296  0.4466
11441TIP3    H234260   2.996   3.754   6.215  0.5682 -0.2614 -0.2818
11442TIP3   OH234261   5.594   4.772   5.398 -0.0384  0.5599 -0.0083
11442TIP3    H134262   5.520   4.712   5.409  1.4013 -1.5692 -1.5398
11442TIP3    H234263   5.669   4.715   5.384  2.2455  2.6109  3.0732
11443TIP3   OH234264   3.669   2.426   5.893 -0.0015  0.0942 -0.0092
11443TIP3    H134265   3.700   2.507   5.852  0.6167 -1.9573 -3.8251
11443TIP3    H234266   3.593   2.453   5.945  0.7986  3.2841 -0.4107
11444TIP3   OH234267   8.382   0.963   0.683 -0.0165  0.8751  0.4000
11444TIP3    H134268   8.361   1.056   0.678  0.6995  0.9539 -2.0287
11444TIP3    H234269   8.413   0.941   0.595 -1.1618 -1.8936  0.6302
11445TIP3   OH234270   2.074   1.577   0.155  0.2691 -0.1998 -0.3010
11445TIP3    H134271   1.997   1.629   0.180 -0.5604 -0.5076 -2.1129
11445TIP3    H234272   2.047   1.486   0.170  0.3717 -0.2967 -0.7057
11446TIP3   OH234273   5.947   3.956   6.654 -0.1728  0.3352 -0.0559
11446TIP3    H134274   5.874   3.953   6.715 -0.8061  1.7487 -0.7285
11446TIP3    H234275   5.997   4.033   6.679  0.7501 -0.2688  0.0031
11447TIP3   OH234276   3.027   3.656   6.526  0.3127 -0.4409  0.2134
11447TIP3    H134277   3.014   3.628   6.435 -1.7256  0.1666  0.2809
11447TIP3    H234278   2.939   3.681   6.555  1.2807  1.3145  1.7033
11448TIP3   OH234279   3.722   3.444   5.995 -0.1095 -0.3419  0.2802
11448TIP3    H134280   3.782   3.434   5.921 -0.7547  0.2268 -0.3361
11448TIP3    H234281   3.760   3.514   6.048  0.3825 -0.7863  0.5184
11449TIP3   OH234282   5.456   4.271   4.224 -0.0807 -0.2318 -0.4242
11449TIP3    H134283   5.394   4.238   4.159 -0.7258  0.1381 -0.0026
11449TIP3    H234284   5.472   4.196   4.282  0.4459 -0.5415 -0.9666
11450TIP3   OH234285   5.376   4.125   5.099  0.1758 -0.5801 -0.2468
11450TIP3    H134286   5.360   4.117   5.005  1.4564 -1.2146 -0.4332
11450TIP3    H234287   5.291   4.144   5.137 -0.0745  1.5025 -1.7393
11451TIP3   OH234288   3.521   3.758   4.969  0.0701 -0.2944 -0.1310
11451TIP3    H134289   3.487   3.844   4.944 -0.9391 -0.5954  0.1880
11451TIP3    H234290   3.545   3.769   5.061  0.0973 -0.3052 -0.1367
11452TIP3   OH234291   5.548   4.454   5.467  0.1218  0.3788 -0.1519
11452TIP3    H134292   5.630   4.425   5.427 -0.3651 -0.8768 -0.2663
11452TIP3    H234293   5.484   4.450   5.396 -0.0952  1.1034  0.0011
11453TIP3   OH234294   4.233   4.267   6.699  0.3363 -0.7032 -0.5585
11453TIP3    H134295   4.203   4.286   6.788  1.4937  2.1278 -0.7150
11453TIP3    H234296   4.322   4.234   6.711  1.0136  1.0449 -0.7490
11454TIP3   OH234297   4.129   5.309   6.477  0.1712 -0.0893 -0.2808
11454TIP3    H134298   4.183   5.251   6.531 -1.2772 -1.9008 -0.7319
11454TIP3    H234299   4.064   5.251   6.437 -1.1971  1.8245 -0.9006
11455TIP3   OH234300   3.611   5.447   6.321 -0.1122 -0.3759 -0.3421
11455TIP3    H134301   3.691   5.446   6.374  1.0110  1.5228 -1.9703
11455TIP3    H234302   3.604   5.357   6.288  0.6337 -0.8919  0.8459
11456TIP3   OH234303   7.863   2.390   0.626 -0.6141  0.6134  0.8157
11456TIP3    H134304   7.896   2.336   0.698 -0.7568 -2.2963 -1.1978
11456TIP3    H234305   7.799   2.447   0.666 -0.8940 -1.1443  2.9678
11457TIP3   OH234306   5.293   5.385   5.473 -0.8491  0.1719 -0.4459
11457TIP3    H134307   5.353   5.423   5.537 -2.1854  0.1425  0.8475
11457TIP3    H234308   5.329   5.297   5.457  0.6381  0.9118 -1.3055
11458TIP3   OH234309   4.925   5.200   6.558  0.0240 -0.3684  0.5570
11458TIP3    H134310   4.864   5.212   6.485  0.1227  0.0292  0.5373
11458TIP3    H234311   4.904   5.271   6.619 -0.8877 -1.4284  1.5003
11459TIP3   OH234312   3.474   5.207   4.803  0.2640 -0.4018 -0.4639
11459TIP3    H134313   3.557   5.237   4.765 -0.3325  3.1765  0.8408
11459TIP3    H234314   3.477   5.238   4.893 -1.9038 -1.4379 -0.0104
11460TIP3   OH234315   4.139   6.790   4.600 -0.1988  0.0926 -0.0703
11460TIP3    H134316   4.086   6.765   4.524 -0.3130  0.2189 -0.0306
11460TIP3    H234317   4.219   6.737   4.591 -0.7188 -0.7867  0.3707
11461TIP3   OH234318   5.032   6.023   6.163  0.5676  0.3643  0.0253
11461TIP3    H134319   5.099   6.090   6.179  0.4040  0.4190  0.4840
11461TIP3    H234320   5.046   5.958   6.232 -1.0580  1.3063  1.2654
11462TIP3   OH234321   4.956   6.719   6.154  0.0734  0.0499  0.0768
11462TIP3    H134322   5.024   6.787   6.148  0.5452 -0.5050 -1.0782
11462TIP3    H234323   4.875   6.768   6.163  0.3219  0.8205 -1.5571
11463TIP3   OH234324   4.279   4.116   6.162 -0.0165  0.1559  0.0443
11463TIP3    H134325   4.311   4.206   6.170 -0.8511  0.5308 -0.6619
11463TIP3    H234326   4.221   4.104   6.237 -0.3352  0.4062 -0.1586
11464TIP3   OH234327   7.771   7.925   0.636 -0.7300 -0.3302  0.2086
11464TIP3    H134328   7.857   7.889   0.657 -0.9165 -0.1254  1.3411
11464TIP3    H234329   7.727   7.934   0.721 -0.5769  2.8450  0.0200
11465TIP3   OH234330   3.068   0.508   0.526  0.1110 -0.3941  0.1937
11465TIP3    H134331   3.139   0.531   0.466 -0.0104  2.9370  1.2347
11465TIP3    H234332   2.993   0.489   0.468  0.8220 -0.2337 -0.7937
11466TIP3   OH234333   6.469   4.724   4.493  0.2650 -0.2180 -0.4170
11466TIP3    H134334   6.548   4.751   4.540  1.4018 -1.4185 -1.5655
11466TIP3    H234335   6.488   4.746   4.401 -1.5468  1.2827 -0.4633
11467TIP3   OH234336   3.662   4.568   6.523  0.7258  0.0159  0.2488
11467TIP3    H134337   3.670   4.480   6.560 -2.3780 -0.5621 -0.2893
11467TIP3    H234338   3.585   4.563   6.466  0.9322  2.8835 -0.3541
11468TIP3   OH234339   5.002   4.738   4.630 -0.2793  0.2132 -0.1600
11468TIP3    H134340   5.096   4.727   4.641 -0.1329  0.9220 -0.6641
11468TIP3    H234341   4.969   4.649   4.616  0.4628  0.0861 -1.1184
11469TIP3   OH234342   2.013   3.422   6.496  0.0662  0.4961 -0.0318
11469TIP3    H134343   2.027   3.331   6.524  2.8149  0.4564 -1.3551
11469TIP3    H234344   1.961   3.415   6.416  0.9927  0.0214 -0.5990
11470TIP3   OH234345   5.482   5.153   4.476 -0.4932 -0.1258  0.1146
11470TIP3    H134346   5.465   5.059   4.479 -1.4793  0.0431  0.0586
11470TIP3    H234347   5.568   5.163   4.516 -0.6493 -0.9923  0.6817
11471TIP3   OH234348   4.192   5.446   5.921 -0.3039 -0.2060 -0.0092
11471TIP3    H134349   4.151   5.382   5.981 -0.4964 -1.3908 -1.3847
11471TIP3    H234350   4.280   5.458   5.957 -0.6693 -0.3176  0.9588
11472TIP3   OH234351   1.913   3.316   6.884 -0.4085  0.9984  0.2908
11472TIP3    H134352   1.858   3.244   6.913 -0.4804  1.5928  1.6627
11472TIP3    H234353   1.870   3.394   6.919 -0.2313  1.6960 -1.0246
11473TIP3   OH234354   3.708   5.332   5.561  0.0491  0.4606 -0.0473
11473TIP3    H134355   3.784   5.390   5.566 -0.1114  0.6342  0.4106
11473TIP3    H234356   3.745   5.244   5.566  0.1689  0.5544  0.9545
11474TIP3   OH234357   0.175   7.903   0.602  0.3555  0.1797  0.5375
11474TIP3    H134358   0.254   7.951   0.576  0.5240 -1.0890 -1.3620
11474TIP3    H234359   0.161   7.929   0.694  1.7786  2.0108  0.2779
11475TIP3   OH234360   1.583   0.458   0.833 -0.4357  0.6771  0.6823
11475TIP3    H134361   1.522   0.531   0.835  0.0043  1.0339  1.4458
11475TIP3    H234362   1.657   0.488   0.886  0.8202  0.6213 -0.9977
11476TIP3   OH234363   0.109   1.441   0.862 -0.0829 -0.2457  0.0202
11476TIP3    H134364   0.111   1.474   0.772 -0.3105  1.3468  0.5840
11476TIP3    H234365   0.041   1.373   0.860  0.2991 -0.6190 -1.1241
11477TIP3   OH234366   2.282   1.753   0.622  0.4167  0.2995  0.3213
11477TIP3    H134367   2.262   1.693   0.550  0.2021  0.3186  0.3630
11477TIP3    H234368   2.327   1.698   0.686  1.2619  0.4503 -0.1398
11478TIP3   OH234369   6.445   4.296   4.264  0.4595  0.2630  0.0263
11478TIP3    H134370   6.483   4.285   4.351  2.0987 -0.1866 -0.7135
11478TIP3    H234371   6.464   4.213   4.219 -1.2890  0.0898 -0.4221
11479TIP3   OH234372   4.965   4.272   5.792 -0.4706 -0.0517 -0.0930
11479TIP3    H134373   5.012   4.316   5.722  0.1785 -1.0979 -0.3322
11479TIP3    H234374   4.970   4.332   5.867  1.2758 -0.1528 -0.1026
11480TIP3   OH234375   3.373   3.151   5.256 -0.7849  0.1513  0.5248
11480TIP3    H134376   3.384   3.057   5.247 -1.2331  0.1744 -0.2862
11480TIP3    H234377   3.461   3.184   5.274  0.3117  0.1553 -4.2550
11481TIP3   OH234378   1.374   0.201   2.402 -0.0652  0.2396 -0.7379
11481TIP3    H134379   1.301   0.257   2.430 -1.1221 -0.8513 -1.2995
11481TIP3    H234380   1.376   0.209   2.307  0.8831  0.6511 -0.6948
11482TIP3   OH234381   0.481   7.997   0.386  0.2505 -0.2452 -0.3526
11482TIP3    H134382   0.450   7.973   0.473 -0.1527 -1.5518 -0.8365
11482TIP3    H234383   0.570   7.962   0.382  0.4572  0.2693 -0.2834
11483TIP3   OH234384   4.093   3.340   6.274  0.2278  0.3160  0.4656
11483TIP3    H134385   4.077   3.363   6.365 -2.3556 -0.8481  0.3493
11483TIP3    H234386   4.127   3.251   6.277 -2.5693 -0.8203  0.1923
11484TIP3   OH234387   3.249   5.658   5.458  0.9559 -0.3909 -0.2941
11484TIP3    H134388   3.264   5.570   5.424 -0.7014 -0.5757 -0.5661
11484TIP3    H234389   3.309   5.713   5.407  1.8904 -1.3283 -0.2253
11485TIP3   OH234390   3.966   4.565   5.243 -0.3942 -0.9430  0.1110
11485TIP3    H134391   3.936   4.555   5.334  1.0162  2.8616  1.1176
11485TIP3    H234392   3.908   4.632   5.206 -0.7173 -2.1997 -1.7176
11486TIP3   OH234393   3.616   6.028   5.881  0.3464 -0.3691 -0.5355
11486TIP3    H134394   3.619   6.037   5.786 -0.9267 -0.5888 -0.6119
11486TIP3    H234395   3.705   6.045   5.910  0.8238 -0.6481 -1.8003
11487TIP3   OH234396   7.112   6.909   1.469  0.0010  0.1698 -0.2895
11487TIP3    H134397   7.118   6.962   1.548 -3.2515 -0.9491  0.7673
11487TIP3    H234398   7.122   6.972   1.397  0.9825  1.4845  0.9746
11488TIP3   OH234399   3.744   1.992   0.108  0.2958  0.7244 -0.9524
11488TIP3    H134400   3.711   1.909   0.075  0.3202 -0.0006  0.8102
11488TIP3    H234401   3.833   1.973   0.139 -0.6488  0.7584  1.9164
11489TIP3   OH234402   2.215   0.193   0.655  0.4411  0.3741 -0.2842
11489TIP3    H134403   2.178   0.106   0.642 -1.2618  0.9345  0.6491
11489TIP3    H234404   2.190   0.217   0.745 -0.9027  2.6241 -1.1927
11490TIP3   OH234405   5.927   5.833   5.747 -0.5424  0.3769  0.3617
11490TIP3    H134406   5.864   5.788   5.691 -0.8470  1.2620 -0.0179
11490TIP3    H234407   5.991   5.765   5.770 -0.1336  0.0961 -1.4692
11491TIP3   OH234408   7.459   3.798   6.374 -0.0403 -0.6583  0.1232
11491TIP3    H134409   7.541   3.769   6.415  0.0444 -0.9739 -0.2673
11491TIP3    H234410   7.410   3.839   6.445  1.0252  0.7378  0.0787
11492TIP3   OH234411   7.473   6.835   0.092 -0.7589  0.4203  0.7477
11492TIP3    H134412   7.536   6.886   0.142  1.4749  0.6953 -2.2003
11492TIP3    H234413   7.432   6.899   0.034 -1.4609 -0.3060  0.4375
11493TIP3   OH234414   5.769   5.100   5.986 -0.0226 -0.0077  0.5702
11493TIP3    H134415   5.791   5.100   6.079 -1.1104 -0.2470  0.8316
11493TIP3    H234416   5.687   5.052   5.980  0.1088 -0.1125 -0.5347
11494TIP3   OH234417   0.882   1.271   0.034  0.0850 -0.2137  0.0021
11494TIP3    H134418   0.801   1.312   0.006  0.1576  0.6238  1.0179
11494TIP3    H234419   0.865   1.177   0.027 -0.8696 -0.0384 -0.0498
11495TIP3   OH234420   4.245   3.590   5.055  0.3028  0.2653  0.3025
11495TIP3    H134421   4.169   3.648   5.058 -1.2143 -1.7299  2.3588
11495TIP3    H234422   4.231   3.536   4.978  0.0648  0.4497  0.2157
11496TIP3   OH234423   5.670   3.388   6.292 -0.4734  0.6806  0.0130
11496TIP3    H134424   5.644   3.297   6.279  2.5061 -0.2924  0.3887
11496TIP3    H234425   5.649   3.431   6.209  0.0663 -0.8827 -0.9629
11497TIP3   OH234426   0.853   6.653   0.188 -0.3459  0.1078 -0.1327
11497TIP3    H134427   0.870   6.667   0.095  0.6666 -0.5704 -0.0616
11497TIP3    H234428   0.858   6.741   0.226  0.7204  0.2137 -0.4959
11498TIP3   OH234429   5.306   4.726   5.462 -0.4274  0.3919 -0.5385
11498TIP3    H134430   5.249   4.702   5.388 -0.0779  0.6914 -0.9109
11498TIP3    H234431   5.283   4.664   5.531 -1.8817  1.1341 -0.3616
11499TIP3   OH234432   6.515   5.081   6.358  0.1535 -0.2009  0.1753
11499TIP3    H134433   6.599   5.122   6.339  0.5870 -1.4931 -0.7607
11499TIP3    H234434   6.455   5.155   6.370  1.5585  0.7412  1.6408
11500TIP3   OH234435   1.187   7.071   0.217  0.0659 -0.4144  0.1745
11500TIP3    H134436   1.140   7.149   0.248  0.1171 -0.6796  0.9209
11500TIP3    H234437   1.134   6.997   0.248  0.1683 -0.6847 -0.2852
11501TIP3   OH234438   4.991   5.396   3.880 -0.8016  0.3832  0.0259
11501TIP3    H134439   5.043   5.319   3.858 -3.2319 -1.1801 -0.4068
11501TIP3    H234440   5.000   5.404   3.975 -0.9425 -0.7393  0.1390
11502TIP3   OH234441   3.937   3.629   4.418 -0.3696  0.1933  0.3878
11502TIP3    H134442   3.867   3.654   4.358 -0.4192 -2.0412 -0.5443
11502TIP3    H234443   3.905   3.549   4.460  0.8063  0.2406  1.3925
11503TIP3   OH234444   5.334   3.971   4.866  0.0388 -0.4212 -0.7594
11503TIP3    H134445   5.360   3.904   4.803 -1.7136 -1.9082  0.0408
11503TIP3    H234446   5.238   3.967   4.865 -0.0783  1.9224 -0.5253
11504TIP3   OH234447   4.430   3.633   5.797  0.1163  0.5202 -0.0641
11504TIP3    H134448   4.442   3.540   5.813 -0.6257  0.3541 -0.4496
11504TIP3    H234449   4.371   3.663   5.866  0.6052  0.7802  0.2506
11505TIP3   OH234450   2.094   1.182   0.683 -0.1998 -0.7980 -0.4928
11505TIP3    H134451   2.152   1.160   0.756 -1.1991 -0.7583  0.3222
11505TIP3    H234452   2.053   1.099   0.659  0.5050 -0.9117 -1.3671
11506TIP3   OH234453   4.174   3.673   4.754 -0.2098  0.1894 -0.1312
11506TIP3    H134454   4.267   3.659   4.772 -0.0109  2.9450  1.2361
11506TIP3    H234455   4.172   3.709   4.666  0.1650  1.5933  0.4278
11507TIP3   OH234456   4.247   2.677   5.948 -0.2280 -0.6045 -0.2084
11507TIP3    H134457   4.246   2.771   5.967  1.9886 -0.8649  1.4274
11507TIP3    H234458   4.338   2.650   5.964 -0.7029 -2.9298 -1.1832
11508TIP3   OH234459   6.901   6.610   0.605 -0.1072 -0.2123 -0.0244
11508TIP3    H134460   6.859   6.669   0.668 -0.5680 -0.9576  0.3656
11508TIP3    H234461   6.901   6.525   0.648 -0.5793 -0.7676 -1.1119
11509TIP3   OH234462   3.783   2.855   5.411 -0.0160 -0.0889 -0.3290
11509TIP3    H134463   3.872   2.875   5.382  0.2746  0.4809  0.9452
11509TIP3    H234464   3.794   2.812   5.495 -0.9617  0.4813  0.0992
11510TIP3   OH234465   0.374   7.268   1.541 -0.4160 -0.2550 -0.2039
11510TIP3    H134466   0.444   7.333   1.547 -1.5673  0.9879  0.2090
11510TIP3    H234467   0.307   7.301   1.601 -1.4912 -1.2333 -0.8588
11511TIP3   OH234468   5.559   5.895   4.864 -0.3373  0.2792 -0.0559
11511TIP3    H134469   5.475   5.930   4.894 -0.3592  0.1095  0.0813
11511TIP3    H234470   5.537   5.811   4.824 -0.2079  0.1398  0.1621
11512TIP3   OH234471   4.245   7.328   0.467 -0.7572 -0.3449 -0.0267
11512TIP3    H134472   4.200   7.298   0.388 -1.3902  0.0639  0.1757
11512TIP3    H234473   4.258   7.248   0.519 -0.9572 -0.5077 -0.2286
11513TIP3   OH234474   4.354   6.830   6.572 -0.5713 -0.3551 -0.4405
11513TIP3    H134475   4.438   6.869   6.550 -0.4063 -0.6840 -0.3956
11513TIP3    H234476   4.292   6.871   6.512 -0.6781  1.1651  0.6732
11514TIP3   OH234477   0.956   3.725   6.207 -0.1260 -0.1669 -0.0647
11514TIP3    H134478   0.921   3.718   6.118 -1.7487  0.4364  0.5180
11514TIP3    H234479   1.016   3.800   6.203  0.6307 -0.7953 -0.8942
11515TIP3   OH234480   5.040   3.064   5.737 -0.3149  0.0271  0.0526
11515TIP3    H134481   5.045   3.085   5.831 -0.3601  2.5289 -0.4736
11515TIP3    H234482   5.117   3.105   5.699 -0.6933 -0.3318 -1.1309
11516TIP3   OH234483   4.636   5.532   6.180 -0.1433  0.0348 -0.1045
11516TIP3    H134484   4.648   5.610   6.233  0.3361  0.9516 -1.5227
11516TIP3    H234485   4.548   5.541   6.144 -1.8491 -2.3041  3.2399
11517TIP3   OH234486   5.249   6.631   5.375  0.1655  0.5471 -0.3797
11517TIP3    H134487   5.273   6.594   5.290  0.2267 -0.6323  0.1292
11517TIP3    H234488   5.154   6.622   5.378  0.2569 -0.4006  0.0970
11518TIP3   OH234489   4.815   4.799   4.981 -0.2360 -0.5901  0.5733
11518TIP3    H134490   4.809   4.851   5.061  0.0094  0.8977 -0.3521
11518TIP3    H234491   4.801   4.862   4.911 -0.6626 -1.9123 -0.5604
11519TIP3   OH234492   5.256   3.894   6.215  0.5434 -0.1794 -0.6261
11519TIP3    H134493   5.289   3.827   6.154 -2.2855 -0.6892 -1.6473
11519TIP3    H234494   5.248   3.973   6.162  1.3716  0.3037 -0.0473
11520TIP3   OH234495   1.873   2.344   0.410 -0.1579  0.4334 -0.4647
11520TIP3    H134496   1.869   2.438   0.394 -1.5341  0.9072  2.3646
11520TIP3    H234497   1.959   2.330   0.450 -0.0961  0.5519 -0.5583
11521TIP3   OH234498   5.254   6.911   6.181  0.1024 -0.5799 -0.3432
11521TIP3    H134499   5.234   6.922   6.089 -0.1755 -0.0034 -0.2171
11521TIP3    H234500   5.179   6.948   6.227  1.6179  2.0547  0.1312
11522TIP3   OH234501   5.881   4.235   3.465  0.1753  0.8415 -0.1639
11522TIP3    H134502   5.828   4.230   3.544 -0.6791 -0.7337 -0.8113
11522TIP3    H234503   5.870   4.150   3.424  1.5111  1.2543 -1.4061
11523TIP3   OH234504   5.094   3.220   6.532 -0.0312 -0.3004 -0.1518
11523TIP3    H134505   5.107   3.160   6.458  0.0613 -1.2449  0.6159
11523TIP3    H234506   5.088   3.162   6.608 -0.4247  0.6484  0.5405
11524TIP3   OH234507   6.347   6.781   6.653 -0.3980  0.3499  0.7136
11524TIP3    H134508   6.351   6.711   6.718 -2.1322 -0.9145 -0.5024
11524TIP3    H234509   6.280   6.840   6.686 -0.9251 -0.0324  0.3323
11525TIP3   OH234510   4.169   5.884   5.373 -0.4743  0.4759 -0.4302
11525TIP3    H134511   4.130   5.817   5.429 -0.4110  1.1783  0.4600
11525TIP3    H234512   4.151   5.854   5.284 -0.6710 -0.5925 -0.0388
11526TIP3   OH234513   1.670   1.202   0.211  0.0834 -0.2392  0.3398
11526TIP3    H134514   1.590   1.247   0.239  0.5094  1.1200 -0.5828
11526TIP3    H234515   1.737   1.270   0.214  0.9302 -1.0463 -0.2011
11527TIP3   OH234516   4.125   7.327   4.906 -0.2339 -0.1690  0.7015
11527TIP3    H134517   4.081   7.296   4.985  0.0057  1.4122  1.4686
11527TIP3    H234518   4.071   7.294   4.834 -2.6370  1.6651  1.6199
11528TIP3   OH234519   4.512   4.460   6.844  0.1278  0.0952 -0.1924
11528TIP3    H134520   4.458   4.441   6.921  1.4553  0.3300  0.8249
11528TIP3    H234521   4.463   4.527   6.796 -0.8459 -0.2508  0.3019
11529TIP3   OH234522   5.849   4.613   4.803  0.1520  1.0073  0.1852
11529TIP3    H134523   5.763   4.624   4.844 -0.7011 -0.7426 -1.0923
11529TIP3    H234524   5.876   4.524   4.826  0.3488  0.5457 -1.7701
11530TIP3   OH234525   4.622   2.140   5.481  0.1013  0.4675 -0.6519
11530TIP3    H134526   4.543   2.191   5.464 -0.3872  0.0733  0.3619
11530TIP3    H234527   4.691   2.184   5.430 -0.8812  0.4553 -2.0177
11531TIP3   OH234528   7.643   6.838   0.865  0.3018  0.2787 -0.3109
11531TIP3    H134529   7.555   6.803   0.848 -0.0384  0.8011  0.3167
11531TIP3    H234530   7.660   6.898   0.793  0.5412 -0.5474 -0.9441
11532TIP3   OH234531   3.085   2.170   3.765 -0.2985 -0.2893 -0.2485
11532TIP3    H134532   3.097   2.140   3.855  1.4079 -0.5146 -0.5192
11532TIP3    H234533   3.156   2.128   3.716  0.0511  1.4525 -1.3035
11533TIP3   OH234534   5.269   3.533   5.489 -0.2253 -0.8438 -0.1648
11533TIP3    H134535   5.343   3.481   5.459 -0.0697 -1.3424  1.0657
11533TIP3    H234536   5.296   3.566   5.575 -1.3461 -0.8667  0.2047
11534TIP3   OH234537   4.953   1.915   6.859  0.9778  0.2372 -0.6023
11534TIP3    H134538   4.886   1.936   6.793  0.8421  0.7867 -0.2896
11534TIP3    H234539   5.005   1.994   6.867  0.8789  0.2384  0.0877
11535TIP3   OH234540   2.901   3.326   5.788 -0.5074  0.1906 -0.1881
11535TIP3    H134541   2.868   3.255   5.842 -0.1555 -0.1543 -0.4239
11535TIP3    H234542   2.887   3.296   5.698 -0.7185  0.5884 -0.2903
11536TIP3   OH234543   4.825   7.975   5.728  0.2700  0.2919 -0.1894
11536TIP3    H134544   4.918   7.955   5.736 -0.3735 -2.6599  0.2534
11536TIP3    H234545   4.798   7.999   5.817  0.4673  0.5704 -0.2035
11537TIP3   OH234546   2.757   3.692   6.540 -0.1137  0.5682 -0.3849
11537TIP3    H134547   2.738   3.683   6.447  0.7794  0.5087 -0.5608
11537TIP3    H234548   2.675   3.724   6.578 -0.4687  0.6240 -1.1955
11538TIP3   OH234549   4.852   3.719   4.667 -0.1683 -0.1864 -0.3519
11538TIP3    H134550   4.764   3.699   4.634  0.1831  0.9356 -2.0620
11538TIP3    H234551   4.907   3.649   4.630 -0.3317 -0.8602  0.6768
11539TIP3   OH234552   4.876   7.624   3.496 -0.6526 -0.0399  0.2404
11539TIP3    H134553   4.843   7.534   3.496  0.3616 -0.4266 -0.4397
11539TIP3    H234554   4.847   7.661   3.579 -0.0500 -1.3898  1.0604
11540TIP3   OH234555   4.186   3.378   4.522  0.3273  0.2568 -0.3740
11540TIP3    H134556   4.091   3.391   4.530  0.4183  0.1453  1.0076
11540TIP3    H234557   4.211   3.431   4.446 -0.7872  0.5668 -0.5315
11541TIP3   OH234558   6.331   5.792   0.370 -0.1290  0.0924 -0.1320
11541TIP3    H134559   6.312   5.841   0.450  0.6532  0.2749 -0.0559
11541TIP3    H234560   6.294   5.705   0.385 -1.3230  0.5921 -0.1742
11542TIP3   OH234561   2.781   5.686   6.427 -0.3708 -0.3207  0.1625
11542TIP3    H134562   2.781   5.591   6.436 -0.4873 -0.3663 -0.3019
11542TIP3    H234563   2.818   5.718   6.510 -0.3533 -0.7652  0.3286
11543TIP3   OH234564   3.699   5.071   4.604  0.3227 -0.3584 -0.0126
11543TIP3    H134565   3.638   5.012   4.647  0.6072 -0.9644 -0.4257
11543TIP3    H234566   3.722   5.026   4.522  0.9228  0.0991 -0.1000
11544TIP3   OH234567   0.022   0.252   2.141  0.0515 -0.7242  0.3206
11544TIP3    H134568   0.099   0.284   2.188 -1.0606 -0.3587  1.9664
11544TIP3    H234569  -0.020   0.331   2.108  0.2146 -0.8984 -0.3007
11545TIP3   OH234570   1.802   3.106   0.761 -0.1052  0.1080 -0.1220
11545TIP3    H134571   1.800   3.139   0.851  3.3452 -0.5969  0.2929
11545TIP3    H234572   1.866   3.162   0.717 -0.8679 -0.3396 -1.8314
11546TIP3   OH234573   6.270   5.007   5.110 -0.2837 -0.0467 -0.4401
11546TIP3    H134574   6.286   5.010   5.204  2.6644  0.9487 -0.9034
11546TIP3    H234575   6.324   4.935   5.078  0.0245  0.6457 -1.5528
11547TIP3   OH234576   7.225   5.810   6.230  0.0779  0.1908 -0.2484
11547TIP3    H134577   7.153   5.858   6.188  0.8391  1.3071 -0.2944
11547TIP3    H234578   7.304   5.841   6.185  0.7649  0.3184  1.0265
11548TIP3   OH234579   5.897   4.615   5.505 -0.7653 -0.1341 -0.0462
11548TIP3    H134580   5.928   4.691   5.556 -0.4107 -0.7307  0.6479
11548TIP3    H234581   5.943   4.621   5.422  0.9883 -0.8031  0.8386
11549TIP3   OH234582   7.608   4.492   3.127 -0.5405  0.3340 -0.3187
11549TIP3    H134583   7.545   4.559   3.155  0.6613  0.8678  1.1767
11549TIP3    H234584   7.692   4.538   3.126  0.4727 -1.3859  1.7659
11550TIP3   OH234585   7.113   4.047   3.801 -0.4419  0.2704 -0.3504
11550TIP3    H134586   7.042   4.015   3.856  0.1473  0.7345  0.6873
11550TIP3    H234587   7.188   4.052   3.860  0.2629  0.5011 -1.2635
11551TIP3   OH234588   5.244   3.659   5.229  0.8779  0.3650  0.6712
11551TIP3    H134589   5.284   3.746   5.228 -0.0802  0.8065 -1.6300
11551TIP3    H234590   5.293   3.611   5.295  1.3343  2.6914  2.0684
11552TIP3   OH234591   2.780   0.959   0.193 -1.1032 -0.4870  0.4924
11552TIP3    H134592   2.813   0.869   0.189  0.3130  0.1092 -2.4516
11552TIP3    H234593   2.826   0.997   0.268  1.1635 -1.1336 -0.5300
11553TIP3   OH234594   6.125   4.740   5.732 -0.0033  0.0681  0.0914
11553TIP3    H134595   6.098   4.809   5.673  1.4064  0.3350 -0.2661
11553TIP3    H234596   6.077   4.757   5.813 -3.0154 -1.1152 -1.3713
11554TIP3   OH234597   5.672   0.487   0.904  0.3258  0.0531  0.4449
11554TIP3    H134598   5.591   0.457   0.945  0.7269  0.5209  1.6064
11554TIP3    H234599   5.727   0.408   0.899 -0.8425 -0.6680 -2.0011
11555TIP3   OH234600   6.784   1.422   3.917 -0.0588  0.0951  0.1909
11555TIP3    H134601   6.853   1.469   3.964 -2.8333  4.1506  0.4235
11555TIP3    H234602   6.719   1.401   3.984 -1.0826  0.2233 -0.7568
11556TIP3   OH234603   5.092   0.761   0.372  0.1167 -0.3822  0.3110
11556TIP3    H134604   5.118   0.689   0.429  0.4862 -0.0562  0.5576
11556TIP3    H234605   5.027   0.723   0.312 -0.4604 -0.6712  1.1096
11557TIP3   OH234606   6.881   3.804   4.213  0.7834  0.1474  0.2568
11557TIP3    H134607   6.945   3.738   4.239  0.2482 -0.7960 -0.7392
11557TIP3    H234608   6.819   3.808   4.285  2.5153  1.8548  1.7232
11558TIP3   OH234609   3.180   7.901   0.778  0.1264  0.5382  0.1909
11558TIP3    H134610   3.143   7.814   0.761 -1.2918  1.1245  0.2532
11558TIP3    H234611   3.161   7.918   0.870  2.6006 -0.1247  0.8555
11559TIP3   OH234612   5.888   4.443   6.359  0.5626  0.6034 -0.9007
11559TIP3    H134613   5.936   4.360   6.356  0.0400  0.2967 -0.8914
11559TIP3    H234614   5.934   4.500   6.297  1.0425  0.3707 -0.7601
11560TIP3   OH234615   0.428   4.987   6.148  0.0945  0.4402 -0.5636
11560TIP3    H134616   0.466   4.902   6.128 -0.4055  0.4505 -1.6320
11560TIP3    H234617   0.475   5.018   6.225 -0.3913 -1.2391  0.4313
11561TIP3   OH234618   4.154   0.977   0.095 -0.4274 -0.4471  0.0738
11561TIP3    H134619   4.139   1.052   0.153 -1.6180 -1.6068  1.2756
11561TIP3    H234620   4.067   0.944   0.075  0.1592 -2.6339  1.0225
11562TIP3   OH234621   3.420   3.088   0.744 -0.3496  0.1128 -0.1134
11562TIP3    H134622   3.469   3.145   0.685 -1.0946  0.4392 -0.4224
11562TIP3    H234623   3.329   3.095   0.715 -1.1522  2.3172  2.6995
11563TIP3   OH234624   7.541   6.700   4.730 -0.5941 -0.0758 -0.1667
11563TIP3    H134625   7.494   6.662   4.656 -0.9212 -1.7099  0.8489
11563TIP3    H234626   7.633   6.701   4.702 -0.5842 -1.5959 -0.2480
11564TIP3   OH234627   6.884   3.569   5.653  0.0358 -0.3570 -0.5358
11564TIP3    H134628   6.908   3.501   5.591  1.0086  0.3398 -0.9398
11564TIP3    H234629   6.791   3.586   5.635  0.1224 -0.6719 -1.3020
11565TIP3   OH234630   5.070   4.502   5.656  0.0986 -0.1409  0.5881
11565TIP3    H134631   5.081   4.435   5.588  1.3322  0.1156  0.5237
11565TIP3    H234632   4.992   4.552   5.628  0.6843  0.0521 -0.7222
11566TIP3   OH234633   5.873   6.294   5.969 -0.7193  0.5704 -0.2116
11566TIP3    H134634   5.849   6.201   5.965 -0.8360  0.5198  1.3472
11566TIP3    H234635   5.948   6.296   6.030 -1.8680  1.7115  1.1880
11567TIP3   OH234636   5.928   4.055   4.461 -0.0586 -0.4383 -0.4155
11567TIP3    H134637   5.978   4.107   4.398  2.0397 -1.2418  0.5564
11567TIP3    H234638   5.956   4.087   4.547 -0.6645 -1.3955  0.1473
11568TIP3   OH234639   7.327   5.619   4.361 -0.1986  0.0919 -0.2389
11568TIP3    H134640   7.343   5.539   4.312  0.1346  0.3833 -0.6035
11568TIP3    H234641   7.380   5.609   4.441 -0.8127 -0.4202  0.1085
11569TIP3   OH234642   1.038   7.247   0.405  0.2141 -0.2583  0.1797
11569TIP3    H134643   0.948   7.269   0.426  0.2245  0.3317 -0.3767
11569TIP3    H234644   1.077   7.330   0.377  0.7289 -0.6529 -0.2797
11570TIP3   OH234645   0.517   7.773   1.687  0.2469  0.6046 -0.0827
11570TIP3    H134646   0.575   7.823   1.745  0.0758  0.4252  0.2460
11570TIP3    H234647   0.443   7.748   1.743 -0.2134  0.9470 -0.5344
11571TIP3   OH234648   6.059   6.796   4.622  0.0317  0.1678 -0.8091
11571TIP3    H134649   5.968   6.824   4.616  0.1364  0.9534  0.8801
11571TIP3    H234650   6.110   6.876   4.607  0.4439 -0.1997 -1.4039
11572TIP3   OH234651   8.261   0.145   3.514  0.1699  0.2287 -0.0802
11572TIP3    H134652   8.230   0.206   3.446 -1.5512  0.9218  1.2868
11572TIP3    H234653   8.247   0.192   3.596  0.4887 -1.3360  0.8794
11573TIP3   OH234654   6.333   1.078   0.731 -0.2090  0.8208  0.2291
11573TIP3    H134655   6.292   0.996   0.705  2.6668 -1.0751  1.4233
11573TIP3    H234656   6.351   1.122   0.648 -0.7377 -0.2679 -0.4824
11574TIP3   OH234657   7.466   4.844   6.289  0.1871  0.8588  0.0185
11574TIP3    H134658   7.492   4.889   6.370  0.8834 -0.1070  0.3404
11574TIP3    H234659   7.382   4.884   6.265 -0.4227  0.6019  1.6516
11575TIP3   OH234660   5.658   3.893   6.779  0.7928 -0.4978  0.4130
11575TIP3    H134661   5.714   3.830   6.824 -0.0242 -1.3557  0.2571
11575TIP3    H234662   5.651   3.859   6.690  1.9270  0.8754 -0.2098
11576TIP3   OH234663   5.507   7.473   5.912 -0.2308 -0.4654  0.2344
11576TIP3    H134664   5.504   7.394   5.857  0.7522 -0.8587  0.7267
11576TIP3    H234665   5.599   7.498   5.912 -0.6569  1.1372 -0.5401
11577TIP3   OH234666   5.836   2.923   5.731 -0.4124 -0.1232 -0.8475
11577TIP3    H134667   5.764   2.972   5.770  1.0886  0.8736  0.7987
11577TIP3    H234668   5.825   2.833   5.764 -1.3103 -0.1513 -1.2130
11578TIP3   OH234669   7.813   5.358   6.647  0.1941  0.2939  0.3865
11578TIP3    H134670   7.908   5.373   6.642  0.1583  0.9585  1.6113
11578TIP3    H234671   7.781   5.429   6.702 -1.0287  0.0674 -0.0304
11579TIP3   OH234672   7.391   4.019   6.154  0.2705  0.3731 -0.1978
11579TIP3    H134673   7.477   4.038   6.115  0.0653 -1.2635 -1.4854
11579TIP3    H234674   7.412   3.965   6.231  0.3312 -1.3207 -1.3716
11580TIP3   OH234675   5.253   5.601   5.932 -0.5561 -0.0788  0.3595
11580TIP3    H134676   5.218   5.616   6.019  2.0177 -1.0607  1.6245
11580TIP3    H234677   5.248   5.506   5.921 -1.5790  0.1009 -0.9115
11581TIP3   OH234678   5.585   5.342   5.959 -0.6623 -0.2089 -1.0096
11581TIP3    H134679   5.648   5.270   5.962  0.9501  1.2595  2.2610
11581TIP3    H234680   5.625   5.405   5.899  0.9008  0.5966  0.8395
11582TIP3   OH234681   6.725   4.557   6.003 -0.6930 -0.2858 -0.0495
11582TIP3    H134682   6.760   4.481   6.050  0.3561  0.6518  0.6973
11582TIP3    H234683   6.658   4.592   6.062 -0.4650 -0.0263  0.0532
11583TIP3   OH234684   5.800   4.433   5.902 -0.6420  0.2389 -0.1688
11583TIP3    H134685   5.781   4.525   5.918 -1.6849  0.4977 -2.7706
11583TIP3    H234686   5.731   4.404   5.842  1.0579 -1.6149 -1.2755
11584TIP3   OH234687   5.673   4.294   4.504 -0.4242  0.1656 -0.2652
11584TIP3    H134688   5.634   4.235   4.440 -1.1528  0.5015 -0.1257
11584TIP3    H234689   5.767   4.294   4.482 -0.6437  0.1547 -1.2174
11585TIP3   OH234690   4.950   4.708   6.093  0.2734  0.1393  0.4240
11585TIP3    H134691   5.042   4.725   6.069  0.6195 -1.1973  0.7534
11585TIP3    H234692   4.955   4.649   6.168 -0.8524 -2.0308 -1.1582
11586TIP3   OH234693   7.868   5.935   5.825  0.2677 -0.2562 -0.6645
11586TIP3    H134694   7.957   5.909   5.847  0.3553  0.8067  0.3199
11586TIP3    H234695   7.879   6.009   5.765  0.0768  0.7258  0.4861
11587TIP3   OH234696   3.457   2.487   0.963  0.1243  0.1593 -0.0669
11587TIP3    H134697   3.376   2.436   0.959 -0.5832  1.3286 -0.9820
11587TIP3    H234698   3.490   2.487   0.873  1.1228 -0.2766  0.2944
11588TIP3   OH234699   6.624   4.380   5.826  0.5875 -0.1735  0.5208
11588TIP3    H134700   6.679   4.434   5.883  2.1767 -0.8522 -0.3422
11588TIP3    H234701   6.580   4.320   5.885  0.5182  0.5883  1.2607
11589TIP3   OH234702   3.604   5.432   6.009  0.6929 -0.8579  0.4252
11589TIP3    H134703   3.531   5.492   6.023  1.2369 -0.0423 -0.1442
11589TIP3    H234704   3.680   5.476   6.047  1.2417 -0.8252 -0.6654
11590TIP3   OH234705   6.957   3.113   4.005  0.2275 -0.3336  0.2715
11590TIP3    H134706   6.953   3.207   3.987  1.5106 -0.5635 -1.3409
11590TIP3    H234707   7.050   3.093   4.007 -0.0502 -1.7139 -0.1752
11591TIP3   OH234708   3.879   0.503   0.133 -0.5072 -0.3845  0.2663
11591TIP3    H134709   3.854   0.457   0.053 -1.0856  0.1457  0.1359
11591TIP3    H234710   3.889   0.434   0.199  0.6979 -0.8962 -0.4406
11592TIP3   OH234711   5.710   5.520   5.785 -0.0665 -0.3422 -0.5491
11592TIP3    H134712   5.771   5.456   5.750 -0.6096 -1.1817  0.0334
11592TIP3    H234713   5.708   5.590   5.720  1.0494 -0.5959 -0.8575
11593TIP3   OH234714   0.263   4.860   4.293 -0.1153 -0.0413 -0.3658
11593TIP3    H134715   0.344   4.906   4.315  2.0974 -2.8980 -2.0353
11593TIP3    H234716   0.245   4.885   4.202  1.9341 -3.3576 -1.8072
11594TIP3   OH234717   4.310   5.172   6.629 -0.0865 -0.6156  0.1732
11594TIP3    H134718   4.393   5.187   6.674 -0.4029  0.5924  0.3558
11594TIP3    H234719   4.309   5.077   6.613  1.0463 -0.7291  0.7016
11595TIP3   OH234720   7.137   4.894   6.654  0.1697 -0.4429  0.1080
11595TIP3    H134721   7.120   4.819   6.598  1.1703 -0.3790 -0.2853
11595TIP3    H234722   7.210   4.867   6.709 -0.2892 -0.2166  0.8401
11596TIP3   OH234723   2.711   6.388   5.979 -0.2371  0.7341  0.1053
11596TIP3    H134724   2.646   6.438   6.027 -1.1585  0.8739 -1.2570
11596TIP3    H234725   2.773   6.454   5.948  1.3678  0.4632  2.5582
11597TIP3   OH234726   6.961   6.576   4.131  0.0283  0.3017  0.2489
11597TIP3    H134727   6.917   6.661   4.133  0.6542  0.7263 -2.3336
11597TIP3    H234728   7.049   6.595   4.098  0.3676 -1.2636  0.2119
11598TIP3   OH234729   0.824   8.030   0.326 -0.0532  0.0361 -0.1298
11598TIP3    H134730   0.815   7.944   0.368  0.6238  0.8679  1.8038
11598TIP3    H234731   0.778   8.021   0.243 -0.4041 -2.0587  0.2567
11599TIP3   OH234732   4.712   0.453   0.765  0.0504 -0.5082 -0.4003
11599TIP3    H134733   4.775   0.523   0.780 -2.3292  1.9143 -1.3777
11599TIP3    H234734   4.761   0.386   0.717  2.2058  0.7167  0.0427
11600TIP3   OH234735   4.432   3.005   5.304 -0.1849 -0.1883 -0.1495
11600TIP3    H134736   4.397   2.922   5.271  0.4615 -1.1339  1.5170
11600TIP3    H234737   4.398   3.013   5.393  1.8267  0.0716  0.6277
11601TIP3   OH234738   6.470   4.103   5.539  0.2326  0.2151 -0.4029
11601TIP3    H134739   6.475   4.020   5.492 -1.9194  0.2802 -0.7736
11601TIP3    H234740   6.478   4.079   5.631 -0.5631 -0.4138 -0.4988
11602TIP3   OH234741   5.690   4.687   5.963  0.0582  0.5758  0.1239
11602TIP3    H134742   5.652   4.715   6.047 -3.0493  2.5040 -1.8352
11602TIP3    H234743   5.616   4.687   5.903  1.9633 -2.1944 -2.3295
11603TIP3   OH234744   3.669   3.621   0.608  0.3182 -0.6526  0.1244
11603TIP3    H134745   3.624   3.537   0.599 -1.3950  0.4636 -2.0698
11603TIP3    H234746   3.761   3.597   0.619 -0.1960 -2.8202 -0.0276
11604TIP3   OH234747   6.872   4.124   1.220  0.1370  0.0646  0.4410
11604TIP3    H134748   6.806   4.127   1.290 -0.1894  0.7073  0.1159
11604TIP3    H234749   6.862   4.037   1.181 -1.5628  0.6886 -0.5806
11605TIP3   OH234750   4.950   5.953   5.516  0.2106 -0.4230 -0.0595
11605TIP3    H134751   4.988   5.926   5.433 -0.7480  0.6367 -0.8495
11605TIP3    H234752   4.868   5.997   5.493  0.1564  0.2943  1.4047
11606TIP3   OH234753   0.979   6.348   0.562 -0.2210 -0.0122 -0.2141
11606TIP3    H134754   0.959   6.261   0.595 -0.2065 -0.3891 -1.1781
11606TIP3    H234755   0.898   6.398   0.574 -0.1918 -0.1250  0.4454
11607TIP3   OH234756   0.095   3.524   4.733  0.5345 -0.1364  0.0192
11607TIP3    H134757   0.045   3.449   4.764  0.2527  0.8167  1.9606
11607TIP3    H234758   0.105   3.510   4.639  0.7964 -2.7659  0.4260
11608TIP3   OH234759   7.589   4.856   6.028  0.2102  0.1700 -0.7097
11608TIP3    H134760   7.508   4.872   5.980  0.3467  0.1417 -0.9500
11608TIP3    H234761   7.562   4.849   6.120 -0.2574 -1.3268 -0.9610
11609TIP3   OH234762   3.826   1.658   1.534  0.5218  0.2808  0.3869
11609TIP3    H134763   3.907   1.673   1.485  0.0051  2.9534  0.2915
11609TIP3    H234764   3.758   1.653   1.467  0.1468  1.5032  0.6709
11610TIP3   OH234765   6.431   4.755   5.092  0.4794  0.3706 -0.3889
11610TIP3    H134766   6.379   4.695   5.040  0.9817 -0.3133 -0.1032
11610TIP3    H234767   6.522   4.736   5.067  0.7534 -0.3149  1.1132
11611TIP3   OH234768   6.092   5.293   5.488  0.2734  0.3412 -0.3546
11611TIP3    H134769   6.171   5.240   5.494  0.4644  0.5945 -0.5936
11611TIP3    H234770   6.119   5.380   5.517  0.3639  0.7062 -1.5122
11612TIP3   OH234771   6.149   4.077   5.253  0.7917  0.1103  0.0977
11612TIP3    H134772   6.155   4.126   5.335  0.1104 -0.8076  0.7246
11612TIP3    H234773   6.106   3.995   5.279  1.4456 -0.5819 -1.0097
11613TIP3   OH234774   2.774   4.194   5.430 -0.2810 -0.2928  0.3374
11613TIP3    H134775   2.846   4.132   5.446 -0.1281  0.2645  1.8620
11613TIP3    H234776   2.704   4.139   5.395  0.9986 -0.7871 -1.5204
11614TIP3   OH234777   5.024   4.537   6.312 -0.3244 -0.3365 -0.6394
11614TIP3    H134778   5.081   4.575   6.379  0.7701 -0.9752 -1.1949
11614TIP3    H234779   4.968   4.476   6.361  0.5728 -0.9170 -0.3273
11615TIP3   OH234780   6.243   3.361   6.568  0.3162 -0.0005  0.2109
11615TIP3    H134781   6.220   3.269   6.566 -0.3736  0.2024 -2.7876
11615TIP3    H234782   6.297   3.375   6.490  0.5733  2.0844  0.7134
11616TIP3   OH234783   5.702   3.426   5.804 -0.1062 -0.3978 -0.3043
11616TIP3    H134784   5.741   3.338   5.799  0.2657 -0.2392 -0.2093
11616TIP3    H234785   5.752   3.478   5.742  1.2560  0.3322  1.3462
11617TIP3   OH234786   6.526   3.038   6.226 -0.4447 -0.8179 -0.2409
11617TIP3    H134787   6.437   3.072   6.223 -0.2088 -0.2669 -2.0950
11617TIP3    H234788   6.573   3.098   6.285 -0.5906  0.7397 -1.6659
11618TIP3   OH234789   5.779   2.263   6.475  0.0320  0.1541 -0.3335
11618TIP3    H134790   5.860   2.252   6.425 -0.7242 -0.4001 -1.4357
11618TIP3    H234791   5.741   2.175   6.480 -1.4516  0.7101 -1.4450
11619TIP3   OH234792   2.626   0.393   0.851  0.3157  0.3286  0.3744
11619TIP3    H134793   2.562   0.402   0.921  1.6018 -1.7339  1.8659
11619TIP3    H234794   2.587   0.330   0.791  0.0728  0.6198  0.2233
11620TIP3   OH234795   3.863   3.678   6.107 -0.0268  0.2649 -0.5991
11620TIP3    H134796   3.794   3.662   6.172  0.0309 -3.3107 -1.2866
11620TIP3    H234797   3.943   3.682   6.159 -0.4325  1.9223 -0.0516
11621TIP3   OH234798   6.891   5.795   6.460  0.0912  0.3725  0.1302
11621TIP3    H134799   6.886   5.862   6.528 -0.9020  1.3726 -0.9167
11621TIP3    H234800   6.824   5.732   6.483  0.6960 -0.0233  0.8429
11622TIP3   OH234801   6.699   6.922   0.665 -0.7422  0.0980 -0.4639
11622TIP3    H134802   6.731   6.999   0.618  0.5955 -0.4514 -0.4790
11622TIP3    H234803   6.656   6.868   0.599 -2.5750  1.2925 -0.2715
11623TIP3   OH234804   4.819   4.905   4.721 -0.2142 -0.5969 -0.5542
11623TIP3    H134805   4.880   4.979   4.716  0.2723 -0.9572  0.0520
11623TIP3    H234806   4.866   4.833   4.678 -1.2602 -0.1766 -2.4415
11624TIP3   OH234807   4.761   5.316   6.333  0.2392 -0.2630  0.1389
11624TIP3    H134808   4.739   5.379   6.264  0.7682  0.8792  0.9850
11624TIP3    H234809   4.688   5.254   6.334 -0.3772  0.4456 -0.5901
11625TIP3   OH234810   5.360   3.699   6.058 -0.4179 -0.1911  0.3602
11625TIP3    H134811   5.320   3.615   6.079 -1.2002  0.0186 -0.2785
11625TIP3    H234812   5.428   3.679   5.995 -0.8177 -0.3092 -0.0357
11626TIP3   OH234813   4.875   5.658   4.120  0.8429 -0.2829  0.0165
11626TIP3    H134814   4.953   5.711   4.137  1.4430 -1.4147  0.8161
11626TIP3    H234815   4.809   5.693   4.180  0.8762  0.3521 -0.3108
11627TIP3   OH234816   7.834   6.088   3.771  0.5065  0.3718 -0.1465
11627TIP3    H134817   7.909   6.055   3.721  0.4670  0.6462 -0.3880
11627TIP3    H234818   7.866   6.096   3.861  0.3360 -0.9395  0.0471
11628TIP3   OH234819   6.321   4.467   6.375 -0.4912  0.3332 -0.1359
11628TIP3    H134820   6.329   4.472   6.280  0.8565 -0.1315 -0.0599
11628TIP3    H234821   6.359   4.382   6.398  2.4221  1.8964  1.1187
11629TIP3   OH234822   6.223   4.427   6.952  0.4132  0.6150  0.3978
11629TIP3    H134823   6.177   4.443   6.870 -1.3132  1.4274  1.4888
11629TIP3    H234824   6.314   4.450   6.934 -0.5039  3.8993 -0.4037
11630TIP3   OH234825   7.465   4.388   5.859 -0.3469 -0.5614  0.1332
11630TIP3    H134826   7.521   4.464   5.846 -1.8211  0.6524  0.7313
11630TIP3    H234827   7.402   4.415   5.926 -0.4901 -2.5219  0.8401
11631TIP3   OH234828   5.918   3.907   4.733 -0.6338 -0.4087 -0.5287
11631TIP3    H134829   5.880   3.839   4.788  0.0772  0.8544  1.5585
11631TIP3    H234830   5.887   3.989   4.771 -0.4302  0.4860 -2.2445
11632TIP3   OH234831   7.124   5.525   5.253 -0.3831  0.4123 -0.0933
11632TIP3    H134832   7.049   5.545   5.310 -0.0618 -1.2289  0.9348
11632TIP3    H234833   7.105   5.571   5.171 -1.4436  1.8083  0.9173
11633TIP3   OH234834   1.997   1.305   0.258  0.2567  0.3226 -0.8524
11633TIP3    H134835   2.014   1.255   0.178 -1.9825  0.6746 -1.5860
11633TIP3    H234836   1.960   1.242   0.319  0.4541  0.4063 -0.6442
11634TIP3   OH234837   4.130   5.198   6.925 -0.5552  0.0880 -0.2922
11634TIP3    H134838   4.072   5.123   6.912  1.5683 -1.6689 -0.0881
11634TIP3    H234839   4.205   5.180   6.868  0.1306  1.9208 -0.0069
11635TIP3   OH234840   3.792   6.102   4.549 -0.2397 -0.3738 -0.2673
11635TIP3    H134841   3.755   6.133   4.466  0.6544  2.8330  0.4517
11635TIP3    H234842   3.878   6.067   4.525 -0.2810 -0.1167 -0.7951
11636TIP3   OH234843   6.944   3.214   6.749  0.3085  0.4853 -0.1528
11636TIP3    H134844   6.922   3.224   6.657 -1.1595 -0.1730  0.1220
11636TIP3    H234845   6.942   3.120   6.765 -0.7032  0.6711  0.8500
11637TIP3   OH234846   5.807   5.832   6.365 -0.6022  0.6912 -0.2121
11637TIP3    H134847   5.785   5.899   6.430 -0.4230  0.4214  0.1262
11637TIP3    H234848   5.776   5.750   6.404  0.2950  0.4118 -0.0864
11638TIP3   OH234849   6.854   2.996   3.582 -0.0090  0.1357  0.0543
11638TIP3    H134850   6.764   3.028   3.574 -0.1352 -0.3784 -0.6596
11638TIP3    H234851   6.860   2.926   3.517  0.8388  0.0083  0.2663
11639TIP3   OH234852   6.713   4.084   6.031  0.2141 -0.4032  0.2222
11639TIP3    H134853   6.648   4.013   6.038  1.7028 -1.8555 -0.3159
11639TIP3    H234854   6.707   4.112   5.940  0.4898 -0.6824  0.1177
11640TIP3   OH234855   5.033   4.311   5.452 -0.2350  0.5582  0.4062
11640TIP3    H134856   4.939   4.314   5.432 -0.0602  2.2731 -0.1893
11640TIP3    H234857   5.072   4.268   5.377 -0.8191 -2.4731  1.7666
11641TIP3   OH234858   4.766   4.781   6.325 -0.3848  0.2069  0.2788
11641TIP3    H134859   4.832   4.735   6.272 -1.7458 -2.4106  0.8059
11641TIP3    H234860   4.804   4.784   6.413 -1.3638 -2.1709  0.7991
11642TIP3   OH234861   5.560   5.573   5.119 -0.0843 -0.2924  0.6921
11642TIP3    H134862   5.480   5.529   5.091 -0.7722  0.2134  1.8497
11642TIP3    H234863   5.598   5.513   5.184  1.3908 -1.3554 -1.0992
11643TIP3   OH234864   5.253   4.685   5.737 -0.5656  0.0148  0.3258
11643TIP3    H134865   5.225   4.766   5.780 -0.4003 -0.6618  1.7327
11643TIP3    H234866   5.180   4.625   5.749  0.1969 -0.7471  1.2382
11644TIP3   OH234867   5.249   6.875   4.584 -0.5114 -0.0810 -0.6079
11644TIP3    H134868   5.254   6.781   4.598  1.2416  0.0602 -0.2229
11644TIP3    H234869   5.318   6.912   4.640  0.2874  1.2543 -2.4165
11645TIP3   OH234870   5.959   5.891   6.154 -0.3231 -0.1401 -0.1418
11645TIP3    H134871   5.923   5.870   6.240 -0.9471  2.2822  0.2194
11645TIP3    H234872   5.894   5.857   6.092  0.0839 -1.8057  0.3276
11646TIP3   OH234873   5.091   3.106   4.984 -0.1307  0.5871  0.2961
11646TIP3    H134874   5.002   3.126   4.955 -0.2185  1.9021  1.4339
11646TIP3    H234875   5.134   3.191   4.990  0.6787  0.1029  1.4483
11647TIP3   OH234876   5.768   6.002   5.914  0.3416  0.2138  0.0285
11647TIP3    H134877   5.720   6.017   5.833 -1.0783  0.3403  0.8840
11647TIP3    H234878   5.785   5.908   5.915 -1.3316 -0.0995  0.5044
11648TIP3   OH234879   7.839   6.714   3.177 -0.3474  0.6032  0.2511
11648TIP3    H134880   7.900   6.768   3.227 -0.3598  1.5352 -0.7207
11648TIP3    H234881   7.813   6.644   3.237  0.4776  1.0894  1.1747
11649TIP3   OH234882   4.745   2.412   5.705  0.0873 -0.1095 -0.6896
11649TIP3    H134883   4.724   2.332   5.657  0.1234 -0.7339  0.3222
11649TIP3    H234884   4.806   2.384   5.772  0.5897  0.8887 -0.7290
11650TIP3   OH234885   7.288   3.852   4.501  0.0585  0.2918 -0.3800
11650TIP3    H134886   7.354   3.858   4.431  0.0652  0.6511 -0.3434
11650TIP3    H234887   7.339   3.851   4.582  0.0750 -0.5982 -0.3903
11651TIP3   OH234888   5.489   6.871   6.546  0.1978  0.0574  0.1342
11651TIP3    H134889   5.440   6.808   6.599  0.6933  0.0157  0.5390
11651TIP3    H234890   5.539   6.923   6.609  0.5950  0.1721 -0.2739
11652TIP3   OH234891   6.286   4.983   5.388  0.0776  0.0379  0.2265
11652TIP3    H134892   6.336   4.907   5.418 -0.8968 -0.6579  0.1130
11652TIP3    H234893   6.235   5.009   5.464 -0.2797  0.0081 -0.0032
11653TIP3   OH234894   4.693   5.290   5.342 -0.1219  0.0506 -0.0027
11653TIP3    H134895   4.741   5.253   5.416 -0.1003  0.5501  0.2362
11653TIP3    H234896   4.762   5.325   5.285 -0.1572  0.0061 -0.0718
11654TIP3   OH234897   4.588   4.555   6.030  0.0430  1.0006 -0.4431
11654TIP3    H134898   4.643   4.604   5.969  1.9340  0.9117  1.1303
11654TIP3    H234899   4.514   4.526   5.977  1.7697  0.6423 -2.7855
11655TIP3   OH234900   6.814   4.005   3.490  0.2205 -0.1494  0.0638
11655TIP3    H134901   6.868   4.077   3.522  0.0634  0.4863 -1.0467
11655TIP3    H234902   6.851   3.927   3.530  0.6217  0.5153  0.9984
11656TIP3   OH234903   8.308   2.622   4.066 -0.0588  0.3560 -0.1705
11656TIP3    H134904   8.228   2.668   4.088  0.2614  0.7652  0.1388
11656TIP3    H234905   8.301   2.605   3.972  0.4638  2.2832 -0.5761
11657TIP3   OH234906   4.524   4.658   5.483 -0.1736 -0.6294  0.0936
11657TIP3    H134907   4.529   4.721   5.555 -1.2121  0.0337 -0.4082
11657TIP3    H234908   4.442   4.611   5.499  0.5649 -1.8187  0.4327
11658TIP3   OH234909   6.635   3.571   4.540  0.0894 -0.0502  0.3945
11658TIP3    H134910   6.553   3.604   4.577 -0.1761  0.2189 -0.4196
11658TIP3    H234911   6.652   3.628   4.465  0.3936 -0.8569 -0.1544
11659TIP3   OH234912   5.041   0.089   0.169  0.5595 -0.2049  0.0847
11659TIP3    H134913   4.995   0.006   0.154  1.0129 -0.3126 -0.7564
11659TIP3    H234914   5.086   0.106   0.086  0.7893  0.6812  0.3895
11660TIP3   OH234915   7.882   6.332   0.544 -0.3968 -0.1560 -0.4018
11660TIP3    H134916   7.857   6.362   0.456 -1.2253  1.4411  0.3469
11660TIP3    H234917   7.799   6.326   0.591  0.1892  0.5398  0.7372
11661TIP3   OH234918   7.477   4.351   1.350  0.2512 -0.0774 -0.5449
11661TIP3    H134919   7.489   4.439   1.385  0.4638  0.0583 -0.9667
11661TIP3    H234920   7.458   4.364   1.257 -1.2367 -0.3797 -0.3046
11662TIP3   OH234921   6.435   2.819   6.363 -0.1401  0.1990  0.1838
11662TIP3    H134922   6.497   2.753   6.331 -0.2753 -0.6054  1.5229
11662TIP3    H234923   6.459   2.899   6.317  1.5457 -0.2415  0.2467
11663TIP3   OH234924   6.691   3.867   6.360  0.4186 -0.2831 -0.6500
11663TIP3    H134925   6.632   3.836   6.291 -0.6113 -0.8437  0.4504
11663TIP3    H234926   6.691   3.797   6.425  1.7876  0.0110 -0.3185
11664TIP3   OH234927   7.669   5.099   5.623  0.1470  0.4285 -0.2816
11664TIP3    H134928   7.622   5.180   5.643  1.1566  1.6351 -2.5963
11664TIP3    H234929   7.601   5.034   5.610 -0.6517  0.6490  2.4668
11665TIP3   OH234930   3.801   4.681   4.486 -0.0437  0.2698 -1.2724
11665TIP3    H134931   3.730   4.681   4.551  0.1455  1.5679 -1.0455
11665TIP3    H234932   3.878   4.653   4.535  0.5690  3.3311 -0.3467
11666TIP3   OH234933   4.376   2.414   5.214 -0.1977 -0.0592 -0.3629
11666TIP3    H134934   4.376   2.326   5.252 -0.8230  0.5707  1.0965
11666TIP3    H234935   4.424   2.468   5.276  0.6455  0.5373 -1.5139
11667TIP3   OH234936   7.394   6.414   3.183 -0.1235  0.2882 -0.3254
11667TIP3    H134937   7.350   6.336   3.215  0.9880  0.1432  0.9106
11667TIP3    H234938   7.446   6.384   3.109  0.7095 -0.2764  0.4705
11668TIP3   OH234939   4.978   3.519   5.391  0.0423  0.2602  0.2414
11668TIP3    H134940   5.067   3.508   5.424 -0.7224 -1.0408  1.9641
11668TIP3    H234941   4.932   3.564   5.462 -1.2364 -1.1246  0.3093
11669TIP3   OH234942   6.641   3.826   4.389 -0.4848  0.0030  0.1153
11669TIP3    H134943   6.642   3.915   4.423 -0.9877  0.3758 -0.8394
11669TIP3    H234944   6.560   3.820   4.338  0.7071 -0.2691 -1.7721
11670TIP3   OH234945   6.004   5.175   5.833  0.1317  0.6601  0.4523
11670TIP3    H134946   6.076   5.204   5.889  2.2275 -1.9076 -0.8130
11670TIP3    H234947   5.940   5.139   5.894  1.2854  0.1986  1.4168
11671TIP3   OH234948   8.447   5.953   0.490 -0.3809  0.6935  0.2322
11671TIP3    H134949   8.456   5.871   0.442 -3.1476 -0.5487  1.7115
11671TIP3    H234950   8.501   5.940   0.568 -0.7123  0.3024  0.4017
11672TIP3   OH234951   7.523   4.861   5.608 -0.4287 -0.0807  0.8353
11672TIP3    H134952   7.605   4.811   5.606  1.2258  2.5620 -1.1576
11672TIP3    H234953   7.477   4.835   5.529  0.1514  0.9993  0.1189
11673TIP3   OH234954   5.696   2.282   0.510 -0.0850 -0.0949 -0.0752
11673TIP3    H134955   5.649   2.260   0.590 -0.0522  1.8164  0.4965
11673TIP3    H234956   5.775   2.228   0.512 -1.9256 -2.9159 -0.7661
11674TIP3   OH234957   7.668   5.543   4.944 -0.4612  0.2853  0.3027
11674TIP3    H134958   7.760   5.566   4.927 -0.5652 -0.2035 -0.9680
11674TIP3    H234959   7.622   5.627   4.944 -0.3247  0.3712 -1.0688
11675TIP3   OH234960   6.006   4.202   6.274  0.0283 -0.1331  0.2278
11675TIP3    H134961   5.965   4.243   6.197  1.8708  0.6233 -0.3743
11675TIP3    H234962   5.945   4.132   6.299 -1.9513  1.3871 -0.2230
11676TIP3   OH234963   6.825   4.425   5.405 -0.3667 -0.1123 -0.3856
11676TIP3    H134964   6.897   4.415   5.467 -0.2292 -0.0032 -0.5246
11676TIP3    H234965   6.751   4.382   5.446  0.1272 -1.4041 -0.8258
11677TIP3   OH234966   4.571   0.918   0.605  0.5362  0.2915  0.3912
11677TIP3    H134967   4.608   0.873   0.529  1.2414  0.3509  0.6961
11677TIP3    H234968   4.533   0.848   0.658 -2.5359  0.5229 -1.4064
11678TIP3   OH234969   7.470   5.106   3.813 -0.7284 -0.4294  0.1234
11678TIP3    H134970   7.430   5.165   3.877  0.0073  1.9701 -1.5523
11678TIP3    H234971   7.547   5.070   3.858  0.3739  2.0281  0.3109
11679TIP3   OH234972   6.221   2.360   1.134  0.2656 -0.0564  0.3423
11679TIP3    H134973   6.292   2.301   1.159 -0.4794 -0.3156  1.9015
11679TIP3    H234974   6.146   2.332   1.187 -1.0531  0.1242 -1.3927
11680TIP3   OH234975   1.862   1.594   0.357  0.3892 -0.2863  0.4761
11680TIP3    H134976   1.881   1.506   0.390  0.4940 -0.0866  0.9476
11680TIP3    H234977   1.821   1.639   0.430  0.2882  0.0433  0.2186
11681TIP3   OH234978   5.674   6.537   5.322  0.2841  0.4774  0.2255
11681TIP3    H134979   5.639   6.624   5.342 -3.4413 -0.6370 -1.0055
11681TIP3    H234980   5.678   6.493   5.407 -1.3871  0.6605  0.4247
11682TIP3   OH234981   0.094   7.229   0.221 -0.3898 -0.3925 -0.3800
11682TIP3    H134982   0.033   7.158   0.240 -0.1867 -0.1253  1.3768
11682TIP3    H234983   0.082   7.291   0.293  1.9953 -0.3848  0.0625
11683TIP3   OH234984   6.321   2.524   6.469 -1.0606  0.4554 -0.1451
11683TIP3    H134985   6.248   2.498   6.525 -0.3470 -1.4217 -0.0375
11683TIP3    H234986   6.322   2.458   6.400  2.0289 -0.9604  1.1897
11684TIP3   OH234987   7.246   3.528   5.925 -0.2285  0.6924 -0.1508
11684TIP3    H134988   7.263   3.434   5.927 -0.2680  0.6697 -0.8379
11684TIP3    H234989   7.282   3.561   6.008 -1.4564 -0.1346  0.7479
11685TIP3   OH234990   7.220   4.239   4.623 -0.0293  0.0022 -0.0638
11685TIP3    H134991   7.276   4.222   4.698  1.1976  0.5346 -0.8497
11685TIP3    H234992   7.147   4.290   4.658 -1.1399 -2.5089  1.3545
11686TIP3   OH234993   1.788   0.949   0.187 -0.2039  0.3576 -0.1825
11686TIP3    H134994   1.764   1.038   0.211 -1.3187 -0.0715  0.2926
11686TIP3    H234995   1.812   0.907   0.269 -0.1446  0.0761 -0.3408
11687TIP3   OH234996   4.293   0.721   1.587 -0.6249  0.3149 -0.2137
11687TIP3    H134997   4.218   0.706   1.645 -1.7976 -1.1753 -2.0820
11687TIP3    H234998   4.254   0.756   1.507  0.8362  0.7999 -0.7266
11688TIP3   OH234999   6.112   3.834   5.370 -0.3027 -0.2091  0.0077
11688TIP3    H135000   6.096   3.742   5.393  0.7329 -0.2633  0.5736
11688TIP3    H235001   6.096   3.882   5.452 -1.5490  0.2093 -0.4708
11689TIP3   OH235002   5.276   0.899   1.328 -0.4104 -0.4088  0.3468
11689TIP3    H135003   5.244   0.810   1.340  0.1813 -0.8248 -1.0644
11689TIP3    H235004   5.351   0.906   1.388  0.0471 -1.1312 -0.1407
11690TIP3   OH235005   5.606   6.837   5.323  0.2226  0.1830  0.6079
11690TIP3    H135006   5.511   6.824   5.332  0.2389 -2.9916 -2.7424
11690TIP3    H235007   5.622   6.834   5.229  3.8220 -0.4102  1.1592
11691TIP3   OH235008   5.532   5.179   6.458  0.1289  0.1147  0.0950
11691TIP3    H135009   5.565   5.102   6.412 -2.2297 -0.3889 -0.8038
11691TIP3    H235010   5.542   5.251   6.395  0.4028  0.1576  0.1856
11692TIP3   OH235011   5.688   4.916   6.358 -0.3651 -0.3249  0.4903
11692TIP3    H135012   5.778   4.949   6.365 -0.6929  0.6350  0.1710
11692TIP3    H235013   5.675   4.864   6.438  0.9072 -1.5421 -0.0638
11693TIP3   OH235014   5.470   5.748   6.077 -0.1452 -0.1908  0.0660
11693TIP3    H135015   5.407   5.720   6.012 -1.2760  0.9046  0.6747
11693TIP3    H235016   5.422   5.808   6.133  1.5078  0.8997  0.3574
11694TIP3   OH235017   5.460   4.882   5.176  0.0288  0.0300  0.1679
11694TIP3    H135018   5.491   4.843   5.258  0.2924 -1.0635 -0.4347
11694TIP3    H235019   5.518   4.956   5.160  1.2367 -0.9510 -0.0541
11695TIP3   OH235020   6.680   3.462   6.234  0.1629  0.2492 -0.7076
11695TIP3    H135021   6.756   3.458   6.293  0.3026  0.2182 -0.8902
11695TIP3    H235022   6.718   3.474   6.147 -0.0029 -0.8066 -0.9246
11696TIP3   OH235023   6.786   2.987   5.084  0.0034  0.1862 -0.2358
11696TIP3    H135024   6.803   3.064   5.029  0.2710 -1.2204 -2.1838
11696TIP3    H235025   6.864   2.933   5.073 -1.2970 -1.5604 -0.9827
11697TIP3   OH235026   8.245   5.878   0.239  0.0246  0.0566  0.0101
11697TIP3    H135027   8.256   5.863   0.333 -1.3385  0.6177  0.2745
11697TIP3    H235028   8.262   5.971   0.227  0.7748 -0.1314 -0.3973
11698TIP3   OH235029   6.464   5.270   5.445 -0.1533  0.3449  0.4963
11698TIP3    H135030   6.535   5.208   5.461 -0.0866 -0.0876 -1.3205
11698TIP3    H235031   6.432   5.293   5.532  0.2239 -1.7644  1.2283
11699TIP3   OH235032   7.454   4.733   3.340 -0.5509 -0.1566  0.1027
11699TIP3    H135033   7.516   4.708   3.408 -1.3803  1.1275  1.3564
11699TIP3    H235034   7.457   4.829   3.339 -1.3469 -0.1300 -0.9254
11700TIP3   OH235035   5.494   4.594   6.332  0.0355  0.0285 -0.5013
11700TIP3    H135036   5.581   4.554   6.334 -0.7469 -1.6692  0.9068
11700TIP3    H235037   5.504   4.678   6.377  0.6747 -0.7481  0.8213
11701TIP3   OH235038   3.879   0.775   0.065 -0.3670  0.0651  0.1414
11701TIP3    H135039   3.895   0.747  -0.025 -0.3592  0.5400 -0.0088
11701TIP3    H235040   3.871   0.694   0.115 -0.3448 -0.1991 -0.2833
11702TIP3   OH235041   4.922   3.982   4.640 -0.1725  0.7037 -0.3061
11702TIP3    H135042   4.891   3.891   4.647 -0.2843  0.6813 -1.0705
11702TIP3    H235043   4.953   3.990   4.550 -1.3692  1.8092 -0.6344
11703TIP3   OH235044   4.367   5.569   6.152 -0.3119 -0.1597  0.5891
11703TIP3    H135045   4.372   5.524   6.236 -0.9878  1.2620  1.4003
11703TIP3    H235046   4.311   5.645   6.168  0.6729  0.8903 -0.8009
11704TIP3   OH235047   7.035   5.816   4.713 -0.0201  0.4332 -0.6011
11704TIP3    H135048   7.045   5.887   4.649 -0.0277  0.9342 -0.0469
11704TIP3    H235049   6.958   5.841   4.764  0.0503  0.0817 -0.3299
11705TIP3   OH235050   8.308   5.318   5.648  0.0284 -0.0485  0.1400
11705TIP3    H135051   8.314   5.228   5.680 -0.4021 -0.3993 -0.7301
11705TIP3    H235052   8.305   5.372   5.727  1.1948 -0.7358  0.6554
11706TIP3   OH235053   6.654   5.415   6.631  0.3928  0.5400  0.2132
11706TIP3    H135054   6.612   5.412   6.717 -3.2430 -0.0899 -1.4762
11706TIP3    H235055   6.646   5.506   6.603 -0.9996  0.1804 -0.6136
11707TIP3   OH235056   5.808   4.148   5.728  0.2724 -0.6375  0.1946
11707TIP3    H135057   5.873   4.208   5.692 -0.2612  0.5933  1.2622
11707TIP3    H235058   5.736   4.204   5.758  0.1419 -1.7312  1.9978
11708TIP3   OH235059   6.806   4.742   6.746  0.7139 -0.1643 -0.2677
11708TIP3    H135060   6.839   4.824   6.712 -1.0537  0.7025  0.0327
11708TIP3    H235061   6.724   4.727   6.698 -0.0109 -0.6944  1.0972
11709TIP3   OH235062   6.894   0.486   1.340 -0.0186  0.3135 -0.1501
11709TIP3    H135063   6.834   0.521   1.406 -0.1904  0.7815 -0.5462
11709TIP3    H235064   6.838   0.455   1.269  0.2150  1.5869 -0.9261
11710TIP3   OH235065   6.381   6.202   5.000 -0.0939 -0.2664  0.1008
11710TIP3    H135066   6.455   6.150   4.970  0.2930 -0.6372  1.6291
11710TIP3    H235067   6.366   6.265   4.930  1.8843  0.0360 -0.0810
11711TIP3   OH235068   7.306   5.212   4.012  0.1015 -0.7010 -0.1073
11711TIP3    H135069   7.369   5.188   4.081  1.6857  0.4145 -1.1306
11711TIP3    H235070   7.251   5.278   4.053  0.4319 -0.7286  0.3928
11712TIP3   OH235071   7.651   5.913   3.008 -0.4228 -0.5816 -0.2336
11712TIP3    H135072   7.640   5.821   3.034  0.0439 -0.5789 -0.0376
11712TIP3    H235073   7.736   5.916   2.965 -1.1804 -0.5849 -1.7712
11713TIP3   OH235074   5.281   5.328   5.971 -0.0726 -0.2429  0.1895
11713TIP3    H135075   5.267   5.238   6.002  0.6854 -0.5488 -0.3605
11713TIP3    H235076   5.370   5.329   5.938 -0.1796  0.6399 -0.0875
11714TIP3   OH235077   7.745   4.098   3.986 -0.2583  0.5836 -0.0127
11714TIP3    H135078   7.756   4.180   4.034  0.1062 -0.1321  1.1461
11714TIP3    H235079   7.832   4.058   3.988 -0.8854 -0.7754  1.1861
11715TIP3   OH235080   7.402   3.782   3.857 -0.5096  0.3216 -0.2383
11715TIP3    H135081   7.338   3.826   3.913 -0.6282  0.1152 -0.2129
11715TIP3    H235082   7.485   3.792   3.902 -0.3698  1.3714 -0.7040
11716TIP3   OH235083   7.617   2.933   4.370  0.0558  0.4557 -0.2665
11716TIP3    H135084   7.562   3.002   4.408 -0.7719  0.4619 -1.4430
11716TIP3    H235085   7.590   2.853   4.414 -0.0264  0.6533  0.0432
11717TIP3   OH235086   5.771   4.677   5.169 -0.2772 -0.2461 -0.0267
11717TIP3    H135087   5.719   4.643   5.096 -1.6222 -0.4199  0.9778
11717TIP3    H235088   5.837   4.610   5.185 -1.0970 -1.0410  0.0668
11718TIP3   OH235089   6.272   3.848   6.291  0.4373 -0.1120  0.1882
11718TIP3    H135090   6.229   3.824   6.373  2.3261  0.4179  1.3440
11718TIP3    H235091   6.358   3.807   6.296  0.9991  0.8858 -1.0163
11719TIP3   OH235092   7.399   5.402   5.861  0.4815 -0.0842 -0.1345
11719TIP3    H135093   7.359   5.471   5.914 -1.7490 -0.8618 -0.7250
11719TIP3    H235094   7.356   5.322   5.891  0.3753 -0.7303 -1.9630
11720TIP3   OH235095   2.592   1.194   0.636  0.5478  0.3208  0.2828
11720TIP3    H135096   2.537   1.120   0.663 -0.3397  1.5588  1.9392
11720TIP3    H235097   2.538   1.242   0.573  1.2857 -0.6195 -1.1229
11721TIP3   OH235098   6.507   4.198   4.511  0.1558  0.4138 -0.3302
11721TIP3    H135099   6.498   4.116   4.559  1.5383  0.0622 -0.6618
11721TIP3    H235100   6.578   4.244   4.555  1.1458  0.2777 -1.7800
11722TIP3   OH235101   2.049   7.168   0.320  0.5815  0.0190 -0.0303
11722TIP3    H135102   2.003   7.185   0.238  0.1631  0.3509  0.2730
11722TIP3    H235103   2.126   7.226   0.316  0.8598 -0.3793 -0.4390
11723TIP3   OH235104   5.365   2.035   4.385 -0.1681  0.4833 -0.0022
11723TIP3    H135105   5.355   2.099   4.315 -1.2122  1.0585  0.6580
11723TIP3    H235106   5.448   2.059   4.428 -0.5926  1.4319  0.2886
11724TIP3   OH235107   6.975   4.917   5.685 -0.2546 -0.5443  0.0544
11724TIP3    H135108   6.889   4.887   5.656  0.0864 -0.5027 -1.0380
11724TIP3    H235109   6.995   4.990   5.626  0.1730 -0.0430  0.8271
11725TIP3   OH235110   7.503   2.760   6.267 -0.7197 -0.2104 -1.0906
11725TIP3    H135111   7.439   2.766   6.338 -0.0657  1.9417 -0.6525
11725TIP3    H235112   7.451   2.765   6.187 -1.4737 -2.7562 -0.7998
11726TIP3   OH235113   6.676   4.516   3.682 -0.1099  0.3020 -0.0463
11726TIP3    H135114   6.709   4.583   3.622 -1.5238  0.9010 -0.1833
11726TIP3    H235115   6.586   4.501   3.653 -0.2366 -0.6794  0.8356
11727TIP3   OH235116   4.413   2.441   3.936  0.2246 -0.0643  0.3706
11727TIP3    H135117   4.451   2.360   3.969 -1.2209 -0.7690  0.3067
11727TIP3    H235118   4.480   2.476   3.877  0.5691 -1.5608 -0.1370
11728TIP3   OH235119   2.884   0.158   3.951  0.0904 -0.2920  0.2020
11728TIP3    H135120   2.910   0.134   3.862  0.8673 -1.3516  0.6944
11728TIP3    H235121   2.960   0.135   4.004 -0.7905 -0.7254  1.2888
11729TIP3   OH235122   6.550   2.655   6.828 -0.3472  0.0078 -0.5834
11729TIP3    H135123   6.600   2.582   6.793  0.9730  0.4971  0.2375
11729TIP3    H235124   6.489   2.679   6.758 -1.5241 -2.5264 -0.4960
11730TIP3   OH235125   4.493   5.277   5.053  0.0107  0.1045  0.8293
11730TIP3    H135126   4.493   5.199   5.108  3.1364  0.3897  1.3534
11730TIP3    H235127   4.511   5.245   4.965  0.8374  0.1809  0.9675
11731TIP3   OH235128   7.741   5.323   4.199 -0.0529  0.4080 -0.2767
11731TIP3    H135129   7.725   5.303   4.107 -1.7909  0.2656  0.0443
11731TIP3    H235130   7.821   5.275   4.220 -0.5367 -0.8841 -1.2876
11732TIP3   OH235131   8.148   5.910   6.209 -0.1640  0.2093 -0.3716
11732TIP3    H135132   8.103   5.950   6.283 -0.2892 -0.1541 -0.2498
11732TIP3    H235133   8.241   5.916   6.232 -0.2230 -0.2981  0.0228
11733TIP3   OH235134   7.181   6.137   4.350  0.4640  0.0861 -0.3503
11733TIP3    H135135   7.270   6.120   4.318  0.5809  0.5165 -0.2637
11733TIP3    H235136   7.148   6.205   4.292  0.6877  0.8910  0.4625
11734TIP3   OH235137   2.457   7.273   0.574  0.1815 -0.2559 -0.2102
11734TIP3    H135138   2.534   7.261   0.629  0.7375 -0.7423 -1.0890
11734TIP3    H235139   2.482   7.339   0.510 -0.4749  0.3318  0.1252
11735TIP3   OH235140   6.453   4.009   6.106  0.1733 -0.1101  0.0314
11735TIP3    H135141   6.494   4.071   6.166  0.9480  0.9224 -1.5414
11735TIP3    H235142   6.375   3.980   6.153 -0.3553  2.2510  0.7233
11736TIP3   OH235143   6.193   5.926   3.470  0.5964 -0.1194  0.2253
11736TIP3    H135144   6.269   5.973   3.434  1.1899  0.5069  2.2200
11736TIP3    H235145   6.131   5.995   3.494  0.2308 -0.5148  0.4315
11737TIP3   OH235146   3.708   6.589   5.712 -0.3008 -0.0158 -0.1032
11737TIP3    H135147   3.761   6.571   5.634 -0.7309 -0.3273 -0.3253
11737TIP3    H235148   3.760   6.555   5.785 -0.5318 -1.0222 -0.3946
11738TIP3   OH235149   4.134   2.668   0.189 -0.4891 -0.0613 -0.0186
11738TIP3    H135150   4.198   2.739   0.178  0.2405 -0.8598 -1.1356
11738TIP3    H235151   4.063   2.691   0.129 -0.1152 -0.4245 -0.6026
11739TIP3   OH235152   5.093   5.047   5.704 -0.3325  0.6803 -0.1007
11739TIP3    H135153   5.170   5.006   5.743  0.6047  0.8730 -1.7303
11739TIP3    H235154   5.086   5.131   5.750  0.5810  0.7847 -0.1413
11740TIP3   OH235155   5.789   4.129   4.115  0.0106  0.3757 -0.3359
11740TIP3    H135156   5.727   4.087   4.175 -0.5487  0.5189 -0.8192
11740TIP3    H235157   5.851   4.173   4.173  0.6549 -1.1599  0.1938
11741TIP3   OH235158   5.797   7.514   4.805 -0.3608  0.4864 -0.1055
11741TIP3    H135159   5.812   7.598   4.762  1.9116 -0.0822 -0.5318
11741TIP3    H235160   5.703   7.509   4.819 -1.0198  1.2761 -3.8526
11742TIP3   OH235161   7.034   3.213   6.303 -0.0810  0.3686  0.1195
11742TIP3    H135162   7.007   3.279   6.239  3.5159  0.1164 -1.7670
11742TIP3    H235163   7.068   3.263   6.376 -0.2496  0.6250  0.0247
11743TIP3   OH235164   3.179   0.090   0.177 -0.0757  0.1756  0.3516
11743TIP3    H135165   3.221   0.068   0.261 -0.2518  2.2650  1.0046
11743TIP3    H235166   3.250   0.084   0.113  0.0238 -1.6007  0.5791
11744TIP3   OH235167   7.624   3.686   5.631  0.3606  0.0409  0.5023
11744TIP3    H135168   7.701   3.696   5.574  0.2917 -1.8967  0.0284
11744TIP3    H235169   7.661   3.664   5.717  0.3429 -1.0738  0.2309
11745TIP3   OH235170   6.228   6.580   6.467 -0.0750  0.0928 -0.1548
11745TIP3    H135171   6.159   6.536   6.516  0.5199 -1.6165 -0.8067
11745TIP3    H235172   6.266   6.643   6.529 -1.8812  0.7130  0.3475
11746TIP3   OH235173   4.370   3.258   5.196 -0.2589 -0.7920 -0.1028
11746TIP3    H135174   4.367   3.169   5.231 -1.1926  0.2532  2.6121
11746TIP3    H235175   4.291   3.266   5.142 -0.5415 -1.3822  0.2187
11747TIP3   OH235176   5.902   4.332   4.355  0.4190 -0.0352  0.2092
11747TIP3    H135177   5.996   4.349   4.345  0.4978 -1.3850 -1.6116
11747TIP3    H235178   5.861   4.416   4.338  1.3042  0.6037  1.1723
11748TIP3   OH235179   5.311   5.112   6.628 -0.0295 -0.1112  0.2634
11748TIP3    H135180   5.248   5.185   6.621  1.0530  0.8122  0.0233
11748TIP3    H235181   5.383   5.137   6.570  1.1338 -0.5589  1.4911
11749TIP3   OH235182   1.466   0.450   0.441 -0.0469  0.1247 -0.0504
11749TIP3    H135183   1.387   0.408   0.410  0.9458  0.7875 -3.7898
11749TIP3    H235184   1.437   0.511   0.509 -2.9056  1.0612 -2.0328
11750TIP3   OH235185   7.006   6.084   5.124 -0.2364 -0.7396 -0.2056
11750TIP3    H135186   7.043   5.999   5.099 -0.4332 -0.3503 -1.8862
11750TIP3    H235187   6.947   6.064   5.197  0.3797 -1.9197 -0.0265
11751TIP3   OH235188   6.849   5.269   5.466 -0.5585  0.2420  0.3266
11751TIP3    H135189   6.913   5.277   5.396 -0.2492 -0.5164  0.5214
11751TIP3    H235190   6.900   5.273   5.547 -0.8614  0.6407  0.5037
11752TIP3   OH235191   6.463   4.069   5.797 -0.4711  0.2259  0.0352
11752TIP3    H135192   6.469   4.147   5.852 -1.4657 -0.1801  0.7268
11752TIP3    H235193   6.451   3.997   5.858 -0.1384 -0.4089 -0.6364
11753TIP3   OH235194   5.628   5.656   2.772 -0.5612  0.7354  0.0787
11753TIP3    H135195   5.665   5.625   2.855 -3.9865  1.0868  1.8437
11753TIP3    H235196   5.613   5.576   2.721  2.1979  0.5692 -0.5457
11754TIP3   OH235197   7.560   4.843   3.695 -0.0103  0.0370 -0.1584
11754TIP3    H135198   7.605   4.862   3.777 -1.1624 -0.4068  0.5987
11754TIP3    H235199   7.467   4.846   3.718 -0.3167 -1.8418 -1.0295
11755TIP3   OH235200   5.877   0.679   0.839 -0.3808 -0.6192 -0.3750
11755TIP3    H135201   5.921   0.649   0.760  1.3027 -1.0254  0.6918
11755TIP3    H235202   5.810   0.613   0.857 -0.0032 -1.1225 -0.8220
11756TIP3   OH235203   5.560   4.322   5.732  0.3729 -0.2386  0.3563
11756TIP3    H135204   5.511   4.371   5.799  0.6949 -1.4911  1.5419
11756TIP3    H235205   5.525   4.353   5.649  0.2690  1.6805  1.0945
11757TIP3   OH235206   5.345   4.954   6.367 -0.1082  0.0083  0.1265
11757TIP3    H135207   5.334   5.011   6.444 -1.2770  0.4719 -0.3723
11757TIP3    H235208   5.327   4.866   6.400 -0.8651  0.2360  0.3449
11758TIP3   OH235209   7.324   5.293   5.626  0.6852  0.5705  0.7696
11758TIP3    H135210   7.359   5.343   5.700  1.6705 -0.0013  0.6864
11758TIP3    H235211   7.312   5.204   5.659  3.6345 -0.3435 -0.4852
11759TIP3   OH235212   2.934   7.919   0.321 -0.5802 -0.1294 -0.3339
11759TIP3    H135213   2.994   7.927   0.395  1.6235  0.1876 -2.0973
11759TIP3    H235214   2.847   7.936   0.358  0.6198  1.2503  1.9134
11760TIP3   OH235215   7.175   4.294   5.300 -0.2424 -0.2738  0.7704
11760TIP3    H135216   7.138   4.213   5.336 -1.3091  0.5373  1.5211
11760TIP3    H235217   7.101   4.337   5.257  0.3036  0.3391  0.4366
11761TIP3   OH235218   0.860   6.186   5.464 -0.0389  0.0814 -0.1327
11761TIP3    H135219   0.950   6.209   5.488 -0.2938  0.3994  0.5375
11761TIP3    H235220   0.855   6.203   5.370  0.8068 -0.6072 -0.3153
11762TIP3   OH235221   7.885   3.583   6.913  0.6612  0.1590  0.1319
11762TIP3    H135222   7.886   3.533   6.831  2.2941  1.7554 -0.8944
11762TIP3    H235223   7.833   3.661   6.892 -0.0274 -0.0672  1.0226
11763TIP3   OH235224   0.779   5.638   4.128  0.5436 -0.1533  0.0612
11763TIP3    H135225   0.855   5.591   4.160  0.3474 -2.2286 -2.3879
11763TIP3    H235226   0.798   5.730   4.147  2.3829 -0.8776  1.9623
11764TIP3   OH235227   2.868   1.347   0.499 -0.2728 -0.0860 -0.2330
11764TIP3    H135228   2.874   1.396   0.581 -0.4573 -0.4334 -0.0082
11764TIP3    H235229   2.800   1.392   0.449  1.5612  1.6136 -1.2318
11765TIP3   OH235230   6.933   3.957   6.169  0.2284 -0.6375  0.3301
11765TIP3    H135231   6.845   3.984   6.141  0.3012  0.0412  0.7397
11765TIP3    H235232   6.942   3.993   6.257  1.0904 -0.3259  0.1169
11766TIP3   OH235233   6.746   4.384   4.560  0.6416  0.7232  0.3961
11766TIP3    H135234   6.761   4.402   4.467 -0.7394 -0.4802 -0.0650
11766TIP3    H235235   6.834   4.384   4.599  1.2820  0.5002 -1.0297
11767TIP3   OH235236   8.492   5.072   4.308 -0.1148 -0.3806  0.5423
11767TIP3    H135237   8.404   5.108   4.295  0.3052  0.1401 -1.0237
11767TIP3    H235238   8.520   5.045   4.220  1.7103  0.4336  0.8449
11768TIP3   OH235239   0.531   2.834   3.804 -0.3620 -0.3798 -0.0373
11768TIP3    H135240   0.481   2.891   3.862 -0.9456 -0.8527 -0.0741
11768TIP3    H235241   0.498   2.854   3.716 -0.4561 -0.6600 -0.0660
11769TIP3   OH235242   8.121   5.028   6.192  0.4083 -0.1662  0.3777
11769TIP3    H135243   8.044   4.978   6.220  0.2113 -0.0174  0.1032
11769TIP3    H235244   8.161   4.974   6.124 -2.1728  1.9956 -2.9765
11770TIP3   OH235245   5.940   4.349   5.607  0.3563  0.7851 -0.3188
11770TIP3    H135246   5.900   4.413   5.547 -0.7428 -0.2896 -0.7500
11770TIP3    H235247   6.017   4.394   5.642  0.7096  1.6438 -2.1266
11771TIP3   OH235248   8.310   3.233   3.274  0.1559  0.1026  0.5465
11771TIP3    H135249   8.386   3.204   3.325 -0.9555  0.3131  2.3411
11771TIP3    H235250   8.284   3.156   3.224  0.9112 -0.2676  0.7216
11772TIP3   OH235251   2.882   7.872  -0.009  0.2876 -0.0810  0.1513
11772TIP3    H135252   2.789   7.879   0.012  0.1749  3.0809 -1.1813
11772TIP3    H235253   2.924   7.857   0.076 -1.2915 -0.0045  0.9656
11773TIP3   OH235254   6.681   3.692   4.056 -0.4536  0.3699  0.3469
11773TIP3    H135255   6.642   3.618   4.103  2.1124 -1.5431 -0.4282
11773TIP3    H235256   6.766   3.705   4.098  0.0325  1.4693 -0.9484
11774TIP3   OH235257   7.893   3.528   6.371 -0.5220 -0.0298 -0.2806
11774TIP3    H135258   7.920   3.437   6.382 -0.9066 -0.4405 -2.6398
11774TIP3    H235259   7.970   3.572   6.335 -1.2234 -0.0247 -1.7983
11775TIP3   OH235260   6.345   5.352   5.682 -0.3308 -0.1676  0.1799
11775TIP3    H135261   6.282   5.409   5.638  0.1333 -0.3206 -0.6922
11775TIP3    H235262   6.374   5.403   5.757  1.3952  1.4957 -1.5584
11776TIP3   OH235263   6.647   4.796   4.674 -0.6525 -0.4013 -0.0911
11776TIP3    H135264   6.634   4.886   4.706 -0.3460 -0.4396  0.1463
11776TIP3    H235265   6.743   4.786   4.670 -0.6782 -0.1611 -1.6807
11777TIP3   OH235266   0.710   4.807   6.074 -0.0882 -0.6302  0.4126
11777TIP3    H135267   0.730   4.865   6.148 -1.8874  0.6944 -0.1119
11777TIP3    H235268   0.674   4.729   6.114  1.3372 -0.9733  1.0680
11778TIP3   OH235269   3.777   1.006   0.169 -0.4801  0.0798  0.3298
11778TIP3    H135270   3.801   0.926   0.123 -1.3267  0.0019  0.0087
11778TIP3    H235271   3.829   1.074   0.128 -0.9295 -0.0582 -0.4734
11779TIP3   OH235272   7.978   5.756   4.559  0.4953 -0.1298 -0.3739
11779TIP3    H135273   7.931   5.677   4.587  1.8092 -0.5370  0.7396
11779TIP3    H235274   7.947   5.772   4.470 -2.5898  0.2522  0.6877
11780TIP3   OH235275   0.231   5.114   4.505 -0.5328  0.0178  0.2680
11780TIP3    H135276   0.175   5.191   4.498 -0.0280  0.4362  0.8332
11780TIP3    H235277   0.276   5.109   4.420 -1.0426 -0.0299 -0.0004
11781TIP3   OH235278   7.219   3.534   5.069 -0.1930 -0.2591 -0.0989
11781TIP3    H135279   7.240   3.552   4.977 -0.6287 -0.6924 -0.2853
11781TIP3    H235280   7.230   3.618   5.113  0.6516 -0.1880 -0.4348
11782TIP3   OH235281   8.091   5.084   3.713 -0.4531 -0.6024 -0.3088
11782TIP3    H135282   8.060   5.153   3.773  0.3808 -0.1123 -0.4336
11782TIP3    H235283   8.018   5.069   3.653 -1.1110 -0.7378  0.5168
11783TIP3   OH235284   0.448   6.068   5.002 -0.4645 -0.0846  0.1867
11783TIP3    H135285   0.489   6.091   4.919  0.9263 -0.7481  0.6750
11783TIP3    H235286   0.465   6.144   5.059  0.1129 -0.3558  0.3864
11784TIP3   OH235287   7.863   5.101   5.377  0.8518  0.1438  0.0099
11784TIP3    H135288   7.873   5.192   5.404  2.5322  0.6779 -2.3004
11784TIP3    H235289   7.776   5.076   5.408  0.6396  2.3332  1.2177
11785TIP3   OH235290   7.308   5.209   5.169  0.2695  0.1155  0.1528
11785TIP3    H135291   7.346   5.249   5.247  2.1863  0.3253 -0.8435
11785TIP3    H235292   7.379   5.157   5.132 -1.3504 -1.9354 -0.1290
11786TIP3   OH235293   7.821   4.656   3.060  0.0520 -0.3230 -0.1081
11786TIP3    H135294   7.798   4.718   2.991 -0.3272 -0.4861 -0.1328
11786TIP3    H235295   7.888   4.600   3.021  4.0595  3.1372  1.5073
11787TIP3   OH235296   0.469   5.666   3.408 -0.3299  0.4841  0.4859
11787TIP3    H135297   0.547   5.706   3.369  0.1213 -0.9143 -0.0891
11787TIP3    H235298   0.457   5.584   3.359 -0.5237 -0.6721  2.4186
11788TIP3   OH235299   0.524   6.721   5.017 -0.1903 -0.1082 -0.1298
11788TIP3    H135300   0.596   6.762   5.065  0.4869  0.9133 -1.9388
11788TIP3    H235301   0.526   6.764   4.931 -1.9869 -1.1721 -0.7252
11789TIP3   OH235302   7.869   2.897   4.260  0.0878  0.1534  0.3705
11789TIP3    H135303   7.786   2.918   4.302 -1.1144 -3.7177  0.1302
11789TIP3    H235304   7.932   2.889   4.332 -0.6278 -0.6325  0.9172
11790TIP3   OH235305   6.573   4.213   4.908 -0.4473 -0.9346  0.1415
11790TIP3    H135306   6.554   4.268   4.832 -1.8226 -0.6513  0.6778
11790TIP3    H235307   6.662   4.236   4.933  0.4618 -1.8830 -2.1014
11791TIP3   OH235308   0.302   5.242   6.621 -0.5754  0.5661 -0.2685
11791TIP3    H135309   0.290   5.152   6.592 -1.1891  0.0498  1.5261
11791TIP3    H235310   0.384   5.240   6.670 -1.4203  0.6097  1.1748
11792TIP3   OH235311   1.161   5.721   5.713  0.3623 -0.0112 -0.6855
11792TIP3    H135312   1.116   5.748   5.633 -2.8613  0.4306  1.1571
11792TIP3    H235313   1.119   5.638   5.737 -0.8692  1.3742  2.1323
11793TIP3   OH235314   8.359   5.013   5.250 -0.6903 -0.0519 -0.2888
11793TIP3    H135315   8.271   5.033   5.219 -0.4033 -1.4638 -2.1015
11793TIP3    H235316   8.389   4.942   5.193  0.3675 -1.8769  2.4513
11794TIP3   OH235317   7.870   4.924   5.672 -0.1654 -0.0490  0.4763
11794TIP3    H135318   7.841   4.873   5.597  2.5187  0.3259 -0.8603
11794TIP3    H235319   7.809   4.998   5.675 -0.2731 -0.0393 -1.3734
11795TIP3   OH235320   0.261   6.172   5.508 -0.3166  1.0898  0.3705
11795TIP3    H135321   0.225   6.260   5.514 -0.8210  1.0691 -1.9154
11795TIP3    H235322   0.356   6.184   5.503 -0.4087  1.5401 -0.3855
11796TIP3   OH235323   3.326   5.498   4.425 -0.2874 -0.0224 -0.2784
11796TIP3    H135324   3.371   5.416   4.449 -0.3498  0.5255  1.7947
11796TIP3    H235325   3.262   5.511   4.495 -0.2610  1.8151 -0.5792
11797TIP3   OH235326   1.063   4.371   6.253  0.0485  0.1486  0.7125
11797TIP3    H135327   1.015   4.365   6.171  2.1962 -1.0936 -0.5343
11797TIP3    H235328   1.033   4.296   6.304  1.1757 -1.0885 -0.3877
11798TIP3   OH235329   7.179   4.791   4.716 -0.3996  0.7090  0.0175
11798TIP3    H135330   7.261   4.756   4.752 -0.7840  2.1043  2.3307
11798TIP3    H235331   7.204   4.829   4.632  0.9521 -0.6630 -0.2148
11799TIP3   OH235332   0.487   6.579   2.814 -0.4061 -0.4612  0.1077
11799TIP3    H135333   0.526   6.623   2.890 -0.9082  1.9078 -0.9459
11799TIP3    H235334   0.399   6.616   2.808  0.1903  0.6611 -2.5804
11800TIP3   OH235335   8.353   3.742   4.628 -0.3435  0.4975 -0.0669
11800TIP3    H135336   8.333   3.653   4.658 -0.1950 -0.3785 -2.4331
11800TIP3    H235337   8.277   3.794   4.655  0.0955 -0.0593  2.3947
11801TIP3   OH235338   7.418   4.432   6.608 -0.4459 -0.4918  1.1240
11801TIP3    H135339   7.373   4.508   6.572 -1.7913 -1.4954  0.6528
11801TIP3    H235340   7.511   4.454   6.602 -0.6641 -0.1715 -1.9342
11802TIP3   OH235341   1.220   5.638   4.588  0.2376 -0.6271 -0.3015
11802TIP3    H135342   1.259   5.660   4.503 -1.3675  0.2617 -0.8435
11802TIP3    H235343   1.228   5.718   4.640  0.0112 -0.7494 -0.0765
11803TIP3   OH235344   0.961   6.516   3.094 -0.3380 -0.3066  0.3747
11803TIP3    H135345   0.945   6.536   3.186 -0.1132  0.1633  0.3123
11803TIP3    H235346   1.010   6.434   3.095 -0.9175 -0.6549  0.6468
11804TIP3   OH235347   6.532   4.752   6.094  0.2843 -0.3385  0.4112
11804TIP3    H135348   6.472   4.778   6.024  2.8472  0.0163 -1.7390
11804TIP3    H235349   6.612   4.802   6.078  1.0561 -0.4468  3.4704
11805TIP3   OH235350   6.800   3.882   5.755  0.1237 -0.2644 -0.0457
11805TIP3    H135351   6.751   3.963   5.758 -0.0142 -0.4019  2.3590
11805TIP3    H235352   6.738   3.815   5.783  0.9301 -0.8345  0.4111
11806TIP3   OH235353   7.569   5.976   3.693 -0.0302  0.0213 -0.1738
11806TIP3    H135354   7.648   6.026   3.715  0.3571 -0.8664  0.4959
11806TIP3    H235355   7.581   5.952   3.601  2.5109 -3.6710  1.0026
11807TIP3   OH235356   8.240   3.070   3.972  0.3797 -0.1322 -0.2327
11807TIP3    H135357   8.314   3.023   4.010  0.4860 -0.0705 -0.3601
11807TIP3    H235358   8.191   3.103   4.047  0.6319  0.0575 -0.1480
11808TIP3   OH235359   1.006   2.401   4.522 -0.6639 -0.1044 -0.0924
11808TIP3    H135360   1.082   2.458   4.512 -0.2541 -0.6055  0.1707
11808TIP3    H235361   0.960   2.408   4.438  0.4906 -0.9963 -0.8052
11809TIP3   OH235362   0.859   3.218   6.860 -0.3171 -0.1299  0.1912
11809TIP3    H135363   0.832   3.309   6.866 -0.3336  0.0317 -2.0219
11809TIP3    H235364   0.815   3.185   6.782  0.6813 -1.7007  0.2695
11810TIP3   OH235365   7.089   4.757   4.037  0.5327 -0.0269  0.0851
11810TIP3    H135366   7.103   4.844   3.999  0.8094  0.9641  2.3403
11810TIP3    H235367   7.145   4.699   3.986 -0.1133  0.9971 -1.8506
11811TIP3   OH235368   0.231   6.465   5.433  0.5730  0.0498 -0.1055
11811TIP3    H135369   0.142   6.493   5.412 -0.3491 -2.3555  0.4170
11811TIP3    H235370   0.284   6.493   5.358 -0.6479  1.3744 -0.4851
11812TIP3   OH235371   7.687   3.653   4.405  0.2395 -0.4063  0.0360
11812TIP3    H135372   7.689   3.638   4.500 -1.4859  1.4993  0.4012
11812TIP3    H235373   7.629   3.729   4.394  1.5348  0.2655 -2.4375
11813TIP3   OH235374   7.305   4.876   4.481 -0.5265  0.9267  0.0940
11813TIP3    H135375   7.398   4.880   4.505 -0.6326 -0.1279  0.7301
11813TIP3    H235376   7.303   4.830   4.397 -0.6563 -1.5787  1.4103
11814TIP3   OH235377   7.798   3.246   3.338 -0.1714  0.1478  0.1236
11814TIP3    H135378   7.707   3.275   3.330  0.5875  2.2943 -1.1899
11814TIP3    H235379   7.831   3.292   3.415  0.2443  0.6302 -0.3375
11815TIP3   OH235380   7.428   5.845   4.625  0.5835 -0.7830  0.1583
11815TIP3    H135381   7.476   5.893   4.558  2.1686 -0.7714  1.2952
11815TIP3    H235382   7.458   5.754   4.615 -0.2308 -1.0329 -0.0643
11816TIP3   OH235383   7.453   4.406   5.559 -0.3154  0.4530 -0.2198
11816TIP3    H135384   7.503   4.450   5.627  1.1482  0.8913 -1.5421
11816TIP3    H235385   7.453   4.314   5.585 -1.1397  0.8428  1.1908
11817TIP3   OH235386   0.789   3.814   5.278  0.4736 -0.0607  0.3504
11817TIP3    H135387   0.851   3.884   5.299  0.8779 -0.4862  0.5863
11817TIP3    H235388   0.800   3.750   5.349  0.5075 -0.6262 -0.1624
11818TIP3   OH235389   6.632   3.546   5.630 -0.5856  0.4951 -0.7173
11818TIP3    H135390   6.584   3.467   5.608  0.2507 -0.8750  2.1270
11818TIP3    H235391   6.567   3.604   5.671 -0.3084 -0.5046  1.1847
11819TIP3   OH235392   0.243   3.151   3.187 -0.4316 -0.2915 -0.0327
11819TIP3    H135393   0.180   3.171   3.117  1.5003  0.1615 -1.6808
11819TIP3    H235394   0.288   3.234   3.203  1.5519 -1.2155 -0.6982
11820TIP3   OH235395   4.963   3.356   6.156 -0.4158  0.4525  0.7135
11820TIP3    H135396   4.935   3.371   6.066  0.1853  0.6971  0.5673
11820TIP3    H235397   4.890   3.308   6.195 -0.5084 -0.0129 -0.0148
11821TIP3   OH235398   6.682   4.818   5.607 -0.3975 -0.4459 -0.1450
11821TIP3    H135399   6.608   4.777   5.653 -0.6414  1.0802  0.8643
11821TIP3    H235400   6.694   4.764   5.529 -3.0339 -0.3444 -0.6886
11822TIP3   OH235401   1.188   7.450   5.636 -0.2738  0.0949  0.3878
11822TIP3    H135402   1.143   7.465   5.720 -0.0481 -2.1053  0.9156
11822TIP3    H235403   1.225   7.535   5.614 -0.6539  0.7957  2.3395
11823TIP3   OH235404   7.594   5.130   5.183 -0.3471 -0.3515 -0.0872
11823TIP3    H135405   7.567   5.178   5.260  0.9786 -0.3046  0.3594
11823TIP3    H235406   7.592   5.195   5.112 -2.3887 -0.5946 -0.2905
11824TIP3   OH235407   6.442   4.423   3.954 -0.6366  0.1847  0.2140
11824TIP3    H135408   6.533   4.451   3.942 -0.9806  1.3892  0.2681
11824TIP3    H235409   6.447   4.330   3.975  0.6370  0.3922  0.8881
11825TIP3   OH235410   0.066   2.176   4.527 -0.0414  0.8461 -0.2566
11825TIP3    H135411   0.047   2.145   4.439  1.6031  3.1368 -1.4859
11825TIP3    H235412   0.119   2.107   4.566 -0.0030  0.2148 -1.4112
11826TIP3   OH235413   0.162   4.416   3.303  0.2464 -0.3789 -0.2055
11826TIP3    H135414   0.246   4.368   3.306 -0.8513 -2.3155  0.7261
11826TIP3    H235415   0.100   4.353   3.266 -1.0516  0.6477  0.1954
11827TIP3   OH235416   8.015   5.550   4.081  0.4530 -0.3704  0.1912
11827TIP3    H135417   7.987   5.601   4.157 -0.4307  1.1353 -1.1088
11827TIP3    H235418   8.091   5.501   4.112  1.0580  1.4157  1.6296
11828TIP3   OH235419   6.783   2.061   0.416 -0.2646  0.2584  0.6678
11828TIP3    H135420   6.809   2.044   0.326  0.3133  0.0162  0.8783
11828TIP3    H235421   6.847   2.125   0.447  0.2522 -0.5497  1.2770
11829TIP3   OH235422   1.035   3.603   4.413  0.3593  0.4483  0.4204
11829TIP3    H135423   1.065   3.534   4.471  2.8999  2.4431  1.5851
11829TIP3    H235424   0.972   3.653   4.464  0.4625  0.5105  0.4869
11830TIP3   OH235425   7.217   4.169   5.620 -0.0610 -0.3891  0.1248
11830TIP3    H135426   7.212   4.106   5.548 -0.5098  0.3509 -0.5012
11830TIP3    H235427   7.303   4.152   5.660  0.1274 -0.9082 -0.4879
11831TIP3   OH235428   6.012   2.131   5.435  0.0225 -0.2447  0.0456
11831TIP3    H135429   6.090   2.096   5.393  1.2011 -0.3140  2.2232
11831TIP3    H235430   6.004   2.220   5.401  0.7080 -0.4402 -0.6357
11832TIP3   OH235431   7.191   4.991   3.916  0.0968 -0.1911  0.1251
11832TIP3    H135432   7.218   5.060   3.977  0.6028 -0.3837  0.1285
11832TIP3    H235433   7.172   5.038   3.835  3.3461 -0.3007 -0.7976
11833TIP3   OH235434   0.556   3.609   4.348  0.4370  0.1338 -0.0562
11833TIP3    H135435   0.567   3.617   4.442  0.8109  1.2670 -0.1869
11833TIP3    H235436   0.463   3.588   4.336  0.1681  0.9538  0.5234
11834TIP3   OH235437   8.370   4.202   5.657 -0.4306  0.4632  0.0438
11834TIP3    H135438   8.421   4.264   5.605  2.1660 -0.9654  0.8377
11834TIP3    H235439   8.305   4.257   5.702  0.6865  2.3584 -0.6035
11835TIP3   OH235440  -0.023   4.461   5.476  0.6318  0.3549 -0.7964
11835TIP3    H135441   0.062   4.482   5.438  1.1013  0.5015  0.3364
11835TIP3    H235442  -0.034   4.524   5.547  0.3238 -0.7166  0.1196
11836TIP3   OH235443   7.363   1.045   0.430  0.5108  0.6765  0.1137
11836TIP3    H135444   7.429   1.114   0.425  1.1258  0.1150  0.3635
11836TIP3    H235445   7.389   0.982   0.364  0.1472  0.5117  0.1259
11837TIP3   OH235446   6.175   3.920   4.645 -0.2503  0.5934 -0.4612
11837TIP3    H135447   6.146   3.873   4.566 -0.7794 -0.1690  0.1884
11837TIP3    H235448   6.100   3.918   4.704 -0.7096  3.3378 -0.8743
11838TIP3   OH235449   7.382   6.623   4.509  0.1613 -0.1799  1.0124
11838TIP3    H135450   7.287   6.612   4.503  0.1670  0.3272 -0.1344
11838TIP3    H235451   7.405   6.673   4.431  0.9158  2.6423  2.9766
11839TIP3   OH235452   8.521   5.594   6.776  0.3726  0.4073 -0.1536
11839TIP3    H135453   8.450   5.638   6.824  0.6003  0.5831  0.0222
11839TIP3    H235454   8.478   5.521   6.731 -0.0329  0.8934 -0.5565
11840TIP3   OH235455   7.904   4.889   6.325  0.8282 -0.7227  0.0061
11840TIP3    H135456   7.872   4.968   6.369  1.5220  0.8592 -2.2460
11840TIP3    H235457   7.849   4.819   6.359  0.6769  0.5788  2.6152
11841TIP3   OH235458   6.784   4.779   4.034 -0.4213 -0.4757  0.0888
11841TIP3    H135459   6.875   4.750   4.044  0.1804  1.1329 -0.4780
11841TIP3    H235460   6.735   4.700   4.011  1.1634 -1.0095 -1.5445
11842TIP3   OH235461   2.571   6.525   3.927  0.7605 -0.2623 -0.1458
11842TIP3    H135462   2.477   6.508   3.933  0.3795  0.6391 -2.9490
11842TIP3    H235463   2.611   6.438   3.924 -0.0094 -0.6476  0.6878
11843TIP3   OH235464   5.956   6.298   5.039  0.2324 -0.4805 -0.2004
11843TIP3    H135465   6.052   6.293   5.034  0.2563  0.0743 -0.3530
11843TIP3    H235466   5.929   6.316   4.949 -0.0145 -0.6022 -0.1506
11844TIP3   OH235467   7.235   5.084   4.832 -0.4552  0.4433 -0.0475
11844TIP3    H135468   7.229   5.172   4.868  1.8765  0.0141  1.4702
11844TIP3    H235469   7.161   5.037   4.871 -0.0670  0.9752  1.3458
11845TIP3   OH235470   6.267   3.257   4.395 -0.3301  0.3460 -0.2613
11845TIP3    H135471   6.270   3.342   4.351 -0.2512  1.1481  1.2807
11845TIP3    H235472   6.235   3.196   4.327  1.1696  1.2897 -1.8342
11846TIP3   OH235473   1.290   0.244   4.138 -0.0794 -0.2202 -0.1552
11846TIP3    H135474   1.290   0.155   4.103 -0.9473  0.2111 -1.2677
11846TIP3    H235475   1.376   0.279   4.113  1.2232 -1.5050  2.3219
11847TIP3   OH235476   0.061   5.803   6.086  0.2791 -0.7946  0.2670
11847TIP3    H135477   0.010   5.869   6.134  0.3584 -0.8929  0.4865
11847TIP3    H235478  -0.004   5.755   6.035  0.2562 -0.3367 -0.1441
11848TIP3   OH235479   8.178   7.209   4.114  0.0624  0.3977  0.3867
11848TIP3    H135480   8.230   7.139   4.076  1.3127  1.0187  0.9486
11848TIP3    H235481   8.173   7.188   4.207 -0.4475  0.4927  0.3829
11849TIP3   OH235482   0.567   6.726   4.356  0.2639 -0.5327 -0.1483
11849TIP3    H135483   0.529   6.702   4.271  1.2165  0.0169 -0.7476
11849TIP3    H235484   0.509   6.686   4.421 -0.2115 -1.3624 -1.0653
11850TIP3   OH235485   0.712   5.312   3.611 -0.0756  0.7223 -0.6011
11850TIP3    H135486   0.757   5.368   3.674  1.3427  0.3880 -1.2799
11850TIP3    H235487   0.753   5.226   3.623 -0.9653  0.2627 -0.8249
11851TIP3   OH235488   1.192   6.053   4.226 -0.0508 -0.4197 -0.5234
11851TIP3    H135489   1.182   6.147   4.209 -1.7025 -0.6221 -0.7455
11851TIP3    H235490   1.108   6.026   4.263 -0.5420 -2.3298 -2.8689
11852TIP3   OH235491   1.849   4.426   3.357 -0.1779 -0.1140  0.0511
11852TIP3    H135492   1.806   4.353   3.313 -1.0415  0.1358  0.4705
11852TIP3    H235493   1.912   4.385   3.416  0.6564 -0.4647 -1.0762
11853TIP3   OH235494   7.420   5.440   6.586 -0.4569 -0.8132  0.0771
11853TIP3    H135495   7.446   5.526   6.554 -1.1858 -1.0888 -1.2766
11853TIP3    H235496   7.326   5.448   6.602 -0.3931 -1.1495  0.6262
11854TIP3   OH235497   7.043   6.418   2.543  0.4365 -0.3603 -0.3655
11854TIP3    H135498   7.131   6.418   2.507  1.9773 -2.5687  3.0846
11854TIP3    H235499   7.043   6.346   2.606 -4.8241 -2.4944 -2.4922
11855TIP3   OH235500   7.499   4.174   3.299 -0.4773 -0.2000 -0.0787
11855TIP3    H135501   7.581   4.214   3.272 -0.0473 -1.9298 -1.4052
11855TIP3    H235502   7.452   4.157   3.218 -1.0471 -1.5134  0.5075
11856TIP3   OH235503   0.755   6.593   1.273 -0.1878 -0.1347  0.5914
11856TIP3    H135504   0.775   6.502   1.252  0.7334 -0.1907  1.6867
11856TIP3    H235505   0.691   6.619   1.207  0.3163 -1.2564 -0.3558
11857TIP3   OH235506   7.886   5.792   4.296 -0.0202 -0.1884 -0.7787
11857TIP3    H135507   7.809   5.833   4.257 -3.0904  0.1122  5.0571
11857TIP3    H235508   7.863   5.700   4.304  0.0464 -0.0510  1.2512
11858TIP3   OH235509   8.139   5.253   4.117 -0.0683 -0.0675  0.0063
11858TIP3    H135510   8.087   5.284   4.043  0.4039 -0.4605 -0.4954
11858TIP3    H235511   8.088   5.182   4.155 -0.3900  0.2472  0.1576
11859TIP3   OH235512   7.995   5.368   3.845 -0.0993 -0.4371 -0.1971
11859TIP3    H135513   7.949   5.448   3.868  0.8013 -0.2006  0.8296
11859TIP3    H235514   8.034   5.387   3.759  1.9212  1.0550  0.9807
11860TIP3   OH235515   0.869   3.633   3.560  0.6989 -0.0305 -0.3510
11860TIP3    H135516   0.775   3.626   3.549  0.3656 -2.2802  3.2133
11860TIP3    H235517   0.905   3.560   3.511  0.1224 -2.5408  2.8350
11861TIP3   OH235518   7.790   4.425   5.980  0.2110  0.4508 -0.2210
11861TIP3    H135519   7.705   4.435   6.023  1.3089  1.1289  1.8347
11861TIP3    H235520   7.823   4.514   5.971  0.4374  0.2370 -1.5709
11862TIP3   OH235521   8.100   4.123   4.599  0.5581  0.0324  0.3091
11862TIP3    H135522   8.122   4.034   4.571  0.1390 -0.4473  1.4385
11862TIP3    H235523   8.087   4.115   4.694  2.1041  1.6146  0.6882
11863TIP3   OH235524   7.038   5.125   3.735  0.0997 -0.8438 -0.5324
11863TIP3    H135525   7.006   5.215   3.726 -0.6618 -0.9290  1.0175
11863TIP3    H235526   6.959   5.073   3.751  0.6548 -1.5828 -0.1499
11864TIP3   OH235527   7.339   5.229   2.880  0.2412 -0.1000  0.4064
11864TIP3    H135528   7.313   5.167   2.948 -0.2061  0.1212  0.4415
11864TIP3    H235529   7.323   5.315   2.919  1.0464  0.0395  0.4319
11865TIP3   OH235530   8.392   4.547   5.089  0.6048 -0.4713  0.3506
11865TIP3    H135531   8.364   4.492   5.162 -0.7598  1.1512  1.0864
11865TIP3    H235532   8.355   4.506   5.011  1.3699 -1.7472  0.6470
11866TIP3   OH235533   7.757   4.859   3.508  0.1103 -0.2245  0.6262
11866TIP3    H135534   7.829   4.919   3.525 -1.0729  1.1578  0.8587
11866TIP3    H235535   7.690   4.883   3.572 -0.1167 -2.2747  1.1923
11867TIP3   OH235536   6.854   3.908   3.232 -0.4718  0.1360  0.3620
11867TIP3    H135537   6.816   3.957   3.306  0.3455  0.1234  0.7931
11867TIP3    H235538   6.801   3.828   3.227 -1.8571  1.0940 -0.3904
11868TIP3   OH235539   1.182   6.382   6.216 -0.1766  0.6665 -0.6018
11868TIP3    H135540   1.200   6.370   6.309 -0.3990 -2.1171 -0.8665
11868TIP3    H235541   1.092   6.415   6.213 -1.0725 -1.6054  0.1228
11869TIP3   OH235542   0.607   3.468   5.295  0.5296 -0.4843 -0.2230
11869TIP3    H135543   0.694   3.468   5.255 -0.1482 -2.0457 -1.7610
11869TIP3    H235544   0.547   3.455   5.222 -0.9639  0.0287  0.8937
11870TIP3   OH235545   8.027   5.063   3.252 -0.3458 -0.3449 -0.1126
11870TIP3    H135546   8.023   5.146   3.300  1.4737 -0.5867  0.4945
11870TIP3    H235547   7.949   5.015   3.281 -0.1876  0.2248  1.2834
11871TIP3   OH235548   7.455   5.553   6.183  0.2691  0.1241  0.3807
11871TIP3    H135549   7.401   5.571   6.260 -0.3910  0.2182 -0.0991
11871TIP3    H235550   7.521   5.490   6.214 -1.1233 -1.2744  0.5885
11872TIP3   OH235551   7.011   3.396   4.202 -0.3950  0.2313  0.3343
11872TIP3    H135552   7.025   3.423   4.293  0.9909 -1.1284  0.5578
11872TIP3    H235553   7.092   3.423   4.157 -0.3385 -0.6759 -0.1099
11873TIP3   OH235554   6.429   4.514   3.558  0.0742  0.3679 -0.2320
11873TIP3    H135555   6.430   4.463   3.477  1.1161 -1.1907  0.7413
11873TIP3    H235556   6.348   4.487   3.602 -0.0388  0.5501 -0.3258
11874TIP3   OH235557   0.649   4.964   4.447 -0.6165 -0.2578  1.0824
11874TIP3    H135558   0.692   4.939   4.365 -0.7593 -0.0442  0.9423
11874TIP3    H235559   0.701   5.036   4.480 -0.6572 -0.2347  1.0955
11875TIP3   OH235560   3.940   0.505   0.621 -0.3390 -0.9128  0.3359
11875TIP3    H135561   3.963   0.538   0.535 -0.3018 -1.0037  0.3102
11875TIP3    H235562   4.023   0.472   0.657 -0.1628  0.0451  0.8143
11876TIP3   OH235563   5.385   7.250   3.664  0.9715 -0.3926  0.5662
11876TIP3    H135564   5.326   7.321   3.690  0.8835 -0.6524  1.0871
11876TIP3    H235565   5.376   7.185   3.734  1.9668 -0.3727  0.7186
11877TIP3   OH235566   0.728   2.098   4.608 -0.0480  0.7035 -0.1287
11877TIP3    H135567   0.804   2.142   4.646  0.5307  1.1601 -1.7445
11877TIP3    H235568   0.660   2.103   4.675  0.8589  1.7153  0.7195
11878TIP3   OH235569   7.435   2.963   3.884 -0.2106 -0.1298  0.7040
11878TIP3    H135570   7.433   2.880   3.933 -1.4965 -0.6057 -0.1447
11878TIP3    H235571   7.479   2.941   3.802  0.7247  0.3656  1.0622
11879TIP3   OH235572   1.101   5.205   5.053  0.0729 -0.0706  0.0271
11879TIP3    H135573   1.021   5.200   5.001 -0.5341  1.2220  0.8212
11879TIP3    H235574   1.147   5.123   5.034 -0.6623 -0.1052 -1.6804
11880TIP3   OH235575   6.606   6.116   4.848  0.1334 -0.3173 -0.1072
11880TIP3    H135576   6.697   6.141   4.867 -0.0074 -0.1203  0.3241
11880TIP3    H235577   6.577   6.177   4.781  0.3239 -0.3862 -0.2519
11881TIP3   OH235578   6.959   3.434   6.175  0.1954 -0.2803 -0.5163
11881TIP3    H135579   7.015   3.499   6.217 -1.0660  0.8875 -0.5830
11881TIP3    H235580   6.963   3.455   6.081  0.3509 -0.7470 -0.6160
11882TIP3   OH235581   0.323   5.337   4.097 -0.2798  0.2739 -0.3142
11882TIP3    H135582   0.401   5.324   4.043 -0.6652 -1.2664 -0.5316
11882TIP3    H235583   0.329   5.427   4.127  1.7320  0.0683 -0.0753
11883TIP3   OH235584   7.621   5.138   3.555 -0.5622  0.1250 -0.2601
11883TIP3    H135585   7.554   5.183   3.503 -0.1446  0.7455 -0.2637
11883TIP3    H235586   7.576   5.110   3.634 -0.9031  0.2601 -0.4076
11884TIP3   OH235587   5.850   5.313   5.643  0.1150 -0.1923  0.7235
11884TIP3    H135588   5.885   5.263   5.717 -0.4898 -0.7915  0.6100
11884TIP3    H235589   5.918   5.307   5.577  0.0201 -0.9433  0.6817
11885TIP3   OH235590   6.081   4.998   6.153 -0.4282  0.4763 -0.1103
11885TIP3    H135591   6.103   4.969   6.242 -0.7872  0.9238  0.1260
11885TIP3    H235592   6.052   4.919   6.108 -3.8646  0.8775  1.2713
11886TIP3   OH235593   7.316   3.297   6.303 -0.6081  0.3042  0.4366
11886TIP3    H135594   7.281   3.314   6.390 -1.0747  2.4200 -0.1292
11886TIP3    H235595   7.373   3.221   6.314 -2.7183 -1.0717  2.0306
11887TIP3   OH235596   8.184   4.396   4.600  0.9321 -0.4189  0.5164
11887TIP3    H135597   8.160   4.316   4.554  0.1229  0.1820 -0.1291
11887TIP3    H235598   8.256   4.371   4.658 -1.2323 -2.2961  2.4926
11888TIP3   OH235599   5.886   2.777   5.243 -0.4081 -0.2113  0.6900
11888TIP3    H135600   5.913   2.689   5.271  3.4537 -0.4087 -3.1818
11888TIP3    H235601   5.815   2.761   5.181 -0.4833 -0.5228  0.8504
11889TIP3   OH235602   0.798   5.137   5.626 -0.0676  0.4394 -0.1069
11889TIP3    H135603   0.820   5.122   5.718  0.8642  2.0035 -0.0588
11889TIP3    H235604   0.784   5.231   5.620 -0.3665  0.3097 -1.5203
11890TIP3   OH235605   5.084   1.734   2.399  0.2166  0.0752 -0.1954
11890TIP3    H135606   5.027   1.811   2.407 -0.2856 -0.1627 -1.3738
11890TIP3    H235607   5.116   1.737   2.309  1.7546 -0.0307  0.3249
11891TIP3   OH235608   7.821   4.732   5.012 -0.0342  0.4468 -0.2358
11891TIP3    H135609   7.758   4.668   4.980  1.4491 -1.3700  0.3578
11891TIP3    H235610   7.774   4.780   5.080 -1.1713 -0.0062 -0.6867
11892TIP3   OH235611   7.320   3.918   5.903 -0.0303 -0.2068 -0.0084
11892TIP3    H135612   7.225   3.915   5.912  0.1745 -0.2667  2.2527
11892TIP3    H235613   7.352   3.939   5.990  1.9470  1.6970 -1.1513
11893TIP3   OH235614   0.768   4.341   5.091  0.1024  0.1676 -0.2490
11893TIP3    H135615   0.864   4.336   5.098  0.0970 -1.0930 -0.9114
11893TIP3    H235616   0.739   4.250   5.098 -0.9107  0.3520 -1.9989
11894TIP3   OH235617   7.408   4.199   5.171  0.2851  0.2739 -0.0921
11894TIP3    H135618   7.473   4.254   5.215  0.6152  0.1916 -0.4638
11894TIP3    H235619   7.329   4.207   5.224  0.2284  1.3826 -0.3264
11895TIP3   OH235620   0.026   4.280   5.067 -0.0846 -0.2364  0.2370
11895TIP3    H135621   0.108   4.274   5.116  0.5185 -1.1741 -0.8538
11895TIP3    H235622  -0.029   4.212   5.104 -0.3144  0.2734  0.8477
11896TIP3   OH235623   5.445   1.570   1.332  0.1030  0.1501  0.0272
11896TIP3    H135624   5.419   1.505   1.267  0.3034 -0.3031  0.3994
11896TIP3    H235625   5.480   1.519   1.405 -1.4530  0.5925  1.0990
11897TIP3   OH235626   7.057   3.675   6.277 -0.2482 -0.0670 -0.6835
11897TIP3    H135627   7.122   3.736   6.242  0.1040 -0.6027 -0.9631
11897TIP3    H235628   6.977   3.727   6.285  0.0754  0.4558 -0.8305
11898TIP3   OH235629   0.721   7.491   4.563 -0.0738 -0.2634  0.4119
11898TIP3    H135630   0.637   7.524   4.528  0.3646 -0.8285 -1.2317
11898TIP3    H235631   0.697   7.447   4.644 -1.1228  1.1972  0.9163
11899TIP3   OH235632   6.276   6.209   6.533 -0.3978 -0.0782  0.7221
11899TIP3    H135633   6.367   6.192   6.555 -0.4536 -0.7125  0.4636
11899TIP3    H235634   6.228   6.191   6.614 -0.3545 -0.2664  0.7060
11900TIP3   OH235635   6.654   5.697   4.466 -0.0599  0.4443  0.7267
11900TIP3    H135636   6.631   5.628   4.529  0.4273  1.7490  2.3947
11900TIP3    H235637   6.659   5.777   4.520  0.5620  1.5575 -0.9514
11901TIP3   OH235638   6.347   4.963   3.250 -0.2742 -0.0742  0.2647
11901TIP3    H135639   6.291   5.019   3.196 -1.8403  0.3946  2.3033
11901TIP3    H235640   6.286   4.918   3.309  0.9549 -3.9617 -1.2813
11902TIP3   OH235641   0.982   5.469   5.761  0.5455 -0.3017 -0.6196
11902TIP3    H135642   0.934   5.488   5.841 -0.8891 -0.1126 -1.5174
11902TIP3    H235643   0.925   5.409   5.713  2.0238 -1.5500 -0.8729
11903TIP3   OH235644   2.242   7.371   4.587 -0.2265 -0.0609  0.6140
11903TIP3    H135645   2.312   7.377   4.522 -0.9485  0.7367 -0.1285
11903TIP3    H235646   2.209   7.461   4.593 -0.3730 -0.1983  1.8586
11904TIP3   OH235647   4.449   0.391   0.835  0.2573 -0.0984  0.7766
11904TIP3    H135648   4.542   0.394   0.813  0.6366  0.1192  2.3353
11904TIP3    H235649   4.447   0.405   0.930 -1.1493 -3.0166  1.2408
11905TIP3   OH235650   7.879   4.142   6.263 -0.4754  0.3160  0.4645
11905TIP3    H135651   7.887   4.137   6.359  1.4771 -0.1242  0.3021
11905TIP3    H235652   7.907   4.230   6.241 -1.1044  0.4776  0.3012
11906TIP3   OH235653   0.817   5.594   6.273 -0.4862 -0.0557 -0.2681
11906TIP3    H135654   0.745   5.632   6.324 -0.2297 -0.6201  0.5202
11906TIP3    H235655   0.896   5.623   6.319 -0.2078  0.5553 -1.1295
11907TIP3   OH235656   0.389   6.904   0.059 -0.0893  0.1120 -0.0943
11907TIP3    H135657   0.360   6.941   0.142  2.1646  1.5107  0.1151
11907TIP3    H235658   0.309   6.886   0.010 -1.3895  0.3385  1.9237
11908TIP3   OH235659   5.632   5.460   4.297 -0.4775  0.4675 -0.4446
11908TIP3    H135660   5.721   5.426   4.297 -0.4641  0.4758  0.4472
11908TIP3    H235661   5.605   5.456   4.389 -1.1165  1.1844 -0.5935
11909TIP3   OH235662   0.992   6.247   2.958  0.1525  0.8220  0.1724
11909TIP3    H135663   0.904   6.218   2.936  0.1068  0.2240  1.0920
11909TIP3    H235664   1.031   6.274   2.875 -0.5436  0.1112 -0.3853
11910TIP3   OH235665   6.343   5.266   4.143  0.2348  0.4576 -0.5588
11910TIP3    H135666   6.426   5.230   4.110  0.4829 -0.5223  1.0563
11910TIP3    H235667   6.286   5.189   4.150  0.6525  0.3660  2.5946
11911TIP3   OH235668   1.583   5.856   4.904  0.0409 -0.7362  0.4971
11911TIP3    H135669   1.655   5.912   4.931  0.5485 -2.2881  2.4667
11911TIP3    H235670   1.625   5.775   4.874 -0.7307 -0.4970 -1.2999
11912TIP3   OH235671   6.625   5.960   6.340  0.0314  0.7135  0.1982
11912TIP3    H135672   6.640   5.922   6.427  0.4191  0.7154  0.1300
11912TIP3    H235673   6.630   6.054   6.355  0.5939  0.7005  0.0783
11913TIP3   OH235674   6.727   0.957   0.099 -0.1144  0.4738  0.0176
11913TIP3    H135675   6.728   1.021   0.170  1.5379  0.9460 -0.4058
11913TIP3    H235676   6.652   0.901   0.117 -0.7809  1.7183  1.1282
11914TIP3   OH235677   0.576   0.236   5.698 -0.0559  0.0899 -0.0319
11914TIP3    H135678   0.559   0.142   5.696 -1.2124  0.2933 -0.2290
11914TIP3    H235679   0.491   0.275   5.720  0.4901  1.0667  0.3619
11915TIP3   OH235680   7.927   5.756   5.345 -0.0665  0.7565  0.3093
11915TIP3    H135681   7.961   5.836   5.305  0.2238 -0.1494 -1.3156
11915TIP3    H235682   7.944   5.688   5.280 -0.3696 -0.6203  1.6423
11916TIP3   OH235683   0.027   6.211   6.857  0.0594  0.0047 -0.6943
11916TIP3    H135684   0.093   6.230   6.789 -0.6513  1.6866 -0.9336
11916TIP3    H235685   0.071   6.234   6.939  0.5589 -1.0514 -0.6567
11917TIP3   OH235686   5.857   0.851   5.974 -0.3868  1.3130  0.2676
11917TIP3    H135687   5.890   0.885   6.058  0.2808  0.2643  0.4358
11917TIP3    H235688   5.850   0.756   5.988  2.4641  0.7595 -1.8012
11918TIP3   OH235689   6.819   5.872   4.897  0.1437 -0.0834 -0.4674
11918TIP3    H135690   6.782   5.957   4.871 -0.8153  0.3599  2.1811
11918TIP3    H235691   6.776   5.852   4.980  0.0109 -3.4314 -1.3030
11919TIP3   OH235692   0.017   6.205   2.739  0.2724 -0.4194 -0.4628
11919TIP3    H135693   0.069   6.239   2.812 -0.1925 -1.0203  0.1533
11919TIP3    H235694   0.067   6.130   2.707  0.1456 -0.5676 -0.3196
11920TIP3   OH235695   7.549   3.962   5.239  0.4815 -0.8432  0.3221
11920TIP3    H135696   7.504   4.042   5.211 -0.2588 -1.4754 -0.3430
11920TIP3    H235697   7.513   3.944   5.326  1.6043  0.2428  1.0349
11921TIP3   OH235698   7.103   4.936   3.485 -0.2909  0.7855 -0.1579
11921TIP3    H135699   7.053   4.999   3.537 -0.4607 -0.0518  0.6922
11921TIP3    H235700   7.086   4.852   3.526  0.2624  0.2345 -1.0545
11922TIP3   OH235701   6.706   2.989   6.005 -0.1897 -0.1235  0.3507
11922TIP3    H135702   6.742   2.902   5.989 -2.5649 -0.7210 -2.0964
11922TIP3    H235703   6.647   2.977   6.080  0.1194 -0.4172  0.5490
11923TIP3   OH235704   6.851   4.305   4.103 -0.2373 -0.5137 -0.4132
11923TIP3    H135705   6.854   4.254   4.184  0.2553  0.2714  0.0687
11923TIP3    H235706   6.850   4.240   4.033 -2.3558 -1.2452  0.2473
11924TIP3   OH235707   7.940   2.795   4.836  0.1141 -0.1825 -0.0373
11924TIP3    H135708   7.882   2.870   4.840 -0.7344 -0.7941 -0.7398
11924TIP3    H235709   8.028   2.832   4.843 -0.2833  0.9053 -0.7402
11925TIP3   OH235710   1.766   3.905   5.937  0.0120 -0.1611  0.1117
11925TIP3    H135711   1.684   3.952   5.921  0.0585  0.0075  0.3683
11925TIP3    H235712   1.811   3.906   5.852  1.0573  2.2779  0.6336
11926TIP3   OH235713   6.959   4.593   4.888 -0.2279  0.1105 -0.1763
11926TIP3    H135714   6.969   4.648   4.810 -0.6304 -0.0194 -0.3186
11926TIP3    H235715   6.865   4.590   4.904 -0.0587  1.1168  1.0251
11927TIP3   OH235716   0.604   5.066   2.641  0.7193  0.0521  0.1955
11927TIP3    H135717   0.548   5.141   2.661 -0.9900 -0.6546 -1.7085
11927TIP3    H235718   0.587   5.049   2.548  4.3613  0.0156 -0.5181
11928TIP3   OH235719   6.893   4.095   4.267 -0.6005 -0.2020 -0.2636
11928TIP3    H135720   6.919   4.003   4.257 -0.2147 -0.0703 -0.4955
11928TIP3    H235721   6.936   4.123   4.348 -0.3881 -0.1133 -0.4065
11929TIP3   OH235722   7.288   7.111   3.782  0.7476 -0.2085  0.1089
11929TIP3    H135723   7.326   7.028   3.756  0.8205 -0.3873  0.7744
11929TIP3    H235724   7.196   7.091   3.798  0.1127  0.4128 -2.4284
11930TIP3   OH235725   2.061   7.213   4.081 -0.1806 -0.1022 -0.0260
11930TIP3    H135726   2.129   7.147   4.068  1.7717  2.1238 -1.4472
11930TIP3    H235727   1.983   7.176   4.039  1.0218 -1.2723 -1.2728
11931TIP3   OH235728   1.492   7.193   0.346  0.4706  0.0634 -0.0099
11931TIP3    H135729   1.505   7.101   0.368  0.8418 -0.1463 -1.0666
11931TIP3    H235730   1.541   7.241   0.413  0.6623 -0.5200  0.2747
11932TIP3   OH235731   6.730   5.389   5.833  0.2057  0.1674  0.5119
11932TIP3    H135732   6.703   5.297   5.837  0.9804 -0.0751  0.3782
11932TIP3    H235733   6.658   5.437   5.874  0.1485 -0.5804  1.3079
11933TIP3   OH235734   8.130   7.623   3.968 -0.0678  0.0816 -0.1485
11933TIP3    H135735   8.124   7.719   3.968  1.1251  0.1708 -1.1747
11933TIP3    H235736   8.055   7.594   4.021  0.2417  1.6129  1.1712
11934TIP3   OH235737   4.063   0.336   3.563  0.5543 -0.0061  0.5561
11934TIP3    H135738   4.042   0.342   3.470  1.7245  0.5516  0.3063
11934TIP3    H235739   4.028   0.416   3.601  1.4181  0.5000  0.3046
11935TIP3   OH235740   7.982   4.473   5.121 -0.2870  0.0215  0.1071
11935TIP3    H135741   8.023   4.444   5.203  0.0897  0.9488  0.2601
11935TIP3    H235742   8.032   4.551   5.097 -1.0028  0.2862 -0.5173
11936TIP3   OH235743   3.148   0.381   3.882 -0.5651  0.5122 -0.4112
11936TIP3    H135744   3.176   0.315   3.819 -0.0160  1.2841 -0.9902
11936TIP3    H235745   3.150   0.463   3.832 -0.0415  1.1411  0.6364
11937TIP3   OH235746   1.474   6.679   6.798  0.0515 -0.2338  0.3277
11937TIP3    H135747   1.512   6.618   6.861 -0.8590 -2.0236 -0.8175
11937TIP3    H235748   1.468   6.629   6.716 -2.0884  0.8861 -0.2493
11938TIP3   OH235749   1.857   3.924   5.622  0.4555  0.2697 -0.0390
11938TIP3    H135750   1.846   3.983   5.547 -0.1317  0.0887 -0.0982
11938TIP3    H235751   1.773   3.881   5.631  1.6742 -2.5218 -1.6434
11939TIP3   OH235752   5.635   0.636   1.168  0.0739 -0.2257  0.2784
11939TIP3    H135753   5.664   0.562   1.114  1.2298 -0.0235  0.6174
11939TIP3    H235754   5.665   0.615   1.256  3.3548  2.1842 -0.1967
11940TIP3   OH235755   3.117   7.979   0.517 -0.2705 -0.0131 -0.8122
11940TIP3    H135756   3.081   8.067   0.522  0.8385  0.4270 -0.5488
11940TIP3    H235757   3.138   7.956   0.608 -1.9702 -1.1597 -0.6674
11941TIP3   OH235758   5.145   6.278   1.476  0.4639  0.4787 -1.0647
11941TIP3    H135759   5.098   6.239   1.402  0.1117 -0.5817 -0.2945
11941TIP3    H235760   5.227   6.230   1.480  0.1357 -0.0276 -0.2668
11942TIP3   OH235761   1.801   7.496   6.132 -0.5480 -0.0541  0.1833
11942TIP3    H135762   1.836   7.578   6.166 -0.9957  0.1943  0.0566
11942TIP3    H235763   1.859   7.472   6.060  0.1180 -0.3254  0.8124
11943TIP3   OH235764   6.315   3.293   0.324 -0.0214  0.0709  0.1351
11943TIP3    H135765   6.409   3.279   0.314  0.0787 -0.6430  1.8411
11943TIP3    H235766   6.306   3.329   0.412 -1.5689 -2.3268  1.0029
11944TIP3   OH235767   7.012   1.170   2.128 -0.5494 -0.6935 -0.2838
11944TIP3    H135768   7.012   1.253   2.080 -1.5275 -2.1524 -2.9131
11944TIP3    H235769   7.103   1.142   2.127 -0.0314  0.7971  1.5082
11945TIP3   OH235770   6.664   3.570   0.593  0.2057 -0.2147 -0.2310
11945TIP3    H135771   6.619   3.653   0.577  0.0807 -0.1298  0.5732
11945TIP3    H235772   6.643   3.517   0.516  0.0993  0.4176 -0.6388
11946TIP3   OH235773   7.106   1.029   0.180 -0.2746  0.2252 -0.0251
11946TIP3    H135774   7.098   1.046   0.274 -0.1867 -1.4722  0.3067
11946TIP3    H235775   7.195   1.059   0.158 -0.6297  1.4847  0.2258
11947TIP3   OH235776   0.837   5.158   6.811 -0.0626  0.5222 -0.1731
11947TIP3    H135777   0.885   5.232   6.773 -2.0000  1.1103 -1.5215
11947TIP3    H235778   0.787   5.197   6.882  1.1949 -0.0438  1.0449
11948TIP3   OH235779   7.813   3.877   0.402 -0.3417 -0.6770 -0.6749
11948TIP3    H135780   7.791   3.798   0.353 -2.6357 -0.1406 -0.5530
11948TIP3    H235781   7.825   3.846   0.492 -0.6454 -0.9628 -0.7320
11949TIP3   OH235782   1.516   4.946   5.108  0.0744 -0.2262  0.2390
11949TIP3    H135783   1.521   4.851   5.123  0.2457 -0.0582  1.3021
11949TIP3    H235784   1.604   4.978   5.126 -0.0467  0.1720  0.1235
11950TIP3   OH235785   8.452   2.608   1.040 -0.3956  0.3349 -0.5671
11950TIP3    H135786   8.450   2.565   0.954 -3.7832 -0.4222 -0.1915
11950TIP3    H235787   8.417   2.695   1.023  0.0421  0.5950 -0.1441
11951TIP3   OH235788   7.698   5.125   6.030 -0.1755 -0.3548 -0.0563
11951TIP3    H135789   7.693   5.039   5.988  0.5607 -0.6618  0.4722
11951TIP3    H235790   7.607   5.148   6.048 -0.5009 -0.2126 -1.8109
11952TIP3   OH235791   0.692   5.239   5.272  0.3567 -0.1796 -0.1732
11952TIP3    H135792   0.745   5.296   5.328  0.6072  0.8644 -1.4540
11952TIP3    H235793   0.701   5.152   5.312 -0.8894  0.8342  2.4208
11953TIP3   OH235794   1.685   6.232   5.966  0.0354  0.2250  0.1486
11953TIP3    H135795   1.647   6.168   6.025  1.7768  0.3226  1.4023
11953TIP3    H235796   1.670   6.196   5.878  0.9894 -1.8731  0.8449
11954TIP3   OH235797   2.298   7.456   5.678  0.3070  0.4854 -0.0123
11954TIP3    H135798   2.366   7.479   5.742  0.5302  0.5527 -0.2731
11954TIP3    H235799   2.233   7.526   5.685 -1.8962 -1.7405  3.3042
11955TIP3   OH235800   0.598   5.021   5.475 -0.0314  0.0850  0.1230
11955TIP3    H135801   0.680   5.038   5.521  0.0806 -2.5292  1.0007
11955TIP3    H235802   0.531   5.020   5.544 -0.1245 -2.0515  0.0565
11956TIP3   OH235803   0.861   6.236   6.274  0.2910  0.9093 -0.0374
11956TIP3    H135804   0.886   6.214   6.363  0.0463 -2.0732 -0.6771
11956TIP3    H235805   0.920   6.184   6.219 -2.1236 -0.2705 -1.5790
11957TIP3   OH235806   8.313   3.374   0.165  0.4038 -0.8229 -0.1737
11957TIP3    H135807   8.367   3.309   0.120  0.3365 -0.5102 -0.7165
11957TIP3    H235808   8.233   3.379   0.112  0.1258 -0.7963  0.2481
11958TIP3   OH235809   2.297   4.698   6.498  0.2419  0.0445  0.3264
11958TIP3    H135810   2.356   4.738   6.435 -0.3826  1.0487  0.3729
11958TIP3    H235811   2.260   4.622   6.453 -0.2645  0.8072 -0.5354
11959TIP3   OH235812   3.730   6.729   4.908  0.0345 -0.2448  0.5359
11959TIP3    H135813   3.672   6.790   4.953  0.6904  0.3489  0.5829
11959TIP3    H235814   3.677   6.695   4.835 -0.0308  1.1189 -0.0718
11960TIP3   OH235815   7.333   3.053   0.377 -0.6752  0.2175  0.2629
11960TIP3    H135816   7.265   2.987   0.395 -1.2162  0.4494 -0.8844
11960TIP3    H235817   7.346   3.048   0.283 -0.2633  1.3250  0.2566
11961TIP3   OH235818   1.108   4.793   5.558 -0.2069  0.8237  0.1027
11961TIP3    H135819   1.183   4.797   5.617  0.0214  1.1064 -0.2040
11961TIP3    H235820   1.094   4.884   5.532 -1.6861  1.0035  1.4419
11962TIP3   OH235821   1.320   5.856   6.507 -0.0784 -0.5571  0.1776
11962TIP3    H135822   1.271   5.839   6.426  0.6303  0.2854 -0.4373
11962TIP3    H235823   1.387   5.788   6.509  0.1780 -0.3136 -0.1642
11963TIP3   OH235824   7.080   3.686   1.306 -0.0773 -0.8929 -0.5211
11963TIP3    H135825   7.128   3.734   1.238 -0.6672  1.4106  0.6477
11963TIP3    H235826   7.000   3.736   1.319 -1.4186 -3.0220 -0.2658
11964TIP3   OH235827   8.085   1.541   3.101  0.0593  0.0873 -0.0258
11964TIP3    H135828   8.029   1.528   3.024  1.1598 -0.6668 -0.7131
11964TIP3    H235829   8.116   1.631   3.092 -1.0281  0.5188  0.3690
11965TIP3   OH235830   8.376   1.600   0.123  0.0240  0.5092 -0.0864
11965TIP3    H135831   8.420   1.523   0.161 -0.1318  1.1712  1.5060
11965TIP3    H235832   8.339   1.645   0.199 -3.6400 -0.1317 -1.3810
11966TIP3   OH235833   1.526   4.137   5.467  0.0168 -0.1347  0.2268
11966TIP3    H135834   1.518   4.129   5.372 -0.7082 -1.0961  0.3706
11966TIP3    H235835   1.462   4.204   5.491  1.4488  1.3950 -0.1712
11967TIP3   OH235836   7.846   5.034   4.537  0.0059 -0.2472 -0.0115
11967TIP3    H135837   7.868   5.028   4.630  2.6388  1.7289 -0.4283
11967TIP3    H235838   7.824   4.945   4.511  0.8701 -1.1200  2.1370
11968TIP3   OH235839   8.450   3.906   5.686  0.7299  0.5264 -0.1870
11968TIP3    H135840   8.368   3.857   5.686 -0.0291  1.7460 -1.9815
11968TIP3    H235841   8.424   3.996   5.702  1.9048  0.6772  0.9372
11969TIP3   OH235842   0.510   5.566   6.893 -0.4963  0.2382 -0.3481
11969TIP3    H135843   0.416   5.572   6.911 -0.0216  2.0700  1.7563
11969TIP3    H235844   0.543   5.655   6.906  1.1029  0.2767 -3.9223
11970TIP3   OH235845   5.899   1.597   0.011 -0.3388 -0.0019 -0.1071
11970TIP3    H135846   5.841   1.582  -0.064 -0.1916  1.1820 -0.4706
11970TIP3    H235847   5.846   1.648   0.072 -0.2329 -0.3798  0.2971
11971TIP3   OH235848   1.042   6.281   6.810  0.4499 -0.6602  0.7085
11971TIP3    H135849   1.039   6.188   6.833  0.7250 -0.8710 -0.0640
11971TIP3    H235850   1.060   6.327   6.892 -1.2012 -1.1679  1.3688
11972TIP3   OH235851   1.396   7.766   6.203 -0.0228 -0.3408  0.1232
11972TIP3    H135852   1.334   7.701   6.172 -1.2790  0.9629 -0.1655
11972TIP3    H235853   1.424   7.734   6.289 -0.6300 -1.2462 -0.0152
11973TIP3   OH235854   8.113   2.058   0.640  0.6229 -0.3077  0.0299
11973TIP3    H135855   8.028   2.077   0.678  1.5153  0.5811  1.6090
11973TIP3    H235856   8.104   1.969   0.604 -1.1042 -0.0201 -0.2928
11974TIP3   OH235857   1.481   6.222   6.529 -0.1077  0.6938  0.2212
11974TIP3    H135858   1.528   6.140   6.536 -2.6115 -0.8781 -0.6802
11974TIP3    H235859   1.469   6.236   6.435 -1.3947  1.0811  0.4319
11975TIP3   OH235860   7.383   1.370   0.799  0.1634 -0.2825 -0.4525
11975TIP3    H135861   7.473   1.373   0.766  0.3616 -0.5452  0.0445
11975TIP3    H235862   7.354   1.461   0.800  0.6968 -0.1103  0.0974
11976TIP3   OH235863   7.625   3.374   0.429 -0.2571  0.3273 -0.7188
11976TIP3    H135864   7.657   3.320   0.500  1.0058 -0.0905 -1.5880
11976TIP3    H235865   7.580   3.447   0.472 -0.8611 -0.7301  0.4673
11977TIP3   OH235866   8.458   3.080   1.179 -0.5615 -0.0901  0.4160
11977TIP3    H135867   8.546   3.043   1.186 -0.5584 -0.2757 -0.5920
11977TIP3    H235868   8.461   3.160   1.233  0.4141  0.2584 -0.1517
11978TIP3   OH235869   0.157   5.027   6.481  0.4662  0.4370  0.1286
11978TIP3    H135870   0.064   5.052   6.474  0.2041 -0.5613  0.0275
11978TIP3    H235871   0.156   4.937   6.512  1.3373 -0.3957 -2.1574
11979TIP3   OH235872   0.026   4.931   5.702 -0.4193 -0.4626 -0.0284
11979TIP3    H135873  -0.058   4.973   5.683 -1.4720 -2.7208 -0.5697
11979TIP3    H235874   0.085   4.963   5.634 -0.2775  2.6013  1.4418
11980TIP3   OH235875   1.674   3.449   6.551  0.5339 -0.5269  0.4694
11980TIP3    H135876   1.641   3.489   6.632 -1.2202 -0.0080 -0.4852
11980TIP3    H235877   1.736   3.513   6.517  1.2472 -0.7258  1.3739
11981TIP3   OH235878   8.130   2.513   1.240  0.6112  0.1727  0.5472
11981TIP3    H135879   8.058   2.529   1.179  1.6478  0.0271 -0.7626
11981TIP3    H235880   8.184   2.592   1.236  1.1212 -0.1648  0.6518
11982TIP3   OH235881   8.352   4.940   6.338 -0.5887 -0.1625 -0.0027
11982TIP3    H135882   8.265   4.955   6.299 -1.0731 -0.6534  0.8770
11982TIP3    H235883   8.381   5.028   6.364 -0.4492  0.1131 -1.0666
11983TIP3   OH235884   1.921   4.997   6.637  0.0885  0.1638 -0.3311
11983TIP3    H135885   1.829   4.971   6.641 -0.2482  1.1873 -1.2834
11983TIP3    H235886   1.969   4.919   6.666 -1.1428  0.1808  1.8960
11984TIP3   OH235887   0.426   5.589   5.459 -0.2639  0.2258  0.0720
11984TIP3    H135888   0.422   5.684   5.471  1.0729  0.5873 -2.1320
11984TIP3    H235889   0.518   5.570   5.443 -0.8868 -1.0691 -2.2643
11985TIP3   OH235890   0.322   5.524   6.522  0.2807  0.0116  0.1953
11985TIP3    H135891   0.305   5.445   6.574  0.5984  0.3123  0.7648
11985TIP3    H235892   0.314   5.495   6.431  0.7098 -0.7437  0.3927
11986TIP3   OH235893   5.013   0.054   5.476 -0.4103 -0.1733 -0.3546
11986TIP3    H135894   5.054   0.009   5.550  0.1854 -1.0013 -1.1697
11986TIP3    H235895   5.071   0.128   5.458 -0.8698  0.3574  0.3840
11987TIP3   OH235896   2.045   3.502   6.753 -0.3191  0.5977  0.1829
11987TIP3    H135897   2.001   3.435   6.804  0.2330 -0.3602 -0.5884
11987TIP3    H235898   2.025   3.480   6.662 -1.9263  2.7100 -0.0139
11988TIP3   OH235899   0.262   5.568   6.087  0.0297 -0.2333  0.2310
11988TIP3    H135900   0.305   5.588   6.004 -0.3878 -0.5098 -0.0585
11988TIP3    H235901   0.207   5.645   6.105 -0.3877 -0.4537 -0.0899
11989TIP3   OH235902   3.072   5.857   4.755 -1.0525  0.5704  0.4891
11989TIP3    H135903   2.978   5.859   4.740 -1.4092  2.4439  2.6501
11989TIP3    H235904   3.097   5.949   4.768  1.0633  0.1078 -0.0373
11990TIP3   OH235905   6.387   0.914   0.193  0.1133 -0.0327  0.0320
11990TIP3    H135906   6.430   0.989   0.151  1.4804 -0.9862 -0.3052
11990TIP3    H235907   6.445   0.840   0.175 -1.1101 -1.1343  0.5588
11991TIP3   OH235908   0.510   7.427   4.257 -0.1605  0.0599  0.9365
11991TIP3    H135909   0.490   7.345   4.303 -0.7471  0.5101  1.4868
11991TIP3    H235910   0.474   7.495   4.313 -0.7624  0.6250 -0.1298
11992TIP3   OH235911   2.590   4.937   3.626 -0.0299  0.0272 -0.0737
11992TIP3    H135912   2.512   4.908   3.675  0.3311  0.2601  0.6524
11992TIP3    H235913   2.597   5.030   3.647 -0.4641  0.3690 -1.4064
11993TIP3   OH235914   2.621   5.795   6.867  0.0045  0.3770 -0.1086
11993TIP3    H135915   2.538   5.776   6.824 -0.2296  0.6091  0.2375
11993TIP3    H235916   2.638   5.718   6.921  0.5944 -0.1729 -1.0606
11994TIP3   OH235917   5.007   0.107   1.259  0.1818 -0.0810  0.2586
11994TIP3    H135918   5.002   0.092   1.353  1.8536 -0.2420  0.3261
11994TIP3    H235919   4.986   0.200   1.248 -1.0731 -0.3061  0.6762
11995TIP3   OH235920   7.891   1.370   0.330 -0.4465 -0.4403  0.3323
11995TIP3    H135921   7.874   1.337   0.418  0.0601 -1.6077 -0.0052
11995TIP3    H235922   7.863   1.462   0.334 -0.2196 -0.4139  1.7695
11996TIP3   OH235923   0.670   0.844   1.578  0.4441  0.4473 -0.2344
11996TIP3    H135924   0.752   0.840   1.628  0.4098  1.7781 -0.0649
11996TIP3    H235925   0.668   0.932   1.542 -0.6165  0.2125 -0.7656
11997TIP3   OH235926   2.379   4.086   5.561 -0.5689 -0.2287  0.0802
11997TIP3    H135927   2.463   4.110   5.599 -0.7873  0.4075  0.1808
11997TIP3    H235928   2.364   3.996   5.588  0.4340 -0.5914 -0.5785
11998TIP3   OH235929   6.993   1.102   1.090 -0.2129  0.0570  0.2115
11998TIP3    H135930   6.923   1.077   1.030 -0.4459  0.0663  0.4817
11998TIP3    H235931   7.050   1.159   1.037 -0.5350  0.2419  0.0609
11999TIP3   OH235932   8.279   5.941   4.441  0.2124  0.6715  0.0068
11999TIP3    H135933   8.274   5.920   4.535  2.5403  1.6273  0.3747
11999TIP3    H235934   8.299   5.857   4.400  0.1175  0.4257  0.4462
12000TIP3   OH235935   1.445   7.158   5.381 -0.1529 -0.6954  0.1113
12000TIP3    H135936   1.363   7.110   5.392 -0.7313 -0.0338 -1.2236
12000TIP3    H235937   1.460   7.157   5.287  0.2993  0.9906  0.1617
12001TIP3   OH235938   6.201   3.167   2.073 -0.1976 -0.0474 -0.6105
12001TIP3    H135939   6.226   3.104   2.141 -0.9583 -0.8821 -1.0817
12001TIP3    H235940   6.241   3.133   1.993 -2.1039 -0.9539 -1.2165
12002TIP3   OH235941   7.788   2.704   1.260  0.1067 -0.2800  0.2446
12002TIP3    H135942   7.782   2.614   1.290 -1.1569 -0.6374 -1.0232
12002TIP3    H235943   7.836   2.699   1.177 -0.0898  0.1870  0.0984
12003TIP3   OH235944   1.718   7.359   4.030  0.0916 -0.2718  0.0042
12003TIP3    H135945   1.657   7.330   4.098  0.9982  0.5093  1.1694
12003TIP3    H235946   1.741   7.280   3.983 -1.4440 -0.6541 -0.1381
12004TIP3   OH235947   7.582   3.587   0.261  0.3443 -0.3255  0.0348
12004TIP3    H135948   7.552   3.497   0.275 -0.3864  0.0834  1.2040
12004TIP3    H235949   7.666   3.592   0.307  0.0939 -0.2520  0.4947
12005TIP3   OH235950   5.750   1.225   1.329  0.9723 -0.0098 -0.2508
12005TIP3    H135951   5.713   1.143   1.296 -1.3560  1.4075 -1.3435
12005TIP3    H235952   5.843   1.206   1.342  0.7803 -2.3840 -1.9017
12006TIP3   OH235953   2.111   5.650   6.162 -0.7034 -0.2779  0.2303
12006TIP3    H135954   2.058   5.703   6.103 -2.1748 -1.6456  0.2951
12006TIP3    H235955   2.190   5.702   6.175 -1.0998  0.8425 -1.5438
12007TIP3   OH235956   1.254   5.990   6.734  0.4538 -0.2577 -0.4666
12007TIP3    H135957   1.305   5.925   6.685 -0.0354 -1.7941  0.9955
12007TIP3    H235958   1.319   6.044   6.778  0.8588 -0.6422 -0.5942
12008TIP3   OH235959   0.438   5.015   5.698 -0.2996 -0.8359 -0.0941
12008TIP3    H135960   0.430   5.084   5.763 -0.0001 -0.3122 -0.6053
12008TIP3    H235961   0.487   4.945   5.742  1.4912  0.2379 -0.3148
12009TIP3   OH235962   7.752   3.545   6.148  0.1798 -0.0884 -0.0421
12009TIP3    H135963   7.798   3.533   6.231 -0.4179 -2.1302  0.0035
12009TIP3    H235964   7.678   3.484   6.152  0.5598 -0.7406 -2.3691
12010TIP3   OH235965   2.895   5.336   6.918 -0.2530 -0.5478  0.4204
12010TIP3    H135966   2.832   5.359   6.986 -1.2691 -1.7755 -0.0816
12010TIP3    H235967   2.869   5.247   6.891 -0.7662  0.4486 -2.5458
12011TIP3   OH235968   1.744   6.733   6.690 -0.0268 -0.1262  0.4474
12011TIP3    H135969   1.709   6.645   6.685  1.4842 -0.7200  0.1786
12011TIP3    H235970   1.770   6.755   6.601  2.5148 -0.6428  1.0151
12012TIP3   OH235971   7.716   2.927   2.270 -0.5208 -0.0830  0.4702
12012TIP3    H135972   7.717   2.851   2.327 -0.5942 -2.5123 -2.6639
12012TIP3    H235973   7.806   2.960   2.272 -0.5745  0.0235  2.1151
12013TIP3   OH235974   0.732   7.608   0.759  0.4544 -0.5724 -0.6802
12013TIP3    H135975   0.772   7.525   0.784  2.7469  1.3458  2.3525
12013TIP3    H235976   0.786   7.642   0.688  3.5836  1.3455  2.4714
12014TIP3   OH235977   6.338   0.688   1.216  0.0650 -0.3794 -0.1897
12014TIP3    H135978   6.280   0.756   1.182  0.9585  0.1737 -0.6142
12014TIP3    H235979   6.344   0.706   1.310  0.5833  0.3483 -0.3593
12015TIP3   OH235980   8.077   0.742   0.506  0.3791 -0.1263 -0.3614
12015TIP3    H135981   8.167   0.724   0.481  0.0581 -0.7400 -1.1198
12015TIP3    H235982   8.063   0.834   0.483  1.8324  0.9877  2.9410
12016TIP3   OH235983   2.368   5.305   6.573  0.0574 -0.2923 -0.0975
12016TIP3    H135984   2.381   5.367   6.501  1.8023 -0.3265  0.1506
12016TIP3    H235985   2.437   5.240   6.560  0.4798 -0.2238  1.6776
12017TIP3   OH235986   6.686   0.268   4.121  0.4532 -0.8052  0.3605
12017TIP3    H135987   6.708   0.178   4.144  3.5831  0.0215  0.8484
12017TIP3    H235988   6.722   0.320   4.193 -2.1283  0.8045  0.5562
12018TIP3   OH235989   8.153   4.843   6.756 -0.1984  0.1227 -0.3407
12018TIP3    H135990   8.236   4.885   6.776 -0.5997 -0.4024  2.7946
12018TIP3    H235991   8.162   4.754   6.791 -1.7589 -0.1965 -0.7183
12019TIP3   OH235992   1.384   4.278   5.695  0.1209 -0.0662 -0.0686
12019TIP3    H135993   1.473   4.308   5.709 -0.6040  0.8537  2.8877
12019TIP3    H235994   1.330   4.357   5.699 -1.0956 -0.9130  1.1609
12020TIP3   OH235995   0.264   5.879   4.305  0.5428 -0.0187  0.2018
12020TIP3    H135996   0.275   5.867   4.399 -1.3727 -1.3152  0.3032
12020TIP3    H235997   0.210   5.958   4.297  2.0543  1.0111  0.1154
12021TIP3   OH235998   1.535   6.898   4.802  0.1124  0.1734  0.2003
12021TIP3    H135999   1.588   6.966   4.761  0.2188  0.2825  0.5150
12021TIP3    H236000   1.539   6.824   4.741  0.3930  0.2808  0.0863
12022TIP3   OH236001   1.204   4.534   6.448  0.2050  0.3966 -0.4080
12022TIP3    H136002   1.118   4.543   6.491  1.4756  1.7857  1.9366
12022TIP3    H236003   1.187   4.478   6.372 -2.4480 -0.7390  0.9625
12023TIP3   OH236004   4.258   0.519   5.838  0.3108  0.2372 -0.0763
12023TIP3    H136005   4.303   0.557   5.763 -2.0611 -0.2076 -1.7841
12023TIP3    H236006   4.191   0.583   5.862 -1.9764 -1.6135 -1.3085
12024TIP3   OH236007   1.097   6.747   5.849 -0.5252 -0.4484  0.3846
12024TIP3    H136008   1.133   6.792   5.925  0.2534 -1.2262  0.4938
12024TIP3    H236009   1.097   6.812   5.779  0.6571 -0.2868  0.5186
12025TIP3   OH236010   0.138   4.186   6.261 -0.1704  0.6635 -0.0684
12025TIP3    H136011   0.117   4.273   6.228  0.0823  0.4038 -0.9232
12025TIP3    H236012   0.095   4.126   6.200 -1.2558  0.1944  1.1342
12026TIP3   OH236013   1.777   6.396   6.929  0.1622 -0.4950  0.2110
12026TIP3    H136014   1.748   6.461   6.993  1.2842 -0.3209  0.5648
12026TIP3    H236015   1.715   6.404   6.857  0.8182  1.6382 -0.1675
12027TIP3   OH236016   0.582   2.143   1.750  0.0819  0.6353  0.8527
12027TIP3    H136017   0.580   2.168   1.842 -1.1340  0.4037  0.8949
12027TIP3    H236018   0.560   2.223   1.702 -2.4281  0.0522  0.9273
12028TIP3   OH236019   2.196   4.662   6.928 -0.6795  0.0406  0.3404
12028TIP3    H136020   2.191   4.742   6.980  0.8145 -1.7080  3.3077
12028TIP3    H236021   2.281   4.665   6.885 -1.2944  0.7660 -0.8698
12029TIP3   OH236022   0.983   4.940   3.414  0.3305 -0.1159 -0.2858
12029TIP3    H136023   1.071   4.903   3.421  0.3931  0.2461  0.9669
12029TIP3    H236024   0.962   4.935   3.321  1.7853  0.0566 -0.6303
12030TIP3   OH236025   0.782   5.409   5.553 -0.3153 -1.0462  0.0312
12030TIP3    H136026   0.841   5.449   5.489 -0.6990  1.1238  0.9570
12030TIP3    H236027   0.731   5.483   5.586 -3.0176 -2.7608 -0.1790
12031TIP3   OH236028   0.516   3.020   0.040  0.0604 -0.3275 -0.4908
12031TIP3    H136029   0.603   3.032   0.077 -0.6339  2.2369  0.3548
12031TIP3    H236030   0.476   2.952   0.094 -0.5442  2.5805  2.8749
12032TIP3   OH236031   6.788   1.861   0.589  0.0918  0.0669 -0.1747
12032TIP3    H136032   6.781   1.955   0.569 -0.4410  0.2880  1.0690
12032TIP3    H236033   6.841   1.826   0.517 -1.7545  0.8722 -1.9945
12033TIP3   OH236034   0.795   3.177   0.370 -0.7108  0.0848 -0.2880
12033TIP3    H136035   0.774   3.125   0.447 -1.5122  1.4612  0.4447
12033TIP3    H236036   0.712   3.216   0.344 -0.1805  0.7363 -1.0256
12034TIP3   OH236037   8.048   4.256   6.944  0.3639 -0.9069 -0.7165
12034TIP3    H136038   7.989   4.331   6.942  0.2255 -0.9907 -0.0417
12034TIP3    H236039   8.064   4.235   6.852 -0.0445 -0.4013 -0.9038
12035TIP3   OH236040   1.328   1.308   1.653  0.1121 -0.1554  0.1759
12035TIP3    H136041   1.236   1.284   1.645  0.1843 -0.5075  0.3889
12035TIP3    H236042   1.330   1.401   1.630 -0.2494 -0.2182 -0.1259
12036TIP3   OH236043   7.800   1.854   0.512 -0.0118 -0.1579  0.1267
12036TIP3    H136044   7.746   1.852   0.591 -0.5221  0.1001 -0.2071
12036TIP3    H236045   7.774   1.936   0.468 -0.2627 -0.6566 -0.6669
12037TIP3   OH236046   7.833   1.307   0.863 -0.8964 -0.7038  0.5310
12037TIP3    H136047   7.750   1.272   0.896 -1.5456  0.3411  0.0375
12037TIP3    H236048   7.819   1.402   0.861  0.9183 -0.3722  2.1115
12038TIP3   OH236049   8.020   3.376   1.599 -0.3682  0.0630 -0.2261
12038TIP3    H136050   8.086   3.438   1.568 -0.8278  0.0276 -1.3093
12038TIP3    H236051   8.008   3.397   1.691  2.0353 -0.7207  0.3081
12039TIP3   OH236052   6.495   1.242   0.890 -0.1858 -0.2232 -0.1200
12039TIP3    H136053   6.470   1.316   0.835 -0.4352 -0.3910 -0.2284
12039TIP3    H236054   6.440   1.170   0.861 -1.3614  0.0591  1.3225
12040TIP3   OH236055   1.153   6.866   6.091 -0.4119 -0.2481  0.3787
12040TIP3    H136056   1.226   6.807   6.109 -0.8902 -0.9371  0.1199
12040TIP3    H236057   1.096   6.858   6.168  0.3429  1.1534  1.0874
12041TIP3   OH236058   2.719   5.438   4.452 -0.2557  0.0616 -0.1140
12041TIP3    H136059   2.798   5.394   4.484  0.3807  0.9620 -0.4262
12041TIP3    H236060   2.692   5.494   4.525 -0.0886  0.4311 -0.3344
12042TIP3   OH236061   1.492   4.698   6.832  0.4698  0.0595  0.2294
12042TIP3    H136062   1.501   4.622   6.889 -1.0019 -0.3804 -0.1134
12042TIP3    H236063   1.414   4.743   6.863  1.7025  1.8110  0.8487
12043TIP3   OH236064   0.414   4.140   6.333  0.2645  0.1359  0.0078
12043TIP3    H136065   0.423   4.144   6.428 -0.2185 -1.2396  0.1318
12043TIP3    H236066   0.323   4.165   6.316  0.1700 -0.2362 -0.0379
12044TIP3   OH236067   7.887   3.405   5.696 -0.1468  0.1614  0.4413
12044TIP3    H136068   7.860   3.448   5.777 -0.2915 -0.4888  0.7480
12044TIP3    H236069   7.926   3.474   5.643 -1.4292  0.8913  0.4383
12045TIP3   OH236070   4.100   7.788   0.149 -0.7122  0.0814 -0.0327
12045TIP3    H136071   4.013   7.751   0.131 -0.6370  0.6074 -1.4874
12045TIP3    H236072   4.153   7.763   0.073  0.0423  0.9372  0.2130
12046TIP3   OH236073   1.890   5.269   6.188  0.4420 -0.0958 -0.3574
12046TIP3    H136074   1.842   5.234   6.263 -2.6424  2.3689 -1.0192
12046TIP3    H236075   1.910   5.360   6.213  0.0520  0.5128 -2.1912
12047TIP3   OH236076   0.086   1.437   4.906  0.0650 -0.1194 -0.4790
12047TIP3    H136077   0.029   1.369   4.870 -0.5834 -0.0985  0.5056
12047TIP3    H236078   0.027   1.507   4.934  0.7447  0.9663 -1.6851
12048TIP3   OH236079   4.126   0.253   5.806  0.8875  0.0020 -0.0786
12048TIP3    H136080   4.193   0.291   5.750  0.7166  1.5262  0.7334
12048TIP3    H236081   4.067   0.326   5.825  0.0095 -0.9041  0.7043
12049TIP3   OH236082   5.396   0.398   5.866 -0.8704  0.0905 -0.5096
12049TIP3    H136083   5.418   0.413   5.774 -0.9701 -0.0689 -0.5599
12049TIP3    H236084   5.350   0.314   5.866  0.6387 -0.7439 -0.0822
12050TIP3   OH236085   7.371   3.429   1.334 -0.2245 -0.3001 -0.6406
12050TIP3    H136086   7.345   3.454   1.422  0.2223  0.4497 -0.7132
12050TIP3    H236087   7.413   3.508   1.298  0.4696 -0.9030 -1.1705
12051TIP3   OH236088   7.088   3.614   0.126  0.4236  0.0813  0.1907
12051TIP3    H136089   7.101   3.520   0.107  2.9178  0.3322  0.4333
12051TIP3    H236090   7.028   3.643   0.058  1.2015 -1.2921 -1.1472
12052TIP3   OH236091   3.303   7.498   5.277 -0.4455 -0.1429  0.7823
12052TIP3    H136092   3.233   7.475   5.216 -0.5359  0.1569  0.7704
12052TIP3    H236093   3.377   7.442   5.252 -0.6629 -0.4137  0.7544
12053TIP3   OH236094   7.308   3.310   0.450 -0.6770  0.2331 -0.4529
12053TIP3    H136095   7.332   3.219   0.433  0.0059 -0.0468  1.8630
12053TIP3    H236096   7.377   3.343   0.508 -3.2793  0.8507  2.4497
12054TIP3   OH236097   3.200   6.751   6.530  0.3668  0.1095  0.2559
12054TIP3    H136098   3.157   6.749   6.444 -0.1768 -0.2880  0.5321
12054TIP3    H236099   3.198   6.660   6.559  1.9123 -0.0187  0.0278
12055TIP3   OH236100   1.656   6.935   5.327 -0.5840 -0.0764  0.5388
12055TIP3    H136101   1.611   6.886   5.396 -1.6583  0.9480  0.5860
12055TIP3    H236102   1.614   6.906   5.246 -1.1659  0.6979  0.5595
12056TIP3   OH236103   2.093   7.264   5.757 -0.0319  0.0383  0.5415
12056TIP3    H136104   2.166   7.320   5.728 -1.2840  1.1283 -0.5859
12056TIP3    H236105   2.051   7.236   5.676 -2.3002  1.3854  1.2147
12057TIP3   OH236106   8.426   6.199   6.053  0.0984 -0.1638  0.6509
12057TIP3    H136107   8.478   6.258   5.998  0.3347 -0.5638  0.4430
12057TIP3    H236108   8.370   6.152   5.992 -0.1514 -0.0987  0.8265
12058TIP3   OH236109   1.756   4.195   4.860  0.0698 -0.0208  1.1518
12058TIP3    H136110   1.845   4.169   4.837 -0.2395 -0.3435  0.3053
12058TIP3    H236111   1.767   4.256   4.933  1.1712  2.1915 -0.7846
12059TIP3   OH236112   5.014   0.500   5.609 -0.1271  0.1359  0.1248
12059TIP3    H136113   4.943   0.534   5.554  0.1964 -0.2189 -0.5259
12059TIP3    H236114   5.082   0.567   5.603  0.2025 -0.2484 -0.5237
12060TIP3   OH236115   8.109   4.091   0.019  0.0319 -0.0005  0.0318
12060TIP3    H136116   8.034   4.146  -0.003  1.4180  1.9904  0.1953
12060TIP3    H236117   8.077   4.035   0.090 -1.2767  0.9077  0.1815
12061TIP3   OH236118   0.463   7.663   0.531 -0.6868 -0.4517 -0.3132
12061TIP3    H136119   0.439   7.651   0.623  0.2209 -1.0303 -0.1503
12061TIP3    H236120   0.379   7.659   0.485 -0.9229 -2.6201  0.2447
12062TIP3   OH236121   2.310   2.935   0.194  0.3900 -0.4082 -0.0047
12062TIP3    H136122   2.235   2.954   0.138 -0.5123 -2.3550  0.4987
12062TIP3    H236123   2.321   2.840   0.188  3.5224 -0.0287 -0.9353
12063TIP3   OH236124   7.011   2.482   1.172 -0.4743 -0.1738  0.2899
12063TIP3    H136125   7.096   2.500   1.214 -0.9304  2.6063  0.1223
12063TIP3    H236126   6.961   2.562   1.186 -2.8650 -1.5637 -0.1807
12064TIP3   OH236127   0.691   2.514   0.676  0.1945  0.0498  0.1357
12064TIP3    H136128   0.664   2.605   0.667 -1.7481 -0.5392 -0.1653
12064TIP3    H236129   0.749   2.514   0.752  0.5655  1.6064 -0.1224
12065TIP3   OH236130   3.316   5.836   6.789 -0.3719  0.2766  0.8405
12065TIP3    H136131   3.352   5.750   6.770 -0.5692  0.6492 -1.2891
12065TIP3    H236132   3.294   5.873   6.704 -1.5372  1.9024  1.8113
12066TIP3   OH236133   1.902   6.652   5.131  0.3968  0.2049 -0.0283
12066TIP3    H136134   1.893   6.745   5.112 -2.5194  0.3595  1.7925
12066TIP3    H236135   1.813   6.623   5.154  1.1571 -3.1180 -0.9718
12067TIP3   OH236136   4.374   5.402   6.397 -0.3134 -0.1103 -0.1720
12067TIP3    H136137   4.451   5.418   6.451 -0.8604 -1.6770  1.1492
12067TIP3    H236138   4.318   5.346   6.452 -1.8349  0.0057 -1.5625
12068TIP3   OH236139   2.357   7.637   6.147  0.2565  0.1596  0.8492
12068TIP3    H136140   2.320   7.634   6.236 -0.7186 -0.2178  0.4347
12068TIP3    H236141   2.340   7.726   6.118 -3.2853 -0.8722 -0.5579
12069TIP3   OH236142   4.988   0.293   4.150  0.1289 -0.3004 -0.5053
12069TIP3    H136143   4.935   0.264   4.224  0.5497 -2.2012 -0.9297
12069TIP3    H236144   4.937   0.271   4.073  0.5925 -0.1751 -0.8523
12070TIP3   OH236145   7.640   5.736   0.441 -0.4032 -0.5155 -0.4198
12070TIP3    H136146   7.697   5.776   0.507 -0.3319  0.1202 -0.8675
12070TIP3    H236147   7.567   5.700   0.491 -1.3794  1.7308 -0.1752
12071TIP3   OH236148   2.486   6.298   6.718 -0.8820 -0.0947  0.1514
12071TIP3    H136149   2.540   6.374   6.740 -0.3285 -0.7852  1.2569
12071TIP3    H236150   2.409   6.307   6.773 -0.7379 -0.4160  0.4085
12072TIP3   OH236151   2.544   6.640   5.366  0.1376  0.0698  0.0244
12072TIP3    H136152   2.569   6.628   5.457 -0.7241  0.3031  0.2984
12072TIP3    H236153   2.561   6.556   5.324  0.2385 -0.1320  0.4725
12073TIP3   OH236154   6.330   2.188   1.357 -0.4836 -0.0073  0.2448
12073TIP3    H136155   6.275   2.114   1.384  0.0422  0.4146  2.5887
12073TIP3    H236156   6.415   2.148   1.337 -0.0828 -0.0218  1.8916
12074TIP3   OH236157   1.796   7.744   3.402  0.0496  0.2828 -0.5142
12074TIP3    H136158   1.804   7.756   3.497  3.3268  0.0856 -0.7231
12074TIP3    H236159   1.801   7.649   3.390  1.0635  0.3947 -0.9878
12075TIP3   OH236160   0.431   3.917   0.102  0.3231  0.4341 -0.3181
12075TIP3    H136161   0.413   3.875   0.186  0.8508 -0.7674 -0.7875
12075TIP3    H236162   0.354   3.897   0.049  0.5676  0.0531 -0.5361
12076TIP3   OH236163   5.982   4.769   5.959  0.1664 -0.2631  0.1886
12076TIP3    H136164   5.892   4.781   5.930 -0.3990  1.3040  2.4171
12076TIP3    H236165   5.979   4.692   6.016  0.1711 -0.0400  0.4915
12077TIP3   OH236166   3.459   6.270   0.597  0.2720  0.1320 -0.2973
12077TIP3    H136167   3.372   6.247   0.563  0.7255 -1.6416 -0.3011
12077TIP3    H236168   3.445   6.352   0.645 -0.8869  1.2833 -2.5142
12078TIP3   OH236169   8.054   3.149   0.074 -0.1150  0.1673 -0.0944
12078TIP3    H136170   8.000   3.089   0.125 -1.2800  0.4402 -0.9802
12078TIP3    H236171   8.124   3.095   0.037 -0.9686 -0.5821 -0.6156
12079TIP3   OH236172   5.264   6.209   5.997  0.1476  0.8923 -0.2910
12079TIP3    H136173   5.290   6.187   5.907  2.9523  0.9683  0.4387
12079TIP3    H236174   5.268   6.304   6.000  0.1515  0.8840 -0.0736
12080TIP3   OH236175   7.046   4.395   0.761  0.1781  0.5101 -0.6679
12080TIP3    H136176   7.060   4.476   0.712 -0.2630 -0.2024 -1.9773
12080TIP3    H236177   7.055   4.325   0.697  1.3651 -0.5424  0.6216
12081TIP3   OH236178   2.514   6.076   5.398 -0.0786 -0.3646 -0.1277
12081TIP3    H136179   2.421   6.057   5.388  0.0205 -1.3716  0.7644
12081TIP3    H236180   2.550   5.998   5.439  0.9039  0.5835  0.8457
12082TIP3   OH236181   7.014   0.029   5.507 -0.5595  0.4543 -0.5218
12082TIP3    H136182   7.025   0.088   5.432  2.5727 -0.5565 -0.9510
12082TIP3    H236183   7.037   0.082   5.583 -1.0296  0.7086 -0.5549
12083TIP3   OH236184   0.730   1.177   0.866  0.3360 -0.9329 -0.1111
12083TIP3    H136185   0.756   1.269   0.872  1.4321 -1.1569 -1.2228
12083TIP3    H236186   0.808   1.132   0.833 -0.2826 -2.2176  0.1546
12084TIP3   OH236187   3.437   5.241   5.067 -0.1798 -0.4714 -0.3846
12084TIP3    H136188   3.412   5.328   5.095  0.8221 -0.2743 -0.0622
12084TIP3    H236189   3.530   5.249   5.044 -0.2586 -1.2808 -1.0294
12085TIP3   OH236190   1.272   2.759   1.882  0.2188 -0.4119  0.0070
12085TIP3    H136191   1.284   2.730   1.973 -0.0295 -1.6362 -0.3359
12085TIP3    H236192   1.267   2.677   1.832 -1.0213  0.2372 -0.9350
12086TIP3   OH236193   2.563   6.062   6.593  0.1916  0.4017 -0.0137
12086TIP3    H136194   2.528   6.136   6.643 -0.9130 -0.4542  0.4963
12086TIP3    H236195   2.648   6.045   6.632  0.2498  1.1177  0.1728
12087TIP3   OH236196   1.777   5.832   5.254  0.0292  0.1138  0.1597
12087TIP3    H136197   1.747   5.744   5.276  0.0097  0.0492 -0.1105
12087TIP3    H236198   1.811   5.823   5.164  0.8906  0.1768  0.4773
12088TIP3   OH236199   0.948   7.432   6.724 -0.2961 -0.4200  0.1305
12088TIP3    H136200   1.029   7.468   6.689  0.7930 -2.0260  0.9527
12088TIP3    H236201   0.881   7.459   6.661  1.0683 -0.1727 -1.2356
12089TIP3   OH236202   4.041   6.273   4.461  0.0987 -0.2512  0.2233
12089TIP3    H136203   3.981   6.311   4.397 -0.9502 -0.9502  0.7846
12089TIP3    H236204   3.992   6.273   4.543  2.1458  2.6044  1.5519
12090TIP3   OH236205   2.655   6.327   4.355 -0.2980  0.7470  0.2225
12090TIP3    H136206   2.678   6.397   4.294  0.0612  0.0782 -0.4253
12090TIP3    H236207   2.567   6.300   4.329  0.2514 -0.2230 -0.6615
12091TIP3   OH236208   3.669   7.627   3.519  0.7705  0.3229 -0.1651
12091TIP3    H136209   3.690   7.630   3.612 -0.3715 -0.7883  0.1434
12091TIP3    H236210   3.653   7.534   3.501  0.2314  0.6251 -1.3001
12092TIP3   OH236211   0.037   5.201   6.890  0.1382  0.1370 -0.0045
12092TIP3    H136212   0.120   5.169   6.926 -0.4611 -1.1292  0.3056
12092TIP3    H236213  -0.002   5.252   6.961  0.7398  0.9118 -0.2240
12093TIP3   OH236214   6.628   3.076   0.659  0.2085  0.0845  0.3999
12093TIP3    H136215   6.602   3.166   0.677 -0.2702  0.3011 -1.2527
12093TIP3    H236216   6.653   3.076   0.566 -2.3892 -2.0433 -0.3805
12094TIP3   OH236217   3.861   6.612   5.274  0.1687  0.3254  0.0759
12094TIP3    H136218   3.942   6.662   5.266 -0.2095  1.1532  1.3395
12094TIP3    H236219   3.854   6.565   5.191  1.0964  1.5237 -0.7050
12095TIP3   OH236220   7.911   2.535   0.403 -0.4701  0.1245  0.4413
12095TIP3    H136221   7.888   2.617   0.444 -0.7558 -0.4214  1.3769
12095TIP3    H236222   7.875   2.467   0.460  2.0513 -0.7178  1.1156
12096TIP3   OH236223   6.901   2.066   0.154  0.2621  0.4819  0.2346
12096TIP3    H136224   6.863   2.000   0.097  1.2009 -0.0077  0.1685
12096TIP3    H236225   6.954   2.121   0.096  1.1667  0.0239  0.6178
12097TIP3   OH236226   3.143   7.044   5.096 -0.2910  0.2928 -0.0280
12097TIP3    H136227   3.111   6.959   5.065  0.0669  0.3371 -0.5138
12097TIP3    H236228   3.226   7.057   5.050  0.4114  0.2015  1.1944
12098TIP3   OH236229   2.386   7.381   5.308  0.2385 -0.6329 -0.3127
12098TIP3    H136230   2.431   7.463   5.329 -0.2599 -0.9964  2.2795
12098TIP3    H236231   2.309   7.381   5.364 -1.6872 -1.2150 -2.8925
12099TIP3   OH236232   7.232   0.470   2.745  0.2195  0.4707  0.3941
12099TIP3    H136233   7.153   0.522   2.735  0.6362  1.2794  1.3226
12099TIP3    H236234   7.209   0.401   2.808 -0.0274  0.1224 -0.0722
12100TIP3   OH236235   1.635   3.497   0.386 -0.7887  0.6389  0.1588
12100TIP3    H136236   1.653   3.549   0.464 -0.5715  0.8612 -0.0392
12100TIP3    H236237   1.676   3.413   0.403 -0.1599  0.9121  0.0020
12101TIP3   OH236238   2.921   5.820   6.216  0.0019  0.2328  0.4733
12101TIP3    H136239   2.869   5.769   6.277 -0.9739  0.4259 -0.1728
12101TIP3    H236240   2.863   5.892   6.189  0.4732  0.2636 -0.5110
12102TIP3   OH236241   2.876   5.089   4.800 -0.2899  0.1402  0.2153
12102TIP3    H136242   2.948   5.059   4.855  0.9634  0.9843 -0.9437
12102TIP3    H236243   2.864   5.181   4.824  1.6285  1.1115 -2.3111
12103TIP3   OH236244   7.610   3.026   0.445 -0.3812  0.5188 -0.1074
12103TIP3    H136245   7.586   3.094   0.508  0.1526  1.2020 -0.6324
12103TIP3    H236246   7.531   3.014   0.392 -0.8255 -0.0502  0.6950
12104TIP3   OH236247   6.247   3.152   0.720  0.2891 -0.0870  0.5679
12104TIP3    H136248   6.332   3.117   0.693 -0.5389  1.0330 -3.8086
12104TIP3    H236249   6.183   3.092   0.683 -0.9070  0.7157  1.3028
12105TIP3   OH236250   3.752   7.386   4.414 -0.0673 -0.2587 -0.0011
12105TIP3    H136251   3.784   7.323   4.479  1.7981  0.8613  0.1734
12105TIP3    H236252   3.757   7.471   4.458 -1.9811  0.1156 -0.4562
12106TIP3   OH236253   0.855   2.997   0.037  0.2882 -0.6257 -0.2532
12106TIP3    H136254   0.932   2.946   0.009  1.5675  1.3981 -0.5169
12106TIP3    H236255   0.867   3.011   0.130 -0.3024 -1.2011 -0.0879
12107TIP3   OH236256   0.938   7.996   5.102 -0.3715  0.5499 -0.2409
12107TIP3    H136257   0.871   8.050   5.059  1.4849  2.7561 -0.4201
12107TIP3    H236258   0.970   7.938   5.032 -0.0671  1.4821 -0.8776
12108TIP3   OH236259   6.586   1.305   6.475  0.2054 -0.2641  0.1165
12108TIP3    H136260   6.578   1.308   6.379  0.4651 -0.9295  0.0694
12108TIP3    H236261   6.641   1.228   6.492 -0.0254 -0.2790  0.8090
12109TIP3   OH236262   3.471   6.645   6.647  0.7908  0.2458 -0.0653
12109TIP3    H136263   3.495   6.602   6.565  1.3497 -1.4110  0.9400
12109TIP3    H236264   3.522   6.600   6.714 -1.4000  0.0013  1.4999
12110TIP3   OH236265   4.076   5.724   6.483 -0.0003 -0.0026  0.3234
12110TIP3    H136266   4.114   5.719   6.571  0.0024 -1.2275  0.2548
12110TIP3    H236267   4.150   5.713   6.423 -0.1570 -0.2972  0.1804
12111TIP3   OH236268   4.775   6.353   4.280 -0.1557 -0.1252 -0.0773
12111TIP3    H136269   4.700   6.411   4.286 -0.0131  0.0207  0.2954
12111TIP3    H236270   4.791   6.325   4.371  0.2045 -0.1977 -0.1632
12112TIP3   OH236271   2.710   6.536   4.186 -0.4455 -0.3505  0.2686
12112TIP3    H136272   2.628   6.556   4.140 -0.2863 -1.3923 -0.4865
12112TIP3    H236273   2.777   6.537   4.117 -0.2808 -2.4542  0.3614
12113TIP3   OH236274   2.103   5.613   6.780  0.3269 -0.0293 -0.0990
12113TIP3    H136275   2.061   5.696   6.757 -0.6137 -0.0965  1.2889
12113TIP3    H236276   2.133   5.577   6.697 -2.2770  0.0889 -1.1281
12114TIP3   OH236277   1.058   6.139   5.881 -0.1846 -0.2018  0.3048
12114TIP3    H136278   1.127   6.074   5.866  0.6727  0.6963  0.2966
12114TIP3    H236279   1.105   6.222   5.891 -1.2990  0.4913 -0.1325
12115TIP3   OH236280   1.969   6.157   6.225 -0.4688  0.2098 -0.0471
12115TIP3    H136281   1.959   6.067   6.255  0.1583  0.3807  0.6917
12115TIP3    H236282   1.885   6.199   6.247  0.1870  0.4838  2.0419
12116TIP3   OH236283   1.733   6.108   6.353  0.0214  0.0927  0.2127
12116TIP3    H136284   1.680   6.082   6.278  1.8348  0.5013 -1.2377
12116TIP3    H236285   1.741   6.029   6.406 -1.2803 -0.1923 -0.0120
12117TIP3   OH236286   5.013   0.365   4.905 -0.1883  0.3906 -0.1551
12117TIP3    H136287   5.059   0.422   4.844 -0.2632  0.9666  0.3303
12117TIP3    H236288   4.926   0.354   4.866 -0.4009  1.1661  0.1065
12118TIP3   OH236289   0.977   7.537   6.321 -0.4428  0.7889  0.6102
12118TIP3    H136290   0.889   7.552   6.353 -0.7120  0.3118  0.0995
12118TIP3    H236291   0.979   7.444   6.297  0.1613  0.8192  0.5291
12119TIP3   OH236292   0.777   7.149   4.426  0.0066  0.1280  0.3735
12119TIP3    H136293   0.820   7.206   4.489  0.3911 -1.2491  1.3912
12119TIP3    H236294   0.683   7.158   4.446 -0.0745  1.7418 -0.6526
12120TIP3   OH236295   0.689   0.117   0.296 -0.0508  0.6786 -0.0641
12120TIP3    H136296   0.675   0.025   0.320  0.2396 -0.2304 -3.1832
12120TIP3    H236297   0.604   0.159   0.309 -0.1745 -0.0075  1.4148
12121TIP3   OH236298   3.928   6.194   5.808 -0.0254 -0.3136  0.2867
12121TIP3    H136299   3.870   6.229   5.741  0.0398  1.0124  0.9004
12121TIP3    H236300   4.013   6.185   5.764 -0.6152 -2.0405 -0.5443
12122TIP3   OH236301   7.846   4.719   0.879  0.3143  0.2108 -0.9891
12122TIP3    H136302   7.870   4.627   0.893  1.1003  0.5309 -0.2260
12122TIP3    H236303   7.821   4.751   0.965 -0.9872  0.4218 -1.4456
12123TIP3   OH236304   2.794   6.861   6.165 -0.2077  0.1883 -0.5421
12123TIP3    H136305   2.780   6.773   6.130 -1.9512  0.6412 -1.0414
12123TIP3    H236306   2.737   6.917   6.112 -1.3201  1.1953  1.6374
12124TIP3   OH236307   1.804   4.192   6.094  0.2688 -0.1216  0.2337
12124TIP3    H136308   1.814   4.174   6.188  1.3435  0.3541  0.2100
12124TIP3    H236309   1.714   4.166   6.075 -0.1600  0.3532  1.5370
12125TIP3   OH236310   2.966   6.035   6.011 -0.0516  0.5373 -0.2286
12125TIP3    H136311   3.004   6.122   6.021 -0.7223  0.6351  1.7478
12125TIP3    H236312   2.883   6.039   6.057  0.2993 -1.3896  0.6671
12126TIP3   OH236313   4.879   5.766   5.723 -0.5163 -0.6159 -0.0061
12126TIP3    H136314   4.928   5.794   5.800  2.2857 -2.9624 -0.8547
12126TIP3    H236315   4.922   5.809   5.649  2.1017 -4.6939 -1.0295
12127TIP3   OH236316   0.722   4.456   5.760 -0.0914 -0.2208  0.3653
12127TIP3    H136317   0.760   4.542   5.779 -1.1304  0.5035 -0.7582
12127TIP3    H236318   0.723   4.450   5.665 -3.3202  0.1053  0.2407
12128TIP3   OH236319   1.706   5.478   6.024  0.6396 -0.6125  0.2669
12128TIP3    H136320   1.677   5.437   6.105 -1.6091  1.3393  0.4936
12128TIP3    H236321   1.632   5.471   5.965  1.1339  0.7765 -0.5553
12129TIP3   OH236322   0.371   2.047   1.269 -0.3874  0.4307  0.2078
12129TIP3    H136323   0.443   2.020   1.326 -1.4799 -2.2675  0.3847
12129TIP3    H236324   0.357   2.139   1.289  1.4627  0.3713  1.8596
12130TIP3   OH236325   2.108   7.466   6.284 -0.3695  0.1278 -0.8568
12130TIP3    H136326   2.149   7.396   6.232 -1.2194  0.2043 -1.6519
12130TIP3    H236327   2.058   7.516   6.220 -2.0549 -0.2232  0.1580
12131TIP3   OH236328   0.684   2.788   0.670 -0.5234  0.2292  0.0764
12131TIP3    H136329   0.617   2.831   0.722 -0.4543  1.1758 -0.6059
12131TIP3    H236330   0.746   2.858   0.648 -0.9111 -0.0131 -1.8427
12132TIP3   OH236331   0.748   6.216   6.822 -0.5184 -0.4191  0.0827
12132TIP3    H136332   0.809   6.150   6.791 -1.7984 -0.9028 -1.4425
12132TIP3    H236333   0.750   6.208   6.918  1.4978 -0.6739  0.0289
12133TIP3   OH236334   0.924   0.783   0.010  0.0460  0.5187 -0.3247
12133TIP3    H136335   0.853   0.750  -0.045  0.6622 -0.3034 -0.6495
12133TIP3    H236336   0.894   0.769   0.100  0.0302 -0.3697 -0.4581
12134TIP3   OH236337   1.617   7.581   4.220  0.3974 -0.0660 -0.1046
12134TIP3    H136338   1.524   7.575   4.198 -0.2151  1.6153  1.9063
12134TIP3    H236339   1.661   7.567   4.136 -1.6987  0.4892 -1.3575
12135TIP3   OH236340   4.893   5.519   6.091  1.1506 -0.4830 -0.5258
12135TIP3    H136341   4.889   5.496   5.998  1.1342 -0.8978 -0.4224
12135TIP3    H236342   4.801   5.520   6.119  1.1145  0.2010 -0.6463
12136TIP3   OH236343   2.401   7.943   4.937  0.9550 -0.0987 -0.6655
12136TIP3    H136344   2.494   7.963   4.942  1.0348 -0.3952 -1.0115
12136TIP3    H236345   2.360   8.008   4.994  1.8543 -3.2636  3.8777
12137TIP3   OH236346   1.196   5.222   5.358 -0.3684 -0.5093 -0.3225
12137TIP3    H136347   1.170   5.285   5.291  2.1697  2.4911  1.3354
12137TIP3    H236348   1.264   5.170   5.316  0.3765  0.5700 -0.4935
12138TIP3   OH236349   2.272   7.892   4.454 -0.3651  0.3844 -0.0299
12138TIP3    H136350   2.239   7.847   4.376 -2.6586 -1.1683  1.7610
12138TIP3    H236351   2.324   7.825   4.500 -2.0238  0.1566  1.5656
12139TIP3   OH236352   5.765   0.111   5.475 -0.8104 -0.0046  0.2220
12139TIP3    H136353   5.674   0.092   5.449 -0.2397 -0.4949 -1.4931
12139TIP3    H236354   5.757   0.181   5.540 -2.3162  1.4519 -1.4617
12140TIP3   OH236355   7.600   4.123   0.418  0.4807  0.5108 -0.6673
12140TIP3    H136356   7.627   4.032   0.406  0.7632  0.6453 -1.0784
12140TIP3    H236357   7.678   4.174   0.396  0.8502  0.7946  1.2182
12141TIP3   OH236358   1.809   6.341   6.502 -0.2070  0.0697 -0.2236
12141TIP3    H136359   1.800   6.416   6.444 -1.4181 -0.2770 -0.4907
12141TIP3    H236360   1.764   6.270   6.457 -0.4963 -0.3954  0.7963
12142TIP3   OH236361   3.594   0.640   5.838 -0.5029  0.0831 -0.0306
12142TIP3    H136362   3.522   0.682   5.886  0.8827  2.5224 -0.0369
12142TIP3    H236363   3.598   0.551   5.874 -2.1209  0.6130  1.4976
12143TIP3   OH236364   5.482   7.324   6.135 -0.1672  0.6443  0.0729
12143TIP3    H136365   5.490   7.366   6.049 -1.1077  0.3767 -0.1460
12143TIP3    H236366   5.545   7.252   6.132  0.9091  1.5617  0.1739
12144TIP3   OH236367   4.591   7.730   6.388  0.0241  0.2678  0.9121
12144TIP3    H136368   4.660   7.789   6.418  0.2444  1.0993 -1.1547
12144TIP3    H236369   4.513   7.786   6.385  0.1926  0.4526 -0.8659
12145TIP3   OH236370   0.785   6.904   4.651 -0.2235 -0.3034  0.0084
12145TIP3    H136371   0.852   6.970   4.666 -0.6469 -0.3152  2.0691
12145TIP3    H236372   0.766   6.909   4.557  0.7306  1.5431 -0.0917
12146TIP3   OH236373   5.632  -0.014   6.054 -0.1469  0.1686 -0.1560
12146TIP3    H136374   5.649   0.030   6.137 -0.3846 -0.7424  0.3895
12146TIP3    H236375   5.537  -0.014   6.046 -0.0684  1.7025 -1.2382
12147TIP3   OH236376   1.210   7.219   4.941 -0.2038 -1.1150  0.2039
12147TIP3    H136377   1.257   7.296   4.909  2.1455 -2.8056 -0.6056
12147TIP3    H236378   1.233   7.150   4.878 -3.4945 -2.1257  0.0256
12148TIP3   OH236379   8.055   3.907   6.932 -0.0765 -1.1566  0.1967
12148TIP3    H136380   7.976   3.854   6.943 -0.5695 -0.7180 -1.1776
12148TIP3    H236381   8.046   3.945   6.845  0.8812  0.1779  0.6693
12149TIP3   OH236382   0.947   4.918   5.241 -0.6529  0.1747  0.2205
12149TIP3    H136383   1.006   4.961   5.302 -0.0597  0.2936 -0.4342
12149TIP3    H236384   0.873   4.889   5.295  0.2626 -0.4653  1.1375
12150TIP3   OH236385   1.380   7.665   5.559  0.0652  0.0754  0.1810
12150TIP3    H136386   1.345   7.659   5.471  0.0020 -1.5815  0.3003
12150TIP3    H236387   1.464   7.618   5.556 -1.2842 -2.6030  1.6330
12151TIP3   OH236388   1.169   7.078   5.673 -0.0820  0.2732 -0.1252
12151TIP3    H136389   1.261   7.103   5.679  0.0711 -0.4992  1.0207
12151TIP3    H236390   1.136   7.085   5.763 -0.1540 -3.0418  0.1804
12152TIP3   OH236391   3.765   7.832   4.998 -0.2712  0.3631  0.1335
12152TIP3    H136392   3.676   7.865   4.991 -0.9653 -1.7178 -1.3259
12152TIP3    H236393   3.789   7.806   4.909  2.7305  3.1234  0.0500
12153TIP3   OH236394   2.130   6.606   5.275  0.2648 -0.3728  0.1932
12153TIP3    H136395   2.107   6.536   5.336  0.6961  1.2531  2.2842
12153TIP3    H236396   2.049   6.627   5.229 -0.5004 -0.4210  1.4970
12154TIP3   OH236397   4.193   0.334   6.497  0.7886 -0.1352  0.2326
12154TIP3    H136398   4.270   0.371   6.454 -0.7816  2.3565 -0.5461
12154TIP3    H236399   4.147   0.286   6.428  1.4968 -1.4096  0.6372
12155TIP3   OH236400   4.724   1.659   5.758  0.4309  0.1421  0.2446
12155TIP3    H136401   4.798   1.618   5.712  0.0001  0.5851 -0.8686
12155TIP3    H236402   4.735   1.753   5.742  0.3107  0.3036  1.1076
12156TIP3   OH236403   6.687   2.708   0.951 -0.4919 -0.0461 -0.1834
12156TIP3    H136404   6.710   2.768   0.880  1.0350 -0.1233  0.2219
12156TIP3    H236405   6.607   2.743   0.988 -0.0497  1.2833 -0.4763
12157TIP3   OH236406   4.636   6.291   6.166 -0.0828 -0.0538  0.4143
12157TIP3    H136407   4.680   6.367   6.205 -1.4275  0.8561  0.1790
12157TIP3    H236408   4.628   6.313   6.073  0.5555 -0.9967  0.1243
12158TIP3   OH236409   5.547   0.729   5.141  0.0380 -0.0859  0.0119
12158TIP3    H136410   5.526   0.640   5.171 -0.0876 -0.5888 -1.5205
12158TIP3    H236411   5.619   0.716   5.078 -1.2696  0.6947 -1.6791
12159TIP3   OH236412   1.176   6.667   6.328 -0.1200  0.0858 -0.0280
12159TIP3    H136413   1.219   6.711   6.401  1.1620 -0.6036 -0.3568
12159TIP3    H236414   1.243   6.661   6.260 -0.7631 -0.8960 -0.5917
12160TIP3   OH236415   2.262   6.214   4.686 -0.3134  0.1364  0.1724
12160TIP3    H136416   2.177   6.187   4.650 -1.0801  0.4907  1.6642
12160TIP3    H236417   2.252   6.202   4.781  0.8336  1.4800  0.4790
12161TIP3   OH236418   8.245   5.676   4.863 -0.0310 -0.1631 -0.3264
12161TIP3    H136419   8.198   5.683   4.946 -1.5048  2.0412 -1.2932
12161TIP3    H236420   8.332   5.643   4.887 -0.5937  0.0079  2.0301
12162TIP3   OH236421   0.858   1.856   0.758 -0.3804  0.1229  0.1619
12162TIP3    H136422   0.953   1.858   0.771 -0.1032 -1.1253 -1.3551
12162TIP3    H236423   0.837   1.762   0.756 -1.5257  0.3842 -0.2276
12163TIP3   OH236424   4.920   6.611   1.011 -0.2056  0.6039  0.3617
12163TIP3    H136425   4.916   6.536   1.070 -0.2102  1.2686  1.2140
12163TIP3    H236426   4.831   6.645   1.010 -0.4743 -0.0900 -0.9450
12164TIP3   OH236427   1.158   6.839   5.298  0.1325 -0.1732 -0.2374
12164TIP3    H136428   1.190   6.912   5.350  1.1046 -0.5249 -0.3362
12164TIP3    H236429   1.079   6.872   5.255  0.1283  0.5625  0.3430
12165TIP3   OH236430   0.244   2.581   0.464  0.0717 -0.3447 -0.6214
12165TIP3    H136431   0.311   2.515   0.443 -0.4475 -1.2900  0.6605
12165TIP3    H236432   0.221   2.564   0.555 -0.8163  0.9634 -0.5919
12166TIP3   OH236433   1.385   6.340   5.439 -0.1282 -1.0740  0.3839
12166TIP3    H136434   1.315   6.366   5.499  1.4932  0.8798  1.4850
12166TIP3    H236435   1.412   6.254   5.469 -1.9047 -1.7546  0.0740
12167TIP3   OH236436   3.826   6.476   4.983 -0.0576  0.2801 -0.0723
12167TIP3    H136437   3.883   6.435   4.918  0.0759 -0.7302  0.6672
12167TIP3    H236438   3.807   6.563   4.948  2.0967  0.7084 -0.2370
12168TIP3   OH236439   3.045   6.468   4.247 -0.0671  0.0883 -0.0278
12168TIP3    H136440   3.000   6.518   4.180 -1.3449 -1.5580 -0.4400
12168TIP3    H236441   3.038   6.377   4.218  2.6858 -0.3119  0.4075
12169TIP3   OH236442   1.415   3.094   5.570  0.4918  0.0388 -0.6494
12169TIP3    H136443   1.417   3.163   5.504  0.1639 -0.4553 -1.1716
12169TIP3    H236444   1.410   3.142   5.653 -0.8170  0.6343 -1.0615
12170TIP3   OH236445   3.058   5.316   6.271  0.6260 -0.2241 -0.1121
12170TIP3    H136446   2.979   5.277   6.233  1.1627  1.1815 -2.8451
12170TIP3    H236447   3.129   5.288   6.212  1.6932  1.0443  0.5335
12171TIP3   OH236448   2.582   7.217   5.793 -0.0066  0.0819  0.4659
12171TIP3    H136449   2.638   7.284   5.831  0.3674  0.1125 -0.1310
12171TIP3    H236450   2.540   7.175   5.869 -0.1663  0.9139  0.8412
12172TIP3   OH236451   3.356   0.242   5.023  0.3928 -0.3586 -0.3814
12172TIP3    H136452   3.288   0.222   4.959  1.0690 -0.8766 -0.9330
12172TIP3    H236453   3.359   0.338   5.025 -2.6755 -0.2266  2.0967
12173TIP3   OH236454   8.062   5.046   5.186 -0.2298  0.2264 -0.8000
12173TIP3    H136455   8.007   5.042   5.263  1.1309  0.2878  0.1924
12173TIP3    H236456   8.012   5.097   5.122 -1.8126 -0.7377 -0.3495
12174TIP3   OH236457   2.081   3.459   1.186 -0.0818  0.5535 -0.1866
12174TIP3    H136458   2.011   3.460   1.120 -0.1071 -0.0616 -0.1736
12174TIP3    H236459   2.082   3.368   1.218 -2.0877  1.5080  2.8206
12175TIP3   OH236460   0.736   7.400   6.410 -0.4761  0.0584 -0.9589
12175TIP3    H136461   0.745   7.306   6.422  0.0883 -0.2811 -3.7349
12175TIP3    H236462   0.645   7.412   6.382 -0.0135  0.0972 -2.4920
12176TIP3   OH236463   3.480   1.251   5.892 -0.0900  0.2471  0.1613
12176TIP3    H136464   3.524   1.221   5.972 -0.6060 -0.3387  0.2299
12176TIP3    H236465   3.485   1.176   5.833 -1.6333 -0.0871  0.4354
12177TIP3   OH236466   1.184   7.914   5.166 -0.8383  0.0745 -0.1901
12177TIP3    H136467   1.113   7.977   5.180 -0.6131  0.2148  0.3471
12177TIP3    H236468   1.181   7.895   5.072 -1.2163  0.5207 -0.2715
12178TIP3   OH236469   8.237   3.879   0.420  0.7774 -0.3518 -0.4359
12178TIP3    H136470   8.329   3.863   0.444  0.4405 -0.7981  0.6043
12178TIP3    H236471   8.201   3.792   0.403  0.4920 -0.1951 -0.6253
12179TIP3   OH236472   3.101   6.294   3.437 -0.2084  0.2970  0.3302
12179TIP3    H136473   3.052   6.287   3.519 -3.0205 -0.6761 -1.3505
12179TIP3    H236474   3.109   6.204   3.406 -1.7431  0.8852 -1.8675
12180TIP3   OH236475   4.166   1.874   5.922 -0.0234  0.2257  0.1429
12180TIP3    H136476   4.092   1.815   5.905 -0.1692  0.5372 -0.3046
12180TIP3    H236477   4.140   1.956   5.882 -0.0898  0.7817  1.3111
12181TIP3   OH236478   1.555   6.891   5.081 -0.8085  0.5003  0.1365
12181TIP3    H136479   1.469   6.853   5.096 -0.7115  0.7642  1.3587
12181TIP3    H236480   1.566   6.888   4.986 -1.5178 -0.9405  0.0922
12182TIP3   OH236481   7.908   3.016   0.624  0.1827 -0.3522 -0.6929
12182TIP3    H136482   7.931   3.092   0.571  1.7935  0.6495  1.3467
12182TIP3    H236483   7.990   2.969   0.636  0.0803  0.0371  1.7827
12183TIP3   OH236484   3.731   6.395   3.897  0.2804  0.3515 -0.0905
12183TIP3    H136485   3.672   6.410   3.971  0.8486 -0.2925  0.5004
12183TIP3    H236486   3.813   6.437   3.923  1.1054 -1.5770  0.5253
12184TIP3   OH236487   7.578   3.465   0.020 -0.0580  0.0537 -0.1358
12184TIP3    H136488   7.529   3.516  -0.044 -0.4384  0.3081  0.3553
12184TIP3    H236489   7.606   3.530   0.085 -2.2418 -0.6263  1.5583
12185TIP3   OH236490   1.038   6.105   6.529 -0.1451  0.4388  0.0841
12185TIP3    H136491   1.128   6.077   6.546 -0.4816 -0.7652 -0.0192
12185TIP3    H236492   1.005   6.134   6.613  0.0676  0.0471  0.3054
12186TIP3   OH236493   7.471   0.423   6.734  0.6310 -0.0177 -0.9139
12186TIP3    H136494   7.443   0.332   6.745 -2.7960  1.0195 -0.5070
12186TIP3    H236495   7.486   0.432   6.640  0.1598 -0.7916 -1.0704
12187TIP3   OH236496   8.388   3.267   0.395 -0.7556 -0.2309  0.2868
12187TIP3    H136497   8.379   3.313   0.311 -0.2113 -0.3482  0.1573
12187TIP3    H236498   8.415   3.335   0.456  0.7728 -0.4975 -0.0645
12188TIP3   OH236499   4.876   7.351   3.565  0.2946 -0.0495  0.1147
12188TIP3    H136500   4.874   7.259   3.592  3.0481 -0.3771 -0.6406
12188TIP3    H236501   4.892   7.398   3.647  0.0067 -0.3297  0.3371
12189TIP3   OH236502   2.460   6.929   5.074  0.7769 -0.2365  0.2259
12189TIP3    H136503   2.486   7.005   5.126  0.3487 -0.3978  0.6790
12189TIP3    H236504   2.405   6.878   5.132 -1.0943  0.4274 -0.9155
12190TIP3   OH236505   0.556   5.500   5.715  0.1928 -0.2395  0.7937
12190TIP3    H136506   0.483   5.442   5.695  0.6611 -0.0783 -1.5684
12190TIP3    H236507   0.612   5.449   5.774  0.8863 -2.4448 -1.6875
12191TIP3   OH236508   5.554   1.649   5.775  0.5673 -0.0970 -0.4324
12191TIP3    H136509   5.648   1.649   5.754  0.3457 -2.3490 -1.6165
12191TIP3    H236510   5.549   1.692   5.860  2.6186  0.4956 -0.5676
12192TIP3   OH236511   2.295   6.785   2.066  0.1854 -0.0450  0.1655
12192TIP3    H136512   2.351   6.783   2.144 -0.1118  1.7679  0.4523
12192TIP3    H236513   2.352   6.753   1.995  1.0402  0.0905  0.7757
12193TIP3   OH236514   7.321   3.533   1.006 -0.0524 -0.1930 -0.0667
12193TIP3    H136515   7.378   3.513   0.931 -1.6480  1.2806 -1.7423
12193TIP3    H236516   7.235   3.501   0.980 -0.8514  1.2950  0.6784
12194TIP3   OH236517   8.327   4.330   0.890 -0.6595  0.0705  0.3893
12194TIP3    H136518   8.368   4.263   0.945 -0.7726  0.6726  1.2203
12194TIP3    H236519   8.233   4.314   0.900 -0.7117  0.9816  1.3893
12195TIP3   OH236520   1.679   5.052   5.364 -0.0073  0.1075 -0.0732
12195TIP3    H136521   1.760   5.044   5.413  0.3541  0.8726 -0.5209
12195TIP3    H236522   1.622   4.983   5.397  1.0239 -0.7669 -0.1288
12196TIP3   OH236523   8.365   2.094   1.060 -0.0002  0.0452  0.0318
12196TIP3    H136524   8.313   2.167   1.094  1.6852 -0.0526  2.9504
12196TIP3    H236525   8.450   2.103   1.103  1.3162 -1.7430 -2.1002
12197TIP3   OH236526   7.508   4.232   0.113  0.1416 -0.4601 -0.2278
12197TIP3    H136527   7.460   4.231   0.195  0.1082 -2.0259 -0.2428
12197TIP3    H236528   7.448   4.273   0.050  0.3439  1.1669  0.6053
12198TIP3   OH236529   2.753   6.955   5.883 -0.0262  0.3133 -0.0563
12198TIP3    H136530   2.658   6.963   5.875  0.0246  1.4904  0.4077
12198TIP3    H236531   2.787   6.997   5.804  0.0843 -1.3316 -0.9025
12199TIP3   OH236532   3.068   6.644   5.695 -0.5240 -0.4287  0.2148
12199TIP3    H136533   3.103   6.733   5.691 -1.0193 -0.2911 -1.6928
12199TIP3    H236534   3.143   6.587   5.679  0.0962 -0.4535  2.9843
12200TIP3   OH236535   3.910   6.989   5.257  0.0756 -0.1342  0.1532
12200TIP3    H136536   3.828   6.960   5.218  0.5436  1.0895 -1.7924
12200TIP3    H236537   3.971   6.917   5.240 -0.3920 -0.7488  1.0023
12201TIP3   OH236538   0.177   1.657   0.488  0.7145 -0.9862 -0.8628
12201TIP3    H136539   0.168   1.572   0.531 -3.0919  0.3569  1.1995
12201TIP3    H236540   0.251   1.699   0.533  1.2339 -2.3441 -0.4246
12202TIP3   OH236541   7.554   7.317   2.338  0.2127 -0.2027  0.7129
12202TIP3    H136542   7.494   7.348   2.406 -0.2072 -1.4996  0.9472
12202TIP3    H236543   7.626   7.278   2.387  1.6969  2.0889  0.4522
12203TIP3   OH236544   5.268   7.995   0.198  0.4615  0.2387  0.0635
12203TIP3    H136545   5.237   7.923   0.142 -0.9211  1.0787 -0.2766
12203TIP3    H236546   5.362   7.980   0.205  0.0466 -2.2456  0.9207
12204TIP3   OH236547   2.734   6.420   6.503  0.2504  0.1085  0.0958
12204TIP3    H136548   2.741   6.370   6.422 -0.4527  0.4037 -0.1445
12204TIP3    H236549   2.742   6.355   6.573  2.4536  0.0270 -0.1726
12205TIP3   OH236550   0.203   2.612   0.181  0.5304  0.6380 -0.6637
12205TIP3    H136551   0.209   2.599   0.276 -1.0625  0.7589 -0.5314
12205TIP3    H236552   0.156   2.535   0.149 -1.0997  1.7610 -1.0249
12206TIP3   OH236553   4.234   7.694   4.023 -0.4121 -0.0858 -0.1908
12206TIP3    H136554   4.253   7.746   3.945  1.2288 -0.1253  0.1549
12206TIP3    H236555   4.318   7.654   4.045 -1.2802 -1.5359  0.5327
12207TIP3   OH236556   3.704   5.874   5.196  0.1025 -0.0421 -0.1226
12207TIP3    H136557   3.776   5.923   5.235  0.0913  1.5122 -1.9352
12207TIP3    H236558   3.743   5.794   5.163  0.5664 -0.2373  0.8935
12208TIP3   OH236559   2.233   5.296   5.829 -0.2593  0.1995  0.1513
12208TIP3    H136560   2.171   5.225   5.817 -1.5131  1.0919  1.2260
12208TIP3    H236561   2.273   5.280   5.914  1.5997 -0.8142 -0.8795
12209TIP3   OH236562   2.101   6.655   6.570 -0.2688  0.8382  0.2795
12209TIP3    H136563   2.190   6.624   6.588  0.8120  2.2021 -2.5002
12209TIP3    H236564   2.048   6.614   6.639  2.6409  0.8679  2.6529
12210TIP3   OH236565   4.902   6.999   4.595  0.0156 -0.6999 -0.1993
12210TIP3    H136566   4.863   6.983   4.681 -0.1965  1.1789  0.0874
12210TIP3    H236567   4.840   7.058   4.552  2.4102  2.2239  0.2042
12211TIP3   OH236568   7.138   0.288   6.032  0.5319  0.6657  0.3852
12211TIP3    H136569   7.085   0.245   6.098  0.1696 -0.3689 -0.5759
12211TIP3    H236570   7.135   0.230   5.956  1.2020  1.6832 -0.4400
12212TIP3   OH236571   1.510   2.408   0.940  0.3734 -0.0867  0.4016
12212TIP3    H136572   1.566   2.356   0.997  3.2414  0.5438 -1.7050
12212TIP3    H236573   1.450   2.346   0.900 -0.4050 -0.7985  2.6557
12213TIP3   OH236574   3.125   7.024   2.933  0.1019 -0.2302  0.4584
12213TIP3    H136575   3.136   6.954   2.998  0.3150 -0.9936 -0.3918
12213TIP3    H236576   3.098   6.979   2.854 -0.9876  0.7894  0.2377
12214TIP3   OH236577   3.418   6.458   4.622 -0.4012  0.1775 -0.5066
12214TIP3    H136578   3.333   6.490   4.590  0.5594  2.6300 -0.7403
12214TIP3    H236579   3.409   6.458   4.717 -0.4257  1.2005 -0.4976
12215TIP3   OH236580   2.741   7.385   5.982 -0.5132  0.4087  0.7488
12215TIP3    H136581   2.827   7.376   6.023 -1.2496  0.0943  2.2402
12215TIP3    H236582   2.695   7.448   6.037 -0.7604  1.6866 -0.8711
12216TIP3   OH236583   3.384   6.641   6.274 -0.5276  0.4739 -0.1898
12216TIP3    H136584   3.293   6.670   6.269 -0.9979 -0.5748  1.9072
12216TIP3    H236585   3.431   6.714   6.314 -0.9572  0.0067  1.2067
12217TIP3   OH236586   2.731   7.577   4.758  0.2135  0.3528  0.1994
12217TIP3    H136587   2.775   7.624   4.828 -0.9612  0.5972  0.7823
12217TIP3    H236588   2.641   7.566   4.788  0.1738 -1.2550 -0.4271
12218TIP3   OH236589   2.493   7.648   5.347 -0.0531  0.0785  0.5807
12218TIP3    H136590   2.482   7.678   5.437  0.4291 -0.3379  0.7813
12218TIP3    H236591   2.471   7.724   5.293  0.2770  0.5196  1.0645
12219TIP3   OH236592   3.517   6.874   5.051  0.1853 -0.4384  0.1265
12219TIP3    H136593   3.461   6.797   5.045 -0.3251 -0.0497 -0.0613
12219TIP3    H236594   3.540   6.880   5.144 -1.7645  0.5923  0.5689
12220TIP3   OH236595   1.931   6.368   5.869  0.4042  0.7402 -0.3418
12220TIP3    H136596   1.911   6.346   5.778  2.7731 -2.1479 -0.2234
12220TIP3    H236597   1.901   6.293   5.919  2.5070  0.6438  0.8377
12221TIP3   OH236598   1.477   3.368   1.347  0.2582 -0.2572 -0.1234
12221TIP3    H136599   1.384   3.357   1.362 -0.0963 -1.2790 -2.9600
12221TIP3    H236600   1.518   3.298   1.398 -0.3826  0.9390  2.1264
12222TIP3   OH236601   1.940   7.373   5.210 -0.0951 -0.4849 -0.7856
12222TIP3    H136602   1.955   7.409   5.123 -1.2154  1.3870 -0.2429
12222TIP3    H236603   1.871   7.307   5.198  0.0752 -0.5508 -1.3851
12223TIP3   OH236604   3.493   7.483   4.041  0.1717 -0.1193 -0.1653
12223TIP3    H136605   3.521   7.433   3.964 -0.8740  1.1041 -1.3737
12223TIP3    H236606   3.553   7.557   4.043  0.4553 -0.3668  0.4449
12224TIP3   OH236607   3.212   5.966   5.670  0.1302  0.2375  0.1130
12224TIP3    H136608   3.244   5.992   5.583  1.3436  3.1379  1.3560
12224TIP3    H236609   3.118   5.985   5.667 -0.1296 -1.1361 -1.0556
12225TIP3   OH236610   4.210   4.783   5.479  0.3750 -0.0466 -0.0162
12225TIP3    H136611   4.213   4.809   5.571  2.3751 -1.6233  0.3845
12225TIP3    H236612   4.117   4.770   5.461 -0.0582  0.4919  1.7034
12226TIP3   OH236613   4.893   7.420   5.720  0.0394  0.2610  0.2603
12226TIP3    H136614   4.836   7.417   5.643  2.0192  0.6946 -1.2479
12226TIP3    H236615   4.836   7.393   5.793 -1.3376 -2.2317 -1.6439
12227TIP3   OH236616   7.673   0.957   0.478  0.1948  0.0323 -0.6023
12227TIP3    H136617   7.611   1.008   0.530  0.0323  0.4082 -1.1548
12227TIP3    H236618   7.639   0.962   0.389 -1.4543 -3.5117 -0.2368
12228TIP3   OH236619   6.294   6.602   6.881 -0.4432 -0.4449 -0.1715
12228TIP3    H136620   6.213   6.552   6.885  0.5949 -2.4138 -2.2555
12228TIP3    H236621   6.355   6.556   6.938 -0.3982  0.2726  0.3715
12229TIP3   OH236622   5.136   6.561   0.824  0.3290  0.1345  0.5834
12229TIP3    H136623   5.210   6.500   0.832  1.6609  1.6875  0.3867
12229TIP3    H236624   5.073   6.530   0.890  0.5291 -2.0299 -0.1822
12230TIP3   OH236625   2.822   2.674   5.433  0.1359 -0.6370  0.0563
12230TIP3    H136626   2.839   2.596   5.486 -0.6134 -0.5673  0.4016
12230TIP3    H236627   2.763   2.727   5.486  0.9388  0.3434 -0.0241
12231TIP3   OH236628   1.305   6.771   6.556  0.0004 -0.1243 -0.1262
12231TIP3    H136629   1.326   6.860   6.527 -0.2470 -0.0203  0.0117
12231TIP3    H236630   1.323   6.771   6.650  0.4671 -0.3598 -0.2182
12232TIP3   OH236631   1.101   4.536   0.658  0.0967  0.1131  0.0714
12232TIP3    H136632   1.178   4.479   0.657  0.9524  1.2392 -0.4630
12232TIP3    H236633   1.026   4.477   0.654  0.9303 -1.0181  1.0780
12233TIP3   OH236634   3.065   7.276   6.742 -0.2842 -0.4735 -0.3152
12233TIP3    H136635   3.016   7.341   6.791  0.5306 -0.0247 -0.0737
12233TIP3    H236636   3.072   7.313   6.654 -2.9410 -1.9174 -1.1658
12234TIP3   OH236637   1.173   5.555   6.507 -0.3402 -0.5623  0.2904
12234TIP3    H136638   1.199   5.606   6.583 -0.2912  1.2235 -0.8852
12234TIP3    H236639   1.248   5.499   6.489  1.4889  2.1977 -1.0992
12235TIP3   OH236640   0.528   2.279   0.656  0.0519 -0.1562  0.7854
12235TIP3    H136641   0.484   2.262   0.739 -1.3510  0.5256  0.2117
12235TIP3    H236642   0.577   2.360   0.671  0.3113 -0.3773  1.1357
12236TIP3   OH236643   8.088   0.017   1.357  0.3045  0.1617  0.2872
12236TIP3    H136644   8.084   0.102   1.312  1.6338 -0.4149 -0.9527
12236TIP3    H236645   8.019  -0.035   1.315 -0.0930  0.4245  0.6149
12237TIP3   OH236646   4.403   0.019   5.833 -0.5097 -0.1781 -0.8806
12237TIP3    H136647   4.398   0.017   5.928 -0.9330 -0.3957 -0.9035
12237TIP3    H236648   4.324  -0.028   5.804 -1.0195  0.9474 -1.3431
12238TIP3   OH236649   0.376   4.636   0.413  0.1892 -0.1136 -0.4709
12238TIP3    H136650   0.325   4.704   0.456 -2.2633 -2.0241 -0.1961
12238TIP3    H236651   0.411   4.677   0.334  0.2385  1.9139  0.5796
12239TIP3   OH236652   6.728   3.193   1.053 -0.5383 -0.0725  0.2428
12239TIP3    H136653   6.795   3.178   1.120 -0.8659 -0.8848  0.3968
12239TIP3    H236654   6.775   3.237   0.982 -0.1999  0.8717  1.0231
12240TIP3   OH236655   4.460   0.948   6.484  0.1443  0.2236 -0.5949
12240TIP3    H136656   4.486   0.882   6.420 -0.3790  1.1178 -1.7481
12240TIP3    H236657   4.384   0.992   6.445  1.3512  2.4720 -0.5198
12241TIP3   OH236658   6.003   4.900   5.494  0.6100 -0.2029  0.2635
12241TIP3    H136659   6.042   4.851   5.422 -1.3130  0.2936 -1.1858
12241TIP3    H236660   5.932   4.950   5.452  0.1218  0.8892  2.3388
12242TIP3   OH236661   4.163   0.226   6.209 -0.1047  0.3049  0.3659
12242TIP3    H136662   4.175   0.138   6.244  0.8101  0.2184 -0.1272
12242TIP3    H236663   4.239   0.239   6.152 -0.0360  1.5563  0.7347
12243TIP3   OH236664   7.390   2.867   1.595  0.0383 -0.3568  0.1901
12243TIP3    H136665   7.328   2.799   1.568 -0.8960  1.4433 -2.4437
12243TIP3    H236666   7.476   2.828   1.580 -0.4800 -0.9467 -1.4509
12244TIP3   OH236667   3.113   7.006   4.486  0.3099  0.2550  0.4839
12244TIP3    H136668   3.082   7.061   4.559 -0.4961  0.5597 -0.0789
12244TIP3    H236669   3.105   6.916   4.519 -1.0150  0.3362  0.4262
12245TIP3   OH236670   5.874   0.206   6.690  0.5385 -0.1999  0.2342
12245TIP3    H136671   5.946   0.200   6.627  1.0768 -2.2967  1.0132
12245TIP3    H236672   5.834   0.119   6.689  0.0368 -0.0066  2.1778
12246TIP3   OH236673   2.512   6.726   6.379 -0.0872 -0.3635 -0.1906
12246TIP3    H136674   2.434   6.739   6.325 -0.2308 -0.8421 -0.0938
12246TIP3    H236675   2.568   6.801   6.358 -0.8014  0.2654  0.1414
12247TIP3   OH236676   0.501   1.477   1.768  0.2265  0.4655  0.4522
12247TIP3    H136677   0.462   1.521   1.692  0.2611  0.2586  0.3132
12247TIP3    H236678   0.440   1.406   1.789 -0.4643  1.3404  1.4508
12248TIP3   OH236679   1.751   7.787   5.904  0.3118  0.0721  0.3562
12248TIP3    H136680   1.742   7.837   5.985 -1.7410  1.3935 -0.6378
12248TIP3    H236681   1.744   7.853   5.835 -1.1576 -1.4203 -0.9569
12249TIP3   OH236682   6.909   3.512   0.731 -0.3801 -0.3972  0.0755
12249TIP3    H136683   6.949   3.597   0.746 -0.3350 -0.4433  0.2203
12249TIP3    H236684   6.829   3.531   0.682 -0.0077 -0.3329 -0.5212
12250TIP3   OH236685   2.679   7.448   6.485  0.0040  0.2422  0.2843
12250TIP3    H136686   2.730   7.368   6.493  1.5566  1.2496  0.5574
12250TIP3    H236687   2.595   7.419   6.448 -0.0281 -1.7100  1.8129
12251TIP3   OH236688   3.254   6.703   6.875  0.0022 -0.0786  0.5001
12251TIP3    H136689   3.327   6.762   6.857 -0.7496  0.9923  0.8640
12251TIP3    H236690   3.241   6.709   6.969 -0.5501 -0.2526  0.4396
12252TIP3   OH236691   4.412   4.957   4.107 -0.3627 -0.1296  0.4236
12252TIP3    H136692   4.442   4.889   4.046  0.0321 -2.3185  2.9511
12252TIP3    H236693   4.482   4.962   4.172  0.4809  4.0804 -0.7205
12253TIP3   OH236694   2.149   6.232   6.025 -0.3291  0.1373 -0.1543
12253TIP3    H136695   2.099   6.192   6.096  0.7055 -0.5759  0.1921
12253TIP3    H236696   2.165   6.322   6.054 -3.2609  1.0740 -1.2372
12254TIP3   OH236697   7.906   2.066   0.884 -0.3165  0.3814  0.1736
12254TIP3    H136698   7.812   2.054   0.896 -0.6257  0.8059 -1.5843
12254TIP3    H236699   7.946   1.988   0.923 -1.5022 -0.5624 -0.4794
12255TIP3   OH236700   3.676   6.544   6.388 -0.1317 -0.1697  0.2047
12255TIP3    H136701   3.619   6.487   6.337  1.4788 -0.2125 -1.6018
12255TIP3    H236702   3.749   6.489   6.415  0.2292  0.4464  0.5145
12256TIP3   OH236703   1.589   5.327   6.222  0.2027  0.1381  0.7266
12256TIP3    H136704   1.516   5.277   6.185  1.2719 -1.0333  0.1248
12256TIP3    H236705   1.641   5.262   6.269  0.3457  1.1333  1.9657
12257TIP3   OH236706   3.170   6.946   5.351 -0.4699 -0.3460  0.0180
12257TIP3    H136707   3.173   6.979   5.261 -1.6642 -2.4586 -0.8148
12257TIP3    H236708   3.119   6.866   5.346 -1.3548 -0.0113  2.7580
12258TIP3   OH236709   1.324   7.892   5.740 -0.3798  0.1921  0.2376
12258TIP3    H136710   1.378   7.888   5.661 -0.2011  1.8878  0.2463
12258TIP3    H236711   1.253   7.830   5.724 -0.3569  0.5297 -1.2642
12259TIP3   OH236712   8.235   3.208   1.043  0.3267 -0.1077  0.3978
12259TIP3    H136713   8.242   3.126   0.994 -0.5018  0.6258 -0.9752
12259TIP3    H236714   8.312   3.207   1.100  0.7632 -1.4668 -0.1635
12260TIP3   OH236715   4.220   4.006   5.726 -0.4848 -0.2747  0.1947
12260TIP3    H136716   4.261   4.031   5.644 -0.1243 -0.1878  0.4023
12260TIP3    H236717   4.202   3.912   5.717  1.1743 -0.6571  0.7106
12261TIP3   OH236718   1.039   6.045   6.136 -0.2021 -0.0338 -0.4224
12261TIP3    H136719   1.059   6.075   6.047  1.7885 -2.7969 -0.9594
12261TIP3    H236720   0.991   5.964   6.124 -0.4124 -0.1394  1.0325
12262TIP3   OH236721   4.485   5.179   3.944  0.1920 -0.4769  0.3068
12262TIP3    H136722   4.444   5.120   4.007 -0.4620  0.7956  1.0972
12262TIP3    H236723   4.415   5.240   3.920  0.8454 -0.0404 -0.5231
12263TIP3   OH236724   2.684   6.290   5.665 -0.2899  0.4111 -0.4350
12263TIP3    H136725   2.773   6.291   5.700 -0.4261  1.3703 -0.0951
12263TIP3    H236726   2.655   6.200   5.676  0.2471  0.3391  0.4605
12264TIP3   OH236727   2.227   3.782   0.541  0.1617 -0.0253  0.1906
12264TIP3    H136728   2.277   3.744   0.469 -0.6915  1.6812 -1.3500
12264TIP3    H236729   2.247   3.876   0.537 -0.8199  0.2544  1.4537
12265TIP3   OH236730   2.695   5.447   4.850  0.0667 -0.5903  0.0964
12265TIP3    H136731   2.706   5.511   4.779  1.3582 -1.4070 -0.4620
12265TIP3    H236732   2.783   5.439   4.888 -0.0943 -2.0143  0.1699
12266TIP3   OH236733   4.287   6.966   5.131  0.3314 -0.5178 -0.1194
12266TIP3    H136734   4.256   7.056   5.116  1.0942 -0.0729  0.9187
12266TIP3    H236735   4.367   6.977   5.182  0.5703 -1.7907 -0.2155
12267TIP3   OH236736   0.781   2.990   1.577 -0.5756  0.5927  0.0331
12267TIP3    H136737   0.849   3.037   1.625 -2.1773 -0.0289  3.0556
12267TIP3    H236738   0.715   3.057   1.559  0.5303  1.0671 -2.3640
12268TIP3   OH236739   5.350   6.666   5.076  0.6128  0.0951 -0.7465
12268TIP3    H136740   5.278   6.722   5.047 -2.0283 -2.1618  1.0863
12268TIP3    H236741   5.417   6.676   5.009 -1.2820  2.5269 -2.3809
12269TIP3   OH236742   3.864   6.234   5.157 -0.0635  0.2132  0.0280
12269TIP3    H136743   3.870   6.314   5.106  0.0587  0.6482  0.7186
12269TIP3    H236744   3.896   6.165   5.099  2.3365  1.0440  0.3296
12270TIP3   OH236745   4.633   5.459   6.562  0.1389  0.2949  0.4664
12270TIP3    H136746   4.665   5.428   6.478 -3.1159  0.6944 -0.9874
12270TIP3    H236747   4.699   5.431   6.625  1.7582 -1.5355 -1.9813
12271TIP3   OH236748   4.045   5.508   5.269  0.2495 -0.0283  0.6285
12271TIP3    H136749   4.104   5.473   5.336  0.6486 -0.2497  0.1659
12271TIP3    H236750   3.989   5.434   5.246 -0.8086  0.4235  1.7104
12272TIP3   OH236751   5.220   6.312   4.418  0.4665 -0.1814  0.2379
12272TIP3    H136752   5.222   6.338   4.511  0.9423 -0.9958  0.4551
12272TIP3    H236753   5.233   6.394   4.371 -0.3406  0.3284  0.8760
12273TIP3   OH236754   3.063   6.772   5.077  0.0156 -0.0307 -0.0323
12273TIP3    H136755   2.986   6.738   5.122  0.7239 -0.5480  0.8206
12273TIP3    H236756   3.123   6.697   5.072  1.6354  1.0889  1.9404
12274TIP3   OH236757   7.960   0.114   5.528 -0.2686 -0.0815 -0.2895
12274TIP3    H136758   7.990   0.161   5.450 -0.5138 -1.0472 -0.9854
12274TIP3    H236759   7.897   0.172   5.570 -0.0826  0.4705 -0.7838
12275TIP3   OH236760   4.745   6.954   4.851  0.3481  0.4154 -0.0169
12275TIP3    H136761   4.652   6.956   4.875  0.1185  1.2461 -0.9171
12275TIP3    H236762   4.791   6.936   4.933 -0.4942  1.7875  0.7756
12276TIP3   OH236763   4.276   7.884   6.044  0.1504  0.2079 -0.0607
12276TIP3    H136764   4.253   7.814   6.105  2.5023 -0.5852 -0.0323
12276TIP3    H236765   4.197   7.938   6.037 -0.7160 -0.7349  2.2561
12277TIP3   OH236766   4.620   5.128   6.648 -0.1232  0.7404  0.3232
12277TIP3    H136767   4.693   5.067   6.652 -1.5652 -1.0438  0.0688
12277TIP3    H236768   4.590   5.134   6.739 -1.0150 -0.2388  0.1043
12278TIP3   OH236769   3.847   6.074   6.035  0.1475  0.3763 -0.3026
12278TIP3    H136770   3.886   6.127   5.965 -1.9948  2.6578  0.1836
12278TIP3    H236771   3.921   6.051   6.092  1.3375  1.5459 -1.3480
12279TIP3   OH236772   4.278   6.455   4.340 -0.5825  0.4725  0.3350
12279TIP3    H136773   4.243   6.541   4.314 -2.2209 -0.3207 -0.1572
12279TIP3    H236774   4.209   6.417   4.394  0.4220 -0.2743  1.1048
12280TIP3   OH236775   2.375   1.025   0.337 -0.0281 -0.1541 -0.1804
12280TIP3    H136776   2.293   0.988   0.305  0.4078  0.3082 -1.8683
12280TIP3    H236777   2.425   0.949   0.368 -0.4632 -0.6129 -0.5987
12281TIP3   OH236778   3.487   6.065   3.849 -0.0501 -0.4773  0.3035
12281TIP3    H136779   3.413   6.036   3.796 -0.9126 -0.1125  1.2831
12281TIP3    H236780   3.564   6.042   3.798 -0.8535 -0.5630 -0.8827
12282TIP3   OH236781   3.348   6.510   5.971  0.1922  0.3809 -0.1377
12282TIP3    H136782   3.335   6.475   6.059  0.7589  2.8501  0.9546
12282TIP3    H236783   3.442   6.528   5.966  0.3163 -0.5479 -1.5801
12283TIP3   OH236784   6.458   6.393   4.452 -0.2134 -0.1503 -0.1859
12283TIP3    H136785   6.395   6.380   4.381  0.3179  1.9406 -1.0771
12283TIP3    H236786   6.459   6.487   4.466  0.5383 -0.4308  1.8494
12284TIP3   OH236787   5.666   6.514   6.643  0.2255 -0.1711  0.7628
12284TIP3    H136788   5.615   6.528   6.722 -0.2464 -0.1859  0.4652
12284TIP3    H236789   5.709   6.429   6.656 -1.4478 -1.1452  0.1615
12285TIP3   OH236790   7.711   0.556   6.148  0.1368 -0.1243 -0.3745
12285TIP3    H136791   7.760   0.523   6.224  1.6935  0.8637 -0.9271
12285TIP3    H236792   7.629   0.589   6.185  0.4040 -0.6859  0.7356
12286TIP3   OH236793   0.502   0.394   5.174 -0.6510  0.0975 -0.3637
12286TIP3    H136794   0.450   0.463   5.214  1.4437  1.3169  0.3184
12286TIP3    H236795   0.443   0.319   5.170 -2.0680  1.0804  1.5188
12287TIP3   OH236796   5.492   6.067   5.394  0.5894 -0.8098 -0.1116
12287TIP3    H136797   5.453   5.980   5.380 -0.4498 -0.6285  1.5100
12287TIP3    H236798   5.418   6.123   5.416  1.1927  0.6236 -1.6800
12288TIP3   OH236799   4.990   6.169   5.692  0.3981  0.8127 -0.5392
12288TIP3    H136800   4.995   6.235   5.623  1.8551  0.6915 -0.5708
12288TIP3    H236801   5.021   6.089   5.650  1.0441  0.6850  0.1662
12289TIP3   OH236802   2.168   7.801   5.332 -0.8955  0.0794  0.5068
12289TIP3    H136803   2.188   7.864   5.400 -1.3704 -0.2853  0.9830
12289TIP3    H236804   2.131   7.726   5.378  1.1315 -1.2028  0.1346
12290TIP3   OH236805   2.547   7.099   5.534 -0.1432 -0.5396  0.7126
12290TIP3    H136806   2.459   7.064   5.519 -0.5951  1.1058 -0.6291
12290TIP3    H236807   2.538   7.151   5.613 -0.4637 -0.1274  0.4109
12291TIP3   OH236808   0.267   1.019   6.087 -0.1671  0.4426  0.3689
12291TIP3    H136809   0.194   0.959   6.103  0.4686 -0.3181  0.4140
12291TIP3    H236810   0.226   1.097   6.049 -0.7818 -0.7129 -1.3774
12292TIP3   OH236811   2.635   3.918   0.219 -0.3709 -0.1943 -0.1303
12292TIP3    H136812   2.571   3.858   0.258 -0.2143 -0.3943 -0.1823
12292TIP3    H236813   2.621   4.001   0.265 -0.2978 -0.3871  0.2382
12293TIP3   OH236814   2.539   0.543   0.261  0.2163  0.0297 -0.2222
12293TIP3    H136815   2.586   0.596   0.325  2.5492  0.8108 -2.4890
12293TIP3    H236816   2.512   0.465   0.309  0.9378  1.1098  1.9722
12294TIP3   OH236817   3.280   4.251   0.587 -0.3116  0.7646 -0.2270
12294TIP3    H136818   3.363   4.255   0.636 -0.0973  2.6318 -0.7119
12294TIP3    H236819   3.304   4.211   0.503 -0.0636  0.5393 -0.0503
12295TIP3   OH236820   1.281   0.593   4.856  0.4702 -0.2465 -0.1355
12295TIP3    H136821   1.221   0.525   4.887 -1.4807  0.2023 -2.7194
12295TIP3    H236822   1.258   0.671   4.906  0.1377 -0.5423  0.1715
12296TIP3   OH236823   2.493   4.231   0.643 -0.5615 -0.3911 -0.1584
12296TIP3    H136824   2.578   4.187   0.647 -0.9483 -1.1067  0.4001
12296TIP3    H236825   2.511   4.321   0.668  0.0885 -0.4587 -0.3760
12297TIP3   OH236826   5.321   6.187   5.724  0.0916  0.3872 -0.3864
12297TIP3    H136827   5.258   6.121   5.695  0.5916  0.8029 -2.4450
12297TIP3    H236828   5.354   6.227   5.644  0.0482  2.9408  0.8349
12298TIP3   OH236829   4.096   4.849   5.114 -0.1974 -0.3149 -0.0975
12298TIP3    H136830   4.118   4.821   5.026  0.0266  4.7588 -1.8589
12298TIP3    H236831   4.177   4.838   5.164 -0.4521 -3.6342 -0.3635
12299TIP3   OH236832   4.889   6.884   5.060  0.0833 -0.7776  0.4194
12299TIP3    H136833   4.950   6.954   5.081  0.8356 -0.7779 -1.6847
12299TIP3    H236834   4.941   6.820   5.011 -1.3765 -1.2318 -0.5746
12300TIP3   OH236835   5.283   7.663   6.233 -0.1357  0.0270  0.2075
12300TIP3    H136836   5.345   7.599   6.266  0.0143  0.3714  0.6013
12300TIP3    H236837   5.242   7.700   6.312 -0.4102  0.2211 -0.0235
12301TIP3   OH236838   5.009   5.667   6.847 -0.4271 -0.3400 -0.0198
12301TIP3    H136839   5.070   5.598   6.822 -0.2956  0.4074 -1.8206
12301TIP3    H236840   4.983   5.644   6.936 -0.6179 -2.8628 -0.6843
12302TIP3   OH236841   5.358   7.653   6.604  0.2244 -0.5564 -0.0173
12302TIP3    H136842   5.432   7.683   6.656  1.0821 -2.1269 -0.2743
12302TIP3    H236843   5.398   7.618   6.524 -0.8521 -0.7679 -0.4769
12303TIP3   OH236844   5.205   5.449   4.804 -0.1586 -0.6236  0.2403
12303TIP3    H136845   5.229   5.394   4.730 -3.3311 -1.0081 -0.5934
12303TIP3    H236846   5.111   5.465   4.792  0.1147  2.6765  1.9816
12304TIP3   OH236847   0.988   2.968   1.217 -0.3592 -0.0638 -0.2067
12304TIP3    H136848   1.037   2.898   1.175  0.3633  0.1310  0.2991
12304TIP3    H236849   0.901   2.930   1.232  0.3179 -1.2018  0.9626
12305TIP3   OH236850   5.046   7.569   4.409  0.7709 -0.1152 -0.2291
12305TIP3    H136851   5.090   7.546   4.327  1.4903 -0.5085  0.2520
12305TIP3    H236852   5.109   7.544   4.477 -0.5417 -1.4719  0.5179
12306TIP3   OH236853   2.696   7.625   4.295  0.3510 -0.4476 -0.1131
12306TIP3    H136854   2.781   7.580   4.297  0.3852 -0.4495 -1.1237
12306TIP3    H236855   2.637   7.568   4.345  0.9230 -0.4924  0.5135
12307TIP3   OH236856   5.700   7.485   5.645  0.4125  0.1815  0.0520
12307TIP3    H136857   5.676   7.577   5.661 -0.0151 -0.3287  2.6570
12307TIP3    H236858   5.795   7.485   5.648  0.3878  0.2778  2.0372
12308TIP3   OH236859   3.609   5.871   6.304  0.5087 -0.1392  0.2127
12308TIP3    H136860   3.702   5.864   6.283  0.6853 -0.4247  1.0805
12308TIP3    H236861   3.578   5.944   6.251  0.8909 -0.9930 -1.2189
12309TIP3   OH236862   5.983   0.952   5.415 -0.0369 -0.2743 -0.0677
12309TIP3    H136863   5.949   0.931   5.502 -2.4757  0.3431 -0.8460
12309TIP3    H236864   6.028   1.036   5.426  1.6018 -1.2621  1.0394
12310TIP3   OH236865   0.725   2.749   0.014 -0.3424 -0.8556 -0.6661
12310TIP3    H136866   0.769   2.834   0.022 -0.0784 -0.7809 -2.4950
12310TIP3    H236867   0.740   2.706   0.098  0.2085  0.5860  0.0021
12311TIP3   OH236868   5.703   0.561   5.811  0.0400  0.5204  0.4461
12311TIP3    H136869   5.635   0.552   5.879 -0.0123  0.7207  0.4202
12311TIP3    H236870   5.785   0.554   5.859  0.0022 -0.0413  0.4359
12312TIP3   OH236871   4.355   7.302   5.507  0.1994  0.6589  0.1649
12312TIP3    H136872   4.302   7.374   5.541 -1.0876 -0.1739 -0.0613
12312TIP3    H236873   4.330   7.226   5.559 -0.4237 -0.2192 -1.3890
12313TIP3   OH236874   2.765   7.488   5.436 -0.0301  0.5919 -0.0955
12313TIP3    H136875   2.735   7.398   5.424 -0.4144  0.7269 -0.1602
12313TIP3    H236876   2.685   7.541   5.431  0.0534  0.8372  1.1135
12314TIP3   OH236877   5.594   1.792   4.688  0.6575  0.0185 -0.4145
12314TIP3    H136878   5.677   1.758   4.720  0.3312  1.0148  1.5521
12314TIP3    H236879   5.585   1.755   4.600  1.2930 -3.3192  0.8484
12315TIP3   OH236880   2.817   2.211   0.244  0.1951  0.7059  0.5569
12315TIP3    H136881   2.787   2.241   0.330 -2.5461 -0.3076 -0.0052
12315TIP3    H236882   2.826   2.116   0.253  0.3563  0.6481 -0.1547
12316TIP3   OH236883   6.549   1.517   5.858 -0.0494  0.0925  0.4956
12316TIP3    H136884   6.583   1.434   5.891  1.8576  0.4166 -0.5391
12316TIP3    H236885   6.600   1.584   5.904 -2.9186  0.7932  2.7839
12317TIP3   OH236886   6.937   2.068   5.886  0.5350  0.9081  0.6471
12317TIP3    H136887   6.926   2.036   5.975 -0.1767 -0.5253  0.0637
12317TIP3    H236888   6.850   2.100   5.861 -0.0586 -1.5378 -0.5870
12318TIP3   OH236889   2.862   7.868   2.324 -0.3053 -0.2977 -1.1249
12318TIP3    H136890   2.956   7.857   2.308 -0.5317 -1.8360 -1.5078
12318TIP3    H236891   2.844   7.814   2.401 -0.6903  0.8501 -0.3920
12319TIP3   OH236892   4.393   6.741   5.508 -0.3137  0.2155 -0.1607
12319TIP3    H136893   4.376   6.712   5.598 -0.1251  1.0055  0.1397
12319TIP3    H236894   4.309   6.729   5.463 -0.4042 -0.2036  0.1162
12320TIP3   OH236895   4.797   7.632   4.879 -0.1141 -0.2659 -0.0579
12320TIP3    H136896   4.758   7.585   4.805 -0.2335  0.4108 -0.4181
12320TIP3    H236897   4.722   7.659   4.933 -0.0273 -0.7756  0.3306
12321TIP3   OH236898   4.862   6.226   4.985 -0.1961 -0.4047  0.1301
12321TIP3    H136899   4.851   6.306   5.036 -0.0286  0.5680 -1.3212
12321TIP3    H236900   4.938   6.243   4.930 -1.8605 -0.4275 -2.2494
12322TIP3   OH236901   3.667   7.393   6.902  0.0580  1.2395  0.3038
12322TIP3    H136902   3.743   7.340   6.926 -0.5350  0.0847 -0.3377
12322TIP3    H236903   3.593   7.333   6.906 -0.6057  1.9839 -0.5418
12323TIP3   OH236904   3.844   5.866   6.841 -0.3456  0.2112 -0.2382
12323TIP3    H136905   3.813   5.871   6.751  0.7340  1.3293 -0.5658
12323TIP3    H236906   3.776   5.819   6.888  0.7393 -3.6870 -2.3894
12324TIP3   OH236907   1.211   2.356   0.439  0.3808  0.4017 -0.9186
12324TIP3    H136908   1.232   2.424   0.375 -0.7234 -1.4040 -3.2853
12324TIP3    H236909   1.169   2.403   0.511 -1.4219  2.1349 -3.0237
12325TIP3   OH236910   1.226   0.471   0.642  0.3659  0.4746  0.5962
12325TIP3    H136911   1.211   0.384   0.679 -0.6738  0.1381 -0.6000
12325TIP3    H236912   1.213   0.460   0.548  2.0216  1.5317  0.2243
12326TIP3   OH236913   6.367   3.059   6.671 -0.6534 -0.2023  0.1284
12326TIP3    H136914   6.312   3.077   6.747 -0.9332 -0.4982 -0.0042
12326TIP3    H236915   6.438   3.123   6.677 -1.3008  0.5343  0.0016
12327TIP3   OH236916   4.475   5.060   5.500  0.1324 -0.1248 -0.2997
12327TIP3    H136917   4.515   5.067   5.414 -2.6658  0.4277 -1.5969
12327TIP3    H236918   4.413   4.987   5.492  0.1155 -0.3120  1.3675
12328TIP3   OH236919   4.815   0.511   5.385  0.2550  0.4598  0.2999
12328TIP3    H136920   4.885   0.458   5.344  0.9051  2.0822 -0.7509
12328TIP3    H236921   4.743   0.508   5.322  0.9089  2.1780 -0.5638
12329TIP3   OH236922   3.074   6.568   5.965  0.4040 -0.2193 -0.0466
12329TIP3    H136923   3.070   6.589   5.872  0.5920 -0.0343 -0.0148
12329TIP3    H236924   3.165   6.584   5.990  0.4028 -0.4689  0.1225
12330TIP3   OH236925   4.320   7.989   4.552 -0.3801  0.1177  0.0897
12330TIP3    H136926   4.229   8.014   4.535 -0.4707  0.2680  0.7984
12330TIP3    H236927   4.316   7.931   4.628  0.1722  0.5671  0.4686
12331TIP3   OH236928   4.478   5.572   5.850 -0.0596  0.0003  0.3511
12331TIP3    H136929   4.410   5.575   5.782  0.9634 -3.1310 -0.9075
12331TIP3    H236930   4.534   5.647   5.830 -0.5703 -0.0442 -1.4057
12332TIP3   OH236931   5.067   6.900   3.759  0.1341 -0.0301  0.3056
12332TIP3    H136932   5.081   6.807   3.778  1.0096  0.1953  0.7950
12332TIP3    H236933   5.015   6.931   3.833  0.2008 -0.0331  0.3537
12333TIP3   OH236934   6.934   0.916   5.663  0.8780  0.1674  0.3392
12333TIP3    H136935   6.852   0.938   5.709  1.3126 -1.2743  1.8421
12333TIP3    H236936   6.912   0.921   5.570 -0.5778  1.0715  0.7188
12334TIP3   OH236937   8.069   1.611  -0.015 -0.6939 -0.2644  0.7589
12334TIP3    H136938   7.981   1.600  -0.051 -0.3859 -0.5343  0.0804
12334TIP3    H236939   8.057   1.606   0.080 -1.4804  0.2204  0.6893
12335TIP3   OH236940   3.970   4.346   5.996 -0.2823  0.1213  0.7971
12335TIP3    H136941   4.006   4.357   6.084  0.8307 -2.2689  0.6708
12335TIP3    H236942   4.047   4.339   5.939 -0.8994 -3.1519  0.2790
12336TIP3   OH236943   2.771   5.885   4.741 -0.4978  0.0152 -0.0999
12336TIP3    H136944   2.769   5.881   4.837  1.1793 -0.4964 -0.0718
12336TIP3    H236945   2.706   5.952   4.719  0.0414  1.0953  1.4666
12337TIP3   OH236946   2.330   2.266   0.303  0.4028  0.0920 -0.0539
12337TIP3    H136947   2.382   2.197   0.261  2.0010  0.4900  1.2113
12337TIP3    H236948   2.391   2.339   0.313 -0.6597  0.8997  0.6451
12338TIP3   OH236949   5.768   0.732   6.223 -0.0960 -0.2612 -0.6308
12338TIP3    H136950   5.721   0.674   6.163  1.0412 -1.3184 -0.5231
12338TIP3    H236951   5.706   0.749   6.293  0.1982 -2.9724  0.3511
12339TIP3   OH236952   6.082   6.341   4.493 -0.0180 -0.0759  0.4937
12339TIP3    H136953   6.068   6.247   4.484  0.1332 -0.1500  1.0488
12339TIP3    H236954   6.104   6.371   4.404  0.8627 -0.7089  0.5033
12340TIP3   OH236955   2.614   5.228   4.311 -0.0770  0.2254 -0.2435
12340TIP3    H136956   2.681   5.224   4.242 -0.2249  0.4698 -0.4029
12340TIP3    H236957   2.635   5.308   4.359  1.8996 -1.5344  1.9286
12341TIP3   OH236958   5.459   5.801   6.457 -0.3861  0.4402 -0.0193
12341TIP3    H136959   5.533   5.842   6.503  1.1727  0.3150 -2.3240
12341TIP3    H236960   5.392   5.869   6.453  0.1735  1.0465  0.7819
12342TIP3   OH236961   4.541   6.485   5.882  0.4614 -0.5575 -0.0860
12342TIP3    H136962   4.454   6.446   5.868  0.2957 -0.4961  0.7787
12342TIP3    H236963   4.591   6.458   5.805 -0.7808  0.7259 -1.3617
12343TIP3   OH236964   2.516   4.237   0.046 -0.1791 -0.6958  0.3980
12343TIP3    H136965   2.556   4.162   0.003  0.3005 -0.3083  0.1689
12343TIP3    H236966   2.422   4.225   0.032 -0.0812 -1.0608  0.0471
12344TIP3   OH236967   3.352   7.334   6.938 -0.2411  0.2223 -0.1296
12344TIP3    H136968   3.306   7.253   6.916  0.8675 -0.1950 -0.9814
12344TIP3    H236969   3.337   7.391   6.863  1.0988 -0.1324 -0.6861
12345TIP3   OH236970   2.975   4.207   0.465  0.5520 -0.4676 -0.2530
12345TIP3    H136971   2.937   4.131   0.509  1.7939 -0.0138  1.7070
12345TIP3    H236972   2.915   4.279   0.484  0.0842 -0.6663 -0.9568
12346TIP3   OH236973   3.875   6.370   6.486 -0.5783  0.0260  0.4002
12346TIP3    H136974   3.824   6.306   6.535  1.3017  0.0079  2.3651
12346TIP3    H236975   3.883   6.332   6.398 -1.5559 -1.2710  0.8607
12347TIP3   OH236976   5.372   7.020   5.911 -0.0856 -0.1969  0.2822
12347TIP3    H136977   5.401   7.095   5.860 -0.8276 -0.4382 -0.4902
12347TIP3    H236978   5.304   6.979   5.859  2.2225 -3.0446 -0.6511
12348TIP3   OH236979   4.125   7.143   5.879  0.0145 -0.4904 -0.4673
12348TIP3    H136980   4.127   7.163   5.786 -1.5653 -1.9928 -0.8587
12348TIP3    H236981   4.050   7.192   5.913  2.0440  2.0666  0.5706
12349TIP3   OH236982   4.184   7.508   6.128  0.4490 -0.0387  0.3021
12349TIP3    H136983   4.220   7.480   6.044  0.7304 -0.0086  0.4124
12349TIP3    H236984   4.259   7.542   6.177  0.5105 -1.2481  1.0587
12350TIP3   OH236985   2.952   6.565   4.019 -0.4650 -0.0984 -0.4583
12350TIP3    H136986   2.998   6.512   3.954  0.5094  1.1886 -0.8431
12350TIP3    H236987   2.957   6.654   3.985  1.0398  0.7656  1.8897
12351TIP3   OH236988   7.906   0.712   5.974  0.1932  0.1628  0.0316
12351TIP3    H136989   7.999   0.689   5.969 -0.2579 -1.4738 -0.8186
12351TIP3    H236990   7.875   0.670   6.054 -0.6117 -2.1715 -1.4816
12352TIP3   OH236991   4.663   7.480   4.653  0.7161  0.3075 -0.0252
12352TIP3    H136992   4.569   7.473   4.671  0.1602  4.0088 -1.1731
12352TIP3    H236993   4.669   7.500   4.560  2.6430  0.3272  0.0706
12353TIP3   OH236994   4.726   6.049   5.373  0.2275  0.3983 -0.3973
12353TIP3    H136995   4.647   5.999   5.391  0.4065  0.5807  0.9187
12353TIP3    H236996   4.695   6.132   5.337 -0.1645  0.3681 -0.1245
12354TIP3   OH236997   5.079   5.608   6.516  0.3143  0.4989  0.2593
12354TIP3    H136998   5.102   5.635   6.605 -0.6727  0.8367  0.4214
12354TIP3    H236999   5.152   5.555   6.487  1.2242  1.4254  0.8149
12355TIP3   OH237000   4.033   6.549   6.320 -0.0515 -0.2248  0.2889
12355TIP3    H137001   4.116   6.569   6.363 -0.5217 -1.0272  1.5874
12355TIP3    H237002   3.982   6.503   6.386 -1.3170 -0.2537 -0.6883
12356TIP3   OH237003   8.409   1.695   0.403 -0.2877  0.2410  0.3356
12356TIP3    H137004   8.362   1.778   0.412  0.5819  0.7141  0.5836
12356TIP3    H237005   8.501   1.718   0.414 -0.1858 -1.0730  2.6155
12357TIP3   OH237006   4.421   6.656   5.052  0.0468  0.1598 -0.1981
12357TIP3    H137007   4.512   6.679   5.071  0.6332 -1.3618 -1.0965
12357TIP3    H237008   4.394   6.720   4.987  0.6438  0.2799 -0.3348
12358TIP3   OH237009   5.248   5.651   5.669  0.2452 -0.2128 -0.0193
12358TIP3    H137010   5.246   5.644   5.764 -1.2842 -0.1645 -0.0385
12358TIP3    H237011   5.204   5.572   5.637 -2.7040  1.6015 -0.5777
12359TIP3   OH237012   3.529   4.982   0.030  0.4209 -0.5748  0.1130
12359TIP3    H137013   3.445   4.937   0.021  0.7433 -0.9724 -0.9761
12359TIP3    H237014   3.545   4.984   0.125 -0.2116 -1.6058  0.2525
12360TIP3   OH237015   5.768   7.100   6.607  0.1213 -0.2038 -0.4159
12360TIP3    H137016   5.713   7.064   6.677 -0.8344 -0.3196 -1.2178
12360TIP3    H237017   5.852   7.056   6.618  0.0595 -0.0193  0.8345
12361TIP3   OH237018   1.085   3.087   1.455 -0.4239 -0.1643 -0.1812
12361TIP3    H137019   1.025   3.049   1.392 -1.5117 -0.6286  1.1094
12361TIP3    H237020   1.107   3.015   1.515 -0.5718  0.6188  0.8321
12362TIP3   OH237021   6.558   1.038   5.074  0.7791  0.0069 -0.0722
12362TIP3    H137022   6.466   1.025   5.094  0.1328  1.2167 -2.0631
12362TIP3    H237023   6.604   0.973   5.127 -1.2277 -0.7765  0.7533
12363TIP3   OH237024   4.759   3.666   4.952  0.0767  0.0185  0.8994
12363TIP3    H137025   4.764   3.655   4.857  0.4773 -1.3394  1.0623
12363TIP3    H237026   4.727   3.756   4.965  0.9697  0.5499 -0.4991
12364TIP3   OH237027   4.945   6.590   5.412  0.2244 -0.0663 -0.3693
12364TIP3    H137028   4.922   6.592   5.505  0.8253 -1.0449 -0.1912
12364TIP3    H237029   4.936   6.681   5.383  3.4993  0.9604  1.5207
12365TIP3   OH237030   3.560   6.594   4.366  0.2686 -0.3180  0.5428
12365TIP3    H137031   3.464   6.593   4.363  0.2515 -0.8206  1.1295
12365TIP3    H237032   3.582   6.530   4.434  0.9711  1.1478  1.7060
12366TIP3   OH237033   5.402   6.556   5.595  0.4578 -0.2356  0.0273
12366TIP3    H137034   5.355   6.590   5.518 -0.1165 -1.2411 -0.0661
12366TIP3    H237035   5.494   6.554   5.567  0.2968 -0.2749 -0.5146
12367TIP3   OH237036   4.995   7.517   5.213 -0.4206 -0.3576  0.1792
12367TIP3    H137037   4.954   7.603   5.204  0.5557  0.5211  3.4433
12367TIP3    H237038   5.082   7.535   5.249  0.1082 -2.6535  0.1087
12368TIP3   OH237039   5.974   6.207   3.608 -0.3318  0.0677  0.5040
12368TIP3    H137040   6.067   6.230   3.608 -0.1907 -0.4886 -0.4394
12368TIP3    H237041   5.941   6.240   3.692  0.8019 -0.1116  1.0264
12369TIP3   OH237042   0.854   0.919   6.355 -0.1623 -0.1635  0.6561
12369TIP3    H137043   0.806   1.001   6.359  2.0351  1.1899 -0.2812
12369TIP3    H237044   0.917   0.925   6.427  1.2269 -0.2399 -0.5445
12370TIP3   OH237045   3.969   6.386   3.471 -0.6524  0.1565  0.7840
12370TIP3    H137046   3.987   6.298   3.504 -1.9791  0.0192  1.1741
12370TIP3    H237047   3.918   6.372   3.391 -0.1701  0.5513  0.4099
12371TIP3   OH237048   5.498   7.069   3.923 -0.5814 -0.3859 -0.0295
12371TIP3    H137049   5.495   6.975   3.936  0.0799 -0.1495  2.0269
12371TIP3    H237050   5.591   7.090   3.915 -0.6609  0.2266  0.6084
12372TIP3   OH237051   5.968   7.514   5.687 -0.4031  0.0943  0.2922
12372TIP3    H137052   5.985   7.571   5.613  2.5534 -1.9065 -0.6624
12372TIP3    H237053   6.011   7.556   5.761  2.4832 -1.1964 -0.5749
12373TIP3   OH237054   5.625   7.098   6.029  0.8221  0.7098  0.7224
12373TIP3    H137055   5.548   7.044   6.009 -0.1024  1.2455  2.7773
12373TIP3    H237056   5.646   7.141   5.945 -2.0421  1.7210  0.4687
12374TIP3   OH237057   3.945   4.202   5.495 -0.4819 -0.0826  0.1084
12374TIP3    H137058   3.914   4.198   5.585 -0.1102  0.7413  0.2774
12374TIP3    H237059   3.975   4.292   5.484 -1.4327  0.0982 -1.1343
12375TIP3   OH237060   6.172   0.126   3.916  0.3601  0.4030  0.1786
12375TIP3    H137061   6.133   0.057   3.861  0.9620 -1.6542  2.2411
12375TIP3    H237062   6.135   0.207   3.881 -0.4331 -0.9433 -2.2895
12376TIP3   OH237063   5.325   7.999   6.669 -0.4155 -0.3522  0.1438
12376TIP3    H137064   5.356   8.047   6.592 -0.6761 -0.3411  0.0463
12376TIP3    H237065   5.401   7.995   6.726 -0.9331  2.0209  1.0736
12377TIP3   OH237066   6.189   4.650   6.508  0.0983  0.9731 -0.0255
12377TIP3    H137067   6.194   4.652   6.604  1.5138  0.5950 -0.0865
12377TIP3    H237068   6.257   4.588   6.482 -1.1312  0.1309 -1.2202
12378TIP3   OH237069   5.199   5.275   3.267  0.2965 -0.2764  0.1248
12378TIP3    H137070   5.262   5.205   3.284  0.6988  0.1460  0.3663
12378TIP3    H237071   5.138   5.237   3.203  0.1689 -1.0515  0.6886
12379TIP3   OH237072   5.556   6.749   5.959  0.0980 -0.0102 -0.1508
12379TIP3    H137073   5.467   6.785   5.960  1.0562  2.4886  0.2839
12379TIP3    H237074   5.544   6.655   5.948 -2.7012  0.0006  2.2030
12380TIP3   OH237075   6.123   7.690   5.184 -0.1730 -0.1740  0.4913
12380TIP3    H137076   6.101   7.764   5.129  0.5298 -0.2864  0.0571
12380TIP3    H237077   6.063   7.697   5.259 -1.2213 -0.1028 -0.3441
12381TIP3   OH237078   3.580   6.688   6.059  0.1508 -0.0493  0.3625
12381TIP3    H137079   3.527   6.681   6.139  1.2905 -2.3188  0.9800
12381TIP3    H237080   3.668   6.710   6.091  0.6736 -1.2441 -0.2401
12382TIP3   OH237081   4.845   6.451   5.188  0.3636 -0.7246  0.6102
12382TIP3    H137082   4.862   6.512   5.117  0.2420 -1.3522  0.0355
12382TIP3    H237083   4.889   6.490   5.264  1.2326 -0.4830 -0.0019
12383TIP3   OH237084   2.668   7.903   5.207 -0.1039  0.2384 -0.0875
12383TIP3    H137085   2.626   7.938   5.128 -2.0890 -1.4767  0.1612
12383TIP3    H237086   2.630   7.955   5.279  0.6539  0.8653 -0.1374
12384TIP3   OH237087   0.799   3.045   0.607 -0.0866 -0.0347 -0.5085
12384TIP3    H137088   0.866   3.100   0.646 -0.8973  0.2692  0.4802
12384TIP3    H237089   0.846   2.992   0.542  1.0722  0.2593  0.0765
12385TIP3   OH237090   3.886   2.464   1.312  0.0297 -0.0166  0.0342
12385TIP3    H137091   3.844   2.476   1.397  1.5328 -0.3718  0.8371
12385TIP3    H237092   3.852   2.380   1.280  2.2543 -1.6842  1.9490
12386TIP3   OH237093   3.230   6.251   5.804 -0.4729 -0.4182 -0.4045
12386TIP3    H137094   3.172   6.253   5.880 -1.6080  0.5694 -1.2756
12386TIP3    H237095   3.258   6.160   5.797 -1.0942 -0.6934  0.6454
12387TIP3   OH237096   3.267   7.925   5.399  1.0802 -0.3160 -0.5781
12387TIP3    H137097   3.195   7.890   5.452  1.3949  0.2540  0.2324
12387TIP3    H237098   3.288   7.854   5.337  1.0630 -1.1996  0.4052
12388TIP3   OH237099   0.912   6.312   4.329  0.3762 -0.4098  0.1323
12388TIP3    H137100   0.931   6.406   4.317  0.9310 -0.4469  0.6621
12388TIP3    H237101   0.993   6.277   4.366  0.3295 -1.1969 -0.5142
12389TIP3   OH237102   6.264   2.122   5.775 -0.6232  0.1908  0.0112
12389TIP3    H137103   6.226   2.039   5.803 -1.5008  0.5985  0.0497
12389TIP3    H237104   6.189   2.177   5.753  0.0034  0.2862 -2.0120
12390TIP3   OH237105   4.642   5.826   6.859 -0.0662  0.3831 -0.3780
12390TIP3    H137106   4.600   5.756   6.808 -1.0953  0.5793  0.1771
12390TIP3    H237107   4.585   5.902   6.846  0.3021  0.7445  0.1285
12391TIP3   OH237108   1.041   5.061   0.526 -0.8567  0.0518  0.4345
12391TIP3    H137109   1.005   4.974   0.544 -0.8601 -0.2072 -0.7722
12391TIP3    H237110   1.009   5.082   0.438 -1.3130  1.5117  0.9340
12392TIP3   OH237111   0.166   0.642   4.373  0.4954  0.1765  0.0332
12392TIP3    H137112   0.189   0.715   4.315 -0.6701  0.0098 -0.6738
12392TIP3    H237113   0.140   0.572   4.313 -1.5647  0.2849  0.7590
12393TIP3   OH237114   2.051   3.310   0.116  0.3211  0.8030  0.1103
12393TIP3    H137115   2.088   3.330   0.202 -0.1198 -0.7625  0.6804
12393TIP3    H237116   2.127   3.310   0.057  1.0531 -0.9429  1.0131
12394TIP3   OH237117   2.419   7.744   5.581 -0.3550 -0.7082 -0.4380
12394TIP3    H137118   2.487   7.750   5.648  0.3103 -0.0997 -1.1528
12394TIP3    H237119   2.345   7.792   5.617  0.3824  0.5811 -0.5984
12395TIP3   OH237120   1.249   3.612   0.026 -0.1779  0.2765 -1.2131
12395TIP3    H137121   1.332   3.571   0.051 -0.1586  0.0246 -1.6696
12395TIP3    H237122   1.232   3.677   0.094 -0.4397 -0.8069 -0.2105
12396TIP3   OH237123   5.027   6.755   4.202  0.2167 -0.1649 -0.0710
12396TIP3    H137124   5.119   6.763   4.228  0.6932 -1.2455 -1.3945
12396TIP3    H237125   5.024   6.676   4.149 -1.1882  0.7481 -1.3688
12397TIP3   OH237126   2.602   6.488   4.571  0.1117 -0.5784 -0.1985
12397TIP3    H137127   2.589   6.407   4.521 -0.3683 -0.3841 -0.3955
12397TIP3    H237128   2.518   6.502   4.615  0.2053 -0.2071 -0.1412
12398TIP3   OH237129   3.926   5.836   4.768 -0.2319 -0.7741 -0.1077
12398TIP3    H137130   3.968   5.881   4.694  1.1176 -0.7767  0.6468
12398TIP3    H237131   3.877   5.765   4.727  0.1676 -0.5239 -1.0507
12399TIP3   OH237132   3.220   5.029   1.119  0.0216  0.2643 -0.0531
12399TIP3    H137133   3.255   5.073   1.042 -1.7389  0.9699 -0.4719
12399TIP3    H237134   3.297   4.994   1.164  1.2776  2.0760 -0.7550
12400TIP3   OH237135   4.556   6.479   4.355  0.0415 -0.0940 -0.1769
12400TIP3    H137136   4.462   6.497   4.352  0.2134  0.8054 -0.3722
12400TIP3    H237137   4.593   6.550   4.408  0.6555 -0.2280 -0.4142
12401TIP3   OH237138   4.720   6.868   6.204  0.2336 -0.0926 -0.3889
12401TIP3    H137139   4.701   6.779   6.174 -3.8011  0.6776 -0.4865
12401TIP3    H237140   4.673   6.925   6.142  1.1887  2.0063  0.7565
12402TIP3   OH237141   7.710   3.220   0.642 -0.3483 -0.3934  0.1375
12402TIP3    H137142   7.744   3.131   0.649  0.2237 -0.2117 -0.2362
12402TIP3    H237143   7.781   3.275   0.675 -0.6006 -0.0594  0.1261
12403TIP3   OH237144   4.222   3.928   5.194 -0.1274  0.3981  0.6888
12403TIP3    H137145   4.187   3.964   5.113 -0.8882 -2.0573 -0.1206
12403TIP3    H237146   4.296   3.986   5.216  0.7162  0.5350 -2.2848
12404TIP3   OH237147   4.332   6.466   4.875 -0.1831 -0.7041  0.1145
12404TIP3    H137148   4.245   6.475   4.914 -0.1490  1.6582 -0.2993
12404TIP3    H237149   4.391   6.509   4.937  0.4931 -0.9385 -0.3565
12405TIP3   OH237150   5.694   6.546   4.746 -0.0418 -0.4584 -0.4377
12405TIP3    H137151   5.682   6.515   4.656  1.6974 -0.3876 -0.7192
12405TIP3    H237152   5.627   6.613   4.757  0.4597  0.3618 -2.0942
12406TIP3   OH237153   5.606   7.977   4.518 -0.0877 -0.5982 -0.1918
12406TIP3    H137154   5.559   8.041   4.465 -0.1507  0.2119  0.8310
12406TIP3    H237155   5.698   7.990   4.494  0.0544  0.9727  1.1715
12407TIP3   OH237156   5.714   6.016   4.091 -0.6418  0.1495  0.1907
12407TIP3    H137157   5.620   6.024   4.102 -0.6310  0.9430 -0.2229
12407TIP3    H237158   5.751   6.049   4.172 -0.7022  0.6054  0.0341
12408TIP3   OH237159   1.546   2.449   0.231 -0.3051  0.0364  0.1567
12408TIP3    H137160   1.619   2.503   0.262  1.4869 -0.8325 -2.4261
12408TIP3    H237161   1.510   2.496   0.157  0.0459 -1.3396 -0.9192
12409TIP3   OH237162   4.676   6.494   6.618  0.2820  0.0080  0.0343
12409TIP3    H137163   4.678   6.492   6.523  0.5757 -0.6055  0.0525
12409TIP3    H237164   4.668   6.587   6.640  0.7388  0.1930 -0.5702
12410TIP3   OH237165   0.274   0.303   6.109  0.1433 -0.1034  0.0822
12410TIP3    H137166   0.328   0.361   6.056 -0.2291 -0.9722 -1.2879
12410TIP3    H237167   0.312   0.307   6.196  0.6983  1.4420 -0.2193
12411TIP3   OH237168   4.155   6.238   5.147 -0.0420  0.2918 -0.1502
12411TIP3    H137169   4.100   6.277   5.215 -0.7099  1.4846 -1.3518
12411TIP3    H237170   4.093   6.202   5.084  0.5739 -0.1695 -0.4957
12412TIP3   OH237171   4.489   5.213   6.859  0.2052 -0.0744  0.2648
12412TIP3    H137172   4.467   5.302   6.887  1.3779  0.5768 -0.8418
12412TIP3    H237173   4.495   5.163   6.941  1.5746  1.3257  1.0381
12413TIP3   OH237174   3.301   6.596   5.415 -0.1824  0.2282  0.1162
12413TIP3    H137175   3.323   6.612   5.507  0.2749 -2.6127  0.5572
12413TIP3    H237176   3.384   6.577   5.373 -0.7846 -2.2561 -0.0326
12414TIP3   OH237177   6.827   5.584   5.680 -0.1171 -0.3943 -0.1060
12414TIP3    H137178   6.794   5.500   5.710  3.7355 -1.4985  1.3334
12414TIP3    H237179   6.805   5.645   5.751 -0.1387 -0.8731  0.3055
12415TIP3   OH237180   2.210   3.663   1.347  0.3747 -0.3659  0.3782
12415TIP3    H137181   2.154   3.594   1.312 -1.0246  0.7036  0.4796
12415TIP3    H237182   2.275   3.678   1.278 -1.1471  0.3179 -0.9429
12416TIP3   OH237183   2.657   1.494   0.415  0.4999 -0.0550 -0.0409
12416TIP3    H137184   2.648   1.563   0.481 -0.0157  0.8395 -1.0159
12416TIP3    H237185   2.570   1.455   0.410 -0.1234  1.4658 -1.8533
12417TIP3   OH237186   8.402   6.654   0.171 -0.5959 -0.4069 -0.6428
12417TIP3    H137187   8.379   6.565   0.144 -0.7277 -0.2475 -1.0635
12417TIP3    H237188   8.421   6.699   0.088  0.2120 -0.2563 -0.3770
12418TIP3   OH237189   0.466   3.105   0.441 -0.1361 -0.2788 -0.3518
12418TIP3    H137190   0.532   3.049   0.401 -1.1073 -1.4174 -0.3980
12418TIP3    H237191   0.462   3.182   0.385 -0.4521 -1.2077 -1.6233
12419TIP3   OH237192   5.641   6.074   5.654  0.0319 -0.0320 -0.7355
12419TIP3    H137193   5.628   6.075   5.560 -0.8538  0.6185 -0.6079
12419TIP3    H237194   5.571   6.019   5.688 -0.3627  0.6911 -0.3572
12420TIP3   OH237195   4.937   6.970   6.977 -0.0781  0.4236 -0.0525
12420TIP3    H137196   4.896   7.044   6.931 -0.2333  0.7750  0.6507
12420TIP3    H237197   4.951   6.904   6.908  1.2513  1.5963 -0.9260
12421TIP3   OH237198   3.762   5.390   5.028 -0.2912 -0.1621  0.5671
12421TIP3    H137199   3.845   5.404   4.983  0.5015 -0.5369  1.8739
12421TIP3    H237200   3.787   5.354   5.114 -1.7588  0.3980  1.2467
12422TIP3   OH237201   3.770   4.709   3.469  0.4183 -0.7057  0.4613
12422TIP3    H137202   3.836   4.726   3.401 -0.6955  2.8047  0.1466
12422TIP3    H237203   3.687   4.722   3.425 -0.3772 -0.6242  1.9632
12423TIP3   OH237204   5.333   0.212   5.191 -0.4112 -0.0729 -0.0480
12423TIP3    H137205   5.277   0.169   5.256  1.3813 -1.6330  0.5049
12423TIP3    H237206   5.283   0.207   5.110 -1.9109  0.3020  0.8268
12424TIP3   OH237207   2.893   6.429   4.510 -0.1454  0.2318  0.3923
12424TIP3    H137208   2.920   6.475   4.431 -0.0587 -1.7402 -0.7655
12424TIP3    H237209   2.798   6.417   4.500 -0.2245  0.4748  0.8520
12425TIP3   OH237210   5.745   7.798   3.993  0.7925 -0.3463 -0.3330
12425TIP3    H137211   5.767   7.706   4.003 -1.6618 -0.8873  0.4482
12425TIP3    H237212   5.696   7.819   4.073  3.1003  2.2044  0.5115
12426TIP3   OH237213   5.179   6.469   6.041  0.0090  0.2845  0.3299
12426TIP3    H137214   5.129   6.550   6.027  1.8855  1.6170  1.0358
12426TIP3    H237215   5.252   6.496   6.097  0.0118 -2.1608  1.5876
12427TIP3   OH237216   7.963   0.224   6.023 -0.1185  0.6799 -0.4820
12427TIP3    H137217   7.983   0.130   6.025  0.1003  0.6261 -2.8931
12427TIP3    H237218   7.905   0.238   6.098  1.2643 -1.0261  0.9547
12428TIP3   OH237219   6.573   7.467   2.894  0.8231  0.0542 -0.2230
12428TIP3    H137220   6.589   7.454   2.801 -1.1343  0.6149 -0.6668
12428TIP3    H237221   6.572   7.562   2.906  0.7643 -0.0091  0.3026
12429TIP3   OH237222   6.259   5.220   6.441 -0.4682 -0.3132 -0.1763
12429TIP3    H137223   6.277   5.260   6.526  1.1958 -0.6245 -0.3615
12429TIP3    H237224   6.232   5.130   6.463  1.4782 -0.8904 -0.0161
12430TIP3   OH237225   5.060   7.845   4.487  0.5617 -0.1588 -0.4441
12430TIP3    H137226   5.027   7.757   4.468 -1.0812 -0.1297  2.0714
12430TIP3    H237227   5.133   7.830   4.548  2.1896  0.0867 -2.2653
12431TIP3   OH237228   3.584   7.760   5.929  0.4870  1.0920 -0.0671
12431TIP3    H137229   3.654   7.808   5.973 -1.7871  2.5165  2.1561
12431TIP3    H237230   3.516   7.826   5.914 -0.8540 -0.4985 -1.0757
12432TIP3   OH237231   4.655   6.385   5.545  0.3506 -0.1579  0.1607
12432TIP3    H137232   4.664   6.321   5.616 -2.4806  1.4682  2.0656
12432TIP3    H237233   4.567   6.371   5.511  0.5696  1.1656 -0.9794
12433TIP3   OH237234   3.947   6.437   4.233  0.5552 -0.3858  0.0981
12433TIP3    H137235   3.969   6.429   4.140 -0.1712  0.1909 -0.1360
12433TIP3    H237236   3.854   6.416   4.238  0.6858 -0.8265  0.7619
12434TIP3   OH237237   7.610   0.098   4.366  0.6327  0.1025 -1.0768
12434TIP3    H137238   7.555   0.109   4.443 -0.3049  1.3630 -1.9108
12434TIP3    H237239   7.549   0.092   4.293  1.5740  0.7688 -1.9301
12435TIP3   OH237240   0.427   2.531   1.244 -0.2894  0.0712 -0.3716
12435TIP3    H137241   0.415   2.614   1.198 -1.3429  0.1794  0.0867
12435TIP3    H237242   0.365   2.472   1.202  0.4464 -0.4838 -0.6852
12436TIP3   OH237243   5.361   4.960   5.676 -0.5028 -0.1086 -0.2361
12436TIP3    H137244   5.346   4.878   5.630 -1.0407 -0.7544  1.0585
12436TIP3    H237245   5.454   4.978   5.665 -0.5209 -0.5419 -1.0894
12437TIP3   OH237246   5.068   5.870   4.602 -0.3255 -0.0558  0.7843
12437TIP3    H137247   5.126   5.798   4.577 -0.9946 -0.3116 -0.0631
12437TIP3    H237248   5.001   5.871   4.534  0.3332  2.1315  0.1301
12438TIP3   OH237249   8.243   7.704   1.257  0.4074 -0.0936  0.1120
12438TIP3    H137250   8.161   7.659   1.238  0.8989 -0.1026 -2.1187
12438TIP3    H237251   8.226   7.795   1.234 -0.2388  0.7148  3.5583
12439TIP3   OH237252   5.897   5.303   5.285  0.1710  0.0913  0.1177
12439TIP3    H137253   5.910   5.242   5.213  0.2685 -1.3452  1.3309
12439TIP3    H237254   5.970   5.287   5.344  0.1997  1.4035  0.4564
12440TIP3   OH237255   5.540   7.753   5.245  0.3311 -0.2218 -0.0492
12440TIP3    H137256   5.462   7.768   5.191  0.0257 -1.0997  0.1401
12440TIP3    H237257   5.531   7.815   5.317 -1.4646 -1.9681  1.2928
12441TIP3   OH237258   1.165   3.043   0.909 -0.4640  0.4995 -0.5079
12441TIP3    H137259   1.206   2.998   0.835 -0.8978  0.5177 -0.7616
12441TIP3    H237260   1.086   2.992   0.928  0.1492 -0.0634  0.5645
12442TIP3   OH237261   0.107   0.326   6.947 -0.0012  0.1816  0.6001
12442TIP3    H137262   0.051   0.402   6.958 -0.5053 -0.1639  0.4279
12442TIP3    H237263   0.112   0.313   6.853  1.4876  1.0406  0.5529
12443TIP3   OH237264   7.077   7.816   4.749  0.5983  0.1461 -0.3681
12443TIP3    H137265   7.160   7.852   4.718  0.1264  2.1447  0.6864
12443TIP3    H237266   7.061   7.857   4.833 -0.5699 -1.6117  0.3150
12444TIP3   OH237267   2.763   6.369   5.146 -0.2637 -0.2678 -0.2318
12444TIP3    H137268   2.706   6.368   5.223 -0.9877 -0.6867 -0.7698
12444TIP3    H237269   2.709   6.406   5.076 -0.1983 -1.5685 -0.9920
12445TIP3   OH237270   0.112   2.802  -0.014  0.2359  0.3029 -0.2194
12445TIP3    H137271   0.122   2.738   0.057 -1.2355 -3.0247 -2.8419
12445TIP3    H237272   0.033   2.850   0.008 -0.4180 -0.9450  0.2414
12446TIP3   OH237273   2.968   2.893   2.416 -0.1474  0.1149  0.2931
12446TIP3    H137274   2.989   2.986   2.418  0.0690  0.1657 -2.5191
12446TIP3    H237275   3.037   2.854   2.363 -1.5887 -1.2655 -0.6198
12447TIP3   OH237276   5.545   6.849   4.420 -0.4741 -0.0380 -0.3680
12447TIP3    H137277   5.624   6.805   4.453 -0.2650  0.0088 -0.7985
12447TIP3    H237278   5.535   6.926   4.476 -0.3613 -0.1828 -0.1480
12448TIP3   OH237279   3.673   5.667   5.437  0.3599 -0.2551  0.2510
12448TIP3    H137280   3.610   5.731   5.404  1.3127  1.2821  1.3537
12448TIP3    H237281   3.635   5.582   5.414  0.0650  0.7020 -3.0178
12449TIP3   OH237282   5.561   7.156   3.253  0.2256  0.4182 -0.5818
12449TIP3    H137283   5.524   7.220   3.192  0.1246  0.2031 -0.7491
12449TIP3    H237284   5.630   7.113   3.202  2.4119  2.5205  0.5050
12450TIP3   OH237285   2.387   7.360   6.395  0.3700  0.9368 -0.6152
12450TIP3    H137286   2.318   7.421   6.366 -0.3721 -0.9472 -2.9126
12450TIP3    H237287   2.388   7.370   6.490  0.2878  4.5604 -0.9107
12451TIP3   OH237288   3.468   6.932   6.633  0.3515 -0.6092  0.0974
12451TIP3    H137289   3.491   6.843   6.661  0.6389 -0.3866  0.5689
12451TIP3    H237290   3.536   6.987   6.670 -0.3430 -0.0773  0.5889
12452TIP3   OH237291   1.545   6.669   5.896  0.4626  0.6216  0.0028
12452TIP3    H137292   1.528   6.609   5.823 -0.9658 -0.4378  1.1800
12452TIP3    H237293   1.556   6.754   5.855 -2.9111  0.5125 -1.2757
12453TIP3   OH237294   5.906   4.545   0.847  0.5706 -0.1337 -0.3976
12453TIP3    H137295   5.864   4.535   0.932  0.6872  1.6920 -0.1109
12453TIP3    H237296   5.836   4.574   0.789  0.3482 -1.9950 -1.0992
12454TIP3   OH237297   2.154   4.431   0.827  0.9097  0.2062 -0.3061
12454TIP3    H137298   2.192   4.494   0.889 -0.7868  0.4695  0.4989
12454TIP3    H237299   2.062   4.424   0.854  0.4507 -0.6163 -2.0344
12455TIP3   OH237300   5.101   5.959   4.882 -0.5546  0.3751  0.4723
12455TIP3    H137301   5.114   6.052   4.864 -0.9500 -0.0381 -2.1483
12455TIP3    H237302   5.103   5.917   4.796 -1.4502 -1.9141  1.5128
12456TIP3   OH237303   2.387   1.957  -0.022 -0.1155  0.2436 -0.2819
12456TIP3    H137304   2.438   2.005   0.043 -0.4080  1.7331 -1.1413
12456TIP3    H237305   2.325   1.906   0.030  1.0031 -0.1569  0.6858
12457TIP3   OH237306   3.554   7.445   5.610  0.7710 -0.0498 -0.6874
12457TIP3    H137307   3.475   7.393   5.597  0.1365  0.4646  0.9026
12457TIP3    H237308   3.572   7.484   5.525 -2.3662  2.1501 -0.4207
12458TIP3   OH237309   3.413   6.987   5.498 -0.0375  0.2940 -0.5708
12458TIP3    H137310   3.397   7.073   5.538  0.3251 -0.0344  0.2971
12458TIP3    H237311   3.332   6.968   5.451 -0.7577  0.3663  0.6197
12459TIP3   OH237312   3.306   6.098   5.441 -0.5291 -0.3993 -0.0109
12459TIP3    H137313   3.394   6.132   5.458 -1.5181  1.1438  2.2385
12459TIP3    H237314   3.258   6.172   5.403 -1.6343 -0.3800  1.3863
12460TIP3   OH237315   1.261   3.125   1.202  0.3318 -0.3938  0.5140
12460TIP3    H137316   1.191   3.127   1.267  0.0736  1.9976  0.2283
12460TIP3    H237317   1.218   3.100   1.121 -0.2733  1.3246  0.2859
12461TIP3   OH237318   8.241   4.726   1.773 -0.1162  0.1908  0.0673
12461TIP3    H137319   8.297   4.803   1.777 -0.8050  0.6566  0.9184
12461TIP3    H237320   8.298   4.653   1.799  0.1655  0.6290  0.6880
12462TIP3   OH237321   5.194   1.093   6.169  0.0827 -0.8762  0.4165
12462TIP3    H137322   5.131   1.163   6.186  0.2022 -0.3537 -1.2352
12462TIP3    H237323   5.216   1.059   6.256 -0.7730  0.4288  1.1566
12463TIP3   OH237324   6.560   1.978   4.600 -0.3132 -0.1217 -0.2433
12463TIP3    H137325   6.467   1.975   4.577 -0.5507  1.0109  0.5648
12463TIP3    H237326   6.569   1.919   4.674 -0.0980 -1.4061 -1.2659
12464TIP3   OH237327   3.841   7.583   6.804  0.0389 -0.1678  0.3563
12464TIP3    H137328   3.774   7.521   6.832 -1.0486  0.7245 -0.2725
12464TIP3    H237329   3.909   7.576   6.871 -0.4395 -1.4382  0.7267
12465TIP3   OH237330   4.561   6.956   5.467  0.2851  0.8351 -0.1800
12465TIP3    H137331   4.511   6.874   5.469 -0.6543  1.4092  0.4289
12465TIP3    H237332   4.554   6.985   5.376  0.3735  0.3897 -0.3327
12466TIP3   OH237333   4.906   3.397   5.905  0.3926 -0.4809 -0.3868
12466TIP3    H137334   4.846   3.459   5.863 -0.4200 -0.1845  1.1755
12466TIP3    H237335   4.987   3.406   5.856  0.2685  1.7881 -0.2371
12467TIP3   OH237336   1.527   5.669   6.583 -0.9724  0.9253 -0.0561
12467TIP3    H137337   1.477   5.610   6.640 -0.6189 -0.1921 -0.8720
12467TIP3    H237338   1.613   5.627   6.574 -0.7940  1.4414 -0.8497
12468TIP3   OH237339   5.409   0.460   5.590  0.2832  0.4032  0.0010
12468TIP3    H137340   5.373   0.426   5.508  1.6256 -2.2441  0.4400
12468TIP3    H237341   5.441   0.547   5.569  1.5743 -0.6671 -2.5722
12469TIP3   OH237342   6.794   4.323   6.147 -0.1341 -0.1693  0.2360
12469TIP3    H137343   6.875   4.307   6.194  0.4033  1.5484 -0.0773
12469TIP3    H237344   6.759   4.236   6.128 -0.7943 -0.9312  4.5236
12470TIP3   OH237345   5.357   5.012   3.907 -0.1495  0.1537 -0.5321
12470TIP3    H137346   5.321   4.924   3.915  0.8129 -0.1448  0.5702
12470TIP3    H237347   5.400   5.012   3.822 -3.0601  0.6522 -2.0962
12471TIP3   OH237348   3.063   6.292   6.085  0.1991  0.1281  0.3655
12471TIP3    H137349   3.040   6.370   6.035  0.0512  1.2293  2.1091
12471TIP3    H237350   3.148   6.312   6.124 -1.2708  0.7516  3.4260
12472TIP3   OH237351   2.329   6.975   4.315  0.9318  0.0959  0.4370
12472TIP3    H137352   2.283   6.938   4.239 -2.0909  1.8000  1.3216
12472TIP3    H237353   2.320   6.908   4.383  0.9749 -0.1511  0.2018
12473TIP3   OH237354   3.107   4.293   4.948 -0.2263  0.1876  0.1138
12473TIP3    H137355   3.177   4.267   5.008  1.3354 -0.2293 -1.8331
12473TIP3    H237356   3.152   4.338   4.876 -2.4142  4.2266  1.1211
12474TIP3   OH237357   5.781   3.077   6.146 -0.2964  0.9755  0.0041
12474TIP3    H137358   5.860   3.026   6.160  0.1125  2.1331  2.2209
12474TIP3    H237359   5.709   3.016   6.161  0.1838  0.5459  0.5709
12475TIP3   OH237360  -0.000   0.841   4.777  0.5183  0.2317  0.6696
12475TIP3    H137361   0.065   0.885   4.723 -0.4351  0.8107 -0.0293
12475TIP3    H237362  -0.035   0.910   4.834  0.1764  0.0269  0.7107
12476TIP3   OH237363   7.267   6.666   3.728 -0.4994 -0.4295  0.9290
12476TIP3    H137364   7.278   6.640   3.637  0.4524 -0.5054  1.0641
12476TIP3    H237365   7.342   6.723   3.747 -0.0761 -1.3242  1.9884
12477TIP3   OH237366   3.347   0.912   0.031  0.7628  0.0500  0.1295
12477TIP3    H137367   3.347   0.853   0.106 -0.0215  1.3574  1.1809
12477TIP3    H237368   3.378   0.995   0.066 -3.4343  1.8226 -0.0398
12478TIP3   OH237369   2.212   1.597   0.420 -0.2518  0.8125 -0.3256
12478TIP3    H137370   2.175   1.600   0.332  0.8957  1.6534 -0.7919
12478TIP3    H237371   2.192   1.509   0.452  2.3841 -0.7643 -2.7890
12479TIP3   OH237372   3.711   7.677   3.785 -0.2362  0.6174 -0.0826
12479TIP3    H137373   3.675   7.702   3.870 -0.4103  0.1757 -0.0250
12479TIP3    H237374   3.787   7.734   3.774 -1.6073  2.3692 -0.7303
12480TIP3   OH237375   5.423   4.525   5.209  0.2692  0.0060 -0.3976
12480TIP3    H137376   5.419   4.571   5.125 -1.2392  0.3365 -0.1580
12480TIP3    H237377   5.332   4.507   5.231  0.7687 -2.0891  0.0763
12481TIP3   OH237378   4.486   7.605   5.728  0.1718 -0.3471  0.2865
12481TIP3    H137379   4.447   7.671   5.670  2.2228 -0.2247 -0.9969
12481TIP3    H237380   4.545   7.555   5.671 -0.5307 -2.6187  1.4769
12482TIP3   OH237381   0.813   0.698   5.207 -0.2039  0.1587  0.0039
12482TIP3    H137382   0.749   0.692   5.137 -1.4672 -0.2583  1.1720
12482TIP3    H237383   0.893   0.727   5.164 -1.5888  2.2773 -1.2189
12483TIP3   OH237384   6.238   6.619   4.731  0.5901  0.3212 -0.0886
12483TIP3    H137385   6.152   6.657   4.709 -0.6531 -1.5551  1.3865
12483TIP3    H237386   6.287   6.621   4.649 -1.0848  0.8847 -1.0954
12484TIP3   OH237387   4.663   7.663   5.943 -0.6003 -0.5809  0.2041
12484TIP3    H137388   4.623   7.614   5.872 -0.1339  0.3127 -0.6802
12484TIP3    H237389   4.605   7.738   5.956  0.3125  0.2535 -0.5002
12485TIP3   OH237390   6.031   6.245   6.181 -0.0055 -0.1997 -0.1177
12485TIP3    H137391   6.112   6.290   6.208  1.2392 -2.5537  0.2189
12485TIP3    H237392   5.981   6.237   6.262 -0.1988  0.5057 -0.1645
12486TIP3   OH237393   6.451   6.729   3.634  0.1847 -0.0111 -0.6320
12486TIP3    H137394   6.509   6.738   3.709  1.4884 -0.8603 -1.5123
12486TIP3    H237395   6.383   6.795   3.647  1.4520  1.1068  0.3189
12487TIP3   OH237396   6.055   7.476   6.112  0.1659 -0.5699  0.1891
12487TIP3    H137397   5.973   7.455   6.156  0.8675 -0.1427  1.7229
12487TIP3    H237398   6.108   7.396   6.120  1.0706  0.1687  1.9688
12488TIP3   OH237399   2.808   2.647   0.205 -0.4665 -0.2734  0.2880
12488TIP3    H137400   2.859   2.616   0.279 -0.9016 -0.0713  0.6756
12488TIP3    H237401   2.721   2.609   0.218 -0.2997 -0.9741 -0.6035
12489TIP3   OH237402   7.555   5.606   5.348  0.3092  0.2385  0.1926
12489TIP3    H137403   7.515   5.559   5.275  1.9294  0.0963 -0.6388
12489TIP3    H237404   7.493   5.597   5.420 -1.1336  0.0499 -1.0576
12490TIP3   OH237405   8.061   4.576   3.654  0.0108 -0.3401  0.0045
12490TIP3    H137406   7.985   4.617   3.614 -0.1312 -1.5082 -0.9341
12490TIP3    H237407   8.128   4.645   3.654 -0.6475  0.3031 -0.3016
12491TIP3   OH237408   5.704   6.448   5.010  0.2027  0.5104 -0.0150
12491TIP3    H137409   5.705   6.424   4.918 -0.0322  2.9567 -0.6986
12491TIP3    H237410   5.698   6.544   5.010  2.7973  0.7558  2.5163
12492TIP3   OH237411   5.121   6.916   5.800  0.4717  0.0653 -0.0927
12492TIP3    H137412   5.099   6.841   5.855 -1.5037  0.7399  0.0478
12492TIP3    H237413   5.044   6.972   5.802  0.8058  0.7001 -2.5703
12493TIP3   OH237414   7.074   5.547   4.620 -0.4231 -0.0353 -0.0258
12493TIP3    H137415   7.023   5.498   4.684 -0.9801  1.2903  0.5708
12493TIP3    H237416   7.104   5.625   4.668 -0.6122  0.8293 -1.2937
12494TIP3   OH237417   6.951   7.825   4.480  0.0389 -0.8176 -0.2749
12494TIP3    H137418   7.015   7.817   4.551 -0.1238  1.1986  0.1202
12494TIP3    H237419   6.866   7.813   4.523 -0.1839  2.1944  0.2563
12495TIP3   OH237420   6.667   7.152   2.234  1.0431  0.4927  0.2681
12495TIP3    H137421   6.619   7.087   2.182  2.8060 -0.7222  0.1268
12495TIP3    H237422   6.607   7.175   2.305  0.5765 -1.6592  0.6048
12496TIP3   OH237423   6.011   7.462   5.060 -0.1539  0.2640  0.0495
12496TIP3    H137424   6.064   7.539   5.081 -0.2958  1.0318 -2.2869
12496TIP3    H237425   5.939   7.497   5.007  0.6726 -1.6879 -2.4237
12497TIP3   OH237426   5.989   7.029   5.905 -0.1141 -0.0504 -0.2371
12497TIP3    H137427   5.927   7.099   5.885  0.9577  0.7882 -0.7365
12497TIP3    H237428   6.064   7.047   5.848  0.1913 -1.5997 -0.3602
12498TIP3   OH237429   6.014   7.024   6.375  0.6319  0.1014 -0.1748
12498TIP3    H137430   6.035   7.117   6.364  0.2313  0.0222 -1.6225
12498TIP3    H237431   6.054   6.981   6.299  1.8135 -1.0788  1.0713
12499TIP3   OH237432   5.174   2.094   0.151  0.5566 -0.2177 -0.3720
12499TIP3    H137433   5.219   2.032   0.209  1.3814 -0.5581 -1.3621
12499TIP3    H237434   5.212   2.180   0.173 -1.5152  0.1533  1.9125
12500TIP3   OH237435   3.140   7.666   4.856 -0.2201  0.0154 -0.2568
12500TIP3    H137436   3.124   7.576   4.829  2.4265 -0.7072  0.4440
12500TIP3    H237437   3.084   7.678   4.933  0.9950 -1.7518  0.9367
12501TIP3   OH237438   1.279   0.840   4.981 -0.3328 -0.0528  0.6533
12501TIP3    H137439   1.291   0.930   4.951  1.8882 -0.1482  1.1367
12501TIP3    H237440   1.351   0.826   5.043 -1.2991 -1.8095  1.3962
12502TIP3   OH237441   5.718   6.835   4.129  0.0738  0.0410 -0.4823
12502TIP3    H137442   5.752   6.865   4.214  0.4006 -0.5181 -0.4122
12502TIP3    H237443   5.727   6.911   4.072  0.4506  0.2250 -0.1837
12503TIP3   OH237444   6.239   6.087   5.436  0.8372 -0.2944 -0.0231
12503TIP3    H137445   6.146   6.083   5.457  1.5414 -1.2139  3.0546
12503TIP3    H237446   6.242   6.066   5.342 -2.0341 -0.0777 -0.2322
12504TIP3   OH237447   1.308   1.356   5.079  0.5801  0.3468  0.7623
12504TIP3    H137448   1.396   1.332   5.107  1.5629  0.4725 -2.0246
12504TIP3    H237449   1.283   1.429   5.135  2.4851  0.6554  1.2246
12505TIP3   OH237450   6.614   7.350   5.053 -0.0678 -0.1099  0.1185
12505TIP3    H137451   6.614   7.329   5.147  0.3344  0.2859  0.2141
12505TIP3    H237452   6.674   7.286   5.015  0.0308 -0.0587  0.1860
12506TIP3   OH237453   5.489   5.681   5.518 -0.1547 -0.0999  0.4016
12506TIP3    H137454   5.443   5.731   5.451  0.5829 -0.1187 -0.1168
12506TIP3    H237455   5.422   5.662   5.584 -0.6412  0.7789  0.1574
12507TIP3   OH237456   5.857   5.116   6.269 -0.5510 -0.0978  0.0690
12507TIP3    H137457   5.869   5.206   6.301  0.2460 -0.4231  0.7270
12507TIP3    H237458   5.932   5.101   6.211 -0.7738 -0.2707 -0.1709
12508TIP3   OH237459   6.734   7.787   3.561  0.3631 -0.2630  0.7998
12508TIP3    H137460   6.813   7.769   3.510 -1.3429 -1.3284 -1.5544
12508TIP3    H237461   6.698   7.701   3.580 -0.4146  0.2293  1.5526
12509TIP3   OH237462   6.524   8.009   4.828  0.0262 -0.0963  0.0670
12509TIP3    H137463   6.450   8.067   4.846  0.7865  0.5486  1.2669
12509TIP3    H237464   6.501   7.926   4.870  0.8130  0.7170  2.2111
12510TIP3   OH237465   6.322   7.131   6.256 -0.5617  0.5713 -0.4539
12510TIP3    H137466   6.294   7.223   6.255 -0.4894  0.6101  0.4019
12510TIP3    H237467   6.245   7.082   6.228 -1.0896  0.7763  0.6094
12511TIP3   OH237468   7.366   4.731   4.218  0.0020  0.1806  0.4482
12511TIP3    H137469   7.346   4.713   4.126  0.5597  0.7695  0.2095
12511TIP3    H237470   7.446   4.682   4.235 -0.4662 -0.4781  0.8202
12512TIP3   OH237471   7.450   5.856   5.549 -0.2215  0.4541 -0.2640
12512TIP3    H137472   7.396   5.778   5.536 -0.0899  0.3479 -0.1784
12512TIP3    H237473   7.457   5.894   5.461  3.2524 -1.9775 -1.1484
12513TIP3   OH237474   5.250   7.985   3.195 -0.0243 -0.0573 -0.3554
12513TIP3    H137475   5.280   8.059   3.143 -0.5872 -0.0379 -0.6534
12513TIP3    H237476   5.330   7.937   3.218  0.3541  0.7387 -0.0087
12514TIP3   OH237477   7.754   0.059   5.263  0.2480 -0.3999 -0.0918
12514TIP3    H137478   7.719   0.142   5.230 -0.8632  0.8241  3.8312
12514TIP3    H237479   7.822   0.085   5.325  2.0474 -2.5647 -1.0688
12515TIP3   OH237480   0.267  -0.008   4.815 -0.0079 -0.3468  0.1194
12515TIP3    H137481   0.349  -0.002   4.765  1.8651  1.4421  3.2889
12515TIP3    H237482   0.228   0.080   4.808  0.8948  0.2997  2.7595
12516TIP3   OH237483   7.452   5.804   6.073 -0.1650 -0.0907 -0.5815
12516TIP3    H137484   7.487   5.812   5.984 -1.4314 -1.6399 -1.2427
12516TIP3    H237485   7.475   5.716   6.101 -0.9651 -0.0990  0.0901
12517TIP3   OH237486   1.440   1.338   6.079  0.2317 -0.2826  0.5238
12517TIP3    H137487   1.500   1.309   6.011 -0.8044  1.0120 -0.9726
12517TIP3    H237488   1.471   1.295   6.159  1.1157 -2.2601 -0.8645
12518TIP3   OH237489   6.248   5.958   4.121 -0.1610  0.6974 -0.4031
12518TIP3    H137490   6.197   6.039   4.129 -1.0475 -0.1242  2.8872
12518TIP3    H237491   6.321   5.970   4.182  0.3483 -0.5515 -0.7599
12519TIP3   OH237492   1.647   0.532   4.567  0.4608 -0.3484  0.6560
12519TIP3    H137493   1.552   0.515   4.570  0.3786  0.2410  1.5544
12519TIP3    H237494   1.662   0.594   4.638  1.6768 -1.1812  1.1318
12520TIP3   OH237495   4.678   5.350   3.941 -0.0512 -0.3379 -0.4402
12520TIP3    H137496   4.605   5.287   3.947  0.0305 -0.4983 -1.0439
12520TIP3    H237497   4.742   5.306   3.885  0.5293 -0.2122  0.1250
12521TIP3   OH237498   0.367   0.147   2.548 -0.6477 -0.3343  0.0065
12521TIP3    H137499   0.461   0.131   2.557 -0.4614  1.3025  1.2284
12521TIP3    H237500   0.333   0.146   2.637 -2.2822 -3.5421 -0.6086
12522TIP3   OH237501   5.147   7.336   5.804 -0.2351 -0.0109  0.2260
12522TIP3    H137502   5.209   7.365   5.737 -0.4590 -0.9391 -0.3951
12522TIP3    H237503   5.062   7.368   5.774 -0.0402  1.4581  1.1940
12523TIP3   OH237504   6.947   7.251   4.179  0.0675  0.0738  0.2655
12523TIP3    H137505   6.984   7.173   4.138  0.7699  1.3146 -1.4847
12523TIP3    H237506   6.858   7.257   4.146  1.3269  2.3154 -2.9324
12524TIP3   OH237507   0.194   0.528   4.639  0.4099 -0.2579 -0.1824
12524TIP3    H137508   0.131   0.574   4.584 -2.1180 -0.7206  2.2022
12524TIP3    H237509   0.222   0.453   4.586 -0.5640  0.2983 -1.5104
12525TIP3   OH237510   0.698   0.392   3.816 -0.2656  0.2990 -0.0331
12525TIP3    H137511   0.721   0.301   3.797  2.2761  0.9761 -0.2421
12525TIP3    H237512   0.688   0.433   3.730 -2.7588 -0.0755  0.0399
12526TIP3   OH237513   1.898   0.506   5.434  0.2722  0.0858  0.0211
12526TIP3    H137514   1.864   0.452   5.362 -1.6102  0.5827  0.4921
12526TIP3    H237515   1.877   0.595   5.408  0.4584  0.3376  0.7451
12527TIP3   OH237516   7.818   6.757   3.685  0.1161 -0.0399 -0.1746
12527TIP3    H137517   7.729   6.747   3.650 -0.2552  1.1587  0.3943
12527TIP3    H237518   7.862   6.814   3.621 -0.1393  1.0018  0.5605
12528TIP3   OH237519   7.259   3.976   6.472 -0.0005  0.3824 -0.1624
12528TIP3    H137520   7.265   4.063   6.433  0.3205  0.6044  0.3771
12528TIP3    H237521   7.174   3.943   6.443  1.2775 -0.4892 -3.1314
12529TIP3   OH237522   7.828   0.315   4.240 -0.1966  0.1239 -0.0934
12529TIP3    H137523   7.866   0.253   4.302 -2.3279 -0.9534  0.2061
12529TIP3    H237524   7.885   0.392   4.244  1.5282 -1.1614  0.7860
12530TIP3   OH237525   6.877   5.752   2.942  0.3306  0.1525  0.5684
12530TIP3    H137526   6.951   5.696   2.919  0.0936  0.0265  0.0983
12530TIP3    H237527   6.858   5.730   3.033  0.2548 -0.5173  0.3938
12531TIP3   OH237528   0.088   1.264   4.224 -0.1088  0.3367  0.1445
12531TIP3    H137529   0.074   1.179   4.268  0.9977 -0.2944 -0.6991
12531TIP3    H237530   0.138   1.315   4.287  0.9749 -0.3610 -0.1364
12532TIP3   OH237531   7.273   7.526   4.023 -0.3852  0.3311 -0.8592
12532TIP3    H137532   7.320   7.602   4.058  1.3172 -0.6960 -0.8669
12532TIP3    H237533   7.265   7.544   3.929 -0.7791  0.9166 -0.7133
12533TIP3   OH237534   5.319   5.105   5.428 -0.5292  0.5300 -0.4611
12533TIP3    H137535   5.326   5.047   5.504  2.1040  0.5785 -0.6012
12533TIP3    H237536   5.330   5.047   5.352 -0.3635  0.8553 -0.6895
12534TIP3   OH237537   6.849   7.762   4.948 -0.0564 -0.1323 -0.3267
12534TIP3    H137538   6.880   7.711   4.873 -0.0840 -2.5155  1.2403
12534TIP3    H237539   6.769   7.718   4.975 -2.1028  2.9486 -1.1753
12535TIP3   OH237540   5.199   5.465   5.237  0.5110 -0.0968  0.7347
12535TIP3    H137541   5.255   5.405   5.188  0.4082 -0.2603  0.8155
12535TIP3    H237542   5.237   5.466   5.325 -0.6800 -1.6280  1.2919
12536TIP3   OH237543   4.395   7.203   5.897 -0.2784  0.1965  0.3688
12536TIP3    H137544   4.301   7.194   5.883 -0.0508  0.7152 -1.7087
12536TIP3    H237545   4.418   7.131   5.956 -1.4452 -1.9263 -1.7004
12537TIP3   OH237546   6.267   6.014   5.167  0.2841 -0.2412  0.5634
12537TIP3    H137547   6.316   6.070   5.108 -0.6055  1.0286  1.0076
12537TIP3    H237548   6.191   5.986   5.116 -0.7595  1.2837  1.2613
12538TIP3   OH237549   4.600   5.775   5.712 -0.5811  0.1370 -0.4710
12538TIP3    H137550   4.590   5.817   5.626 -2.3569  1.5315  0.3790
12538TIP3    H237551   4.689   5.797   5.739 -1.0353  2.2670 -0.6292
12539TIP3   OH237552   6.962   5.370   3.654  0.5811  0.4526 -0.1256
12539TIP3    H137553   6.879   5.417   3.657  0.0412 -0.5294  0.9011
12539TIP3    H237554   7.028   5.437   3.669  0.2128  1.7570 -3.8260
12540TIP3   OH237555   3.993   5.406   4.886  0.0986  0.3668 -0.4092
12540TIP3    H137556   4.027   5.436   4.802  1.9661 -1.1160 -0.2143
12540TIP3    H237557   4.070   5.401   4.943 -1.2371  1.9716  1.5899
12541TIP3   OH237558   5.329   6.602   6.254 -0.3027 -0.1044 -0.0710
12541TIP3    H137559   5.384   6.544   6.307 -1.3055  0.3814  1.5253
12541TIP3    H237560   5.373   6.687   6.257  1.9749 -1.0693 -3.6469
12542TIP3   OH237561   5.829   7.035   5.196  0.4728  0.0294  0.2552
12542TIP3    H137562   5.854   6.977   5.124  0.7662  0.7710 -0.2445
12542TIP3    H237563   5.810   7.119   5.154 -0.9345  0.0238  0.8631
12543TIP3   OH237564   6.267   5.567   5.240 -0.1421 -0.4238  0.0330
12543TIP3    H137565   6.224   5.638   5.287 -1.5512 -0.2767 -1.4186
12543TIP3    H237566   6.226   5.487   5.274  0.8312 -0.5096  1.0429
12544TIP3   OH237567   7.139   7.999   3.901  0.3635  0.5583 -0.4405
12544TIP3    H137568   7.082   7.984   3.976  1.0900  2.3248  0.4815
12544TIP3    H237569   7.200   7.926   3.902 -1.3363 -0.9038 -0.9442
12545TIP3   OH237570   6.065   6.998   5.395 -0.3831  0.0473 -0.2020
12545TIP3    H137571   6.106   7.062   5.337 -0.9056  0.6474  0.0886
12545TIP3    H237572   6.041   6.925   5.338  1.0058 -0.2815 -0.3995
12546TIP3   OH237573   3.767   2.588   0.286  0.2688  0.6635 -0.1751
12546TIP3    H137574   3.811   2.516   0.331 -1.3778  0.5776  1.3385
12546TIP3    H237575   3.710   2.627   0.352 -2.2509  0.5318 -2.1620
12547TIP3   OH237576   6.422   6.041   4.346  0.1241 -0.2896  0.0958
12547TIP3    H137577   6.488   6.095   4.389 -0.2581  0.9523 -0.8603
12547TIP3    H237578   6.443   5.952   4.373  1.6656  0.1817  0.4929
12548TIP3   OH237579   6.996   6.571   4.699 -0.4873  0.4296 -0.0662
12548TIP3    H137580   6.941   6.628   4.751 -0.8416  0.6530 -0.6842
12548TIP3    H237581   7.016   6.497   4.757 -0.3460  0.9896  0.5948
12549TIP3   OH237582   0.560   0.492   4.593 -0.3590  0.3092 -0.2205
12549TIP3    H137583   0.550   0.574   4.545  1.5456  0.4877 -0.3563
12549TIP3    H237584   0.604   0.516   4.674  1.3756 -0.7152 -0.8189
12550TIP3   OH237585   5.997   7.868   4.321  0.5095  0.3350  0.0845
12550TIP3    H137586   6.025   7.829   4.239 -0.2984  1.3140 -0.6740
12550TIP3    H237587   6.074   7.914   4.354  0.7541  0.1831 -0.2794
12551TIP3   OH237588   3.705   3.151   0.270 -0.2289  0.4474 -0.6135
12551TIP3    H137589   3.735   3.186   0.354 -1.3371  1.9309 -0.8182
12551TIP3    H237590   3.772   3.087   0.245  0.3495  0.3402  1.1612
12552TIP3   OH237591   6.091   7.235   5.663  0.0578  0.9051 -0.3344
12552TIP3    H137592   6.061   7.214   5.574  2.7567  0.2126 -1.1317
12552TIP3    H237593   6.097   7.330   5.664 -2.7759  1.1010  0.0717
12553TIP3   OH237594   6.601   4.642   6.605 -0.0177  0.1753 -0.2172
12553TIP3    H137595   6.621   4.556   6.567 -0.9719 -0.2508  0.2363
12553TIP3    H237596   6.563   4.692   6.533  0.8121  0.3265 -0.5613
12554TIP3   OH237597   5.271   6.309   6.358 -0.5233  0.5801 -0.3281
12554TIP3    H137598   5.206   6.377   6.341 -0.3038  0.6211 -1.0110
12554TIP3    H237599   5.313   6.295   6.273 -1.5350 -1.4104 -0.5326
12555TIP3   OH237600   5.211   7.259   5.294  0.2276  1.0370  0.0006
12555TIP3    H137601   5.196   7.354   5.294 -0.0804  1.0032 -2.2848
12555TIP3    H237602   5.306   7.250   5.286  0.4437  1.1256  1.9916
12556TIP3   OH237603   5.520   4.497   6.663 -0.1380 -0.1462 -0.0968
12556TIP3    H137604   5.538   4.436   6.591  0.7024  0.0383 -0.0518
12556TIP3    H237605   5.488   4.441   6.733  0.3696 -0.5120 -0.1470
12557TIP3   OH237606   4.830   0.983   0.270  0.0503  0.5723  0.0827
12557TIP3    H137607   4.743   1.017   0.289  0.0864  0.5898  0.2113
12557TIP3    H237608   4.882   1.060   0.247  0.9806  0.9966  3.4493
12558TIP3   OH237609   5.390   7.298   4.845  0.5903 -0.4626 -0.6289
12558TIP3    H137610   5.308   7.290   4.894  0.7134 -0.7332 -0.4656
12558TIP3    H237611   5.370   7.263   4.758  0.1872  0.6493 -0.9800
12559TIP3   OH237612   7.117   5.940   1.970  0.1598 -0.3143  0.5555
12559TIP3    H137613   7.114   5.923   2.064  1.3125  0.4791  0.7502
12559TIP3    H237614   7.027   5.962   1.946  0.1420  0.9511  1.7476
12560TIP3   OH237615   5.020   7.034   6.110  0.5940 -0.5311  0.1711
12560TIP3    H137616   5.009   7.129   6.108  3.1261 -0.2066 -1.1084
12560TIP3    H237617   4.956   7.001   6.047  1.2069  0.5281 -1.0437
12561TIP3   OH237618   1.161   0.603   4.147  0.3051  0.1582 -0.0737
12561TIP3    H137619   1.102   0.642   4.082 -0.6745 -1.9976 -0.5291
12561TIP3    H237620   1.111   0.530   4.184  2.2594 -0.9752  0.3771
12562TIP3   OH237621   4.596   6.440   4.718  0.2698 -0.3020  0.0686
12562TIP3    H137622   4.645   6.518   4.742  1.2332 -1.2838  1.3742
12562TIP3    H237623   4.521   6.440   4.778  0.5150 -0.6216  0.3745
12563TIP3   OH237624   6.417   5.759   5.792 -0.2147  0.2533 -0.0960
12563TIP3    H137625   6.384   5.849   5.798  2.2738  1.1089  1.3646
12563TIP3    H237626   6.429   5.744   5.699  0.1207  1.7285 -0.2989
12564TIP3   OH237627   8.400   5.727   6.372 -0.3901 -0.4330  0.2250
12564TIP3    H137628   8.423   5.806   6.324  0.8057 -0.0535  1.3910
12564TIP3    H237629   8.342   5.758   6.442 -0.8440 -0.7613 -0.0003
12565TIP3   OH237630   1.770   1.506   5.256 -0.0487 -0.2380 -0.3110
12565TIP3    H137631   1.831   1.432   5.259  0.3054  0.0333 -0.8119
12565TIP3    H237632   1.747   1.521   5.348  1.7519  0.5774  0.0295
12566TIP3   OH237633   5.667   5.491   4.887 -0.2885 -0.0676 -0.0844
12566TIP3    H137634   5.628   5.500   4.973 -0.8010  0.6711 -0.3858
12566TIP3    H237635   5.637   5.568   4.839  1.3423  0.4061 -0.3940
12567TIP3   OH237636   0.663   1.100   5.093  0.3264  0.1179 -0.4510
12567TIP3    H137637   0.572   1.130   5.099  0.1093 -0.7144  0.6154
12567TIP3    H237638   0.674   1.043   5.169  0.9670 -1.9005 -2.0290
12568TIP3   OH237639   5.306   7.686   4.849 -0.3797  0.2612  0.1976
12568TIP3    H137640   5.334   7.737   4.773 -1.7297 -0.1745 -0.6112
12568TIP3    H237641   5.214   7.709   4.861 -0.2624  0.0827  1.5209
12569TIP3   OH237642   7.410   7.299   4.527  0.3612  0.2969 -0.0672
12569TIP3    H137643   7.431   7.382   4.485 -0.0324 -0.7660 -2.4693
12569TIP3    H237644   7.318   7.308   4.553  0.5262  0.8585  0.3336
12570TIP3   OH237645   0.130   1.457   3.687  0.7000  0.1860  0.1627
12570TIP3    H137646   0.168   1.494   3.608  0.5530 -1.2454 -0.5888
12570TIP3    H237647   0.036   1.456   3.670  0.6977 -0.4582  0.2188
12571TIP3   OH237648   8.328   0.092   2.290  0.0450  0.5800 -0.3813
12571TIP3    H137649   8.414   0.131   2.273 -0.3492  2.7632  2.2983
12571TIP3    H237650   8.269   0.133   2.228  0.3193  1.5717  0.0100
12572TIP3   OH237651   3.564   0.729   0.105  0.2365 -0.2426  0.2114
12572TIP3    H137652   3.634   0.746   0.169  0.4576 -1.3368  0.2700
12572TIP3    H237653   3.607   0.678   0.036 -0.2416  0.0775 -0.3241
12573TIP3   OH237654   6.961   7.446   3.954 -0.4731 -0.0105  0.2078
12573TIP3    H137655   6.867   7.468   3.953 -0.7730 -1.1462  1.2909
12573TIP3    H237656   6.987   7.449   3.862 -1.8594 -0.8269 -0.2347
12574TIP3   OH237657   6.079   7.653   5.889  0.6928 -0.0804 -0.3338
12574TIP3    H137658   6.073   7.745   5.913  0.0069 -0.2342  0.1223
12574TIP3    H237659   6.098   7.608   5.971 -0.5469 -0.4978 -0.2548
12575TIP3   OH237660   7.572   7.270   4.147 -0.0278 -0.1002  0.4394
12575TIP3    H137661   7.589   7.363   4.166  0.9317  0.2048 -1.6819
12575TIP3    H237662   7.541   7.234   4.229 -1.6294  2.3971  1.0023
12576TIP3   OH237663   2.156   6.489   3.593  0.6271 -0.1677  0.4796
12576TIP3    H137664   2.198   6.554   3.649  0.6948  1.9904 -1.9616
12576TIP3    H237665   2.229   6.442   3.552  0.5937 -0.7954  1.1419
12577TIP3   OH237666   2.987   2.827   1.573 -0.2965  0.6194  0.2363
12577TIP3    H137667   2.980   2.915   1.536 -0.1430  1.7481  2.7855
12577TIP3    H237668   3.079   2.817   1.595  0.1801 -1.2106 -2.3566
12578TIP3   OH237669   4.861   0.037   0.842 -0.2343  0.3003  0.7860
12578TIP3    H137670   4.832   0.032   0.933 -2.0360  0.5387  0.2419
12578TIP3    H237671   4.785   0.009   0.791  1.0907 -0.8860 -0.6037
12579TIP3   OH237672   7.242   4.454   4.895  0.5697 -0.2451 -0.5709
12579TIP3    H137673   7.171   4.478   4.954 -0.5541 -0.4536 -1.8178
12579TIP3    H237674   7.250   4.359   4.903  1.6653 -0.0712  0.6131
12580TIP3   OH237675   3.159   3.041   0.661 -0.2073 -0.0346  0.3982
12580TIP3    H137676   3.123   3.125   0.689 -0.7399 -0.6312  1.6073
12580TIP3    H237677   3.092   3.005   0.603 -1.0652 -0.6180  1.7067
12581TIP3   OH237678   6.646   7.603   4.952 -0.2491 -0.1392 -0.3337
12581TIP3    H137679   6.567   7.657   4.946  0.1202  0.5917  1.2889
12581TIP3    H237680   6.614   7.516   4.976 -0.5363  0.2682  0.7929
12582TIP3   OH237681   6.064   5.830   5.068 -0.1479  0.2253  0.4766
12582TIP3    H137682   6.088   5.797   5.155  0.1492  0.1840  0.3762
12582TIP3    H237683   6.024   5.756   5.024  2.1890 -0.5301 -0.4257
12583TIP3   OH237684   4.693   7.212   1.916 -0.5440 -0.1780 -0.3900
12583TIP3    H137685   4.679   7.178   2.004 -1.7017  0.4865 -0.3071
12583TIP3    H237686   4.766   7.161   1.882 -1.2331 -1.6694  0.3164
12584TIP3   OH237687   1.919   1.602   1.477  0.0884 -0.2441 -0.6184
12584TIP3    H137688   1.854   1.670   1.493  0.0796 -0.2416 -0.6664
12584TIP3    H237689   1.893   1.530   1.534 -1.1533 -1.0405 -2.1561
12585TIP3   OH237690   5.675   3.926   4.616  0.0557  0.2820 -0.6413
12585TIP3    H137691   5.769   3.914   4.631 -0.2868 -1.2864  0.4468
12585TIP3    H237692   5.647   3.987   4.684 -0.0341 -0.6732  0.1947
12586TIP3   OH237693   6.557   6.296   2.512  0.4026  0.0480 -0.2047
12586TIP3    H137694   6.572   6.232   2.582  1.0094 -1.0245 -1.3066
12586TIP3    H237695   6.641   6.343   2.504  0.0343  0.8348  0.4343
12587TIP3   OH237696   1.997   0.054   4.225  0.3080  0.3334  0.2931
12587TIP3    H137697   2.040   0.138   4.239  0.1785  0.7117 -1.4185
12587TIP3    H237698   2.069  -0.009   4.218  0.4279  0.3888  1.0294
12588TIP3   OH237699   3.951   7.128   4.798 -0.7614 -0.0491  0.6243
12588TIP3    H137700   3.962   7.039   4.832 -1.0038 -1.1979 -2.1554
12588TIP3    H237701   3.857   7.136   4.783 -0.4035 -0.4984 -2.0771
12589TIP3   OH237702   5.083   7.700   6.653  0.0414  0.2580  0.3709
12589TIP3    H137703   5.176   7.713   6.673  0.1506  0.6101 -0.3625
12589TIP3    H237704   5.082   7.637   6.581 -0.2076  1.7237 -0.9266
12590TIP3   OH237705   0.091   7.534   3.879  0.3514  0.2830 -0.2743
12590TIP3    H137706   0.159   7.538   3.946 -0.2969 -0.3509  0.4387
12590TIP3    H237707   0.051   7.448   3.892 -0.0668  0.3419 -1.1944
12591TIP3   OH237708   3.682   6.374   4.597  0.1592 -0.1499 -0.3234
12591TIP3    H137709   3.697   6.283   4.624 -0.4939 -0.9139 -2.4616
12591TIP3    H237710   3.589   6.389   4.614  0.7824  0.9705  2.3863
12592TIP3   OH237711   4.723   7.150   6.572 -0.4609 -0.2671  0.3830
12592TIP3    H137712   4.714   7.244   6.555 -0.1771 -0.3273 -0.0897
12592TIP3    H237713   4.781   7.118   6.503  1.2215 -0.3769  1.7878
12593TIP3   OH237714   8.366   0.409   5.687  0.2009  0.4468  0.0189
12593TIP3    H137715   8.411   0.385   5.769  1.1495 -0.3804 -0.7377
12593TIP3    H237716   8.275   0.425   5.714  0.5296  0.3199  1.2619
12594TIP3   OH237717   7.086   5.429   6.159 -0.2798 -0.4012 -0.5570
12594TIP3    H137718   7.140   5.479   6.098  0.0709 -1.0343 -0.7617
12594TIP3    H237719   7.143   5.415   6.235 -0.8980  0.8834  0.1750
12595TIP3   OH237720   0.043   7.019   4.241  0.1944  0.1063  0.3718
12595TIP3    H137721   0.020   6.939   4.195 -0.3904  0.5174 -0.0687
12595TIP3    H237722   0.049   6.994   4.333 -1.9070 -0.0503  0.4847
12596TIP3   OH237723   4.120   1.661   0.416  0.7575  0.4955 -0.2398
12596TIP3    H137724   4.074   1.733   0.459  1.7719  0.8176  0.3228
12596TIP3    H237725   4.111   1.680   0.322  1.1911  1.4610 -0.0907
12597TIP3   OH237726   6.539   6.140   2.987  0.4300 -0.0967 -0.0872
12597TIP3    H137727   6.628   6.163   3.016  0.0770  1.0683  0.0973
12597TIP3    H237728   6.544   6.142   2.892  0.3582  0.9054 -0.0671
12598TIP3   OH237729   5.743   7.368   6.797 -0.0318  0.8265 -0.0577
12598TIP3    H137730   5.655   7.371   6.759  0.8143 -2.9265 -2.5928
12598TIP3    H237731   5.732   7.313   6.876 -0.0007  0.4895 -0.2866
12599TIP3   OH237732   5.778   6.834   5.608  0.0700 -0.1219 -0.0943
12599TIP3    H137733   5.719   6.759   5.598 -1.3751  1.0485 -0.7341
12599TIP3    H237734   5.804   6.832   5.700 -1.3868 -0.3956  0.3311
12600TIP3   OH237735   4.820   6.101   4.728 -0.1630 -0.0489  0.6935
12600TIP3    H137736   4.782   6.132   4.810 -0.0042 -1.6044  1.3639
12600TIP3    H237737   4.875   6.027   4.753  1.0938  0.4114 -0.6282
12601TIP3   OH237738   7.451   7.993   4.044  0.5056 -0.7305  0.1938
12601TIP3    H137739   7.457   7.996   3.949  1.6152 -1.5135  0.2249
12601TIP3    H237740   7.528   8.042   4.074  1.2890 -2.2006  0.6685
12602TIP3   OH237741   5.743   6.769   5.064 -0.0104  0.3438 -0.1817
12602TIP3    H137742   5.672   6.796   5.006 -0.9948 -2.5416 -0.4030
12602TIP3    H237743   5.822   6.806   5.024 -0.8235 -0.5457 -2.7094
12603TIP3   OH237744   4.533   6.977   6.415  0.2542 -0.0468  0.4127
12603TIP3    H137745   4.620   6.950   6.388  0.4224 -0.0040  0.9136
12603TIP3    H237746   4.547   7.037   6.488 -0.2056 -0.3076  0.7202
12604TIP3   OH237747   5.960   7.490   6.936 -0.0143 -0.2107  0.5780
12604TIP3    H137748   6.006   7.408   6.915 -0.2156 -0.7777  2.2463
12604TIP3    H237749   5.870   7.474   6.908  0.4132  0.2838 -1.1500
12605TIP3   OH237750   5.853   7.178   5.490 -0.4712 -0.1627 -0.4380
12605TIP3    H137751   5.797   7.242   5.533  1.0019  1.1266 -0.4200
12605TIP3    H237752   5.864   7.212   5.401  0.4158 -0.3279 -0.3896
12606TIP3   OH237753   5.271   5.722   6.733 -0.0368  0.0296 -0.5582
12606TIP3    H137754   5.366   5.711   6.725 -0.1480 -3.7071  1.6265
12606TIP3    H237755   5.257   5.737   6.827 -1.6081  0.5123 -0.8614
12607TIP3   OH237756   6.563   5.660   3.130  0.1734 -0.0026  0.3874
12607TIP3    H137757   6.515   5.730   3.086 -0.0126 -0.6409 -0.4497
12607TIP3    H237758   6.651   5.695   3.143  0.1004  0.3628 -0.0901
12608TIP3   OH237759   7.209   5.592   5.995  0.0960  0.1144 -0.2318
12608TIP3    H137760   7.171   5.665   5.946  0.7817  1.4150  1.1378
12608TIP3    H237761   7.266   5.633   6.060  2.2768 -1.7206 -0.8982
12609TIP3   OH237762   6.194   6.053   6.337  0.3700 -0.3750  0.6968
12609TIP3    H137763   6.217   6.128   6.392 -0.5599  1.0092 -0.7634
12609TIP3    H237764   6.143   5.996   6.394  1.9869 -0.4260  2.1304
12610TIP3   OH237765   7.730   2.001   5.557 -0.5471 -0.1733 -0.4449
12610TIP3    H137766   7.742   1.987   5.651 -1.9590 -0.1167 -0.2439
12610TIP3    H237767   7.676   1.927   5.529 -2.7208  1.4187 -0.6043
12611TIP3   OH237768   6.581   6.394   5.126  0.0323  0.0510  0.5155
12611TIP3    H137769   6.535   6.349   5.055  2.0676 -0.5976 -0.4381
12611TIP3    H237770   6.538   6.362   5.206 -2.1779  0.6753 -0.3934
12612TIP3   OH237771   6.639   5.005   6.630  0.2538  0.3088 -0.1378
12612TIP3    H137772   6.591   5.011   6.548  0.1060 -2.3181 -0.2931
12612TIP3    H237773   6.694   5.084   6.632 -2.8754  2.5602 -0.6706
12613TIP3   OH237774   0.496   4.453   6.844  0.1527 -0.5334 -0.3838
12613TIP3    H137775   0.499   4.537   6.891  2.7174 -0.8611  0.1030
12613TIP3    H237776   0.425   4.405   6.885 -0.4445  0.8618  0.2680
12614TIP3   OH237777   2.423   4.516   5.850 -0.2198 -0.3466 -0.1491
12614TIP3    H137778   2.509   4.532   5.811 -0.0729  2.4127  1.1969
12614TIP3    H237779   2.430   4.429   5.889  1.6940 -0.4898 -0.7548
12615TIP3   OH237780   7.719   5.820   6.427 -0.1967  0.0605  0.3195
12615TIP3    H137781   7.727   5.876   6.349 -0.0938  0.4778  0.6302
12615TIP3    H237782   7.784   5.751   6.414 -0.6287 -0.2424 -0.2793
12616TIP3   OH237783   7.742   4.403   5.701 -0.2805 -0.1994  0.2229
12616TIP3    H137784   7.790   4.418   5.783 -0.2222 -0.4290  0.2301
12616TIP3    H237785   7.718   4.310   5.704  0.9162 -0.5490 -0.6559
12617TIP3   OH237786   5.231   5.945   6.552  0.7989 -0.0169  0.0042
12617TIP3    H137787   5.185   6.028   6.563 -0.5419 -0.6161 -0.8728
12617TIP3    H237788   5.215   5.897   6.633  0.0058 -0.1462 -0.2202
12618TIP3   OH237789   2.778   4.505   1.479  0.0559 -0.2159 -0.0083
12618TIP3    H137790   2.753   4.598   1.477 -0.8168 -0.4489 -0.1116
12618TIP3    H237791   2.769   4.476   1.388 -0.0425 -0.4922  0.0901
12619TIP3   OH237792   6.362   5.688   6.377 -0.3571  0.0446 -0.4024
12619TIP3    H137793   6.400   5.610   6.336  0.2055 -0.0849  0.3571
12619TIP3    H237794   6.374   5.757   6.312 -0.9117 -0.5142 -1.1043
12620TIP3   OH237795   7.624   5.367   5.680 -0.4974 -0.4496  0.4827
12620TIP3    H137796   7.556   5.377   5.747 -2.2014  0.8717 -1.3840
12620TIP3    H237797   7.670   5.451   5.679 -1.3206  0.0121 -0.8469
12621TIP3   OH237798   0.919   1.815   2.229 -0.2653  0.5903  0.3125
12621TIP3    H137799   0.918   1.841   2.137 -0.4099  0.3074  0.2362
12621TIP3    H237800   0.842   1.858   2.267  0.7218  2.1043  0.6797
12622TIP3   OH237801   6.837   0.020   6.116  0.7531  0.6027 -0.4591
12622TIP3    H137802   6.817   0.092   6.056 -0.8373  1.1188  0.6608
12622TIP3    H237803   6.832   0.059   6.203  0.6862 -0.6818  0.1240
12623TIP3   OH237804   6.535   5.370   4.845 -0.4705  0.5143  0.0440
12623TIP3    H137805   6.499   5.286   4.874  0.2490  0.6172  1.2772
12623TIP3    H237806   6.476   5.436   4.883  0.2288  0.6341  0.9475
12624TIP3   OH237807   6.316   1.795   4.174 -0.2577  0.1236  0.7816
12624TIP3    H137808   6.298   1.792   4.080 -1.1569  1.2460  0.9023
12624TIP3    H237809   6.230   1.807   4.214  0.3538  2.0401  1.5989
12625TIP3   OH237810   7.329   5.868   4.912  0.1834  0.1625 -0.4401
12625TIP3    H137811   7.420   5.895   4.907  0.8826 -1.9442  0.1317
12625TIP3    H237812   7.300   5.861   4.821  0.5268  1.0427 -0.6172
12626TIP3   OH237813   5.088   7.474   6.445  0.2440 -0.1508 -0.1833
12626TIP3    H137814   5.143   7.433   6.378 -0.0646 -0.8830  0.0045
12626TIP3    H237815   5.103   7.421   6.524  1.6623  1.5399  0.7012
12627TIP3   OH237816   7.619   5.280   1.841  0.4335 -0.2558  0.1087
12627TIP3    H137817   7.543   5.337   1.829  0.7831  0.0042 -0.9479
12627TIP3    H237818   7.685   5.316   1.782  1.6703  0.0285  1.6328
12628TIP3   OH237819   5.978   7.234   2.972 -0.1050  0.4314  0.3514
12628TIP3    H137820   6.006   7.317   3.011 -0.2721  1.1107 -0.9367
12628TIP3    H237821   5.885   7.248   2.952 -0.3616 -0.3889  0.9394
12629TIP3   OH237822   0.984   0.945   6.118  0.5842  0.3426  0.2682
12629TIP3    H137823   0.940   0.931   6.201 -0.3121 -1.8319 -0.5208
12629TIP3    H237824   0.992   0.857   6.080  1.5089  1.2206 -1.6624
12630TIP3   OH237825   5.733   6.810   6.713 -0.1360  0.2639 -0.3753
12630TIP3    H137826   5.828   6.806   6.710 -0.1505 -1.3545  0.8199
12630TIP3    H237827   5.703   6.745   6.649 -0.4422  0.5136 -0.4903
12631TIP3   OH237828   6.959   5.477   3.306  0.1691 -0.2519  0.5824
12631TIP3    H137829   6.975   5.543   3.374 -2.9404 -0.9809  2.1163
12631TIP3    H237830   6.923   5.527   3.232  1.7046  0.2729  0.1643
12632TIP3   OH237831   0.595   1.318   3.222 -0.6838  0.0509 -0.1373
12632TIP3    H137832   0.662   1.299   3.287  0.9649  1.0161 -1.5226
12632TIP3    H237833   0.550   1.396   3.255  1.8620  2.1202 -1.3557
12633TIP3   OH237834   5.535   7.528   4.585  0.6664  0.1611 -0.5774
12633TIP3    H137835   5.545   7.560   4.675  1.5162 -1.2051 -0.1857
12633TIP3    H237836   5.607   7.569   4.537  1.4923 -0.8023 -0.1709
12634TIP3   OH237837   6.973   5.568   2.216  0.0471  0.3272 -0.3837
12634TIP3    H137838   6.982   5.663   2.205  2.6916  0.3492  1.5512
12634TIP3    H237839   6.952   5.557   2.308 -0.0203 -0.9748 -0.5564
12635TIP3   OH237840   8.345  -0.024   5.943  0.2492 -0.2634 -0.0429
12635TIP3    H137841   8.263   0.003   5.902  1.6625 -1.2606 -3.6739
12635TIP3    H237842   8.368   0.050   6.000 -2.4911  0.5681  0.0685
12636TIP3   OH237843   8.226   5.230   2.573 -0.4112 -0.1509  0.1037
12636TIP3    H137844   8.272   5.155   2.535 -0.4081  0.7518 -1.7760
12636TIP3    H237845   8.236   5.220   2.667  0.1187 -2.1751 -0.1519
12637TIP3   OH237846   7.955   6.137   3.405 -0.0698  0.3613 -0.2846
12637TIP3    H137847   7.971   6.167   3.316 -2.1579  0.5667 -0.6098
12637TIP3    H237848   7.912   6.052   3.395  0.7545 -0.1713  0.5546
12638TIP3   OH237849   6.305   6.059   4.720  0.4948  0.3141 -0.5004
12638TIP3    H137850   6.296   6.138   4.667  1.0720  0.6957 -0.0459
12638TIP3    H237851   6.221   6.051   4.766  0.3537  0.5389 -0.7194
12639TIP3   OH237852   6.442   6.275   5.353 -0.7654  0.1730  0.4063
12639TIP3    H137853   6.385   6.343   5.390 -1.2656  0.2539 -0.4940
12639TIP3    H237854   6.399   6.193   5.376 -1.7713  0.2646 -1.1014
12640TIP3   OH237855   5.038   7.304   6.042 -0.2057  0.2679 -0.2910
12640TIP3    H137856   4.961   7.360   6.034  0.5679  1.5474  0.9767
12640TIP3    H237857   5.083   7.312   5.958 -1.9949 -1.3359 -1.4259
12641TIP3   OH237858   7.287   2.569   1.224  0.0143 -0.5165 -0.3832
12641TIP3    H137859   7.317   2.660   1.232 -1.1981 -0.1690  0.5108
12641TIP3    H237860   7.297   2.548   1.132 -0.5837  0.8619 -0.7796
12642TIP3   OH237861   6.895   7.283   4.467 -0.4225  0.2499 -0.0239
12642TIP3    H137862   6.821   7.242   4.511 -0.4670 -0.3481 -0.6445
12642TIP3    H237863   6.878   7.271   4.374  0.0129  0.8981 -0.1950
12643TIP3   OH237864   5.620   7.904   6.341  0.1332  0.8309  0.3422
12643TIP3    H137865   5.663   7.947   6.415  1.7147 -0.6558  0.3358
12643TIP3    H237866   5.677   7.922   6.266  1.4370 -2.0823  0.5390
12644TIP3   OH237867   7.279   6.910   4.063  0.3129  0.1992  0.0641
12644TIP3    H137868   7.195   6.938   4.026  0.4422  0.9092  0.2922
12644TIP3    H237869   7.334   6.893   3.988  1.0356  3.0354 -0.1137
12645TIP3   OH237870   0.977   6.942   3.758 -0.5264  0.0266 -0.1008
12645TIP3    H137871   0.961   6.916   3.849 -1.2230  0.3739 -0.1228
12645TIP3    H237872   1.038   7.015   3.765 -2.7233  1.8834  0.2530
12646TIP3   OH237873   5.173   6.610   3.165 -0.3803 -0.0294  0.4407
12646TIP3    H137874   5.208   6.696   3.142  0.5788 -0.2793  0.9538
12646TIP3    H237875   5.097   6.629   3.221  0.7869  0.4760  1.8969
12647TIP3   OH237876   0.051   0.939   4.312  0.2486  0.8212 -0.2500
12647TIP3    H137877   0.006   0.948   4.228  0.1670 -1.5039 -0.4902
12647TIP3    H237878   0.140   0.911   4.288  0.0362 -0.4663  0.4542
12648TIP3   OH237879   6.840   5.349   4.869 -0.5406  0.1327  0.2629
12648TIP3    H137880   6.847   5.272   4.925  2.0261  0.0948 -0.0868
12648TIP3    H237881   6.746   5.370   4.870 -1.0427 -2.0036  1.6570
12649TIP3   OH237882   7.231   4.995   6.258 -0.4870  0.4419  0.4336
12649TIP3    H137883   7.147   5.025   6.293 -0.0524  0.7536  1.1974
12649TIP3    H237884   7.207   4.940   6.183 -1.3464  1.3765  0.0034
12650TIP3   OH237885   5.690   5.832   5.106 -0.5136  0.2785 -0.1940
12650TIP3    H137886   5.663   5.742   5.126 -0.0832  0.2174  0.1190
12650TIP3    H237887   5.654   5.849   5.019  2.4892 -1.4477 -1.8388
12651TIP3   OH237888   4.390   7.440   4.738  0.3722  0.2909  0.0886
12651TIP3    H137889   4.406   7.487   4.820 -0.6388  1.2834 -0.2706
12651TIP3    H237890   4.332   7.498   4.688 -1.4159 -1.6251 -0.1031
12652TIP3   OH237891   0.083   0.574   6.666 -0.8043  0.2566  0.2345
12652TIP3    H137892   0.039   0.503   6.713 -1.0135  0.9607  1.1363
12652TIP3    H237893   0.055   0.653   6.712 -0.0773  0.8697 -0.3647
12653TIP3   OH237894   7.174   5.611   6.925 -0.0084  0.8150  0.2382
12653TIP3    H137895   7.187   5.527   6.969 -0.6400  0.6972  0.2086
12653TIP3    H237896   7.260   5.635   6.892 -0.4825 -1.7534 -3.2195
12654TIP3   OH237897   0.407   0.489   5.432 -0.0087  0.0338  0.2398
12654TIP3    H137898   0.429   0.408   5.477 -0.0834 -0.1348 -0.0275
12654TIP3    H237899   0.448   0.558   5.485 -0.6779 -0.1100  0.9538
12655TIP3   OH237900   5.693   7.565   6.504 -0.0734 -0.1857  0.1409
12655TIP3    H137901   5.663   7.629   6.569  1.4661  2.2209 -1.4203
12655TIP3    H237902   5.772   7.527   6.542  0.0406  0.2022  0.2966
12656TIP3   OH237903   0.613   1.479   0.152  0.0374  0.0297  0.1829
12656TIP3    H137904   0.575   1.555   0.195 -3.0049 -1.5832  0.5294
12656TIP3    H237905   0.571   1.404   0.194 -0.2976 -1.7097 -3.0223
12657TIP3   OH237906   0.964   0.396   4.788 -0.0004 -0.8404 -0.5329
12657TIP3    H137907   1.009   0.374   4.869 -0.3127 -0.6600 -0.3049
12657TIP3    H237908   0.962   0.315   4.738 -0.8513 -1.2464  0.1495
12658TIP3   OH237909   8.268   0.925   5.477 -0.1878 -0.1601  0.0299
12658TIP3    H137910   8.360   0.936   5.450 -0.7359 -0.1028 -1.8503
12658TIP3    H237911   8.226   1.006   5.450 -0.8410 -0.2686  0.7237
12659TIP3   OH237912   4.903   6.770   4.460  0.9639 -0.5906  0.0190
12659TIP3    H137913   4.907   6.847   4.516 -1.1607 -1.4095  1.3603
12659TIP3    H237914   4.957   6.792   4.385 -0.4730  2.6350 -0.1477
12660TIP3   OH237915   7.010   4.898   4.962 -0.1205 -0.5868 -0.4442
12660TIP3    H137916   6.977   4.810   4.942 -0.9734 -0.0488 -1.4476
12660TIP3    H237917   7.061   4.886   5.042 -1.0751 -1.8198  0.0138
12661TIP3   OH237918   1.130   0.581   5.463 -0.3000  0.4016  0.0372
12661TIP3    H137919   1.141   0.652   5.401  1.1160 -0.1422 -0.3533
12661TIP3    H237920   1.139   0.623   5.549 -2.4949  1.1901 -0.1043
12662TIP3   OH237921   0.356   4.638   3.824 -0.4587 -0.1453 -0.4445
12662TIP3    H137922   0.391   4.590   3.899  0.7981  0.7539 -0.4441
12662TIP3    H237923   0.346   4.571   3.756  0.3840 -0.5899 -0.1443
12663TIP3   OH237924   7.292   5.834   5.263  0.3601 -0.0823  0.0720
12663TIP3    H137925   7.294   5.930   5.258  1.3739 -0.0875  0.3422
12663TIP3    H237926   7.283   5.815   5.357  2.2357 -0.2664  0.2415
12664TIP3   OH237927   5.064   7.714   4.906  0.3327 -0.2070 -0.1999
12664TIP3    H137928   4.992   7.766   4.942  0.1617  1.4051 -2.7531
12664TIP3    H237929   5.021   7.638   4.866  0.1317  0.2215 -0.8043
12665TIP3   OH237930   7.599   5.897   4.864  0.4330 -0.3654  0.2176
12665TIP3    H137931   7.671   5.940   4.818  1.9087 -0.9679  1.9266
12665TIP3    H237932   7.541   5.866   4.794  0.9748  1.5499 -1.1240
12666TIP3   OH237933   4.524   6.713   3.847 -0.2672  0.8682  0.1900
12666TIP3    H137934   4.568   6.793   3.877  0.4202  0.7849 -0.5647
12666TIP3    H237935   4.465   6.743   3.778 -0.9223  0.8922  0.7587
12667TIP3   OH237936   6.780   5.824   4.231 -0.8720  0.2288  0.1943
12667TIP3    H137937   6.723   5.842   4.307  0.6531  1.4328  1.0913
12667TIP3    H237938   6.833   5.749   4.258 -0.0413  0.9175  0.4843
12668TIP3   OH237939   7.323   4.230   6.420 -0.7634 -0.5707  0.6045
12668TIP3    H137940   7.394   4.199   6.364 -1.2366  0.5737 -0.6701
12668TIP3    H237941   7.368   4.270   6.495 -0.0724 -0.1081 -0.0487
12669TIP3   OH237942   6.185   5.551   5.605  0.2284  0.3462  0.7255
12669TIP3    H137943   6.147   5.579   5.688 -0.6367 -0.4498  0.6029
12669TIP3    H237944   6.173   5.626   5.547 -1.5375 -0.0231  0.5746
12670TIP3   OH237945   4.517   7.610   4.305 -0.4771  0.3472 -0.1456
12670TIP3    H137946   4.595   7.663   4.321  0.2701 -1.0506  0.9695
12670TIP3    H237947   4.445   7.673   4.308  0.4436  1.4024  0.5574
12671TIP3   OH237948   6.134   7.266   4.580 -0.1574 -0.7055 -0.4079
12671TIP3    H137949   6.085   7.343   4.550  0.4074 -0.2081 -0.0498
12671TIP3    H237950   6.099   7.249   4.667 -1.1572 -1.6085 -0.9681
12672TIP3   OH237951   6.233   8.009   4.346  0.1923 -0.0528  0.6049
12672TIP3    H137952   6.275   8.000   4.432  1.2791  1.0237  0.1983
12672TIP3    H237953   6.304   8.029   4.286 -0.4254 -1.7135 -0.7396
12673TIP3   OH237954   7.233   7.856   2.651 -0.0929  0.2427  0.4269
12673TIP3    H137955   7.201   7.945   2.664 -1.4001 -0.2591  0.6540
12673TIP3    H237956   7.157   7.806   2.624  0.9455 -0.4985 -1.1953
12674TIP3   OH237957   4.906   6.121   4.216  0.3822  0.3056  0.7810
12674TIP3    H137958   4.852   6.200   4.218 -1.7796 -1.1232  1.2141
12674TIP3    H237959   4.894   6.081   4.303 -0.3168 -1.5940 -0.1473
12675TIP3   OH237960   4.792   4.898   5.349 -0.0635  0.4007  0.1350
12675TIP3    H137961   4.804   4.949   5.429 -1.2092  1.1396 -0.1612
12675TIP3    H237962   4.850   4.939   5.285  1.0130 -0.3205  0.6344
12676TIP3   OH237963   4.088   3.243   0.630  0.8569 -0.0316  0.3053
12676TIP3    H137964   4.163   3.202   0.672  1.7091  1.4162  0.2310
12676TIP3    H237965   4.107   3.238   0.536  0.0392 -1.1947  0.1844
12677TIP3   OH237966   0.335   0.166   5.239  0.1326 -0.3377 -0.0815
12677TIP3    H137967   0.310   0.188   5.329  0.1276 -0.7836  0.0269
12677TIP3    H237968   0.262   0.198   5.186 -0.7961 -1.8677  0.2540
12678TIP3   OH237969   8.373   5.484   4.429 -0.3885 -0.1632  0.0272
12678TIP3    H137970   8.405   5.547   4.363  0.9367  1.0332  1.7738
12678TIP3    H237971   8.322   5.536   4.490 -0.5294 -1.0565  0.6847
12679TIP3   OH237972   2.541   0.729   3.718 -0.0468 -0.0286 -0.6067
12679TIP3    H137973   2.469   0.770   3.671 -0.9964 -0.8111  0.1311
12679TIP3    H237974   2.503   0.648   3.754  0.7455  0.3370  1.1371
12680TIP3   OH237975   2.069   1.750   1.200  0.1896  0.1485  0.2183
12680TIP3    H137976   1.993   1.727   1.254  0.8132 -0.0707  1.0098
12680TIP3    H237977   2.141   1.761   1.263  0.4292  2.0673 -0.3530
12681TIP3   OH237978   8.112   6.283   4.576  0.3090 -0.4627  0.1590
12681TIP3    H137979   8.095   6.206   4.521 -0.3212 -0.5376  0.4576
12681TIP3    H237980   8.028   6.327   4.583  1.1899  1.7261 -2.1639
12682TIP3   OH237981   8.073   2.331   5.245  0.7928  0.1829  0.0654
12682TIP3    H137982   8.087   2.326   5.340 -1.0174  0.0308  0.3324
12682TIP3    H237983   8.104   2.247   5.211 -0.8421 -0.7597  0.8383
12683TIP3   OH237984   5.845   6.055   4.325  0.0205  0.5534 -0.5303
12683TIP3    H137985   5.792   6.063   4.404 -1.2321 -1.0487 -1.1835
12683TIP3    H237986   5.936   6.062   4.356 -0.3096 -3.1487  1.4959
12684TIP3   OH237987   1.351   0.631   4.328  0.0534  0.3120  0.0887
12684TIP3    H137988   1.277   0.613   4.270 -1.6520 -0.8712  2.5042
12684TIP3    H237989   1.368   0.547   4.370  1.8653  0.9197  0.5933
12685TIP3   OH237990   8.468   5.383   3.723 -0.2071  0.0685 -0.2905
12685TIP3    H137991   8.503   5.441   3.655 -0.2307  0.0571 -0.3126
12685TIP3    H237992   8.471   5.435   3.803 -0.9335  0.3593 -0.4524
12686TIP3   OH237993   1.104   7.072   4.443 -0.0173  0.4121  0.4169
12686TIP3    H137994   1.104   7.110   4.355  1.3783  0.4894  0.4479
12686TIP3    H237995   1.023   7.105   4.482 -0.4252  0.7431 -0.6792
12687TIP3   OH237996   0.017   6.230   4.696 -0.2942  0.3481 -0.6136
12687TIP3    H137997  -0.060   6.197   4.742 -0.1047 -0.4301 -0.8477
12687TIP3    H237998   0.081   6.246   4.765 -0.8690  1.5821 -0.3539
12688TIP3   OH237999   0.851   5.352   4.705  0.0566 -0.0253  0.5697
12688TIP3    H138000   0.944   5.369   4.721  0.1743 -0.1391  0.0004
12688TIP3    H238001   0.808   5.381   4.785  0.3891  1.7048  0.1517
12689TIP3   OH238002   5.784   7.099   4.804  0.1068  0.7994  0.1153
12689TIP3    H138003   5.746   7.123   4.889  0.4277  1.0848  0.1774
12689TIP3    H238004   5.834   7.175   4.778 -1.4857  1.4082 -1.2072
12690TIP3   OH238005   7.091   5.778   4.003  0.4965  0.1315  0.3694
12690TIP3    H138006   7.175   5.745   3.971 -0.2405 -2.9787  1.4441
12690TIP3    H238007   7.096   5.767   4.098 -1.3276 -0.7082  0.3987
12691TIP3   OH238008   0.941   7.499   2.916 -0.0504 -0.0405 -0.0392
12691TIP3    H138009   0.936   7.586   2.876 -2.5029 -0.3546 -0.5220
12691TIP3    H238010   0.853   7.463   2.906  0.7204 -2.2890  0.8440
12692TIP3   OH238011   0.387   6.653   2.366 -0.0435 -0.3066 -0.0954
12692TIP3    H138012   0.473   6.656   2.408  0.4019 -0.2857 -0.9991
12692TIP3    H238013   0.344   6.577   2.405  0.0880  0.1324  0.9208
12693TIP3   OH238014   1.056   5.188   3.998 -0.3656  0.6211  0.2969
12693TIP3    H138015   1.130   5.136   4.028 -1.7619 -1.1999  0.6566
12693TIP3    H238016   0.979   5.141   4.029 -1.6871  2.4751 -0.0884
12694TIP3   OH238017   1.371   7.282   2.903  0.0619 -0.4881  0.1918
12694TIP3    H138018   1.278   7.280   2.881 -0.1326  2.0566  0.6602
12694TIP3    H238019   1.415   7.306   2.822  0.2212 -0.7849  0.1906
12695TIP3   OH238020   6.039   5.677   3.818 -0.5210  0.3559  0.0194
12695TIP3    H138021   6.050   5.679   3.913  1.5335  0.2135 -0.1875
12695TIP3    H238022   6.025   5.768   3.794  0.6070  0.6117  0.2993
12696TIP3   OH238023   4.438   6.635   4.114  0.2020  0.1263 -0.5760
12696TIP3    H138024   4.432   6.541   4.133 -1.1946  0.3260 -0.0036
12696TIP3    H238025   4.484   6.639   4.030  1.0930 -1.0233 -0.1528
12697TIP3   OH238026   7.034   6.047   3.901 -0.4227  0.1485 -0.9341
12697TIP3    H138027   6.999   6.100   3.973 -0.6908 -0.4937 -0.5849
12697TIP3    H238028   7.058   5.964   3.943  0.8239  0.3235 -1.3119
12698TIP3   OH238029   6.368   7.299   2.947  0.5580  0.0367  0.1673
12698TIP3    H138030   6.432   7.370   2.941  0.2002  0.2940 -0.7146
12698TIP3    H238031   6.378   7.265   3.035  3.0125 -0.9646 -0.4542
12699TIP3   OH238032   8.400   6.455   4.201 -0.3238 -0.4527  0.5154
12699TIP3    H138033   8.400   6.399   4.278 -0.3370 -0.0323  0.8256
12699TIP3    H238034   8.316   6.436   4.158  0.2653 -1.6702 -0.1322
12700TIP3   OH238035   8.154   5.341   2.851 -0.4797  0.4181 -0.0743
12700TIP3    H138036   8.220   5.354   2.919  1.8670 -0.9931 -1.9717
12700TIP3    H238037   8.150   5.424   2.805  0.1234  0.4648 -0.0474
12701TIP3   OH238038   8.452   7.168   2.545 -0.0554  0.7388  0.1373
12701TIP3    H138039   8.499   7.248   2.524  3.2205 -1.4607 -1.4084
12701TIP3    H238040   8.509   7.122   2.607 -0.0149 -2.0581 -1.8464
12702TIP3   OH238041   0.832   5.592   6.673 -0.1760 -0.2673  0.4199
12702TIP3    H138042   0.745   5.562   6.645 -0.0258 -0.1932 -0.1331
12702TIP3    H238043   0.879   5.512   6.696 -0.3795 -0.3101  0.6934
12703TIP3   OH238044   0.915   5.725   4.500 -0.5599  0.6466 -0.1923
12703TIP3    H138045   0.934   5.752   4.590 -0.0281  0.9970 -0.4086
12703TIP3    H238046   0.966   5.645   4.488  0.4274  1.3202 -0.6109
12704TIP3   OH238047   0.968   6.621   3.962 -0.5245 -0.0862  0.0151
12704TIP3    H138048   1.060   6.640   3.941 -0.5018  0.5845  0.6973
12704TIP3    H238049   0.972   6.540   4.011 -0.2515  0.1768  0.4322
12705TIP3   OH238050   6.149   4.716   5.294  0.1004  0.1499 -0.5380
12705TIP3    H138051   6.178   4.627   5.273  0.0734  0.3610 -1.4962
12705TIP3    H238052   6.230   4.765   5.309  0.1077 -0.0844  0.2131
12706TIP3   OH238053   7.013   4.345   5.624 -0.2802 -0.6224  0.2788
12706TIP3    H138054   7.007   4.319   5.716  0.4546 -0.3062  0.4183
12706TIP3    H238055   7.086   4.293   5.589 -0.3039 -0.4542 -0.0245
12707TIP3   OH238056   7.013   6.523   3.518 -0.2154 -0.5031  0.1073
12707TIP3    H138057   6.966   6.579   3.579  0.0563 -0.9852  0.7641
12707TIP3    H238058   7.073   6.472   3.573  2.1453  1.1548 -0.8636
12708TIP3   OH238059   2.792   6.900   4.726  0.3420 -0.1544 -0.0642
12708TIP3    H138060   2.778   6.845   4.803  0.3600 -0.7482 -0.4734
12708TIP3    H238061   2.835   6.979   4.759 -0.9833  0.2481  0.7505
12709TIP3   OH238062   6.984   6.773   4.371  0.1391  0.4554  0.8042
12709TIP3    H138063   6.920   6.747   4.436  0.0549 -0.8025  0.2562
12709TIP3    H238064   6.934   6.782   4.290  0.5402  0.1127  0.5135
12710TIP3   OH238065   0.058   5.659   5.235  0.1064  0.1007 -0.4528
12710TIP3    H138066   0.059   5.582   5.292 -1.7719 -1.2111 -2.1129
12710TIP3    H238067   0.015   5.727   5.288  0.1525 -0.4995  0.3754
12711TIP3   OH238068   7.120   2.412   5.548 -0.4688  0.3139 -0.3378
12711TIP3    H138069   7.025   2.411   5.537 -0.6140 -2.2466  0.9083
12711TIP3    H238070   7.135   2.451   5.634 -0.4964 -0.9130  0.2322
12712TIP3   OH238071   8.172   6.459   3.396 -0.1799 -0.1294 -0.1730
12712TIP3    H138072   8.244   6.427   3.342 -0.2237  1.0162 -0.9244
12712TIP3    H238073   8.093   6.427   3.351 -0.1544 -1.6811  0.8396
12713TIP3   OH238074   1.495   0.751   5.801 -0.4917 -0.3150  0.0760
12713TIP3    H138075   1.511   0.786   5.714  0.7681  0.2170  0.5146
12713TIP3    H238076   1.582   0.729   5.835 -0.8218  0.8508  1.7622
12714TIP3   OH238077   6.513   6.730   2.818  0.5984  0.4989  0.5337
12714TIP3    H138078   6.422   6.731   2.791  1.3135  0.3502 -2.0633
12714TIP3    H238079   6.534   6.821   2.837  0.0277  0.6082  0.6326
12715TIP3   OH238080   5.261   7.226   4.605  0.0429  0.1842  0.4232
12715TIP3    H138081   5.246   7.136   4.575  0.1582 -0.3459  1.8658
12715TIP3    H238082   5.317   7.265   4.538 -1.4327 -0.2650 -1.0906
12716TIP3   OH238083   8.221   3.886   5.298 -0.9859  0.0003 -0.6322
12716TIP3    H138084   8.170   3.868   5.377  0.2686  1.4862  0.5532
12716TIP3    H238085   8.155   3.905   5.231 -2.0235  0.9180  0.6168
12717TIP3   OH238086   0.484   6.332   3.426  0.2819 -0.5435 -0.4024
12717TIP3    H138087   0.408   6.302   3.376  0.6829  0.7938 -1.8581
12717TIP3    H238088   0.472   6.294   3.513 -1.6823 -0.9415 -0.8212
12718TIP3   OH238089   2.447   7.179   4.173 -0.3199 -0.2335 -0.2678
12718TIP3    H138090   2.512   7.217   4.232  0.8110 -2.2833 -0.1605
12718TIP3    H238091   2.397   7.118   4.228 -1.4231  0.2663 -0.6878
12719TIP3   OH238092   7.192   5.347   4.451  0.3595 -0.3817 -0.4254
12719TIP3    H138093   7.181   5.257   4.482  0.2185 -0.0614  0.4738
12719TIP3    H238094   7.169   5.401   4.527  0.8001  0.4061 -0.8504
12720TIP3   OH238095   6.433   6.497   4.196  0.0351 -0.4570  0.2097
12720TIP3    H138096   6.394   6.569   4.147  0.4130  1.5869  2.8272
12720TIP3    H238097   6.528   6.510   4.185  0.1003 -0.8994  0.2351
12721TIP3   OH238098   7.382   6.387   3.955 -0.0547 -0.3630 -0.2593
12721TIP3    H138099   7.314   6.355   3.896  0.4606  1.6788 -2.0185
12721TIP3    H238100   7.464   6.357   3.916  0.3210  1.4930 -0.9460
12722TIP3   OH238101   8.233   5.942   3.276 -0.1179  0.5374  0.6563
12722TIP3    H138102   8.279   5.930   3.359 -1.8821 -0.0838  1.5725
12722TIP3    H238103   8.201   6.032   3.280 -0.8520  0.2648  0.9946
12723TIP3   OH238104   8.483   7.256   3.864  0.6942  0.1280 -0.0906
12723TIP3    H138105   8.484   7.211   3.780  1.3266  0.3935 -0.2265
12723TIP3    H238106   8.405   7.221   3.909  1.1460 -1.0486 -0.2105
12724TIP3   OH238107   8.357   5.345   3.025 -0.1160 -0.2946 -0.3595
12724TIP3    H138108   8.346   5.410   3.095  1.7141  1.2510 -1.4747
12724TIP3    H238109   8.411   5.276   3.064  0.9297  0.5787 -0.2447
12725TIP3   OH238110   6.200   6.303   5.747 -0.0456  0.2774  0.5767
12725TIP3    H138111   6.159   6.350   5.673  1.6824  1.2706  0.2129
12725TIP3    H238112   6.177   6.356   5.824  1.9280  1.8065  0.1634
12726TIP3   OH238113   6.579   6.822   4.327 -0.3179 -0.1502  0.1887
12726TIP3    H138114   6.562   6.906   4.371 -0.4720 -0.0390 -0.0867
12726TIP3    H238115   6.555   6.837   4.236  1.8413  0.2141 -0.3472
12727TIP3   OH238116   7.486   7.525   4.397  0.2834  0.3794 -0.5831
12727TIP3    H138117   7.460   7.617   4.404 -0.8125  0.0434 -0.1548
12727TIP3    H238118   7.571   7.528   4.353  0.4056  1.6167 -0.3009
12728TIP3   OH238119   7.448   6.253   4.891 -0.0105 -0.2102  0.1151
12728TIP3    H138120   7.481   6.341   4.876 -0.1422  0.1304  1.7257
12728TIP3    H238121   7.412   6.226   4.807  1.7942  0.5098 -0.9331
12729TIP3   OH238122   0.316   6.623   3.433 -0.0228  0.1138 -0.0966
12729TIP3    H138123   0.377   6.676   3.484  0.3912 -0.6407  0.1881
12729TIP3    H238124   0.253   6.591   3.497 -1.3790  1.7901 -0.5467
12730TIP3   OH238125   0.962   7.283   5.088 -0.1137 -0.6429 -0.0746
12730TIP3    H138126   1.046   7.259   5.049  0.1000 -1.4583  0.8617
12730TIP3    H238127   0.985   7.331   5.168 -0.5487  0.1427 -0.4067
12731TIP3   OH238128   7.104   6.699   2.529 -0.0642  0.1987 -0.0276
12731TIP3    H138129   7.064   6.613   2.545 -0.6954  0.6475  0.8356
12731TIP3    H238130   7.081   6.751   2.606  1.6047  0.6816  0.1559
12732TIP3   OH238131   7.677   5.872   4.142  0.0415  0.2798  0.1635
12732TIP3    H138132   7.595   5.827   4.120  1.0845 -1.5819 -0.0359
12732TIP3    H238133   7.734   5.854   4.067  1.1871  0.0998  1.0652
12733TIP3   OH238134   6.906   5.677   5.438 -0.1883 -0.2719  0.3805
12733TIP3    H138135   6.922   5.769   5.458  0.0694 -0.3198  0.3935
12733TIP3    H238136   6.875   5.639   5.520 -2.2419  0.2538 -0.1292
12734TIP3   OH238137   1.396   7.828   2.616 -0.0178  0.3368  0.0379
12734TIP3    H138138   1.426   7.896   2.556 -0.3492  0.7610  0.3478
12734TIP3    H238139   1.432   7.853   2.701  1.4537 -0.9103 -0.2019
12735TIP3   OH238140   6.800   7.611   4.602  0.0125 -0.0637  0.1110
12735TIP3    H138141   6.831   7.553   4.532  0.2385  0.5717 -0.3248
12735TIP3    H238142   6.819   7.563   4.682 -1.5918 -1.4289 -0.3122
12736TIP3   OH238143   8.081   6.118   3.639  0.1495 -0.1260  0.6138
12736TIP3    H138144   8.050   6.128   3.549  0.8585 -2.2684  0.0824
12736TIP3    H238145   8.070   6.204   3.679 -0.4053  0.7821 -1.4505
12737TIP3   OH238146   8.305   7.569   3.777  0.4366 -0.2303 -0.1751
12737TIP3    H138147   8.375   7.522   3.823  1.8381  2.5628  0.6583
12737TIP3    H238148   8.238   7.582   3.844  0.9107  0.6605  0.1364
12738TIP3   OH238149   6.966   4.869   4.293 -0.2388 -0.1149 -0.8092
12738TIP3    H138150   6.931   4.786   4.326 -0.7907  0.7191  0.7642
12738TIP3    H238151   7.013   4.845   4.213  0.9807 -2.2023  0.4654
12739TIP3   OH238152   6.917   5.857   3.715  0.9455  0.0409  0.3603
12739TIP3    H138153   6.944   5.937   3.760 -0.6880  0.7354  0.1320
12739TIP3    H238154   6.875   5.804   3.783  0.4630  0.1381  0.1413
12740TIP3   OH238155   1.100   0.286   5.008  0.5552  0.1458  0.1554
12740TIP3    H138156   1.164   0.331   5.062 -0.4938  0.4696  1.1650
12740TIP3    H238157   1.093   0.198   5.047  2.1533 -0.7145 -1.4358
12741TIP3   OH238158   7.441   7.102   4.341 -0.1449  0.3550 -0.1243
12741TIP3    H138159   7.369   7.039   4.345 -0.4914  0.6351 -1.7022
12741TIP3    H238160   7.431   7.154   4.420 -0.0807 -1.3270  1.0108
12742TIP3   OH238161   0.213   0.596   3.106  0.5070  0.1331 -0.4576
12742TIP3    H138162   0.251   0.536   3.041  2.9756  1.6888 -0.4994
12742TIP3    H238163   0.141   0.639   3.060 -1.2641 -2.6825 -0.4564
12743TIP3   OH238164  -0.019   7.076   3.037  0.1019 -0.0095  0.1261
12743TIP3    H138165   0.070   7.093   3.068  0.5428  0.3287 -1.3158
12743TIP3    H238166  -0.013   6.991   2.993 -0.3081 -0.0225  0.0912
12744TIP3   OH238167   1.690   1.731   2.864  0.2767 -0.3551  0.4451
12744TIP3    H138168   1.659   1.737   2.774 -1.7354  0.7264  1.1787
12744TIP3    H238169   1.754   1.659   2.863  0.0678 -0.5406 -1.7579
12745TIP3   OH238170   3.683   0.877   1.940 -0.3885  0.2233 -0.1856
12745TIP3    H138171   3.769   0.836   1.944 -1.4471 -2.2757 -1.9271
12745TIP3    H238172   3.695   0.955   1.886  0.0637 -2.1553 -3.6870
12746TIP3   OH238173   7.677   4.520   4.888 -0.3156  0.3742 -0.1207
12746TIP3    H138174   7.695   4.449   4.949  0.7762  1.4059  0.7739
12746TIP3    H238175   7.736   4.504   4.814 -0.0863  0.3391  0.0701
12747TIP3   OH238176   0.702   0.486   4.109 -0.2484 -0.4668  0.0274
12747TIP3    H138177   0.699   0.475   4.014  0.6830 -0.4052 -0.0101
12747TIP3    H238178   0.610   0.494   4.135 -0.6218 -2.2190 -0.6674
12748TIP3   OH238179   2.295   0.447   4.751  0.1607  0.8291 -0.4678
12748TIP3    H138180   2.389   0.465   4.742 -0.0420  1.5342 -1.2661
12748TIP3    H238181   2.279   0.452   4.845  1.2533 -1.0637 -0.1591
12749TIP3   OH238182   6.069   7.123   3.331 -0.1101  0.1552 -0.3070
12749TIP3    H138183   6.151   7.082   3.357  0.4868  1.1755 -0.5433
12749TIP3    H238184   6.015   7.121   3.410 -0.8251 -2.8270 -0.8369
12750TIP3   OH238185   6.102   6.508   2.310 -0.6604 -0.1904 -0.5698
12750TIP3    H138186   6.132   6.417   2.312 -1.7728 -0.5526  0.8513
12750TIP3    H238187   6.040   6.514   2.383 -0.7270  1.6645 -0.7564
12751TIP3   OH238188   7.040   5.249   5.256 -0.3931 -0.2580  0.2810
12751TIP3    H138189   7.128   5.214   5.241 -0.2962  0.3714 -0.6382
12751TIP3    H238190   7.048   5.343   5.238 -1.1718 -0.1346  0.5479
12752TIP3   OH238191   6.812   4.667   4.403  0.3206 -0.7996  0.1101
12752TIP3    H138192   6.721   4.697   4.403 -0.3031 -2.6775  0.1103
12752TIP3    H238193   6.809   4.579   4.367  1.9929 -1.3505  1.2723
12753TIP3   OH238194   8.473   6.429   2.177 -0.2529  0.0817  0.3099
12753TIP3    H138195   8.399   6.373   2.152 -1.3308  1.1543  1.0082
12753TIP3    H238196   8.496   6.474   2.096 -0.6657  0.0734  0.1823
12754TIP3   OH238197   6.277   6.418   3.716 -0.3589 -0.2227 -0.2860
12754TIP3    H138198   6.315   6.344   3.668  0.0445  0.6673 -1.3528
12754TIP3    H238199   6.349   6.451   3.770  0.2684  1.1703 -1.9549
12755TIP3   OH238200   0.109   5.510   4.736 -0.1159 -0.0405  0.2515
12755TIP3    H138201   0.122   5.417   4.758  0.5084 -0.6096 -2.2514
12755TIP3    H238202   0.184   5.531   4.679 -0.9790  1.6001 -0.3048
12756TIP3   OH238203   0.324   5.507   3.844  0.4589  0.4668 -0.5381
12756TIP3    H138204   0.413   5.474   3.849  1.1177  2.0883 -1.0218
12756TIP3    H238205   0.269   5.429   3.839  1.7492 -0.5782  1.1397
12757TIP3   OH238206   1.792   2.020   3.858  0.6107  0.2820 -0.6685
12757TIP3    H138207   1.721   1.969   3.897 -0.9915  0.7193 -2.8779
12757TIP3    H238208   1.829   1.962   3.791  2.9296 -0.2519  1.0452
12758TIP3   OH238209   6.401   5.263   4.468  0.0226 -0.0178  0.2559
12758TIP3    H138210   6.451   5.322   4.524  1.3881 -0.8414 -0.0630
12758TIP3    H238211   6.450   5.181   4.470  0.0826 -0.0752 -2.1101
12759TIP3   OH238212   0.608   5.291   6.142  0.1565 -0.6080 -0.7204
12759TIP3    H138213   0.525   5.328   6.174  0.7952  0.3158 -0.1142
12759TIP3    H238214   0.664   5.287   6.219  1.0357 -0.2551 -1.3289
12760TIP3   OH238215   0.818   0.554   5.442  0.3229 -0.6543 -0.4101
12760TIP3    H138216   0.907   0.538   5.411  0.0776 -1.1893 -0.8506
12760TIP3    H238217   0.773   0.593   5.368  0.3042  0.0076 -0.0489
12761TIP3   OH238218   7.734   6.356   3.194  0.1893  0.1164  0.2026
12761TIP3    H138219   7.724   6.437   3.244  0.1787  0.9499 -1.1165
12761TIP3    H238220   7.647   6.336   3.162  0.3889  0.2205 -0.4211
12762TIP3   OH238221   7.194   4.588   5.427 -0.2731 -0.5805  0.1746
12762TIP3    H138222   7.221   4.498   5.406  1.4602  0.1932 -1.0251
12762TIP3    H238223   7.192   4.590   5.523  1.2471 -1.4768  0.2455
12763TIP3   OH238224   6.743   6.699   4.736  0.3704  0.1011  0.0821
12763TIP3    H138225   6.679   6.659   4.794  1.2178  0.6211  1.3939
12763TIP3    H238226   6.727   6.793   4.743  0.1407  0.1429 -0.9224
12764TIP3   OH238227   0.675   7.628   2.553  0.3115  0.6181 -0.0248
12764TIP3    H138228   0.760   7.659   2.584 -0.0232  0.2199  1.3054
12764TIP3    H238229   0.667   7.665   2.465  1.4451  1.4328  0.2031
12765TIP3   OH238230   7.773   5.977   2.613  0.5135  0.0609 -0.0925
12765TIP3    H138231   7.743   5.984   2.523  2.0601 -2.3975 -0.8412
12765TIP3    H238232   7.704   5.927   2.657 -0.9229  2.4533  0.4823
12766TIP3   OH238233   0.069   6.979   2.704 -0.0513  0.0629 -0.9136
12766TIP3    H138234   0.018   6.935   2.771 -0.8327  1.1161 -0.8076
12766TIP3    H238235   0.129   6.912   2.671  0.3038 -0.4683  0.7930
12767TIP3   OH238236   6.896   5.588   4.401 -0.5602  0.0168 -0.4167
12767TIP3    H138237   6.815   5.619   4.442 -0.1803 -1.0767  1.2067
12767TIP3    H238238   6.956   5.574   4.474  1.2935  1.3106 -1.6474
12768TIP3   OH238239   3.061   1.068   2.747 -0.1262 -0.4010 -0.5739
12768TIP3    H138240   3.052   1.020   2.829 -1.1966  0.6051 -0.0836
12768TIP3    H238241   3.131   1.131   2.763  2.9991 -3.3987 -2.0238
12769TIP3   OH238242   2.387   0.406   3.087 -0.1111  0.4564  0.2533
12769TIP3    H138243   2.339   0.432   3.165 -0.7426  2.5123 -0.8077
12769TIP3    H238244   2.368   0.312   3.077 -1.6853  0.6461  1.3873
12770TIP3   OH238245   6.550   5.565   5.340 -0.1232 -0.5619  0.4529
12770TIP3    H138246   6.567   5.471   5.337  0.1741 -0.5413  1.3821
12770TIP3    H238247   6.458   5.574   5.314 -0.1506 -1.1009  0.3737
12771TIP3   OH238248   1.556   6.484   2.614 -0.2013  0.4426 -0.0411
12771TIP3    H138249   1.479   6.536   2.637 -0.1296 -0.0587  1.3775
12771TIP3    H238250   1.583   6.518   2.529 -1.3321  1.3712 -0.0439
12772TIP3   OH238251   0.924   6.597   4.728  0.4816  0.5203  0.6995
12772TIP3    H138252   0.875   6.674   4.755  0.7684  1.1653 -0.5951
12772TIP3    H238253   0.972   6.624   4.650 -1.4818 -1.6658 -1.3893
12773TIP3   OH238254   0.168   4.568   4.309 -0.6300  0.5835 -0.1204
12773TIP3    H138255   0.221   4.646   4.293 -1.1336  0.7343 -1.1527
12773TIP3    H238256   0.215   4.498   4.264 -0.0441  0.2425  1.0233
12774TIP3   OH238257   6.818   6.483   5.035 -0.0121 -0.5460 -0.4567
12774TIP3    H138258   6.889   6.426   5.005  2.5472  1.6590  1.1934
12774TIP3    H238259   6.778   6.435   5.107  2.3170 -0.2168  1.1207
12775TIP3   OH238260   2.704   1.085   2.904 -0.1555 -0.7314 -0.3594
12775TIP3    H138261   2.776   1.088   2.841  0.3402  1.4396  0.2589
12775TIP3    H238262   2.670   0.996   2.897  2.9092 -1.9687 -0.2873
12776TIP3   OH238263   7.882   6.867   2.599  0.4820  0.3229  0.1731
12776TIP3    H138264   7.811   6.858   2.662  0.5245  0.4907  0.2438
12776TIP3    H238265   7.893   6.961   2.588  0.4518  0.2962 -0.1101
12777TIP3   OH238266   6.609   6.984   4.728 -0.4707  0.1119  0.1916
12777TIP3    H138267   6.561   6.901   4.727  0.1985 -0.2772 -0.6128
12777TIP3    H238268   6.594   7.022   4.642  0.6841 -0.0454 -0.0997
12778TIP3   OH238269   6.351   6.625   4.972  0.4798  0.2462 -0.4521
12778TIP3    H138270   6.309   6.619   4.886  0.1519 -0.5275 -0.2457
12778TIP3    H238271   6.438   6.587   4.960  0.4236  0.1124 -0.4358
12779TIP3   OH238272   2.514   2.258   2.179  0.3391  0.3282  0.1116
12779TIP3    H138273   2.566   2.287   2.103 -0.6648  0.1062 -0.6729
12779TIP3    H238274   2.474   2.338   2.212 -0.1852  0.2470 -0.3292
12780TIP3   OH238275   0.639   5.868   5.154  0.1786  0.4759 -0.1433
12780TIP3    H138276   0.626   5.944   5.097 -1.9540  1.1438  1.1752
12780TIP3    H238277   0.607   5.794   5.102 -0.2652  0.8603 -0.4257
12781TIP3   OH238278   6.366   7.067   4.834  0.0943  0.3337  0.2735
12781TIP3    H138279   6.452   7.085   4.796  0.0213  0.7175  0.2845
12781TIP3    H238280   6.331   7.154   4.855  0.3583  0.1008  1.7086
12782TIP3   OH238281   8.468   5.813   2.878 -0.0907 -0.2325  1.1164
12782TIP3    H138282   8.503   5.745   2.936 -0.2855 -0.1555  1.3240
12782TIP3    H238283   8.454   5.769   2.795  1.3591 -0.0596  0.7617
12783TIP3   OH238284   0.946   7.751   2.236  0.2701  0.0855  0.2986
12783TIP3    H138285   0.974   7.842   2.230 -1.4671  0.6750  0.7374
12783TIP3    H238286   1.027   7.702   2.250  1.1691  1.6086  0.5900
12784TIP3   OH238287   7.753   5.902   6.149  0.2483  0.1657 -0.0878
12784TIP3    H138288   7.787   5.887   6.061  0.1183  0.1787 -0.1405
12784TIP3    H238289   7.658   5.905   6.138  0.2355  0.2315  0.0433
12785TIP3   OH238290   0.503   4.815   4.594 -0.0275 -0.2498 -0.2360
12785TIP3    H138291   0.576   4.772   4.638 -0.4372 -1.1395 -0.4077
12785TIP3    H238292   0.544   4.872   4.529  0.5556  0.6242  0.8851
12786TIP3   OH238293   7.394   6.082   5.102  0.3171 -0.1511 -0.1602
12786TIP3    H138294   7.410   6.161   5.051 -2.7839 -0.0211 -0.9912
12786TIP3    H238295   7.355   6.020   5.041  0.2516 -1.3907  1.1012
12787TIP3   OH238296   0.665   0.904   5.343  0.0842  0.0902 -0.2283
12787TIP3    H138297   0.715   0.829   5.312  3.0459  2.0059 -0.3025
12787TIP3    H238298   0.666   0.896   5.438  1.0441  0.4194 -0.2063
12788TIP3   OH238299   0.104   5.928   3.608 -0.0815  0.2183  0.0642
12788TIP3    H138300   0.101   5.840   3.643  0.2658 -0.1856 -0.9014
12788TIP3    H238301   0.184   5.966   3.644 -1.0915  0.7315  1.8273
12789TIP3   OH238302   7.264   5.548   3.291 -0.0434  0.2390  0.3455
12789TIP3    H138303   7.335   5.501   3.335 -0.9336  0.3907  1.9578
12789TIP3    H238304   7.209   5.480   3.254  1.0238  0.1233 -1.0557
12790TIP3   OH238305   7.195   6.961   4.342 -0.6765  0.4109  0.2519
12790TIP3    H138306   7.183   6.943   4.248 -0.5626  1.5438  0.0086
12790TIP3    H238307   7.141   6.896   4.386  0.3744 -1.0355 -0.5588
12791TIP3   OH238308   0.582   1.535   5.717  0.1615 -0.2754  0.1090
12791TIP3    H138309   0.573   1.468   5.649 -0.5515 -0.3253  0.2485
12791TIP3    H238310   0.646   1.499   5.779 -0.1019 -0.7503  0.1019
12792TIP3   OH238311   2.321   0.537   3.756  0.0000  0.1743  0.0815
12792TIP3    H138312   2.347   0.527   3.847  0.8789  1.2844 -0.0382
12792TIP3    H238313   2.308   0.447   3.725  1.2880 -0.2917  0.8377
12793TIP3   OH238314   7.354   4.612   5.149  0.7936 -0.1114  0.5552
12793TIP3    H138315   7.348   4.517   5.140  2.1896 -0.2834  1.2568
12793TIP3    H238316   7.361   4.645   5.060 -0.8663 -0.5729  0.2480
12794TIP3   OH238317   0.606   5.959   4.557 -0.1665 -0.2717 -0.0309
12794TIP3    H138318   0.640   5.996   4.476 -1.6570  0.2953 -0.4139
12794TIP3    H238319   0.586   5.868   4.535 -0.0605 -0.2680 -0.1434
12795TIP3   OH238320   0.414   7.013   3.277  0.0868 -0.0303 -0.6430
12795TIP3    H138321   0.506   6.985   3.284 -0.0544 -0.9434 -2.0668
12795TIP3    H238322   0.367   6.953   3.335  0.1331 -1.0478 -1.6208
12796TIP3   OH238323   6.582   6.101   2.701 -0.1338  0.3301  0.3311
12796TIP3    H138324   6.652   6.049   2.742  1.0509 -0.0422 -2.0738
12796TIP3    H238325   6.524   6.036   2.662 -0.4540  0.7115  0.1737
12797TIP3   OH238326   7.316   5.744   2.776 -0.0358  0.0756 -0.3880
12797TIP3    H138327   7.249   5.808   2.752 -1.8581  0.0720  4.1035
12797TIP3    H238328   7.270   5.661   2.780  1.4026 -0.8410 -2.0906
12798TIP3   OH238329   6.384   7.196   3.215 -0.1370  0.1322 -0.7681
12798TIP3    H138330   6.340   7.135   3.157 -1.4708  1.7843 -1.5468
12798TIP3    H238331   6.473   7.203   3.181 -0.5323  0.0684 -1.8092
12799TIP3   OH238332   7.974   4.381   4.201  0.3428  0.6821 -0.7984
12799TIP3    H138333   7.964   4.348   4.290 -0.0561  0.7309 -0.8233
12799TIP3    H238334   8.043   4.448   4.207  0.7931  0.2078 -0.6552
12800TIP3   OH238335   7.560   5.405   3.171 -0.1450 -0.3481 -0.0672
12800TIP3    H138336   7.580   5.432   3.261  0.1219  0.0916 -0.2615
12800TIP3    H238337   7.596   5.316   3.165  1.5933  0.3742 -0.3574
12801TIP3   OH238338   2.070   2.402   2.879  0.2595 -0.3891  0.5743
12801TIP3    H138339   2.037   2.351   2.953  1.2206  0.3796  1.5417
12801TIP3    H238340   2.012   2.477   2.874 -0.0394 -0.6368  0.3031
12802TIP3   OH238341   8.198   5.008   4.780 -0.0408 -0.5438  0.3186
12802TIP3    H138342   8.114   5.021   4.824  0.1501 -2.7074  1.4004
12802TIP3    H238343   8.227   5.097   4.757 -1.6136  0.3953  1.8139
12803TIP3   OH238344   0.502   7.103   4.498 -0.4230  0.5451 -0.6915
12803TIP3    H138345   0.482   7.018   4.538  1.0061 -0.1646 -1.4130
12803TIP3    H238346   0.448   7.105   4.419 -1.1710  0.7316 -0.1803
12804TIP3   OH238347   7.703   7.474   3.213  0.0526 -0.4363  0.3710
12804TIP3    H138348   7.794   7.455   3.188 -0.8531 -2.0909 -1.8311
12804TIP3    H238349   7.651   7.438   3.141 -2.2896  1.7422  0.9176
12805TIP3   OH238350   0.075   0.038   6.536  0.6619 -0.3935  0.1715
12805TIP3    H138351   0.069   0.045   6.631  2.1413  1.4547  0.1489
12805TIP3    H238352   0.165   0.064   6.515  1.1094 -3.0658 -1.5479
12806TIP3   OH238353   7.340   3.135   3.540 -0.2794 -0.0167  0.1206
12806TIP3    H138354   7.426   3.168   3.568 -0.2632  1.2397 -1.3015
12806TIP3    H238355   7.286   3.139   3.619  0.4894  0.8880  0.6214
12807TIP3   OH238356   8.399   0.533   4.149  0.0450  0.4537  0.2699
12807TIP3    H138357   8.381   0.577   4.232 -0.5529  0.2802  0.2401
12807TIP3    H238358   8.312   0.522   4.109  0.2968  0.2307 -0.2195
12808TIP3   OH238359   6.456   2.344   0.128 -0.1079 -0.3613 -0.0820
12808TIP3    H138360   6.506   2.423   0.105 -1.5668  0.1016 -1.7427
12808TIP3    H238361   6.395   2.373   0.195  0.1268 -0.3425  0.1235
12809TIP3   OH238362   7.986   5.567   4.916 -0.4057 -0.1048 -0.2713
12809TIP3    H138363   8.012   5.607   4.999 -2.7246  0.2627  0.2874
12809TIP3    H238364   8.069   5.551   4.871  0.7642  1.9430  1.0586
12810TIP3   OH238365   3.070   7.338   6.483  0.6863  0.4707 -0.1390
12810TIP3    H138366   3.087   7.269   6.419  0.8781  0.5567 -0.1814
12810TIP3    H238367   3.056   7.416   6.431 -0.3433  0.3053 -0.1311
12811TIP3   OH238368   1.015   5.801   4.728 -0.1204  0.0307 -0.4247
12811TIP3    H138369   0.962   5.867   4.772  0.1357  0.9765 -1.5109
12811TIP3    H238370   1.095   5.796   4.780 -0.5944 -0.2021  0.2777
12812TIP3   OH238371   0.938   5.985   4.342  0.7610 -0.0659 -0.3332
12812TIP3    H138372   0.886   6.031   4.408  2.6954  0.1403  1.1011
12812TIP3    H238373   0.948   5.896   4.377  1.3905 -0.0996 -0.5868
12813TIP3   OH238374   3.462   0.812   4.960  0.2630  0.6460 -0.2601
12813TIP3    H138375   3.462   0.907   4.974 -0.0844  0.9783 -2.3163
12813TIP3    H238376   3.394   0.798   4.894 -0.2468 -1.1341  0.6294
12814TIP3   OH238377   7.783   7.663   3.408 -0.0878  0.2321 -0.3423
12814TIP3    H138378   7.864   7.707   3.384  0.8513 -1.7720 -0.9478
12814TIP3    H238379   7.748   7.630   3.325 -0.5263 -0.5637  0.1543
12815TIP3   OH238380   2.207   6.961   5.862  0.0177  0.1449  0.8228
12815TIP3    H138381   2.165   6.919   5.937  0.3813 -0.7210  0.5437
12815TIP3    H238382   2.165   6.922   5.786 -1.0744  1.7712  0.5728
12816TIP3   OH238383   5.725   0.914   5.297 -0.3381 -0.2976 -0.1692
12816TIP3    H138384   5.753   0.890   5.209 -0.9134 -3.5265  0.4517
12816TIP3    H238385   5.807   0.928   5.345 -0.0283  1.8475 -1.2628
12817TIP3   OH238386   2.204   7.906   4.761 -0.0348 -0.2666  0.2750
12817TIP3    H138387   2.240   7.946   4.682 -0.4884 -0.3896  0.0067
12817TIP3    H238388   2.270   7.921   4.828  1.0309 -1.4663 -0.4822
12818TIP3   OH238389   4.353  -0.014   4.890  0.2001  0.2127 -0.1300
12818TIP3    H138390   4.301   0.050   4.939 -0.7310 -0.0841 -0.7205
12818TIP3    H238391   4.442   0.023   4.890 -0.4078  1.7284 -0.8309
12819TIP3   OH238392   2.819   1.289   5.675 -0.5555 -0.1667  0.4349
12819TIP3    H138393   2.781   1.345   5.743 -1.3834 -0.4841  0.2435
12819TIP3    H238394   2.743   1.257   5.626  0.0107 -0.2795 -0.3725
12820TIP3   OH238395   2.585   7.004   3.103 -1.0934  0.1181  0.3624
12820TIP3    H138396   2.564   7.014   3.196 -0.1639  2.8204  0.3486
12820TIP3    H238397   2.621   7.090   3.078  0.8718 -1.3076 -1.9063
12821TIP3   OH238398   5.028   0.225   2.379  0.0851  0.7527 -0.2141
12821TIP3    H138399   4.991   0.136   2.380  0.4346  0.6037  1.7233
12821TIP3    H238400   4.963   0.278   2.425  0.6630  1.1669  0.1261
12822TIP3   OH238401   1.428   5.788   5.149 -0.3452  0.1660  0.0666
12822TIP3    H138402   1.390   5.701   5.142 -1.3092  0.4720  1.2913
12822TIP3    H238403   1.479   5.799   5.069  1.1676 -2.1673  0.6522
12823TIP3   OH238404   1.591   6.797   5.558  0.7477 -0.2650  0.1138
12823TIP3    H138405   1.529   6.747   5.506 -0.6408  1.3182  0.2011
12823TIP3    H238406   1.665   6.737   5.572 -1.4328 -2.7732  1.3872
12824TIP3   OH238407   4.389   0.718   3.107  0.4891  0.1296  0.4294
12824TIP3    H138408   4.348   0.778   3.045 -0.0534  0.3799  1.0219
12824TIP3    H238409   4.386   0.765   3.190  0.8299 -0.3763  0.7237
12825TIP3   OH238410   1.448   7.366   3.914 -0.7020  0.0353 -0.5622
12825TIP3    H138411   1.395   7.394   3.988 -2.2891  0.5394 -1.8609
12825TIP3    H238412   1.534   7.350   3.951 -1.9306 -1.5017  1.7228
12826TIP3   OH238413   7.391   3.928   0.063  0.1913  0.0289  0.9145
12826TIP3    H138414   7.477   3.946   0.100 -0.3290  2.3420  1.1107
12826TIP3    H238415   7.350   4.014   0.055 -1.6720 -0.9229 -0.2461
12827TIP3   OH238416   0.225   7.316   1.756 -0.4147 -0.3854 -0.0709
12827TIP3    H138417   0.177   7.240   1.724 -1.4891  0.1436  0.2741
12827TIP3    H238418   0.218   7.310   1.851  1.0195 -0.8233  0.0228
12828TIP3   OH238419   4.923   3.327   0.907  0.5340 -0.7414 -0.4478
12828TIP3    H138420   5.010   3.311   0.869 -0.1124 -1.0233 -1.8423
12828TIP3    H238421   4.909   3.254   0.968  1.6361 -0.2184  0.4443
12829TIP3   OH238422   2.012   7.647   2.882 -0.4757 -0.1067 -0.4697
12829TIP3    H138423   2.051   7.560   2.884 -2.7338 -1.1612 -0.0189
12829TIP3    H238424   1.991   7.666   2.974  3.0546  2.4037 -0.1045
12830TIP3   OH238425   4.248   3.494   1.111 -0.3341 -0.0124 -0.0850
12830TIP3    H138426   4.257   3.549   1.188  0.8719 -1.5951  0.9207
12830TIP3    H238427   4.335   3.457   1.097 -0.8848 -0.8723 -1.3505
12831TIP3   OH238428   6.173   4.573   0.545 -0.1047  0.2364  0.1624
12831TIP3    H138429   6.110   4.521   0.497  1.0558  0.0850 -1.2269
12831TIP3    H238430   6.258   4.547   0.510  0.6695  1.1671  1.2902
12832TIP3   OH238431   3.166   0.198   4.820 -0.3851  0.0262 -0.4454
12832TIP3    H138432   3.169   0.104   4.803  1.1902  0.1336 -0.8010
12832TIP3    H238433   3.194   0.238   4.739  0.2297  0.7556  0.1196
12833TIP3   OH238434   2.797   6.621   5.861  0.6310 -0.3354 -0.1421
12833TIP3    H138435   2.870   6.660   5.909 -0.7371 -0.1718  1.8475
12833TIP3    H238436   2.744   6.696   5.834 -0.9038 -0.6427  1.9016
12834TIP3   OH238437   1.719   6.593   3.974  0.2314 -0.3885  0.3415
12834TIP3    H138438   1.721   6.632   3.886 -1.7908 -0.1562  0.3869
12834TIP3    H238439   1.794   6.632   4.019  2.2253 -1.7098 -1.7693
12835TIP3   OH238440   5.406   1.401   2.875 -0.3889  0.2428 -0.2355
12835TIP3    H138441   5.355   1.403   2.956 -2.8140 -2.6112 -1.5999
12835TIP3    H238442   5.355   1.453   2.813 -0.5683 -0.8696 -1.0266
12836TIP3   OH238443   4.728   7.804   4.268 -0.2788  0.5201 -0.2604
12836TIP3    H138444   4.752   7.756   4.348 -0.1408  1.4465  0.2740
12836TIP3    H238445   4.703   7.891   4.300  1.3281  1.4221 -1.3644
12837TIP3   OH238446   4.273  -0.001   5.231 -0.5329  0.9783  0.0705
12837TIP3    H138447   4.186  -0.038   5.221  0.9272 -1.8175 -3.2846
12837TIP3    H238448   4.275   0.074   5.171 -0.6820  1.1655  0.2986
12838TIP3   OH238449   2.493   7.870   6.432  0.1840  0.0683  1.0367
12838TIP3    H138450   2.488   7.965   6.416  0.8601  0.5018  3.2353
12838TIP3    H238451   2.406   7.846   6.463  0.0034 -0.0398  0.4494
12839TIP3   OH238452   3.740   1.024   5.269  0.4803 -0.2556 -0.3473
12839TIP3    H138453   3.834   1.035   5.284  0.3475  2.3458 -1.0951
12839TIP3    H238454   3.706   0.990   5.352  1.8435  0.3394  0.4673
12840TIP3   OH238455   2.218   4.647   4.177  0.3430 -0.3292 -0.5116
12840TIP3    H138456   2.204   4.619   4.267  1.3952 -0.3830 -0.3602
12840TIP3    H238457   2.220   4.742   4.181  2.3427 -0.3551 -0.1574
12841TIP3   OH238458   4.696   0.538   6.435  0.2879  0.3056 -0.0945
12841TIP3    H138459   4.658   0.582   6.359  1.4481  0.5819 -0.5377
12841TIP3    H238460   4.757   0.602   6.472 -0.3596  0.2110  1.1456
12842TIP3   OH238461   5.212   0.928   6.429 -0.1176 -0.2009 -0.6725
12842TIP3    H138462   5.211   0.861   6.497  1.2994 -0.2821 -0.7261
12842TIP3    H238463   5.201   1.011   6.476  0.2591 -0.3052 -0.4047
12843TIP3   OH238464   6.251   4.459   0.113 -0.4145  0.2881 -0.0453
12843TIP3    H138465   6.218   4.540   0.075  0.6668  0.7204 -0.0997
12843TIP3    H238466   6.329   4.439   0.061 -0.8134 -0.9190 -0.1868
12844TIP3   OH238467   5.499   0.182   5.601 -0.5275  0.3910  0.0499
12844TIP3    H138468   5.466   0.272   5.604 -1.4850  0.1744 -2.3346
12844TIP3    H238469   5.578   0.184   5.654 -0.1968  2.7891 -0.4424
12845TIP3   OH238470   1.413   6.098   5.546 -0.1418  0.8069 -0.4979
12845TIP3    H138471   1.462   6.066   5.621 -0.3251  2.5877  0.4123
12845TIP3    H238472   1.393   6.020   5.495  0.5382 -0.3427  0.9671
12846TIP3   OH238473   2.487   6.912   6.867  0.3226 -0.2823 -0.0102
12846TIP3    H138474   2.561   6.961   6.829  0.7934  0.6291  2.0184
12846TIP3    H238475   2.511   6.901   6.959 -1.2268 -1.6405  0.2405
12847TIP3   OH238476   3.997   1.071   5.448  0.6799  0.0477  0.0407
12847TIP3    H138477   4.040   1.147   5.407  0.9351 -0.5114 -0.7408
12847TIP3    H238478   4.052   1.049   5.522 -0.1932  1.5533  1.1688
12848TIP3   OH238479   1.071   7.117   6.424  0.3160 -0.1718 -0.1999
12848TIP3    H138480   0.981   7.123   6.456 -0.0337 -0.4656 -1.1184
12848TIP3    H238481   1.088   7.023   6.414  0.7345 -0.1203  0.0047
12849TIP3   OH238482   4.434   6.565   6.241 -0.3297 -0.0315 -0.2305
12849TIP3    H138483   4.416   6.518   6.322  0.0472  0.5898  0.2240
12849TIP3    H238484   4.356   6.618   6.226 -0.7155 -0.7235 -0.6925
12850TIP3   OH238485   4.335   0.420   5.447  0.3323  0.8695  0.3888
12850TIP3    H138486   4.321   0.332   5.480  1.2214  0.1714 -1.0378
12850TIP3    H238487   4.359   0.472   5.524  0.5691 -0.3032  1.1074
12851TIP3   OH238488   4.492   1.871   5.543 -0.4435  0.2136 -0.1735
12851TIP3    H138489   4.558   1.940   5.530 -1.1971  0.9872  0.0143
12851TIP3    H238490   4.474   1.838   5.456 -0.0635  0.2352 -0.2625
12852TIP3   OH238491   6.706   3.013   0.401 -0.2458  0.8916 -0.5633
12852TIP3    H138492   6.800   3.025   0.392 -0.2886  0.8841 -1.0866
12852TIP3    H238493   6.668   3.080   0.344 -0.5354  0.2615 -1.1146
12853TIP3   OH238494   5.424   0.396   6.695 -0.1128  0.1002 -0.5414
12853TIP3    H138495   5.396   0.474   6.744 -0.8899  0.3219 -1.3393
12853TIP3    H238496   5.517   0.411   6.679  0.3533 -0.3238  1.5282
12854TIP3   OH238497   4.188   0.739   4.601  0.2590 -0.4060 -0.4629
12854TIP3    H138498   4.249   0.698   4.662  1.1509 -0.0257 -1.0904
12854TIP3    H238499   4.179   0.677   4.530 -2.8037 -2.0260  1.2203
12855TIP3   OH238500   5.453   2.287   5.958  0.5031  0.4549  0.1253
12855TIP3    H138501   5.501   2.205   5.958 -0.4503 -0.1127  0.0608
12855TIP3    H238502   5.383   2.274   6.022  0.5278  1.3229  0.3392
12856TIP3   OH238503   2.934   6.317   5.741  0.3714  0.1782 -0.7052
12856TIP3    H138504   2.903   6.397   5.782 -0.3137 -0.3325 -0.2126
12856TIP3    H238505   3.029   6.319   5.752  0.1606 -0.2405  1.4644
12857TIP3   OH238506   5.693   0.261   5.076  0.3540 -0.5947 -0.3338
12857TIP3    H138507   5.609   0.271   5.032  1.1048 -0.2412 -1.7061
12857TIP3    H238508   5.757   0.292   5.013  1.4845 -0.4107  0.8761
12858TIP3   OH238509   6.215   2.635   4.167  0.5621  0.0765  0.1255
12858TIP3    H138510   6.277   2.656   4.236  2.3287 -0.5110 -1.2301
12858TIP3    H238511   6.228   2.703   4.101  0.0302 -0.2735 -0.3459
12859TIP3   OH238512   4.344   2.203   5.399 -0.4208 -0.0617 -0.3203
12859TIP3    H138513   4.337   2.188   5.493  0.6335  1.7398  0.0655
12859TIP3    H238514   4.254   2.194   5.367 -0.9768  0.4588  1.0486
12860TIP3   OH238515   6.808   1.540   6.467  0.1750 -0.1911 -0.2204
12860TIP3    H138516   6.739   1.558   6.403 -0.0396 -2.3718 -0.6312
12860TIP3    H238517   6.820   1.445   6.464  0.4853 -0.3044  2.6219
12861TIP3   OH238518   1.940   7.445   3.681  0.1353  0.0771 -0.3167
12861TIP3    H138519   1.969   7.477   3.595 -1.4127  0.6307 -0.6566
12861TIP3    H238520   1.983   7.502   3.744  0.6347  0.1907 -0.7576
12862TIP3   OH238521   5.057   0.924   4.730 -0.3066 -0.8501 -0.1944
12862TIP3    H138522   4.995   0.872   4.678 -2.2032 -0.0135  1.1950
12862TIP3    H238523   5.086   0.864   4.799 -1.4200 -0.5274  0.5714
12863TIP3   OH238524   0.448   6.824   3.602  0.2188  0.1208 -0.5494
12863TIP3    H138525   0.523   6.808   3.659  0.1663 -2.6536 -1.1714
12863TIP3    H238526   0.381   6.860   3.659 -0.2635 -3.7395  1.4867
12864TIP3   OH238527   0.498   7.792   4.812  0.6048 -0.6508  0.4715
12864TIP3    H138528   0.517   7.703   4.780  1.6399 -0.3080  0.1059
12864TIP3    H238529   0.583   7.836   4.809 -0.3538  1.1253 -1.7471
12865TIP3   OH238530   5.130   1.172   5.180 -0.1572  0.2243 -0.2522
12865TIP3    H138531   5.077   1.170   5.100  1.0308  1.9972 -1.1216
12865TIP3    H238532   5.086   1.237   5.236  0.4177  0.8334 -0.4997
12866TIP3   OH238533   4.996   0.671   5.036  0.5101 -0.0309  0.0433
12866TIP3    H138534   4.945   0.750   5.021  0.0039 -0.1243  1.2267
12866TIP3    H238535   5.037   0.685   5.121 -1.7416 -2.1628  1.5481
12867TIP3   OH238536   2.076   7.943   6.192  0.3668  0.0115 -0.6684
12867TIP3    H138537   2.010   7.990   6.140 -1.8890 -0.8155  1.3538
12867TIP3    H238538   2.098   8.004   6.263  0.1890 -0.5372 -0.1400
12868TIP3   OH238539   4.483   0.567   2.569  0.0485 -0.4552 -0.1862
12868TIP3    H138540   4.549   0.630   2.598 -0.6040 -0.8950  2.3677
12868TIP3    H238541   4.453   0.602   2.485  1.7125  1.1117 -0.1808
12869TIP3   OH238542   2.201   7.860   5.710 -0.8892 -0.5587 -0.2269
12869TIP3    H138543   2.131   7.919   5.740 -0.4207  0.0909 -0.4054
12869TIP3    H238544   2.174   7.773   5.740 -1.2428 -0.1517  0.6292
12870TIP3   OH238545   2.266   6.927   3.490  0.1013 -0.1076 -0.0418
12870TIP3    H138546   2.250   7.007   3.540 -1.6625 -0.6390  0.2797
12870TIP3    H238547   2.184   6.911   3.444  0.5432 -1.5698 -0.3379
12871TIP3   OH238548   3.460   6.173   4.629 -0.2599  0.1276  0.5702
12871TIP3    H138549   3.419   6.218   4.703 -1.9750 -0.6678  0.1339
12871TIP3    H238550   3.420   6.213   4.552 -1.0938 -1.4554  0.1602
12872TIP3   OH238551   2.993   6.773   4.582 -0.3685 -0.3724 -0.3812
12872TIP3    H138552   2.928   6.809   4.641 -0.1968 -1.0698  0.2391
12872TIP3    H238553   2.943   6.740   4.507 -0.5866  0.4879 -0.6143
12873TIP3   OH238554   8.317   3.002   0.484  0.5691 -0.2391 -0.1825
12873TIP3    H138555   8.345   3.093   0.480  0.9317 -0.2638  1.5452
12873TIP3    H238556   8.332   2.968   0.396  2.5296  0.7579 -0.2555
12874TIP3   OH238557   7.884   2.960   0.894 -0.6812 -0.4442  0.0768
12874TIP3    H138558   7.794   2.988   0.913 -0.6814  0.1443 -0.7453
12874TIP3    H238559   7.903   2.999   0.809 -0.1495 -1.7566 -0.4082
12875TIP3   OH238560   4.578   0.206   3.752 -0.1591 -0.6755 -0.2711
12875TIP3    H138561   4.504   0.256   3.787 -0.0984  1.1949 -2.7401
12875TIP3    H238562   4.536   0.136   3.700 -0.2256 -2.8166  2.5188
12876TIP3   OH238563   6.745   4.346   0.734 -0.4403  0.2198  0.3897
12876TIP3    H138564   6.836   4.365   0.756 -0.1764  0.3934 -0.7989
12876TIP3    H238565   6.714   4.291   0.805  0.3614  0.7933  1.1972
12877TIP3   OH238566   5.772   0.679   5.559 -0.5171 -0.2523 -0.0394
12877TIP3    H138567   5.683   0.711   5.546 -0.4772 -0.0800  0.1229
12877TIP3    H238568   5.768   0.629   5.640 -0.5258 -0.4662 -0.1709
12878TIP3   OH238569   7.729   4.354   0.642 -0.3630 -0.3186  0.3965
12878TIP3    H138570   7.689   4.340   0.728 -1.6069 -0.7268 -0.2463
12878TIP3    H238571   7.673   4.418   0.599 -1.7143 -2.6698 -1.4246
12879TIP3   OH238572   4.945   0.592   4.246 -0.2106  0.0468  0.4617
12879TIP3    H138573   5.007   0.579   4.318 -0.9714 -1.7684  0.8039
12879TIP3    H238574   4.970   0.527   4.181 -0.6692  0.4713 -0.1428
12880TIP3   OH238575   1.637   2.937   0.627  0.1267  0.7707  0.5236
12880TIP3    H138576   1.664   3.020   0.666  0.8822  0.4693  0.6428
12880TIP3    H238577   1.718   2.890   0.613 -0.4777 -1.3277  3.5414
12881TIP3   OH238578   5.666   0.147   6.281  0.2365  0.6109 -0.4901
12881TIP3    H138579   5.633   0.227   6.322  1.1955  0.8313 -0.1217
12881TIP3    H238580   5.756   0.139   6.313  0.5738  0.0777 -1.5299
12882TIP3   OH238581   3.607   2.166   5.838 -0.7497 -0.2476 -0.1232
12882TIP3    H138582   3.633   2.258   5.848  0.2086 -0.5515  0.1286
12882TIP3    H238583   3.531   2.170   5.779 -1.0113  0.7466  0.2714
12883TIP3   OH238584   4.102   1.371   6.345 -0.4009 -0.4128 -0.2715
12883TIP3    H138585   4.029   1.366   6.407 -0.6687 -2.5942 -0.7446
12883TIP3    H238586   4.062   1.390   6.261 -0.1138  1.6136  0.0167
12884TIP3   OH238587   6.229   4.246   1.192 -0.5074 -0.0510  0.1154
12884TIP3    H138588   6.188   4.264   1.108  0.5768  0.6335 -0.2679
12884TIP3    H238589   6.209   4.154   1.209 -0.0456 -0.4192 -1.2817
12885TIP3   OH238590   1.616   7.713   3.876  0.0550  0.0970  0.1958
12885TIP3    H138591   1.581   7.644   3.821  0.0324  0.3684 -0.1347
12885TIP3    H238592   1.684   7.671   3.928  0.7230  0.0304 -0.7065
12886TIP3   OH238593   0.943   2.908   0.282  0.2558 -0.7486 -0.0637
12886TIP3    H138594   1.032   2.925   0.315  0.4307 -1.3269 -0.2331
12886TIP3    H238595   0.949   2.821   0.243 -0.1954 -0.4559 -0.7738
12887TIP3   OH238596   5.892   0.899   5.701 -0.3550  0.2449 -0.3206
12887TIP3    H138597   5.874   0.889   5.795  0.5309  0.4617 -0.1232
12887TIP3    H238598   5.858   0.819   5.661  0.8155 -0.6380  0.4095
12888TIP3   OH238599   1.115   7.795   4.239 -0.0426 -0.8043  0.2359
12888TIP3    H138600   1.122   7.888   4.262  1.8480 -0.7040 -0.6669
12888TIP3    H238601   1.112   7.794   4.144 -0.9176 -1.6269  0.2692
12889TIP3   OH238602   5.089   0.140   4.447 -0.3150  0.2628 -0.1050
12889TIP3    H138603   5.001   0.176   4.435 -0.6235 -0.1622  0.8529
12889TIP3    H238604   5.079   0.046   4.433  0.4856  0.5148 -2.5629
12890TIP3   OH238605   3.033   3.737   6.910  0.1418 -0.2803 -0.4527
12890TIP3    H138606   2.976   3.660   6.917 -0.0851 -0.0351  0.4411
12890TIP3    H238607   3.116   3.710   6.950  0.5472 -0.5282 -1.4529
12891TIP3   OH238608   0.908   5.810   6.096 -0.0246  0.3086 -0.2756
12891TIP3    H138609   0.928   5.742   6.033 -0.6606 -0.4454  0.3333
12891TIP3    H238610   0.815   5.799   6.115 -0.0295  1.0553  0.1629
12892TIP3   OH238611   8.450   3.711   1.268  0.2704  0.5447 -0.6314
12892TIP3    H138612   8.434   3.631   1.318  1.7816  0.4037 -0.3220
12892TIP3    H238613   8.371   3.764   1.279 -1.2919 -1.4728 -1.9590
12893TIP3   OH238614   6.813   4.537   0.389  0.5715 -0.2142  0.3858
12893TIP3    H138615   6.756   4.583   0.327  0.8085  0.6675  0.8156
12893TIP3    H238616   6.763   4.533   0.470  0.8580 -0.0347  0.5707
12894TIP3   OH238617   1.994   6.895   3.723  0.3743  0.1552  0.3427
12894TIP3    H138618   1.934   6.871   3.652 -0.4928 -0.7282  1.3711
12894TIP3    H238619   1.995   6.991   3.721  0.2413  0.1444 -0.7625
12895TIP3   OH238620   4.534   0.838   5.475  0.1912 -0.3094  0.7923
12895TIP3    H138621   4.572   0.836   5.387 -1.3860  2.5527 -0.0108
12895TIP3    H238622   4.608   0.859   5.532  0.6725  0.8971 -0.2429
12896TIP3   OH238623   3.920   1.125   3.998  0.7209 -0.2195  0.2191
12896TIP3    H138624   3.850   1.159   3.942  0.8113 -2.5944 -1.4178
12896TIP3    H238625   3.887   1.041   4.029  1.3643  0.3251  2.4359
12897TIP3   OH238626   0.441   7.285   2.609 -0.0270  0.4648 -0.0472
12897TIP3    H138627   0.402   7.232   2.539 -0.5111  0.2144  0.4152
12897TIP3    H238628   0.535   7.275   2.596 -0.1198 -0.6361  0.1400
12898TIP3   OH238629   2.477   6.794   5.770  0.0464  0.0472  0.4768
12898TIP3    H138630   2.402   6.771   5.825 -0.4443  0.0815 -0.1660
12898TIP3    H238631   2.437   6.828   5.689  0.7325 -1.9965 -0.7615
12899TIP3   OH238632   0.142   2.844   0.422  0.1253 -0.0451 -0.2575
12899TIP3    H138633   0.177   2.755   0.431 -0.3174 -0.1025  1.0260
12899TIP3    H238634   0.181   2.892   0.494 -0.2031  0.6243 -0.5273
12900TIP3   OH238635   1.462   7.672   6.439  0.1439  0.1595 -0.0272
12900TIP3    H138636   1.503   7.587   6.421  0.5428  0.2522  0.4274
12900TIP3    H238637   1.473   7.685   6.533 -1.3107  0.0042  0.1613
12901TIP3   OH238638   5.368   1.524   2.303  0.1155 -0.1121 -0.2444
12901TIP3    H138639   5.441   1.469   2.331  0.0264  0.3805  1.0193
12901TIP3    H238640   5.348   1.496   2.214  2.3765  0.3188 -0.9069
12902TIP3   OH238641   5.039   2.362   0.948 -0.2885 -0.2441 -0.1560
12902TIP3    H138642   4.991   2.304   1.008  0.1355 -0.4426 -0.0090
12902TIP3    H238643   5.101   2.305   0.903  1.2145  0.3442  1.1045
12903TIP3   OH238644   1.078   7.521   4.285  0.1665  0.2534  0.3312
12903TIP3    H138645   1.056   7.611   4.260  1.0807 -0.1451 -2.0352
12903TIP3    H238646   1.031   7.467   4.222 -0.8103 -0.9641  2.0862
12904TIP3   OH238647   5.240   0.999   5.917 -0.3419 -0.6557  0.5383
12904TIP3    H138648   5.206   1.029   6.002 -0.6003  0.2954  0.1155
12904TIP3    H238649   5.320   0.953   5.938  0.5854  1.1682  1.1619
12905TIP3   OH238650   3.070   0.564   4.815  0.1133  0.0832 -0.5174
12905TIP3    H138651   3.120   0.571   4.895 -1.0269  0.5936  0.1639
12905TIP3    H238652   3.135   0.566   4.745  1.0092  0.9431  0.3357
12906TIP3   OH238653   2.330   7.795   6.646  0.3580 -0.1032  0.2478
12906TIP3    H138654   2.416   7.755   6.657  0.1605 -0.5415  0.2046
12906TIP3    H238655   2.281   7.769   6.724  0.4231  0.5602  0.5159
12907TIP3   OH238656   2.151   1.904   4.082  0.2534 -0.3147 -0.1458
12907TIP3    H138657   2.208   1.827   4.079 -0.2393 -0.6686 -0.5687
12907TIP3    H238658   2.066   1.869   4.108  0.1704  0.1771  0.2501
12908TIP3   OH238659   4.872   0.941   4.013  0.4738  0.2330 -0.0374
12908TIP3    H138660   4.858   0.880   3.941  3.1828 -2.9103  1.9957
12908TIP3    H238661   4.820   1.018   3.989 -0.7882 -1.7316 -4.0281
12909TIP3   OH238662   5.555   1.277   2.661 -0.5195 -0.2491 -0.4015
12909TIP3    H138663   5.524   1.316   2.742  1.1039  0.4990 -0.1295
12909TIP3    H238664   5.608   1.202   2.688 -0.1592 -0.1309 -0.7679
12910TIP3   OH238665   3.509   0.487   6.122 -0.6229 -0.1283  0.0196
12910TIP3    H138666   3.486   0.440   6.202 -0.0585 -1.2609 -0.4614
12910TIP3    H238667   3.572   0.429   6.078 -0.9021  0.4861 -1.2156
12911TIP3   OH238668   1.918   7.064   5.286  0.2250 -0.4228 -0.6089
12911TIP3    H138669   1.885   7.081   5.198 -0.9968  0.2830 -0.0240
12911TIP3    H238670   1.841   7.033   5.335  0.5837  0.5434  0.5751
12912TIP3   OH238671   2.908   5.670   4.453 -0.1321 -0.1694 -0.4481
12912TIP3    H138672   2.817   5.646   4.467 -0.2424 -0.1797 -1.1693
12912TIP3    H238673   2.910   5.709   4.366  0.8969 -2.0500 -1.3247
12913TIP3   OH238674   5.368   6.356   1.986 -0.1453 -0.1952 -0.5724
12913TIP3    H138675   5.463   6.362   1.996  0.0509  0.0233 -2.3311
12913TIP3    H238676   5.338   6.312   2.065  1.5433 -1.2683 -0.5076
12914TIP3   OH238677   5.221   0.133   3.040  0.2721 -0.0294 -0.0208
12914TIP3    H138678   5.153   0.139   3.107 -0.2058 -1.2855 -0.3699
12914TIP3    H238679   5.192   0.061   2.984  2.5868 -1.5181  0.6249
12915TIP3   OH238680   4.902   2.152   6.147 -0.2473 -0.1010 -0.4174
12915TIP3    H138681   4.940   2.135   6.061  0.7495  0.8738 -0.1762
12915TIP3    H238682   4.878   2.244   6.145 -0.4720 -0.1397  0.2613
12916TIP3   OH238683   6.136   1.868   5.849  0.1474  0.1616  0.5011
12916TIP3    H138684   6.131   1.846   5.756  0.9677 -0.0109  0.4991
12916TIP3    H238685   6.104   1.790   5.893  2.4363 -0.8407  0.4680
12917TIP3   OH238686   2.540   7.162   5.238  0.4524 -0.3004 -0.1425
12917TIP3    H138687   2.547   7.114   5.320  2.4894  1.9676  1.1047
12917TIP3    H238688   2.475   7.230   5.255  1.3577  0.5893 -0.1605
12918TIP3   OH238689   7.546   0.547   5.277 -0.6070  0.1746 -0.2598
12918TIP3    H138690   7.450   0.554   5.281 -0.7123 -1.7851  1.6732
12918TIP3    H238691   7.577   0.634   5.301 -1.8726  1.5364 -3.2644
12919TIP3   OH238692   0.036   6.075   4.454  0.1537  0.2802  0.2329
12919TIP3    H138693  -0.048   6.032   4.469 -0.0260 -0.1869 -1.8540
12919TIP3    H238694   0.058   6.116   4.537 -0.9730 -1.6200  1.4965
12920TIP3   OH238695   3.482   2.785   4.736 -0.8861  0.5309 -0.5118
12920TIP3    H138696   3.470   2.788   4.831 -1.8228 -2.0989 -0.5157
12920TIP3    H238697   3.409   2.836   4.701 -0.4879  1.5857  0.1714
12921TIP3   OH238698   5.670   0.825   6.888  0.4523  0.4446 -0.0978
12921TIP3    H138699   5.597   0.886   6.874  0.3281  0.0619 -1.1427
12921TIP3    H238700   5.707   0.851   6.972 -0.0609  1.4924 -0.1896
12922TIP3   OH238701   4.641   1.018   2.955  0.6148 -0.1406  0.4155
12922TIP3    H138702   4.702   0.975   3.014  0.7170 -0.6896 -0.0881
12922TIP3    H238703   4.558   1.020   3.004  0.1921 -2.3423 -0.1458
12923TIP3   OH238704   3.369   6.495   2.776  0.2968 -0.7251  0.6822
12923TIP3    H138705   3.407   6.568   2.824  1.9803 -1.4404  0.4902
12923TIP3    H238706   3.410   6.418   2.814 -0.2433 -1.4634 -0.2186
12924TIP3   OH238707   1.379   7.241   5.661 -0.0252 -0.1635  0.0361
12924TIP3    H138708   1.413   7.250   5.573  2.8586  1.7109  1.2903
12924TIP3    H238709   1.295   7.287   5.659  0.9877  1.6693 -1.1998
12925TIP3   OH238710   1.627   7.517   4.462 -0.0092 -0.3098  0.5561
12925TIP3    H138711   1.660   7.588   4.516  0.0200 -1.1085  1.6128
12925TIP3    H238712   1.625   7.553   4.373 -0.3287  1.1053  1.1284
12926TIP3   OH238713   2.510   7.670   4.878 -0.5345 -0.4075 -0.0462
12926TIP3    H138714   2.473   7.755   4.902 -1.7175 -0.6193 -1.0653
12926TIP3    H238715   2.484   7.611   4.950 -0.0722 -0.0115  0.4514
12927TIP3   OH238716   7.193   3.254   0.943  0.1682 -0.2954 -0.0509
12927TIP3    H138717   7.212   3.256   1.036  0.5745  2.6534 -0.1403
12927TIP3    H238718   7.277   3.235   0.902 -0.4268 -3.8160  0.2228
12928TIP3   OH238719   3.586   0.790   2.196 -0.0529  0.5638 -0.2476
12928TIP3    H138720   3.550   0.702   2.205  0.6636  0.1316 -1.5393
12928TIP3    H238721   3.608   0.798   2.104 -0.1989  2.1409 -0.1636
12929TIP3   OH238722   1.908   3.139   1.435  0.1882 -0.4403 -0.1662
12929TIP3    H138723   1.861   3.218   1.409  1.4572  0.4890  0.2903
12929TIP3    H238724   1.896   3.079   1.362 -1.5306 -0.1519 -0.1305
12930TIP3   OH238725   5.364   1.214   3.451  0.0009  0.5687  0.1336
12930TIP3    H138726   5.439   1.190   3.397  0.5970 -0.0934  1.2230
12930TIP3    H238727   5.358   1.309   3.444  0.4654  0.5479 -0.5831
12931TIP3   OH238728   3.764   0.400   6.048 -0.0432  1.5779 -0.3359
12931TIP3    H138729   3.836   0.459   6.024  0.6210  0.8961 -0.0077
12931TIP3    H238730   3.807   0.321   6.081 -0.9293  0.5399 -1.6320
12932TIP3   OH238731   4.478   0.864   5.011 -0.0637 -0.3765  0.0929
12932TIP3    H138732   4.519   0.837   4.929 -1.1486  1.9367 -1.2592
12932TIP3    H238733   4.402   0.807   5.019  0.1930 -0.7931 -0.3773
12933TIP3   OH238734   4.288   7.435   5.110  0.1784 -0.2594  0.0108
12933TIP3    H138735   4.229   7.385   5.054  1.2284 -0.7431 -0.6797
12933TIP3    H238736   4.254   7.525   5.106 -1.1473 -0.7298  0.5066
12934TIP3   OH238737   1.010   6.866   6.469 -0.0116  0.3589  0.2008
12934TIP3    H138738   0.964   6.835   6.548  0.8538  0.2875  0.6778
12934TIP3    H238739   1.030   6.787   6.420 -2.8447  0.5385 -1.4076
12935TIP3   OH238740   3.685   2.462   4.599  0.0129 -0.6657  0.4759
12935TIP3    H138741   3.742   2.466   4.522 -0.6913 -0.1864 -0.0271
12935TIP3    H238742   3.725   2.521   4.662 -0.2235  0.0773 -0.0734
12936TIP3   OH238743   7.513   2.653   1.801  0.4754  0.1725  0.1664
12936TIP3    H138744   7.541   2.574   1.846  2.8178  0.9002  0.0481
12936TIP3    H238745   7.556   2.649   1.716  1.1495  1.8598  0.3988
12937TIP3   OH238746   7.502   0.598   5.577  0.0849  0.2710 -0.2963
12937TIP3    H138747   7.596   0.616   5.565 -0.5575  2.1212 -2.8670
12937TIP3    H238748   7.497   0.503   5.583  2.1132  0.1313 -0.3694
12938TIP3   OH238749   0.760   6.728   5.145 -0.2935 -0.2275  0.1860
12938TIP3    H138750   0.844   6.751   5.105 -0.2304  0.5737  0.7738
12938TIP3    H238751   0.783   6.690   5.230 -0.5454  0.5461  0.6059
12939TIP3   OH238752   2.087   7.945   6.574  0.1595  0.3887 -0.1802
12939TIP3    H138753   2.038   7.908   6.648 -0.4804  0.3701 -0.6086
12939TIP3    H238754   2.174   7.904   6.581  0.0980  0.3659  0.5416
12940TIP3   OH238755   5.063   0.256   6.882  0.8516  0.1165  0.8011
12940TIP3    H138756   5.050   0.322   6.951 -0.0018 -0.7402  1.4729
12940TIP3    H238757   4.977   0.246   6.842  0.8300 -1.0389  1.1167
12941TIP3   OH238758   3.986   7.606   4.544  0.0128 -0.1196 -0.1605
12941TIP3    H138759   3.929   7.575   4.615  2.5587 -2.4269  0.9532
12941TIP3    H238760   4.069   7.626   4.587  0.0556  3.3380 -1.7475
12942TIP3   OH238761   7.849   4.055   1.001 -0.2370 -0.1828  0.3078
12942TIP3    H138762   7.875   4.099   0.920  0.3144 -0.2188  0.4602
12942TIP3    H238763   7.771   4.103   1.030  0.1957  0.5301  0.3245
12943TIP3   OH238764   1.310   7.233   6.495  0.3960  0.2355  0.3155
12943TIP3    H138765   1.316   7.307   6.434  0.8279  0.1732  0.2763
12943TIP3    H238766   1.226   7.192   6.475  0.3627  0.4449  0.0238
12944TIP3   OH238767   2.433   7.081   6.355 -0.4729  0.2663  0.4662
12944TIP3    H138768   2.417   7.174   6.373 -1.8861  0.0134  0.5471
12944TIP3    H238769   2.346   7.043   6.347  0.1029 -0.5405 -2.4013
12945TIP3   OH238770   2.069   6.013   6.736  0.2994 -0.0650 -0.4317
12945TIP3    H138771   2.106   6.099   6.715 -0.5325  0.8191  1.5741
12945TIP3    H238772   2.135   5.971   6.791 -0.1313  0.0868  0.2092
12946TIP3   OH238773   1.331   7.427   6.317  0.5267  0.2655  0.0298
12946TIP3    H138774   1.336   7.522   6.305  2.5539 -0.0132 -1.7800
12946TIP3    H238775   1.420   7.396   6.298 -1.0969 -2.4225 -4.0125
12947TIP3   OH238776   5.385   0.070   4.469 -0.2216  0.1545 -0.1681
12947TIP3    H138777   5.301   0.087   4.426  0.4831  1.5560 -0.9962
12947TIP3    H238778   5.426   0.001   4.416  0.2505  1.2448 -1.2365
12948TIP3   OH238779   2.073   7.944   5.116 -0.0528 -0.3436 -0.4098
12948TIP3    H138780   2.096   7.897   5.196 -0.7232  1.2895  0.7643
12948TIP3    H238781   2.156   7.983   5.086  0.4272 -1.9301 -1.1780
12949TIP3   OH238782   3.485   1.671   4.869  0.2111 -0.0589 -0.2312
12949TIP3    H138783   3.418   1.739   4.864  0.7676  0.5900  1.0136
12949TIP3    H238784   3.512   1.670   4.961  1.3213 -0.8825 -0.5524
12950TIP3   OH238785   4.955   7.416   4.072  0.3441 -0.2545  0.3239
12950TIP3    H138786   4.862   7.427   4.090 -0.1176  0.2014 -2.1579
12950TIP3    H238787   4.962   7.330   4.031  0.9550 -0.0909  0.0792
12951TIP3   OH238788   3.261   7.657   4.298 -0.2943 -0.4886  0.4523
12951TIP3    H138789   3.224   7.684   4.382 -1.6050 -1.5462  0.2385
12951TIP3    H238790   3.315   7.581   4.320  1.4301  0.7932  0.7007
12952TIP3   OH238791   6.260   1.204   4.453  0.7354  0.3269 -0.1448
12952TIP3    H138792   6.290   1.147   4.524  1.6868 -0.2615 -1.0092
12952TIP3    H238793   6.298   1.166   4.374 -0.8440  0.6022 -1.0606
12953TIP3   OH238794   0.358   5.393   6.261  0.3275 -0.2603 -0.3594
12953TIP3    H138795   0.302   5.317   6.244 -0.7715  0.1404  1.3035
12953TIP3    H238796   0.324   5.461   6.203  0.3319 -0.6012 -0.7587
12954TIP3   OH238797   4.913   1.260   5.572  0.0661  0.4408  0.0369
12954TIP3    H138798   4.853   1.279   5.644  0.5236 -0.8097  0.7671
12954TIP3    H238799   4.927   1.165   5.577  0.6498  0.4444 -1.2693
12955TIP3   OH238800   5.336   1.430   6.051  0.1115 -0.0832  0.0106
12955TIP3    H138801   5.430   1.437   6.065  0.0013  0.1748  0.6537
12955TIP3    H238802   5.326   1.429   5.956  0.7104  0.5643 -0.0661
12956TIP3   OH238803   2.159   7.616   3.726 -0.0953  0.2206 -0.6199
12956TIP3    H138804   2.172   7.546   3.791 -1.0074  0.2643 -0.3859
12956TIP3    H238805   2.243   7.621   3.680  0.2211 -0.5262 -0.1437
12957TIP3   OH238806   4.669   1.161   5.987 -0.1268 -0.0467  0.2311
12957TIP3    H138807   4.612   1.228   6.026  0.2369 -0.0277  0.7359
12957TIP3    H238808   4.611   1.113   5.928 -0.4901  0.4562  0.1690
12958TIP3   OH238809   3.807   7.618   5.763  0.7578 -0.0554 -0.1681
12958TIP3    H138810   3.856   7.562   5.703  2.4035  1.2111 -0.0355
12958TIP3    H238811   3.855   7.613   5.846 -1.5986 -1.9548  1.1883
12959TIP3   OH238812   7.857   5.889   0.249 -0.0569  0.0055 -0.0780
12959TIP3    H138813   7.879   5.837   0.172  0.9459 -1.0626  0.8967
12959TIP3    H238814   7.853   5.825   0.320  1.3271  1.2680  1.1785
12960TIP3   OH238815   0.004   1.788   1.489  0.2608 -0.1861  0.4338
12960TIP3    H138816   0.034   1.697   1.486 -0.4923 -0.4150 -0.4206
12960TIP3    H238817   0.084   1.839   1.478  0.8772 -0.7017  2.2372
12961TIP3   OH238818   7.773   2.954   0.145 -0.0116  0.1043 -1.2935
12961TIP3    H138819   7.724   2.887   0.192  1.0987 -1.0241 -1.7126
12961TIP3    H238820   7.762   3.033   0.197 -1.2614 -0.4188 -0.7392
12962TIP3   OH238821   2.037   7.602   5.429  0.1743  0.0107 -0.3938
12962TIP3    H138822   1.952   7.585   5.388  0.3689 -0.0854 -0.7528
12962TIP3    H238823   2.082   7.517   5.425  0.1711 -0.0168  0.0723
12963TIP3   OH238824   5.044   1.291   6.824  0.2466 -0.2260 -0.4047
12963TIP3    H138825   5.118   1.308   6.882  0.3218 -1.4185 -0.1464
12963TIP3    H238826   5.050   1.359   6.757  1.1923  0.0777 -0.0137
12964TIP3   OH238827   7.960   0.588   4.885 -0.1593  0.1844 -0.3151
12964TIP3    H138828   7.894   0.642   4.928  1.2633  1.5586  0.1702
12964TIP3    H238829   8.018   0.559   4.956  0.6102  0.2084 -0.9256
12965TIP3   OH238830   4.089   6.873   5.857 -0.2607 -0.5772 -0.8910
12965TIP3    H138831   4.131   6.947   5.900 -0.3641 -1.3354  0.5613
12965TIP3    H238832   4.014   6.910   5.811 -0.4336  0.1793  0.0090
12966TIP3   OH238833   4.792   0.302   6.027 -0.0019  0.5016 -0.4348
12966TIP3    H138834   4.788   0.300   6.122 -0.5414 -0.7496 -0.4882
12966TIP3    H238835   4.865   0.362   6.008  1.9179 -1.4027  0.7961
12967TIP3   OH238836   0.019   2.432   0.060 -0.0088 -0.5548 -0.3230
12967TIP3    H138837   0.076   2.355   0.053 -1.3732 -1.8156  1.6534
12967TIP3    H238838  -0.028   2.436  -0.023 -0.5111 -2.3895 -0.1576
12968TIP3   OH238839   3.877   7.521   6.479  0.3831  0.2535 -0.2645
12968TIP3    H138840   3.832   7.601   6.508  0.2142  0.0385  0.0691
12968TIP3    H238841   3.859   7.457   6.548 -1.5524 -0.8223 -1.7158
12969TIP3   OH238842   2.807   5.893   5.251  0.2658 -0.1759 -0.4749
12969TIP3    H138843   2.762   5.820   5.294 -0.4254  0.5067 -0.0194
12969TIP3    H238844   2.900   5.879   5.271  0.0104 -0.1873  0.7848
12970TIP3   OH238845   2.909   7.553   5.153  0.4344 -0.0114 -0.1461
12970TIP3    H138846   2.853   7.478   5.137 -1.1160  1.1524 -0.3643
12970TIP3    H238847   2.964   7.527   5.226  0.4267 -1.6177 -0.6977
12971TIP3   OH238848   2.327   6.751   6.177 -0.2237 -0.0771 -0.3713
12971TIP3    H138849   2.322   6.779   6.086 -0.6028 -0.6800 -0.5429
12971TIP3    H238850   2.250   6.694   6.188  0.6034 -1.1554 -0.0838
12972TIP3   OH238851   0.351   5.973   6.560 -0.0185 -0.0450  0.4108
12972TIP3    H138852   0.283   5.907   6.578  1.4824 -1.3634  1.3631
12972TIP3    H238853   0.313   6.027   6.490 -1.9481 -0.9028  0.7479
12973TIP3   OH238854   2.137   7.204   6.112 -0.5322  0.0816  0.3662
12973TIP3    H138855   2.061   7.191   6.055 -0.7857  1.6029  0.3209
12973TIP3    H238856   2.195   7.262   6.063 -0.5386  1.0168  1.4301
12974TIP3   OH238857   7.922   2.532   1.061 -0.0094  0.2103  0.4131
12974TIP3    H138858   7.944   2.442   1.037 -1.0619  0.1587 -0.3660
12974TIP3    H238859   7.930   2.582   0.980  2.5031  1.2047  1.2361
12975TIP3   OH238860   4.652   0.410   4.358 -0.2407  0.4804  0.3109
12975TIP3    H138861   4.595   0.453   4.294  1.6438  0.6618 -1.3180
12975TIP3    H238862   4.648   0.466   4.435 -0.6608  1.6180 -0.5221
12976TIP3   OH238863   2.670   6.752   3.794 -0.0151 -0.3325  0.4461
12976TIP3    H138864   2.633   6.666   3.815  0.0093 -0.6958 -0.9586
12976TIP3    H238865   2.598   6.813   3.811 -0.3946 -0.7498  0.3526
12977TIP3   OH238866   1.122   7.272   6.186 -0.0843 -0.6063 -0.4333
12977TIP3    H138867   1.098   7.226   6.267 -1.5039  2.3344  0.8584
12977TIP3    H238868   1.188   7.336   6.213  1.1016 -1.0988 -2.0410
12978TIP3   OH238869   7.111   3.259   0.078 -0.5386  0.4349 -0.0198
12978TIP3    H138870   7.194   3.212   0.088  1.4127  4.0327  1.6648
12978TIP3    H238871   7.112   3.293  -0.011 -1.1743 -1.2078 -0.6715
12979TIP3   OH238872   6.295   2.588   0.275 -0.2209  0.3783  0.0098
12979TIP3    H138873   6.258   2.579   0.187  0.1308 -2.2909  0.1015
12979TIP3    H238874   6.383   2.621   0.261 -1.4872  3.8508 -0.3683
12980TIP3   OH238875   0.548   3.575   0.260  0.5560  0.0694  0.1530
12980TIP3    H138876   0.602   3.599   0.184  0.7675 -2.3548 -0.4855
12980TIP3    H238877   0.559   3.648   0.321  0.3723  2.0724 -2.1357
12981TIP3   OH238878   7.020   3.574   1.005 -0.5327 -0.3795  0.0891
12981TIP3    H138879   6.930   3.543   1.011 -0.7764 -0.0717 -1.7135
12981TIP3    H238880   7.013   3.663   0.971  0.4458 -0.1984  0.3315
12982TIP3   OH238881   0.867   2.340   4.979 -0.1819  0.4365 -0.6005
12982TIP3    H138882   0.912   2.352   5.062 -0.7397 -0.9791 -0.0845
12982TIP3    H238883   0.775   2.359   4.999 -0.5028 -1.0804 -0.6105
12983TIP3   OH238884   6.710   1.080   6.447 -0.1795  0.4569  0.2937
12983TIP3    H138885   6.705   1.042   6.359 -0.0198 -0.2568  0.5945
12983TIP3    H238886   6.699   1.006   6.506 -2.3312  1.1910  0.8860
12984TIP3   OH238887   4.811   7.471   6.060  0.1125 -0.4107 -0.2821
12984TIP3    H138888   4.839   7.495   6.148  0.5591  0.2471 -0.5996
12984TIP3    H238889   4.769   7.549   6.026 -0.2971 -0.7491 -0.5585
12985TIP3   OH238890   4.578   7.191   5.651  0.6094 -0.2683 -0.0852
12985TIP3    H138891   4.563   7.125   5.583 -2.1043  0.3705 -0.1691
12985TIP3    H238892   4.515   7.169   5.720  0.1743  1.8203  0.1934
12986TIP3   OH238893   6.259   0.607   6.825  0.1291  0.1883 -0.1334
12986TIP3    H138894   6.317   0.681   6.842  1.3540 -1.1358  1.5708
12986TIP3    H238895   6.218   0.628   6.741  0.4298  2.8024  0.3267
12987TIP3   OH238896   3.338   4.971   5.087  0.0603 -0.2075 -0.9646
12987TIP3    H138897   3.268   4.994   5.148 -1.2372  0.3547 -2.6401
12987TIP3    H238898   3.373   5.055   5.058  0.9147 -0.4801 -0.7463
12988TIP3   OH238899   6.826   0.643   5.569  0.6926  0.0003  0.1340
12988TIP3    H138900   6.741   0.662   5.528 -0.7719 -0.3626  2.8574
12988TIP3    H238901   6.860   0.728   5.596  0.3610  0.0031  0.5589
12989TIP3   OH238902   0.700   0.271   6.379  0.1309 -0.1979 -0.0828
12989TIP3    H138903   0.795   0.270   6.366  0.5030 -0.4154  2.3344
12989TIP3    H238904   0.688   0.247   6.471 -2.2444  0.4232 -0.1890
12990TIP3   OH238905   7.612   2.480   6.730  0.2511 -0.2354  0.2994
12990TIP3    H138906   7.661   2.474   6.648 -0.4947  2.3584 -0.3757
12990TIP3    H238907   7.521   2.463   6.705  0.2406 -1.0352  0.8683
12991TIP3   OH238908   7.866   0.190   6.263  0.0581 -0.3366  0.1323
12991TIP3    H138909   7.859   0.205   6.357 -2.4927  0.5541 -0.1690
12991TIP3    H238910   7.933   0.123   6.254 -0.6431 -1.4123  2.6876
12992TIP3   OH238911   0.189   3.219   0.465 -0.3657 -0.0494 -0.2579
12992TIP3    H138912   0.103   3.257   0.480 -0.3542 -0.6048  1.2962
12992TIP3    H238913   0.175   3.152   0.397 -1.0630  0.1694 -0.3316
12993TIP3   OH238914   0.072   0.789   5.111 -0.8028 -0.0102  0.5294
12993TIP3    H138915   0.061   0.695   5.126 -1.6103  0.2047  1.3868
12993TIP3    H238916   0.162   0.807   5.139 -0.7250 -0.4893  0.5969
12994TIP3   OH238917   4.339   7.475   5.917  0.0033 -0.2762  0.3019
12994TIP3    H138918   4.381   7.521   5.844 -2.6846  1.8616  0.0376
12994TIP3    H238919   4.354   7.382   5.898 -0.1579  0.2620 -2.6848
12995TIP3   OH238920   8.264   5.566   1.142 -0.3560 -0.3928  0.5308
12995TIP3    H138921   8.275   5.475   1.171 -1.0393 -0.5728  0.2257
12995TIP3    H238922   8.218   5.560   1.059 -0.7964  0.2505  0.7189
12996TIP3   OH238923   7.638   0.414   3.701 -0.3725 -0.2019 -0.3759
12996TIP3    H138924   7.626   0.323   3.729  1.5808 -0.5532 -0.6221
12996TIP3    H238925   7.675   0.408   3.613  1.1351  0.8041  0.1704
12997TIP3   OH238926   3.071   0.787   5.053  0.3535 -0.4559  0.2807
12997TIP3    H138927   2.978   0.766   5.048  0.2758  0.0952 -0.7215
12997TIP3    H238928   3.090   0.788   5.147 -1.4070  2.5861  0.6791
12998TIP3   OH238929   6.554   0.763   5.527  0.1103  0.0076 -0.2711
12998TIP3    H138930   6.544   0.751   5.622 -1.9843  0.6732 -0.3989
12998TIP3    H238931   6.484   0.710   5.488  0.4009  0.4597 -1.4243
12999TIP3   OH238932   1.994   4.758   0.077 -0.0670  0.7703 -0.1567
12999TIP3    H138933   1.942   4.715   0.009  1.2539 -0.3851 -0.4771
12999TIP3    H238934   2.019   4.842   0.038 -3.4775  2.3105  0.8421
13000TIP3   OH238935   6.089   1.893   6.533 -0.2659  0.4929  0.0753
13000TIP3    H138936   6.001   1.889   6.497 -0.3706  2.2120  0.1194
13000TIP3    H238937   6.122   1.979   6.507  1.2513  0.0195  0.3895
13001TIP3   OH238938   6.755   2.007   5.466  0.2131 -0.1307  0.1892
13001TIP3    H138939   6.831   2.015   5.408  0.3115  0.3156  0.3751
13001TIP3    H238940   6.695   2.076   5.437  0.1354 -0.0978  0.4282
13002TIP3   OH238941   0.807   4.764   0.005 -0.2029 -0.4982 -0.3370
13002TIP3    H138942   0.805   4.722   0.092 -0.5907  0.7124  0.2490
13002TIP3    H238943   0.877   4.719  -0.041  0.0241 -1.1526  0.6176
13003TIP3   OH238944   5.141   0.158   6.144 -0.3236  0.3467 -0.2854
13003TIP3    H138945   5.218   0.149   6.199 -0.1679  2.5364 -0.1257
13003TIP3    H238946   5.090   0.227   6.185 -1.6626 -0.0618 -1.2234
13004TIP3   OH238947   7.100   1.182   6.523  0.4702 -0.0256 -0.2747
13004TIP3    H138948   7.180   1.178   6.471  0.7599  1.0502  0.0777
13004TIP3    H238949   7.036   1.223   6.464  1.0501  2.0467  0.5187
13005TIP3   OH238950   4.399   6.222   5.061  0.0405  0.2961  0.5134
13005TIP3    H138951   4.324   6.219   5.121  0.2614  1.4432  0.8513
13005TIP3    H238952   4.389   6.143   5.006 -0.4721 -0.4601  1.6759
13006TIP3   OH238953   0.692   3.630   3.957  0.1658 -0.5394  0.2836
13006TIP3    H138954   0.709   3.573   4.032  1.3222 -1.5084 -0.7040
13006TIP3    H238955   0.775   3.634   3.910 -0.6534 -0.2866 -1.1807
13007TIP3   OH238956   7.772   0.754   5.278 -0.5850  0.3646 -0.0310
13007TIP3    H138957   7.778   0.727   5.370 -0.7833 -0.3827 -0.2344
13007TIP3    H238958   7.855   0.726   5.240 -1.0087 -0.4489 -0.3665
13008TIP3   OH238959   3.785   7.123   3.592 -0.0274 -0.2662  0.0992
13008TIP3    H138960   3.798   7.118   3.687 -0.2932 -1.8608  0.0645
13008TIP3    H238961   3.691   7.111   3.580  0.3419 -2.8471 -0.5132
13009TIP3   OH238962   4.000   7.204   5.119 -0.3492  0.0254 -0.2209
13009TIP3    H138963   4.029   7.234   5.205 -0.7662  0.9426 -0.3986
13009TIP3    H238964   3.959   7.119   5.136  2.3357 -1.2597  0.0477
13010TIP3   OH238965   5.070   0.271   6.411  0.5675 -0.0293  0.1754
13010TIP3    H138966   5.145   0.239   6.461  1.1787  1.3503  0.1510
13010TIP3    H238967   5.029   0.336   6.467  0.3180  0.3713 -0.4726
13011TIP3   OH238968   0.774   0.586   4.812 -0.3653 -0.1577  0.0800
13011TIP3    H138969   0.842   0.523   4.789  2.1290  1.9849  1.1693
13011TIP3    H238970   0.818   0.671   4.806 -3.1846  1.3649  0.1150
13012TIP3   OH238971   6.036   1.129   5.763 -0.1023 -0.4307 -0.1176
13012TIP3    H138972   5.971   1.166   5.703  0.3835  0.1663 -0.2799
13012TIP3    H238973   6.007   1.039   5.778 -1.8969  0.3500  1.1531
13013TIP3   OH238974   6.070   1.208   5.381  0.0752  0.1344 -0.8940
13013TIP3    H138975   6.151   1.215   5.329  1.7463 -0.0671  1.5655
13013TIP3    H238976   6.065   1.292   5.427  0.8473 -1.1606  1.6544
13014TIP3   OH238977   1.359   7.398   5.890  0.2284  0.4446  0.7299
13014TIP3    H138978   1.397   7.358   5.812 -0.9257 -2.2742  1.5038
13014TIP3    H238979   1.423   7.464   5.917  1.1109  0.7001 -1.9046
13015TIP3   OH238980   3.543   5.718   2.836 -0.0457 -0.2748 -0.5539
13015TIP3    H138981   3.570   5.658   2.766  0.6613  1.8010 -2.1507
13015TIP3    H238982   3.449   5.728   2.824  0.1337  0.3681 -1.4766
13016TIP3   OH238983   6.085   1.575   6.871 -0.4623  0.8229  0.3048
13016TIP3    H138984   6.005   1.596   6.824 -1.4767  0.3937  1.7875
13016TIP3    H238985   6.122   1.500   6.824 -1.5528  0.2799  0.3084
13017TIP3   OH238986   3.608   7.786   5.424  0.2386 -0.4819 -0.2399
13017TIP3    H138987   3.643   7.867   5.459 -0.1235 -0.4604  0.0707
13017TIP3    H238988   3.531   7.813   5.372 -0.5732 -0.7377  0.8154
13018TIP3   OH238989   2.580   7.244   4.679  0.7427  0.3074 -0.5427
13018TIP3    H138990   2.625   7.193   4.746  1.4290 -1.1596 -2.0823
13018TIP3    H238991   2.496   7.267   4.719  2.2596  1.9364  1.8756
13019TIP3   OH238992   7.022   1.842   5.723  0.5362 -0.2482  0.3712
13019TIP3    H138993   6.952   1.810   5.665  0.1467 -0.3694  0.9060
13019TIP3    H238994   6.984   1.918   5.767  0.9355  0.0224  0.2429
13020TIP3   OH238995   8.518   1.320   5.409  0.0930  0.1281 -0.1161
13020TIP3    H138996   8.499   1.356   5.495 -0.6038 -0.4372 -0.0318
13020TIP3    H238997   8.480   1.382   5.347  0.3644  0.3968 -0.0169
13021TIP3   OH238998   0.938   4.571   1.581 -0.1477  0.6518  0.5083
13021TIP3    H138999   0.926   4.638   1.513  1.0430  0.8496  0.4822
13021TIP3    H239000   0.862   4.513   1.571  0.9427 -0.4241 -2.2461
13022TIP3   OH239001   3.545   6.995   3.557  0.7130  0.1623 -0.3801
13022TIP3    H139002   3.457   6.995   3.593  0.9390  0.3358  0.1728
13022TIP3    H239003   3.558   6.905   3.526  0.2933  0.1728 -0.5926
13023TIP3   OH239004   3.072   5.656   0.131  0.7064 -0.1084 -0.2000
13023TIP3    H139005   3.031   5.686   0.049 -1.2574  0.1116  0.8354
13023TIP3    H239006   3.102   5.567   0.112 -0.5812 -0.4043 -0.8897
13024TIP3   OH239007   6.906   1.491   5.759  0.2245 -0.3649  0.1209
13024TIP3    H139008   6.958   1.493   5.679 -0.6744  1.6888 -0.4565
13024TIP3    H239009   6.832   1.433   5.738  0.1192 -0.0250 -0.4461
13025TIP3   OH239010   0.769   0.865   3.897 -0.2485 -0.0584  0.8949
13025TIP3    H139011   0.706   0.850   3.826 -0.8710 -1.3155  1.7044
13025TIP3    H239012   0.726   0.930   3.953 -0.8057 -0.8438  1.3951
13026TIP3   OH239013   5.057   7.081   5.118  0.4376 -0.1792  0.5481
13026TIP3    H139014   5.111   7.135   5.175 -2.0161  1.9578  0.9431
13026TIP3    H239015   5.053   7.129   5.036 -0.0869 -0.7803  0.2182
13027TIP3   OH239016   4.710   6.703   5.144 -0.5491 -0.4323  0.0765
13027TIP3    H139017   4.695   6.671   5.233  0.1062  0.4116  0.5007
13027TIP3    H239018   4.768   6.778   5.156  0.5003 -1.0458 -1.1708
13028TIP3   OH239019   5.584   7.189   5.758 -0.6344 -0.3450  0.5052
13028TIP3    H139020   5.557   7.164   5.669 -1.5737  0.2190  0.6296
13028TIP3    H239021   5.679   7.198   5.752 -0.3371 -3.0686  0.2387
13029TIP3   OH239022   1.060   4.636   0.033 -0.5056  0.1413  0.1711
13029TIP3    H139023   1.148   4.623  -0.003 -0.6089 -1.1177  0.3831
13029TIP3    H239024   1.064   4.723   0.074  0.4206  0.4055 -0.4593
13030TIP3   OH239025   6.319   1.233   6.877  0.0810 -0.1659  0.6084
13030TIP3    H139026   6.328   1.253   6.784  1.9280  0.4351  0.8964
13030TIP3    H239027   6.225   1.241   6.894 -0.0713  1.4644 -0.8219
13031TIP3   OH239028   5.564   6.512   6.377  0.0514 -0.1550  0.3620
13031TIP3    H139029   5.577   6.533   6.469 -1.0624 -1.0062  0.7296
13031TIP3    H239030   5.617   6.433   6.363 -0.1980 -0.3318  0.4120
13032TIP3   OH239031   6.992   0.621   6.902 -0.3256 -0.0672  0.2277
13032TIP3    H139032   7.033   0.675   6.834  0.3612 -0.8581  0.0047
13032TIP3    H239033   7.065   0.581   6.949 -0.7803 -3.3915 -1.6985
13033TIP3   OH239034   4.096   7.765   6.728 -0.0207  0.0114 -0.3524
13033TIP3    H139035   4.014   7.734   6.689 -0.3128  1.2088 -0.7024
13033TIP3    H239036   4.105   7.713   6.808 -1.7004  0.6263  0.2686
13034TIP3   OH239037   4.143   7.458   6.524  0.3471 -0.7231  0.3815
13034TIP3    H139038   4.058   7.458   6.480  1.5949 -1.9726 -2.1998
13034TIP3    H239039   4.170   7.550   6.522  0.8290 -0.8581 -2.5531
13035TIP3   OH239040   3.487   6.332   5.763 -0.0268  0.0570  0.0352
13035TIP3    H139041   3.524   6.366   5.844  0.7564 -2.7002  0.8713
13035TIP3    H239042   3.396   6.314   5.784  0.8327 -3.2483  1.1784
13036TIP3   OH239043   4.635   6.710   4.502  0.0520  0.1752 -0.4160
13036TIP3    H139044   4.605   6.780   4.560 -0.6058  0.0677 -0.6173
13036TIP3    H239045   4.727   6.729   4.486  0.0496  0.6125  0.0799
13037TIP3   OH239046   3.075   7.913   5.586  0.2005 -0.7069  0.5878
13037TIP3    H139047   3.028   7.985   5.544 -2.0393 -3.0602 -1.1095
13037TIP3    H239048   3.064   7.928   5.680  1.2133  2.0415  0.3127
13038TIP3   OH239049   2.579   6.543   5.624 -0.2179  0.4985 -0.1986
13038TIP3    H139050   2.554   6.595   5.700 -0.9440 -0.2259  0.0689
13038TIP3    H239051   2.599   6.456   5.660  1.8153  0.8233 -0.5321
13039TIP3   OH239052   3.140   7.545   4.053 -0.2595 -0.1414 -0.3821
13039TIP3    H139053   3.191   7.610   4.102 -0.1652  0.9555 -1.8802
13039TIP3    H239054   3.175   7.461   4.081  0.4558  0.4989  0.6934
13040TIP3   OH239055   6.220   2.211   4.919  0.7602 -0.0254  0.6651
13040TIP3    H139056   6.294   2.261   4.885  1.6382 -0.2825  2.1649
13040TIP3    H239057   6.180   2.172   4.841  1.1472  1.5186 -0.3319
13041TIP3   OH239058   4.836   5.984   5.110  0.1081  0.1756  0.4444
13041TIP3    H139059   4.851   6.067   5.065 -1.4239  0.9990  1.4284
13041TIP3    H239060   4.845   6.004   5.203  0.8899 -1.0168  0.6410
13042TIP3   OH239061   0.994   5.090   1.316  0.1400  0.0600 -0.1256
13042TIP3    H139062   0.997   5.043   1.233 -0.0482 -1.6201  0.7969
13042TIP3    H239063   1.084   5.089   1.347  0.5095  2.0789 -1.0398
13043TIP3   OH239064   4.685   0.199   2.193 -0.1814  0.6010 -0.5364
13043TIP3    H139065   4.649   0.225   2.278 -0.8093  0.0851 -0.6416
13043TIP3    H239066   4.756   0.262   2.176  0.5088  0.1887  0.7586
13044TIP3   OH239067   5.548   0.348   4.600 -0.3737 -0.1757 -0.1693
13044TIP3    H139068   5.524   0.423   4.545  0.1348  0.0787 -0.0481
13044TIP3    H239069   5.606   0.296   4.546 -1.9387 -1.2924 -0.8034
13045TIP3   OH239070   4.897   0.765   6.300 -0.0805 -0.3021  0.0108
13045TIP3    H139071   4.842   0.735   6.227 -0.8920 -4.0592  2.0322
13045TIP3    H239072   4.896   0.861   6.292 -3.0368 -0.4541 -2.7990
13046TIP3   OH239073   2.886   7.735   5.991  0.3789  0.2617  0.2053
13046TIP3    H139074   2.818   7.668   5.999 -0.3359  1.0508  1.0019
13046TIP3    H239075   2.851   7.810   6.040  2.1942  0.3937  1.3635
13047TIP3   OH239076   6.062   1.817   4.307  0.0673  0.2388  0.2318
13047TIP3    H139077   5.978   1.861   4.294 -0.8197 -1.0773  1.3491
13047TIP3    H239078   6.065   1.799   4.401  2.7277  2.4885  0.6737
13048TIP3   OH239079   5.975   6.895   5.001  0.1372 -0.0538 -0.0274
13048TIP3    H139080   6.027   6.909   4.922  0.9125  0.7299  0.6163
13048TIP3    H239081   6.038   6.870   5.067 -0.3611  0.4430  0.6435
13049TIP3   OH239082   3.000   7.585   6.329 -0.0370 -0.5056  0.2617
13049TIP3    H139083   2.913   7.624   6.323 -0.4336 -1.3991  0.1582
13049TIP3    H239084   3.060   7.658   6.314 -0.7067  0.6871  3.0643
13050TIP3   OH239085   4.922   0.034   5.861  0.4380  0.0301  0.2980
13050TIP3    H139086   4.855   0.033   5.930 -1.1874 -1.0340 -1.2550
13050TIP3    H239087   4.894   0.105   5.803  2.0368  1.2020  0.9329
13051TIP3   OH239088   3.563   0.249   6.886 -0.2394  0.2378  0.5525
13051TIP3    H139089   3.541   0.178   6.946  1.9807 -0.2621  0.8375
13051TIP3    H239090   3.621   0.208   6.821  1.6159  1.9231  1.1140
13052TIP3   OH239091   6.964   0.049   4.817 -0.0053  0.2221  0.3063
13052TIP3    H139092   6.998   0.137   4.799  1.2305 -0.2026  0.6081
13052TIP3    H239093   6.871   0.055   4.792  0.9562  0.4847 -3.6231
13053TIP3   OH239094   2.329   6.785   5.277  0.3272 -0.3867  0.0236
13053TIP3    H139095   2.276   6.705   5.289  0.6338 -0.6121 -0.1152
13053TIP3    H239096   2.419   6.757   5.293  0.4721 -0.1394 -0.3393
13054TIP3   OH239097   7.615   0.703   6.735 -0.3870  0.0169  0.0560
13054TIP3    H139098   7.554   0.771   6.707 -0.3223  0.7592  1.6332
13054TIP3    H239099   7.610   0.636   6.667  1.5602  2.7862 -2.9921
13055TIP3   OH239100   6.237   0.590   4.726  0.6380 -0.1798  0.2002
13055TIP3    H139101   6.151   0.555   4.702  1.3642 -2.3793  0.6669
13055TIP3    H239102   6.243   0.574   4.820  0.4919  2.3845  0.6691
13056TIP3   OH239103   4.446   6.810   5.982 -0.5670  0.5777 -0.1378
13056TIP3    H139104   4.506   6.878   5.951  0.2208  0.1930  0.5351
13056TIP3    H239105   4.502   6.734   5.999 -1.5494 -0.5209 -1.6854
13057TIP3   OH239106   1.081   1.539   4.289  0.5106  0.0644 -0.2517
13057TIP3    H139107   1.135   1.536   4.368  0.4295 -1.4938 -0.2286
13057TIP3    H239108   0.992   1.525   4.322  0.2972  0.9119 -0.4681
13058TIP3   OH239109   5.777   1.068   6.699 -0.3258  0.3118 -0.2117
13058TIP3    H139110   5.789   0.975   6.718  2.2851  0.8087  0.6733
13058TIP3    H239111   5.703   1.094   6.754 -0.2148 -0.9281  0.5325
13059TIP3   OH239112   8.048   1.007   4.761  0.1351  0.7570 -0.0780
13059TIP3    H139113   8.004   1.068   4.702  0.2233  1.1277  0.2419
13059TIP3    H239114   7.979   0.945   4.787 -0.4644  1.9504  1.2479
13060TIP3   OH239115   6.813   0.231   5.966 -0.0345  0.6144  0.4903
13060TIP3    H139116   6.821   0.322   5.996  0.5753  0.4415  0.8724
13060TIP3    H239117   6.721   0.222   5.941  0.1650  1.6789 -0.6880
13061TIP3   OH239118   6.089   0.257   5.132 -0.1784  0.2945 -0.6785
13061TIP3    H139119   6.094   0.225   5.042 -1.8075  2.6528 -1.6748
13061TIP3    H239120   6.007   0.221   5.166  0.1863 -0.1893 -0.3162
13062TIP3   OH239121   3.414   7.959   6.315 -0.2719  0.3556 -0.7460
13062TIP3    H139122   3.330   8.003   6.334 -0.8204 -1.7355  1.9422
13062TIP3    H239123   3.405   7.872   6.354  2.8431 -0.2259 -1.2124
13063TIP3   OH239124   8.330   2.693   5.716  0.1231 -0.2225  0.1961
13063TIP3    H139125   8.289   2.776   5.694 -0.0348 -0.1276  0.8526
13063TIP3    H239126   8.368   2.662   5.633 -0.5086  0.1103 -0.2194
13064TIP3   OH239127   6.487   1.527   5.091 -0.3538  0.4065 -0.0156
13064TIP3    H139128   6.495   1.443   5.047  0.1336 -0.0843  0.9786
13064TIP3    H239129   6.394   1.536   5.110 -0.7052  1.0439 -1.9204
13065TIP3   OH239130   6.386   0.204   3.785 -0.3632 -1.1596  0.6375
13065TIP3    H139131   6.372   0.298   3.773 -0.8070 -1.0569  1.8792
13065TIP3    H239132   6.300   0.170   3.809 -0.5378 -2.1509 -1.3169
13066TIP3   OH239133   0.592   4.003   1.500  0.2312  0.3505 -0.4185
13066TIP3    H139134   0.562   4.084   1.460 -0.3253  0.6560  0.6111
13066TIP3    H239135   0.523   3.939   1.481 -0.9175  0.9495  1.5929
13067TIP3   OH239136   3.341   6.570   3.926  0.1853  0.0987  0.6883
13067TIP3    H139137   3.435   6.555   3.936 -0.1430 -2.2205  0.4005
13067TIP3    H239138   3.301   6.486   3.945 -1.9207  1.2972  1.7154
13068TIP3   OH239139   6.402   2.227   5.999 -0.3755  0.6298  0.0466
13068TIP3    H139140   6.363   2.173   5.930 -1.1365  1.1449  0.0697
13068TIP3    H239141   6.412   2.313   5.959 -0.7634  0.9138  0.5632
13069TIP3   OH239142   2.960   3.722   1.322 -0.7707 -0.1058  0.1159
13069TIP3    H139143   2.949   3.645   1.378  0.0145 -1.3104 -1.3371
13069TIP3    H239144   2.875   3.766   1.324 -0.4060  0.5482  3.1979
13070TIP3   OH239145   7.336   1.690   6.213 -0.4712  0.2306 -0.0646
13070TIP3    H139146   7.273   1.750   6.172 -0.8122 -0.1008 -0.0289
13070TIP3    H239147   7.288   1.651   6.286 -0.4219 -0.4797 -0.4029
13071TIP3   OH239148   3.518   7.395   6.318 -0.3232  0.2628  0.1021
13071TIP3    H139149   3.467   7.475   6.302  0.9527  1.1111  0.1498
13071TIP3    H239150   3.491   7.367   6.406 -2.4045 -0.6260 -0.7912
13072TIP3   OH239151   7.394   0.164   4.187 -0.7060  0.2044  0.1975
13072TIP3    H139152   7.350   0.235   4.234 -0.3690 -0.0547  0.9256
13072TIP3    H239153   7.325   0.119   4.139 -0.8352  1.3862 -0.7455
13073TIP3   OH239154   2.360   2.014   0.677 -0.1844  0.6688 -0.4742
13073TIP3    H139155   2.324   1.936   0.635  1.2497 -0.0856 -0.3497
13073TIP3    H239156   2.298   2.036   0.745 -0.7158 -0.2353 -0.6610
13074TIP3   OH239157   0.406   4.522   0.782  0.6023  0.2162  0.0823
13074TIP3    H139158   0.312   4.531   0.767  0.7567  0.1440 -0.9532
13074TIP3    H239159   0.436   4.465   0.711  1.3151 -0.2977  0.7915
13075TIP3   OH239160   3.110   5.599   4.629  0.1502  0.3180 -0.8408
13075TIP3    H139161   3.146   5.683   4.655 -0.1606  1.1053 -2.8529
13075TIP3    H239162   3.031   5.620   4.579 -0.5697 -1.2109 -0.3980
13076TIP3   OH239163   4.075   1.296   5.752 -0.2485 -0.4484 -0.0104
13076TIP3    H139164   4.065   1.379   5.706  1.3535  0.3396  1.0379
13076TIP3    H239165   4.157   1.259   5.719  0.0480 -0.6776  0.9637
13077TIP3   OH239166   0.197   4.300   0.889 -0.2162  0.3028 -0.2028
13077TIP3    H139167   0.139   4.225   0.877 -1.4051  1.3087 -0.8367
13077TIP3    H239168   0.283   4.268   0.862  0.0330 -1.9041  2.9304
13078TIP3   OH239169   5.253   0.969   5.364  0.7702  0.3504 -0.3755
13078TIP3    H139170   5.243   0.998   5.455  0.3548 -1.0452  0.0354
13078TIP3    H239171   5.211   1.038   5.312  0.7256  0.9998  0.5102
13079TIP3   OH239172   4.741   7.312   2.370  0.1833  0.5348  0.0723
13079TIP3    H139173   4.760   7.311   2.464 -0.1993  1.9800  0.1772
13079TIP3    H239174   4.803   7.376   2.335  1.1909 -0.9255 -0.8615
13080TIP3   OH239175   3.563   6.178   5.404 -0.7772  0.5655 -0.2362
13080TIP3    H139176   3.619   6.205   5.332  1.2850 -1.8721  0.3886
13080TIP3    H239177   3.607   6.212   5.482 -1.0808  0.1431  0.1220
13081TIP3   OH239178   0.052   3.698   0.133 -0.0683 -0.1942 -0.0953
13081TIP3    H139179   0.049   3.681   0.228 -0.7194  0.9322  0.0974
13081TIP3    H239180  -0.040   3.705   0.107  0.1378  2.4112 -0.2434
13082TIP3   OH239181   5.776   1.152   5.907 -0.6855  0.6765  0.6540
13082TIP3    H139182   5.868   1.166   5.886 -0.8177  0.9175  0.2369
13082TIP3    H239183   5.777   1.107   5.992 -0.0907 -3.5134 -1.4716
13083TIP3   OH239184   6.318   0.941   6.774 -0.0291  0.2479  0.2783
13083TIP3    H139185   6.331   1.036   6.772 -1.5809  0.4969  1.0631
13083TIP3    H239186   6.335   0.916   6.865  0.5116 -0.2530  0.0437
13084TIP3   OH239187   3.012   7.631   5.476 -0.1510  0.8793 -0.0482
13084TIP3    H139188   2.927   7.630   5.430 -0.8858 -0.0051  1.2926
13084TIP3    H239189   3.011   7.712   5.527 -1.0299 -0.0571  1.4605
13085TIP3   OH239190   5.494   7.892   5.479  0.2469 -0.2780  0.0564
13085TIP3    H139191   5.409   7.848   5.483 -0.1528  0.5373  0.6593
13085TIP3    H239192   5.476   7.981   5.507  0.8874  0.5188 -1.9983
13086TIP3   OH239193   7.772   0.229   3.514 -0.1969  0.0247 -0.2091
13086TIP3    H139194   7.706   0.164   3.540 -2.0967  1.3709 -1.4735
13086TIP3    H239195   7.816   0.188   3.440  0.7463 -1.0812  0.9305
13087TIP3   OH239196   3.712   5.393   4.708 -0.0450  0.1628  0.1671
13087TIP3    H139197   3.787   5.386   4.766  1.1238 -0.1611 -1.3590
13087TIP3    H239198   3.689   5.486   4.707  1.1894  0.4699 -0.4087
13088TIP3   OH239199   2.941   7.630   3.850  0.0226  0.1544  0.2766
13088TIP3    H139200   3.011   7.606   3.911  1.2418  1.8830 -0.4054
13088TIP3    H239201   2.985   7.638   3.765 -0.9875  1.2431 -0.1622
13089TIP3   OH239202   1.853   4.195   0.569  0.0783  0.1407  0.5296
13089TIP3    H139203   1.778   4.169   0.516  0.5789  1.3816 -0.8190
13089TIP3    H239204   1.838   4.287   0.590  0.0693 -0.2312  2.2665
13090TIP3   OH239205   6.942   0.198   5.317  0.3690  0.8151  0.5189
13090TIP3    H139206   6.928   0.280   5.366 -0.4822  0.6380  0.5810
13090TIP3    H239207   6.864   0.146   5.334  1.1762 -0.2748  0.9716
13091TIP3   OH239208   5.526   6.560   6.891 -0.2599 -0.4506 -0.6818
13091TIP3    H139209   5.458   6.529   6.951  1.5834 -0.8676  1.2609
13091TIP3    H239210   5.605   6.565   6.945  1.4758 -0.8899 -3.1015
13092TIP3   OH239211   0.964   2.776   0.540  0.5037  0.2195 -0.3759
13092TIP3    H139212   0.973   2.684   0.565  3.2115  0.6157  0.3448
13092TIP3    H239213   1.051   2.800   0.509 -0.3622  2.3616 -1.2179
13093TIP3   OH239214   1.464   4.613   0.670 -0.6916 -0.0339  0.2867
13093TIP3    H139215   1.544   4.644   0.712 -0.3771 -0.3383 -0.0897
13093TIP3    H239216   1.412   4.692   0.656 -0.7332  0.0926  1.1086
13094TIP3   OH239217   4.610   7.287   3.453  0.0793  0.5303 -0.2072
13094TIP3    H139218   4.692   7.324   3.422  0.4194 -1.0835 -1.2659
13094TIP3    H239219   4.617   7.194   3.434 -1.6871  0.2626  0.3864
13095TIP3   OH239220   0.399   0.176   6.609  0.1439  0.5123  0.3440
13095TIP3    H139221   0.390   0.153   6.517 -0.0368  2.1801 -0.0755
13095TIP3    H239222   0.360   0.263   6.616  0.4776  0.5530  1.9225
13096TIP3   OH239223   3.292   6.996   6.231 -0.7771 -0.1150  0.1658
13096TIP3    H139224   3.240   7.022   6.307 -1.1888 -3.0352  0.9622
13096TIP3    H239225   3.363   6.943   6.267  0.1131  0.0417 -1.3214
13097TIP3   OH239226   3.371   1.123   5.323 -0.2163  0.3602 -0.5275
13097TIP3    H139227   3.454   1.170   5.331 -1.2961  2.0982  0.8036
13097TIP3    H239228   3.387   1.038   5.364  0.5053  1.2319  1.0457
13098TIP3   OH239229   0.997   5.595   0.883 -0.5445  0.4263 -0.2982
13098TIP3    H139230   1.041   5.669   0.926 -0.2380  2.0864 -3.3533
13098TIP3    H239231   1.065   5.554   0.830 -1.1361 -1.0642  0.0662
13099TIP3   OH239232   0.128   1.920   6.272  0.1208  0.1821 -0.1170
13099TIP3    H139233   0.099   1.918   6.363 -2.1286 -2.1198 -0.8136
13099TIP3    H239234   0.224   1.915   6.278  0.0154  0.0543  2.1196
13100TIP3   OH239235   6.264   0.548   6.551  0.5784 -0.0502  0.8472
13100TIP3    H139236   6.348   0.512   6.524  0.4321  0.2218  0.0303
13100TIP3    H239237   6.200   0.502   6.496  0.5235  2.8322 -1.6385
13101TIP3   OH239238   7.687   1.204   4.791 -0.7141  0.0487 -0.2768
13101TIP3    H139239   7.706   1.112   4.812 -1.4194 -0.0280  0.0427
13101TIP3    H239240   7.594   1.205   4.771 -0.9395  0.8824  0.7779
13102TIP3   OH239241   7.227   0.691   5.988  0.4884  0.1757 -0.6735
13102TIP3    H139242   7.137   0.697   5.958  0.5091 -2.0826 -1.2951
13102TIP3    H239243   7.280   0.707   5.909  0.5721 -1.8898 -1.0713
13103TIP3   OH239244   3.479   6.415   5.118  0.0250 -0.1887  0.0216
13103TIP3    H139245   3.437   6.354   5.179  0.0722 -0.6251 -0.3794
13103TIP3    H239246   3.509   6.487   5.173 -0.5829 -0.2320  0.4155
13104TIP3   OH239247   0.796   1.136   5.566  0.2739 -0.1612 -0.0532
13104TIP3    H139248   0.724   1.184   5.525  1.0666  0.4747 -0.6969
13104TIP3    H239249   0.852   1.203   5.604  0.7092 -0.6399  0.1627
13105TIP3   OH239250   5.240   0.606   4.945  0.0195  0.3285  0.8430
13105TIP3    H139251   5.152   0.633   4.970 -0.4107  1.0203 -1.3288
13105TIP3    H239252   5.292   0.686   4.947  0.2443  0.1914  0.6393
13106TIP3   OH239253   0.429   0.605   3.603 -0.0183  0.3371  0.2425
13106TIP3    H139254   0.354   0.585   3.659 -0.2762  0.0343 -0.2144
13106TIP3    H239255   0.391   0.623   3.517  0.1532  3.0519  0.6804
13107TIP3   OH239256   8.443   0.235   5.478  0.1413  0.0225  0.2347
13107TIP3    H139257   8.538   0.239   5.481  0.1581  1.3052 -1.0092
13107TIP3    H239258   8.414   0.319   5.513 -0.5335 -0.4422  0.8040
13108TIP3   OH239259   1.502   7.645   6.722 -0.1439  0.5358  0.0981
13108TIP3    H139260   1.516   7.552   6.734 -0.3817  0.5156  0.2315
13108TIP3    H239261   1.408   7.654   6.709 -0.0442  0.6948 -0.5257
13109TIP3   OH239262   2.813   3.627   0.292 -0.1478  0.0080  0.4908
13109TIP3    H139263   2.783   3.681   0.365 -0.0574  0.1588  0.4162
13109TIP3    H239264   2.909   3.631   0.297 -0.1374  0.6482 -0.0956
13110TIP3   OH239265   7.869   0.125   4.766 -0.1166 -0.3752 -0.0561
13110TIP3    H139266   7.800   0.059   4.759 -0.8331  0.3174  0.3956
13110TIP3    H239267   7.863   0.156   4.857 -1.2976  1.9093 -0.8586
13111TIP3   OH239268   4.575   7.047   5.200 -0.7227  0.1385  0.7066
13111TIP3    H139269   4.564   7.141   5.210 -0.9905  0.0424  1.3098
13111TIP3    H239270   4.639   7.038   5.129 -0.8229  0.7673  0.5334
13112TIP3   OH239271   6.720   1.393   5.200 -0.0503 -0.4707  0.4430
13112TIP3    H139272   6.666   1.354   5.270 -0.9762 -0.7886 -0.4378
13112TIP3    H239273   6.657   1.420   5.133  0.8018  0.2181 -0.0894
13113TIP3   OH239274   5.316   7.698   5.928  0.0115  0.0620  0.2070
13113TIP3    H139275   5.300   7.687   6.022  2.2400  1.3092  0.7615
13113TIP3    H239276   5.371   7.623   5.905  1.7284  1.1958  0.5137
13114TIP3   OH239277   4.143   1.940   4.361 -0.1679  0.1390 -0.2138
13114TIP3    H139278   4.103   1.970   4.443  0.2855 -0.2220  0.1414
13114TIP3    H239279   4.081   1.876   4.326 -0.2960  0.1935 -0.0887
13115TIP3   OH239280   2.899   7.093   5.174  0.5299 -0.3861 -0.3057
13115TIP3    H139281   2.992   7.085   5.151  0.5555 -0.3107 -0.2298
13115TIP3    H239282   2.888   7.032   5.248  0.8267  0.5869  0.5616
13116TIP3   OH239283   5.770   7.808   4.751 -0.1436 -0.6010 -0.1875
13116TIP3    H139284   5.838   7.870   4.777 -0.2716  0.4923 -2.3681
13116TIP3    H239285   5.689   7.845   4.784 -0.0160 -0.4807 -0.0132
13117TIP3   OH239286   4.531   6.917   4.649 -0.5015 -0.2381  0.0828
13117TIP3    H139287   4.516   7.002   4.691 -0.8261  1.5343 -3.3636
13117TIP3    H239288   4.444   6.879   4.639 -0.5596 -0.0749 -0.0558
13118TIP3   OH239289   3.803   0.078   4.770 -0.3054 -0.0915  0.2206
13118TIP3    H139290   3.887   0.111   4.803 -0.5158  0.4340  0.2462
13118TIP3    H239291   3.738   0.114   4.830 -0.6551  0.5283 -0.5183
13119TIP3   OH239292   5.814   1.169   4.910 -0.2262 -0.3647 -0.6508
13119TIP3    H139293   5.851   1.184   4.997 -2.0547  2.1820 -0.2458
13119TIP3    H239294   5.883   1.124   4.862  2.1765  1.4275  1.0071
13120TIP3   OH239295   8.371   2.318   6.341 -0.0201 -0.5751  0.3863
13120TIP3    H139296   8.434   2.299   6.271  0.4153 -1.1829  0.9376
13120TIP3    H239297   8.287   2.324   6.296  0.3859 -0.0898 -0.3089
13121TIP3   OH239298   3.906   7.447   5.557 -0.0743 -0.3095 -0.3029
13121TIP3    H139299   3.898   7.360   5.517 -1.5318  0.5122 -1.8076
13121TIP3    H239300   3.851   7.504   5.504  0.2372  1.3967  1.1566
13122TIP3   OH239301   6.564   0.413   5.681 -0.1759  0.1376  0.0008
13122TIP3    H139302   6.483   0.372   5.650  0.2510 -1.3728  0.8479
13122TIP3    H239303   6.539   0.504   5.700 -1.4523 -0.0803 -0.6136
13123TIP3   OH239304   6.965   2.753   6.052  0.4992 -0.0705 -0.0399
13123TIP3    H139305   6.994   2.831   6.100  1.6942 -0.1522 -0.6145
13123TIP3    H239306   6.996   2.680   6.105  1.5345 -0.1595 -0.7631
13124TIP3   OH239307   5.317   7.362   5.612 -0.1411 -0.0406  0.2117
13124TIP3    H139308   5.396   7.398   5.573 -0.5790  0.2678 -0.4032
13124TIP3    H239309   5.321   7.268   5.594  0.1595 -0.0465  0.3151
13125TIP3   OH239310   3.587   0.681   3.235 -0.6501  0.1363 -0.6633
13125TIP3    H139311   3.664   0.698   3.180  0.6720 -0.7062  0.8925
13125TIP3    H239312   3.587   0.752   3.298 -1.3008  0.2666 -0.8077
13126TIP3   OH239313   6.017   5.725   6.643 -0.5967 -0.2575 -0.2362
13126TIP3    H139314   6.073   5.647   6.649  0.1547  0.3537  0.8330
13126TIP3    H239315   5.936   5.693   6.603  0.0358 -1.4103 -0.6254
13127TIP3   OH239316   3.067   5.895   5.355  0.1273  0.3239  0.0949
13127TIP3    H139317   3.118   5.815   5.369 -0.0820  0.5092  2.0306
13127TIP3    H239318   3.117   5.944   5.290  0.9542 -0.7618 -0.1153
13128TIP3   OH239319   2.493   5.842   5.543 -0.2456 -0.2297 -0.3698
13128TIP3    H139320   2.410   5.885   5.564 -0.8218 -0.3947 -2.1477
13128TIP3    H239321   2.469   5.751   5.524  0.7211 -0.9195  1.6453
13129TIP3   OH239322   5.491   1.120   4.130  0.5533 -0.0832 -0.2608
13129TIP3    H139323   5.459   1.036   4.161  0.6051 -0.1494 -0.3838
13129TIP3    H239324   5.473   1.181   4.201 -0.1158 -0.0586 -0.4501
13130TIP3   OH239325   2.335   6.676   3.666  0.3017  0.4089  0.2652
13130TIP3    H139326   2.390   6.710   3.737  0.9684  1.1525 -0.5986
13130TIP3    H239327   2.297   6.753   3.625  3.0051  0.2947 -2.6438
13131TIP3   OH239328   6.530   1.603   3.908  0.2262  0.0177 -0.4851
13131TIP3    H139329   6.614   1.647   3.920  0.9505 -0.9463 -1.8504
13131TIP3    H239330   6.527   1.538   3.978  0.7606 -0.1524 -0.6135
13132TIP3   OH239331   6.385   0.784   6.399 -0.0571 -0.0809  0.9903
13132TIP3    H139332   6.471   0.775   6.358 -1.1649 -0.0202 -1.4347
13132TIP3    H239333   6.350   0.695   6.401  0.3165 -0.2021  2.5770
13133TIP3   OH239334   6.338   0.929   6.167  0.0364 -0.4835  0.3241
13133TIP3    H139335   6.332   0.881   6.250 -0.3107  0.2987  0.7498
13133TIP3    H239336   6.325   1.020   6.190 -0.3322 -0.2860 -0.6345
13134TIP3   OH239337   1.717   7.553   5.619 -0.1660 -0.2105  0.3278
13134TIP3    H139338   1.756   7.469   5.593 -1.9662 -1.3124  1.0976
13134TIP3    H239339   1.729   7.556   5.714  0.0749  0.5176  0.2764
13135TIP3   OH239340   6.156  -0.009   6.652  0.1507 -0.5942  0.0661
13135TIP3    H139341   6.081  -0.007   6.592 -0.3666 -0.2956  0.7044
13135TIP3    H239342   6.172   0.082   6.674  0.5964 -0.6721  0.0675
13136TIP3   OH239343   1.783   4.357   1.324  0.0022 -0.3128  0.4447
13136TIP3    H139344   1.754   4.446   1.304 -0.1776  0.3181  3.3806
13136TIP3    H239345   1.703   4.311   1.348  0.4464 -0.5599  1.4553
13137TIP3   OH239346   3.652   2.784   1.880 -0.0738  0.4384  0.3946
13137TIP3    H139347   3.703   2.864   1.865  2.2312 -1.0706 -0.0179
13137TIP3    H239348   3.624   2.758   1.793  2.1063 -1.0608  0.1040
13138TIP3   OH239349   0.397   1.690   3.042 -0.5149 -0.3898 -0.5864
13138TIP3    H139350   0.459   1.648   2.983  0.1864 -0.1146 -0.0467
13138TIP3    H239351   0.402   1.638   3.122 -0.9244 -0.3212 -0.5154
13139TIP3   OH239352   1.670   0.256   4.334 -0.7053 -0.0807 -0.1884
13139TIP3    H139353   1.729   0.324   4.367  0.7468  0.3614 -3.5050
13139TIP3    H239354   1.620   0.299   4.265 -1.5969 -1.7097 -0.5854
13140TIP3   OH239355   1.027   0.394   4.297  0.2714 -0.4910 -1.0010
13140TIP3    H139356   0.988   0.438   4.373  1.9398  0.8989 -0.9283
13140TIP3    H239357   1.051   0.307   4.329 -0.2953 -0.4066 -0.3303
13141TIP3   OH239358   2.161   1.819   4.412 -0.4413  0.2091 -0.2566
13141TIP3    H139359   2.227   1.777   4.356  0.5890 -0.2630  1.2781
13141TIP3    H239360   2.077   1.799   4.370  0.4387  1.8519 -2.9317
13142TIP3   OH239361   6.818   0.429   4.647 -0.1880  0.7670 -0.0629
13142TIP3    H139362   6.731   0.444   4.685 -0.1429  0.1062  0.2969
13142TIP3    H239363   6.876   0.487   4.697 -0.0061 -0.6088  1.3713
13143TIP3   OH239364   7.085   0.304   4.730  0.2425  0.7281  0.4537
13143TIP3    H139365   7.094   0.399   4.740 -0.4546  0.6698  1.8683
13143TIP3    H239366   7.060   0.291   4.639  0.6527  1.8848  0.1735
13144TIP3   OH239367   4.711   7.778   4.570  0.0606 -0.0360 -0.1538
13144TIP3    H139368   4.771   7.713   4.607 -0.4963 -1.0240 -0.9606
13144TIP3    H239369   4.651   7.800   4.641  0.4802 -0.1211  0.2303
13145TIP3   OH239370   0.163   2.196   2.944  0.2609 -0.4082 -0.3361
13145TIP3    H139371   0.201   2.199   3.032 -1.6054 -0.6426  0.5027
13145TIP3    H239372   0.087   2.254   2.949 -0.1241 -0.7820 -1.6638
13146TIP3   OH239373   7.696   0.318   5.191  0.2373 -0.5211 -0.2450
13146TIP3    H139374   7.656   0.393   5.234 -0.2105 -1.2351  0.6067
13146TIP3    H239375   7.684   0.334   5.098  1.0230  0.9409 -0.1187
13147TIP3   OH239376   6.543   0.931   4.807  0.0520 -0.6845 -0.0318
13147TIP3    H139377   6.595   0.852   4.824 -0.2646 -1.0517 -0.7464
13147TIP3    H239378   6.523   0.965   4.893  0.3304 -1.3004  0.2830
13148TIP3   OH239379   1.522   0.428   4.184  0.4581  0.0352 -0.3342
13148TIP3    H139380   1.452   0.483   4.219 -0.5959 -0.6122 -1.3560
13148TIP3    H239381   1.566   0.483   4.119  1.7945  0.9082  1.2913
13149TIP3   OH239382   1.426   1.993   3.267  0.2335 -0.4010  0.6347
13149TIP3    H139383   1.395   1.971   3.354  1.2288  0.8811  1.3357
13149TIP3    H239384   1.349   1.981   3.210 -0.9813  0.7403  2.0010
13150TIP3   OH239385   5.394   7.669   4.003 -0.3045 -0.3109  0.4352
13150TIP3    H139386   5.359   7.723   4.075  2.5631  2.2174  0.0470
13150TIP3    H239387   5.383   7.724   3.926  2.8510 -0.1433  0.0502
13151TIP3   OH239388   6.299   0.958   5.052 -0.3722 -0.3807 -0.1123
13151TIP3    H139389   6.256   0.959   4.967  0.8416  1.3391 -0.7396
13151TIP3    H239390   6.249   0.895   5.104 -1.5441 -0.9294 -1.8727
13152TIP3   OH239391   0.815   0.434   2.043  0.1976  0.1034  0.3350
13152TIP3    H139392   0.741   0.456   1.987  2.5437  0.6362 -2.6725
13152TIP3    H239393   0.840   0.516   2.085 -0.0520  0.1924  0.3080
13153TIP3   OH239394   1.623   1.419   6.873  0.0345 -0.3835  0.2276
13153TIP3    H139395   1.589   1.330   6.884 -0.1695 -0.2560  0.6363
13153TIP3    H239396   1.556   1.475   6.914  0.5565 -0.1010  0.6924
13154TIP3   OH239397   6.009   7.775   2.422  0.8503  0.4402  0.4375
13154TIP3    H139398   5.955   7.832   2.365 -0.2099  0.4240  1.4118
13154TIP3    H239399   6.051   7.715   2.361  0.6741  1.1995 -0.4592
13155TIP3   OH239400   5.407   7.112   6.391 -0.7110  0.6122  0.2461
13155TIP3    H139401   5.312   7.116   6.405 -0.9683 -0.7720 -1.0488
13155TIP3    H239402   5.435   7.034   6.438 -0.2830  0.7779  0.2641
13156TIP3   OH239403   2.732   2.624   3.396 -0.4275 -0.0004 -0.2063
13156TIP3    H139404   2.809   2.658   3.443  1.2549 -0.7795 -2.3009
13156TIP3    H239405   2.733   2.671   3.313 -1.8199 -0.5515 -0.5417
13157TIP3   OH239406   4.820   6.880   1.974  0.1995  0.1242 -0.3755
13157TIP3    H139407   4.738   6.882   1.925  0.1199 -0.7182 -0.2796
13157TIP3    H239408   4.817   6.959   2.028 -0.4403  0.2192 -0.5429
13158TIP3   OH239409   1.480   1.409   5.510 -0.2530  0.6141 -0.1976
13158TIP3    H139410   1.572   1.400   5.537  0.0269 -0.5096 -1.4957
13158TIP3    H239411   1.431   1.363   5.578  0.3123 -0.5499 -0.5506
13159TIP3   OH239412   8.360   1.342   3.586 -0.2986 -0.1759 -0.0153
13159TIP3    H139413   8.317   1.259   3.607  1.2077 -0.5408  1.7964
13159TIP3    H239414   8.288   1.401   3.562 -1.4467 -1.7893 -0.6371
13160TIP3   OH239415   7.581   1.907   2.701  0.3317 -0.4403  0.4873
13160TIP3    H139416   7.613   1.968   2.635  1.3814 -2.7692 -1.2290
13160TIP3    H239417   7.655   1.848   2.717  0.0429  0.0198  3.6726
13161TIP3   OH239418   8.316   0.205   5.225 -0.3463  0.0503  0.3444
13161TIP3    H139419   8.364   0.241   5.150  0.8271 -1.0893  0.5391
13161TIP3    H239420   8.375   0.218   5.299 -1.5877  1.3564  1.1333
13162TIP3   OH239421   8.151   0.887   3.130  0.2964 -0.1841 -0.2331
13162TIP3    H139422   8.091   0.885   3.055 -0.7210 -3.0083  0.5823
13162TIP3    H239423   8.237   0.901   3.091 -0.6824  2.6678 -1.5284
13163TIP3   OH239424   1.602   2.709   4.048 -0.1407 -0.2513  0.6224
13163TIP3    H139425   1.667   2.684   3.983 -0.5274  1.7146 -0.5541
13163TIP3    H239426   1.521   2.664   4.021 -0.1529  0.0945  0.0954
13164TIP3   OH239427   6.764   0.276   6.737  0.1297 -0.3863 -0.1704
13164TIP3    H139428   6.787   0.289   6.645 -1.1790 -2.3616 -0.8036
13164TIP3    H239429   6.768   0.181   6.749 -1.9664 -0.3112  1.2105
13165TIP3   OH239430   7.380   2.166   4.549 -1.3413 -0.1157  0.1615
13165TIP3    H139431   7.444   2.128   4.488 -1.5517 -3.8978  2.1588
13165TIP3    H239432   7.427   2.238   4.591  0.1834 -0.1237 -1.4654
13166TIP3   OH239433   7.409   1.426   5.491  0.4575  0.2362  0.5653
13166TIP3    H139434   7.353   1.349   5.491  0.4411  0.2472  0.7552
13166TIP3    H239435   7.490   1.397   5.450 -0.7910  1.0467 -2.5610
13167TIP3   OH239436   0.144   2.493   4.809 -0.0310  0.2094  0.2475
13167TIP3    H139437   0.203   2.494   4.734  1.0956 -1.8454  1.0701
13167TIP3    H239438   0.070   2.439   4.782  0.9727 -1.5763  1.0433
13168TIP3   OH239439   1.357   1.127   3.859  0.1721  0.0670  0.1214
13168TIP3    H139440   1.379   1.182   3.784  0.2635 -0.5104 -0.2750
13168TIP3    H239441   1.404   1.168   3.932 -0.3983  0.9836 -0.0085
13169TIP3   OH239442   0.979   1.076   4.640  0.0705  0.5871  0.2134
13169TIP3    H139443   0.972   1.038   4.552  0.8814  0.8257  0.0367
13169TIP3    H239444   1.055   1.134   4.634  0.9804 -0.4638  1.4717
13170TIP3   OH239445   8.336   0.206   6.134  0.2273  0.7099 -0.0231
13170TIP3    H139446   8.260   0.150   6.148 -0.8544  1.7182 -1.7056
13170TIP3    H239447   8.349   0.250   6.218 -1.2139  0.7089  0.2132
13171TIP3   OH239448   0.616   3.950   4.617  0.3338 -0.1476  0.1825
13171TIP3    H139449   0.592   3.943   4.710  2.2351  2.0018  0.8894
13171TIP3    H239450   0.580   4.034   4.589 -1.1271 -1.2542 -1.3537
13172TIP3   OH239451   1.862   1.807   6.283 -0.0261 -0.2087  0.0164
13172TIP3    H139452   1.857   1.826   6.189 -1.1663  0.1943  0.1502
13172TIP3    H239453   1.871   1.893   6.325  2.6235 -0.5147  0.1701
13173TIP3   OH239454   7.583   1.977   4.932 -0.0465  0.3029 -0.3730
13173TIP3    H139455   7.579   1.881   4.932 -1.0836  0.3340  0.9532
13173TIP3    H239456   7.569   2.002   5.023 -0.0790  1.7328 -0.7534
13174TIP3   OH239457   4.961   6.321   5.462 -0.7727 -0.3804 -0.5593
13174TIP3    H139458   4.983   6.415   5.459  0.2347 -0.5622  0.5125
13174TIP3    H239459   4.896   6.309   5.394 -2.0615  1.4122  0.3147
13175TIP3   OH239460   0.098   0.113   6.178 -0.3684 -0.3763 -0.2593
13175TIP3    H139461   0.158   0.160   6.120 -1.0105 -2.4878 -2.7457
13175TIP3    H239462   0.011   0.127   6.140 -0.8602 -1.3712  0.4779
13176TIP3   OH239463   2.774   0.398   2.890 -0.4736  0.3556 -0.1378
13176TIP3    H139464   2.755   0.415   2.798 -0.5722 -0.9413 -0.3695
13176TIP3    H239465   2.700   0.344   2.920 -0.9717  1.6300  0.9794
13177TIP3   OH239466   6.004   7.775   1.955 -0.0838 -0.5011 -0.0225
13177TIP3    H139467   6.067   7.744   1.891 -1.8049 -2.6408 -0.7542
13177TIP3    H239468   5.957   7.696   1.984 -2.4484  0.9984  0.4440
13178TIP3   OH239469   7.637   1.263   3.287 -0.0740  0.0959  0.2498
13178TIP3    H139470   7.721   1.239   3.248  0.8203  3.0813  0.2010
13178TIP3    H239471   7.577   1.270   3.212  0.3273  0.5881 -0.0319
13179TIP3   OH239472   0.302   0.256   4.087  0.1378  0.3705 -0.1089
13179TIP3    H139473   0.229   0.194   4.088  1.5821 -1.3676  1.0785
13179TIP3    H239474   0.320   0.273   4.180  1.3365  0.6698 -0.3914
13180TIP3   OH239475   8.373   0.341   2.763  0.3419  0.1922 -0.1523
13180TIP3    H139476   8.344   0.287   2.689  0.8893 -0.8277  0.3640
13180TIP3    H239477   8.311   0.413   2.766 -0.8184 -0.7760 -0.4199
13181TIP3   OH239478   7.477   0.668   4.852  0.0927  0.4604  0.1839
13181TIP3    H139479   7.418   0.593   4.851  2.2897 -1.3421  0.7858
13181TIP3    H239480   7.511   0.673   4.763  1.7648 -0.7948  0.7237
13182TIP3   OH239481   8.096   0.514   5.403 -0.0907 -0.4905  0.2230
13182TIP3    H139482   8.077   0.547   5.491 -2.4388  0.3986 -0.5853
13182TIP3    H239483   8.187   0.539   5.387  0.3529 -0.6638  2.3918
13183TIP3   OH239484   4.763   7.375   2.905  0.5455 -0.8064 -0.4821
13183TIP3    H139485   4.709   7.345   2.978 -0.5061  0.8524 -0.5506
13183TIP3    H239486   4.850   7.389   2.944  0.5922 -2.1111 -0.0665
13184TIP3   OH239487   5.331   6.946   3.661  0.0724 -0.2148 -0.5362
13184TIP3    H139488   5.248   6.936   3.707  0.0984  1.1248 -0.1542
13184TIP3    H239489   5.397   6.945   3.731  0.2939 -0.3645 -0.7480
13185TIP3   OH239490   3.564   6.563   5.326  0.3175  0.1092  0.5789
13185TIP3    H139491   3.644   6.571   5.275  0.4116  1.0892  0.8825
13185TIP3    H239492   3.579   6.617   5.404 -0.8000  0.6485  0.4314
13186TIP3   OH239493   8.243   0.568   4.767 -0.1915 -0.1016 -0.2017
13186TIP3    H139494   8.301   0.584   4.692  1.1355  2.0624  1.2379
13186TIP3    H239495   8.155   0.587   4.734  0.1217 -1.2272 -1.7702
13187TIP3   OH239496   7.961   7.368   3.153  0.3069 -0.3743  0.1049
13187TIP3    H139497   8.036   7.412   3.191  0.3683 -0.4321  0.0501
13187TIP3    H239498   7.949   7.410   3.067 -0.2941  0.2707  0.4977
13188TIP3   OH239499   2.058   0.784   1.391  0.6740  0.5743  0.1029
13188TIP3    H139500   2.153   0.792   1.399  0.7071 -0.4172  0.8823
13188TIP3    H239501   2.044   0.698   1.352  0.0568  0.1714  1.1885
13189TIP3   OH239502   6.316   6.146   6.007 -0.2114  0.0328  0.3489
13189TIP3    H139503   6.345   6.131   5.917 -0.2848  0.3583  0.2682
13189TIP3    H239504   6.312   6.241   6.015 -1.6454 -0.0042  0.2225
13190TIP3   OH239505   2.504   3.898   3.617 -0.9358  0.1662  0.9205
13190TIP3    H139506   2.415   3.926   3.637 -0.4669  1.2605  1.5533
13190TIP3    H239507   2.545   3.883   3.702 -0.7165 -0.9887  0.6200
13191TIP3   OH239508   0.434   0.228   4.373 -0.0835 -0.8022  0.0606
13191TIP3    H139509   0.517   0.276   4.377 -0.3813 -0.2556 -0.2919
13191TIP3    H239510   0.460   0.136   4.366  0.4971 -0.5890 -0.6109
13192TIP3   OH239511   5.688   7.932   5.121  1.0850  0.6062  0.0240
13192TIP3    H139512   5.656   7.913   5.033  0.6858  2.7057 -0.2981
13192TIP3    H239513   5.653   7.861   5.175  1.9934 -1.1453 -1.6186
13193TIP3   OH239514   4.561   7.851   4.794 -0.1195  0.4276  0.7325
13193TIP3    H139515   4.548   7.763   4.830  0.0030  0.5402  1.0589
13193TIP3    H239516   4.500   7.905   4.844 -2.3745  0.0358 -1.4824
13194TIP3   OH239517   5.868   7.320   5.250 -0.4457  0.6133 -0.2439
13194TIP3    H139518   5.827   7.406   5.262 -0.2934  0.8261 -1.1773
13194TIP3    H239519   5.915   7.328   5.167  1.7316  0.4817  0.9485
13195TIP3   OH239520   7.212   1.214   5.469  0.4053 -0.3059 -0.5155
13195TIP3    H139521   7.172   1.218   5.382 -1.0766 -0.2142  0.1560
13195TIP3    H239522   7.237   1.122   5.479 -0.3662 -0.5381 -0.6350
13196TIP3   OH239523   1.557   2.464   4.828  0.7002  0.0537 -0.2263
13196TIP3    H139524   1.505   2.475   4.908 -2.5174  1.5914 -2.4176
13196TIP3    H239525   1.594   2.376   4.835 -1.0708 -0.5532  2.0730
13197TIP3   OH239526   1.953   1.568   3.458 -0.7534  0.0566  0.4600
13197TIP3    H139527   1.871   1.549   3.411 -0.6820 -1.6850  0.9818
13197TIP3    H239528   1.931   1.555   3.550  0.1625 -0.6821  0.5838
13198TIP3   OH239529   7.589   0.925   3.590  0.2985  0.2625  0.4143
13198TIP3    H139530   7.592   0.934   3.495 -0.3582  1.4399  0.5034
13198TIP3    H239531   7.677   0.895   3.614  0.5679  0.2970 -0.5166
13199TIP3   OH239532   1.195   1.930   2.249 -0.1490  0.4445  0.1883
13199TIP3    H139533   1.134   1.856   2.248 -0.9078  1.0588  0.7760
13199TIP3    H239534   1.191   1.965   2.160  0.5319 -0.4702 -0.2139
13200TIP3   OH239535   0.161   2.197   3.755  0.0002 -0.5362  0.4891
13200TIP3    H139536   0.254   2.179   3.742 -0.0863 -0.3884 -0.3733
13200TIP3    H239537   0.120   2.173   3.672 -0.5481  0.6195  0.4065
13201TIP3   OH239538   7.991   1.219   4.175  0.2062  0.0430 -0.1314
13201TIP3    H139539   7.920   1.276   4.148 -0.0634 -0.5284 -0.6561
13201TIP3    H239540   8.052   1.276   4.223 -0.5876  0.5329  0.2915
13202TIP3   OH239541   1.448   1.599   4.219  0.3308  0.3948 -0.5743
13202TIP3    H139542   1.411   1.574   4.134  1.0355  0.2323 -0.8377
13202TIP3    H239543   1.391   1.668   4.251 -1.0386 -0.8365 -0.3158
13203TIP3   OH239544   8.142   1.696   4.354 -0.3286  0.0424  0.2939
13203TIP3    H139545   8.057   1.682   4.312 -0.7818 -0.7395  1.4587
13203TIP3    H239546   8.206   1.670   4.287 -1.0495 -1.9736  0.3655
13204TIP3   OH239547   0.196   0.629   3.386 -0.7738  0.1906  0.3190
13204TIP3    H139548   0.204   0.614   3.291  0.7375 -2.6646  0.8365
13204TIP3    H239549   0.128   0.568   3.414  0.5005 -0.7371  1.4284
13205TIP3   OH239550   7.205   1.902   5.117 -0.1983  0.9092  0.2196
13205TIP3    H139551   7.174   1.962   5.186 -1.3070  0.8798 -0.2331
13205TIP3    H239552   7.212   1.957   5.039 -0.7320  0.5580 -0.0787
13206TIP3   OH239553   2.008   0.803   5.614  0.7986 -0.4790 -0.4500
13206TIP3    H139554   2.088   0.805   5.561 -0.3836  0.5132 -2.2533
13206TIP3    H239555   1.978   0.712   5.610  0.4316 -0.3027 -1.9543
13207TIP3   OH239556   2.312   3.402   2.864  0.1525  0.7304 -0.1418
13207TIP3    H139557   2.217   3.397   2.852 -0.2449  1.2011  2.4839
13207TIP3    H239558   2.330   3.342   2.935  2.2308 -1.3586 -2.3678
13208TIP3   OH239559   1.365   1.987   5.165  0.1013  0.0981 -0.0306
13208TIP3    H139560   1.374   1.975   5.071  0.3125  1.3573 -0.1792
13208TIP3    H239561   1.272   2.006   5.179 -0.1016 -0.9836  0.1243
13209TIP3   OH239562   7.333   7.776   3.310  0.3873 -0.4027 -0.2949
13209TIP3    H139563   7.390   7.730   3.247 -0.9501 -1.4511 -0.7558
13209TIP3    H239564   7.383   7.854   3.335  1.8438 -1.0878 -1.0270
13210TIP3   OH239565   8.047   3.117   4.198 -0.3187 -0.4734 -0.0341
13210TIP3    H139566   7.968   3.066   4.183  0.1646 -1.3120  0.2811
13210TIP3    H239567   8.090   3.075   4.272  1.2261 -1.0058 -1.1881
13211TIP3   OH239568   6.815   0.952   4.264  0.5041 -0.5310  0.6273
13211TIP3    H139569   6.795   0.868   4.221 -2.9388  1.2550 -1.4820
13211TIP3    H239570   6.767   1.017   4.213  1.5693  2.5254  3.3559
13212TIP3   OH239571   8.235   1.045   6.787 -0.1243 -0.0020 -0.0935
13212TIP3    H139572   8.174   0.974   6.806  0.7922 -0.3820  1.5126
13212TIP3    H239573   8.294   1.046   6.862  0.1099  2.2097 -0.2849
13213TIP3   OH239574   8.062   1.832   4.040 -0.5079  0.3753 -0.0275
13213TIP3    H139575   8.112   1.793   3.967 -0.5721  0.1515  0.0482
13213TIP3    H239576   8.000   1.891   3.997 -1.6138 -0.9412 -0.2548
13214TIP3   OH239577   6.316   7.460   4.770  0.8023 -0.0858  0.0729
13214TIP3    H139578   6.286   7.551   4.782  1.5142  0.0530  0.8306
13214TIP3    H239579   6.352   7.459   4.681  0.1789  0.2006 -0.1896
13215TIP3   OH239580   7.713   0.689   4.976  0.1770 -0.2701  0.3580
13215TIP3    H139581   7.669   0.698   5.061  0.0640  1.2579  0.1505
13215TIP3    H239582   7.643   0.672   4.914  0.2006 -0.8163  0.4766
13216TIP3   OH239583   0.795   0.256   4.243 -0.3946 -0.5916  0.5390
13216TIP3    H139584   0.881   0.283   4.273 -0.2422 -0.7492  0.2512
13216TIP3    H239585   0.760   0.332   4.196 -0.8373 -0.1769  1.5331
13217TIP3   OH239586   7.424   0.812   4.361 -0.1121  0.5723 -0.2185
13217TIP3    H139587   7.501   0.866   4.344 -0.3733  1.0713  0.1991
13217TIP3    H239588   7.385   0.799   4.274  1.8159 -1.7671 -0.7968
13218TIP3   OH239589   1.718   0.919   5.576  0.0121  0.0457  0.1031
13218TIP3    H139590   1.746   0.834   5.544  0.5012  0.1899  0.1466
13218TIP3    H239591   1.797   0.972   5.578 -0.3871  0.6734 -0.4474
13219TIP3   OH239592   2.456   7.448   5.037  1.0054 -0.1375 -0.0927
13219TIP3    H139593   2.462   7.390   5.113  0.0221  0.4110  0.4211
13219TIP3    H239594   2.414   7.395   4.969 -2.5508  0.7829  1.2688
13220TIP3   OH239595   5.341   6.829   3.943  0.2924  0.5324 -0.1340
13220TIP3    H139596   5.332   6.862   4.032 -0.6302  0.0081 -0.0227
13220TIP3    H239597   5.298   6.744   3.945 -1.1110  1.1794 -1.4409
13221TIP3   OH239598   6.940   7.687   3.803 -0.9780  0.3267  0.7085
13221TIP3    H139599   7.031   7.715   3.800 -0.9706  0.2126 -0.7580
13221TIP3    H239600   6.890   7.767   3.785 -1.1099  0.1288  0.1955
13222TIP3   OH239601   0.175   2.274   6.203  0.4365  0.0564  0.6032
13222TIP3    H139602   0.213   2.228   6.128 -0.3592 -0.7335  0.6847
13222TIP3    H239603   0.248   2.285   6.263  1.3341  1.6071 -0.7125
13223TIP3   OH239604   7.960   2.360   1.965 -0.5076 -0.2240 -0.3795
13223TIP3    H139605   7.931   2.434   1.912  1.3271  3.4190  3.3480
13223TIP3    H239606   8.050   2.344   1.938 -0.1625  0.4438  0.3472
13224TIP3   OH239607   4.994   0.469   5.906  0.0855  0.1914 -0.1553
13224TIP3    H139608   4.969   0.494   5.817 -1.2212  2.7248  0.8635
13224TIP3    H239609   5.076   0.421   5.895 -0.0915  0.4023 -2.7321
13225TIP3   OH239610   1.259   1.470   3.794  0.6103  0.3489 -0.0448
13225TIP3    H139611   1.338   1.469   3.740  0.5795  1.5606 -0.1176
13225TIP3    H239612   1.205   1.539   3.757 -1.2889 -1.6214 -1.1118
13226TIP3   OH239613   6.063   1.328   3.177  0.0747  0.5089 -0.3586
13226TIP3    H139614   6.105   1.379   3.246 -1.0400  0.3389  0.4486
13226TIP3    H239615   6.124   1.256   3.161  1.2962  1.6624 -0.9844
13227TIP3   OH239616   1.647   1.832   4.020 -0.4767  0.2209  0.0698
13227TIP3    H139617   1.609   1.876   4.096 -0.2763  1.5172 -0.5764
13227TIP3    H239618   1.572   1.794   3.974 -0.6031 -0.5154  0.8731
13228TIP3   OH239619   2.282   0.476   2.838  0.2413  0.3813  0.3153
13228TIP3    H139620   2.341   0.529   2.783 -0.8803 -0.0120 -1.2963
13228TIP3    H239621   2.336   0.452   2.913  2.8543 -1.7183 -2.1050
13229TIP3   OH239622   0.750   1.204   1.188  0.7382  0.1049 -0.1428
13229TIP3    H139623   0.821   1.181   1.127 -0.3553 -0.6650 -1.1484
13229TIP3    H239624   0.795   1.235   1.266  2.1849  1.3062 -1.4123
13230TIP3   OH239625   4.896   7.123   5.526  0.4811  0.0592  0.3165
13230TIP3    H139626   4.851   7.191   5.476  2.2039  1.9497  1.2603
13230TIP3    H239627   4.840   7.110   5.603  0.7263  1.2299  0.6969
13231TIP3   OH239628   4.604   6.759   6.734  0.3224  0.1413  0.0192
13231TIP3    H139629   4.621   6.853   6.743 -2.3102  1.0148 -3.2100
13231TIP3    H239630   4.509   6.751   6.736  0.4798 -2.3859 -0.5963
13232TIP3   OH239631   7.433   7.737   4.136 -0.0242  0.8470  0.4174
13232TIP3    H139632   7.451   7.821   4.093 -1.8793  0.2108 -1.7148
13232TIP3    H239633   7.398   7.760   4.222  2.4045  2.1870  1.0953
13233TIP3   OH239634   7.300   7.936   4.670  0.1552  0.0186 -0.3425
13233TIP3    H139635   7.374   7.963   4.616 -1.1885  2.1506 -1.1404
13233TIP3    H239636   7.286   8.009   4.731 -0.3687 -1.0002  0.7956
13234TIP3   OH239637   8.505   0.262   4.175  0.1856 -0.3376  0.0533
13234TIP3    H139638   8.468   0.347   4.151  1.0655  0.4968  1.5644
13234TIP3    H239639   8.432   0.213   4.211 -0.3070 -0.1937 -0.7409
13235TIP3   OH239640   0.138   0.044   4.053 -0.5838 -0.2253 -0.1238
13235TIP3    H139641   0.061   0.076   4.007 -0.7415 -2.3347 -1.3724
13235TIP3    H239642   0.139  -0.050   4.036  0.9607 -0.5899  1.8280
13236TIP3   OH239643   5.193   7.938   4.243  0.2172  0.0380 -0.1314
13236TIP3    H139644   5.140   8.008   4.282  2.4894  0.8680  1.5597
13236TIP3    H239645   5.187   7.866   4.306  0.6045 -0.0973 -0.2526
13237TIP3   OH239646   1.041   0.680   5.994  0.0664  0.1756  0.1043
13237TIP3    H139647   1.023   0.587   6.008 -0.7084  0.1098 -1.2978
13237TIP3    H239648   1.134   0.690   6.017  0.0186 -0.8240  0.7693
13238TIP3   OH239649   5.876   6.699   6.380  0.1299 -0.4293 -0.3835
13238TIP3    H139650   5.895   6.659   6.465  0.1446 -0.9429 -0.6269
13238TIP3    H239651   5.944   6.767   6.370  1.4522 -1.7990 -0.9384
13239TIP3   OH239652   0.483   1.828   0.805  0.7317  0.2897  0.1774
13239TIP3    H139653   0.480   1.890   0.732  1.4291  0.2248  0.0854
13239TIP3    H239654   0.474   1.882   0.883 -4.4825 -0.0327 -0.0394
13240TIP3   OH239655   0.229   0.360   1.251  0.5879 -0.4750  0.1034
13240TIP3    H139656   0.321   0.384   1.248  0.8789 -1.4348  1.0207
13240TIP3    H239657   0.229   0.268   1.278 -0.6061 -0.7195 -0.6825
13241TIP3   OH239658   1.925   0.924   6.097 -0.1756 -0.1578  0.0733
13241TIP3    H139659   1.983   0.850   6.116 -1.4255 -0.6254  2.2589
13241TIP3    H239660   1.876   0.938   6.178 -1.3084  1.8676 -0.9084
13242TIP3   OH239661   7.627   5.608   1.215  0.4826  0.0355 -0.5831
13242TIP3    H139662   7.643   5.691   1.260 -2.5894  0.0592  0.5697
13242TIP3    H239663   7.702   5.597   1.157  2.0411  2.4991  0.8998
13243TIP3   OH239664   5.790   7.037   3.186  0.1284 -0.1877 -0.7060
13243TIP3    H139665   5.880   7.070   3.180 -0.3523  1.3833  0.5341
13243TIP3    H239666   5.791   6.980   3.263 -0.0975  0.3883 -0.2717
13244TIP3   OH239667   8.260   7.923   3.902  0.2451  0.0115  0.5578
13244TIP3    H139668   8.282   7.958   3.988 -0.4399 -0.6711  1.0176
13244TIP3    H239669   8.336   7.872   3.876  0.7440  0.8044  0.4357
13245TIP3   OH239670   2.483   1.215   1.446  0.1845  0.3624 -0.0950
13245TIP3    H139671   2.517   1.286   1.501  1.0420  0.6013 -0.9104
13245TIP3    H239672   2.498   1.136   1.498  0.9899  0.5832  0.0137
13246TIP3   OH239673   0.238   1.984   4.633  0.6268  0.3205  0.6291
13246TIP3    H139674   0.216   1.891   4.640  1.3201  0.2325  1.8139
13246TIP3    H239675   0.233   2.016   4.723  2.1447  1.0273  0.4671
13247TIP3   OH239676   0.305   0.011   3.786  0.3371  0.5270 -0.3183
13247TIP3    H139677   0.324   0.093   3.741 -0.7347  0.5652 -0.7044
13247TIP3    H239678   0.262   0.037   3.868  0.5793  0.3750 -0.1408
13248TIP3   OH239679   4.118   7.135   5.588 -0.3342  0.4251  0.0914
13248TIP3    H139680   4.108   7.050   5.545  0.8428  0.7483 -0.8767
13248TIP3    H239681   4.049   7.189   5.551 -0.6682  0.0811  0.2089
13249TIP3   OH239682  -0.008   1.491   3.157 -0.3155 -0.4626 -0.2465
13249TIP3    H139683  -0.044   1.569   3.199  1.6332 -0.4262  1.4306
13249TIP3    H239684   0.061   1.524   3.100  0.5685 -0.9323  0.5297
13250TIP3   OH239685   5.410   6.190   4.803 -0.2982 -0.2590 -0.2351
13250TIP3    H139686   5.379   6.108   4.766 -0.5651 -0.1022 -0.3587
13250TIP3    H239687   5.433   6.244   4.727  0.5034 -0.4567 -0.1450
13251TIP3   OH239688   7.110   6.091   4.612 -0.4591 -0.3767  0.1327
13251TIP3    H139689   7.121   6.080   4.518  1.0852  0.2976  0.2269
13251TIP3    H239690   7.176   6.155   4.637 -0.8318 -0.5710  1.6888
13252TIP3   OH239691   4.271   7.762   4.323 -0.0354  0.0813 -0.7198
13252TIP3    H139692   4.219   7.712   4.260 -1.0216 -0.4055  0.4749
13252TIP3    H239693   4.209   7.822   4.364  0.6268  0.4581 -0.2665
13253TIP3   OH239694   4.606   7.980   5.549  0.2062  0.1304  0.1192
13253TIP3    H139695   4.691   7.976   5.594  1.3533  0.3721 -1.9609
13253TIP3    H239696   4.573   7.890   5.553  0.3445  0.1176  1.3122
13254TIP3   OH239697   8.025   2.480   4.079  0.5391  0.1615 -0.7884
13254TIP3    H139698   7.954   2.418   4.065 -1.0634  1.8084 -0.1859
13254TIP3    H239699   8.086   2.464   4.007  0.2629 -2.2287 -0.5261
13255TIP3   OH239700   1.460   7.088   1.051  0.1776 -0.1108 -0.9439
13255TIP3    H139701   1.464   7.051   0.963  0.3624  0.1646 -1.0535
13255TIP3    H239702   1.462   7.183   1.037 -0.2757 -0.0582 -0.6668
13256TIP3   OH239703   6.445   1.586   4.704  0.0007 -0.3900 -0.4727
13256TIP3    H139704   6.511   1.530   4.662  0.1156  0.1403 -0.9959
13256TIP3    H239705   6.370   1.528   4.718  0.1808 -0.7168 -0.8630
13257TIP3   OH239706   1.811   3.086   1.987 -0.1244 -0.6663 -0.9076
13257TIP3    H139707   1.782   3.064   1.898  0.1346 -0.1832 -1.1154
13257TIP3    H239708   1.730   3.103   2.034 -0.3348 -2.1474 -0.7135
13258TIP3   OH239709   8.407   0.996   3.587 -0.5729  0.3672  0.2543
13258TIP3    H139710   8.485   0.978   3.534  0.4315  3.9009  0.4090
13258TIP3    H239711   8.337   1.008   3.522 -0.5694 -0.7840  0.0218
13259TIP3   OH239712   5.779   6.942   6.174 -0.6755 -0.3312 -0.2624
13259TIP3    H139713   5.812   6.990   6.250  0.6222 -0.7306 -0.5699
13259TIP3    H239714   5.737   7.010   6.120 -0.2640  0.2016  0.0799
13260TIP3   OH239715   0.871   0.870   2.342 -0.2939 -0.5830  0.6105
13260TIP3    H139716   0.825   0.931   2.399  0.6559  0.0490  0.7211
13260TIP3    H239717   0.917   0.926   2.279 -0.9467 -1.2579 -0.4675
13261TIP3   OH239718   2.272   0.675   3.533  0.3451  0.6102 -0.2699
13261TIP3    H139719   2.304   0.628   3.610  0.3370 -0.2857 -0.8202
13261TIP3    H239720   2.222   0.611   3.483 -1.3724  1.6918 -0.0167
13262TIP3   OH239721   1.479   1.551   3.635 -0.0583 -0.2038  0.2415
13262TIP3    H139722   1.484   1.551   3.540  1.2595  0.1063  0.3064
13262TIP3    H239723   1.555   1.602   3.664  1.4768 -3.0769  1.5214
13263TIP3   OH239724   7.962   0.330   5.760 -0.8299  0.0465 -0.3486
13263TIP3    H139725   7.886   0.279   5.731  1.5225 -3.2158 -0.9716
13263TIP3    H239726   7.970   0.311   5.853 -1.9964  2.0726  0.1913
13264TIP3   OH239727   7.644   1.275   5.428 -0.1234 -0.3185  0.0117
13264TIP3    H139728   7.688   1.327   5.496  1.9986 -1.9082 -0.1052
13264TIP3    H239729   7.643   1.186   5.463 -1.0600 -0.7432 -1.0744
13265TIP3   OH239730   5.228   7.950   5.986  0.0826 -0.6792 -0.8019
13265TIP3    H139731   5.288   7.878   5.964 -0.5580 -1.6034  0.3988
13265TIP3    H239732   5.162   7.948   5.917  0.9208 -0.2718 -1.6088
13266TIP3   OH239733   3.027   4.579   0.848  0.8028 -0.2468  0.0726
13266TIP3    H139734   3.079   4.612   0.920  2.7515 -1.3845 -0.7955
13266TIP3    H239735   2.982   4.502   0.883 -0.5574  0.9032  0.9045
13267TIP3   OH239736   3.008   0.884   3.333  0.4574  0.1698  0.1618
13267TIP3    H139737   2.967   0.947   3.273  0.1964  0.2749  0.4515
13267TIP3    H239738   3.025   0.934   3.412  1.7092  0.2857 -0.1669
13268TIP3   OH239739   6.804   8.011   4.821  0.2824 -0.0132  0.3823
13268TIP3    H139740   6.712   8.034   4.835  0.3049  0.6644 -0.5366
13268TIP3    H239741   6.817   7.932   4.873 -0.1873  1.2352  2.4419
13269TIP3   OH239742   7.029   7.692   4.257  0.3689 -0.4466 -0.2340
13269TIP3    H139743   7.081   7.617   4.287  0.6110  0.0185  0.5050
13269TIP3    H239744   6.997   7.733   4.337  0.4090  0.3659 -0.6335
13270TIP3   OH239745   0.169   0.280   3.692 -0.0349 -0.7203  0.7550
13270TIP3    H139746   0.244   0.299   3.749  0.0470 -2.0135  1.0943
13270TIP3    H239747   0.207   0.232   3.618 -0.4832 -1.1399  0.7924
13271TIP3   OH239748   1.783   2.407   3.247  0.2220 -0.3041  0.4405
13271TIP3    H139749   1.703   2.391   3.297 -0.4590 -2.7765 -1.3902
13271TIP3    H239750   1.754   2.418   3.157  1.9428 -1.4053 -0.2697
13272TIP3   OH239751   8.013   7.196   3.888 -0.6412 -0.4055 -0.0423
13272TIP3    H139752   8.073   7.228   3.956  0.7258 -1.1699 -0.8537
13272TIP3    H239753   7.962   7.128   3.932  1.4530 -2.1563 -0.1762
13273TIP3   OH239754   1.320   1.823   3.548  0.3695 -0.8182  0.3744
13273TIP3    H139755   1.264   1.807   3.624  0.8386  0.0442  0.9165
13273TIP3    H239756   1.313   1.744   3.496 -2.3806 -0.2155 -0.2428
13274TIP3   OH239757   0.719   7.496   3.599  0.2945 -0.3289  0.0929
13274TIP3    H139758   0.733   7.461   3.687  1.4876  1.5511  0.6664
13274TIP3    H239759   0.629   7.474   3.579  0.3883 -1.8804  1.2826
13275TIP3   OH239760   1.907   1.538   2.870 -0.0208 -0.4609  0.0758
13275TIP3    H139761   1.946   1.625   2.878  1.6319 -1.3153  1.4717
13275TIP3    H239762   1.972   1.479   2.906 -1.5633 -2.1908  0.0873
13276TIP3   OH239763   6.987   6.725   3.713 -0.6175  0.6369 -0.6092
13276TIP3    H139764   7.079   6.737   3.733 -0.3482 -0.0394 -1.4190
13276TIP3    H239765   6.942   6.740   3.796  0.4379 -1.9702  0.4693
13277TIP3   OH239766   4.059   7.863   5.337 -0.6486 -0.2154  0.0627
13277TIP3    H139767   3.976   7.907   5.319 -0.9951 -0.1653  1.6902
13277TIP3    H239768   4.098   7.913   5.409 -0.1250 -1.3978  0.6165
13278TIP3   OH239769   2.141   0.036   3.876  0.1912  0.1477 -0.1363
13278TIP3    H139770   2.106   0.115   3.917 -1.7255 -0.0534 -1.2876
13278TIP3    H239771   2.164  -0.021   3.950 -0.6012  0.8708  0.6831
13279TIP3   OH239772   1.320   0.532   4.598 -0.3210  0.2074 -0.1759
13279TIP3    H139773   1.309   0.441   4.572 -1.9167  0.2208  0.4170
13279TIP3    H239774   1.295   0.535   4.690  1.5478  0.9014  0.3525
13280TIP3   OH239775   2.394   1.476   2.792 -0.1750 -0.1852 -0.0959
13280TIP3    H139776   2.440   1.554   2.824  0.3659 -1.0648  1.3418
13280TIP3    H239777   2.433   1.404   2.842 -0.5948 -1.3897 -1.4825
13281TIP3   OH239778   0.942   6.881   4.145 -0.4562  0.4128  0.9082
13281TIP3    H139779   0.955   6.787   4.128  0.0318  0.6956 -0.3184
13281TIP3    H239780   0.907   6.884   4.234 -2.2850 -1.0558  0.2676
13282TIP3   OH239781   7.263   8.022   2.334 -0.3911 -0.0090 -0.1773
13282TIP3    H139782   7.235   7.934   2.312 -0.7320  0.2759 -0.8962
13282TIP3    H239783   7.181   8.072   2.341 -0.1071  0.6810 -1.6513
13283TIP3   OH239784   1.074   0.054   2.509  0.1521 -0.7455 -0.2497
13283TIP3    H139785   0.982   0.056   2.481  0.0019 -0.4308  0.2527
13283TIP3    H239786   1.122   0.023   2.432 -0.1340  1.1658 -1.2403
13284TIP3   OH239787   1.527   1.838   1.121 -0.7933  0.1837  0.1937
13284TIP3    H139788   1.561   1.928   1.113 -0.0118 -0.2130 -1.1453
13284TIP3    H239789   1.549   1.812   1.211 -0.1084  0.9674  0.2597
13285TIP3   OH239790   8.042   1.781   1.656  0.3460 -0.1671 -0.4888
13285TIP3    H139791   8.031   1.851   1.720  0.7287 -1.3411  0.8806
13285TIP3    H239792   8.106   1.816   1.594 -0.3437  1.1422 -0.4924
13286TIP3   OH239793   5.549   7.121   6.808 -0.7258  0.1055  0.7966
13286TIP3    H139794   5.533   7.188   6.742  0.8582 -0.7156 -0.4438
13286TIP3    H239795   5.466   7.115   6.857 -0.4073  4.0705  1.9981
13287TIP3   OH239796   1.926   1.196   3.070 -0.2262  0.2189 -0.0977
13287TIP3    H139797   1.941   1.132   3.140 -0.8659  0.1028 -0.0588
13287TIP3    H239798   1.989   1.266   3.087  0.8207 -0.6215 -0.4191
13288TIP3   OH239799   6.573   7.104   3.535 -0.3816 -0.5050  0.7556
13288TIP3    H139800   6.503   7.089   3.471  1.0787  2.0610 -1.5851
13288TIP3    H239801   6.537   7.170   3.594  0.5086  2.0074 -1.3879
13289TIP3   OH239802   1.789   2.156   2.938  0.0558  0.2155 -0.0046
13289TIP3    H139803   1.748   2.132   3.021  1.7120 -0.1413  0.7175
13289TIP3    H239804   1.721   2.206   2.891 -0.7437  0.7690  1.7206
13290TIP3   OH239805   0.270   1.664   3.955  0.7154 -0.2901 -0.1173
13290TIP3    H139806   0.358   1.630   3.970  1.0112  1.1957  1.6621
13290TIP3    H239807   0.215   1.619   4.018  0.5153  0.0708 -0.0312
13291TIP3   OH239808   6.094   6.676   3.922  0.0359 -0.6631 -0.0379
13291TIP3    H139809   6.163   6.669   3.987 -0.2939  4.2433  0.9681
13291TIP3    H239810   6.137   6.652   3.839  2.0311 -0.9284  1.0422
13292TIP3   OH239811   8.379   6.789   2.834  0.0655  0.0640  0.2448
13292TIP3    H139812   8.311   6.835   2.883  1.3570  2.8738 -0.4806
13292TIP3    H239813   8.332   6.732   2.774 -1.7016  2.0978 -0.3720
13293TIP3   OH239814   1.769   7.076   4.730 -0.0173 -0.2644 -0.1471
13293TIP3    H139815   1.862   7.075   4.708  0.2343 -0.1934  0.8843
13293TIP3    H239816   1.738   7.162   4.702  0.7979  0.6796  1.7756
13294TIP3   OH239817   7.351   5.130   0.323  0.5285 -0.2063  0.2904
13294TIP3    H139818   7.384   5.101   0.238  1.3363  0.2813  0.4296
13294TIP3    H239819   7.265   5.090   0.331  1.3191 -1.9889  0.1506
13295TIP3   OH239820   5.680   5.355   1.162 -0.3964  0.6758 -0.0751
13295TIP3    H139821   5.628   5.296   1.107  0.4126 -0.4597  0.3458
13295TIP3    H239822   5.724   5.296   1.224 -0.5544  1.8464  1.1654
13296TIP3   OH239823   0.432   3.873   0.836  0.6505  0.2809 -0.0307
13296TIP3    H139824   0.451   3.835   0.751 -0.7720 -0.7543  0.1079
13296TIP3    H239825   0.483   3.821   0.898 -1.3535 -1.5058  0.1688
13297TIP3   OH239826   7.468   5.160   1.165 -0.1984  0.6287 -0.1719
13297TIP3    H139827   7.505   5.248   1.165  0.1229  0.5057 -0.9873
13297TIP3    H239828   7.543   5.103   1.186  0.1950  0.3487 -2.1639
13298TIP3   OH239829   1.090   0.053   1.429 -0.9163 -0.9944  0.4184
13298TIP3    H139830   1.133   0.139   1.427 -0.6068 -1.1700 -0.9616
13298TIP3    H239831   0.998   0.072   1.443 -0.6737 -0.5099  1.4152
13299TIP3   OH239832   5.910   5.304   0.227  0.0008 -0.4527 -0.1758
13299TIP3    H139833   5.950   5.352   0.300 -0.0187  0.4797 -0.7594
13299TIP3    H239834   5.844   5.365   0.193 -0.4602 -1.1517 -0.5455
13300TIP3   OH239835   5.027   7.266   1.176 -0.7128  0.2147 -0.2045
13300TIP3    H139836   5.094   7.283   1.110 -0.6701 -0.0491 -0.2309
13300TIP3    H239837   4.977   7.348   1.181  2.2116  1.9463  2.8532
13301TIP3   OH239838   7.409   5.400   0.905 -0.9764  0.1082  0.3384
13301TIP3    H139839   7.390   5.480   0.954 -1.3048 -0.3876  1.0341
13301TIP3    H239840   7.354   5.333   0.947 -1.3350 -0.3021 -0.7738
13302TIP3   OH239841   4.817   0.191   6.755 -0.4754 -0.4487 -0.0279
13302TIP3    H139842   4.853   0.123   6.697  0.4604  1.0460 -1.2497
13302TIP3    H239843   4.773   0.252   6.696 -2.4333 -0.6426  1.1849
13303TIP3   OH239844   7.734   5.243   2.411  0.3855  0.2274  0.3419
13303TIP3    H139845   7.649   5.267   2.374  0.9501  0.2047 -1.0185
13303TIP3    H239846   7.720   5.157   2.450 -0.3555  0.4798  0.6363
13304TIP3   OH239847   5.070   1.134   6.569 -0.5062  0.0720  0.1804
13304TIP3    H139848   5.075   1.208   6.630  0.2821  0.1410  0.0385
13304TIP3    H239849   4.976   1.115   6.562 -0.6682  0.6540  0.7033
13305TIP3   OH239850   8.306   5.257   1.853  0.3089 -0.4188 -0.4183
13305TIP3    H139851   8.271   5.171   1.879  0.8549 -0.0950  1.4620
13305TIP3    H239852   8.273   5.317   1.920  1.5165  0.5009 -0.6428
13306TIP3   OH239853   1.614   6.332   1.176 -0.3045 -0.0606 -0.2203
13306TIP3    H139854   1.702   6.331   1.214 -0.3513 -0.7213 -0.1150
13306TIP3    H239855   1.589   6.239   1.171 -0.2628 -0.0034 -1.9581
13307TIP3   OH239856   8.413   5.001   2.503 -0.0897 -0.0925  0.2369
13307TIP3    H139857   8.495   4.985   2.550 -0.3205 -0.4594  0.5217
13307TIP3    H239858   8.439   5.055   2.428  0.8121 -2.0826 -0.9657
13308TIP3   OH239859   5.627   6.330   2.114 -0.0950 -0.6281  0.3149
13308TIP3    H139860   5.702   6.304   2.060  1.2713 -0.0344  1.8789
13308TIP3    H239861   5.608   6.254   2.168 -1.2944 -1.1339 -0.8159
13309TIP3   OH239862   8.200   5.982   1.288  0.3249 -0.1703  0.1733
13309TIP3    H139863   8.252   5.922   1.234  1.9571  0.6561  0.7975
13309TIP3    H239864   8.109   5.956   1.271  0.9284 -1.7782 -0.7851
13310TIP3   OH239865   8.294   4.622   0.839 -0.3442 -0.2817 -0.4016
13310TIP3    H139866   8.368   4.677   0.868 -0.4282 -0.1955 -0.3472
13310TIP3    H239867   8.312   4.536   0.876 -0.9824  0.0821  0.8022
13311TIP3   OH239868   7.981   5.826   1.037  0.3556 -0.8862 -0.4439
13311TIP3    H139869   7.961   5.851   1.127 -0.5028 -0.9398 -0.6184
13311TIP3    H239870   8.003   5.908   0.993 -0.4830 -0.6843 -0.5036
13312TIP3   OH239871   1.918   6.510   6.325  0.2515 -0.5627  0.2774
13312TIP3    H139872   1.859   6.530   6.253 -2.0289 -1.0883  1.9479
13312TIP3    H239873   1.955   6.594   6.351 -3.0297  0.4745  1.9367
13313TIP3   OH239874   4.531   0.972   5.817 -0.0361 -0.0512 -0.6089
13313TIP3    H139875   4.613   0.960   5.768  0.5444  2.4286 -0.3347
13313TIP3    H239876   4.466   0.992   5.750 -0.1367 -0.7220 -0.7141
13314TIP3   OH239877   4.140   1.777   6.904 -0.4227 -0.2663 -0.5294
13314TIP3    H139878   4.130   1.712   6.834 -0.9869 -0.0428 -0.6664
13314TIP3    H239879   4.218   1.827   6.879  0.1570 -1.0463 -0.2908
13315TIP3   OH239880   2.505   4.043   2.398  0.6017 -0.2229 -0.0384
13315TIP3    H139881   2.469   4.129   2.377 -0.6770 -0.7877 -0.1730
13315TIP3    H239882   2.435   3.998   2.446  1.1886 -1.2544 -0.1258
13316TIP3   OH239883   7.684   5.268   1.364 -0.6849 -0.1135 -0.1826
13316TIP3    H139884   7.700   5.221   1.445  1.0223  0.1921 -0.3318
13316TIP3    H239885   7.767   5.265   1.317 -0.9000  1.9284 -0.7716
13317TIP3   OH239886   0.795   7.099   0.693  0.4571 -0.2019 -0.3801
13317TIP3    H139887   0.835   7.108   0.780  2.6107 -0.2139 -1.3227
13317TIP3    H239888   0.701   7.104   0.709  0.8603  1.4885  1.7574
13318TIP3   OH239889   0.223   3.938   1.283  0.4234  0.2442 -0.2123
13318TIP3    H139890   0.210   3.843   1.287  1.2126  0.1553  0.2029
13318TIP3    H239891   0.189   3.970   1.366 -0.1320  0.3693 -0.4799
13319TIP3   OH239892   7.808   4.402   1.061  0.0831  0.1809  0.3556
13319TIP3    H139893   7.831   4.353   1.140  2.3721  2.5245  1.2154
13319TIP3    H239894   7.757   4.340   1.008  0.0681 -2.0120  2.8396
13320TIP3   OH239895   0.080   7.419   1.466  0.0345  0.0741  0.3618
13320TIP3    H139896   0.092   7.329   1.497  0.4947  0.2591  0.7390
13320TIP3    H239897   0.007   7.414   1.405 -1.0759 -0.2703  1.6908
13321TIP3   OH239898   5.249   5.989   2.179 -0.3480 -0.1313 -0.2813
13321TIP3    H139899   5.311   5.973   2.250  0.6144  1.6787 -0.6892
13321TIP3    H239900   5.200   5.907   2.172  0.5443 -0.8509  1.4696
13322TIP3   OH239901   0.535   5.238   0.346 -0.2902 -0.5274 -0.0325
13322TIP3    H139902   0.545   5.166   0.284  0.6759 -1.8332  1.6080
13322TIP3    H239903   0.590   5.214   0.420  1.3785  2.7130 -0.1491
13323TIP3   OH239904   1.649   1.198   6.217  0.2548  0.7098 -0.0760
13323TIP3    H139905   1.625   1.109   6.240  1.4251  0.2598 -0.5336
13323TIP3    H239906   1.703   1.189   6.138  1.3134  1.7082  0.5050
13324TIP3   OH239907   6.767   4.177   1.493 -0.1926  0.0957 -0.1812
13324TIP3    H139908   6.833   4.120   1.533  0.5101 -0.0515 -1.5296
13324TIP3    H239909   6.705   4.194   1.564  2.1004  1.5274  1.5521
13325TIP3   OH239910   0.290   5.307   3.484  0.4987 -0.0989  0.6377
13325TIP3    H139911   0.301   5.385   3.539 -0.9068  1.3510 -1.0623
13325TIP3    H239912   0.350   5.320   3.411  0.9546 -1.0949  0.8200
13326TIP3   OH239913   7.768   5.101   1.571 -0.4826  0.2782 -0.2059
13326TIP3    H139914   7.704   5.065   1.632  2.1454 -0.7497  2.0090
13326TIP3    H239915   7.824   5.157   1.624  1.4999 -0.1611 -1.7644
13327TIP3   OH239916   7.915   3.705   1.619 -0.3579 -0.5497  0.2128
13327TIP3    H139917   7.856   3.689   1.693 -0.2357 -3.3557 -0.2325
13327TIP3    H239918   7.856   3.716   1.544 -0.3917 -0.8441  0.1958
13328TIP3   OH239919   7.636   6.013   0.125  0.0942 -0.4703 -0.0876
13328TIP3    H139920   7.712   5.986   0.177 -0.4047  0.2224  1.0356
13328TIP3    H239921   7.647   5.969   0.041  1.0741 -1.3952  0.5110
13329TIP3   OH239922   8.341   5.818   1.088  0.3541 -0.2540 -0.0746
13329TIP3    H139923   8.292   5.740   1.112  1.4613 -1.6895 -2.2667
13329TIP3    H239924   8.432   5.790   1.090  0.6624  0.4107 -2.6806
13330TIP3   OH239925   8.181   3.042   1.359  0.4447 -0.7256 -0.4728
13330TIP3    H139926   8.200   3.136   1.359  1.8657 -0.9414  2.0213
13330TIP3    H239927   8.096   3.035   1.402  0.3964 -0.5777 -0.5418
13331TIP3   OH239928   7.928   7.522   2.929 -0.5455  0.4230  0.0236
13331TIP3    H139929   7.883   7.572   2.861  0.0671  1.2646  0.2204
13331TIP3    H239930   8.014   7.564   2.937 -0.5833  0.3002  1.2589
13332TIP3   OH239931   0.725   5.700   1.542  0.1275  0.4190  0.2339
13332TIP3    H139932   0.735   5.630   1.478  2.9715 -0.5753  1.6801
13332TIP3    H239933   0.705   5.654   1.624  1.9644  1.2624  1.1857
13333TIP3   OH239934   4.721   1.456   6.242 -0.2762 -0.2072  0.2647
13333TIP3    H139935   4.652   1.411   6.193 -0.5122 -0.2902  0.6659
13333TIP3    H239936   4.727   1.543   6.203  2.0067 -1.4344 -2.2824
13334TIP3   OH239937   7.662   3.907   2.582  0.1106  0.3848 -0.2011
13334TIP3    H139938   7.630   3.837   2.524 -0.1129 -0.2703  0.7082
13334TIP3    H239939   7.592   3.919   2.646 -0.1122  1.8794 -0.7235
13335TIP3   OH239940   0.216   6.734   0.886 -0.1116  0.2446  0.3287
13335TIP3    H139941   0.169   6.802   0.838  0.4494 -0.6443 -1.5070
13335TIP3    H239942   0.157   6.659   0.886  0.0372  0.1249  0.7515
13336TIP3   OH239943   0.099   4.886   0.198 -0.2248 -0.3159 -0.3039
13336TIP3    H139944   0.082   4.806   0.247  0.6993 -0.9652 -1.0296
13336TIP3    H239945   0.054   4.955   0.248 -1.8458 -1.4149 -0.1920
13337TIP3   OH239946   8.127   6.620   2.297 -0.6224 -0.0151 -0.2657
13337TIP3    H139947   8.059   6.685   2.315 -0.7691 -0.2893  0.1891
13337TIP3    H239948   8.208   6.663   2.324 -0.9335 -0.7483  1.9781
13338TIP3   OH239949   5.613   1.675   6.041 -0.0043 -0.3476 -0.6481
13338TIP3    H139950   5.632   1.583   6.058  0.9177 -0.2351 -1.0867
13338TIP3    H239951   5.692   1.722   6.068 -1.0422  0.4791  1.0692
13339TIP3   OH239952   7.325   5.418   0.023  0.5372  0.4669 -0.4252
13339TIP3    H139953   7.294   5.329   0.038  1.8590  0.1067  0.1612
13339TIP3    H239954   7.289   5.468   0.096  0.9809  0.1268  0.0330
13340TIP3   OH239955   0.547   6.048   0.061 -0.8826 -0.1407 -1.0596
13340TIP3    H139956   0.596   6.130   0.063  0.5300 -0.9553 -1.5140
13340TIP3    H239957   0.471   6.064   0.116  2.1979 -0.2989  3.5104
13341TIP3   OH239958   6.861   6.162   4.635  0.2939 -0.1981 -0.1240
13341TIP3    H139959   6.880   6.168   4.541  0.5772  0.5165 -0.0220
13341TIP3    H239960   6.947   6.147   4.675  0.4525  1.5296  0.2027
13342TIP3   OH239961   4.746   1.393   6.517 -0.4119  0.2653 -0.3258
13342TIP3    H139962   4.734   1.299   6.501 -1.4605  0.3459 -0.0257
13342TIP3    H239963   4.755   1.431   6.430 -0.7060 -0.0185 -0.4798
13343TIP3   OH239964   6.561   7.483   0.285 -0.1699 -0.2280 -0.0612
13343TIP3    H139965   6.504   7.439   0.347 -1.5405 -0.6229 -1.5601
13343TIP3    H239966   6.641   7.429   0.283 -2.0565 -3.0592 -2.3236
13344TIP3   OH239967   7.086   6.128   0.225 -0.1238 -0.0966 -0.3702
13344TIP3    H139968   7.088   6.211   0.178  2.1891  0.5112  0.7229
13344TIP3    H239969   7.003   6.088   0.200 -1.3697  2.6202 -0.7744
13345TIP3   OH239970   2.120   6.819   0.961  0.2376  0.9272  0.3621
13345TIP3    H139971   2.064   6.866   0.899  0.2145  0.9865  0.4289
13345TIP3    H239972   2.159   6.749   0.909 -0.0593  0.7595  0.3642
13346TIP3   OH239973   7.163   7.200   3.076  0.2698  1.2478  0.5505
13346TIP3    H139974   7.089   7.190   3.137 -0.6115 -1.3029 -0.8880
13346TIP3    H239975   7.123   7.236   2.997  0.4790 -0.5675 -0.3878
13347TIP3   OH239976   7.813   4.847   1.724 -0.2988  0.1450  0.5591
13347TIP3    H139977   7.875   4.909   1.763  1.5583 -1.1999 -0.2189
13347TIP3    H239978   7.728   4.890   1.734  1.0486  3.3474 -0.9505
13348TIP3   OH239979   1.771   4.460   1.682  0.7518 -0.3166  0.6039
13348TIP3    H139980   1.688   4.449   1.637  1.3500  0.6363 -0.7832
13348TIP3    H239981   1.749   4.506   1.763  0.2256  2.5434 -1.0733
13349TIP3   OH239982   4.733   2.324   6.634  0.0650 -0.1322  0.8284
13349TIP3    H139983   4.649   2.342   6.592 -0.6810 -1.4811  1.6983
13349TIP3    H239984   4.727   2.364   6.720  1.4759  2.3493 -0.1662
13350TIP3   OH239985   5.390   2.427   6.587 -0.1163 -0.0379  0.1866
13350TIP3    H139986   5.333   2.453   6.515 -0.6075 -0.6414  0.3533
13350TIP3    H239987   5.468   2.482   6.578  0.6353 -1.3926 -1.9100
13351TIP3   OH239988   2.173   7.036   6.320 -0.5307  0.1308 -0.1339
13351TIP3    H139989   2.154   7.113   6.267 -0.9869  0.7644  0.9284
13351TIP3    H239990   2.164   6.962   6.260  1.5496  1.0187 -1.5610
13352TIP3   OH239991   7.116   6.423   1.508 -0.2377  0.5432 -0.4458
13352TIP3    H139992   7.104   6.482   1.433 -0.0534 -0.3868 -1.2081
13352TIP3    H239993   7.097   6.336   1.473  1.4026 -0.0772  0.1863
13353TIP3   OH239994   4.334   3.613   6.729 -0.6740  0.4980 -0.7294
13353TIP3    H139995   4.388   3.687   6.701 -3.1307  1.3819 -3.4058
13353TIP3    H239996   4.368   3.538   6.681  1.0539  0.0944  1.0784
13354TIP3   OH239997   7.790   4.997   0.278  0.6532  0.0347 -0.2895
13354TIP3    H139998   7.765   5.005   0.185  0.9240  1.7412 -0.2410
13354TIP3    H239999   7.885   4.989   0.276  0.5921 -0.7110 -0.1946
13355TIP3   OH240000   5.988   2.879   6.188 -0.3964  0.1406 -0.0851
13355TIP3    H140001   6.012   2.830   6.267 -1.8061  2.0123  1.5414
13355TIP3    H240002   6.063   2.937   6.173 -0.3650  0.1783  0.2130
13356TIP3   OH240003   7.563   6.037   1.233 -0.0586 -0.2340  0.4979
13356TIP3    H140004   7.473   6.039   1.265  0.3217  1.0059  1.5420
13356TIP3    H240005   7.614   6.005   1.307  0.5733  0.7616  0.5052
13357TIP3   OH240006   1.493   3.008   1.290  0.2529  0.0864  0.0306
13357TIP3    H140007   1.516   3.053   1.371 -0.6927  0.2569  0.2111
13357TIP3    H240008   1.416   3.054   1.257  0.6396  0.0392 -0.9841
13358TIP3   OH240009   7.469   7.895   2.505  0.0585  0.3538  0.9489
13358TIP3    H140010   7.391   7.855   2.545 -0.1560 -0.0536  0.1248
13358TIP3    H240011   7.434   7.961   2.445  0.3564  0.1573  0.5619
13359TIP3   OH240012   6.946   4.641   2.015 -0.0311  0.0444  0.0161
13359TIP3    H140013   7.025   4.588   2.024  1.5117  2.2190 -0.2716
13359TIP3    H240014   6.911   4.649   2.104  0.4626 -0.3601  0.2464
13360TIP3   OH240015   5.608   2.621   6.557  0.6814 -0.3614 -0.0166
13360TIP3    H140016   5.669   2.647   6.626 -0.3497 -1.8418  1.5204
13360TIP3    H240017   5.662   2.606   6.480  2.0451 -0.0808  0.8754
13361TIP3   OH240018   4.195   7.794   6.292 -0.3463 -0.4257 -0.2462
13361TIP3    H140019   4.219   7.757   6.378  0.0679  0.7680  0.1698
13361TIP3    H240020   4.100   7.807   6.297 -0.9491 -4.0205 -1.4371
13362TIP3   OH240021   6.184   4.711   0.048 -0.0771 -0.0816 -0.1934
13362TIP3    H140022   6.100   4.735   0.007 -0.2758 -0.5287 -0.0527
13362TIP3    H240023   6.245   4.779   0.019 -0.9633  1.4274  1.3768
13363TIP3   OH240024   0.810   6.172   1.686 -0.3549 -0.2104 -0.4038
13363TIP3    H140025   0.895   6.217   1.676 -0.7912  0.8059  0.3151
13363TIP3    H240026   0.829   6.096   1.741  0.1995 -0.3128 -0.7355
13364TIP3   OH240027   1.327   5.353   0.868  0.1982 -0.0346  0.0982
13364TIP3    H140028   1.353   5.307   0.788 -0.4394  0.3495 -0.3414
13364TIP3    H240029   1.234   5.373   0.854  0.5315  1.5827  0.1791
13365TIP3   OH240030   1.863   0.263   1.826 -0.6482  0.0537 -0.4963
13365TIP3    H140031   1.917   0.267   1.905 -0.5652  0.7890 -0.5881
13365TIP3    H240032   1.826   0.351   1.818  0.9984  0.6016 -2.4584
13366TIP3   OH240033   7.390   5.660   1.018 -0.1343  0.0403  0.5409
13366TIP3    H140034   7.438   5.741   1.000 -0.4133  0.6798  2.5306
13366TIP3    H240035   7.363   5.668   1.110 -2.7160 -0.9781 -0.0716
13367TIP3   OH240036   6.259   3.126   6.269  0.1664  0.6871 -0.1291
13367TIP3    H140037   6.206   3.168   6.201 -1.1089  0.6626  0.8133
13367TIP3    H240038   6.202   3.127   6.347  2.5660  3.2306  1.7099
13368TIP3   OH240039   0.240   5.580   0.549 -0.0347  0.1712 -0.1299
13368TIP3    H140040   0.240   5.485   0.540 -0.5640  0.2793 -1.4054
13368TIP3    H240041   0.149   5.602   0.571 -0.2438  0.5087 -1.3194
13369TIP3   OH240042   5.434   4.230   6.821  0.1272 -0.0901  0.4218
13369TIP3    H140043   5.381   4.292   6.872  1.2543  0.1767  1.2984
13369TIP3    H240044   5.372   4.165   6.789 -0.4243 -1.0739  3.3525
13370TIP3   OH240045   0.272   6.021   0.516 -0.3196  0.0692 -0.2985
13370TIP3    H140046   0.249   6.098   0.567  0.1396  2.3366 -3.4074
13370TIP3    H240047   0.367   6.026   0.506 -0.6177  0.7568 -3.0322
13371TIP3   OH240048   7.349   5.170   1.757  0.3158 -0.3300  0.1985
13371TIP3    H140049   7.289   5.189   1.685  0.6348  1.8694  0.4698
13371TIP3    H240050   7.294   5.127   1.823 -1.0213  1.6445  0.4463
13372TIP3   OH240051   1.421   6.251   1.909 -0.0571 -0.7489  0.2206
13372TIP3    H140052   1.478   6.233   1.984  1.1955  1.2057 -0.2257
13372TIP3    H240053   1.333   6.251   1.945  0.3949 -1.4642  1.3728
13373TIP3   OH240054   0.548   6.334   2.454 -0.2556 -0.2203 -0.2329
13373TIP3    H140055   0.509   6.249   2.433 -0.8309 -0.1684  0.6042
13373TIP3    H240056   0.477   6.384   2.495  0.2963  0.3891 -0.0028
13374TIP3   OH240057   2.562  -0.005   1.308 -0.0421 -0.4201 -0.2233
13374TIP3    H140058   2.636   0.035   1.263 -3.1071  1.2940 -3.9298
13374TIP3    H240059   2.514   0.068   1.347 -0.5367 -1.3701  0.9787
13375TIP3   OH240060   8.163   3.169   5.769  0.3737 -0.1142  0.2298
13375TIP3    H140061   8.086   3.224   5.752  1.4234  1.5792  0.7558
13375TIP3    H240062   8.202   3.208   5.847  1.3260 -1.4540  0.4342
13376TIP3   OH240063   1.408   6.039   0.822 -0.1559 -0.1975 -0.0170
13376TIP3    H140064   1.335   6.100   0.827  1.1028  1.3422 -0.2406
13376TIP3    H240065   1.406   5.993   0.906  0.0378  1.4916  0.9258
13377TIP3   OH240066   0.494   7.367   0.224 -0.0322  0.4838  0.0754
13377TIP3    H140067   0.451   7.289   0.259  0.1531 -0.5719 -1.9622
13377TIP3    H240068   0.447   7.386   0.143  0.6935  1.7843 -0.0557
13378TIP3   OH240069   7.870   6.401   1.460 -0.1575  0.1677  0.2990
13378TIP3    H140070   7.801   6.451   1.416 -0.5111  1.4163  2.2502
13378TIP3    H240071   7.952   6.440   1.428 -0.3389 -0.9051 -1.5363
13379TIP3   OH240072   1.236   6.726   0.193 -0.0542  0.0411 -0.4685
13379TIP3    H140073   1.233   6.748   0.286 -4.4829  0.2471 -0.5752
13379TIP3    H240074   1.203   6.637   0.189  2.1796 -0.7674 -1.6919
13380TIP3   OH240075   0.274   5.745   0.786 -0.7362 -0.3654 -0.0626
13380TIP3    H140076   0.230   5.682   0.844 -0.3498 -1.7402 -1.2359
13380TIP3    H240077   0.283   5.699   0.703  3.1310 -0.2439  0.1680
13381TIP3   OH240078   0.077   7.196   2.280  0.4601  0.0382 -0.1782
13381TIP3    H140079   0.003   7.258   2.284  0.3722 -0.0893  0.1989
13381TIP3    H240080   0.036   7.110   2.274  0.5582 -0.1436  1.5375
13382TIP3   OH240081   8.298   3.262   5.508 -0.1932  0.1046 -0.4870
13382TIP3    H140082   8.206   3.279   5.491  0.2859  1.8387 -1.4990
13382TIP3    H240083   8.325   3.333   5.567 -0.8012 -3.4648  4.4005
13383TIP3   OH240084   1.512   7.855   0.027 -0.0016  0.0348  0.5294
13383TIP3    H140085   1.512   7.768  -0.013 -1.5443  0.5108 -0.5723
13383TIP3    H240086   1.597   7.862   0.069 -0.2583 -2.4021  1.5202
13384TIP3   OH240087   1.118   6.304   1.141 -0.3741 -0.0776 -0.3188
13384TIP3    H140088   1.099   6.214   1.115  0.6023 -0.1670 -0.7331
13384TIP3    H240089   1.140   6.349   1.059  2.4960 -0.3042  0.2863
13385TIP3   OH240090   2.617   7.043   2.742  0.4770 -0.0931  0.2088
13385TIP3    H140091   2.581   7.074   2.659  0.0961 -0.1079  0.3668
13385TIP3    H240092   2.563   6.968   2.765 -1.9989  2.2762  2.4679
13386TIP3   OH240093   2.369   6.781   0.143 -0.0619  0.6692  0.1707
13386TIP3    H140094   2.444   6.825   0.184  1.7128 -1.0724 -1.0741
13386TIP3    H240095   2.351   6.833   0.064 -1.3006  2.0766  1.3583
13387TIP3   OH240096   2.100   6.400   0.476 -0.4684  0.5576 -0.0383
13387TIP3    H140097   2.154   6.353   0.540 -0.8650 -2.4600 -1.8116
13387TIP3    H240098   2.029   6.438   0.528  1.4963  1.7041  1.8499
13388TIP3   OH240099   1.873   6.547   3.252  0.5103 -0.5352  0.1338
13388TIP3    H140100   1.815   6.623   3.249  0.1299 -0.8168  0.3926
13388TIP3    H240101   1.961   6.585   3.257  0.3745 -0.1090 -0.5955
13389TIP3   OH240102   0.276   5.981   1.745  0.4450 -0.9964  0.3588
13389TIP3    H140103   0.184   5.990   1.771  0.3834  1.6177 -0.5906
13389TIP3    H240104   0.279   6.010   1.654  2.3133 -0.3259  0.5933
13390TIP3   OH240105   6.942   4.099   6.700  0.4492 -0.2900 -0.1959
13390TIP3    H140106   6.996   4.178   6.700  0.6951 -0.4371 -1.5090
13390TIP3    H240107   6.954   4.061   6.786  1.9764 -0.0025 -0.2654
13391TIP3   OH240108   0.668   6.081   1.110 -0.2542  0.5837 -0.2157
13391TIP3    H140109   0.690   6.118   1.025  0.7478  0.3774 -0.0478
13391TIP3    H240110   0.750   6.083   1.160 -0.8109  0.6521  0.7244
13392TIP3   OH240111   5.601   1.458   6.629 -0.3692 -0.0518 -0.4121
13392TIP3    H140112   5.516   1.494   6.604  0.1300  0.5917 -1.1871
13392TIP3    H240113   5.661   1.488   6.561  0.2633 -1.4332 -0.4749
13393TIP3   OH240114   1.470   4.720   2.090 -0.5562 -0.4801 -0.4455
13393TIP3    H140115   1.526   4.793   2.065 -0.1480 -0.3746  0.7583
13393TIP3    H240116   1.488   4.652   2.025 -0.1588  0.0980 -0.9472
13394TIP3   OH240117   5.879   2.412   5.316  0.3741 -0.2572 -0.1714
13394TIP3    H140118   5.934   2.455   5.382  0.8751 -1.8604  0.4751
13394TIP3    H240119   5.936   2.403   5.239  0.3431  0.0221 -0.2273
13395TIP3   OH240120   1.475   2.136   5.538 -0.3231 -0.4839 -0.1658
13395TIP3    H140121   1.434   2.129   5.624  0.4197  1.1294  0.3508
13395TIP3    H240122   1.407   2.171   5.481  0.1821  1.8750  0.6148
13396TIP3   OH240123   4.080   5.893   1.731 -0.2811  0.2281  0.2778
13396TIP3    H140124   4.136   5.967   1.753  0.6171 -0.4886  0.4385
13396TIP3    H240125   4.003   5.903   1.787  0.1360  0.6714  0.7785
13397TIP3   OH240126   7.608   0.873   3.882  0.1617  0.4641  0.3080
13397TIP3    H140127   7.654   0.795   3.913  1.9168  1.2060 -0.3877
13397TIP3    H240128   7.552   0.840   3.811 -0.0593 -0.3574  0.8496
13398TIP3   OH240129   1.178   0.712   1.786  0.4836  0.2571 -0.1729
13398TIP3    H140130   1.150   0.627   1.753  1.4658  0.0380 -0.4835
13398TIP3    H240131   1.127   0.725   1.866 -0.8466  0.1205 -0.9826
13399TIP3   OH240132   2.259   1.802   2.582  0.0600 -0.4374 -0.3322
13399TIP3    H140133   2.274   1.799   2.487  0.6858  0.3255 -0.2629
13399TIP3    H240134   2.231   1.713   2.604 -1.3213 -0.2996 -1.4311
13400TIP3   OH240135   6.310   6.881   1.564 -0.0313 -0.6165  0.1836
13400TIP3    H140136   6.255   6.917   1.495 -0.7663  0.1405  1.1382
13400TIP3    H240137   6.308   6.948   1.633  2.7189 -0.2140 -0.0700
13401TIP3   OH240138   7.271   6.968   1.769  0.2005  0.2996  0.3510
13401TIP3    H140139   7.335   6.938   1.705 -0.6913  0.9775 -0.8833
13401TIP3    H240140   7.305   7.051   1.800 -0.3742  0.9756 -0.7788
13402TIP3   OH240141   1.578   0.937   3.132 -0.5040 -0.1336  0.0977
13402TIP3    H140142   1.634   0.862   3.113 -0.6704 -0.0627 -0.6699
13402TIP3    H240143   1.502   0.925   3.076 -0.0396  1.1832 -0.8251
13403TIP3   OH240144   0.187   0.460   2.264 -0.1978 -0.0568  0.3129
13403TIP3    H140145   0.215   0.547   2.234  1.1874 -0.8383 -0.6831
13403TIP3    H240146   0.146   0.477   2.349  0.5423  1.5018  0.3844
13404TIP3   OH240147   7.666   7.664   0.755  0.2361 -0.2207 -0.3712
13404TIP3    H140148   7.660   7.666   0.851  0.1522 -3.2807 -0.2505
13404TIP3    H240149   7.575   7.658   0.726  0.3153 -0.4477 -0.5745
13405TIP3   OH240150   5.555   7.018   0.170  0.1843 -0.5453 -0.2154
13405TIP3    H140151   5.619   7.075   0.126  1.8454 -0.2495  2.4749
13405TIP3    H240152   5.474   7.068   0.169  0.1497 -0.5634 -2.9347
13406TIP3   OH240153   1.461   1.275   3.638 -0.1694 -0.2670  0.0384
13406TIP3    H140154   1.491   1.365   3.646 -3.1884  0.6323  1.9937
13406TIP3    H240155   1.460   1.258   3.544  1.8573  1.1747 -0.2841
13407TIP3   OH240156   6.135   6.852   0.689 -0.6874 -0.7493 -0.0792
13407TIP3    H140157   6.229   6.835   0.686 -0.1424  2.0101  0.0105
13407TIP3    H240158   6.103   6.794   0.758  1.2604 -0.4619  1.1175
13408TIP3   OH240159   7.301   7.689   1.203  0.0180 -0.7917 -0.0883
13408TIP3    H140160   7.248   7.625   1.154 -1.7343 -0.4897  1.3443
13408TIP3    H240161   7.315   7.647   1.288 -0.6726  0.4873  0.6620
13409TIP3   OH240162   7.548   3.742   2.351  0.2380 -0.3680  0.1133
13409TIP3    H140163   7.572   3.755   2.259  1.9368 -0.8506  0.4755
13409TIP3    H240164   7.583   3.656   2.373 -0.1883 -0.2702  1.2046
13410TIP3   OH240165   5.959   7.758   3.670  0.2017 -0.0484  0.0823
13410TIP3    H140166   6.004   7.841   3.689 -0.1603 -0.0341  0.9105
13410TIP3    H240167   5.867   7.776   3.690  0.0194 -0.4484 -0.4056
13411TIP3   OH240168   5.250   7.866   2.459 -0.1003  0.1319 -0.0217
13411TIP3    H140169   5.337   7.840   2.427 -0.5440  0.8328 -1.8467
13411TIP3    H240170   5.192   7.852   2.384 -1.4226  0.4784  0.9253
13412TIP3   OH240171   5.873   5.981   2.340  0.3269 -0.3603  0.3636
13412TIP3    H140172   5.930   6.001   2.265  0.1056  1.0620  0.5684
13412TIP3    H240173   5.849   5.889   2.327  0.8719 -0.3350 -0.9248
13413TIP3   OH240174   6.034   5.361   1.632 -0.2675  0.1718 -0.8271
13413TIP3    H140175   6.122   5.361   1.595  0.4016  0.9870  0.7141
13413TIP3    H240176   5.997   5.277   1.606  1.4534 -0.7629 -0.3359
13414TIP3   OH240177   4.525   6.326   0.156 -0.3037 -0.3784  0.0756
13414TIP3    H140178   4.488   6.404   0.197 -3.6294 -1.8398  0.0175
13414TIP3    H240179   4.467   6.309   0.081 -0.0004 -3.2108  0.4323
13415TIP3   OH240180   4.776   5.431   2.045  0.6630  0.2719 -0.3474
13415TIP3    H140181   4.755   5.399   1.957 -0.3551  1.5992 -0.6158
13415TIP3    H240182   4.781   5.526   2.035  1.7427  0.3439  0.7990
13416TIP3   OH240183   6.742   0.210   2.852 -0.5136 -0.0382  0.1893
13416TIP3    H140184   6.780   0.164   2.777 -0.9498 -0.7594  0.4109
13416TIP3    H240185   6.686   0.278   2.813  0.6521  0.7564 -0.1362
13417TIP3   OH240186   2.890   1.687   1.501 -0.5477 -0.2703  0.8168
13417TIP3    H140187   2.828   1.757   1.519 -0.6475  0.1607 -1.0583
13417TIP3    H240188   2.917   1.655   1.587 -1.1465  1.5059  1.6817
13418TIP3   OH240189   7.148   7.351   2.107  0.1541 -0.2108  0.6120
13418TIP3    H140190   7.087   7.278   2.115 -0.5610  0.2058 -0.7749
13418TIP3    H240191   7.093   7.429   2.117  0.7045  0.1574  0.8089
13419TIP3   OH240192   5.549   6.148   0.479 -0.2811  0.4690  0.2836
13419TIP3    H140193   5.498   6.204   0.537 -2.3692  1.7696 -2.6743
13419TIP3    H240194   5.632   6.195   0.467 -0.7717  1.3577  0.3319
13420TIP3   OH240195   0.202  -0.031   2.206 -0.0303 -0.0808  0.6795
13420TIP3    H140196   0.252   0.028   2.263 -0.7550  1.4391 -0.2050
13420TIP3    H240197   0.185   0.021   2.127 -1.1423 -1.3085  0.0863
13421TIP3   OH240198   0.568   5.380   1.151 -0.2303  0.5144 -0.2476
13421TIP3    H140199   0.654   5.395   1.111 -0.5371 -0.5451 -1.3360
13421TIP3    H240200   0.587   5.329   1.230  0.0138 -1.3283 -1.4570
13422TIP3   OH240201   5.588   7.376   0.996  0.1421 -0.3997  0.1555
13422TIP3    H140202   5.536   7.325   0.934 -1.2191  0.8385  0.2657
13422TIP3    H240203   5.535   7.453   1.016  2.3117  1.2578 -0.2562
13423TIP3   OH240204   0.121   0.524   2.516  0.2977 -0.0403  0.1822
13423TIP3    H140205   0.133   0.460   2.586 -0.5437  0.1941  0.5507
13423TIP3    H240206   0.138   0.608   2.556  3.1453 -0.1303 -0.7376
13424TIP3   OH240207   6.086   6.495   1.114 -0.3826 -0.1157 -0.4132
13424TIP3    H140208   6.115   6.569   1.168  0.0279 -0.0516 -0.7217
13424TIP3    H240209   6.062   6.427   1.177 -1.4131  0.5233 -0.1105
13425TIP3   OH240210   6.071   6.142   1.773 -0.1422 -0.2831  0.6607
13425TIP3    H140211   6.011   6.068   1.768 -2.7385  1.7803 -0.7728
13425TIP3    H240212   6.020   6.215   1.736  2.7679  1.8916  0.8101
13426TIP3   OH240213   6.802   6.796   0.874 -0.0093  0.2904  0.3411
13426TIP3    H140214   6.761   6.849   0.806  1.4678 -0.1046 -0.8909
13426TIP3    H240215   6.892   6.829   0.879  0.4384 -0.9658  0.7643
13427TIP3   OH240216   4.290   2.154   5.654 -0.6395 -0.4695  0.5037
13427TIP3    H140217   4.278   2.211   5.730 -0.8315 -1.0136  0.8861
13427TIP3    H240218   4.369   2.105   5.674 -1.4594 -1.6176  0.9993
13428TIP3   OH240219   7.035   0.694   3.026 -0.1319  0.2519 -0.3463
13428TIP3    H140220   7.074   0.607   3.022 -0.4658  0.0846 -0.0155
13428TIP3    H240221   6.960   0.684   3.084 -0.9326  0.4619 -1.3281
13429TIP3   OH240222   6.203   6.385   5.113  0.0563  0.0683  0.2862
13429TIP3    H140223   6.272   6.319   5.121 -0.0937  0.0374  1.3170
13429TIP3    H240224   6.244   6.456   5.064 -0.0564 -1.1556 -1.6482
13430TIP3   OH240225   2.251   0.157   1.199 -0.0394 -0.1043  0.1859
13430TIP3    H140226   2.249   0.064   1.218 -0.6211 -0.1880 -0.2856
13430TIP3    H240227   2.231   0.199   1.283 -0.8625 -0.4289  0.1581
13431TIP3   OH240228   1.474   0.091   2.643 -0.2814  0.1234 -0.2020
13431TIP3    H140229   1.386   0.105   2.677 -0.3601  1.4491 -0.9230
13431TIP3    H240230   1.466   0.111   2.549  0.3222 -1.7563 -0.6802
13432TIP3   OH240231   6.685   6.126   0.721  0.3725 -0.5698  0.3443
13432TIP3    H140232   6.778   6.133   0.698 -0.0552  0.6284 -1.1033
13432TIP3    H240233   6.644   6.090   0.643 -0.2869 -1.7990  1.2466
13433TIP3   OH240234   6.962   7.173   2.146 -0.1192 -0.1197  0.4557
13433TIP3    H140235   6.869   7.181   2.167 -0.5862 -1.3407 -1.0435
13433TIP3    H240236   6.983   7.081   2.163  0.7281  0.0588  0.4249
13434TIP3   OH240237   6.545   7.276   1.596 -0.6907 -0.4402  0.0494
13434TIP3    H140238   6.528   7.234   1.680  0.5909 -0.7677  0.1557
13434TIP3    H240239   6.591   7.357   1.618 -1.6389  0.1868 -0.2559
13435TIP3   OH240240   6.156   5.743   1.679 -0.1098  0.4042 -0.0541
13435TIP3    H140241   6.128   5.818   1.731  2.2789  0.6153  0.9958
13435TIP3    H240242   6.243   5.720   1.714  0.8917 -0.4077 -2.9026
13436TIP3   OH240243   5.424   4.966   0.152 -0.1543 -0.4473 -0.0000
13436TIP3    H140244   5.479   4.955   0.074 -0.2054  2.3389 -0.4971
13436TIP3    H240245   5.400   4.877   0.178 -0.1756 -1.4355 -3.1995
13437TIP3   OH240246   1.235   0.057   0.447  0.2217  0.1638 -0.0329
13437TIP3    H140247   1.238  -0.037   0.428 -1.2933  0.1453 -0.2725
13437TIP3    H240248   1.142   0.075   0.462  0.4826  1.6460 -0.1297
13438TIP3   OH240249   5.784   7.358   1.177 -0.0733 -0.2243  0.1478
13438TIP3    H140250   5.826   7.275   1.157 -1.2176 -0.8436  0.2510
13438TIP3    H240251   5.722   7.371   1.105  0.1301  0.5619  0.1104
13439TIP3   OH240252   4.518   5.993   1.549 -0.5692 -0.5376 -0.2350
13439TIP3    H140253   4.541   5.960   1.462 -2.0376  0.2220 -0.9285
13439TIP3    H240254   4.593   6.045   1.576 -0.4447 -0.0983 -1.4142
13440TIP3   OH240255   7.175   0.071   0.651  0.7453  0.2574  0.3709
13440TIP3    H140256   7.132   0.013   0.589 -2.2567  1.0507  1.6239
13440TIP3    H240257   7.269   0.058   0.636  0.0871 -2.0213 -1.9816
13441TIP3   OH240258   3.725   6.286   0.498 -0.0642 -0.5576 -0.2005
13441TIP3    H140259   3.726   6.368   0.449  0.7500 -1.0073 -0.9467
13441TIP3    H240260   3.640   6.286   0.543  0.2574  1.0554  0.4270
13442TIP3   OH240261   5.990   7.726   0.648  0.2117 -0.2420 -0.1819
13442TIP3    H140262   5.965   7.788   0.580 -1.3769 -0.0210  0.5699
13442TIP3    H240263   5.907   7.684   0.673  0.5395  0.6246  2.5216
13443TIP3   OH240264   0.859   1.348   2.908  0.4933  0.6451 -0.1217
13443TIP3    H140265   0.795   1.419   2.913 -0.5181 -0.3604  1.1611
13443TIP3    H240266   0.943   1.394   2.901 -0.1526  1.9773  0.6264
13444TIP3   OH240267   5.985   6.914   1.743 -0.3923 -0.2080  0.1733
13444TIP3    H140268   6.075   6.935   1.769 -1.0921  1.1068  1.6523
13444TIP3    H240269   5.970   6.826   1.775  0.8667 -1.0244 -1.4346
13445TIP3   OH240270   1.075   0.346   1.184 -0.2612  0.7512 -0.0729
13445TIP3    H140271   1.129   0.361   1.262 -0.6929  0.3568  0.3095
13445TIP3    H240272   1.037   0.431   1.164 -1.5022  0.5109  1.1827
13446TIP3   OH240273   1.583   7.609   1.703 -0.1684 -0.1659  0.6425
13446TIP3    H140274   1.555   7.572   1.787  0.1713 -0.2060  0.7383
13446TIP3    H240275   1.523   7.682   1.688  1.1622  1.2191  1.9845
13447TIP3   OH240276   0.782   7.273   0.507  0.0029  0.0728  0.0571
13447TIP3    H140277   0.781   7.214   0.582 -1.5239 -1.4676 -1.1341
13447TIP3    H240278   0.708   7.332   0.521 -0.3169 -0.2519 -0.2676
13448TIP3   OH240279   0.053   6.499   0.915  0.2206  0.3143 -0.3435
13448TIP3    H140280   0.053   6.413   0.873  1.2229  0.0003  0.2763
13448TIP3    H240281   0.077   6.481   1.006 -0.6235  1.1321  0.0499
13449TIP3   OH240282   5.414   7.296   3.052 -0.2705 -0.3031 -0.0733
13449TIP3    H140283   5.448   7.380   3.084  0.0355 -0.3869 -0.1742
13449TIP3    H240284   5.335   7.281   3.104 -1.3704  0.9447 -1.3529
13450TIP3   OH240285   4.613   1.551   6.728 -0.0673  0.4931  0.3713
13450TIP3    H140286   4.605   1.475   6.786  0.2414  0.7052  0.6948
13450TIP3    H240287   4.655   1.517   6.650 -2.3071 -0.2183 -0.5518
13451TIP3   OH240288   7.559   5.004   1.706 -0.3593  0.0838  0.7244
13451TIP3    H140289   7.484   4.951   1.733  0.9597 -1.0807  2.2168
13451TIP3    H240290   7.533   5.094   1.727 -1.6105 -0.2356  0.5662
13452TIP3   OH240291   2.199   5.348   2.138  0.4420  0.6911 -0.1161
13452TIP3    H140292   2.135   5.364   2.070 -0.0958  0.1574  0.2571
13452TIP3    H240293   2.248   5.271   2.107 -0.8853 -0.5730  0.8484
13453TIP3   OH240294   8.068   7.822   0.901 -0.1506 -0.3554  0.4293
13453TIP3    H140295   8.086   7.802   0.809 -1.2167  0.5776  0.0112
13453TIP3    H240296   8.006   7.755   0.929  0.6890 -1.0418  0.6675
13454TIP3   OH240297   7.409   2.167   0.949  0.1185  0.4101 -0.7132
13454TIP3    H140298   7.345   2.096   0.953  0.7836 -0.1320  0.5608
13454TIP3    H240299   7.402   2.210   1.034  2.5302 -0.6431  0.0753
13455TIP3   OH240300   8.286   7.041   1.206 -0.7006 -0.3303 -0.2230
13455TIP3    H140301   8.300   7.008   1.295 -0.9873 -0.6016 -0.2778
13455TIP3    H240302   8.191   7.046   1.197 -0.6535  1.2183  0.0397
13456TIP3   OH240303   7.197   0.847   1.995  0.1559 -0.6011 -0.5172
13456TIP3    H140304   7.261   0.788   1.957  1.0391 -0.2940  0.4628
13456TIP3    H240305   7.215   0.932   1.955  1.7596 -0.0489  1.2978
13457TIP3   OH240306   6.271   7.847   1.446 -0.4769  0.2822 -0.2439
13457TIP3    H140307   6.188   7.857   1.398 -0.4446  0.8657 -0.1807
13457TIP3    H240308   6.333   7.900   1.396  0.2241 -1.3602 -1.1597
13458TIP3   OH240309   4.202   7.559   0.790  0.1076 -0.2017  0.1591
13458TIP3    H140310   4.126   7.563   0.848 -0.0486 -0.5847 -0.0163
13458TIP3    H240311   4.184   7.623   0.722 -1.0312 -1.7790 -1.0393
13459TIP3   OH240312   1.127   0.542   0.178 -0.3031 -0.7028  0.5260
13459TIP3    H140313   1.118   0.630   0.215  0.4286 -0.6879  0.6776
13459TIP3    H240314   1.101   0.552   0.086  0.4721 -0.1713  0.3547
13460TIP3   OH240315   0.066   6.485   1.652 -0.3109 -0.2274 -0.0471
13460TIP3    H140316   0.014   6.565   1.639  0.9197  0.6288  0.2177
13460TIP3    H240317   0.066   6.443   1.566 -1.2423 -0.1155 -0.1085
13461TIP3   OH240318   6.810   7.670   2.574  0.1182 -0.0508 -0.8245
13461TIP3    H140319   6.798   7.681   2.669  0.4219 -1.0371 -0.6720
13461TIP3    H240320   6.885   7.725   2.553  1.4675 -1.6020 -0.1036
13462TIP3   OH240321   5.893   2.844   6.742  0.2326 -0.3970  0.0437
13462TIP3    H140322   5.966   2.787   6.716 -0.6427 -2.0073  1.0264
13462TIP3    H240323   5.888   2.909   6.672  2.4095 -0.4495 -0.2010
13463TIP3   OH240324   6.304   7.533   1.549 -0.4716  0.1094 -0.1550
13463TIP3    H140325   6.351   7.598   1.602 -1.7970  1.1530 -0.2408
13463TIP3    H240326   6.271   7.470   1.612 -0.7627  0.5313  0.1175
13464TIP3   OH240327   1.668   0.090   0.463  0.4053  0.1725  0.3267
13464TIP3    H140328   1.663   0.182   0.487  1.4985  0.5713 -0.9095
13464TIP3    H240329   1.611   0.045   0.526  0.4898  1.5869  1.4276
13465TIP3   OH240330   8.346   7.462   1.315 -0.0965 -0.3031  0.5076
13465TIP3    H140331   8.292   7.538   1.294  0.4473 -0.2437 -0.7490
13465TIP3    H240332   8.310   7.391   1.261 -0.0733 -0.7350  1.0490
13466TIP3   OH240333   4.546   1.780   6.900  0.4166 -0.3804  0.0937
13466TIP3    H140334   4.578   1.694   6.871  2.7776  0.8773 -1.1935
13466TIP3    H240335   4.581   1.789   6.989  1.2292 -0.2553 -0.2291
13467TIP3   OH240336   4.986   4.238   6.893  0.3178  0.2142 -0.4398
13467TIP3    H140337   5.062   4.181   6.908  0.7769  0.7466 -0.6859
13467TIP3    H240338   4.989   4.257   6.799 -0.3079 -0.0221 -0.5044
13468TIP3   OH240339   5.763   5.032   6.816 -0.2551  0.7294 -0.2073
13468TIP3    H140340   5.856   5.011   6.821 -0.2897  0.4276 -0.7647
13468TIP3    H240341   5.725   4.993   6.894  0.1678  1.2835  0.2794
13469TIP3   OH240342   4.586   2.298   6.039 -0.2841 -0.0020 -0.3806
13469TIP3    H140343   4.570   2.250   6.120 -0.4928 -0.1621 -0.5142
13469TIP3    H240344   4.663   2.350   6.057  0.9810 -1.6850 -0.7850
13470TIP3   OH240345   3.539   0.891   1.082  0.1829 -0.3458  0.5293
13470TIP3    H140346   3.604   0.903   1.013 -0.0171 -0.5180  0.3117
13470TIP3    H240347   3.510   0.979   1.104  0.7571 -0.2385  0.8825
13471TIP3   OH240348   2.333   6.049   0.834 -0.0309 -0.4590  0.0243
13471TIP3    H140349   2.278   5.983   0.876  0.9004 -0.8200  0.6902
13471TIP3    H240350   2.361   6.008   0.752  1.4454 -1.3261  0.9517
13472TIP3   OH240351   7.721   7.048   2.768  0.2231 -0.5131 -0.3161
13472TIP3    H140352   7.739   7.140   2.788 -0.5088  0.0875 -2.3095
13472TIP3    H240353   7.753   7.001   2.845  1.4306  1.3198  0.3663
13473TIP3   OH240354   1.832   0.092   1.327  0.3904 -0.7027  0.2670
13473TIP3    H140355   1.746   0.125   1.355  0.1360  0.4947 -1.8344
13473TIP3    H240356   1.883   0.089   1.408 -0.5570  1.9143  1.0306
13474TIP3   OH240357   0.426   6.363   0.823  0.7399  0.2052 -0.4932
13474TIP3    H140358   0.398   6.310   0.898 -1.1863  0.4467 -1.0193
13474TIP3    H240359   0.500   6.316   0.787  1.0877 -0.4246  0.9914
13475TIP3   OH240360   0.001   6.947   0.230 -0.1352 -0.2339 -0.4996
13475TIP3    H140361  -0.012   6.942   0.135 -0.4410  0.0397 -0.4737
13475TIP3    H240362   0.032   6.860   0.254 -0.9664 -0.6032 -0.7176
13476TIP3   OH240363   8.201   7.526   1.563  0.2702 -0.2506 -0.1148
13476TIP3    H140364   8.257   7.499   1.490 -1.4704  0.4104 -1.7175
13476TIP3    H240365   8.238   7.609   1.592 -0.7157  0.9066 -2.1096
13477TIP3   OH240366   7.785   6.457   2.449 -0.2016  0.3632  0.0035
13477TIP3    H140367   7.751   6.474   2.537 -0.6595 -0.7254  0.0382
13477TIP3    H240368   7.707   6.443   2.396  0.1334 -0.4733 -0.2676
13478TIP3   OH240369   7.418   7.779   1.845 -0.4773 -0.1539  0.6208
13478TIP3    H140370   7.419   7.871   1.871  0.4269  0.2949 -0.9105
13478TIP3    H240371   7.484   7.737   1.900 -0.6018  0.1917  1.0355
13479TIP3   OH240372   0.437   7.724   3.072  0.0667  0.1736  0.1600
13479TIP3    H140373   0.510   7.684   3.120  0.1075  1.4985  1.2495
13479TIP3    H240374   0.439   7.816   3.099 -2.2432  0.1471  0.5087
13480TIP3   OH240375   7.077   7.003   0.324  0.4816  0.0344 -0.8512
13480TIP3    H140376   7.055   6.954   0.404  0.1752 -0.9071 -1.4997
13480TIP3    H240377   7.047   6.946   0.253  1.2664  0.6121 -1.6485
13481TIP3   OH240378   3.062   0.637   0.097  0.5606  0.1183  0.1512
13481TIP3    H140379   3.152   0.645   0.129  0.9925 -1.0583 -0.7445
13481TIP3    H240380   3.071   0.616   0.004 -0.6651  1.7554 -0.3547
13482TIP3   OH240381   2.011   3.533   1.547 -0.1142  0.4896 -0.1268
13482TIP3    H140382   1.934   3.590   1.539 -0.6247 -0.2236 -0.4012
13482TIP3    H240383   1.999   3.467   1.479  1.3512  1.0524 -0.9446
13483TIP3   OH240384   8.033   7.613   0.389  0.1970 -0.5026  1.0909
13483TIP3    H140385   7.950   7.573   0.363 -0.9901  1.9109  0.9408
13483TIP3    H240386   8.098   7.578   0.328 -1.3810  0.2436 -1.0549
13484TIP3   OH240387   0.772   3.244   1.152  0.6190 -0.0346  0.4280
13484TIP3    H140388   0.837   3.273   1.216 -2.1290  1.6924  2.5316
13484TIP3    H240389   0.688   3.256   1.196 -1.2057 -1.3207 -2.5637
13485TIP3   OH240390   6.368   7.934   0.855 -0.7099 -0.3483  0.0216
13485TIP3    H140391   6.326   7.917   0.940 -1.3199 -0.1169 -0.2333
13485TIP3    H240392   6.374   8.030   0.850  0.2136 -0.3845  0.2296
13486TIP3   OH240393   3.510   2.198   1.223  0.9159  0.4500 -0.0902
13486TIP3    H140394   3.468   2.214   1.139  0.3872  0.2271  0.1349
13486TIP3    H240395   3.450   2.235   1.288 -0.0917 -1.9588  0.4107
13487TIP3   OH240396   1.005   1.054   2.175 -0.0148 -0.1241 -0.0423
13487TIP3    H140397   1.060   0.986   2.138 -1.9449 -1.0595 -1.2548
13487TIP3    H240398   1.066   1.125   2.196  1.5425 -0.8119 -2.0815
13488TIP3   OH240399   3.514   1.687   6.453 -0.2001  0.1758 -0.0802
13488TIP3    H140400   3.419   1.679   6.446 -0.4267  2.0104  0.6891
13488TIP3    H240401   3.533   1.661   6.543  0.0666 -0.4594 -0.3156
13489TIP3   OH240402   4.205   0.178   2.037 -0.2333  0.1303 -0.0557
13489TIP3    H140403   4.197   0.273   2.038 -0.5196  0.1083 -0.5282
13489TIP3    H240404   4.260   0.159   2.113  0.1108  0.6968 -0.1547
13490TIP3   OH240405   1.532   7.904   1.189 -0.0119  0.3374 -0.0333
13490TIP3    H140406   1.575   7.948   1.263 -2.1010  1.2826  0.6512
13490TIP3    H240407   1.544   7.811   1.207  1.8016  0.5702  0.0969
13491TIP3   OH240408   8.028   7.126   2.956 -0.2934  0.7658 -0.0303
13491TIP3    H140409   8.075   7.043   2.959  0.6500  1.2491 -0.9168
13491TIP3    H240410   8.017   7.150   3.048  1.2954  0.6732  0.2113
13492TIP3   OH240411   8.396   7.612   0.038 -0.0180 -0.5681 -0.2918
13492TIP3    H140412   8.395   7.690   0.094 -0.5317 -0.2086 -0.8009
13492TIP3    H240413   8.487   7.606   0.008 -0.3036  0.7270 -1.4872
13493TIP3   OH240414   2.770   0.313   1.454 -0.5861 -0.8360 -0.4973
13493TIP3    H140415   2.763   0.229   1.499  0.0430  0.4333  2.0716
13493TIP3    H240416   2.864   0.329   1.447 -0.7053 -0.3100 -0.9734
13494TIP3   OH240417   1.914  -0.015   0.824  0.1688 -0.5201  0.0792
13494TIP3    H140418   1.917   0.081   0.824  1.0338 -0.5432  0.7876
13494TIP3    H240419   1.888  -0.038   0.913  0.2889 -0.9571  0.0030
13495TIP3   OH240420   2.945   0.764   1.181  0.0523  0.5452  0.0316
13495TIP3    H140421   2.876   0.813   1.136 -2.2615 -2.9153 -0.4066
13495TIP3    H240422   2.919   0.764   1.273 -0.9994 -1.3073 -0.2209
13496TIP3   OH240423   2.613   1.606   1.296 -0.1990 -0.8141 -0.6792
13496TIP3    H140424   2.609   1.702   1.293 -0.6786 -0.8194 -0.0819
13496TIP3    H240425   2.553   1.578   1.227 -2.7127 -0.7312  1.4221
13497TIP3   OH240426   7.727   7.436   1.139  0.3446  0.5706  0.1362
13497TIP3    H140427   7.762   7.483   1.215  1.7485  1.3056 -0.9343
13497TIP3    H240428   7.658   7.493   1.106 -0.3790  0.1706  0.9631
13498TIP3   OH240429   2.233   0.641   0.355  0.5021 -0.5355  0.5939
13498TIP3    H140430   2.307   0.593   0.391  0.3697 -0.1588  1.3810
13498TIP3    H240431   2.256   0.733   0.368 -0.7773 -0.4279  2.2346
13499TIP3   OH240432   4.151   2.059   4.949 -0.1979 -0.0936  0.3995
13499TIP3    H140433   4.118   2.133   4.899  0.5444  0.1271  0.2328
13499TIP3    H240434   4.152   1.986   4.886  0.7923  0.1982  0.0742
13500TIP3   OH240435   4.367   2.055   6.507 -0.5081 -0.0826 -0.0705
13500TIP3    H140436   4.361   2.022   6.597 -0.8132  0.5304  0.1294
13500TIP3    H240437   4.414   1.985   6.460  0.4301 -0.0269  0.7562
13501TIP3   OH240438   8.044   6.400   0.255 -0.2508  0.3083  0.2775
13501TIP3    H140439   8.120   6.428   0.306 -0.8207  2.0986  0.1829
13501TIP3    H240440   8.050   6.304   0.254  0.8920  0.3357  1.9555
13502TIP3   OH240441   6.934   7.240   1.689  0.1584  0.1124 -0.2730
13502TIP3    H140442   6.998   7.282   1.746  0.0470 -0.6539  0.4184
13502TIP3    H240443   6.874   7.196   1.748 -0.0265 -0.5897 -0.9742
13503TIP3   OH240444   3.755   0.439   1.212 -0.1768 -0.2642  0.0295
13503TIP3    H140445   3.826   0.382   1.239 -0.7321 -1.7694 -1.5377
13503TIP3    H240446   3.741   0.416   1.120 -3.0706 -0.4535  0.4701
13504TIP3   OH240447   7.400   7.923   2.994  0.0271  0.0603 -0.3074
13504TIP3    H140448   7.446   7.922   2.910 -1.8469 -2.9358 -1.3955
13504TIP3    H240449   7.430   7.844   3.039 -0.9901  0.2438  0.7278
13505TIP3   OH240450   1.055   2.098   1.453 -0.3026  0.2269  0.5629
13505TIP3    H140451   1.128   2.082   1.513  0.4189 -1.4564 -0.7253
13505TIP3    H240452   1.095   2.144   1.379 -1.1603  2.1621  1.2654
13506TIP3   OH240453   0.986   0.741   1.412 -0.4586  0.2972 -0.0463
13506TIP3    H140454   0.934   0.672   1.451  0.6523  0.3776  1.6318
13506TIP3    H240455   1.066   0.697   1.383  0.0392  0.7816  0.5793
13507TIP3   OH240456   3.652   4.852   6.379 -0.1712 -0.1153 -0.2845
13507TIP3    H140457   3.676   4.760   6.367 -0.2967 -0.4618  1.8508
13507TIP3    H240458   3.560   4.850   6.404  0.0253  0.5145  0.5192
13508TIP3   OH240459   4.678   3.070   6.865  0.3006  0.0514 -0.6582
13508TIP3    H140460   4.601   3.126   6.857 -1.0276 -1.7789 -0.9490
13508TIP3    H240461   4.748   3.129   6.893 -1.6990  1.3663  1.7728
13509TIP3   OH240462   2.892   7.491  -0.001 -0.4220  0.5899  1.0490
13509TIP3    H140463   2.798   7.481   0.009 -0.6120  2.3328  1.1895
13509TIP3    H240464   2.921   7.532   0.081  0.4895 -0.1764  1.1196
13510TIP3   OH240465   6.625   7.804   0.839 -0.5991  0.5167  0.4519
13510TIP3    H140466   6.551   7.863   0.853 -0.2271  1.0600  0.0956
13510TIP3    H240467   6.601   7.725   0.888 -1.7333  0.4253 -0.2276
13511TIP3   OH240468   5.335   2.735   6.247  0.0898 -0.4950 -0.3205
13511TIP3    H140469   5.425   2.768   6.249  0.3553 -1.2183 -0.2189
13511TIP3    H240470   5.311   2.737   6.154 -0.2418  0.8880 -0.2211
13512TIP3   OH240471   7.812   7.004   1.540 -0.1813 -0.0164 -0.3851
13512TIP3    H140472   7.801   6.915   1.572 -1.9326  0.6683  0.9822
13512TIP3    H240473   7.757   7.057   1.597  0.3870  1.8674 -1.5505
13513TIP3   OH240474   5.222   5.770   2.672 -0.0611 -0.1804 -0.1677
13513TIP3    H140475   5.260   5.770   2.760 -0.7012 -0.2035  0.1153
13513TIP3    H240476   5.260   5.694   2.629 -0.6874 -0.8885  0.5117
13514TIP3   OH240477   3.137   0.456   1.937  0.1897 -0.1876  0.1160
13514TIP3    H140478   3.158   0.489   1.849 -0.6737  0.1320  0.0274
13514TIP3    H240479   3.062   0.399   1.924  0.6035 -0.8291  0.5276
13515TIP3   OH240480   0.694   0.841   3.105  0.3806 -0.0337  0.2102
13515TIP3    H140481   0.659   0.754   3.121  1.3853 -0.2762  1.0890
13515TIP3    H240482   0.720   0.874   3.191  1.7603  0.3811 -0.3499
13516TIP3   OH240483   6.734   1.970   5.107  0.1869  0.3724 -0.1907
13516TIP3    H140484   6.781   1.904   5.056  0.2377 -0.7929  1.3129
13516TIP3    H240485   6.798   2.002   5.170 -0.3253  0.6180  0.2091
13517TIP3   OH240486   3.384   3.459   6.255  0.0601 -0.1151  0.0548
13517TIP3    H140487   3.289   3.468   6.251 -0.0787 -1.5853 -0.2636
13517TIP3    H240488   3.401   3.414   6.338  0.3562 -1.1467 -0.5518
13518TIP3   OH240489   6.379   7.452   3.335  0.2225  0.0855  0.2286
13518TIP3    H140490   6.372   7.365   3.296 -0.8515  0.1128  0.3448
13518TIP3    H240491   6.333   7.445   3.418  1.2413  0.4224  0.8231
13519TIP3   OH240492   6.046   6.640   0.880 -0.6622  0.2220 -0.1391
13519TIP3    H140493   5.987   6.625   0.806 -2.5330  0.8896  1.1706
13519TIP3    H240494   6.043   6.558   0.930 -1.9915  0.9143  0.9428
13520TIP3   OH240495   7.616   6.630   0.235 -0.1137 -0.1202 -0.0719
13520TIP3    H140496   7.693   6.679   0.206 -0.7083  0.3835 -0.8180
13520TIP3    H240497   7.547   6.657   0.175 -1.0591  0.0060  1.0594
13521TIP3   OH240498   1.103   5.704   0.201  0.4834  0.0049 -0.3398
13521TIP3    H140499   1.039   5.645   0.243 -0.7606 -0.5482 -2.9441
13521TIP3    H240500   1.078   5.705   0.109  3.3786  0.9663 -1.1469
13522TIP3   OH240501   7.768   6.070   0.941  0.4398 -0.1137  0.7118
13522TIP3    H140502   7.720   6.136   0.992  2.2473  1.2614  0.7010
13522TIP3    H240503   7.709   5.995   0.935 -0.9057  0.7973  2.3972
13523TIP3   OH240504   7.365   7.261   0.716 -0.1797 -0.0599  0.0222
13523TIP3    H140505   7.350   7.210   0.636 -1.4914  1.0216 -0.4525
13523TIP3    H240506   7.413   7.338   0.687  0.4091 -0.2564  0.4754
13524TIP3   OH240507   6.870   5.614   2.487  0.7529  0.0333 -0.1671
13524TIP3    H140508   6.911   5.558   2.553  0.6858 -0.3814 -0.4762
13524TIP3    H240509   6.776   5.604   2.501  0.7467  0.5708  0.1949
13525TIP3   OH240510   8.320   0.015   2.886  0.0929  0.1131  0.1685
13525TIP3    H140511   8.264   0.069   2.943  0.1305 -0.7401  1.0268
13525TIP3    H240512   8.279   0.021   2.800 -0.6220  0.4903  0.5294
13526TIP3   OH240513   3.285   0.725   2.088  0.1388 -0.1468  0.0512
13526TIP3    H140514   3.321   0.639   2.066  0.7986  0.3652 -0.9712
13526TIP3    H240515   3.191   0.711   2.098  0.2479 -0.9924 -0.0766
13527TIP3   OH240516   2.749   0.601   0.734  0.7064 -0.4445  0.6396
13527TIP3    H140517   2.719   0.531   0.792 -0.0823 -0.6960 -0.0601
13527TIP3    H240518   2.684   0.671   0.746  0.7310 -0.3656  0.3047
13528TIP3   OH240519   7.834   7.282   2.848 -0.1895  0.5623 -0.7176
13528TIP3    H140520   7.871   7.370   2.847  0.5980  0.2977 -4.8316
13528TIP3    H240521   7.903   7.228   2.889 -0.1947  1.6146  0.7384
13529TIP3   OH240522   5.564   7.208   0.786 -0.5750  0.0178 -0.5681
13529TIP3    H140523   5.520   7.184   0.704 -0.1048 -1.6364 -0.3681
13529TIP3    H240524   5.627   7.275   0.760  0.1263 -1.0605 -1.7114
13530TIP3   OH240525   8.348   6.558   1.932  0.0760 -0.1043 -0.4023
13530TIP3    H140526   8.265   6.543   1.886 -0.0800 -0.6704  0.0597
13530TIP3    H240527   8.330   6.632   1.990 -0.6435 -1.3890  1.0309
13531TIP3   OH240528   7.552   7.382   1.798 -0.1573 -0.1786  0.3841
13531TIP3    H140529   7.562   7.465   1.752  0.1618 -0.1610  0.4847
13531TIP3    H240530   7.497   7.402   1.873  1.0345  0.2293  1.1635
13532TIP3   OH240531   5.006   2.360   6.655  0.1370  0.0844  0.2505
13532TIP3    H140532   5.042   2.388   6.571  1.6901  1.0001  1.1994
13532TIP3    H240533   4.911   2.361   6.642  0.2855  1.9994 -0.9588
13533TIP3   OH240534   0.626   5.210   0.587  0.1790  0.8823  0.1631
13533TIP3    H140535   0.638   5.276   0.655  1.4186 -0.1993  1.0400
13533TIP3    H240536   0.676   5.135   0.619 -1.0979 -0.4274 -0.8775
13534TIP3   OH240537   4.431   1.820   6.392 -0.2920  0.7178 -0.4198
13534TIP3    H140538   4.356   1.823   6.332  1.4207  0.5669 -2.6690
13534TIP3    H240539   4.440   1.728   6.415 -0.4925  0.6655 -0.5480
13535TIP3   OH240540   0.670   1.634   0.751 -0.1389  0.5767  0.1284
13535TIP3    H140541   0.614   1.710   0.765 -0.0932  0.0230  3.7074
13535TIP3    H240542   0.649   1.574   0.823  2.6775 -1.0564 -0.3152
13536TIP3   OH240543   8.084   6.703   0.588 -0.5975  0.5962  0.4670
13536TIP3    H140544   8.111   6.616   0.618 -0.5616  0.8886  1.2846
13536TIP3    H240545   7.991   6.694   0.569 -0.6745  0.4737  0.9004
13537TIP3   OH240546   1.869   0.791   1.838  0.3434 -0.1158  0.7720
13537TIP3    H140547   1.780   0.812   1.866  0.5776  0.2321  1.2693
13537TIP3    H240548   1.878   0.831   1.752  0.3434  0.6848  1.1403
13538TIP3   OH240549   5.324   3.586   6.362  0.1748 -0.3665 -0.0108
13538TIP3    H140550   5.237   3.606   6.398  1.1684  1.9954  1.2113
13538TIP3    H240551   5.312   3.590   6.268 -0.8635  1.0180  0.1543
13539TIP3   OH240552   2.485   0.200   0.681 -0.2460 -0.8983 -0.7990
13539TIP3    H140553   2.389   0.198   0.680 -0.2687 -0.9421  0.4377
13539TIP3    H240554   2.509   0.138   0.750  0.6197  0.7294  0.3886
13540TIP3   OH240555   8.396   4.352   5.977  0.6259  0.1669 -0.4843
13540TIP3    H140556   8.409   4.396   6.061  1.6407 -0.9262 -0.0605
13540TIP3    H240557   8.474   4.375   5.926  0.7324 -0.4132 -0.5804
13541TIP3   OH240558   2.777   1.127   0.834  0.2844 -0.2908 -0.4952
13541TIP3    H140559   2.738   1.151   0.750 -0.3556  0.9625  0.1491
13541TIP3    H240560   2.870   1.114   0.814  0.2589  0.6594 -1.2705
13542TIP3   OH240561   0.864   0.741   1.878  0.0231  0.3693  0.3209
13542TIP3    H140562   0.938   0.747   1.939  0.8442  0.5865 -0.6879
13542TIP3    H240563   0.832   0.831   1.869 -0.8233  0.1815  1.2956
13543TIP3   OH240564   3.828   4.349   6.897 -0.7982  0.3550 -0.3453
13543TIP3    H140565   3.811   4.321   6.987 -0.6788 -1.8935 -0.9894
13543TIP3    H240566   3.742   4.369   6.861 -0.8843  0.8434  0.1224
13544TIP3   OH240567   1.463   1.074   1.639  0.2652  0.4013  0.3424
13544TIP3    H140568   1.424   1.161   1.654 -1.8987 -0.3730 -0.6650
13544TIP3    H240569   1.401   1.013   1.678  0.7648 -0.8244 -0.7613
13545TIP3   OH240570   7.544   7.672   1.070  0.3705 -0.4333  0.4256
13545TIP3    H140571   7.595   7.746   1.103 -1.0629  0.5917  0.4024
13545TIP3    H240572   7.454   7.691   1.097  0.0489 -2.4244  0.8683
13546TIP3   OH240573   7.329   6.944   0.899 -0.1570  0.3077  0.2187
13546TIP3    H140574   7.305   6.857   0.866  0.0225  0.3871 -0.1217
13546TIP3    H240575   7.381   6.926   0.977 -0.2751  0.1102  0.2532
13547TIP3   OH240576   7.653   6.577   2.678  0.0849  0.3751 -0.2656
13547TIP3    H140577   7.721   6.591   2.744 -0.1619  1.6296 -0.2681
13547TIP3    H240578   7.571   6.586   2.725 -0.0948 -0.0546 -0.4884
13548TIP3   OH240579   4.285   0.373   0.423  0.2619  0.5062  0.3905
13548TIP3    H140580   4.274   0.350   0.515  2.0942  2.0549  1.0426
13548TIP3    H240581   4.228   0.313   0.375  1.0797 -1.9081  2.3692
13549TIP3   OH240582   1.995   7.168   3.708 -0.0589 -0.1760 -0.2034
13549TIP3    H140583   1.968   7.260   3.716  1.5237  0.0700  3.0125
13549TIP3    H240584   2.086   7.172   3.678 -0.2146 -0.7300 -0.7574
13550TIP3   OH240585   1.320   8.024   0.679 -0.0662  0.1141 -0.5389
13550TIP3    H140586   1.333   7.930   0.696  1.0160  0.2137 -0.7528
13550TIP3    H240587   1.258   8.027   0.606  0.1799 -0.4426 -0.7719
13551TIP3   OH240588   0.236   5.281   1.569 -0.0866 -0.3168 -0.0490
13551TIP3    H140589   0.266   5.372   1.566 -0.7693 -0.0967 -0.3096
13551TIP3    H240590   0.190   5.274   1.652 -0.0575 -0.4176 -0.0417
13552TIP3   OH240591   5.552   6.594   1.292 -0.0061 -0.2865  0.4136
13552TIP3    H140592   5.564   6.686   1.271  0.5387 -1.2637 -3.9720
13552TIP3    H240593   5.637   6.567   1.328  1.2824 -0.0130 -2.2767
13553TIP3   OH240594   8.008   7.664   1.851  0.0695  0.2396 -0.5969
13553TIP3    H140595   8.024   7.751   1.887  2.0274  0.5179 -2.0501
13553TIP3    H240596   7.950   7.679   1.777 -1.0958  0.0771  0.2730
13554TIP3   OH240597   2.580   4.408   6.747 -0.0442 -0.4479  0.1424
13554TIP3    H140598   2.598   4.418   6.654 -0.8144 -1.7887 -0.1530
13554TIP3    H240599   2.661   4.371   6.783  1.1745  2.4017  0.4664
13555TIP3   OH240600   6.732   6.666   1.632  0.1011 -0.2619 -0.2967
13555TIP3    H140601   6.643   6.648   1.603  0.9307  0.2798 -3.3057
13555TIP3    H240602   6.750   6.755   1.602  0.9180  0.4670  2.2239
13556TIP3   OH240603   1.828   7.197   2.049 -0.3951  0.7800 -0.1488
13556TIP3    H140604   1.910   7.243   2.030 -0.4695  1.1866  0.5089
13556TIP3    H240605   1.762   7.266   2.053 -1.0945  0.3007 -2.3942
13557TIP3   OH240606   5.039   4.172   0.445  0.6822 -0.4445  0.1950
13557TIP3    H140607   4.951   4.209   0.438  1.9290  2.8786  0.9700
13557TIP3    H240608   5.033   4.109   0.517 -1.1266 -0.4263  0.0710
13558TIP3   OH240609   1.395   0.825   0.959 -0.3196 -0.2592  0.2475
13558TIP3    H140610   1.384   0.918   0.937 -0.5091  0.2813  2.4899
13558TIP3    H240611   1.345   0.779   0.892 -1.2224  1.3206 -0.2122
13559TIP3   OH240612   8.255   7.190   2.217 -0.0348 -0.4676  0.0141
13559TIP3    H140613   8.244   7.098   2.244  1.7400 -0.7905 -0.2633
13559TIP3    H240614   8.228   7.192   2.125  0.1330 -0.7688 -0.0430
13560TIP3   OH240615   3.676   0.063   2.428  0.1350 -0.3679 -0.2586
13560TIP3    H140616   3.719   0.067   2.343  0.0115  0.0710 -0.3021
13560TIP3    H240617   3.733   0.009   2.482 -0.3462 -1.5702 -0.9442
13561TIP3   OH240618   2.278   7.013   3.188  0.0107 -0.2172 -0.2243
13561TIP3    H140619   2.222   7.059   3.250  0.1826  1.5557 -1.3343
13561TIP3    H240620   2.361   7.003   3.233 -0.6065 -1.2164  0.7445
13562TIP3   OH240621   7.474   7.889   0.604  0.3401  0.4568 -0.0689
13562TIP3    H140622   7.517   7.950   0.663 -2.0801  1.0709  1.1596
13562TIP3    H240623   7.429   7.828   0.663 -0.9211  0.1965 -1.2763
13563TIP3   OH240624   8.018   4.313   0.495 -0.0606  0.4301  0.5957
13563TIP3    H140625   8.085   4.257   0.455  0.0703  0.8017  0.2891
13563TIP3    H240626   8.068   4.384   0.536 -0.1571 -0.2859  1.9656
13564TIP3   OH240627   1.046   7.140   2.125 -0.0736 -0.0040 -0.2337
13564TIP3    H140628   1.136   7.106   2.125 -0.2954 -0.5993  0.2378
13564TIP3    H240629   1.054   7.229   2.159  0.0502 -0.8464  2.0564
13565TIP3   OH240630   8.033   7.079   1.166  0.0809  0.5501  0.4797
13565TIP3    H140631   7.987   7.106   1.086  0.2412 -0.4685  0.0347
13565TIP3    H240632   7.981   7.007   1.200  2.7186 -2.4261 -1.4850
13566TIP3   OH240633   7.903   7.268   1.383 -0.6676 -0.3112  0.7937
13566TIP3    H140634   7.830   7.270   1.445 -0.9550 -1.0185  0.4831
13566TIP3    H240635   7.862   7.248   1.299 -0.3278  0.9601  0.3024
13567TIP3   OH240636   0.438   5.770   1.696 -0.1390 -0.6942 -0.0988
13567TIP3    H140637   0.378   5.840   1.722  0.5107  0.0056 -0.4698
13567TIP3    H240638   0.520   5.815   1.675 -0.3442 -1.3206 -2.3999
13568TIP3   OH240639   0.880   7.708   1.954 -0.2864 -0.4891  0.6520
13568TIP3    H140640   0.913   7.727   2.042 -0.0937 -0.8325  0.6525
13568TIP3    H240641   0.924   7.627   1.928  1.5316  0.9157 -0.7501
13569TIP3   OH240642   8.303   7.972   0.029 -0.1896  0.6814  0.2489
13569TIP3    H140643   8.363   7.976  -0.046  0.7908  1.8502  1.0754
13569TIP3    H240644   8.350   7.920   0.094 -0.5773  0.5944  0.4555
13570TIP3   OH240645   1.281   7.379   0.293  0.8412  0.5077 -0.2332
13570TIP3    H140646   1.261   7.362   0.201  0.2634  1.0304 -0.2008
13570TIP3    H240647   1.362   7.329   0.309 -0.3870 -1.6023 -0.3493
13571TIP3   OH240648   4.433   1.426   1.448  0.1366 -0.5218 -0.4124
13571TIP3    H140649   4.505   1.425   1.384  0.4955  0.7527 -0.0464
13571TIP3    H240650   4.355   1.409   1.396  0.5618 -0.7060 -1.0018
13572TIP3   OH240651   8.476   6.355   0.041 -0.0090  0.2302 -0.1074
13572TIP3    H140652   8.448   6.276   0.088 -1.7546  1.2819  0.6645
13572TIP3    H240653   8.434   6.349  -0.045  0.3153  0.0407 -0.2526
13573TIP3   OH240654   7.133   7.526   1.075  0.0855 -0.1333 -0.2995
13573TIP3    H140655   7.094   7.462   1.016 -0.8701 -0.9912  1.2212
13573TIP3    H240656   7.066   7.594   1.085  0.0386 -0.2438  0.1785
13574TIP3   OH240657   0.603   7.412   1.903  0.1261  0.8653  0.1925
13574TIP3    H140658   0.670   7.376   1.961 -0.3687  1.0209  0.8655
13574TIP3    H240659   0.556   7.335   1.871 -0.8890  0.8996  1.5777
13575TIP3   OH240660   8.337   6.819   2.041  0.3859  0.4559 -0.5771
13575TIP3    H140661   8.303   6.843   2.127 -1.1745 -0.3191 -0.9734
13575TIP3    H240662   8.423   6.862   2.037  0.0793  1.2578  0.9875
13576TIP3   OH240663   7.850   1.251   3.058  0.3908 -0.2917  0.3204
13576TIP3    H140664   7.770   1.221   3.014 -1.3806  3.2465  0.9614
13576TIP3    H240665   7.883   1.321   3.002  0.8105  0.9630  2.1093
13577TIP3   OH240666   6.707   7.933   0.070  0.1683 -0.3395  0.1983
13577TIP3    H140667   6.666   7.862   0.119  1.5300 -0.9255  0.5062
13577TIP3    H240668   6.732   7.997   0.137 -0.9030  0.3603 -0.0618
13578TIP3   OH240669   3.901   2.853   6.514 -0.1011  0.2374  0.0958
13578TIP3    H140670   3.935   2.857   6.424  0.4005 -0.6672  0.2381
13578TIP3    H240671   3.823   2.798   6.508  0.6976 -0.9702  0.4262
13579TIP3   OH240672   0.518   7.017   1.136  0.1032  0.1773 -0.4485
13579TIP3    H140673   0.475   7.023   1.221  0.5712 -0.8759 -0.1353
13579TIP3    H240674   0.530   7.108   1.109 -0.5968  0.5046  0.3300
13580TIP3   OH240675   7.498   7.569   3.503 -0.1272  0.8016  0.5375
13580TIP3    H140676   7.508   7.648   3.451  0.9130  1.1398  1.2247
13580TIP3    H240677   7.524   7.498   3.444  1.8041  1.2562  0.8036
13581TIP3   OH240678   1.442   1.129   1.352 -0.1298  0.6772 -0.0856
13581TIP3    H140679   1.503   1.061   1.383 -1.0475 -0.0016  0.2524
13581TIP3    H240680   1.396   1.158   1.431  0.2181  1.6652 -0.2370
13582TIP3   OH240681   8.233   6.007   0.653 -0.6491  0.3856  0.5509
13582TIP3    H140682   8.303   5.992   0.589 -1.8386  0.7660 -0.8484
13582TIP3    H240683   8.276   5.997   0.738  0.8563 -0.5392 -0.3031
13583TIP3   OH240684   1.301   2.364   0.068 -0.8243  1.0547  0.0386
13583TIP3    H140685   1.274   2.314  -0.008  2.4668  0.8954 -1.1120
13583TIP3    H240686   1.306   2.300   0.139 -2.8882  1.0155  0.1764
13584TIP3   OH240687   1.036   1.946   0.580 -0.1190 -0.1201  0.3892
13584TIP3    H140688   1.078   1.948   0.666  0.3353  1.0975  0.1521
13584TIP3    H240689   1.094   1.891   0.527 -1.8207 -3.1486  1.5568
13585TIP3   OH240690   0.895   6.094   0.218  0.6580 -0.0887 -0.6986
13585TIP3    H140691   0.910   6.122   0.308 -0.8058  0.1970 -0.5262
13585TIP3    H240692   0.829   6.025   0.224  0.5027 -0.0272 -1.5549
13586TIP3   OH240693   5.236   4.752   6.533 -0.1892  0.5365 -0.3305
13586TIP3    H140694   5.230   4.659   6.553  1.3418  0.4761 -0.0423
13586TIP3    H240695   5.276   4.791   6.611 -0.4254  1.3617 -0.6128
13587TIP3   OH240696   0.517   6.824   0.587 -0.1189  0.5018 -0.4604
13587TIP3    H140697   0.548   6.776   0.510  1.0231  0.8741 -0.2503
13587TIP3    H240698   0.495   6.756   0.651  2.1480  0.2433  0.0844
13588TIP3   OH240699   7.408   2.825   5.445  0.2633 -0.1726 -0.4211
13588TIP3    H140700   7.331   2.874   5.416  1.3114  0.3777 -2.3205
13588TIP3    H240701   7.440   2.872   5.522 -0.4802  0.3955 -0.4595
13589TIP3   OH240702   1.240   7.635   1.288  0.2347  0.0186  0.3199
13589TIP3    H140703   1.325   7.654   1.249  0.1053 -2.3814 -1.2329
13589TIP3    H240704   1.177   7.666   1.223 -0.0641  0.1236  0.6587
13590TIP3   OH240705   0.405   6.620   0.737  0.2804  0.0959 -0.1486
13590TIP3    H140706   0.420   6.529   0.765 -0.1234  0.1098  0.1112
13590TIP3    H240707   0.350   6.657   0.805 -0.3130  0.2744 -0.7249
13591TIP3   OH240708   5.425   2.065   6.882 -0.1056 -0.7651 -0.2886
13591TIP3    H140709   5.455   2.093   6.968 -2.0850 -0.2829  0.2579
13591TIP3    H240710   5.450   1.972   6.877  0.3207 -0.7095  0.6533
13592TIP3   OH240711   0.540   4.042   0.491 -0.0562  0.0264  0.4790
13592TIP3    H140712   0.503   4.092   0.564 -1.7275 -1.9736  1.0299
13592TIP3    H240713   0.508   4.087   0.413  0.1587  1.0270  0.9465
13593TIP3   OH240714   8.445   6.253   0.442  0.5292  0.1371  0.2305
13593TIP3    H140715   8.540   6.252   0.438  0.5296 -1.3489  0.3077
13593TIP3    H240716   8.421   6.162   0.462 -0.9559  0.2000 -1.1771
13594TIP3   OH240717   1.472   0.006   1.873  0.3001  0.3625 -0.2055
13594TIP3    H140718   1.404  -0.018   1.810 -0.7486  0.2197  0.9537
13594TIP3    H240719   1.548   0.028   1.819  0.6574 -3.4174 -1.4086
13595TIP3   OH240720   1.587   1.476   1.272  0.4095  0.0742 -0.4556
13595TIP3    H140721   1.615   1.391   1.238 -0.7575 -0.2303 -0.6986
13595TIP3    H240722   1.646   1.539   1.230 -0.1384 -0.4254 -2.0477
13596TIP3   OH240723   0.663   7.514   0.426 -0.6361  0.3929 -0.6579
13596TIP3    H140724   0.621   7.442   0.380 -0.1467 -0.1046 -0.3453
13596TIP3    H240725   0.592   7.561   0.469 -0.6152 -2.4533  2.7147
13597TIP3   OH240726   1.041   6.983   0.476  0.5500 -0.0486  0.3533
13597TIP3    H140727   1.046   7.072   0.442  0.4657 -0.2675 -0.2512
13597TIP3    H240728   1.038   6.993   0.571  0.7229  0.5827  0.2935
13598TIP3   OH240729   7.406   7.438   0.205  0.5258 -0.2881  1.0654
13598TIP3    H140730   7.449   7.460   0.122  1.3230 -0.2205  1.4943
13598TIP3    H240731   7.314   7.428   0.181  0.8339 -0.8556  0.0668
13599TIP3   OH240732   0.564   6.479   1.456  0.3506 -0.1901 -0.3870
13599TIP3    H140733   0.551   6.529   1.376  2.2368  0.8659 -0.0466
13599TIP3    H240734   0.558   6.387   1.427  1.5061  0.1663 -1.8320
13600TIP3   OH240735   0.435   5.921   0.950  0.1597  0.2482  0.4007
13600TIP3    H140736   0.393   5.871   0.880  1.7471 -2.0928  1.0620
13600TIP3    H240737   0.496   5.980   0.905  2.2588 -2.2934 -0.1751
13601TIP3   OH240738   3.568   1.535   0.681 -0.2171  0.6365 -0.3542
13601TIP3    H140739   3.597   1.601   0.744 -0.7942  1.1937 -0.6631
13601TIP3    H240740   3.585   1.575   0.596  0.4211 -0.0500 -0.5528
13602TIP3   OH240741   7.653   7.711   1.985  0.2424 -0.0821  0.4145
13602TIP3    H140742   7.692   7.789   1.947  0.4933 -1.0336 -1.3522
13602TIP3    H240743   7.706   7.639   1.951 -0.3928 -1.0672  1.4686
13603TIP3   OH240744   7.796   6.740   1.578  0.0504 -0.0202  0.0214
13603TIP3    H140745   7.717   6.687   1.584 -0.9503  1.3881 -0.4650
13603TIP3    H240746   7.839   6.728   1.663 -0.4367 -1.1679  0.1093
13604TIP3   OH240747   4.665   0.755   0.390  0.6195  0.3832  0.3720
13604TIP3    H140748   4.688   0.686   0.328  0.7384 -0.0115  0.8552
13604TIP3    H240749   4.635   0.828   0.335  0.2011 -0.1591 -0.1172
13605TIP3   OH240750   8.447   7.602   3.011  0.3440  0.2570 -0.5649
13605TIP3    H140751   8.390   7.525   3.011  0.8513 -0.1276 -0.3295
13605TIP3    H240752   8.480   7.608   2.922  0.3157  0.1841 -0.5799
13606TIP3   OH240753   1.131   7.748   3.965 -0.0609  0.0715  0.1541
13606TIP3    H140754   1.123   7.833   3.922 -0.3264  0.7163  1.4306
13606TIP3    H240755   1.173   7.691   3.901  1.0499  1.4497 -0.3421
13607TIP3   OH240756   0.347   7.064   2.489  0.3538  0.4095 -0.1773
13607TIP3    H140757   0.361   6.979   2.530  0.8070  0.3504 -0.4469
13607TIP3    H240758   0.398   7.060   2.408 -1.0694  0.2747 -1.0856
13608TIP3   OH240759   6.811   7.687   1.094 -0.5051 -0.1585  0.3029
13608TIP3    H140760   6.833   7.602   1.056  1.4127  0.9545 -1.1190
13608TIP3    H240761   6.724   7.707   1.060  0.4809  0.0417 -2.1653
13609TIP3   OH240762   1.034   1.482   0.114  0.5800  0.1334 -0.6788
13609TIP3    H140763   0.978   1.406   0.099  0.1756  0.0304  1.2760
13609TIP3    H240764   1.103   1.450   0.173 -0.1890  1.5349  1.0295
13610TIP3   OH240765   0.258   0.645   0.677  0.0578 -0.0203 -0.4219
13610TIP3    H140766   0.194   0.698   0.725  0.2965  0.0190 -0.1441
13610TIP3    H240767   0.266   0.689   0.592 -0.9518 -0.5392 -0.7982
13611TIP3   OH240768   7.970   7.155   2.555  0.3230  0.0839 -0.1066
13611TIP3    H140769   8.008   7.222   2.498 -0.6617  0.2219 -0.6118
13611TIP3    H240770   7.942   7.204   2.633 -0.4219  0.2750 -0.4878
13612TIP3   OH240771   2.811   1.368   1.012 -0.5715  0.1325 -0.1921
13612TIP3    H140772   2.797   1.450   1.061 -1.3301  0.1627 -0.4657
13612TIP3    H240773   2.754   1.305   1.055  0.6077 -0.4688  0.5300
13613TIP3   OH240774   7.467   6.216   0.189  0.2375  0.6500 -0.5008
13613TIP3    H140775   7.522   6.160   0.134  2.2778  1.4216  0.7052
13613TIP3    H240776   7.436   6.158   0.258 -1.3347 -0.0232 -1.7156
13614TIP3   OH240777   4.873   5.423   6.750  0.4344  0.1492  0.0179
13614TIP3    H140778   4.866   5.518   6.750  0.6008  0.1599 -0.2284
13614TIP3    H240779   4.918   5.402   6.832 -0.2388  0.2351  0.4155
13615TIP3   OH240780   2.154   2.275   2.657  0.1717  0.0431 -0.6006
13615TIP3    H140781   2.192   2.190   2.682 -0.4165 -0.5193 -1.5565
13615TIP3    H240782   2.132   2.317   2.740  0.3752 -0.7831 -0.1192
13616TIP3   OH240783   6.253   4.979   6.562  0.2229  0.8631 -0.0544
13616TIP3    H140784   6.328   5.006   6.615 -0.3233  0.8787  0.7054
13616TIP3    H240785   6.258   4.883   6.561  1.3008  0.9074 -1.5245
13617TIP3   OH240786   4.639   3.177   6.622 -0.1932 -0.2215  0.0094
13617TIP3    H140787   4.710   3.240   6.618  1.2621 -1.7212  1.5808
13617TIP3    H240788   4.663   3.118   6.693 -1.7759 -2.2344 -1.0754
13618TIP3   OH240789   1.332   7.396   2.044  0.2794  0.4350  0.5398
13618TIP3    H140790   1.333   7.306   2.079  2.9524  0.4250  0.4905
13618TIP3    H240791   1.345   7.385   1.950 -4.0743  0.6486 -0.2139
13619TIP3   OH240792   8.123   7.454   1.989  0.3426 -0.0576  0.0275
13619TIP3    H140793   8.219   7.453   1.991  0.3556 -1.0921 -0.7361
13619TIP3    H240794   8.101   7.541   1.957  1.0751 -0.3377 -1.3113
13620TIP3   OH240795   8.071   7.106   1.528  0.6201 -0.1345 -0.0096
13620TIP3    H140796   8.058   7.176   1.464 -1.8093 -1.3802 -0.9645
13620TIP3    H240797   7.983   7.070   1.541  1.4262 -1.2855  2.4447
13621TIP3   OH240798   7.106   6.873   1.944 -0.0131  0.0960 -0.3250
13621TIP3    H140799   7.148   6.912   2.021  1.0753  1.5166 -1.5806
13621TIP3    H240800   7.153   6.913   1.870 -2.1936  0.0959 -1.7392
13622TIP3   OH240801   0.744   7.637   1.314  0.0225  0.2439  0.2238
13622TIP3    H140802   0.803   7.572   1.278 -0.6174 -1.0225  1.4023
13622TIP3    H240803   0.661   7.623   1.269 -0.1166  0.2528  0.4757
13623TIP3   OH240804   4.696   0.190   0.286  0.2354  0.2440 -0.1433
13623TIP3    H140805   4.617   0.138   0.268  1.2087 -1.6479  0.9395
13623TIP3    H240806   4.662   0.275   0.317 -1.3847 -0.7784  0.9473
13624TIP3   OH240807   2.766   2.339   1.165  0.9082 -0.3576 -0.3579
13624TIP3    H140808   2.716   2.278   1.111 -2.0348  0.8696  0.8256
13624TIP3    H240809   2.792   2.409   1.106  1.4770 -1.1344 -1.0411
13625TIP3   OH240810   5.579   3.473   6.030 -0.8844 -0.8551  0.0359
13625TIP3    H140811   5.631   3.461   5.951  0.1781 -0.4434  0.6559
13625TIP3    H240812   5.504   3.414   6.020 -0.8195 -0.7050 -1.3208
13626TIP3   OH240813   0.315   7.048   2.887  0.7279  0.2321 -0.0485
13626TIP3    H140814   0.319   7.143   2.884  0.5793  0.1924 -1.4757
13626TIP3    H240815   0.237   7.025   2.837  0.9557 -0.6583 -0.0111
13627TIP3   OH240816   2.997   1.739   0.763  0.5151 -0.1702  0.3012
13627TIP3    H140817   2.963   1.690   0.688  3.0792 -0.6951 -0.5753
13627TIP3    H240818   3.013   1.827   0.728  1.7748 -0.4334  0.1746
13628TIP3   OH240819  -0.009   3.266   4.833 -0.2621 -0.1760  0.0625
13628TIP3    H140820   0.079   3.228   4.843 -0.1844 -0.2849 -0.9503
13628TIP3    H240821  -0.068   3.196   4.860 -0.0488 -0.2255  0.4076
13629TIP3   OH240822   4.232   2.807   6.334 -0.0772 -0.2453 -0.3512
13629TIP3    H140823   4.325   2.810   6.311 -0.3315  1.1213 -1.2856
13629TIP3    H240824   4.214   2.714   6.349  0.6710 -0.9695 -3.4610
13630TIP3   OH240825   7.704   5.565   6.788 -0.0820 -0.0864 -0.8874
13630TIP3    H140826   7.643   5.603   6.724  1.2337  1.6540 -1.1379
13630TIP3    H240827   7.750   5.641   6.825  0.5458 -1.2368  0.7112
13631TIP3   OH240828   8.050   7.964   2.638 -0.2374 -0.3572 -0.0882
13631TIP3    H140829   8.056   7.884   2.585 -1.7390 -1.5246  1.4602
13631TIP3    H240830   7.968   7.955   2.687 -0.4219  2.1291  0.1447
13632TIP3   OH240831   5.361   1.718   1.804  0.0808 -0.0553  0.4770
13632TIP3    H140832   5.452   1.691   1.802  0.7786  1.6599  4.1187
13632TIP3    H240833   5.355   1.787   1.738  1.2695 -0.5586 -0.1682
13633TIP3   OH240834   0.896   5.977   1.847 -0.6749  1.1526  0.0269
13633TIP3    H140835   0.863   5.925   1.920 -1.8554  0.6467 -0.8614
13633TIP3    H240836   0.919   5.913   1.780 -0.0066  1.6428 -0.2173
13634TIP3   OH240837   7.110   0.364   0.482  0.5245  0.2712  0.0510
13634TIP3    H140838   7.166   0.439   0.502  0.6704  0.2777 -0.3808
13634TIP3    H240839   7.165   0.288   0.501 -0.2686  0.2337  2.4043
13635TIP3   OH240840   3.700   0.014   0.942  0.6286  0.0864 -0.1074
13635TIP3    H140841   3.660  -0.048   1.003 -0.3003  0.4791 -0.3050
13635TIP3    H240842   3.640   0.088   0.941  1.6697  0.9425  0.0322
13636TIP3   OH240843   4.987   1.804   5.924  0.0314  0.1292  1.0384
13636TIP3    H140844   5.032   1.736   5.873  0.0045  1.0336 -0.2114
13636TIP3    H240845   4.957   1.759   6.003  2.0162 -0.7868  1.2958
13637TIP3   OH240846   8.164   7.745   2.413 -0.3175 -0.1009  0.6216
13637TIP3    H140847   8.077   7.709   2.394  0.3362 -0.5733 -1.5644
13637TIP3    H240848   8.178   7.812   2.346  1.3000 -0.5138  0.5219
13638TIP3   OH240849   8.175   7.482   0.753 -0.3846 -0.1288  0.1273
13638TIP3    H140850   8.087   7.504   0.783 -0.3771 -0.2504  0.2398
13638TIP3    H240851   8.162   7.411   0.691 -0.5171  1.0597 -1.2250
13639TIP3   OH240852   5.633   0.002   1.146 -0.5948  0.0636  0.5432
13639TIP3    H140853   5.609   0.045   1.064  0.0510 -0.6019  0.0043
13639TIP3    H240854   5.549  -0.029   1.182 -0.7636 -0.5608 -0.3763
13640TIP3   OH240855  -0.006   4.662   5.651  0.1551 -0.5333  1.0553
13640TIP3    H140856   0.033   4.621   5.728  1.6639  0.5102  0.8481
13640TIP3    H240857  -0.018   4.754   5.675 -1.1401 -0.5903  0.7130
13641TIP3   OH240858   8.484   2.982   5.823 -0.1514 -0.0063  0.0024
13641TIP3    H140859   8.484   3.073   5.795  1.3117  0.4110  1.2733
13641TIP3    H240860   8.404   2.945   5.786 -0.2048  1.4968 -1.4428
13642TIP3   OH240861   8.502   0.105   0.643  0.5045 -0.3922 -0.0351
13642TIP3    H140862   8.413   0.140   0.645  0.3744 -0.6647 -0.7049
13642TIP3    H240863   8.557   0.181   0.626  0.3718 -0.2606  0.1267
13643TIP3   OH240864   8.216   2.603   6.295 -0.5191 -0.2963  0.7381
13643TIP3    H140865   8.299   2.573   6.333 -1.0269 -1.0795  1.2314
13643TIP3    H240866   8.195   2.538   6.228 -0.6552 -0.0157  0.5076
13644TIP3   OH240867   5.706   1.998   6.508 -0.2142 -0.1806 -0.5976
13644TIP3    H140868   5.637   2.052   6.548  1.3534  1.8611 -0.5700
13644TIP3    H240869   5.712   1.921   6.565 -1.2605  0.4649  0.4073
13645TIP3   OH240870   4.471   1.974   0.385 -0.0373  0.3348  0.2899
13645TIP3    H140871   4.398   2.009   0.334 -1.0819  1.3761  2.4633
13645TIP3    H240872   4.512   2.052   0.423  0.2658 -0.4868  1.6682
13646TIP3   OH240873   0.940   3.660   4.724  0.3269 -0.4083 -0.1276
13646TIP3    H140874   1.030   3.693   4.727  0.8237 -1.6096 -1.2496
13646TIP3    H240875   0.897   3.714   4.659  0.0803  0.5200  0.7964
13647TIP3   OH240876   2.927   0.196   0.137 -0.3640 -0.6867  0.0873
13647TIP3    H140877   3.022   0.190   0.150 -0.1506 -0.9443 -1.3962
13647TIP3    H240878   2.916   0.181   0.043 -1.9058 -0.9558  0.3033
13648TIP3   OH240879   1.571   7.638   1.257  0.4463 -0.1588 -0.1917
13648TIP3    H140880   1.657   7.645   1.298  1.0733 -0.7838 -1.3743
13648TIP3    H240881   1.525   7.571   1.307  1.3540 -1.2162 -0.7640
13649TIP3   OH240882   3.011   7.492   1.310  0.4417  0.2306 -0.2476
13649TIP3    H140883   3.026   7.583   1.283  1.6164  0.5582  1.4108
13649TIP3    H240884   2.956   7.499   1.388  2.1607 -0.3582  1.0537
13650TIP3   OH240885   1.232   5.020   6.383 -0.4829 -0.7654  0.0698
13650TIP3    H140886   1.265   4.931   6.378 -0.9046 -1.1099  2.8925
13650TIP3    H240887   1.139   5.011   6.402 -0.2154  0.2634  1.9794
13651TIP3   OH240888   0.899   7.150   2.544  0.2156 -0.2629 -0.1881
13651TIP3    H140889   0.975   7.137   2.600 -0.1255 -1.3772  0.0365
13651TIP3    H240890   0.827   7.170   2.604  0.4261  1.3085 -0.4345
13652TIP3   OH240891   0.058   5.348   6.069 -0.3878 -0.4418  0.0982
13652TIP3    H140892   0.095   5.262   6.051  0.3494 -0.2581  0.6798
13652TIP3    H240893   0.131   5.398   6.106 -0.5794  0.7077 -1.0537
13653TIP3   OH240894   8.015   2.553   3.578 -0.2110 -0.3372 -0.5118
13653TIP3    H140895   7.935   2.605   3.574 -0.8385 -1.3514 -1.2593
13653TIP3    H240896   8.083   2.611   3.543 -0.9739 -0.1544 -1.7187
13654TIP3   OH240897   7.894   5.618   6.420  0.1202  0.2031 -0.0183
13654TIP3    H140898   7.988   5.597   6.422  0.4467  1.0261 -3.4949
13654TIP3    H240899   7.852   5.535   6.398  0.2176  0.2696 -0.4595
13655TIP3   OH240900   7.913   3.138   4.668 -0.2610  0.3624 -0.0514
13655TIP3    H140901   7.833   3.111   4.714  0.5392 -1.8101  0.1332
13655TIP3    H240902   7.975   3.160   4.737  0.0954 -0.3966 -0.1145
13656TIP3   OH240903   1.024   6.912   1.617 -0.0693  0.0189  0.0702
13656TIP3    H140904   1.013   6.900   1.711 -1.8178 -0.4033 -0.1617
13656TIP3    H240905   0.982   6.836   1.578 -2.2648  1.7790 -1.1346
13657TIP3   OH240906   8.016   2.842   6.454  0.2010  0.3448 -0.3254
13657TIP3    H140907   7.977   2.845   6.541  3.0020 -0.1271  1.0038
13657TIP3    H240908   8.110   2.852   6.469  0.9103 -1.3129 -3.1701
13658TIP3   OH240909   3.292   7.001   0.900 -0.4740 -0.2775  0.3216
13658TIP3    H140910   3.333   6.986   0.985 -1.7466  0.0517  1.0180
13658TIP3    H240911   3.274   7.095   0.899  2.4807  0.3280 -1.7035
13659TIP3   OH240912   6.526   0.961   2.086 -0.3723  0.4550 -0.2139
13659TIP3    H140913   6.552   1.053   2.076 -1.4363  0.8206  0.2293
13659TIP3    H240914   6.608   0.913   2.095  0.2007  1.3264 -0.7856
13660TIP3   OH240915   2.570   7.348   1.989 -0.5358 -0.5168  0.0694
13660TIP3    H140916   2.602   7.434   1.962 -0.9252 -0.3156  0.2584
13660TIP3    H240917   2.587   7.344   2.083 -1.2111 -0.3524  0.1951
13661TIP3   OH240918   7.025   2.836   6.470 -0.1920 -0.4990  0.1315
13661TIP3    H140919   6.930   2.838   6.486  0.3773  0.8371  3.7937
13661TIP3    H240920   7.049   2.744   6.479 -1.1310 -0.8426 -0.7700
13662TIP3   OH240921   0.431   6.251   3.047 -0.0538  0.3326  0.2162
13662TIP3    H140922   0.357   6.289   3.094 -0.3980 -1.7051  1.4273
13662TIP3    H240923   0.507   6.298   3.079 -0.4172 -0.2415  2.0079
13663TIP3   OH240924   7.113   3.955   5.165  0.4347  0.0929  0.0030
13663TIP3    H140925   7.112   4.040   5.122  0.3749  0.4920  0.8037
13663TIP3    H240926   7.046   3.904   5.118  1.7420 -0.1217 -1.6855
13664TIP3   OH240927   4.966   3.785   6.780 -0.1842 -0.3108 -0.2017
13664TIP3    H140928   5.000   3.793   6.869  2.1260 -1.2032 -0.9478
13664TIP3    H240929   4.932   3.872   6.759 -1.8474 -0.3903  1.9338
13665TIP3   OH240930   0.337   2.697   6.173 -1.0702 -0.3640 -0.2008
13665TIP3    H140931   0.263   2.687   6.113 -1.5729  2.1731 -0.0663
13665TIP3    H240932   0.309   2.766   6.233  1.6044  0.9375 -0.4123
13666TIP3   OH240933   1.778   6.073   2.037  0.5331 -0.6133 -0.3664
13666TIP3    H140934   1.870   6.046   2.044 -0.2276 -3.7779 -1.5287
13666TIP3    H240935   1.776   6.129   1.959  1.7138  0.7046  0.5233
13667TIP3   OH240936   6.613   1.440   0.570  0.1847 -0.0000  0.5291
13667TIP3    H140937   6.618   1.524   0.616 -2.1691  1.3582 -1.6038
13667TIP3    H240938   6.649   1.458   0.483 -1.1876 -0.9613 -0.2512
13668TIP3   OH240939   6.043   4.600   6.205 -0.3631  0.3506 -0.1442
13668TIP3    H140940   6.133   4.569   6.216  0.2401  1.3029 -2.1780
13668TIP3    H240941   6.037   4.677   6.262 -0.5684 -0.9271  1.6182
13669TIP3   OH240942   6.427   3.652   6.789  0.5603  0.9020 -0.5794
13669TIP3    H140943   6.341   3.610   6.798  0.5305  0.7757 -1.3637
13669TIP3    H240944   6.487   3.579   6.775  0.3164  1.1683 -3.3082
13670TIP3   OH240945   1.464   6.857   2.418 -0.2990  0.6603  0.6157
13670TIP3    H140946   1.375   6.878   2.446 -0.0693  1.3196  0.8531
13670TIP3    H240947   1.460   6.855   2.323 -0.1276  2.6852  0.5452
13671TIP3   OH240948   2.588   6.977   0.781  0.7081  0.3576  0.0872
13671TIP3    H140949   2.510   6.995   0.833 -0.1864 -2.3405 -0.2026
13671TIP3    H240950   2.555   6.925   0.707  2.3834  1.6273 -1.5773
13672TIP3   OH240951   3.189   5.080   6.590 -0.1824 -0.2069 -0.1735
13672TIP3    H140952   3.096   5.102   6.580  0.0962  0.7716 -0.6590
13672TIP3    H240953   3.232   5.128   6.520  0.5920 -1.3942 -0.5241
13673TIP3   OH240954   8.527   6.955   0.794 -0.4311 -0.2116  0.0078
13673TIP3    H140955   8.442   6.935   0.755 -0.7173  0.0342  0.5006
13673TIP3    H240956   8.507   7.017   0.865 -0.0466 -1.3704  1.1583
13674TIP3   OH240957   7.418   3.940   4.832  0.2108  0.0810 -0.2793
13674TIP3    H140958   7.390   4.031   4.831 -0.9504 -0.2023  2.5641
13674TIP3    H240959   7.488   3.937   4.897 -0.3583 -1.1865  0.3044
13675TIP3   OH240960   1.825   6.753   0.712 -0.2374  0.2937  0.2194
13675TIP3    H140961   1.779   6.836   0.702 -1.8859 -0.7339 -0.9891
13675TIP3    H240962   1.915   6.777   0.735 -1.1077  2.3567  1.5183
13676TIP3   OH240963   1.263   7.800   2.110  0.4668 -0.2896  0.0107
13676TIP3    H140964   1.240   7.821   2.019  0.9936  0.7425  0.1076
13676TIP3    H240965   1.205   7.854   2.163 -0.0905 -1.1621  0.3021
13677TIP3   OH240966   2.090   6.594   1.329  0.0905 -0.3327  0.3171
13677TIP3    H140967   2.174   6.613   1.287  0.3058 -1.1653  0.3662
13677TIP3    H240968   2.079   6.664   1.393  1.3091 -0.8841  1.1394
13678TIP3   OH240969   1.094   7.746   1.075  0.5585 -0.4947 -0.2443
13678TIP3    H140970   1.133   7.822   1.033 -0.1422  0.1152  0.2006
13678TIP3    H240971   1.002   7.749   1.049  0.2742 -0.5131  0.7425
13679TIP3   OH240972   1.393   7.640   0.499 -0.4180 -0.0075 -0.7050
13679TIP3    H140973   1.364   7.549   0.498 -0.2385 -0.0731 -0.0517
13679TIP3    H240974   1.346   7.680   0.573  0.8871 -0.0342  0.1666
13680TIP3   OH240975   1.826   7.593   1.371 -0.0206  0.3347 -0.7687
13680TIP3    H140976   1.807   7.534   1.444  0.3289  0.5951 -0.4641
13680TIP3    H240977   1.874   7.539   1.308  0.8078  0.4379 -0.2353
13681TIP3   OH240978   3.955   8.009   1.078  0.1002  0.3764 -0.1432
13681TIP3    H140979   3.934   7.994   0.986  0.8683 -1.1464 -0.0718
13681TIP3    H240980   3.953   7.923   1.119 -0.0969  1.0160  1.2537
13682TIP3   OH240981   0.219   6.268   0.663 -0.0818 -0.9131  0.2126
13682TIP3    H140982   0.151   6.230   0.718  0.9247 -1.9224  0.7873
13682TIP3    H240983   0.282   6.305   0.724 -0.4119  0.5479 -0.3285
13683TIP3   OH240984   7.744   3.065   6.578 -0.1425  0.6213  0.1722
13683TIP3    H140985   7.698   2.994   6.622 -0.5451  2.1294  2.2361
13683TIP3    H240986   7.810   3.094   6.641 -1.0094  3.0898 -0.0040
13684TIP3   OH240987   6.111   1.645   6.239  0.4735  0.6521  0.0085
13684TIP3    H140988   6.151   1.715   6.290  0.3121  1.8163 -1.4203
13684TIP3    H240989   6.176   1.624   6.172 -0.1006  0.4900 -0.5022
13685TIP3   OH240990   7.919   6.967   0.245 -0.1742  0.3337 -0.1276
13685TIP3    H140991   7.946   6.884   0.284 -1.0322 -0.9905 -2.2813
13685TIP3    H240992   7.997   6.999   0.200  0.6984  1.6623  2.2361
13686TIP3   OH240993   1.294   6.378   0.113  0.4489 -0.1402  0.4257
13686TIP3    H140994   1.209   6.347   0.145 -1.1623  2.0184 -1.6011
13686TIP3    H240995   1.317   6.315   0.044 -0.3323  0.2101 -0.1664
13687TIP3   OH240996   2.502   7.465   0.398  0.0060 -0.3834  0.1378
13687TIP3    H140997   2.473   7.490   0.310 -1.1961  1.7425  1.1142
13687TIP3    H240998   2.586   7.509   0.409  0.1745 -0.6805  0.0531
13688TIP3   OH240999   7.336   6.285   1.222  0.3047 -0.5325  0.3406
13688TIP3    H141000   7.312   6.197   1.191  1.6101 -0.7152 -0.1893
13688TIP3    H241001   7.352   6.273   1.316 -3.3393 -0.0440  1.0783
13689TIP3   OH241002   0.410   7.594   2.281 -0.5475 -0.2304  0.6930
13689TIP3    H141003   0.478   7.612   2.346  1.2174 -0.4070 -1.0547
13689TIP3    H241004   0.363   7.518   2.316  0.7380 -0.6607  1.5208
13690TIP3   OH241005   0.997   2.203   4.756 -0.0631  0.4528 -0.2122
13690TIP3    H141006   0.956   2.230   4.838 -1.1311  0.8426 -0.8684
13690TIP3    H241007   1.035   2.284   4.720  1.6990  0.0205  0.6067
13691TIP3   OH241008   8.400   3.112   6.503  0.0131  0.0488  0.0712
13691TIP3    H141009   8.431   3.022   6.491  1.3202  0.6857 -1.4073
13691TIP3    H241010   8.404   3.126   6.598  2.7922 -0.4072  0.0419
13692TIP3   OH241011   5.510   0.609   6.009 -0.2838  0.3293 -0.9707
13692TIP3    H141012   5.459   0.540   5.965  0.1161  0.5642 -1.8079
13692TIP3    H241013   5.472   0.613   6.097 -0.9517 -0.2988 -1.2152
13693TIP3   OH241014   1.110   4.876   0.203  0.0506  0.0067 -0.3776
13693TIP3    H141015   1.144   4.828   0.278  0.4140  0.3593 -0.3187
13693TIP3    H241016   1.061   4.949   0.241  2.9067  2.0396 -0.5166
13694TIP3   OH241017   8.285   3.507   6.159  0.7099 -0.2237  0.2499
13694TIP3    H141018   8.348   3.497   6.088  0.0616 -0.6573 -0.2629
13694TIP3    H241019   8.309   3.440   6.223 -2.8550 -4.5324 -2.6038
13695TIP3   OH241020   3.104   5.563   0.444 -0.5478  0.4062  0.1138
13695TIP3    H141021   3.035   5.520   0.494 -0.7317 -0.1481 -0.6017
13695TIP3    H241022   3.081   5.548   0.352  0.5367  0.1742 -0.1352
13696TIP3   OH241023   0.721   4.226   6.777  0.4481 -0.2733  0.2633
13696TIP3    H141024   0.650   4.284   6.752  0.4303  0.0918  1.1346
13696TIP3    H241025   0.714   4.218   6.873  0.8844 -1.1326  0.2351
13697TIP3   OH241026   8.180   4.301   6.377 -0.2537  0.4791  0.3710
13697TIP3    H141027   8.131   4.306   6.295 -0.3398 -2.3571  0.2223
13697TIP3    H241028   8.164   4.386   6.419 -0.2125  1.9681 -2.5006
13698TIP3   OH241029   7.301   2.831   6.096 -0.0546  0.2759 -0.1400
13698TIP3    H141030   7.302   2.850   6.002 -1.6741 -1.0126 -0.4494
13698TIP3    H241031   7.223   2.878   6.128  1.4932  2.2090  0.9230
13699TIP3   OH241032   2.359   7.854   2.863 -0.7708  0.0629  0.9541
13699TIP3    H141033   2.401   7.929   2.821 -1.2599  0.5502  1.3336
13699TIP3    H241034   2.410   7.778   2.834 -0.0833  0.5760  0.8207
13700TIP3   OH241035   0.200   7.068   1.071 -0.0448 -0.1613  0.2229
13700TIP3    H141036   0.245   7.131   1.015  0.1163 -0.5061 -0.0327
13700TIP3    H241037   0.162   7.122   1.141 -0.0512  0.2422 -0.0845
13701TIP3   OH241038   1.848   7.556   1.951 -0.3166 -0.0465 -0.2080
13701TIP3    H141039   1.769   7.502   1.954 -0.3167 -0.0233  0.2021
13701TIP3    H241040   1.920   7.493   1.949 -0.2777 -0.0770  1.2185
13702TIP3   OH241041   7.899   3.887   5.958 -0.2476  0.0565  0.5612
13702TIP3    H141042   7.923   3.927   5.875 -0.9783  0.5464  0.5780
13702TIP3    H241043   7.908   3.793   5.943  1.7888  0.2176  0.6241
13703TIP3   OH241044   0.235   4.249   5.236  0.0077  0.5449  0.4265
13703TIP3    H141045   0.249   4.164   5.279 -1.7960 -0.5872 -1.1149
13703TIP3    H241046   0.308   4.256   5.174 -0.7002 -0.6637 -0.5720
13704TIP3   OH241047   3.441   6.860   0.718 -0.1606  0.6563 -0.7767
13704TIP3    H141048   3.374   6.896   0.777  0.0021 -0.8903  0.3925
13704TIP3    H241049   3.492   6.936   0.691  1.6635  1.0898  3.5222
13705TIP3   OH241050   5.269   2.777   6.910 -0.3360  0.3131 -0.5229
13705TIP3    H141051   5.247   2.712   6.978 -1.2112  1.1819  0.0421
13705TIP3    H241052   5.242   2.735   6.828 -1.7178  0.2935 -0.0798
13706TIP3   OH241053   2.441   0.372   1.036 -0.6502 -0.3352 -0.2149
13706TIP3    H141054   2.488   0.344   1.115  1.6105 -0.3345 -1.5079
13706TIP3    H241055   2.383   0.299   1.016 -0.0588 -1.0362  0.5461
13707TIP3   OH241056   8.377   3.448   5.711 -0.1581  0.1419 -0.2278
13707TIP3    H141057   8.446   3.389   5.741 -0.3317  0.3609  0.6390
13707TIP3    H241058   8.343   3.487   5.792 -1.3171  0.0109 -0.6360
13708TIP3   OH241059   6.100   0.613   2.499  0.2619 -0.1555  1.0608
13708TIP3    H141060   6.122   0.541   2.441 -1.6162  0.1350 -0.0675
13708TIP3    H241061   6.034   0.577   2.559  0.0593  0.3284  1.1365
13709TIP3   OH241062   4.195   2.691   0.975 -0.0785  0.3318 -0.2064
13709TIP3    H141063   4.100   2.685   0.967  0.0275 -0.5313 -0.9444
13709TIP3    H241064   4.210   2.750   1.049 -1.1905  0.2013  0.1274
13710TIP3   OH241065   6.641   5.998   6.036 -0.9907  0.0174 -0.2622
13710TIP3    H141066   6.650   5.938   6.110 -0.4909  2.0193  1.3351
13710TIP3    H241067   6.570   6.057   6.060 -0.1518  1.3245 -0.9264
13711TIP3   OH241068   7.537   1.674   6.732  0.4845  0.2675  0.2742
13711TIP3    H141069   7.532   1.615   6.807 -0.0552  1.0136  0.8320
13711TIP3    H241070   7.481   1.748   6.756  1.2608  1.0668 -0.3698
13712TIP3   OH241071   6.049   3.922   3.066  0.2579  0.3053 -0.5283
13712TIP3    H141072   5.978   3.858   3.056  0.0005  0.9364 -2.9872
13712TIP3    H241073   6.129   3.869   3.069 -0.0883 -0.2328 -0.7436
13713TIP3   OH241074   0.908   4.468   6.956  0.2136 -0.3242  0.0437
13713TIP3    H141075   0.917   4.382   6.917 -2.6209 -1.3312  1.4258
13713TIP3    H241076   0.866   4.521   6.888  3.2988  0.4324 -1.3349
13714TIP3   OH241077   7.584   4.187   6.346  0.4597 -0.3697 -0.2122
13714TIP3    H141078   7.625   4.138   6.275 -0.4665 -0.5113 -0.6602
13714TIP3    H241079   7.621   4.150   6.426  1.0057 -0.6686 -0.6008
13715TIP3   OH241080   8.140   4.292   5.808  0.6035  0.0220  0.3063
13715TIP3    H141081   8.171   4.379   5.834  0.5273 -0.7495  3.0543
13715TIP3    H241082   8.091   4.260   5.883 -0.3299 -1.9645 -1.1035
13716TIP3   OH241083   1.093   7.986   0.440  0.1619 -0.8386 -0.5735
13716TIP3    H141084   1.011   8.028   0.466  1.2514  1.0536 -0.0524
13716TIP3    H241085   1.091   7.985   0.344  0.4442  1.1750 -0.6299
13717TIP3   OH241086   3.040   1.011   1.015  0.2262 -0.0271 -0.3392
13717TIP3    H141087   2.967   0.956   1.043  0.3373  0.8070  1.6331
13717TIP3    H241088   3.000   1.080   0.963 -0.2494 -0.2294 -0.2370
13718TIP3   OH241089   1.246   7.951   1.206  0.9198 -0.0443 -0.0449
13718TIP3    H141090   1.331   7.918   1.175  0.4809 -0.5538 -0.7111
13718TIP3    H241091   1.256   7.955   1.301  1.7577  0.0816 -0.1319
13719TIP3   OH241092   8.155   5.558   6.071  0.2821  0.4840 -0.1502
13719TIP3    H141093   8.113   5.574   6.155  1.5875  1.6332  0.3042
13719TIP3    H241094   8.152   5.463   6.060  0.7459  0.2580  1.5334
13720TIP3   OH241095   0.935   3.401   4.865 -0.3909  0.0187  0.0742
13720TIP3    H141096   0.920   3.472   4.802 -0.5693 -0.6042 -0.5823
13720TIP3    H241097   0.848   3.363   4.878  0.1190 -1.6958 -1.4771
13721TIP3   OH241098   7.907   2.598   6.267 -0.1208 -0.4382 -0.9495
13721TIP3    H141099   7.856   2.675   6.241  0.7767 -0.1099 -1.7916
13721TIP3    H241100   7.990   2.635   6.299  0.1765 -1.0268 -1.0340
13722TIP3   OH241101   6.166   3.565   6.755 -0.0486  1.0116  0.1784
13722TIP3    H141102   6.189   3.477   6.725 -1.3313  0.2273  1.4008
13722TIP3    H241103   6.118   3.603   6.682 -4.1751 -1.3117  1.4550
13723TIP3   OH241104   7.482   6.141   2.370  0.2872 -0.0012 -0.2012
13723TIP3    H141105   7.569   6.105   2.355  0.3428 -0.3460  0.9364
13723TIP3    H241106   7.494   6.236   2.367  0.3176 -0.0319 -2.1530
13724TIP3   OH241107   4.770   0.016   1.715  0.0777 -0.0221 -0.0514
13724TIP3    H141108   4.741   0.063   1.792  2.1314  2.0771 -0.4954
13724TIP3    H241109   4.777  -0.075   1.743  1.2258  0.7729  2.3864
13725TIP3   OH241110   6.990   5.315   5.893 -0.0256  0.3053 -0.0751
13725TIP3    H141111   6.897   5.337   5.889 -0.1037  0.0368  0.2297
13725TIP3    H241112   7.010   5.315   5.987  0.1330 -0.2749 -0.1102
13726TIP3   OH241113   4.390   3.546   6.280 -0.3676 -0.6430  0.0737
13726TIP3    H141114   4.483   3.568   6.286  0.0203 -1.0751 -3.5495
13726TIP3    H241115   4.346   3.630   6.266 -0.2711 -0.6896 -0.5210
13727TIP3   OH241116   7.195   3.366   6.840  0.0904 -0.0927 -0.2419
13727TIP3    H141117   7.126   3.299   6.844 -0.6696  0.6897 -0.0008
13727TIP3    H241118   7.252   3.346   6.914  0.6432 -1.3025 -0.9845
13728TIP3   OH241119   0.984   4.772   2.590  0.6373  0.2748  0.3225
13728TIP3    H141120   1.019   4.690   2.626  1.8003 -0.2398 -1.9365
13728TIP3    H241121   1.001   4.767   2.496  0.7187  3.1062  0.1326
13729TIP3   OH241122   5.734   3.775   6.534 -0.0746 -0.0520  0.5645
13729TIP3    H141123   5.647   3.776   6.494 -0.8403  1.5373  2.1976
13729TIP3    H241124   5.758   3.682   6.537 -0.7530 -0.3351 -1.8918
13730TIP3   OH241125   5.222   1.738   2.169  0.2532  0.8473  0.2495
13730TIP3    H141126   5.267   1.689   2.100 -1.4363 -1.4960  0.7559
13730TIP3    H241127   5.292   1.765   2.228  1.5013  1.2242 -1.3631
13731TIP3   OH241128   7.857   5.791   6.790  0.0057 -0.1480  0.3556
13731TIP3    H141129   7.926   5.744   6.742  0.2332 -0.9297  1.4358
13731TIP3    H241130   7.893   5.878   6.804  0.4701 -0.3201  0.2537
13732TIP3   OH241131   0.162   2.625   5.616 -0.0766 -0.4406  0.0192
13732TIP3    H141132   0.188   2.616   5.524  1.7260 -0.6626  0.5371
13732TIP3    H241133   0.209   2.556   5.661 -0.5600 -0.0076  1.2062
13733TIP3   OH241134   4.687   0.657   1.576  0.7277 -0.2385  0.1781
13733TIP3    H141135   4.720   0.567   1.573  2.8194  0.4923  0.0720
13733TIP3    H241136   4.728   0.695   1.654 -0.3340  0.5562  0.3595
13734TIP3   OH241137   8.031   3.579   5.590  0.0698  0.2339 -0.4462
13734TIP3    H141138   8.100   3.593   5.655 -0.0769  1.6618 -0.5860
13734TIP3    H241139   8.075   3.533   5.518  0.2802 -1.1594  0.5480
13735TIP3   OH241140   1.562   7.968   0.930 -0.0822 -0.0265  0.0205
13735TIP3    H141141   1.477   7.934   0.903  0.8950 -1.3609 -1.4182
13735TIP3    H241142   1.568   7.946   1.023 -1.8082  1.1505  0.4292
13736TIP3   OH241143   2.629   7.880   0.085  0.7595  0.6911 -0.2396
13736TIP3    H141144   2.656   7.907   0.172  1.1379 -1.8030  0.4513
13736TIP3    H241145   2.533   7.880   0.089  0.7867 -0.7821  0.6253
13737TIP3   OH241146   7.417   2.008   5.986 -0.2848  0.0692 -0.1767
13737TIP3    H141147   7.360   2.050   5.921 -0.7473 -1.2251 -0.6208
13737TIP3    H241148   7.477   2.077   6.013 -1.8776  1.3853  0.0863
13738TIP3   OH241149   8.120   3.582   5.847 -0.6454  0.1800 -0.0779
13738TIP3    H141150   8.193   3.566   5.906 -0.1990  1.4652 -0.2821
13738TIP3    H241151   8.051   3.523   5.878 -0.0343  0.0419  1.0297
13739TIP3   OH241152   0.473   6.659   1.872 -0.4949  0.2344  0.1784
13739TIP3    H141153   0.395   6.681   1.923 -0.8903 -0.6154 -0.0472
13739TIP3    H241154   0.545   6.665   1.935 -0.8097  0.5031  0.5172
13740TIP3   OH241155   2.131   0.192   0.293  0.0807  0.4213  0.4001
13740TIP3    H141156   2.119   0.129   0.222 -0.4314 -1.3134  1.9798
13740TIP3    H241157   2.077   0.158   0.364  1.8930  1.2085  2.1916
13741TIP3   OH241158   6.966   3.961   6.447 -0.3163  0.5487  0.0829
13741TIP3    H141159   6.964   3.989   6.539  0.6872  1.1886 -0.0872
13741TIP3    H241160   6.887   3.908   6.437 -0.8707  1.1547  1.1028
13742TIP3   OH241161   4.762   0.313   1.858 -0.3500  0.4098  0.4902
13742TIP3    H141162   4.696   0.244   1.856 -0.0284  0.1073  0.1510
13742TIP3    H241163   4.731   0.374   1.924 -0.1657 -0.5424  1.4664
13743TIP3   OH241164   5.322   4.173   6.216 -0.1982  0.1493  0.4734
13743TIP3    H141165   5.302   4.266   6.224  0.4597  0.3489 -0.1281
13743TIP3    H241166   5.371   4.152   6.296  0.1253  0.4504  0.3567
13744TIP3   OH241167   7.324   4.256   6.847  0.7430  0.3464  0.2640
13744TIP3    H141168   7.381   4.216   6.781  0.3814 -0.5888  0.5146
13744TIP3    H241169   7.244   4.276   6.799  1.4599  2.1397 -0.2121
13745TIP3   OH241170   5.438   0.647   1.849  0.2304  0.3753 -0.1720
13745TIP3    H141171   5.510   0.640   1.912  0.9385  0.1061 -1.0130
13745TIP3    H241172   5.412   0.740   1.852  0.5641  0.4583  0.1647
13746TIP3   OH241173   6.967   1.697   6.181  0.3603 -0.4343  0.4129
13746TIP3    H141174   7.043   1.698   6.123  0.3455 -0.3765  0.3955
13746TIP3    H241175   6.987   1.630   6.245  0.2884 -0.6378  0.2230
13747TIP3   OH241176   5.673   0.142   1.372 -0.1262 -0.4026 -0.0234
13747TIP3    H141177   5.676   0.087   1.293 -0.3910 -1.9238  0.9875
13747TIP3    H241178   5.582   0.171   1.377  0.3355  1.3208 -1.3373
13748TIP3   OH241179   2.810   6.829   1.562 -0.1558 -0.0068  0.4132
13748TIP3    H141180   2.730   6.804   1.517 -1.0434  0.1542  1.8666
13748TIP3    H241181   2.843   6.905   1.514 -1.4101  0.5413  0.4000
13749TIP3   OH241182   2.330   7.029   0.876 -0.4210 -0.1401  0.0598
13749TIP3    H141183   2.300   7.008   0.965  0.4500 -0.9906  0.1596
13749TIP3    H241184   2.338   7.124   0.876 -0.5987 -0.1170  0.8388
13750TIP3   OH241185   0.609   7.664   2.017 -0.3013 -0.3113  0.3896
13750TIP3    H141186   0.588   7.593   1.955 -0.0881  1.2134 -1.4803
13750TIP3    H241187   0.702   7.681   2.004 -0.5208  0.8400  0.2499
13751TIP3   OH241188   1.420   6.832  -0.025 -0.3850  0.0257 -0.0027
13751TIP3    H141189   1.418   6.906   0.035  0.8010 -0.4283  0.6369
13751TIP3    H241190   1.342   6.781  -0.005 -0.2281  0.1222  0.8598
13752TIP3   OH241191   3.319   6.625   0.954 -0.7672 -0.2432  0.4377
13752TIP3    H141192   3.401   6.675   0.951 -1.1615  0.4568  1.1378
13752TIP3    H241193   3.314   6.593   1.045  1.1905 -4.4646 -0.7960
13753TIP3   OH241194   0.073   3.714   6.683  0.1327 -0.4735 -1.0208
13753TIP3    H141195   0.134   3.728   6.756  1.3189  0.1986 -2.1317
13753TIP3    H241196  -0.012   3.700   6.726  0.8804 -0.4765  0.5057
13754TIP3   OH241197   0.937   5.082   0.262 -0.2054  0.3459  0.3004
13754TIP3    H141198   0.928   5.157   0.202  1.8873 -0.8382 -1.5416
13754TIP3    H241199   0.847   5.060   0.285 -0.9243  2.6336 -0.1211
13755TIP3   OH241200   0.764   0.869   0.533  0.1582 -0.0763  0.2511
13755TIP3    H141201   0.697   0.929   0.501  1.0096  0.1183 -1.2036
13755TIP3    H241202   0.847   0.912   0.511  0.7688 -1.0778  0.5866
13756TIP3   OH241203   2.098   2.903   6.588  0.0580  0.4597  0.1023
13756TIP3    H141204   2.027   2.966   6.599  0.4716  1.0039 -0.3123
13756TIP3    H241205   2.065   2.841   6.523 -0.2923  0.3334  0.3999
13757TIP3   OH241206   6.389   6.608   0.055  0.7592 -0.1957 -0.1759
13757TIP3    H141207   6.342   6.531   0.025  0.3661  0.5744 -1.5732
13757TIP3    H241208   6.454   6.574   0.117 -1.0303 -1.3650  1.1034
13758TIP3   OH241209   8.287   1.297   6.346 -0.3880  0.0793  0.7060
13758TIP3    H141210   8.311   1.296   6.439  0.3220  1.2959  0.5451
13758TIP3    H241211   8.339   1.227   6.307 -0.3269 -0.1202  1.1396
13759TIP3   OH241212   1.319   7.099   2.079 -0.1536  0.4729  0.1378
13759TIP3    H141213   1.341   7.011   2.111 -2.2208  0.2809  1.0962
13759TIP3    H241214   1.333   7.094   1.985  3.6258  0.3128  0.6037
13760TIP3   OH241215   2.425   2.064   1.929 -0.3837 -0.1691  0.1317
13760TIP3    H141216   2.378   2.006   1.869  0.4675 -0.3305 -0.3860
13760TIP3    H241217   2.497   2.010   1.962  0.5023  0.6414 -0.4747
13761TIP3   OH241218   0.922   7.954   1.567 -0.3570  0.4902 -0.4057
13761TIP3    H141219   0.931   7.897   1.643  0.5972  0.1935 -0.7293
13761TIP3    H241220   0.916   7.894   1.492 -0.3419  0.7919 -0.6500
13762TIP3   OH241221   3.193   0.490   0.845  0.1551 -0.2284  0.6185
13762TIP3    H141222   3.172   0.496   0.938  0.4187  0.6421  0.6333
13762TIP3    H241223   3.123   0.539   0.802 -0.7080 -1.7703  0.2442
13763TIP3   OH241224   1.234   6.460   0.942  0.1317  0.0111 -0.2523
13763TIP3    H141225   1.323   6.425   0.944 -0.4555 -1.5472 -0.7077
13763TIP3    H241226   1.244   6.548   0.906  1.6923  0.5069  1.3088
13764TIP3   OH241227   7.137   2.309   6.473 -0.2161 -0.1972 -0.1758
13764TIP3    H141228   7.130   2.328   6.380  1.2008 -0.1242 -0.2855
13764TIP3    H241229   7.102   2.220   6.483  0.7843 -0.6868 -0.9766
13765TIP3   OH241230   6.612   1.886   3.601 -0.3231 -0.0263  0.5371
13765TIP3    H141231   6.655   1.879   3.515 -0.0054 -0.2212  0.7130
13765TIP3    H241232   6.566   1.803   3.611  0.3688 -0.3570  0.9538
13766TIP3   OH241233   5.886   5.371   6.416  0.2003  0.4664  0.5903
13766TIP3    H141234   5.914   5.344   6.504  0.1648 -1.7533 -0.0418
13766TIP3    H241235   5.968   5.382   6.368  0.1793 -2.5773 -0.2685
13767TIP3   OH241236   0.374   7.065   1.374 -0.2714 -0.2261  0.3815
13767TIP3    H141237   0.375   7.130   1.445 -3.4518 -1.0697  1.2603
13767TIP3    H241238   0.354   6.983   1.417 -1.0828 -0.9580 -1.3694
13768TIP3   OH241239   0.882   7.226   1.270 -0.0380 -0.2438  0.2431
13768TIP3    H141240   0.834   7.261   1.346 -0.4451  1.6639 -0.8516
13768TIP3    H241241   0.852   7.279   1.196  1.0526 -1.4564 -1.1029
13769TIP3   OH241242   6.856   3.165   6.504  0.3584 -0.5379  0.0570
13769TIP3    H141243   6.918   3.157   6.432 -0.5596  1.5984 -1.0114
13769TIP3    H241244   6.838   3.074   6.530 -1.2683 -1.5103 -4.1153
13770TIP3   OH241245   0.226   5.808   0.346 -0.0885 -0.1459 -0.1893
13770TIP3    H141246   0.226   5.888   0.397 -2.4908 -1.4709  1.9892
13770TIP3    H241247   0.228   5.738   0.411  1.3152 -1.8955 -2.0402
13771TIP3   OH241248   7.082   6.222   0.489  0.0087 -0.2171  0.3846
13771TIP3    H141249   7.102   6.190   0.401 -0.3983  0.0704  0.1874
13771TIP3    H241250   7.050   6.145   0.536  1.3541 -0.6313  0.6360
13772TIP3   OH241251   1.589   3.929   1.830 -0.0219 -0.4694  0.2340
13772TIP3    H141252   1.619   3.875   1.757  0.7619  1.0451 -0.5792
13772TIP3    H241253   1.609   3.877   1.908  1.5489 -0.9570 -0.4830
13773TIP3   OH241254   7.555   2.748   5.760  0.5500  0.5574 -0.0203
13773TIP3    H141255   7.496   2.824   5.764  0.0448  0.1685 -0.0503
13773TIP3    H241256   7.618   2.770   5.691 -1.6566 -0.5233 -2.4395
13774TIP3   OH241257   7.800   7.531   0.263 -0.8338  0.0082 -0.4071
13774TIP3    H141258   7.744   7.565   0.193 -1.9949  1.4150  1.1667
13774TIP3    H241259   7.754   7.554   0.344  1.9871  1.1461  0.9374
13775TIP3   OH241260   6.565   2.186   5.401  0.1257  0.1785 -0.5572
13775TIP3    H141261   6.487   2.220   5.445 -0.1578 -0.3208 -0.6695
13775TIP3    H241262   6.634   2.249   5.422 -0.0354  0.0042  0.5001
13776TIP3   OH241263   1.493   5.215   1.088 -0.0723  0.2912 -0.3183
13776TIP3    H141264   1.574   5.265   1.098  0.5331 -0.4395 -1.4850
13776TIP3    H241265   1.453   5.251   1.009 -0.5958  0.2569 -0.0656
13777TIP3   OH241266  -0.017   3.510   5.975 -0.6605 -0.3681  0.1479
13777TIP3    H141267   0.042   3.435   5.988 -0.5749 -0.1270  1.2031
13777TIP3    H241268   0.042   3.583   5.954 -0.6216 -0.2731  0.5707
13778TIP3   OH241269   3.987   7.574   0.500  0.0030 -0.4179  0.7344
13778TIP3    H141270   4.054   7.638   0.477  0.7100 -1.1643  0.6836
13778TIP3    H241271   4.036   7.502   0.541 -0.7424 -1.0396  0.5456
13779TIP3   OH241272   6.334   5.960   1.375  0.3522 -0.7264 -0.0596
13779TIP3    H141273   6.367   5.973   1.286 -0.7931 -1.0306 -0.5353
13779TIP3    H241274   6.398   6.005   1.430  0.8812 -0.2211 -1.0589
13780TIP3   OH241275   3.931   0.218   0.737  0.1119  0.5272 -0.2683
13780TIP3    H141276   3.987   0.292   0.714  1.2263 -0.4512 -0.7589
13780TIP3    H241277   3.859   0.221   0.675  0.7675  0.5174 -1.0324
13781TIP3   OH241278   1.632   2.515   6.149 -0.1394  0.3185 -0.0999
13781TIP3    H141279   1.725   2.492   6.150 -0.5026 -1.2262  2.4756
13781TIP3    H241280   1.630   2.605   6.180  0.4116 -0.2781  1.8036
13782TIP3   OH241281   0.569   3.627   6.280  0.0941  0.4679  0.2884
13782TIP3    H141282   0.555   3.681   6.202 -0.2555  1.0839  0.7747
13782TIP3    H241283   0.612   3.548   6.247 -0.1490  0.6782 -0.5448
13783TIP3   OH241284   2.215   7.775   0.361 -0.0185  0.0908  0.1043
13783TIP3    H141285   2.132   7.805   0.324  0.8963  0.3949 -1.7288
13783TIP3    H241286   2.194   7.691   0.402 -1.3468  0.4346  0.1416
13784TIP3   OH241287   7.609   1.573   0.807 -0.3171  0.0113 -0.4446
13784TIP3    H141288   7.559   1.646   0.845 -2.0068 -0.4263 -1.7570
13784TIP3    H241289   7.698   1.587   0.838 -0.9693  1.6250  0.8064
13785TIP3   OH241290   5.010   0.251   1.778  0.0998  0.8072  0.1095
13785TIP3    H141291   5.025   0.186   1.847  0.8724 -0.0102 -0.8161
13785TIP3    H241292   4.930   0.296   1.805  0.7537  0.9411  1.8657
13786TIP3   OH241293   1.252   2.966   5.823 -0.4369 -0.6828 -0.1720
13786TIP3    H141294   1.311   3.022   5.873 -0.3862 -1.7035  0.9373
13786TIP3    H241295   1.270   2.988   5.732 -0.0995  0.7719  0.2262
13787TIP3   OH241296   2.365   6.335   1.605 -0.1354 -0.4388  0.4434
13787TIP3    H141297   2.340   6.253   1.648 -0.5769 -0.1795  0.6855
13787TIP3    H241298   2.305   6.400   1.641  0.6578  0.1274  0.7619
13788TIP3   OH241299   0.754   6.379   5.956 -0.5046  1.0949  0.2347
13788TIP3    H141300   0.842   6.410   5.978 -0.0881  0.5056 -0.5686
13788TIP3    H241301   0.729   6.432   5.880 -0.5931  0.8343  0.0826
13789TIP3   OH241302   1.246   2.854   6.265  0.4021  0.1478 -0.3900
13789TIP3    H141303   1.291   2.772   6.246 -0.5425 -0.5509  0.3359
13789TIP3    H241304   1.283   2.884   6.348 -2.7533 -2.1489  1.9572
13790TIP3   OH241305   0.736   5.331   5.863  0.2501 -0.2743  0.0975
13790TIP3    H141306   0.723   5.361   5.953 -1.6639 -2.2778  0.5461
13790TIP3    H241307   0.781   5.248   5.872  1.7231  0.4047 -0.9134
13791TIP3   OH241308   4.636   1.332   1.290  0.4792  0.1003 -0.1997
13791TIP3    H141309   4.672   1.284   1.364  2.5586  0.8977 -0.6629
13791TIP3    H241310   4.655   1.276   1.214  0.1717  0.2397 -0.3798
13792TIP3   OH241311   3.725   7.991   0.485 -0.0414 -0.5599  0.1899
13792TIP3    H141312   3.751   7.900   0.473 -0.9705 -0.8335  0.1793
13792TIP3    H241313   3.794   8.042   0.443 -0.3660 -1.3257 -1.3218
13793TIP3   OH241314   8.111   2.864   5.236 -0.2047  0.6108  0.5576
13793TIP3    H141315   8.058   2.896   5.163 -0.4503 -0.2735  0.3424
13793TIP3    H241316   8.137   2.775   5.210 -2.4696 -0.7387  2.6201
13794TIP3   OH241317   0.738   3.545   5.785 -0.2614  0.4991 -0.3002
13794TIP3    H141318   0.699   3.459   5.772 -0.3737  0.4136  0.5369
13794TIP3    H241319   0.726   3.590   5.702  2.4873 -1.3331 -1.7444
13795TIP3   OH241320   0.197   3.935   5.575  0.1634 -0.0308 -0.6453
13795TIP3    H141321   0.106   3.912   5.594  0.0250  0.4227 -0.7612
13795TIP3    H241322   0.198   3.953   5.481  0.0694  1.3941 -0.3755
13796TIP3   OH241323   7.619   5.317   6.202 -0.4403 -0.7810 -0.1572
13796TIP3    H141324   7.696   5.287   6.154 -0.6379 -0.9745 -0.3582
13796TIP3    H241325   7.639   5.298   6.294  0.7088  1.2779  0.0434
13797TIP3   OH241326   7.557   3.375   6.199  0.1342 -0.0084  0.0730
13797TIP3    H141327   7.466   3.399   6.215 -0.3312 -1.1416 -0.8229
13797TIP3    H241328   7.560   3.280   6.210  0.9225 -0.1421 -1.1923
13798TIP3   OH241329   1.813   5.894   6.732  0.1297  0.0478  0.1471
13798TIP3    H141330   1.753   5.959   6.770  0.7833  0.9603 -0.3636
13798TIP3    H241331   1.900   5.922   6.761  0.4065 -0.7116  0.0673
13799TIP3   OH241332   7.696   3.685   6.475 -0.0259 -0.6627  0.3156
13799TIP3    H141333   7.776   3.654   6.433 -0.1323  0.0756 -0.4258
13799TIP3    H241334   7.639   3.608   6.478 -0.3386 -0.5174 -1.6477
13800TIP3   OH241335   0.421   4.217   6.019  0.3526 -0.3991 -0.5857
13800TIP3    H141336   0.418   4.241   6.112 -0.3979 -0.7341 -0.5220
13800TIP3    H241337   0.513   4.228   5.995  0.7598 -1.2983  0.4640
13801TIP3   OH241338   2.823   7.286   0.544  0.3759  0.3034  0.2438
13801TIP3    H141339   2.764   7.243   0.606  1.2928  0.7806  1.4742
13801TIP3    H241340   2.842   7.370   0.584  1.4024  0.4059 -0.4469
13802TIP3   OH241341   7.660   3.975   6.098 -0.1200  0.0229  0.3508
13802TIP3    H141342   7.739   4.029   6.107  1.0654 -1.7716  0.8750
13802TIP3    H241343   7.686   3.902   6.042 -2.3812  1.2128 -2.3878
13803TIP3   OH241344   0.150   4.921   4.945 -0.6473  0.2005  0.4776
13803TIP3    H141345   0.135   5.003   4.994  0.1922  0.1629  0.8121
13803TIP3    H241346   0.234   4.935   4.902 -0.3970 -0.5723  0.7151
13804TIP3   OH241347   7.733   3.566   3.907 -0.4002 -0.0570  0.1928
13804TIP3    H141348   7.708   3.658   3.915  2.0885  0.6277  0.3558
13804TIP3    H241349   7.726   3.531   3.996 -1.6168 -0.1335  0.0838
13805TIP3   OH241350   1.524   3.023   6.329 -0.5838 -0.2182 -0.0360
13805TIP3    H141351   1.464   3.097   6.332 -0.1864  0.1348 -0.5625
13805TIP3    H241352   1.606   3.056   6.367  0.4945  0.5082 -2.8221
13806TIP3   OH241353   2.050   7.828  -0.019 -0.6212  0.7624 -0.2624
13806TIP3    H141354   2.040   7.820   0.076  0.2592  0.4259 -0.1959
13806TIP3    H241355   1.994   7.901  -0.043  0.8376  2.2691  0.8213
13807TIP3   OH241356   6.915   1.162   0.029  0.2828  0.0800 -0.0927
13807TIP3    H141357   6.984   1.146   0.094  2.1799 -0.5046 -2.1788
13807TIP3    H241358   6.855   1.087   0.039 -0.0068  0.5287  1.6561
13808TIP3   OH241359   7.757   1.801   1.416  0.5810  0.0061  0.3003
13808TIP3    H141360   7.834   1.833   1.370  0.5924 -0.8163 -0.2703
13808TIP3    H241361   7.790   1.765   1.498  0.6748  0.6108  0.5292
13809TIP3   OH241362   4.199   6.783   0.787 -0.2512  0.1074  0.2881
13809TIP3    H141363   4.274   6.805   0.842  0.7857 -0.5855 -0.8043
13809TIP3    H241364   4.179   6.692   0.809  1.6164 -0.9329 -2.0297
13810TIP3   OH241365   0.198   2.110   5.978 -0.1181 -0.5929  0.0400
13810TIP3    H141366   0.127   2.119   5.914 -0.1414  0.8359  0.2406
13810TIP3    H241367   0.216   2.016   5.981 -2.4115 -1.0409  0.4404
13811TIP3   OH241368   0.444   5.894   5.374 -0.1207  0.3377  0.3593
13811TIP3    H141369   0.484   5.868   5.292  0.1339  0.5049  0.4256
13811TIP3    H241370   0.352   5.908   5.354 -0.3373 -1.0112  0.4225
13812TIP3   OH241371   0.518   7.607   1.176  0.1685  0.3087  0.1281
13812TIP3    H141372   0.431   7.588   1.210  0.1392 -0.1328 -0.1898
13812TIP3    H241373   0.509   7.599   1.081  0.9202 -1.3169  0.1699
13813TIP3   OH241374   1.508   3.518   5.777  0.0697  0.0843 -0.1273
13813TIP3    H141375   1.440   3.582   5.755  0.2671 -0.1087 -1.3054
13813TIP3    H241376   1.575   3.530   5.710 -0.1790 -1.7897 -0.7374
13814TIP3   OH241377   1.058   4.256   6.650 -0.1305 -0.0134  0.2819
13814TIP3    H141378   1.003   4.328   6.620  1.3407  0.8187 -0.4610
13814TIP3    H241379   1.055   4.192   6.579 -0.5423 -0.1978  0.4641
13815TIP3   OH241380   8.403   4.672   6.067 -0.5397  0.1514  0.4486
13815TIP3    H141381   8.416   4.584   6.103  0.1766 -1.1819 -2.8950
13815TIP3    H241382   8.486   4.717   6.084 -0.7889  0.1069  1.8807
13816TIP3   OH241383   8.386   1.379   2.659  0.2111  0.3304 -0.3134
13816TIP3    H141384   8.407   1.337   2.576 -0.0220 -2.3120  0.9008
13816TIP3    H241385   8.465   1.367   2.712 -0.8305 -1.1097  0.9861
13817TIP3   OH241386   6.293   1.304   1.995 -0.0690 -0.4295  0.2770
13817TIP3    H141387   6.233   1.232   2.013 -0.6696  0.0649  0.2699
13817TIP3    H241388   6.360   1.297   2.063  0.0067 -1.1315  0.1355
13818TIP3   OH241389   7.857   2.696   2.442  0.1904 -0.2349 -1.0034
13818TIP3    H141390   7.950   2.679   2.425  0.0988 -0.4474 -1.2981
13818TIP3    H241391   7.816   2.610   2.433  0.2086 -0.4445  0.7405
13819TIP3   OH241392   0.553   1.661   0.350 -0.4485  0.4168 -0.2437
13819TIP3    H141393   0.600   1.729   0.399 -0.2417 -0.1491  0.3524
13819TIP3    H241394   0.527   1.703   0.268  2.2442  0.3448 -1.1700
13820TIP3   OH241395   0.077   1.853   1.074 -0.1944  0.4839 -0.2781
13820TIP3    H141396   0.096   1.903   0.995 -0.2060  1.7390  0.5094
13820TIP3    H241397   0.109   1.908   1.146  1.3199 -1.3479  0.5020
13821TIP3   OH241398   7.522   1.714   1.512  0.0576  0.1665  0.1251
13821TIP3    H141399   7.590   1.765   1.469  0.1823 -1.1112 -1.2182
13821TIP3    H241400   7.528   1.739   1.605  0.3031  2.3320 -0.4654
13822TIP3   OH241401   0.982   2.429   1.576  0.6225  0.5415  0.4657
13822TIP3    H141402   1.029   2.405   1.496 -0.2945  0.7854 -0.1387
13822TIP3    H241403   0.953   2.345   1.612 -0.3893  0.5569 -0.3178
13823TIP3   OH241404   7.430   1.511   1.361  0.0510  0.2499  0.3550
13823TIP3    H141405   7.464   1.590   1.403  0.3458 -0.0959  0.7729
13823TIP3    H241406   7.461   1.516   1.271 -1.7173  1.6742 -0.2069
13824TIP3   OH241407   8.153   0.287   1.453  0.2688 -0.2876 -0.9916
13824TIP3    H141408   8.112   0.213   1.498  0.6339 -1.1372 -2.0454
13824TIP3    H241409   8.240   0.294   1.492  0.2002 -0.3572 -0.8258
13825TIP3   OH241410   5.653   6.276   1.478  0.1250  0.2274  0.4568
13825TIP3    H141411   5.671   6.357   1.431 -1.2478  0.7316  0.7525
13825TIP3    H241412   5.643   6.302   1.570 -3.1762  0.2169  0.1664
13826TIP3   OH241413   2.587   1.988   0.855 -0.2104 -0.1380  0.2326
13826TIP3    H141414   2.583   2.083   0.851 -0.7403 -0.0568  2.3234
13826TIP3    H241415   2.537   1.958   0.779 -2.0013  1.2266  0.8622
13827TIP3   OH241416   0.662   2.346   0.941 -0.0734  0.1182 -0.0620
13827TIP3    H141417   0.683   2.394   1.021 -1.2065  3.2929 -1.5593
13827TIP3    H241418   0.567   2.330   0.948  0.1092 -0.9920 -0.0688
13828TIP3   OH241419   3.131   4.828   6.012 -0.0216  0.0023 -0.5110
13828TIP3    H141420   3.158   4.789   6.095  0.5702  2.1932  0.3611
13828TIP3    H241421   3.211   4.828   5.959 -0.3486 -1.2032 -1.0086
13829TIP3   OH241422   2.518   4.482   6.502  0.1542  0.7181  0.8097
13829TIP3    H141423   2.486   4.565   6.466 -1.7535 -0.3470 -0.0630
13829TIP3    H241424   2.475   4.415   6.448  0.4358 -0.8458  2.4911
13830TIP3   OH241425   6.146   1.909   0.679  0.1912  0.2858  0.0348
13830TIP3    H141426   6.208   1.880   0.746 -0.9375  0.2227  1.0554
13830TIP3    H241427   6.200   1.921   0.601  1.4651  0.0592  0.8643
13831TIP3   OH241428   4.471   7.269   1.422 -0.3331 -0.1388  0.0171
13831TIP3    H141429   4.391   7.224   1.394 -1.3303  0.4204  1.9187
13831TIP3    H241430   4.479   7.343   1.362 -0.0720 -1.3769 -1.5097
13832TIP3   OH241431   6.971   2.439   0.719 -0.3928  0.2118  0.2766
13832TIP3    H141432   7.004   2.526   0.743 -0.3363 -0.9272  4.6544
13832TIP3    H241433   6.881   2.438   0.751 -1.2045 -0.5126 -1.9689
13833TIP3   OH241434   2.109   5.422   6.577  0.8432  0.7936 -0.1476
13833TIP3    H141435   2.190   5.371   6.585  0.9824  1.0776  0.3077
13833TIP3    H241436   2.050   5.382   6.640  0.4881  0.3267 -0.7745
13834TIP3   OH241437   7.263   0.578   1.902 -0.3455  0.1873 -0.6558
13834TIP3    H141438   7.199   0.561   1.833 -0.8473  0.6167 -0.3041
13834TIP3    H241439   7.348   0.569   1.859 -0.6387 -0.5328 -1.0917
13835TIP3   OH241440   2.783   7.855   1.516  0.2643 -0.4741 -0.3003
13835TIP3    H141441   2.835   7.926   1.552  0.8873  0.1075 -2.3177
13835TIP3    H241442   2.693   7.886   1.520  0.2570 -0.6824  1.3453
13836TIP3   OH241443   1.366   3.739   6.146 -0.4726 -0.0350 -0.1455
13836TIP3    H141444   1.299   3.705   6.205 -0.4623  0.0705 -0.0739
13836TIP3    H241445   1.402   3.661   6.104 -2.1727  0.0529 -1.8319
13837TIP3   OH241446   7.928   0.825   1.914  0.9858 -0.2974  0.2731
13837TIP3    H141447   7.912   0.781   1.830 -3.3421 -0.4931  1.0747
13837TIP3    H241448   7.928   0.918   1.893  1.6209 -0.4045 -0.1997
13838TIP3   OH241449   4.975   6.324   2.465  0.7371 -0.4933 -0.1535
13838TIP3    H141450   4.911   6.324   2.536  1.2861 -0.8493  0.3404
13838TIP3    H241451   4.990   6.417   2.447 -1.4593 -0.3763 -1.6745
13839TIP3   OH241452   7.763   0.424   3.132 -0.5645 -0.3809 -0.1764
13839TIP3    H141453   7.790   0.470   3.211 -2.7604  2.6225 -1.0928
13839TIP3    H241454   7.706   0.354   3.164 -2.6455  1.7089  0.9036
13840TIP3   OH241455   8.189   1.302   1.451 -0.1198  0.1337  0.1465
13840TIP3    H141456   8.270   1.348   1.475  0.6186 -1.3904  0.6493
13840TIP3    H241457   8.214   1.248   1.375 -0.8334  0.1335 -0.0964
13841TIP3   OH241458   1.989   4.926   6.227  0.3090  0.1276 -0.4100
13841TIP3    H141459   2.034   4.970   6.299  0.4269 -0.3364 -0.1986
13841TIP3    H241460   1.993   4.988   6.154  0.7345  0.3411 -0.2038
13842TIP3   OH241461   5.156   6.263   0.177 -0.2678  0.3092  0.0588
13842TIP3    H141462   5.149   6.235   0.085 -1.6239  1.0704 -0.0776
13842TIP3    H241463   5.249   6.252   0.198  0.2297  1.0071 -1.6892
13843TIP3   OH241464   1.502   3.245   0.760 -0.2401 -0.1257 -0.1664
13843TIP3    H141465   1.554   3.324   0.771  0.2820 -0.6648  1.3651
13843TIP3    H241466   1.553   3.176   0.802 -0.7271 -1.2769 -1.4169
13844TIP3   OH241467   7.687   0.623   1.342  0.0476 -0.3903  0.6482
13844TIP3    H141468   7.681   0.654   1.252  2.3924 -0.4667  0.4372
13844TIP3    H241469   7.629   0.681   1.391 -0.9636 -0.1167 -0.8349
13845TIP3   OH241470   7.076   1.003   2.366  0.1492  0.1344 -0.2469
13845TIP3    H141471   7.002   1.035   2.315 -1.1986 -1.3505  0.7129
13845TIP3    H241472   7.152   1.016   2.310 -0.7502  2.2297 -1.0214
13846TIP3   OH241473   1.294   5.663   6.762  0.0444  0.0149  0.0489
13846TIP3    H141474   1.280   5.589   6.820  1.2977 -0.7180 -0.5764
13846TIP3    H241475   1.365   5.713   6.802 -0.9518  1.0362  0.5978
13847TIP3   OH241476   8.468   2.120   2.232 -0.0835  0.3471  0.5691
13847TIP3    H141477   8.562   2.110   2.251  0.5331  0.8059 -2.0231
13847TIP3    H241478   8.428   2.038   2.260  1.3244 -0.4071  0.4109
13848TIP3   OH241479   8.140   1.587   0.938  0.4312 -0.2462 -0.1578
13848TIP3    H141480   8.110   1.508   0.891 -1.5487  1.3085 -1.6068
13848TIP3    H241481   8.226   1.606   0.900  0.6044 -1.2884 -0.3143
13849TIP3   OH241482   1.163   0.481   1.672  0.2170 -0.5257  0.3277
13849TIP3    H141483   1.097   0.422   1.708 -1.2594 -0.6003 -2.3417
13849TIP3    H241484   1.179   0.447   1.584  0.8580  1.8359 -0.4973
13850TIP3   OH241485   2.338   4.214   6.829 -0.2390  0.7915  0.3011
13850TIP3    H141486   2.428   4.243   6.811 -0.4149 -0.8799 -4.0146
13850TIP3    H241487   2.287   4.294   6.830  0.9002  1.5441 -0.0949
13851TIP3   OH241488   5.529   7.180   1.418 -0.3708 -0.5238 -0.2205
13851TIP3    H141489   5.457   7.214   1.470 -1.5516 -0.1900 -2.0587
13851TIP3    H241490   5.492   7.163   1.332  1.7134 -0.4708 -1.1675
13852TIP3   OH241491   0.283   3.605   6.244 -1.4102 -0.4117  0.2323
13852TIP3    H141492   0.374   3.587   6.267 -1.0332  0.8922 -0.1920
13852TIP3    H241493   0.278   3.700   6.237 -2.6546 -0.5075 -0.4126
13853TIP3   OH241494   8.276   1.185   1.903 -0.1940 -0.3158 -0.3684
13853TIP3    H141495   8.242   1.110   1.952 -0.5524  0.4211  0.5268
13853TIP3    H241496   8.200   1.220   1.857 -0.2712  0.1997  0.1454
13854TIP3   OH241497   7.972   3.095   1.514  0.2864 -0.4177 -0.3179
13854TIP3    H141498   7.905   3.072   1.579  0.4158  1.8041  0.6779
13854TIP3    H241499   7.995   3.186   1.536  0.3064  0.4042 -3.4797
13855TIP3   OH241500   0.702   1.973   2.329 -0.3091 -0.1343  0.3035
13855TIP3    H141501   0.680   2.066   2.339  0.7773  0.2453 -0.5738
13855TIP3    H241502   0.705   1.939   2.418 -1.9293  0.3809  0.5608
13856TIP3   OH241503   7.929   2.699   0.832  0.6642  0.8886  0.5441
13856TIP3    H141504   7.931   2.716   0.738 -0.6282  1.3855  0.6093
13856TIP3    H241505   7.938   2.785   0.873 -0.4099  0.8435  0.8748
13857TIP3   OH241506   7.553   0.600   2.168 -0.2035 -0.4013 -0.2993
13857TIP3    H141507   7.469   0.645   2.178 -1.0720 -1.4633 -2.4160
13857TIP3    H241508   7.532   0.508   2.180  0.4783 -0.7633 -1.7432
13858TIP3   OH241509   5.698   7.640   0.584  0.1511 -0.2430  0.4255
13858TIP3    H141510   5.716   7.562   0.531  2.2797  0.1904  0.4712
13858TIP3    H241511   5.705   7.713   0.523 -0.4910  0.0299  0.6708
13859TIP3   OH241512   1.642   0.347   2.179  0.6097 -0.8757 -0.0931
13859TIP3    H141513   1.577   0.408   2.215 -1.1022 -1.2370 -2.4814
13859TIP3    H241514   1.712   0.346   2.244 -0.8467  1.0911  1.5713
13860TIP3   OH241515   7.272   7.511   0.432 -0.6672 -0.3073  0.0177
13860TIP3    H141516   7.326   7.466   0.367 -1.3153 -0.0105 -0.7357
13860TIP3    H241517   7.297   7.603   0.425  0.8854 -0.5583  1.7793
13861TIP3   OH241518   7.810   3.201   0.268 -0.1808 -0.5331  0.3522
13861TIP3    H141519   7.749   3.259   0.314 -0.0992 -0.9641  1.0214
13861TIP3    H241520   7.882   3.188   0.330  0.3508 -0.4287 -0.2425
13862TIP3   OH241521   7.440   5.910   1.515 -0.4905  0.5172 -0.0502
13862TIP3    H141522   7.382   5.925   1.590  0.0649  0.5332  0.3720
13862TIP3    H241523   7.508   5.977   1.523 -0.3337  0.4120 -0.4781
13863TIP3   OH241524   3.297   5.714   5.763 -0.3971 -0.0248  0.0900
13863TIP3    H141525   3.276   5.797   5.720 -0.6835 -0.1375  0.0059
13863TIP3    H241526   3.295   5.650   5.693  0.2242 -0.0395  0.0887
13864TIP3   OH241527   7.601   6.131   1.536  0.3606 -0.5314  0.1914
13864TIP3    H141528   7.563   6.218   1.540  2.0067  0.3107 -1.5806
13864TIP3    H241529   7.676   6.134   1.595 -0.8710 -1.4712  1.8621
13865TIP3   OH241530   6.958   1.419   1.507 -0.6464  0.1772  0.5131
13865TIP3    H141531   7.023   1.489   1.513 -1.0311  0.5436  0.4752
13865TIP3    H241532   6.949   1.402   1.414  1.1719 -1.5685  0.6163
13866TIP3   OH241533   0.035   1.289   1.941 -0.6113  0.0361  0.2852
13866TIP3    H141534  -0.036   1.278   1.877 -0.3217  0.5620 -0.1336
13866TIP3    H241535   0.005   1.241   2.018 -0.3900 -1.6927 -0.6821
13867TIP3   OH241536   3.084   1.691   2.321 -0.4273 -0.2775 -0.2642
13867TIP3    H141537   3.107   1.783   2.331  0.5464 -0.5102 -0.3257
13867TIP3    H241538   3.124   1.648   2.396  0.7772 -0.9348 -1.2685
13868TIP3   OH241539   0.815   2.118   2.539 -0.1795 -0.1330  0.1654
13868TIP3    H141540   0.860   2.078   2.465 -0.5748  0.2848 -0.3064
13868TIP3    H241541   0.871   2.192   2.563 -0.0173 -0.3079  0.3294
13869TIP3   OH241542   0.923   0.585   0.453 -0.0052  0.1478  0.6815
13869TIP3    H141543   1.017   0.598   0.450 -0.1815  1.6050  1.0088
13869TIP3    H241544   0.901   0.545   0.369  0.8039  0.5393  0.2823
13870TIP3   OH241545   1.524   2.678   1.015 -0.1058 -0.0812  0.1825
13870TIP3    H141546   1.556   2.603   0.965  0.0466  0.1251 -0.0303
13870TIP3    H241547   1.520   2.750   0.952  0.6856  0.3393  0.6052
13871TIP3   OH241548   0.354   0.709   0.406  0.9199 -0.0493  0.3819
13871TIP3    H141549   0.305   0.648   0.352  1.5018  0.6614 -1.0005
13871TIP3    H241550   0.446   0.695   0.381  1.0386  1.5276 -0.1354
13872TIP3   OH241551   7.978   0.468   1.693 -0.4751 -0.0922 -0.2034
13872TIP3    H141552   7.899   0.459   1.639 -0.0476 -0.3613 -0.7840
13872TIP3    H241553   7.962   0.411   1.768 -1.5314  1.0926  0.5067
13873TIP3   OH241554   2.582   2.584   2.353 -0.3917  0.1111  0.1709
13873TIP3    H141555   2.542   2.667   2.381 -0.6948  0.1802 -0.4575
13873TIP3    H241556   2.644   2.610   2.285  2.1883  0.2437  2.4802
13874TIP3   OH241557   6.749   7.878   1.677  0.4251 -0.4963 -0.2849
13874TIP3    H141558   6.840   7.906   1.688  0.4415  0.1903 -2.0589
13874TIP3    H241559   6.721   7.917   1.594 -2.3859  1.6814  1.5747
13875TIP3   OH241560   2.414   1.571   0.782 -0.5161 -0.4467 -0.4126
13875TIP3    H141561   2.441   1.632   0.851 -0.4685  0.0263 -0.8469
13875TIP3    H241562   2.480   1.502   0.785  1.5458  1.3492 -2.3442
13876TIP3   OH241563   2.206   6.541   5.568 -0.1454  0.3415 -0.1208
13876TIP3    H141564   2.149   6.539   5.645  1.9398 -0.8647  1.4565
13876TIP3    H241565   2.260   6.619   5.580  1.5181 -0.8937  0.7000
13877TIP3   OH241566   3.242   1.675   6.420 -0.0607  0.6049 -0.2875
13877TIP3    H141567   3.179   1.615   6.380 -0.6343  1.7829 -1.1676
13877TIP3    H241568   3.236   1.657   6.514 -1.0357  0.0566 -0.4507
13878TIP3   OH241569   3.136   5.441   5.756 -0.2892 -0.1638  0.1348
13878TIP3    H141570   3.045   5.431   5.783  0.3931 -1.0618  2.2424
13878TIP3    H241571   3.132   5.457   5.662 -2.7430  1.8539  0.5215
13879TIP3   OH241572   5.487   6.656   0.999  0.2088 -0.1658 -0.7990
13879TIP3    H141573   5.448   6.704   0.927  1.0315 -1.7444 -2.3582
13879TIP3    H241574   5.413   6.630   1.054 -0.5016  0.4327 -1.4595
13880TIP3   OH241575   6.399   6.803   0.681  0.2148  0.3988 -0.4510
13880TIP3    H141576   6.441   6.806   0.767 -1.7291  0.3716  0.5228
13880TIP3    H241577   6.427   6.720   0.643 -0.3638 -0.4209  0.9043
13881TIP3   OH241578   6.451   7.182   1.881 -0.3542 -0.7575 -0.1722
13881TIP3    H141579   6.427   7.275   1.887  0.5363 -0.5168 -0.3239
13881TIP3    H241580   6.367   7.136   1.880 -0.8004  0.0442 -0.0473
13882TIP3   OH241581   4.595   7.851   0.914 -0.2321  0.0699 -0.1038
13882TIP3    H141582   4.666   7.824   0.972 -0.4976  1.0004  0.6655
13882TIP3    H241583   4.553   7.769   0.888  0.6273 -0.4333  0.0529
13883TIP3   OH241584   5.001   6.538   6.605  0.1139 -0.6275  0.6045
13883TIP3    H141585   5.016   6.551   6.511 -0.9615  1.3802  0.6594
13883TIP3    H241586   5.035   6.451   6.624  0.9447 -0.7868 -1.5195
13884TIP3   OH241587   0.725   1.696   1.412 -0.1297 -0.5239 -0.5606
13884TIP3    H141588   0.677   1.622   1.447 -0.7701  1.1107  2.1495
13884TIP3    H241589   0.808   1.659   1.380 -1.1334 -2.6111 -0.7829
13885TIP3   OH241590   0.070   1.285   2.403  0.4568  0.2896 -0.6002
13885TIP3    H141591   0.036   1.370   2.376  0.2498  0.1361 -0.8151
13885TIP3    H241592   0.130   1.259   2.334  0.6358  0.3302 -0.4610
13886TIP3   OH241593   8.414   1.495   0.605  0.1154  0.0273  0.3608
13886TIP3    H141594   8.431   1.545   0.525 -1.0751  0.0184  0.0882
13886TIP3    H241595   8.433   1.555   0.676 -0.1374  0.4869  0.0465
13887TIP3   OH241596   2.834   5.059   6.433 -0.7962 -0.7023  0.7213
13887TIP3    H141597   2.872   5.133   6.480 -0.0637 -0.7108  0.1531
13887TIP3    H241598   2.844   5.081   6.340 -3.1711 -0.2116  0.5481
13888TIP3   OH241599   8.476   3.253   1.783 -0.0648  0.4773  0.1320
13888TIP3    H141600   8.547   3.243   1.846  1.3686  0.4763 -1.4223
13888TIP3    H241601   8.450   3.163   1.761  0.6677  0.4323 -0.5930
13889TIP3   OH241602   4.371   4.893   6.648 -0.0773  0.6496 -0.1849
13889TIP3    H141603   4.388   4.814   6.596  0.0416  0.5490  0.0060
13889TIP3    H241604   4.444   4.898   6.709 -0.2163  0.7676 -0.0282
13890TIP3   OH241605   8.165   0.785   2.273  0.2666  0.5673 -0.7298
13890TIP3    H141606   8.219   0.710   2.298 -1.3847 -0.3535  0.1336
13890TIP3    H241607   8.171   0.845   2.347 -0.5885  0.0863 -0.2764
13891TIP3   OH241608   4.249   3.519   5.378 -0.1850 -0.3325  0.3164
13891TIP3    H141609   4.190   3.593   5.393  1.6536  1.0491  0.9048
13891TIP3    H241610   4.273   3.489   5.466 -0.1676 -1.0234  0.0804
13892TIP3   OH241611   4.041   5.477   6.835  0.1330  0.7498 -0.8377
13892TIP3    H141612   4.001   5.488   6.921  1.3988  1.0674 -0.2827
13892TIP3    H241613   4.066   5.385   6.832  0.1821  0.7633 -0.8299
13893TIP3   OH241614   7.917   7.655   2.312 -0.2281  0.1360 -0.0011
13893TIP3    H141615   7.879   7.590   2.252  0.5689  0.7269 -1.1862
13893TIP3    H241616   7.867   7.735   2.295  0.4689  0.4967 -0.4312
13894TIP3   OH241617   6.847   6.201   1.851 -0.3364 -0.4539 -0.3004
13894TIP3    H141618   6.825   6.260   1.923  0.2292 -0.1427 -0.3805
13894TIP3    H241619   6.831   6.114   1.887 -1.2632 -0.2594 -0.2112
13895TIP3   OH241620   6.348   0.272   0.901 -0.3357 -0.3894 -0.4751
13895TIP3    H141621   6.400   0.342   0.941 -1.0275 -1.4133  2.3626
13895TIP3    H241622   6.259   0.307   0.898 -0.2078 -0.1571 -1.5171
13896TIP3   OH241623   1.396   0.514   2.192  0.2198  0.1459 -0.3303
13896TIP3    H141624   1.312   0.505   2.148  0.9870 -1.8501 -1.4647
13896TIP3    H241625   1.384   0.587   2.253 -2.5190 -0.5231 -0.0066
13897TIP3   OH241626   0.428   0.970   3.433  0.4791 -0.4660 -0.2097
13897TIP3    H141627   0.483   0.945   3.507  0.2876 -0.4503 -0.0641
13897TIP3    H241628   0.417   1.065   3.442 -0.5112 -0.6450  0.3881
13898TIP3   OH241629   0.511   0.115   0.988  0.3895 -0.3343 -0.0833
13898TIP3    H141630   0.444   0.122   0.920  0.3242 -1.3920 -0.1392
13898TIP3    H241631   0.588   0.159   0.952 -0.3277  1.0218  0.0440
13899TIP3   OH241632   0.743   0.374   1.305 -0.0243 -0.6955  0.0878
13899TIP3    H141633   0.760   0.283   1.282  1.4660  0.0055 -1.7382
13899TIP3    H241634   0.789   0.425   1.238  0.0157  1.4123  1.6439
13900TIP3   OH241635   7.612   7.776   1.412  0.3111  0.1280  0.2935
13900TIP3    H141636   7.524   7.745   1.390  0.2152  1.1491 -0.8047
13900TIP3    H241637   7.599   7.847   1.474  0.4378 -0.6563  1.2298
13901TIP3   OH241638   1.372   2.452   2.748 -0.2406  0.9864 -0.2763
13901TIP3    H141639   1.388   2.506   2.825 -0.2101  0.2626  0.2196
13901TIP3    H241640   1.456   2.412   2.728 -0.3223  0.9269 -0.5060
13902TIP3   OH241641   0.875   1.204   1.978  0.1604  0.2155 -0.8668
13902TIP3    H141642   0.921   1.155   2.046 -1.0746 -0.2054 -0.3152
13902TIP3    H241643   0.897   1.295   1.995 -0.1927  0.1153  0.1408
13903TIP3   OH241644   0.846   1.504   0.491 -0.3328  0.1652 -0.2258
13903TIP3    H141645   0.851   1.418   0.449 -0.3316  0.3897 -0.6899
13903TIP3    H241646   0.937   1.526   0.511 -0.2913  0.2771 -0.5472
13904TIP3   OH241647   4.404   7.715   1.693 -0.4687  0.4608  0.0571
13904TIP3    H141648   4.402   7.725   1.788  0.5223  0.3617  0.0858
13904TIP3    H241649   4.490   7.748   1.667 -0.4922 -0.0986 -0.7365
13905TIP3   OH241650   8.478   0.888   0.408 -0.6472  0.8769 -0.2499
13905TIP3    H141651   8.569   0.910   0.387 -0.9939  2.1487 -0.4461
13905TIP3    H241652   8.428   0.919   0.332 -1.2379  0.1243 -0.1700
13906TIP3   OH241653   2.531   0.778   1.064 -0.0541 -0.2471 -0.4872
13906TIP3    H141654   2.460   0.836   1.092 -1.7966 -3.2967  1.6815
13906TIP3    H241655   2.487   0.712   1.010  1.2650 -1.6856  0.1870
13907TIP3   OH241656   1.488   1.548   0.793 -0.0927  0.4007 -0.5144
13907TIP3    H141657   1.563   1.607   0.795  1.2543 -1.2879  1.4972
13907TIP3    H241658   1.429   1.582   0.860 -0.2000  0.5493 -0.6826
13908TIP3   OH241659   2.205   0.507   0.092 -0.4756  0.5522  0.4521
13908TIP3    H141660   2.162   0.428   0.060 -1.2253  1.0975  0.0863
13908TIP3    H241661   2.192   0.505   0.187 -0.7943  0.4161  0.4053
13909TIP3   OH241662   6.227   7.653   0.779 -0.4456  0.0926  0.3939
13909TIP3    H141663   6.237   7.701   0.862 -2.0972  0.5798  0.3438
13909TIP3    H241664   6.148   7.691   0.740  0.4700  0.0420 -1.5319
13910TIP3   OH241665   5.264   7.497   0.053  0.3909  0.5007 -0.3314
13910TIP3    H141666   5.191   7.439   0.077 -0.6359  1.5438 -0.8851
13910TIP3    H241667   5.245   7.525  -0.036  0.9808  1.5403 -0.1379
13911TIP3   OH241668   1.683   0.697   0.952 -0.8384 -0.5278 -0.2343
13911TIP3    H141669   1.777   0.693   0.966 -1.0086 -0.0339  1.1205
13911TIP3    H241670   1.656   0.780   0.991 -1.9969 -1.2039  0.4393
13912TIP3   OH241671   0.711   1.807   1.127  0.0112  0.0193  0.7200
13912TIP3    H141672   0.622   1.773   1.114  1.4576 -3.3848 -0.7281
13912TIP3    H241673   0.753   1.742   1.184  2.0898  0.7490  0.0334
13913TIP3   OH241674   6.992   7.673   0.580  0.2747  0.2503 -0.1326
13913TIP3    H141675   6.960   7.684   0.669 -0.4985  1.1966 -0.5207
13913TIP3    H241676   7.073   7.623   0.590 -1.5858 -2.6900  0.8087
13914TIP3   OH241677   1.960   0.411   1.474  0.2854  0.4847  0.0754
13914TIP3    H141678   1.929   0.453   1.555  0.9258  0.6531  0.2378
13914TIP3    H241679   1.977   0.321   1.499  1.2597  0.7338  0.3338
13915TIP3   OH241680   3.224   7.064   2.587 -0.7715  0.1248 -0.0737
13915TIP3    H141681   3.252   7.133   2.646 -2.6901  0.5008  0.4216
13915TIP3    H241682   3.254   7.092   2.501 -0.3418  0.9034  0.3301
13916TIP3   OH241683   0.745   1.041   0.030 -0.3204  0.4116  0.1271
13916TIP3    H141684   0.660   1.082   0.015 -0.8094 -1.0734 -1.3466
13916TIP3    H241685   0.729   0.978   0.100 -0.1128  1.0416  0.7525
13917TIP3   OH241686   2.889   3.499   6.806  0.1178 -0.4038 -0.4086
13917TIP3    H141687   2.814   3.450   6.774 -0.1031  1.1638 -2.3852
13917TIP3    H241688   2.936   3.526   6.727  1.0457  1.2793  0.6857
13918TIP3   OH241689   5.324   7.350   1.123  0.3099 -0.1225 -0.2864
13918TIP3    H141690   5.316   7.381   1.213  0.3935  0.0777 -0.3475
13918TIP3    H241691   5.318   7.430   1.069 -0.9730 -0.3566 -0.5218
13919TIP3   OH241692   2.232   3.009   2.233 -0.2752  0.1679  0.2022
13919TIP3    H141693   2.137   3.001   2.225 -0.2758  0.8969 -0.5036
13919TIP3    H241694   2.245   3.075   2.301 -0.2669  0.2033  0.1657
13920TIP3   OH241695   4.427   5.843   6.000  0.0464 -0.2630 -0.6396
13920TIP3    H141696   4.455   5.751   6.004  0.1881 -0.1969 -0.1268
13920TIP3    H241697   4.486   5.889   6.058  1.6859  0.5929 -2.9086
13921TIP3   OH241698   6.414   7.346   0.463  0.8148 -1.3154 -0.3955
13921TIP3    H141699   6.373   7.264   0.436 -0.4261 -1.1468  0.9778
13921TIP3    H241700   6.446   7.329   0.552  1.0393 -0.4914 -0.3143
13922TIP3   OH241701   7.848   2.987   1.272 -0.4530 -0.5908 -0.0934
13922TIP3    H141702   7.892   3.016   1.352 -0.3755 -0.5322 -0.1568
13922TIP3    H241703   7.840   2.892   1.282  0.7076 -0.7439 -0.5893
13923TIP3   OH241704   0.261   0.984   0.482  0.7087  0.1185 -0.0509
13923TIP3    H141705   0.251   0.891   0.461  1.8383  0.0445 -0.2729
13923TIP3    H241706   0.346   0.990   0.526  0.8947  1.1254 -0.5365
13924TIP3   OH241707   7.661   0.716   1.063 -0.6888  0.1236 -0.4616
13924TIP3    H141708   7.648   0.793   1.008 -1.5274  0.3444  0.0314
13924TIP3    H241709   7.581   0.664   1.049 -1.1207  0.4107  0.9078
13925TIP3   OH241710   7.844   1.603   1.709 -1.0778 -0.5232 -0.2690
13925TIP3    H141711   7.919   1.662   1.712 -1.4005 -0.0793 -0.7574
13925TIP3    H241712   7.851   1.560   1.624 -2.1824  0.6097 -0.9593
13926TIP3   OH241713   0.617   1.444   1.433 -0.0702 -0.0122 -0.3120
13926TIP3    H141714   0.565   1.461   1.354  0.0323 -1.6121 -0.7483
13926TIP3    H241715   0.565   1.381   1.483  0.4057  0.1028  0.3371
13927TIP3   OH241716   1.954   1.413   1.263 -0.1396 -0.3438 -0.1177
13927TIP3    H141717   1.912   1.477   1.204  1.4346  1.0067  0.2105
13927TIP3    H241718   1.963   1.459   1.346  0.9751 -1.0201  0.1390
13928TIP3   OH241719   4.785   7.497   4.388  0.3209  0.6977  0.4832
13928TIP3    H141720   4.775   7.422   4.328  2.0875 -0.8130  2.0273
13928TIP3    H241721   4.877   7.521   4.380  0.3441  1.0933  1.8662
13929TIP3   OH241722   7.803   7.630   2.678  0.2052 -0.2335 -0.4590
13929TIP3    H141723   7.842   7.549   2.644  2.1059  0.4950 -0.0863
13929TIP3    H241724   7.790   7.685   2.601  1.6183  0.2144 -0.3901
13930TIP3   OH241725   0.666   1.133   0.515  0.3335  0.2452  0.3609
13930TIP3    H141726   0.613   1.212   0.527 -0.4579  0.0872 -1.9202
13930TIP3    H241727   0.753   1.166   0.491 -0.1977  0.4546 -1.3743
13931TIP3   OH241728   1.090   4.879   1.976 -0.2525 -0.5264  0.1549
13931TIP3    H141729   1.155   4.873   2.046 -3.9040  0.6753  3.8720
13931TIP3    H241730   1.053   4.791   1.970  0.8554 -0.9274 -1.1857
13932TIP3   OH241731   0.781   0.028   1.799  0.2362 -0.1112  0.2179
13932TIP3    H141732   0.738   0.096   1.850  0.2585 -0.5653  0.8406
13932TIP3    H241733   0.787   0.065   1.710 -0.4150  0.4010  0.3845
13933TIP3   OH241734   7.059   7.874   0.974 -0.6042 -0.0640 -0.1117
13933TIP3    H141735   7.003   7.816   1.026  1.7470  0.1815  2.8055
13933TIP3    H241736   7.046   7.961   1.012 -0.3753  0.4924 -1.2712
13934TIP3   OH241737   2.507   3.853   6.202  0.2026 -0.1286 -0.4103
13934TIP3    H141738   2.467   3.802   6.131 -0.5596  2.9402 -2.2910
13934TIP3    H241739   2.438   3.913   6.229  0.7870 -0.6435  2.3973
13935TIP3   OH241740   7.774   0.115   0.061 -0.0695 -0.2033 -0.2164
13935TIP3    H141741   7.860   0.095   0.022  1.3217  2.4799  1.3388
13935TIP3    H241742   7.753   0.202   0.028 -1.4680 -0.1936  0.7054
13936TIP3   OH241743   1.954   0.090   0.454 -0.1290  0.5662 -0.1167
13936TIP3    H141744   1.861   0.111   0.453  0.0021  1.1456  0.1109
13936TIP3    H241745   1.963   0.024   0.523 -0.1721  1.3959  0.6797
13937TIP3   OH241746   4.056   7.638   1.458  0.3032  0.5512  0.2545
13937TIP3    H141747   4.122   7.580   1.494 -0.2325 -0.4352 -0.3239
13937TIP3    H241748   3.973   7.598   1.483 -0.0838  1.9013  1.1713
13938TIP3   OH241749   7.824   0.216   6.563  0.8002 -0.2985  0.5911
13938TIP3    H141750   7.794   0.265   6.640  2.1747  0.2202  0.8056
13938TIP3    H241751   7.871   0.141   6.600  0.9539 -0.3681  0.2501
13939TIP3   OH241752   2.862   6.837   6.642 -0.4750  0.5206  0.0981
13939TIP3    H141753   2.848   6.926   6.675  0.0262  0.5849  0.1500
13939TIP3    H241754   2.778   6.794   6.651 -0.8520  1.1381 -0.3767
13940TIP3   OH241755   3.950   6.998   1.239 -0.6038  0.0272  0.3964
13940TIP3    H141756   3.957   7.091   1.222 -1.2328  0.0728  0.3800
13940TIP3    H241757   3.869   6.971   1.196  0.5601 -0.9149 -1.3005
13941TIP3   OH241758   5.699   6.590   1.898  0.0557  0.1191  0.0776
13941TIP3    H141759   5.661   6.587   1.986 -1.5724  2.7170 -0.4698
13941TIP3    H241760   5.653   6.663   1.855  1.3160 -0.6582 -2.6886
13942TIP3   OH241761   1.317   1.552   1.269 -0.1784  0.0307  0.3542
13942TIP3    H141762   1.322   1.640   1.307  0.8795  0.5906 -1.0268
13942TIP3    H241763   1.403   1.514   1.288  0.0928  0.0506 -0.8513
13943TIP3   OH241764   7.608   1.195   1.001 -0.0571 -0.1893  0.4037
13943TIP3    H141765   7.525   1.197   1.048  0.6901  1.7059  1.7194
13943TIP3    H241766   7.662   1.133   1.051 -0.1976 -0.2942  0.4243
13944TIP3   OH241767   8.306   1.928   0.832 -0.5014  0.3286 -0.2830
13944TIP3    H141768   8.288   1.985   0.757  0.2835  0.2266 -0.5628
13944TIP3    H241769   8.302   1.986   0.908 -2.4908  0.2033 -0.2637
13945TIP3   OH241770   2.319   6.314   5.661 -0.6641  0.0812  0.5476
13945TIP3    H141771   2.312   6.387   5.600 -0.6840 -0.2346  0.1657
13945TIP3    H241772   2.369   6.348   5.735  0.0063  0.2531  0.0203
13946TIP3   OH241773   1.045   1.228   1.674  0.1417  0.4439 -0.1485
13946TIP3    H141774   0.970   1.288   1.670  1.3531  1.9892  0.1826
13946TIP3    H241775   1.005   1.143   1.692 -1.4528  1.4428  1.2469
13947TIP3   OH241776   8.377   1.230   0.619  0.3962  0.7117  0.0498
13947TIP3    H141777   8.471   1.232   0.640  0.8061  0.2848 -1.6860
13947TIP3    H241778   8.355   1.322   0.601  0.6653  0.7024 -0.3282
13948TIP3   OH241779   0.112   0.776   2.899  0.3325  0.1946 -0.9924
13948TIP3    H141780   0.201   0.763   2.864  0.9679 -0.8909  0.9404
13948TIP3    H241781   0.056   0.779   2.821  1.9420 -0.0919 -2.1970
13949TIP3   OH241782   0.509   2.913   1.074  0.1581 -0.1637 -0.4009
13949TIP3    H141783   0.591   2.936   1.032 -0.9241  0.6469 -2.1498
13949TIP3    H241784   0.474   2.842   1.020 -0.3221 -0.4547  0.2884
13950TIP3   OH241785   0.366   1.845   2.729  0.5311 -0.9272 -0.0106
13950TIP3    H141786   0.310   1.818   2.656  0.1447  0.1086 -0.1092
13950TIP3    H241787   0.384   1.764   2.777 -1.1172 -1.2588  0.0655
13951TIP3   OH241788   3.626   6.158   6.589  0.4245 -0.1524 -0.0329
13951TIP3    H141789   3.594   6.201   6.668 -2.2683  0.4445 -1.3836
13951TIP3    H241790   3.608   6.065   6.604  3.2123 -0.5012  1.4993
13952TIP3   OH241791   5.396   7.960   1.920  0.4157  0.8137  0.2570
13952TIP3    H141792   5.330   7.992   1.859  0.9740 -0.8943 -1.3119
13952TIP3    H241793   5.349   7.898   1.976  0.2327  1.2068  0.5380
13953TIP3   OH241794   6.526   5.921   1.907  0.3710  0.8630 -0.4494
13953TIP3    H141795   6.466   5.874   1.966 -1.2865  1.2918 -1.7500
13953TIP3    H241796   6.571   5.983   1.965 -1.0007  1.0607  0.4494
13954TIP3   OH241797   1.075   1.169   0.230  0.1275  0.0433  0.0529
13954TIP3    H141798   1.050   1.168   0.137  1.1812  1.2329 -0.2608
13954TIP3    H241799   1.155   1.116   0.234 -0.1776 -0.3968  0.3655
13955TIP3   OH241800   1.370   1.645   1.023  0.2609 -0.7320 -0.8669
13955TIP3    H141801   1.345   1.611   1.108  0.2397  0.8169 -0.2428
13955TIP3    H241802   1.414   1.728   1.042 -1.4383  0.5660 -2.4730
13956TIP3   OH241803   2.839   4.100   6.725 -0.3961  0.5774  0.4517
13956TIP3    H141804   2.814   4.169   6.786  0.3739 -1.6589  3.4372
13956TIP3    H241805   2.768   4.037   6.729  0.4893 -0.4431  0.4497
13957TIP3   OH241806   5.555   5.966   0.746  0.1204 -0.0613  0.3642
13957TIP3    H141807   5.488   5.962   0.677 -0.1624 -1.2023  0.6993
13957TIP3    H241808   5.614   6.036   0.718 -1.3531  1.1478  0.1899
13958TIP3   OH241809   8.300   7.748   1.736  0.6771 -0.0719  0.8191
13958TIP3    H141810   8.330   7.794   1.657 -0.7218 -1.4403 -0.5501
13958TIP3    H241811   8.250   7.813   1.784 -1.1097 -0.0725 -0.9836
13959TIP3   OH241812   3.709   1.184   2.394  0.5562  0.4783 -0.4176
13959TIP3    H141813   3.614   1.190   2.408  0.6479 -2.7619  2.0515
13959TIP3    H241814   3.747   1.230   2.469  0.9981  2.4009 -1.7781
13960TIP3   OH241815   1.319   2.521   0.771  0.8263  0.3167  0.2146
13960TIP3    H141816   1.396   2.522   0.829  1.4729  0.1695 -0.6297
13960TIP3    H241817   1.290   2.430   0.772  1.3224  0.1508 -0.3203
13961TIP3   OH241818   3.609   3.938   6.122 -0.1320  0.1986  0.0568
13961TIP3    H141819   3.703   3.957   6.132  0.1626 -2.1048  2.3420
13961TIP3    H241820   3.574   3.943   6.211 -2.1312  0.7237 -0.7394
13962TIP3   OH241821   8.009   7.606   1.161  0.0181 -0.1825 -0.4734
13962TIP3    H141822   7.931   7.564   1.197  0.3155 -0.6232 -0.3394
13962TIP3    H241823   8.068   7.534   1.140  0.7730  0.1985  0.3005
13963TIP3   OH241824   0.993   0.256   0.507  0.0987  0.0073  0.4947
13963TIP3    H141825   0.908   0.225   0.539  0.2374 -1.1819 -0.2595
13963TIP3    H241826   1.056   0.228   0.573  0.2081 -1.2228 -0.1276
13964TIP3   OH241827   2.614   4.846   6.717  0.2893 -0.4425  0.5570
13964TIP3    H141828   2.562   4.777   6.758  0.0157 -1.7869 -1.9783
13964TIP3    H241829   2.688   4.800   6.678 -0.0764  0.6394 -1.4488
13965TIP3   OH241830   0.507   0.607   0.756  0.3678  0.6175  0.0403
13965TIP3    H141831   0.545   0.694   0.741  1.1847  0.3853  0.7352
13965TIP3    H241832   0.429   0.605   0.700 -0.3121  2.2335  0.9023
13966TIP3   OH241833   6.134   7.248   0.145 -0.3405  0.0713  0.4193
13966TIP3    H141834   6.068   7.283   0.086  0.4798 -0.7835 -1.0188
13966TIP3    H241835   6.111   7.156   0.157  0.6459 -0.2719 -0.2074
13967TIP3   OH241836   4.690   7.458   2.640 -0.0781 -0.5988  0.0676
13967TIP3    H141837   4.605   7.423   2.614 -1.0127  1.1001  0.7319
13967TIP3    H241838   4.704   7.424   2.728  0.5037 -1.8322 -0.4809
13968TIP3   OH241839   0.956   1.469   2.063  0.4646 -0.1581  0.4337
13968TIP3    H141840   0.983   1.546   2.012  1.7199  0.7760  2.4414
13968TIP3    H241841   0.883   1.500   2.116  0.1638 -0.7032  0.3385
13969TIP3   OH241842   6.774   7.467   0.601 -0.2010 -0.0566 -0.0059
13969TIP3    H141843   6.748   7.429   0.517  0.4457  1.4553 -0.9071
13969TIP3    H241844   6.833   7.539   0.578 -0.0301  0.3934  1.7468
13970TIP3   OH241845   0.878   2.149   1.661 -0.4003 -0.6708 -0.4283
13970TIP3    H141846   0.892   2.128   1.568 -0.0471  3.2502 -1.3429
13970TIP3    H241847   0.784   2.139   1.673 -0.1939 -3.2766 -0.5904
13971TIP3   OH241848   0.887   1.473   2.588  0.6791 -0.0654  0.0302
13971TIP3    H141849   0.941   1.402   2.553  0.1000 -1.6073  2.1349
13971TIP3    H241850   0.927   1.495   2.672 -2.7035 -2.3077  2.3882
13972TIP3   OH241851   1.782   1.838   1.576 -0.4678 -0.2846  0.0015
13972TIP3    H141852   1.767   1.812   1.667 -1.7342  1.0780  0.1999
13972TIP3    H241853   1.694   1.850   1.540  0.0181  3.7785 -0.0318
13973TIP3   OH241854   2.708   7.697   6.395 -0.4027 -0.8309  0.2875
13973TIP3    H141855   2.628   7.746   6.414 -0.2775 -0.5626  0.1218
13973TIP3    H241856   2.692   7.610   6.432 -0.9743 -0.9398 -0.2075
13974TIP3   OH241857   2.237   2.140   2.386 -0.4886  0.1667 -0.3170
13974TIP3    H141858   2.229   2.234   2.370  1.0325  0.5568  1.1113
13974TIP3    H241859   2.156   2.117   2.431 -0.2186  1.0893  0.6510
13975TIP3   OH241860   8.481   0.905   1.389  0.2441 -0.0215  0.0425
13975TIP3    H141861   8.413   0.962   1.426 -0.4325 -0.4656 -0.4846
13975TIP3    H241862   8.455   0.817   1.417  1.6223 -0.0205  1.3742
13976TIP3   OH241863   3.276   6.172   6.592  0.3738  0.2192 -0.1064
13976TIP3    H141864   3.283   6.254   6.640  1.4024 -0.0586  0.2230
13976TIP3    H241865   3.365   6.153   6.563 -0.1413  0.0696 -1.6127
13977TIP3   OH241866   6.627   6.253   1.688 -0.1401  0.4504  0.3008
13977TIP3    H141867   6.553   6.238   1.747  1.6613  0.9470  2.7886
13977TIP3    H241868   6.698   6.281   1.746  2.2634 -0.8556 -1.9200
13978TIP3   OH241869   1.085   0.126   4.331  0.0143  0.3311 -0.5820
13978TIP3    H141870   1.048   0.045   4.294  2.5033  0.1225 -2.6893
13978TIP3    H241871   1.162   0.144   4.278 -0.8147  4.4518 -0.5150
13979TIP3   OH241872   7.648   7.265   0.243 -0.0897 -0.4550  0.4398
13979TIP3    H141873   7.577   7.329   0.241 -0.5909 -1.0222 -1.5166
13979TIP3    H241874   7.694   7.279   0.160 -0.2237 -2.6316 -0.0255
13980TIP3   OH241875   2.136   4.446   6.661  0.5986  0.1420 -0.4383
13980TIP3    H141876   2.170   4.422   6.575 -1.8565 -2.4249 -0.7817
13980TIP3    H241877   2.105   4.536   6.651 -0.2050 -0.3294 -2.4164
13981TIP3   OH241878   1.030   1.886   1.979  0.1096 -0.0310 -0.0347
13981TIP3    H141879   1.038   1.948   1.906  2.0606  0.1323  0.2677
13981TIP3    H241880   1.020   1.801   1.937 -2.1032  0.4158 -0.4570
13982TIP3   OH241881   2.188   2.089   1.325 -0.0069  0.3544  0.0232
13982TIP3    H141882   2.225   2.004   1.303  0.7353  0.4647  0.8211
13982TIP3    H241883   2.150   2.077   1.412  0.4926  0.9465  0.3318
13983TIP3   OH241884   3.867   1.000   1.242 -0.2181 -0.3645 -0.1595
13983TIP3    H141885   3.781   1.038   1.261  0.2371  0.0186  1.2045
13983TIP3    H241886   3.848   0.915   1.204 -1.2031 -0.6747  1.0074
13984TIP3   OH241887   5.029   7.808   1.623 -0.0245  0.2431  0.0005
13984TIP3    H141888   4.954   7.750   1.636 -0.6431  0.5122 -2.1756
13984TIP3    H241889   5.052   7.838   1.711 -1.3231 -1.2596  0.8757
13985TIP3   OH241890   0.267   1.547   0.174  0.5404  0.4590 -0.0320
13985TIP3    H141891   0.241   1.566   0.264  0.1866  1.2869 -0.3106
13985TIP3    H241892   0.322   1.621   0.148  0.9298  0.0496 -0.3796
13986TIP3   OH241893   5.881   6.154   1.534  0.0135  0.1971  0.4741
13986TIP3    H141894   5.800   6.198   1.509 -0.3121  0.2096  1.5284
13986TIP3    H241895   5.854   6.087   1.598  0.9585  0.9257  1.6528
13987TIP3   OH241896   5.412   6.572   4.582 -0.0700  0.8699  0.0401
13987TIP3    H141897   5.485   6.538   4.531 -0.0119  1.3673 -0.2047
13987TIP3    H241898   5.452   6.632   4.645 -0.1426  0.2691  0.6636
13988TIP3   OH241899   3.444   3.046   1.704 -0.0695  0.0738 -0.1513
13988TIP3    H141900   3.497   3.081   1.775 -0.9019 -1.6918  1.3958
13988TIP3    H241901   3.507   3.016   1.638  0.8604 -1.3629  1.3616
13989TIP3   OH241902   5.452   7.882   0.627 -0.1859 -0.5263  0.5715
13989TIP3    H141903   5.509   7.874   0.703  0.3275 -2.1824  0.0284
13989TIP3    H241904   5.419   7.794   0.612 -0.0094 -0.2875 -1.3382
13990TIP3   OH241905   4.066   3.121   1.237 -0.6080  0.1203  0.5260
13990TIP3    H141906   4.069   3.140   1.143 -3.0129  0.6175  0.5311
13990TIP3    H241907   4.121   3.189   1.276 -1.2409  1.1634 -0.3517
13991TIP3   OH241908   5.939   5.269   6.722 -0.0821 -0.1745  0.3163
13991TIP3    H141909   5.950   5.178   6.750 -0.4320 -0.7333 -1.3019
13991TIP3    H241910   5.845   5.284   6.727 -0.0601 -0.0126  0.2342
13992TIP3   OH241911   1.544   1.213   0.519  0.5674  0.0565  0.0432
13992TIP3    H141912   1.614   1.216   0.584  0.7633  0.2993 -0.1780
13992TIP3    H241913   1.566   1.283   0.457 -0.4329  0.8559  0.5627
13993TIP3   OH241914   1.915   2.862   0.236  0.0917 -0.0434  0.1057
13993TIP3    H141915   1.951   2.879   0.149  0.1126 -0.4380  0.0377
13993TIP3    H241916   1.992   2.846   0.291  0.0083 -1.2800 -0.1242
13994TIP3   OH241917   4.828   4.982   5.606 -0.0920  0.2545  0.3096
13994TIP3    H141918   4.917   4.984   5.641  0.7762  2.6331 -1.8555
13994TIP3    H241919   4.799   5.073   5.610 -1.7380 -0.2007 -0.7140
13995TIP3   OH241920   1.295   3.276   0.962  0.7501 -0.1147 -0.6191
13995TIP3    H141921   1.242   3.197   0.973 -0.3243  0.4552 -1.5534
13995TIP3    H241922   1.353   3.255   0.889  1.1056 -0.3661 -0.2676
13996TIP3   OH241923   2.216   1.175   1.332  0.6445  0.3543 -0.1252
13996TIP3    H141924   2.159   1.143   1.401 -0.7028 -1.3807 -1.9633
13996TIP3    H241925   2.297   1.200   1.376 -0.7315  0.7454  2.2362
13997TIP3   OH241926   4.270   4.910   6.947 -0.4387  0.1150 -0.4951
13997TIP3    H141927   4.362   4.912   6.921  0.0618  0.5941  1.1898
13997TIP3    H241928   4.225   4.867   6.875  1.2479 -0.9816 -0.9150
13998TIP3   OH241929   4.946   6.592   4.716  0.0092  0.5462 -0.1199
13998TIP3    H141930   4.948   6.636   4.631  1.1162  1.0192  0.1439
13998TIP3    H241931   4.863   6.544   4.716  1.2082 -1.6655 -2.5737
13999TIP3   OH241932   2.468   1.750   0.219  0.0400 -0.4401  0.8452
13999TIP3    H141933   2.388   1.801   0.227 -0.2531 -0.8453  0.5779
13999TIP3    H241934   2.454   1.675   0.278  0.2079 -0.5219  0.7804
14000TIP3   OH241935   0.600   7.158   2.932 -0.0202 -0.5693  0.2514
14000TIP3    H141936   0.622   7.249   2.949  0.3757 -0.7143  0.5251
14000TIP3    H241937   0.505   7.157   2.926 -0.1575 -0.4514  2.1257
14001TIP3   OH241938   8.176   7.189   1.796 -0.6630 -0.8953  0.1664
14001TIP3    H141939   8.154   7.282   1.799  0.3977 -0.6375  0.0550
14001TIP3    H241940   8.139   7.158   1.714  1.6451  0.1354 -1.3355
14002TIP3   OH241941   8.426   0.528   0.963  0.1766 -0.3915  0.3362
14002TIP3    H141942   8.406   0.520   1.057  0.5489  0.1022  0.4565
14002TIP3    H241943   8.355   0.581   0.928 -1.0740 -2.2710 -0.0441
14003TIP3   OH241944   3.730   1.236   2.980 -0.9284 -0.2113 -0.8915
14003TIP3    H141945   3.699   1.326   2.987 -1.6791 -0.3342 -2.2842
14003TIP3    H241946   3.656   1.183   3.008 -0.6580 -0.4029 -0.5436
14004TIP3   OH241947   3.603   1.500   2.414 -0.5910  1.0045  0.6309
14004TIP3    H141948   3.547   1.465   2.345 -0.6033 -0.1602  1.2157
14004TIP3    H241949   3.544   1.554   2.468 -0.8489  0.8811  0.4727
14005TIP3   OH241950   0.474   1.286   0.932  0.3486 -0.7815 -0.0548
14005TIP3    H141951   0.434   1.265   1.016  1.9099 -1.9306  0.4345
14005TIP3    H241952   0.557   1.239   0.933  0.2523 -1.0854 -2.3744
14006TIP3   OH241953   0.404   6.933   0.903 -0.5256 -0.0616 -0.1074
14006TIP3    H141954   0.350   6.856   0.921  0.6382 -0.8574  0.0294
14006TIP3    H241955   0.453   6.947   0.983 -0.6603  0.7689 -0.1693
14007TIP3   OH241956   1.670   2.499   0.570  0.4075  0.1133 -0.0014
14007TIP3    H141957   1.690   2.471   0.660  0.9589  0.2028 -0.0962
14007TIP3    H241958   1.676   2.419   0.518  0.7526  0.1803 -0.0672
14008TIP3   OH241959   2.806   0.476   1.104 -0.1799 -0.0481  0.0426
14008TIP3    H141960   2.829   0.556   1.056 -1.1252 -0.4087 -1.0239
14008TIP3    H241961   2.749   0.506   1.175 -2.7816 -0.0389 -1.9538
14009TIP3   OH241962   4.943   0.734   0.082  0.1323  0.7657  0.2362
14009TIP3    H141963   4.864   0.680   0.075  0.1750  0.7813 -0.4021
14009TIP3    H241964   4.910   0.824   0.083  0.0658  0.7387  1.2321
14010TIP3   OH241965   4.652   5.145   5.992 -0.3418  0.2273 -0.0007
14010TIP3    H141966   4.611   5.065   5.958  0.1002 -0.8045  1.8301
14010TIP3    H241967   4.746   5.126   5.993 -0.3533  0.2335  1.8086
14011TIP3   OH241968   2.483   2.375   1.717 -0.7342 -0.2980 -0.3909
14011TIP3    H141969   2.413   2.321   1.680 -2.2013 -0.1855  2.1269
14011TIP3    H241970   2.499   2.442   1.650 -0.5912 -2.3473 -2.4870
14012TIP3   OH241971   1.477   2.807   0.793  0.2534  0.3934 -0.0358
14012TIP3    H141972   1.440   2.731   0.747 -0.3588  1.3162 -1.0875
14012TIP3    H241973   1.535   2.848   0.730 -0.7093  1.7641 -0.0607
14013TIP3   OH241974   6.403   7.816   0.581  0.1064 -0.2447  0.0056
14013TIP3    H141975   6.361   7.792   0.664 -2.5276  3.9182  0.0592
14013TIP3    H241976   6.366   7.755   0.517 -1.1497 -0.7416  1.1721
14014TIP3   OH241977   5.649   5.970   6.575 -0.1707  0.7930 -0.2526
14014TIP3    H141978   5.592   6.037   6.614 -0.8044 -0.6183  1.3222
14014TIP3    H241979   5.730   5.975   6.627 -0.1037  0.5528 -0.3331
14015TIP3   OH241980   4.256   1.357   0.713 -0.6821  0.5131 -0.1689
14015TIP3    H141981   4.281   1.266   0.724  1.2175  0.8931 -1.1226
14015TIP3    H241982   4.178   1.367   0.767  0.9370 -0.8618  2.5365
14016TIP3   OH241983   1.581   0.882   1.420 -0.2460 -1.6804  0.8022
14016TIP3    H141984   1.533   0.841   1.493  0.3907 -1.8538  1.1227
14016TIP3    H241985   1.534   0.853   1.342  0.1917 -3.0140  1.0264
14017TIP3   OH241986   4.051   6.387   6.711  0.3698 -0.2129  0.0308
14017TIP3    H141987   4.064   6.293   6.722 -1.2215 -0.4144  0.1771
14017TIP3    H241988   3.999   6.396   6.631  0.0292  0.5088  0.3241
14018TIP3   OH241989   2.184   0.794   2.249  0.0802 -0.2279  0.0019
14018TIP3    H141990   2.226   0.877   2.268 -3.2295  1.4651  0.2298
14018TIP3    H241991   2.137   0.808   2.167 -0.6666 -1.7880  0.1283
14019TIP3   OH241992   6.751   7.603   3.297  0.1473  0.0837 -0.2931
14019TIP3    H141993   6.826   7.651   3.333 -0.4657  0.9845 -0.1996
14019TIP3    H241994   6.716   7.554   3.371  0.2008  0.2449 -0.1600
14020TIP3   OH241995   0.034   7.188   1.287 -0.3709 -0.4580 -0.0370
14020TIP3    H141996  -0.055   7.156   1.269 -0.8616  0.1010  1.2966
14020TIP3    H241997   0.050   7.164   1.378 -0.1711  1.7376  0.5409
14021TIP3   OH241998   1.688   0.835   0.695 -0.3662  0.0573  0.1515
14021TIP3    H141999   1.657   0.804   0.780 -1.2399  0.3956 -0.0413
14021TIP3    H242000   1.609   0.863   0.649  0.2607  1.2947 -0.1914
14022TIP3   OH242001   4.260   3.008   0.645  0.4012 -0.5874 -0.4996
14022TIP3    H142002   4.233   2.954   0.571 -1.3509 -1.0210  0.4344
14022TIP3    H242003   4.323   2.954   0.693  0.1055 -1.0474 -0.6266
14023TIP3   OH242004   5.598   2.219   0.272 -0.0404  0.3694  0.2641
14023TIP3    H142005   5.624   2.235   0.362  1.0011 -2.8739  0.6078
14023TIP3    H242006   5.677   2.237   0.220 -0.4541  1.6088  0.0467
14024TIP3   OH242007   8.168   0.365   1.050 -0.3567  0.1935 -0.6268
14024TIP3    H142008   8.119   0.382   1.130  0.8709 -0.2819  0.2398
14024TIP3    H242009   8.151   0.441   0.994 -0.4559  0.9606  0.4469
14025TIP3   OH242010   0.722   3.052   0.930  0.1883  0.2475 -0.8384
14025TIP3    H142011   0.734   3.093   1.015  0.5938 -1.9371  0.1981
14025TIP3    H242012   0.808   3.058   0.888  0.3653  0.0151 -0.5044
14026TIP3   OH242013   1.827   0.908   1.291  0.3118 -0.0879 -0.2159
14026TIP3    H142014   1.746   0.904   1.343  0.3027  0.2069 -0.2058
14026TIP3    H242015   1.890   0.858   1.342  0.0305 -0.6499 -0.4157
14027TIP3   OH242016   5.359   4.818   6.811 -0.3221  0.1436  0.6859
14027TIP3    H142017   5.382   4.761   6.885  0.0042  2.1589  2.1745
14027TIP3    H242018   5.358   4.906   6.848 -1.0538  1.0975 -1.5311
14028TIP3   OH242019   5.647   5.242   6.701  0.0162  0.1550  0.1104
14028TIP3    H142020   5.590   5.223   6.626 -1.2146  0.5783  0.9191
14028TIP3    H242021   5.690   5.159   6.721 -0.6456 -0.2757 -0.2365
14029TIP3   OH242022   4.607   2.788   2.705  0.2841 -0.1374  0.1795
14029TIP3    H142023   4.645   2.871   2.678 -1.7033  0.7801  0.1055
14029TIP3    H242024   4.680   2.739   2.741  1.2445  2.1935  1.5168
14030TIP3   OH242025   2.782   0.899   1.011  0.0568  0.1227  0.2710
14030TIP3    H142026   2.750   0.976   0.964 -0.2684 -0.0513  0.2018
14030TIP3    H242027   2.703   0.852   1.037  0.2598 -0.6339 -0.4426
14031TIP3   OH242028   3.969   2.116   1.562 -0.0575  0.0119  0.3637
14031TIP3    H142029   4.039   2.051   1.575  0.1592  0.0798 -0.4394
14031TIP3    H242030   3.902   2.068   1.513  0.2430  0.4906 -0.5143
14032TIP3   OH242031   5.514   5.524   6.466  0.2134 -0.2313  0.3413
14032TIP3    H142032   5.494   5.614   6.441  0.3204 -0.0814  0.7813
14032TIP3    H242033   5.443   5.472   6.430  0.1015  0.0425  0.1678
14033TIP3   OH242034   5.118   0.606   1.602 -0.1517 -0.0601  0.0940
14033TIP3    H142035   5.129   0.521   1.559  0.2080 -0.1977  0.4538
14033TIP3    H242036   5.104   0.584   1.694  2.5265  0.3621  0.6428
14034TIP3   OH242037   3.285   2.201   1.424  0.3784 -0.2766 -0.1884
14034TIP3    H142038   3.285   2.294   1.444  0.9217 -0.6418  1.6180
14034TIP3    H242039   3.236   2.161   1.495  2.7540 -1.6831  0.7236
14035TIP3   OH242040   5.177   7.235   2.391 -0.1562  0.2427  0.8102
14035TIP3    H142041   5.160   7.329   2.391 -1.6676 -0.0084  1.0857
14035TIP3    H242042   5.197   7.215   2.483  0.3704  0.3264  0.7144
14036TIP3   OH242043   5.993   6.516   6.591 -0.0735  0.4166 -0.1109
14036TIP3    H142044   5.971   6.533   6.683 -0.4955  1.9842 -0.4997
14036TIP3    H242045   5.965   6.425   6.577 -1.6345  0.7297  0.8300
14037TIP3   OH242046   7.884   1.921   2.140  0.3798 -0.8677 -0.1191
14037TIP3    H142047   7.846   1.965   2.215  0.2022 -0.9377 -0.1675
14037TIP3    H242048   7.862   1.977   2.065  1.1175 -0.4609 -0.0355
14038TIP3   OH242049   2.829   1.629   1.110  0.0831 -0.1311  0.5753
14038TIP3    H142050   2.760   1.678   1.065  0.4368 -0.2777 -0.1339
14038TIP3    H242051   2.873   1.694   1.165 -1.8331 -0.4237  2.4935
14039TIP3   OH242052   2.882   2.390   2.202  0.1916  0.5629 -0.6851
14039TIP3    H142053   2.792   2.393   2.235 -0.5155 -0.8293 -2.3917
14039TIP3    H242054   2.883   2.456   2.132  1.0065  1.8291  0.5103
14040TIP3   OH242055   5.751   6.248   6.683 -0.3875  0.3121 -0.7282
14040TIP3    H142056   5.806   6.222   6.757 -2.3402  2.8129  1.7520
14040TIP3    H242057   5.664   6.214   6.705 -0.6464 -0.3503 -2.7262
14041TIP3   OH242058   7.328   4.816   6.858 -0.5423  0.0468  0.1459
14041TIP3    H142059   7.329   4.743   6.920 -1.6769 -1.2360 -1.2881
14041TIP3    H242060   7.408   4.805   6.807  0.3936  1.1058  1.3361
14042TIP3   OH242061   0.958   2.206   0.585  0.0529 -0.5234 -0.3733
14042TIP3    H142062   1.014   2.222   0.508  0.8658  0.9484  0.4999
14042TIP3    H242063   0.958   2.111   0.595 -0.7788 -0.8217 -2.7177
14043TIP3   OH242064   5.856   5.889   6.808  0.0043  0.7638  0.3915
14043TIP3    H142065   5.797   5.836   6.862 -1.2138  0.9009 -0.7925
14043TIP3    H242066   5.921   5.827   6.776 -1.0552  0.0909 -0.4776
14044TIP3   OH242067   1.572   2.783   2.258 -0.5868 -0.1033  0.0815
14044TIP3    H142068   1.644   2.836   2.293 -1.2179  0.5923  0.3421
14044TIP3    H242069   1.567   2.707   2.315  0.1933 -0.3452 -0.1697
14045TIP3   OH242070   5.012   7.982   1.182  0.1108 -0.3787  0.4271
14045TIP3    H142071   5.073   7.975   1.109  1.8461 -1.0101  1.8879
14045TIP3    H242072   4.926   7.967   1.143  0.8697  0.4668 -1.6696
14046TIP3   OH242073   4.110   1.649   1.450 -0.0933  0.6134 -0.4996
14046TIP3    H142074   4.144   1.569   1.412  0.4657  1.0184 -0.8579
14046TIP3    H242075   4.173   1.673   1.518 -1.1683 -0.1875  0.7953
14047TIP3   OH242076   4.084   1.699   2.051  0.4687 -0.2721  0.2198
14047TIP3    H142077   4.036   1.620   2.027  2.5675 -1.1706 -1.1535
14047TIP3    H242078   4.108   1.685   2.142 -1.2001 -0.1212  0.7145
14048TIP3   OH242079   5.315   5.863   5.391  0.0907  0.0418 -0.1961
14048TIP3    H142080   5.271   5.887   5.472  0.0858 -0.4037 -0.0693
14048TIP3    H242081   5.255   5.802   5.348  0.4905 -0.4094 -0.1161
14049TIP3   OH242082   3.271   4.601   6.755  0.3300  0.1511 -0.0370
14049TIP3    H142083   3.367   4.602   6.753  0.3418 -1.4953 -2.2364
14049TIP3    H242084   3.246   4.690   6.731  1.2843  1.1164  2.3959
14050TIP3   OH242085   0.527   0.907   0.251 -0.3919 -0.2585 -0.1062
14050TIP3    H142086   0.472   0.882   0.325 -1.2413 -2.7410 -1.4817
14050TIP3    H242087   0.473   0.887   0.174  1.1113  0.6223 -1.4124
14051TIP3   OH242088   0.563   0.337   0.510  0.2273 -0.1909 -0.0235
14051TIP3    H142089   0.506   0.389   0.453  1.1049 -0.6121 -1.3058
14051TIP3    H242090   0.638   0.393   0.528  0.6887 -0.6123 -0.5758
14052TIP3   OH242091   1.963   0.631   0.430  0.0656  0.4976 -0.2290
14052TIP3    H142092   1.956   0.563   0.497  3.0482 -0.2735 -0.6539
14052TIP3    H242093   2.054   0.629   0.402  0.1690  4.4948 -0.4768
14053TIP3   OH242094   8.245   2.562   3.386  0.0365 -0.0199  0.1112
14053TIP3    H142095   8.319   2.502   3.383  1.6438  1.9510 -0.2946
14053TIP3    H242096   8.201   2.551   3.302  0.1875 -0.8042  0.1339
14054TIP3   OH242097   2.494   1.244   2.941  0.3116  0.0948  0.2416
14054TIP3    H142098   2.425   1.183   2.967 -0.5606  0.7732 -0.4706
14054TIP3    H242099   2.570   1.189   2.924 -0.3851 -0.7567 -0.1098
14055TIP3   OH242100   7.915   6.879   1.315  0.1900  0.1664  0.2450
14055TIP3    H142101   7.888   6.940   1.384  3.4153  0.9064  0.8950
14055TIP3    H242102   7.937   6.798   1.362 -1.9095 -0.8491 -0.4095
14056TIP3   OH242103   3.799   5.694   5.697 -0.0407  0.2137 -0.1904
14056TIP3    H142104   3.750   5.682   5.615 -0.6978  2.1471 -0.1198
14056TIP3    H242105   3.858   5.767   5.678 -0.9513  1.3840  1.3668
14057TIP3   OH242106   7.945   0.640   1.046  0.2476  0.3024  0.4214
14057TIP3    H142107   7.850   0.646   1.038  0.1918 -1.6332 -0.4721
14057TIP3    H242108   7.960   0.577   1.116  0.8688  0.6276  0.5864
14058TIP3   OH242109   2.740   3.859   1.036 -0.1635 -0.4251 -0.5638
14058TIP3    H142110   2.669   3.923   1.033 -0.8158 -1.1811 -1.3542
14058TIP3    H242111   2.819   3.910   1.016 -0.0932  0.9332  2.7424
14059TIP3   OH242112   4.495   5.611   6.735 -0.5935 -0.4622 -0.5335
14059TIP3    H142113   4.544   5.562   6.669  3.1380 -0.8779  2.4458
14059TIP3    H242114   4.458   5.544   6.793 -1.8324  0.0050 -0.7504
14060TIP3   OH242115   6.195   7.834   2.175  0.0138 -0.4073  0.2597
14060TIP3    H142116   6.119   7.817   2.120 -1.1688  0.7916  1.4905
14060TIP3    H242117   6.200   7.930   2.182  0.8861 -0.5020  1.2179
14061TIP3   OH242118   8.239   8.021   0.844 -0.6724 -0.6562 -0.3089
14061TIP3    H142119   8.192   7.940   0.865 -1.6671  0.0253  0.1145
14061TIP3    H242120   8.296   8.036   0.919 -1.9427  0.1003  0.5121
14062TIP3   OH242121   5.629   7.131   0.439  0.1174  0.6704  0.5164
14062TIP3    H142122   5.662   7.059   0.385 -0.2163  1.1465 -0.3333
14062TIP3    H242123   5.539   7.144   0.407  0.6870  2.4850 -0.3877
14063TIP3   OH242124   3.323   1.445   0.780 -0.2838  0.5632 -0.1264
14063TIP3    H142125   3.406   1.485   0.755  0.4827 -1.2133 -0.4654
14063TIP3    H242126   3.348   1.363   0.822 -1.7832  1.0111  1.7048
14064TIP3   OH242127   2.984   3.575   0.655  0.2493  0.2375 -0.4132
14064TIP3    H142128   3.035   3.573   0.574 -0.5284 -0.7663 -0.8905
14064TIP3    H242129   3.048   3.597   0.723  1.7272 -2.7863 -0.7340
14065TIP3   OH242130   0.335   1.279   0.172 -0.0064 -0.2882  0.0975
14065TIP3    H142131   0.309   1.370   0.162 -0.1923 -0.2898  0.5299
14065TIP3    H242132   0.357   1.250   0.084 -0.7719 -0.0700 -0.1728
14066TIP3   OH242133   5.836   7.278   1.905  0.5595  0.4303  0.0309
14066TIP3    H142134   5.904   7.215   1.929  0.3970 -0.5164 -1.8931
14066TIP3    H242135   5.884   7.350   1.864  0.4240 -0.3787 -1.6138
14067TIP3   OH242136   4.010   3.411   2.173 -0.5223 -0.1887 -0.7980
14067TIP3    H142137   3.971   3.472   2.236  0.8680  0.5335 -0.6132
14067TIP3    H242138   4.078   3.366   2.223  0.2008 -0.0249 -1.6322
14068TIP3   OH242139   2.225   4.333   6.070 -0.2022 -0.9076 -0.1595
14068TIP3    H142140   2.167   4.259   6.088 -1.9180  0.0517 -1.5378
14068TIP3    H242141   2.171   4.410   6.087  0.8752  0.0274 -0.8903
14069TIP3   OH242142   2.599   3.062   1.609 -0.1294 -0.5901 -0.4317
14069TIP3    H142143   2.611   3.122   1.683  0.1763 -0.8481 -0.2733
14069TIP3    H242144   2.662   3.091   1.543 -2.3000  1.3929 -1.7073
14070TIP3   OH242145   4.335   3.086   5.541  0.3531  1.1254  0.4289
14070TIP3    H142146   4.371   3.125   5.621  1.2030  2.4427 -0.5845
14070TIP3    H242147   4.251   3.130   5.529 -1.3278 -1.3926  2.3591
14071TIP3   OH242148   3.295   1.476   0.068 -0.0350 -0.1725  0.0339
14071TIP3    H142149   3.210   1.438   0.087 -0.2031  0.0529 -0.2755
14071TIP3    H242150   3.302   1.475  -0.027  0.0163  0.4393  0.0254
14072TIP3   OH242151   3.321   4.953   6.207  0.0208 -0.6145  0.0982
14072TIP3    H142152   3.270   4.873   6.199 -0.2569 -0.5411  1.0945
14072TIP3    H242153   3.405   4.933   6.165  0.1084 -1.5665  0.7081
14073TIP3   OH242154   5.428   6.390   5.234  0.1459  0.3442 -0.1015
14073TIP3    H142155   5.515   6.429   5.233  0.5022 -0.4381  0.3137
14073TIP3    H242156   5.435   6.313   5.177  0.3130 -0.9403  1.6088
14074TIP3   OH242157   0.354   7.085   0.283 -0.3154 -0.2898 -0.0259
14074TIP3    H142158   0.354   7.096   0.378  1.1068  0.5602 -0.1089
14074TIP3    H242159   0.262   7.093   0.257 -0.8331 -1.5581  1.3826
14075TIP3   OH242160   0.213   1.151   0.959 -0.7780  0.4241  0.2841
14075TIP3    H142161   0.124   1.165   0.925 -1.4845 -0.8073  1.5749
14075TIP3    H242162   0.266   1.217   0.915 -1.9718 -0.0483 -1.9391
14076TIP3   OH242163   2.742   3.168   0.975 -0.3638 -0.0177  0.1458
14076TIP3    H142164   2.698   3.144   0.893  0.1419 -1.4249  0.2717
14076TIP3    H242165   2.670   3.191   1.035 -0.8224 -0.4276 -0.2446
14077TIP3   OH242166   4.596   0.866   2.001  0.0194 -0.1189  0.4145
14077TIP3    H142167   4.662   0.918   1.955  2.6548 -1.7623  2.2087
14077TIP3    H242168   4.574   0.795   1.941  1.7211 -0.9522  0.7693
14078TIP3   OH242169   6.157   7.468   6.583 -0.5776 -0.2589  0.4328
14078TIP3    H142170   6.165   7.542   6.643  0.8209  0.0349 -0.0995
14078TIP3    H242171   6.111   7.401   6.633  0.5458 -0.0085  1.8233
14079TIP3   OH242172   5.215   1.444   1.162  0.3618 -0.3110  0.0152
14079TIP3    H142173   5.192   1.464   1.071  4.2113 -0.8955 -1.2046
14079TIP3    H242174   5.202   1.526   1.209 -0.3851  0.3698 -1.3561
14080TIP3   OH242175   3.792   5.530   6.696 -0.2776 -0.1065 -0.2927
14080TIP3    H142176   3.869   5.523   6.752  0.0646 -1.5677 -0.8937
14080TIP3    H242177   3.724   5.481   6.743 -0.9584  1.4562  0.3942
14081TIP3   OH242178   2.622   1.532   1.562  0.1038  0.0157 -0.3045
14081TIP3    H142179   2.626   1.556   1.470 -0.2240 -0.0368 -0.3331
14081TIP3    H242180   2.706   1.489   1.579 -0.8512 -2.3224 -1.2470
14082TIP3   OH242181   7.299   5.632   5.489  0.1547 -0.0692  0.0234
14082TIP3    H142182   7.249   5.608   5.567 -1.0731  0.1785 -0.6930
14082TIP3    H242183   7.257   5.585   5.417 -0.6144  2.1133 -0.9690
14083TIP3   OH242184   2.879   0.233   0.954  0.6012 -0.6333  0.0743
14083TIP3    H142185   2.861   0.233   0.860 -1.0349 -2.5929  0.3520
14083TIP3    H242186   2.838   0.313   0.986 -0.0842 -0.6750 -0.6716
14084TIP3   OH242187   3.861   5.735   6.302  0.2299  0.3067 -0.2202
14084TIP3    H142188   3.832   5.651   6.338  1.7906 -0.2821 -0.2622
14084TIP3    H242189   3.928   5.764   6.364 -0.6397  1.7654  0.0430
14085TIP3   OH242190   2.364   3.701   1.035  0.7367  0.3291  0.1499
14085TIP3    H142191   2.276   3.689   0.999  1.3631 -2.6352 -0.4540
14085TIP3    H242192   2.413   3.743   0.965  0.1910  0.7279 -0.0044
14086TIP3   OH242193   2.125   0.224   0.964  0.2516 -0.2910  0.0095
14086TIP3    H142194   2.030   0.235   0.965  0.3782  0.7539  1.1903
14086TIP3    H242195   2.146   0.187   1.050  0.8902 -0.7250 -0.3297
14087TIP3   OH242196   1.904   1.354   0.872  0.1388 -0.2576 -0.5757
14087TIP3    H142197   1.940   1.432   0.914 -1.2534 -0.6178  1.3658
14087TIP3    H242198   1.981   1.303   0.847  1.0364  0.3052  0.9210
14088TIP3   OH242199   0.804   0.779   0.248  0.1611  0.2787  0.3508
14088TIP3    H142200   0.840   0.824   0.324 -0.4136 -0.7029  1.2041
14088TIP3    H242201   0.710   0.782   0.261 -0.1632  3.0036 -1.9702
14089TIP3   OH242202   6.158   5.445   6.318  0.3852  0.1658  0.2787
14089TIP3    H142203   6.190   5.523   6.364  1.0885  1.2558 -1.9914
14089TIP3    H242204   6.193   5.371   6.368  1.2426  1.3112  1.4007
14090TIP3   OH242205   4.624   5.984   6.134  0.3718  0.1112  0.0666
14090TIP3    H142206   4.712   6.011   6.106  0.5153 -0.1697  0.2418
14090TIP3    H242207   4.594   6.055   6.191  0.1358  0.6182 -0.6679
14091TIP3   OH242208   2.449   1.258   1.728  0.2802  0.1574  0.0852
14091TIP3    H142209   2.514   1.317   1.765 -0.5510 -0.1965  2.1401
14091TIP3    H242210   2.367   1.307   1.733  0.2539  0.3470 -1.8838
14092TIP3   OH242211   2.306   0.354   0.451  0.1152  0.1143  0.1006
14092TIP3    H142212   2.256   0.333   0.373  0.4150  0.1138 -0.0941
14092TIP3    H242213   2.287   0.282   0.512 -0.2475  0.2032  0.0905
14093TIP3   OH242214   1.180   2.892   0.441  0.1234  0.6108 -0.4469
14093TIP3    H142215   1.219   2.947   0.373  3.1083 -2.1277 -1.1053
14093TIP3    H242216   1.219   2.923   0.523  1.3567 -0.1040 -0.7481
14094TIP3   OH242217   4.164   6.142   6.403  0.4610  0.0926  0.1239
14094TIP3    H142218   4.202   6.194   6.474  1.5933 -0.5960  0.0372
14094TIP3    H242219   4.174   6.051   6.433  0.1561 -0.1577 -0.5311
14095TIP3   OH242220   6.106   7.436   0.347 -1.0234 -0.2511 -0.0614
14095TIP3    H142221   6.098   7.386   0.429  0.0596  0.2879  0.3833
14095TIP3    H242222   6.104   7.369   0.278 -0.0269 -0.8817  0.5089
14096TIP3   OH242223   3.091   4.407   6.853  0.5578 -0.1852 -0.1217
14096TIP3    H142224   3.175   4.441   6.822  1.1043  0.0837  1.5583
14096TIP3    H242225   3.027   4.470   6.823  1.2258  0.7505  0.3762
14097TIP3   OH242226   1.144   7.954   0.904  0.0356  0.0350 -0.0351
14097TIP3    H142227   1.063   8.003   0.890  0.2078  0.4401  0.3923
14097TIP3    H242228   1.208   7.998   0.849 -0.3479 -1.1375 -1.4781
14098TIP3   OH242229   4.627   7.106   0.054 -1.0678 -0.2468 -0.3557
14098TIP3    H142230   4.623   7.025   0.004  0.0067 -1.0209  0.8105
14098TIP3    H242231   4.542   7.112   0.098 -1.6400 -0.0637 -1.4704
14099TIP3   OH242232   3.319   3.051   0.217 -0.0680 -0.3439 -0.6604
14099TIP3    H142233   3.350   2.961   0.207 -1.2497 -0.6802 -1.4373
14099TIP3    H242234   3.229   3.041   0.249 -0.0672  0.5686 -0.3818
14100TIP3   OH242235   7.882   7.094   3.287 -0.6103 -0.2193 -0.3400
14100TIP3    H142236   7.835   7.125   3.210  1.2091  1.6883 -0.7167
14100TIP3    H242237   7.949   7.160   3.303 -0.1764 -1.2060  2.1638
14101TIP3   OH242238   1.340   1.418   2.180 -0.1324 -0.7657  0.0852
14101TIP3    H142239   1.266   1.374   2.223 -1.1809  1.8566  1.0636
14101TIP3    H242240   1.350   1.372   2.097 -2.7526 -1.3374  0.0340
14102TIP3   OH242241   6.226   7.860   0.288  0.2800  0.0159 -0.2249
14102TIP3    H142242   6.135   7.854   0.317 -0.0108 -0.4479 -1.2308
14102TIP3    H242243   6.271   7.789   0.333  0.8074  2.0721  2.6570
14103TIP3   OH242244   2.606   6.332   5.371  0.0460  0.0511  0.5458
14103TIP3    H142245   2.556   6.252   5.389  0.2727 -0.3999 -0.8097
14103TIP3    H242246   2.681   6.326   5.430 -1.2635  0.5354  2.3105
14104TIP3   OH242247   5.829   7.828   1.760  0.2538 -0.2719  0.0749
14104TIP3    H142248   5.882   7.863   1.832 -0.1041 -0.3533  0.3789
14104TIP3    H242249   5.817   7.902   1.700  0.1499 -0.0772  0.3350
14105TIP3   OH242250   1.789   0.020   1.909 -0.2452  0.5861  0.1821
14105TIP3    H142251   1.820   0.104   1.875  1.0890  0.3061  0.6832
14105TIP3    H242252   1.773   0.035   2.002  1.5434 -0.1103  0.6277
14106TIP3   OH242253   2.373   1.085   2.727  0.3741  0.7976  0.6891
14106TIP3    H142254   2.397   1.176   2.744 -0.8560  1.2847 -0.0969
14106TIP3    H242255   2.383   1.076   2.632 -0.5392  0.4208  0.6281
14107TIP3   OH242256   7.642   1.403   0.583  0.1131  0.6155 -0.4465
14107TIP3    H142257   7.606   1.456   0.653  0.2885  1.3996 -0.9425
14107TIP3    H242258   7.697   1.463   0.533 -0.1023  0.0998 -1.3190
14108TIP3   OH242259   7.727   7.875   1.672  0.4196  0.2077 -0.2945
14108TIP3    H142260   7.752   7.897   1.761 -1.4458 -1.5080  0.7116
14108TIP3    H242261   7.807   7.886   1.621  1.7754  0.2137  1.7640
14109TIP3   OH242262   1.198   0.971   1.330 -0.6097 -0.0651  0.1951
14109TIP3    H142263   1.294   0.967   1.331 -0.6078 -0.3705 -0.4817
14109TIP3    H242264   1.172   0.948   1.419 -0.0568 -0.1519  0.3378
14110TIP3   OH242265   4.217   3.993   6.883 -0.2579 -0.2912  0.1901
14110TIP3    H142266   4.200   4.081   6.918  0.9918  0.3168 -0.6802
14110TIP3    H242267   4.133   3.949   6.887 -0.6496  0.5646  1.7353
14111TIP3   OH242268   3.943   3.114   0.833  0.6905 -0.5492  0.2205
14111TIP3    H142269   3.959   3.186   0.894  0.9799 -0.3234 -0.1205
14111TIP3    H242270   3.993   3.137   0.755 -0.0701 -0.6069 -0.2866
14112TIP3   OH242271   7.974   0.911   0.910 -0.0232  0.2913 -0.0352
14112TIP3    H142272   7.925   0.897   0.828  1.8758  0.8580 -1.2927
14112TIP3    H242273   7.985   0.823   0.946  0.6661 -0.1497 -1.3041
14113TIP3   OH242274   5.315   6.376   6.608 -0.5092 -0.3369 -0.0526
14113TIP3    H142275   5.409   6.359   6.601 -0.4230  0.6830 -1.6603
14113TIP3    H242276   5.277   6.338   6.528 -1.1317  1.2727 -0.5572
14114TIP3   OH242277   2.792   3.171   0.635 -0.4549 -0.0400 -0.4679
14114TIP3    H142278   2.860   3.218   0.683 -1.6413 -0.3732  1.5564
14114TIP3    H242279   2.819   3.178   0.543  1.9267  0.4527  0.2310
14115TIP3   OH242280   6.572   3.831   5.940  0.7252  0.4118  0.0940
14115TIP3    H142281   6.519   3.841   6.019 -1.1115 -0.6681 -0.9599
14115TIP3    H242282   6.603   3.740   5.943  0.7271  0.3941 -0.3680
14116TIP3   OH242283   5.893   3.464   6.051  0.0751  0.8367  0.2210
14116TIP3    H142284   5.812   3.448   6.004 -0.0435  0.2953  0.6047
14116TIP3    H242285   5.935   3.536   6.003  0.5567 -0.5180 -1.4508
14117TIP3   OH242286   1.845   4.520   0.924 -0.0715  0.2262 -0.3887
14117TIP3    H142287   1.814   4.441   0.968 -0.9348  0.8370  0.1114
14117TIP3    H242288   1.766   4.575   0.915  0.4320  0.8358 -1.1296
14118TIP3   OH242289   6.235   6.411   6.030 -0.2492 -0.3223  0.0309
14118TIP3    H142290   6.207   6.502   6.017  2.6282  0.6718  0.2964
14118TIP3    H242291   6.292   6.415   6.107  1.0506 -2.0765 -0.8136
14119TIP3   OH242292   3.577   5.470   6.843  0.4088 -0.1410 -0.2307
14119TIP3    H142293   3.525   5.467   6.923 -1.4633  0.1472 -1.4282
14119TIP3    H242294   3.540   5.542   6.792  0.0797 -1.7708 -2.3760
14120TIP3   OH242295   1.853   0.257   0.955  0.1273 -0.4891 -0.1658
14120TIP3    H142296   1.828   0.309   1.031 -0.9621 -0.2147 -0.7062
14120TIP3    H242297   1.773   0.211   0.930  0.7184 -1.3083 -0.5708
14121TIP3   OH242298   6.701   6.252   1.175  0.3121 -0.2598 -0.3125
14121TIP3    H142299   6.734   6.167   1.205  0.9546  0.1300  0.1102
14121TIP3    H242300   6.606   6.239   1.165  0.4620 -1.1302 -0.6345
14122TIP3   OH242301   0.269   6.831   1.158 -0.0323 -0.2023  0.1925
14122TIP3    H142302   0.253   6.925   1.157  2.0568  0.1860 -1.0745
14122TIP3    H242303   0.241   6.802   1.071 -0.2106 -0.6577  0.4041
14123TIP3   OH242304   0.922   0.268   0.248 -0.6941 -0.2162 -0.5599
14123TIP3    H142305   0.950   0.286   0.338  0.9452 -1.1421 -0.8671
14123TIP3    H242306   0.841   0.218   0.257  0.3016 -1.6914  0.4523
14124TIP3   OH242307   7.070   4.327   6.681  0.3434 -0.1994 -0.2191
14124TIP3    H142308   6.990   4.375   6.660  0.4100  0.1662  0.3587
14124TIP3    H242309   7.139   4.393   6.676  0.1948  0.2289  2.5420
14125TIP3   OH242310   3.252   0.966   0.472 -0.2394 -0.4913  0.0020
14125TIP3    H142311   3.228   0.988   0.382 -1.3553 -2.2904 -0.1747
14125TIP3    H242312   3.325   1.024   0.493 -0.6048  0.6202 -1.7206
14126TIP3   OH242313   1.988   1.168   1.538  0.3877 -0.6778 -0.5370
14126TIP3    H142314   1.976   1.228   1.612  1.2879  0.0352 -0.9490
14126TIP3    H242315   1.973   1.222   1.461  2.6581 -0.5952 -0.9599
14127TIP3   OH242316   1.753   0.754   2.712  0.1160  0.6471  0.7329
14127TIP3    H142317   1.694   0.730   2.783 -1.3929 -0.1711 -0.7580
14127TIP3    H242318   1.818   0.683   2.709 -1.4127 -0.7232 -0.4499
14128TIP3   OH242319   2.351   1.492   1.350  0.2445 -0.2156 -0.4419
14128TIP3    H142320   2.299   1.425   1.305  0.3647 -0.5571 -0.0695
14128TIP3    H242321   2.441   1.460   1.345  0.3816  0.2230 -0.8080
14129TIP3   OH242322   1.654   1.253   0.992  0.4367 -0.1692 -0.0493
14129TIP3    H142323   1.617   1.328   0.944  0.1895  0.4384  1.0633
14129TIP3    H242324   1.748   1.268   0.992  0.3464  0.4595  0.6576
14130TIP3   OH242325   1.422   0.745   1.217  0.2858  0.0262  0.3079
14130TIP3    H142326   1.499   0.690   1.209 -0.3658 -0.8764  0.1129
14130TIP3    H242327   1.412   0.785   1.131  1.9042  2.0336  1.0066
14131TIP3   OH242328   8.419   0.471   0.659  0.0776  0.0155 -0.3357
14131TIP3    H142329   8.409   0.487   0.752 -1.7043  1.2182 -0.7092
14131TIP3    H242330   8.511   0.447   0.648 -0.1980 -2.2641  2.0158
14132TIP3   OH242331   0.782   0.582   1.514  0.2255 -0.2960  0.9579
14132TIP3    H142332   0.751   0.566   1.603 -0.4892 -1.2605  0.5460
14132TIP3    H242333   0.704   0.607   1.465  0.6251  0.3028  0.6186
14133TIP3   OH242334   5.411   2.936   5.865 -0.8727 -0.0666  0.0166
14133TIP3    H142335   5.384   3.010   5.919  2.4794 -0.1035  1.8414
14133TIP3    H242336   5.471   2.973   5.801 -0.8623 -0.8664 -0.4506
14134TIP3   OH242337   2.157   0.205   2.645 -0.1711  0.4646  0.3371
14134TIP3    H142338   2.086   0.249   2.691 -1.2364 -0.4681 -0.4165
14134TIP3    H242339   2.214   0.172   2.715 -1.5097 -0.4936  0.9859
14135TIP3   OH242340   4.691   5.372   5.834  0.4528  0.0152  0.6522
14135TIP3    H142341   4.617   5.432   5.843 -0.8722 -1.4035 -0.5960
14135TIP3    H242342   4.684   5.313   5.909  2.0378  1.6618  2.1528
14136TIP3   OH242343   3.322   2.472   2.062  0.3262  0.0245 -0.5089
14136TIP3    H142344   3.254   2.422   2.106 -0.1226 -0.3375 -1.5934
14136TIP3    H242345   3.383   2.405   2.029  1.3832  0.3577  0.7307
14137TIP3   OH242346   8.067   0.166   2.736 -0.4085 -0.3315  0.1931
14137TIP3    H142347   7.999   0.207   2.683 -0.0797 -2.5576 -2.0598
14137TIP3    H242348   8.149   0.186   2.691 -0.1995 -2.9290 -0.6623
14138TIP3   OH242349   1.868   2.247   2.589  0.1846 -0.0840  0.3273
14138TIP3    H142350   1.905   2.179   2.534 -0.9885 -1.0853  0.7390
14138TIP3    H242351   1.938   2.271   2.650  0.1712 -1.9577  1.1093
14139TIP3   OH242352   5.787   5.600   6.529  0.0411  0.5714 -0.4696
14139TIP3    H142353   5.777   5.535   6.459  0.5852  0.1775 -0.1823
14139TIP3    H242354   5.714   5.582   6.589 -0.0420  0.4888 -0.5961
14140TIP3   OH242355   2.604   1.978   0.536  0.4561  0.3076  0.1901
14140TIP3    H142356   2.510   1.974   0.556  0.2820  0.8214 -0.4855
14140TIP3    H242357   2.623   2.071   0.532  1.8568  0.2709  4.0879
14141TIP3   OH242358   8.187   7.460   0.186  0.2190  0.2085  0.0382
14141TIP3    H142359   8.226   7.377   0.212  0.7401  0.0016 -1.3437
14141TIP3    H242360   8.261   7.511   0.152 -0.5094  0.2691 -1.4907
14142TIP3   OH242361   2.186   1.458   0.890  0.2540  0.0388 -0.0136
14142TIP3    H142362   2.255   1.507   0.845 -0.2482  1.7798  1.0758
14142TIP3    H242363   2.231   1.416   0.963  0.5376 -0.5160 -0.5007
14143TIP3   OH242364   7.223   5.148   6.570 -0.0188  0.1049 -0.1227
14143TIP3    H142365   7.289   5.160   6.638 -0.2829  0.2600  0.1100
14143TIP3    H242366   7.220   5.053   6.556  0.7579  0.1597 -0.6436
14144TIP3   OH242367   4.606   3.522   6.521  0.0825 -0.9002  0.2683
14144TIP3    H142368   4.670   3.464   6.564  2.1614  0.8435 -0.3731
14144TIP3    H242369   4.656   3.565   6.452 -1.4798  1.4128  0.5319
14145TIP3   OH242370   4.528   3.370   5.844  0.3703 -0.1861 -0.1297
14145TIP3    H142371   4.601   3.309   5.831  0.8690  0.4233 -0.1647
14145TIP3    H242372   4.509   3.363   5.938 -0.0738 -0.9580 -0.2665
14146TIP3   OH242373   2.876   0.403   0.338  0.8675  0.2245 -0.1580
14146TIP3    H142374   2.781   0.394   0.334  0.7904  1.3076 -1.9289
14146TIP3    H242375   2.908   0.349   0.265  1.6188 -0.2658  0.5322
14147TIP3   OH242376   4.078   4.808   6.521 -0.1930 -0.4178 -0.4808
14147TIP3    H142377   4.170   4.803   6.546 -0.5063  0.5586  0.9057
14147TIP3    H242378   4.030   4.791   6.601 -1.2265  0.2811 -0.9448
14148TIP3   OH242379   3.500   2.155   0.055 -0.4242 -0.4394  0.0350
14148TIP3    H142380   3.575   2.128   0.109  0.6070  1.9317 -0.1287
14148TIP3    H242381   3.529   2.141  -0.035 -0.3193  0.0998 -0.0174
14149TIP3   OH242382  -0.004   7.044   0.500  0.4337  0.3745  0.6429
14149TIP3    H142383   0.082   7.013   0.526  0.2974  0.7800  1.5632
14149TIP3    H242384  -0.016   7.008   0.412  2.1899  1.6405 -0.1343
14150TIP3   OH242385   0.600   1.207   0.231 -0.2299 -0.1546 -0.5672
14150TIP3    H142386   0.506   1.196   0.217 -0.6637 -1.5068  2.9054
14150TIP3    H242387   0.628   1.127   0.274  1.7828  1.7220  1.8052
14151TIP3   OH242388   5.328   5.250   6.906 -1.2199 -0.6365 -0.3347
14151TIP3    H142389   5.377   5.241   6.824 -1.1120 -0.6761 -0.2663
14151TIP3    H242390   5.331   5.163   6.945  0.0386 -0.2674  0.4451
14152TIP3   OH242391   3.427   1.704   1.380  0.6404 -0.1306  0.2274
14152TIP3    H142392   3.339   1.734   1.404  0.6547  0.0136  0.1034
14152TIP3    H242393   3.414   1.650   1.302  0.6440 -0.2320  0.2979
14153TIP3   OH242394   8.111   1.530   0.562  0.5052 -0.5194  0.0326
14153TIP3    H142395   8.206   1.539   0.570  0.3913  0.2054  0.6448
14153TIP3    H242396   8.096   1.435   0.563  1.1941 -0.6303  0.3130
14154TIP3   OH242397   3.228   1.724   0.310 -0.3297  0.0449 -0.6308
14154TIP3    H142398   3.234   1.740   0.404 -0.6463  1.8071 -0.8914
14154TIP3    H242399   3.197   1.634   0.302  2.0892 -0.9722  0.9232
14155TIP3   OH242400   3.484   3.435   6.920  0.2971  0.0938 -0.4437
14155TIP3    H142401   3.445   3.347   6.925  2.6245 -0.9826 -0.4820
14155TIP3    H242402   3.574   3.419   6.893  0.4113  2.6124 -1.6558
14156TIP3   OH242403   7.014   7.815   2.474  0.1463 -0.0078 -0.0182
14156TIP3    H142404   6.941   7.831   2.414  0.4800 -3.9410 -1.6424
14156TIP3    H242405   7.091   7.816   2.418  0.6122 -2.3623  0.5499
14157TIP3   OH242406   2.219   1.884   1.034  0.2134 -0.0841  0.3253
14157TIP3    H142407   2.166   1.850   1.107 -0.4015  0.7698  0.2788
14157TIP3    H242408   2.178   1.848   0.956 -0.7780  1.1873  0.2407
14158TIP3   OH242409   8.173   7.972   0.516 -0.6141  0.0790  0.0346
14158TIP3    H142410   8.253   7.920   0.502 -0.1888  0.4955  0.8474
14158TIP3    H242411   8.200   8.041   0.577 -1.9887 -0.7619  1.6599
14159TIP3   OH242412   4.076   2.526   2.287  0.5063  0.2122  0.2382
14159TIP3    H142413   4.128   2.538   2.208 -2.2873  2.0911 -1.4096
14159TIP3    H242414   4.025   2.447   2.271 -1.1588  1.4078 -0.5329
14160TIP3   OH242415   6.166   7.267   1.059 -0.0817 -0.0895 -0.1235
14160TIP3    H142416   6.118   7.342   1.095 -1.6798 -1.2124  0.1192
14160TIP3    H242417   6.227   7.306   0.997  0.5036  1.5889  1.4641
14161TIP3   OH242418   0.838   3.735   0.239 -0.1210 -0.0811 -0.3338
14161TIP3    H142419   0.876   3.821   0.224  1.2315 -0.7078 -0.6150
14161TIP3    H242420   0.806   3.707   0.152  1.0522 -0.6023 -0.6090
14162TIP3   OH242421   3.540   3.632   1.112 -0.1446 -0.1201 -1.0022
14162TIP3    H142422   3.502   3.708   1.155 -0.4803 -1.4625  1.1312
14162TIP3    H242423   3.633   3.653   1.104 -0.0027 -0.0316  0.7931
14163TIP3   OH242424   3.985   3.526   2.990  0.0378 -0.4102 -0.1347
14163TIP3    H142425   3.963   3.489   3.075 -2.1634 -1.3889 -1.0833
14163TIP3    H242426   4.062   3.477   2.961  1.6948  0.9293  1.8953
14164TIP3   OH242427   3.897   2.966   2.509  0.0045  0.4889 -0.3287
14164TIP3    H142428   3.957   2.936   2.440 -0.5933  1.9713 -1.5112
14164TIP3    H242429   3.916   3.059   2.519 -1.1052  0.6524  0.3166
14165TIP3   OH242430   2.507   2.071   0.283  0.7306  0.3298  0.0822
14165TIP3    H142431   2.518   2.035   0.371 -0.8230 -0.0225  0.1447
14165TIP3    H242432   2.563   2.017   0.228  2.0585  0.8311  0.9090
14166TIP3   OH242433   1.881   1.139   0.441 -0.0410 -0.3534  0.0207
14166TIP3    H142434   1.835   1.148   0.524  1.0306  0.0445  0.5853
14166TIP3    H242435   1.910   1.047   0.440  1.3056  0.0484  0.8265
14167TIP3   OH242436   1.118   2.480   1.874 -0.6100  0.6831  0.4330
14167TIP3    H142437   1.098   2.455   1.784 -1.2273  2.4602  0.0655
14167TIP3    H242438   1.034   2.504   1.912  0.0263  2.8196  0.5726
14168TIP3   OH242439   3.197   2.416   1.574 -0.1751  0.2233  0.0521
14168TIP3    H142440   3.214   2.350   1.642 -0.6856 -1.0110 -0.9920
14168TIP3    H242441   3.138   2.478   1.616 -0.0016 -0.1964  0.9359
14169TIP3   OH242442   3.091   2.008   0.683  0.5666  0.0178 -0.0035
14169TIP3    H142443   3.174   2.037   0.722 -0.0642  1.6105  0.1735
14169TIP3    H242444   3.050   2.088   0.652  0.2662 -1.0653 -2.4470
14170TIP3   OH242445   3.953   1.217   1.093  0.1539 -0.2353  0.0881
14170TIP3    H142446   3.927   1.168   1.171  1.4330  0.3634  0.9123
14170TIP3    H242447   4.026   1.167   1.056  0.6169  0.3366  0.2075
14171TIP3   OH242448   5.045   0.946   0.575  0.1550  0.5107  0.5895
14171TIP3    H142449   5.012   1.025   0.531 -1.4004  0.9141  2.3943
14171TIP3    H242450   5.055   0.882   0.505  4.1894  3.0932 -1.4043
14172TIP3   OH242451   1.697   1.195   1.934  0.2410 -0.6743 -0.5548
14172TIP3    H142452   1.710   1.153   1.850  0.4073  1.5656 -1.6727
14172TIP3    H242453   1.649   1.275   1.914  1.2027  0.4217  1.3507
14173TIP3   OH242454   8.106   1.014   0.461  0.0187 -0.2177  0.3116
14173TIP3    H142455   8.075   1.083   0.519  0.9181  0.0074  0.5327
14173TIP3    H242456   8.111   1.056   0.375 -0.1284 -0.2134  0.3038
14174TIP3   OH242457   4.481   1.563   0.624 -0.0919  0.5612  0.0944
14174TIP3    H142458   4.487   1.562   0.528 -0.4967 -0.7719  0.0760
14174TIP3    H242459   4.434   1.482   0.646 -0.7926  1.2944  1.3670
14175TIP3   OH242460   0.988   1.241   1.029 -0.1756  0.3736  0.1304
14175TIP3    H142461   1.055   1.300   1.064  0.1546 -0.0516  0.2084
14175TIP3    H242462   0.955   1.287   0.951  1.3957 -0.1954 -0.8899
14176TIP3   OH242463   4.507   4.380   1.204 -0.1815  0.1453  0.1518
14176TIP3    H142464   4.477   4.455   1.255  0.7577  1.2310 -0.8768
14176TIP3    H242465   4.589   4.355   1.246  0.0709  0.3987 -0.1874
14177TIP3   OH242466   4.982   4.665   6.819 -0.0209 -0.0960 -0.3909
14177TIP3    H142467   5.009   4.610   6.893 -1.7346 -0.1215  0.2453
14177TIP3    H242468   4.917   4.613   6.773  1.1099 -0.1229 -2.0131
14178TIP3   OH242469   3.746   0.681   0.377 -0.7598  1.2032  0.3981
14178TIP3    H142470   3.708   0.605   0.335  1.0142  1.1914 -1.2484
14178TIP3    H242471   3.841   0.665   0.374 -0.3728  3.3760  0.1683
14179TIP3   OH242472   2.861   5.023   6.900  0.3732  0.3584  0.0923
14179TIP3    H142473   2.823   5.052   6.983  0.9714  2.1766 -0.2475
14179TIP3    H242474   2.873   4.928   6.911 -1.2336  0.2931  1.3894
14180TIP3   OH242475   5.373   6.648   6.684  0.2133  0.0772 -0.0051
14180TIP3    H142476   5.324   6.565   6.686  1.3123 -0.5836 -0.5224
14180TIP3    H242477   5.422   6.648   6.766  0.0266  0.3450  0.1099
14181TIP3   OH242478   6.747   7.387   0.014  0.9156 -0.1466  0.3974
14181TIP3    H142479   6.822   7.352   0.062  1.3126 -0.8041 -0.6905
14181TIP3    H242480   6.759   7.482   0.018  3.0600 -0.2950 -1.7105
14182TIP3   OH242481   1.018   0.993   1.138 -0.1722  0.2906 -0.4672
14182TIP3    H142482   1.095   0.975   1.193 -0.4293 -0.0433 -0.2190
14182TIP3    H242483   1.024   1.087   1.120  0.1317  0.3264 -0.1995
14183TIP3   OH242484   3.675   3.936   5.698  0.1784 -0.6275 -0.8530
14183TIP3    H142485   3.583   3.916   5.715 -0.0048  0.5404 -0.4380
14183TIP3    H242486   3.722   3.894   5.769 -0.0336 -1.2123 -1.0556
14184TIP3   OH242487   3.877   2.219   0.119  0.3302 -0.0651 -0.5054
14184TIP3    H142488   3.823   2.140   0.114  1.2044 -0.7171  0.2990
14184TIP3    H242489   3.863   2.253   0.208 -1.3212  1.6152 -1.3647
14185TIP3   OH242490   3.800   5.774   6.603  0.0409 -0.3541  0.0802
14185TIP3    H142491   3.888   5.766   6.568 -0.4196 -0.7809 -1.0012
14185TIP3    H242492   3.776   5.685   6.628  1.2864  0.2824  3.7987
14186TIP3   OH242493   8.486   4.827   6.541 -0.3952  0.3326 -0.2151
14186TIP3    H142494   8.430   4.875   6.480 -0.9941  0.7809  0.6846
14186TIP3    H242495   8.455   4.852   6.628  1.0834  0.4558  0.2993
14187TIP3   OH242496   6.509   4.811   6.408 -0.0650 -0.0315 -0.8803
14187TIP3    H142497   6.477   4.901   6.400  0.2194  0.0155 -1.5463
14187TIP3    H242498   6.520   4.782   6.317  0.9719 -0.3349 -0.6551
14188TIP3   OH242499   4.368   1.327   1.051  0.5746  0.6298  0.0477
14188TIP3    H142500   4.301   1.272   1.010 -0.6757  3.4067 -1.7810
14188TIP3    H242501   4.445   1.271   1.056 -0.8520 -1.5075 -1.0896
14189TIP3   OH242502   7.547   5.881   5.819 -0.6775  0.2230  0.1081
14189TIP3    H142503   7.512   5.839   5.741  0.2361  0.6970 -0.5645
14189TIP3    H242504   7.642   5.872   5.811 -0.4696  2.1145  0.1066
14190TIP3   OH242505   5.154   1.412  -0.023  0.0799 -0.6136  0.0777
14190TIP3    H142506   5.244   1.390  -0.002 -0.6718 -1.6546  2.3501
14190TIP3    H242507   5.132   1.483   0.038 -0.0561  0.9771 -1.7689
14191TIP3   OH242508   2.398   3.177   1.372 -0.3019  0.2406  0.0437
14191TIP3    H142509   2.471   3.239   1.376 -0.9450  0.9509  1.2404
14191TIP3    H242510   2.360   3.180   1.459 -1.8133 -0.0530 -0.5919
14192TIP3   OH242511   6.532   5.493   6.330  0.0316 -0.1329  0.1433
14192TIP3    H142512   6.626   5.510   6.318  0.1686  0.2507  1.7086
14192TIP3    H242513   6.527   5.397   6.335  0.0548 -0.2787 -2.1214
14193TIP3   OH242514   2.497   7.954   0.857  0.1543  0.1935 -0.2518
14193TIP3    H142515   2.429   7.997   0.907 -0.1474  0.2417 -0.6996
14193TIP3    H242516   2.513   7.872   0.904 -0.5809 -0.0584 -0.4322
14194TIP3   OH242517   3.894   1.745   1.119  0.4735  0.1980 -0.0655
14194TIP3    H142518   3.817   1.690   1.136 -0.2222  0.9020 -0.9139
14194TIP3    H242519   3.958   1.684   1.082 -0.2178 -0.0921 -0.7999
14195TIP3   OH242520   5.324   2.314   0.275  0.2357  0.2779  0.6734
14195TIP3    H142521   5.418   2.308   0.261 -0.1180 -1.0262 -1.3631
14195TIP3    H242522   5.315   2.350   0.364  2.6218  0.9064  0.6921
14196TIP3   OH242523   6.936   3.951   6.929 -0.2852  0.2816 -0.1091
14196TIP3    H142524   7.017   3.906   6.953  0.4371  1.4792 -0.2585
14196TIP3    H242525   6.890   3.889   6.873 -0.1557 -0.9898  1.1669
14197TIP3   OH242526   3.600   1.268   0.719 -0.3517 -0.2669  0.2611
14197TIP3    H142527   3.665   1.257   0.788  0.0169 -1.0915 -0.2007
14197TIP3    H242528   3.587   1.362   0.713 -0.2185 -0.1769  1.2930
14198TIP3   OH242529   8.486   7.696   1.117 -0.1769 -0.2363  0.0904
14198TIP3    H142530   8.409   7.744   1.149 -0.6512  0.4889 -2.0150
14198TIP3    H242531   8.458   7.605   1.115 -1.4681  0.1610 -1.8538
14199TIP3   OH242532   1.970   0.127   1.571  0.2597  0.1405  0.5339
14199TIP3    H142533   1.954   0.038   1.602  0.2345 -0.5339 -1.3467
14199TIP3    H242534   1.946   0.183   1.644 -1.2333 -1.3254  1.1844
14200TIP3   OH242535   0.178   4.869   5.928 -0.2440  0.1734  0.3350
14200TIP3    H142536   0.168   4.935   5.996  0.0349 -0.1196  0.6663
14200TIP3    H242537   0.124   4.900   5.855 -0.1557  0.7363  0.5065
14201TIP3   OH242538   1.075   3.964   6.154 -0.3357  0.3233  0.1680
14201TIP3    H142539   1.164   3.971   6.120 -1.0861  2.2136 -1.5582
14201TIP3    H242540   1.021   4.009   6.088 -2.3490  0.7185  2.0298
14202TIP3   OH242541   0.711   7.697   0.165  0.1687 -0.3312 -0.3095
14202TIP3    H142542   0.620   7.670   0.152  0.2950 -0.7409 -0.3375
14202TIP3    H242543   0.721   7.776   0.111  0.0967 -0.8167 -1.0287
14203TIP3   OH242544   5.389   5.382   5.016 -0.1589 -0.2624 -0.6319
14203TIP3    H142545   5.311   5.394   4.962  1.0833  2.9766 -1.7964
14203TIP3    H242546   5.432   5.305   4.979 -2.1792 -1.3997 -0.6860
14204TIP3   OH242547   4.823   0.476   2.192  0.1496  0.2976 -0.2227
14204TIP3    H142548   4.800   0.541   2.258  0.7058  0.9022 -0.6175
14204TIP3    H242549   4.756   0.485   2.125  2.4868  3.3873 -2.3040
14205TIP3   OH242550   5.832   3.984   6.370 -0.0342  0.2315 -0.3810
14205TIP3    H142551   5.860   3.924   6.439 -2.7832  1.1606  1.6726
14205TIP3    H242552   5.756   3.941   6.330  0.5475  0.4468 -1.7494
14206TIP3   OH242553   4.809   1.273   0.763 -0.0737  0.3631 -0.3447
14206TIP3    H142554   4.884   1.320   0.725  0.5699 -1.1847 -1.0239
14206TIP3    H242555   4.839   1.247   0.850 -1.0740  2.7462  0.7519
14207TIP3   OH242556   5.784   0.958   1.244  0.3884 -0.1551 -0.0464
14207TIP3    H142557   5.696   0.963   1.207  0.5344  1.4196 -0.2125
14207TIP3    H242558   5.824   0.883   1.200 -1.2489 -1.5913  0.8744
14208TIP3   OH242559   7.186   4.573   6.728 -0.2785 -0.1212  0.6280
14208TIP3    H142560   7.117   4.562   6.794 -2.3621  1.5606 -1.1783
14208TIP3    H242561   7.249   4.633   6.768  0.0289 -1.4629  2.1957
14209TIP3   OH242562   2.510   1.031   0.840 -0.8863 -0.1270  0.1925
14209TIP3    H142563   2.590   1.076   0.866 -0.3628 -0.5302 -0.6619
14209TIP3    H242564   2.439   1.082   0.878 -0.3394  1.7992 -1.3082
14210TIP3   OH242565   7.032   5.933   6.092 -0.8755 -0.1653  0.6599
14210TIP3    H142566   7.022   6.028   6.089 -1.0883 -0.1572  1.5961
14210TIP3    H242567   7.032   5.906   6.000 -2.2786  0.5827  0.4221
14211TIP3   OH242568   4.506   2.066   0.723 -0.0169 -0.2700 -0.6751
14211TIP3    H142569   4.477   2.104   0.640 -0.4232  0.5343 -0.1731
14211TIP3    H242570   4.464   1.980   0.726 -0.8072  0.1079 -0.8346
14212TIP3   OH242571   6.106   3.925   3.390  0.0571 -0.0971 -0.4288
14212TIP3    H142572   6.107   4.003   3.446 -0.6454 -0.1591 -0.3188
14212TIP3    H242573   6.182   3.874   3.418 -0.1740 -0.0333  0.3396
14213TIP3   OH242574   6.422   0.837   0.918 -0.3115  0.5857 -0.0024
14213TIP3    H142575   6.331   0.849   0.946  0.1657  3.1794  0.5393
14213TIP3    H242576   6.464   0.921   0.936  1.7417  0.0308 -2.0358
14214TIP3   OH242577   8.489   5.925   6.706  0.0717  0.5796  0.0966
14214TIP3    H142578   8.410   5.900   6.658  0.6664  1.3221 -1.2908
14214TIP3    H242579   8.560   5.880   6.660  0.6084  0.9841  0.5280
14215TIP3   OH242580   8.211   3.950   6.647 -0.0874  0.6984 -0.4936
14215TIP3    H142581   8.297   3.957   6.606  0.2562  0.8523  0.2510
14215TIP3    H242582   8.157   3.905   6.582  1.0290 -1.0067 -0.2884
14216TIP3   OH242583   6.936   3.196   5.700 -0.2869  0.1989  0.1671
14216TIP3    H142584   6.912   3.126   5.639  1.6843 -0.9410  0.6377
14216TIP3    H242585   6.959   3.270   5.644  0.2657 -0.4264 -0.4452
14217TIP3   OH242586   0.855   4.663   6.752  0.4970 -0.1526 -0.4414
14217TIP3    H142587   0.768   4.694   6.777  0.6543  0.6591 -0.8910
14217TIP3    H242588   0.900   4.741   6.721  1.5547 -0.4831  0.2503
14218TIP3   OH242589   5.859   1.931   0.815  0.5040  0.1601  0.0080
14218TIP3    H142590   5.812   1.888   0.744 -0.8036  0.3569  0.7500
14218TIP3    H242591   5.937   1.877   0.828 -0.3484 -1.1015 -0.1030
14219TIP3   OH242592   4.152   0.731   0.664  0.3027 -0.2592  0.0039
14219TIP3    H142593   4.080   0.672   0.643  1.2986 -1.5703  0.1468
14219TIP3    H242594   4.143   0.804   0.604 -1.4737 -0.1332  0.4145
14220TIP3   OH242595   6.248   6.692   6.189  0.6388 -0.2557 -0.4354
14220TIP3    H142596   6.206   6.631   6.250  1.7123 -1.0379 -0.4590
14220TIP3    H242597   6.288   6.758   6.244 -0.9223  0.6958 -0.4264
14221TIP3   OH242598   1.760   3.915   0.198  0.5742  0.7267 -0.0881
14221TIP3    H142599   1.721   3.995   0.163 -0.5913  0.4984  0.6197
14221TIP3    H242600   1.684   3.858   0.216  1.3310 -0.2070  0.1793
14222TIP3   OH242601   5.728   6.522   6.068 -0.2651 -0.1743  0.0272
14222TIP3    H142602   5.649   6.501   6.018  0.7171 -0.2733 -1.5036
14222TIP3    H242603   5.781   6.442   6.062  0.4902  0.3309 -0.0164
14223TIP3   OH242604   5.996   6.264   6.457 -0.0002 -0.3292 -0.0363
14223TIP3    H142605   6.089   6.281   6.472  0.6691 -3.0713 -0.9037
14223TIP3    H242606   5.976   6.188   6.512 -1.4721 -0.3947 -0.6313
14224TIP3   OH242607   1.872   7.097   1.278  0.7194  0.1117  0.7703
14224TIP3    H142608   1.883   7.006   1.252 -3.0227 -0.6684  1.7109
14224TIP3    H242609   1.843   7.141   1.198 -1.3628 -0.3644  1.2330
14225TIP3   OH242610   1.194   6.896   2.440  0.1585  0.1577  0.3632
14225TIP3    H142611   1.102   6.876   2.457 -0.2464 -0.3688 -2.2754
14225TIP3    H242612   1.201   6.990   2.459 -0.4384 -0.1739  2.4154
14226TIP3   OH242613   6.111   2.531   5.142  0.6472 -0.1365 -0.7476
14226TIP3    H142614   6.172   2.494   5.205  0.7244 -1.1061 -1.3793
14226TIP3    H242615   6.166   2.581   5.082  0.9003 -1.4977 -1.6646
14227TIP3   OH242616   5.703   4.181   6.805 -0.2009  0.0138  0.5992
14227TIP3    H142617   5.688   4.087   6.789  0.1329  0.1589 -0.6227
14227TIP3    H242618   5.617   4.215   6.830  0.0775 -0.9992  3.0666
14228TIP3   OH242619   0.521   5.296   6.789  0.4767  0.0372 -0.1196
14228TIP3    H142620   0.529   5.389   6.808  4.0971 -0.0463 -0.9578
14228TIP3    H242621   0.520   5.254   6.875 -0.7710  0.7762  0.2437
14229TIP3   OH242622   0.225   7.858   0.188  0.2024 -0.2287  0.1897
14229TIP3    H142623   0.296   7.798   0.168 -0.5763 -0.9357 -0.5027
14229TIP3    H242624   0.255   7.943   0.156 -0.5231 -1.1094 -3.0261
14230TIP3   OH242625   2.147   6.725   0.575  1.0192  0.0023  0.1724
14230TIP3    H142626   2.180   6.681   0.653 -0.7609 -2.0726 -0.1866
14230TIP3    H242627   2.124   6.813   0.604 -1.1401 -1.2248  2.4238
14231TIP3   OH242628   5.400   0.841   0.514  0.3732 -0.1000 -0.4195
14231TIP3    H142629   5.465   0.771   0.512  0.9563  0.4252  0.0800
14231TIP3    H242630   5.318   0.799   0.488  1.1986 -0.4560 -2.5122
14232TIP3   OH242631   5.070  -0.031   1.024 -0.3835 -0.5014  0.2239
14232TIP3    H142632   5.067   0.051   1.074  0.6899  0.1897 -0.8271
14232TIP3    H242633   5.012  -0.015   0.949 -0.4326 -0.8328  0.1897
14233TIP3   OH242634   5.642   5.356   5.287 -0.5242  0.9532  0.2504
14233TIP3    H142635   5.613   5.355   5.378 -1.4402  0.8382 -0.0341
14233TIP3    H242636   5.737   5.345   5.291 -0.8536 -1.9875  1.0690
14234TIP3   OH242637   4.735   0.139   1.481 -0.3421  0.2800  0.2049
14234TIP3    H142638   4.773   0.090   1.554 -1.4801 -1.0197 -0.0534
14234TIP3    H242639   4.722   0.073   1.413 -0.9149  1.1569 -0.5283
14235TIP3   OH242640   4.368   0.489   1.100  0.3600  0.2382  0.2509
14235TIP3    H142641   4.379   0.397   1.123  1.7471  0.3952  0.2634
14235TIP3    H242642   4.422   0.536   1.164  1.3531  0.9133 -1.0676
14236TIP3   OH242643   3.098   7.072   2.164  0.4629  0.2764  0.2631
14236TIP3    H142644   3.077   7.099   2.075  0.7303  0.2863  0.2016
14236TIP3    H242645   3.161   7.000   2.153 -1.5437 -1.5262  0.3900
14237TIP3   OH242646   3.513   3.148   0.023 -0.1521  0.4942 -0.0510
14237TIP3    H142647   3.449   3.150   0.095  0.9392  0.5699  0.9275
14237TIP3    H242648   3.596   3.173   0.064  0.8360 -1.2116 -0.9576
14238TIP3   OH242649   4.018   5.229   5.476 -0.5549 -0.1125  0.0298
14238TIP3    H142650   4.010   5.303   5.536  0.2641 -0.5081  0.6372
14238TIP3    H242651   4.102   5.188   5.499 -1.0159 -1.2458 -0.2682
14239TIP3   OH242652   2.255   7.980   3.402  0.4295  0.1931 -0.5748
14239TIP3    H142653   2.211   7.929   3.469  1.3324  1.1814  0.8143
14239TIP3    H242654   2.323   7.922   3.368 -0.8556 -0.7549 -1.5573
14240TIP3   OH242655   6.686   5.108   5.873  1.0092  0.1382 -0.0419
14240TIP3    H142656   6.739   5.031   5.896 -1.3747 -1.5137  0.0116
14240TIP3    H242657   6.596   5.079   5.883  0.0632  2.9921  0.0510
14241TIP3   OH242658   6.246   0.932   0.419 -0.9085 -0.3754 -0.5084
14241TIP3    H142659   6.316   0.923   0.354  0.0160 -1.4502  0.6097
14241TIP3    H242660   6.172   0.969   0.370 -0.1549 -0.9468 -2.1059
14242TIP3   OH242661   5.489   1.997   1.746  0.0419  0.1808  0.5852
14242TIP3    H142662   5.459   2.083   1.778  2.4350  0.5360  2.0106
14242TIP3    H242663   5.584   2.005   1.743  0.2821 -2.4365  0.6808
14243TIP3   OH242664   3.545   7.853   2.128 -0.1766 -0.3914  0.3770
14243TIP3    H142665   3.640   7.850   2.127 -0.1508  0.0674  1.0676
14243TIP3    H242666   3.521   7.882   2.040  0.4332  1.8974  0.9265
14244TIP3   OH242667   6.264   5.168   6.011 -0.2578  0.9475  0.5125
14244TIP3    H142668   6.324   5.119   5.954 -1.0325  1.5181 -0.8206
14244TIP3    H242669   6.204   5.102   6.045  0.4721  0.5362  1.0219
14245TIP3   OH242670   0.748   7.409   1.123  0.0302  0.0848  0.7001
14245TIP3    H142671   0.694   7.487   1.138 -0.9457 -0.1582 -1.4415
14245TIP3    H242672   0.692   7.351   1.072  0.7356 -2.0650  2.3149
14246TIP3   OH242673   6.286   0.002   1.605  0.3193  0.1600  0.4073
14246TIP3    H142674   6.316   0.091   1.588 -0.6360  0.4293  0.0915
14246TIP3    H242675   6.191   0.006   1.596  0.3119 -1.0215 -0.2450
14247TIP3   OH242676   7.834   5.059   6.517 -0.3692  0.1801 -0.0190
14247TIP3    H142677   7.913   5.097   6.554  0.8840 -1.1999 -1.2279
14247TIP3    H242678   7.766   5.123   6.535  0.8979  1.1103  1.5642
14248TIP3   OH242679   6.285   4.591   4.884  0.8453 -0.6613 -0.1952
14248TIP3    H142680   6.291   4.609   4.790 -0.4597  0.2104 -0.1329
14248TIP3    H242681   6.198   4.623   4.908  0.5231 -2.4135  0.9835
14249TIP3   OH242682   4.308   3.439   1.520 -0.4940  0.2687 -0.1654
14249TIP3    H142683   4.225   3.487   1.520 -0.9456 -0.4277 -2.5260
14249TIP3    H242684   4.282   3.347   1.523  0.2555  0.0860  0.9231
14250TIP3   OH242685   0.595   4.556   6.144  0.0212  0.1874  0.0821
14250TIP3    H142686   0.608   4.528   6.054 -0.0949  0.2099  0.0577
14250TIP3    H242687   0.500   4.567   6.152 -0.3437 -3.1560  1.1845
14251TIP3   OH242688   7.176   4.626   5.741 -0.0853 -0.2385 -0.1765
14251TIP3    H142689   7.176   4.531   5.734 -0.4932 -0.2383 -0.1845
14251TIP3    H242690   7.085   4.651   5.731 -0.0828  0.0968  0.6040
14252TIP3   OH242691   6.086   5.643   5.851  0.0321 -0.2107  0.0522
14252TIP3    H142692   6.024   5.589   5.901 -0.3222  0.0724 -0.0734
14252TIP3    H242693   6.172   5.607   5.872 -0.3511 -2.3795 -1.8877
14253TIP3   OH242694   4.853   6.478   5.880  0.7610  0.2244  0.2414
14253TIP3    H142695   4.808   6.397   5.857  1.1914 -0.2405  1.0196
14253TIP3    H242696   4.936   6.450   5.919  1.4680  1.0606 -0.6354
14254TIP3   OH242697   8.415   4.926   6.791  0.4518 -0.0805  0.2388
14254TIP3    H142698   8.427   5.015   6.822 -0.2260  0.1686 -0.2043
14254TIP3    H242699   8.475   4.874   6.844  1.3480  0.7278  0.0201
14255TIP3   OH242700   4.507   2.300   1.643  0.1379  0.4773  0.0849
14255TIP3    H142701   4.563   2.368   1.605  0.4549 -0.0360 -0.3732
14255TIP3    H242702   4.439   2.285   1.577  0.4695 -0.1434 -0.1220
14256TIP3   OH242703   0.269   3.173   4.722  0.1136  0.2301  0.4684
14256TIP3    H142704   0.323   3.252   4.718  0.3235  0.0799  0.3396
14256TIP3    H242705   0.330   3.101   4.704 -0.2425  0.1098 -0.2568
14257TIP3   OH242706   7.350   4.805   5.835 -0.1199 -0.8274 -0.2386
14257TIP3    H142707   7.285   4.751   5.791 -0.7725  1.1109 -1.7461
14257TIP3    H242708   7.424   4.806   5.775  0.3293 -0.9590  0.3094
14258TIP3   OH242709   4.753   1.755   2.350  0.5979  0.4473  0.2532
14258TIP3    H142710   4.762   1.806   2.430  1.9761  0.2874  0.2193
14258TIP3    H242711   4.726   1.668   2.379  1.5288  0.2623  0.5988
14259TIP3   OH242712   3.103   7.998   1.520 -0.0349  0.0228  0.3276
14259TIP3    H142713   3.071   7.927   1.576 -0.1543  0.0012  0.2326
14259TIP3    H242714   3.027   8.053   1.505  0.1078  0.2848  0.5725
14260TIP3   OH242715   3.268   1.044   2.594 -0.0303 -0.2180  0.0073
14260TIP3    H142716   3.275   0.958   2.552  0.6140 -1.2812  2.2633
14260TIP3    H242717   3.175   1.051   2.618 -0.2976  0.1813 -1.1011
14261TIP3   OH242718   6.176   5.062   5.655 -0.5348  0.1753  0.1101
14261TIP3    H142719   6.102   5.021   5.611 -0.5319  0.2568  0.0294
14261TIP3    H242720   6.137   5.126   5.715 -0.4680  1.3968 -1.1336
14262TIP3   OH242721   0.989   5.364   6.685 -0.1654  0.2064  0.6736
14262TIP3    H142722   1.073   5.360   6.731  0.1782  1.7976  0.2023
14262TIP3    H242723   1.013   5.366   6.592 -0.7586 -0.3173  0.5095
14263TIP3   OH242724   4.436   4.620   6.244  0.2317 -0.2624  0.2361
14263TIP3    H142725   4.436   4.715   6.251  1.1267 -0.2310 -0.1464
14263TIP3    H242726   4.516   4.599   6.195  0.1571 -1.2208  0.5072
14264TIP3   OH242727   7.310   3.771   5.179 -0.3651  0.4424  0.0694
14264TIP3    H142728   7.262   3.853   5.174 -0.5583  0.3868  0.9282
14264TIP3    H242729   7.336   3.764   5.271 -3.4190 -2.1677  0.8285
14265TIP3   OH242730   4.686   1.405  -0.010 -0.1622 -0.0441 -0.0616
14265TIP3    H142731   4.692   1.424   0.084 -1.1358  0.5815 -0.1074
14265TIP3    H242732   4.750   1.463  -0.050  1.5532 -1.6192  0.3650
14266TIP3   OH242733   7.880   3.132   6.814 -1.1249 -0.4810  0.1133
14266TIP3    H142734   7.816   3.204   6.810  1.6841  2.0425 -1.8705
14266TIP3    H242735   7.934   3.153   6.891 -1.2873 -1.3690  0.4717
14267TIP3   OH242736   8.133   5.456   6.458  0.2168 -0.3617 -0.0698
14267TIP3    H142737   8.176   5.413   6.532  1.4724  1.2587  0.1858
14267TIP3    H242738   8.202   5.462   6.391  0.3853  2.1056  0.2746
14268TIP3   OH242739   4.127   0.601   0.017  0.5345  0.2599 -0.1076
14268TIP3    H142740   4.096   0.666  -0.046  0.9550 -0.2080 -0.8098
14268TIP3    H242741   4.048   0.554   0.045  0.5475 -0.7396 -1.6743
14269TIP3   OH242742   8.059   5.573   5.660  0.2189  0.3694 -0.2951
14269TIP3    H142743   8.050   5.478   5.654 -0.4072  0.4556 -0.8933
14269TIP3    H242744   7.970   5.606   5.644  0.3819  1.0398  0.1906
14270TIP3   OH242745   7.647   3.218   4.293  0.2384  0.2133  0.1650
14270TIP3    H142746   7.560   3.231   4.256  0.3708  0.3924 -0.0793
14270TIP3    H242747   7.701   3.192   4.219  0.8893  2.2165 -0.0799
14271TIP3   OH242748   3.933   0.057   0.184  0.4122 -0.3522  0.4315
14271TIP3    H142749   3.844   0.053   0.150  0.6756 -0.2334 -0.2815
14271TIP3    H242750   3.979  -0.016   0.142  0.9099  0.1887  0.0185
14272TIP3   OH242751   4.445   0.643   1.863 -0.0854  0.0386 -0.1534
14272TIP3    H142752   4.379   0.579   1.891 -0.7329  1.4851  1.6941
14272TIP3    H242753   4.407   0.685   1.785 -0.4877 -0.4652 -0.2289
14273TIP3   OH242754   4.636   0.772   0.882 -0.8333 -0.0707 -0.1253
14273TIP3    H142755   4.550   0.749   0.847 -0.3083  1.2416 -2.4371
14273TIP3    H242756   4.620   0.848   0.938 -1.3664 -0.7379  0.6368
14274TIP3   OH242757   2.280   4.599   0.258 -0.7833  0.2786  0.9387
14274TIP3    H142758   2.288   4.512   0.298 -1.7786 -0.2908 -0.0798
14274TIP3    H242759   2.219   4.645   0.316 -1.4637 -0.2172  0.6200
14275TIP3   OH242760   1.010   0.994   0.473  0.1951  0.2310 -0.0854
14275TIP3    H142761   0.991   1.026   0.561  1.7201 -0.9333  0.6837
14275TIP3    H242762   1.016   1.073   0.420  3.3819  1.2529  1.6657
14276TIP3   OH242763   3.565   0.344   1.786 -0.1474 -0.5894 -0.6215
14276TIP3    H142764   3.526   0.430   1.768  0.3636 -0.1711  0.2448
14276TIP3    H242765   3.648   0.345   1.739 -0.7924 -1.1715 -1.7995
14277TIP3   OH242766   4.442   0.169   0.597  0.0188 -0.3709 -0.1498
14277TIP3    H142767   4.449   0.192   0.689  0.7191  2.0497 -0.7732
14277TIP3    H242768   4.526   0.196   0.559  0.5726 -3.2504 -1.1285
14278TIP3   OH242769   8.155   5.276   6.052 -0.0251 -0.0009  0.6946
14278TIP3    H142770   8.138   5.199   6.106  1.6632 -1.9464 -1.4559
14278TIP3    H242771   8.208   5.243   5.980  1.7236  3.4080  0.3444
14279TIP3   OH242772   4.865   0.696   0.634 -0.8065  0.0234 -0.2212
14279TIP3    H142773   4.799   0.715   0.567 -1.8924 -1.0740  0.5060
14279TIP3    H242774   4.823   0.722   0.716 -0.0782 -0.0867  0.1884
14280TIP3   OH242775   5.864   2.331   2.628  0.4456  0.2259  0.0969
14280TIP3    H142776   5.909   2.252   2.657  1.4316 -0.1000 -2.2430
14280TIP3    H242777   5.914   2.403   2.667  0.0739 -0.2650  1.5017
14281TIP3   OH242778   3.482   1.162   2.049 -0.3028 -0.2447 -0.7324
14281TIP3    H142779   3.576   1.143   2.040 -0.0022  0.6467  0.4280
14281TIP3    H242780   3.460   1.132   2.138 -0.7351  1.0438 -0.3900
14282TIP3   OH242781   5.579   1.381   1.480  0.3665 -0.2495  0.1292
14282TIP3    H142782   5.631   1.311   1.441  2.3133  1.1071  0.2230
14282TIP3    H242783   5.639   1.424   1.542 -0.8413  1.3849  0.2023
14283TIP3   OH242784   8.156   7.733   3.604  0.0485  0.1964  0.2276
14283TIP3    H142785   8.217   7.678   3.653 -2.2526 -1.2451  1.6008
14283TIP3    H242786   8.128   7.799   3.667 -0.5728  0.2303 -0.0816
14284TIP3   OH242787   3.867   2.535   2.613  0.2806 -0.3010 -0.4127
14284TIP3    H142788   3.953   2.562   2.644 -1.0828  2.0872  1.5124
14284TIP3    H242789   3.860   2.572   2.525  0.8655  0.2698 -0.2235
14285TIP3   OH242790   6.036   0.725  -0.017 -0.0499 -0.0641 -0.1728
14285TIP3    H142791   6.024   0.650   0.041 -1.3687  0.0884 -0.2360
14285TIP3    H242792   5.973   0.790   0.014 -0.8397 -0.0135 -1.8341
14286TIP3   OH242793   4.909   2.291   2.907 -0.0148  1.0046 -0.0122
14286TIP3    H142794   4.854   2.217   2.882 -0.9069  1.5561  0.3246
14286TIP3    H242795   4.948   2.320   2.824  0.3980  0.1119 -0.1318
14287TIP3   OH242796   6.088   3.338   3.144  0.4560  0.0933 -0.3692
14287TIP3    H142797   6.061   3.427   3.168  1.0990  0.2458 -0.1959
14287TIP3    H242798   6.054   3.326   3.056  1.7098  1.0988 -1.0104
14288TIP3   OH242799   3.718   1.147   0.928 -0.6088 -0.0774 -0.2636
14288TIP3    H142800   3.722   1.065   0.878 -0.4366  1.2821 -2.5909
14288TIP3    H242801   3.801   1.150   0.976 -1.4079 -2.1148  1.2937
14289TIP3   OH242802   7.247   6.785   0.633 -0.7921 -0.2993 -0.5509
14289TIP3    H142803   7.246   6.745   0.546 -0.4945  0.0293 -0.7030
14289TIP3    H242804   7.274   6.713   0.691  2.1973  0.2883 -1.1377
14290TIP3   OH242805   6.407   5.038   6.777 -0.2034 -0.6800 -0.2614
14290TIP3    H142806   6.369   4.978   6.841 -1.4701  0.6882  0.3096
14290TIP3    H242807   6.483   4.992   6.742  1.6836 -0.7016  3.6139
14291TIP3   OH242808   2.828   1.370   0.025 -0.6969 -0.2263  0.0134
14291TIP3    H142809   2.887   1.298   0.045 -2.5223 -1.5213  0.8626
14291TIP3    H242810   2.786   1.346  -0.058  0.2537  0.8837 -0.8059
14292TIP3   OH242811   1.268   5.010   6.736  0.7329 -0.0911  0.2638
14292TIP3    H142812   1.176   4.995   6.712  0.4379  0.3238  1.1347
14292TIP3    H242813   1.285   4.948   6.806  1.0659 -0.0291  0.2396
14293TIP3   OH242814   6.119   0.314   0.292  0.8712  0.4689 -0.4348
14293TIP3    H142815   6.130   0.330   0.386 -0.1565  0.1104 -0.2404
14293TIP3    H242816   6.148   0.223   0.280 -2.1865 -0.6529  0.1696
14294TIP3   OH242817   7.180   3.645   6.800  0.2101  0.2340 -0.0986
14294TIP3    H142818   7.199   3.563   6.847 -1.0785 -0.0380 -0.0384
14294TIP3    H242819   7.130   3.618   6.723 -1.2180  1.0660  0.5218
14295TIP3   OH242820   6.706   5.112   5.242 -0.1841 -0.1204 -1.0058
14295TIP3    H142821   6.628   5.107   5.298  1.2857 -0.3795  1.0819
14295TIP3    H242822   6.745   5.196   5.264 -0.1017  0.2043 -2.3710
14296TIP3   OH242823   6.553   2.593   0.658  0.0700 -0.1885  0.3787
14296TIP3    H142824   6.518   2.668   0.610  1.7821 -1.0174 -2.2779
14296TIP3    H242825   6.629   2.628   0.704  0.8422 -0.2385 -0.8227
14297TIP3   OH242826   6.207   4.750   6.765  0.6158  0.1257  0.0041
14297TIP3    H142827   6.200   4.808   6.842 -0.7407  0.2449 -0.1942
14297TIP3    H242828   6.265   4.680   6.793  1.1324  0.8243  0.7261
14298TIP3   OH242829   7.353   2.844   6.482 -0.0597 -0.5331 -0.8411
14298TIP3    H142830   7.288   2.893   6.531  0.9825  1.6335 -1.5612
14298TIP3    H242831   7.311   2.760   6.462 -1.3395 -0.5353  1.6797
14299TIP3   OH242832   8.302   4.438   6.713  0.0691 -1.0742 -0.0306
14299TIP3    H142833   8.388   4.412   6.681  1.0947  0.3502  1.4369
14299TIP3    H242834   8.247   4.360   6.704  1.1325 -1.5983 -2.2569
14300TIP3   OH242835   4.545   2.011   2.092  0.3778  0.5582  0.8973
14300TIP3    H142836   4.469   1.953   2.095  0.9990 -0.2356  1.6716
14300TIP3    H242837   4.540   2.053   2.006 -0.3951 -0.2225  0.5503
14301TIP3   OH242838   6.134   5.147   4.777  0.0217  0.2991 -0.2102
14301TIP3    H142839   6.143   5.199   4.697 -0.5325 -0.7793 -0.9873
14301TIP3    H242840   6.073   5.077   4.753 -1.7303  1.1102  1.7239
14302TIP3   OH242841   8.323   4.035   6.000 -0.6740  0.0636  0.1748
14302TIP3    H142842   8.251   4.032   6.063 -0.4590  0.7800  0.4600
14302TIP3    H242843   8.309   4.116   5.951  0.7577  0.9532  1.2220
14303TIP3   OH242844   5.139   1.048   0.839  0.2001  0.4866  0.9593
14303TIP3    H142845   5.072   1.018   0.777  0.2350  1.0723  0.6319
14303TIP3    H242846   5.214   1.069   0.783  0.0550  1.5218  1.1524
14304TIP3   OH242847   5.809   1.282   0.394 -0.2214  0.3633  0.1236
14304TIP3    H142848   5.905   1.279   0.391 -0.2618  0.1710 -1.4180
14304TIP3    H242849   5.789   1.312   0.483  1.2137 -1.4195  1.0897
14305TIP3   OH242850   2.222   1.939   1.722  0.3941 -0.3389 -0.5079
14305TIP3    H142851   2.225   1.914   1.814 -0.4685 -0.7293 -0.5785
14305TIP3    H242852   2.238   1.857   1.674  0.6580 -0.1714 -0.7110
14306TIP3   OH242853   0.947   0.373   1.806  0.2098 -0.3364  0.7261
14306TIP3    H142854   0.864   0.421   1.798  0.5033  0.0840  0.1868
14306TIP3    H242855   0.954   0.353   1.899 -0.8042 -0.9175  0.6856
14307TIP3   OH242856   3.446   2.557   1.381 -1.0329  0.5867  0.2673
14307TIP3    H142857   3.490   2.641   1.373  3.1728 -1.6963 -2.6044
14307TIP3    H242858   3.387   2.554   1.305 -0.6458  0.6719 -0.0393
14308TIP3   OH242859   4.587   6.113   6.879 -0.2705  0.2689 -0.3948
14308TIP3    H142860   4.558   6.174   6.947 -1.2483 -0.1780 -0.4028
14308TIP3    H242861   4.648   6.164   6.826  1.4664  0.2863  1.5254
14309TIP3   OH242862   0.163   5.315   5.811 -0.2869  0.3108  0.2628
14309TIP3    H142863   0.120   5.360   5.884 -1.1555 -2.7201  1.6915
14309TIP3    H242864   0.252   5.300   5.842 -0.4199 -0.2353  0.3873
14310TIP3   OH242865   7.385   3.103   6.760 -0.5071 -0.0988  0.5493
14310TIP3    H142866   7.439   3.026   6.745 -3.0959 -1.6906 -1.0200
14310TIP3    H242867   7.296   3.073   6.746 -1.5918  3.2016 -0.1122
14311TIP3   OH242868   5.256   1.280   0.312 -0.6187 -0.1354 -0.0083
14311TIP3    H142869   5.200   1.211   0.276 -2.1879  1.5658 -0.9174
14311TIP3    H242870   5.264   1.258   0.405  0.5467 -2.6211 -0.6686
14312TIP3   OH242871   6.623   0.590   0.343  0.0318 -0.2097  0.0998
14312TIP3    H142872   6.539   0.569   0.385  0.0392 -0.5439 -0.0491
14312TIP3    H242873   6.680   0.517   0.367  0.0259 -0.4201 -0.5271
14313TIP3   OH242874   5.955   0.122   2.596 -0.1639  0.4412 -0.1579
14313TIP3    H142875   5.951   0.138   2.502 -0.0910 -2.0624 -0.6338
14313TIP3    H242876   5.892   0.183   2.634 -0.1811  1.4877 -1.8113
14314TIP3   OH242877   3.319   1.889   0.529  0.0319 -0.4241  0.4857
14314TIP3    H142878   3.238   1.934   0.548  0.1133 -0.7430  1.6515
14314TIP3    H242879   3.372   1.952   0.481 -0.0203  0.5737  1.7226
14315TIP3   OH242880   2.922   6.914   2.467  0.2484 -0.0598 -0.3851
14315TIP3    H142881   2.993   6.850   2.466 -0.0611 -0.4795  1.4340
14315TIP3    H242882   2.857   6.879   2.407 -0.2346 -1.8572  1.1351
14316TIP3   OH242883   8.484   3.770   5.328 -0.3279  0.6326  0.6411
14316TIP3    H142884   8.494   3.719   5.248  0.3573 -0.5922  1.4882
14316TIP3    H242885   8.398   3.810   5.321 -0.2077  0.6762 -0.7774
14317TIP3   OH242886   3.595   1.064   1.351  0.2138  0.4558 -0.1581
14317TIP3    H142887   3.622   1.040   1.440 -0.3251 -2.3126 -0.6962
14317TIP3    H242888   3.537   1.139   1.363  1.6647  1.3260  1.6669
14318TIP3   OH242889   3.196   2.742   0.133  0.4192 -0.6601  0.3550
14318TIP3    H142890   3.127   2.783   0.186  2.2098  1.5720  1.0242
14318TIP3    H242891   3.275   2.751   0.186  1.9527  0.2410 -2.0640
14319TIP3   OH242892   0.415   0.149   0.259  0.2523  0.2875 -0.0681
14319TIP3    H142893   0.383   0.062   0.284  1.2449 -0.5758 -1.6938
14319TIP3    H242894   0.396   0.154   0.165  3.8973  0.1648 -0.8853
14320TIP3   OH242895   0.985   7.665   0.246  0.1482  0.4182  0.4734
14320TIP3    H142896   0.902   7.706   0.220  1.1450  1.5168 -1.0386
14320TIP3    H242897   0.964   7.618   0.327 -2.1699 -0.0762 -0.3671
14321TIP3   OH242898   0.444   5.080   5.261 -0.1783 -0.2141 -0.2573
14321TIP3    H142899   0.376   5.139   5.292  1.0330  1.7496 -1.2058
14321TIP3    H242900   0.497   5.061   5.339  0.4283  1.3769 -0.2500
14322TIP3   OH242901   7.390   2.497   0.617  0.3828  0.5664  0.0085
14322TIP3    H142902   7.481   2.508   0.644  1.1998 -3.2107 -0.8578
14322TIP3    H242903   7.348   2.455   0.692  0.2289 -0.8645 -0.8639
14323TIP3   OH242904   5.802   0.646   0.427 -0.2481  0.0948 -0.1176
14323TIP3    H142905   5.733   0.711   0.413 -0.0406  0.0328 -1.4680
14323TIP3    H242906   5.764   0.563   0.401 -0.2343 -0.2095  0.8112
14324TIP3   OH242907   5.415   3.175   3.478  0.0101 -0.0217 -0.6135
14324TIP3    H142908   5.353   3.105   3.457 -0.1212 -0.4770  1.1691
14324TIP3    H242909   5.485   3.166   3.413  0.8219 -2.8575  0.5770
14325TIP3   OH242910   6.797   5.795   6.880  0.0992  0.4266  0.3520
14325TIP3    H142911   6.826   5.869   6.826  1.0398 -1.9361 -2.5434
14325TIP3    H242912   6.701   5.801   6.880  0.1625  1.4146 -0.1982
14326TIP3   OH242913   8.273   0.751   0.873  0.7289  0.4606  0.6607
14326TIP3    H142914   8.207   0.686   0.851  1.1456  0.0923  0.4873
14326TIP3    H242915   8.268   0.816   0.802 -1.0147  1.6621  1.8213
14327TIP3   OH242916   5.992   7.686   5.476  0.4704 -0.2288  0.2261
14327TIP3    H142917   5.937   7.765   5.481  2.3487  1.2383 -1.5636
14327TIP3    H242918   6.080   7.717   5.493  1.0137 -2.2882  1.3237
14328TIP3   OH242919   6.100   5.407   4.954 -0.3407 -0.6641 -0.2388
14328TIP3    H142920   6.132   5.336   5.009  0.1567 -0.6868 -0.5562
14328TIP3    H242921   6.177   5.462   4.938 -0.6163 -0.3183 -0.3972
14329TIP3   OH242922   1.086   3.744   6.639  0.2764  0.0952  0.5709
14329TIP3    H142923   1.016   3.747   6.573 -0.0218 -0.3961  0.8652
14329TIP3    H242924   1.160   3.787   6.596  0.2501 -0.6837 -0.2881
14330TIP3   OH242925   0.207   6.300   0.392 -0.0198 -0.4946  0.0846
14330TIP3    H142926   0.236   6.313   0.483  0.3815 -0.2657 -0.0732
14330TIP3    H242927   0.194   6.389   0.359  1.6389 -0.4996 -0.6546
14331TIP3   OH242928   0.889   3.687   5.507  0.8477  0.5675 -0.4218
14331TIP3    H142929   0.950   3.749   5.549  1.4539 -0.6630  0.5568
14331TIP3    H242930   0.946   3.625   5.462  0.4829 -2.1586  2.6928
14332TIP3   OH242931   0.349   4.667   6.099 -0.0875  0.1090 -0.5919
14332TIP3    H142932   0.344   4.715   6.182  2.4527 -0.6214  0.0318
14332TIP3    H242933   0.308   4.725   6.035 -2.1468  0.6618  1.1758
14333TIP3   OH242934   0.462   4.308   4.808 -0.5477  0.4466 -0.2364
14333TIP3    H142935   0.436   4.280   4.895  1.3003  1.0630  0.5500
14333TIP3    H242936   0.435   4.237   4.750 -0.3804 -0.6843  1.0465
14334TIP3   OH242937   7.533   3.653   0.534 -0.2137  0.4511 -0.6653
14334TIP3    H142938   7.561   3.739   0.564 -0.6109 -0.3834  2.2866
14334TIP3    H242939   7.523   3.662   0.439  1.7539  3.0550 -0.6665
14335TIP3   OH242940   1.395   1.600   6.010 -0.4196  0.1874 -0.1834
14335TIP3    H142941   1.330   1.559   5.953 -1.1567  1.1502 -0.0435
14335TIP3    H242942   1.439   1.526   6.052 -2.3378 -0.4929  0.7401
14336TIP3   OH242943   0.858   3.710   6.467 -0.1039  0.3592  0.0927
14336TIP3    H142944   0.894   3.712   6.378 -1.8178 -3.0296 -0.7681
14336TIP3    H242945   0.774   3.755   6.460 -0.1641  0.2368  0.0211
14337TIP3   OH242946   7.807   5.394   5.363  0.8949 -0.0989 -0.3486
14337TIP3    H142947   7.874   5.442   5.314 -0.2477  2.0276  0.0911
14337TIP3    H242948   7.798   5.442   5.445 -1.5381  0.0017 -0.6343
14338TIP3   OH242949   6.762   0.812   0.470 -0.3321 -0.3588  0.3121
14338TIP3    H142950   6.690   0.820   0.532  0.1891 -0.7090  0.9714
14338TIP3    H242951   6.735   0.742   0.411 -1.1153  0.4141 -0.2518
14339TIP3   OH242952   0.277   3.994   3.533 -0.3794 -0.2201  0.7197
14339TIP3    H142953   0.222   3.989   3.455  0.2003 -0.4838  0.3154
14339TIP3    H242954   0.282   4.087   3.554  0.5370 -0.0118 -0.3585
14340TIP3   OH242955   3.340   0.560   0.460  0.0145  0.0266  0.3549
14340TIP3    H142956   3.331   0.612   0.539 -1.1249  3.0462 -1.6542
14340TIP3    H242957   3.434   0.553   0.445  0.1869  1.4977  0.7042
14341TIP3   OH242958   6.931   3.161   4.334 -0.2494 -0.7232 -0.0952
14341TIP3    H142959   6.885   3.211   4.402  0.7887  0.1700 -0.0438
14341TIP3    H242960   6.961   3.226   4.271 -0.6470 -1.4893 -1.0890
14342TIP3   OH242961   5.954   2.336   1.570 -0.1961 -0.8234  0.0710
14342TIP3    H142962   6.005   2.258   1.590 -0.0343 -1.0387 -1.1694
14342TIP3    H242963   5.987   2.402   1.632  0.1145 -1.5412  0.6883
14343TIP3   OH242964   6.928   1.845   0.929  0.4218  0.1482 -0.1395
14343TIP3    H142965   6.883   1.848   0.845 -0.0597  0.8808  0.1357
14343TIP3    H242966   6.976   1.762   0.928 -0.9592 -0.6648 -0.4323
14344TIP3   OH242967   5.796   7.965   0.115 -0.5018 -0.0368  0.1585
14344TIP3    H142968   5.821   7.886   0.067  2.1471 -0.4309  2.0848
14344TIP3    H242969   5.854   8.033   0.083  1.3601 -0.3297  2.7789
14345TIP3   OH242970   3.656   7.514   0.446  0.0799  0.2831 -0.3957
14345TIP3    H142971   3.717   7.587   0.454  0.5895  0.0641 -2.1542
14345TIP3    H242972   3.712   7.438   0.431 -0.4787 -0.3996  0.9058
14346TIP3   OH242973   6.340   0.571   0.752 -0.0510 -0.3095 -0.3074
14346TIP3    H142974   6.300   0.658   0.755 -1.0800 -0.8155  0.9850
14346TIP3    H242975   6.433   0.588   0.736 -0.7165  0.8876 -3.3031
14347TIP3   OH242976   7.030   0.681   0.292  0.1247  0.2528 -0.1910
14347TIP3    H142977   7.080   0.723   0.362  0.2203 -1.3762  0.7177
14347TIP3    H242978   6.939   0.690   0.318  0.0854  0.7174 -0.4695
14348TIP3   OH242979   6.433   4.569   6.798 -0.0733 -0.1862 -0.0607
14348TIP3    H142980   6.500   4.502   6.810  0.5678  0.2905 -0.9916
14348TIP3    H242981   6.452   4.608   6.713 -1.2159  0.3130 -0.1025
14349TIP3   OH242982   1.396   3.687   6.819 -0.0797 -0.5019  0.6558
14349TIP3    H142983   1.445   3.706   6.738 -1.2193 -1.4357 -0.2698
14349TIP3    H242984   1.452   3.625   6.866  0.6364  0.1149  0.6397
14350TIP3   OH242985   4.241   0.746   0.925 -0.4303  0.1423  0.1828
14350TIP3    H142986   4.324   0.707   0.952 -0.3769  0.6968  0.8468
14350TIP3    H242987   4.233   0.725   0.832 -0.4015 -1.4491  0.5231
14351TIP3   OH242988   5.578   4.140   1.834 -0.1156  0.1698 -0.0693
14351TIP3    H142989   5.645   4.185   1.782  0.5305  0.6780  1.1626
14351TIP3    H242990   5.565   4.056   1.789  2.8499 -0.8180  0.7411
14352TIP3   OH242991   1.316   3.334   0.178 -0.1639 -0.1059  0.1641
14352TIP3    H142992   1.385   3.395   0.204  1.1236 -1.4235 -0.0880
14352TIP3    H242993   1.244   3.353   0.238  0.2393  1.5777  0.1577
14353TIP3   OH242994   7.394   1.723   2.632  0.3093  0.4301 -0.2064
14353TIP3    H142995   7.427   1.740   2.544  0.3135  0.9927 -0.1016
14353TIP3    H242996   7.447   1.779   2.688 -1.5201  2.1763 -0.1504
14354TIP3   OH242997   5.575   7.803   0.906 -0.0878 -0.6934  0.7910
14354TIP3    H142998   5.608   7.800   0.996 -1.4330  0.9154  1.3617
14354TIP3    H242999   5.611   7.885   0.870 -2.2040  0.3205  0.9357
14355TIP3   OH243000   8.332   3.982   2.242 -0.3447 -0.3115  0.1434
14355TIP3    H143001   8.288   4.022   2.167 -0.9883  0.1673  0.7622
14355TIP3    H243002   8.415   4.029   2.250 -0.6984  0.2847  0.3176
14356TIP3   OH243003   0.274   2.020   2.245 -0.5423  0.6278  0.5717
14356TIP3    H143004   0.318   1.935   2.249 -1.0411  0.4190  1.7513
14356TIP3    H243005   0.242   2.026   2.155  0.5910  0.1241  0.1278
14357TIP3   OH243006   7.565   2.094   1.989  0.0762 -0.0317 -0.1615
14357TIP3    H143007   7.490   2.129   1.941 -1.1736 -1.7559  0.4968
14357TIP3    H243008   7.575   2.152   2.064  1.6189  2.2898 -2.0847
14358TIP3   OH243009   7.503   1.279   0.362  0.1792 -0.5528 -0.3014
14358TIP3    H143010   7.542   1.341   0.423  2.3208 -1.1221 -1.0445
14358TIP3    H243011   7.418   1.317   0.340  1.2493  1.8731 -0.3749
14359TIP3   OH243012   0.875   0.687   0.702  0.2017 -0.2710 -0.4611
14359TIP3    H143013   0.823   0.756   0.660 -0.5546 -0.3556  0.3173
14359TIP3    H243014   0.906   0.633   0.630 -0.4541  0.0169 -0.9677
14360TIP3   OH243015   6.659   1.586   1.601 -0.1908  0.1408 -0.6145
14360TIP3    H143016   6.579   1.626   1.568 -1.0403 -0.5038  0.6155
14360TIP3    H243017   6.726   1.653   1.590 -0.9175  0.7175 -1.5563
14361TIP3   OH243018   8.352   1.772   1.204  0.2540 -0.2527  0.2686
14361TIP3    H143019   8.384   1.791   1.292  0.9191  1.5455 -0.3159
14361TIP3    H243020   8.431   1.778   1.149 -0.4510  0.5011 -0.6795
14362TIP3   OH243021   8.427   3.495   0.555 -0.7874 -0.0270 -0.2853
14362TIP3    H143022   8.460   3.434   0.621 -0.8301  0.4379  0.1717
14362TIP3    H243023   8.484   3.572   0.564 -0.1805 -0.3297 -1.4404
14363TIP3   OH243024   6.623   1.012   1.099  0.0496 -0.4718  0.1733
14363TIP3    H143025   6.543   1.064   1.105  0.4404  0.0849  0.6567
14363TIP3    H243026   6.660   1.015   1.187  0.8861 -0.2608 -0.1722
14364TIP3   OH243027   0.229   3.096   1.562 -0.2634  0.1338  0.0090
14364TIP3    H143028   0.157   3.039   1.589 -0.9717  0.4891 -1.1125
14364TIP3    H243029   0.290   3.038   1.517 -0.7000  0.1537 -0.6074
14365TIP3   OH243030   6.774   2.504   0.377 -0.6436  0.1870  0.3585
14365TIP3    H143031   6.833   2.520   0.451  1.3520 -0.6381 -1.0191
14365TIP3    H243032   6.712   2.439   0.410 -0.4899  0.6707  1.6575
14366TIP3   OH243033   0.959   2.720   2.080 -0.4774 -0.5236 -0.2269
14366TIP3    H143034   0.919   2.671   2.008 -0.8250 -0.9422  0.2435
14366TIP3    H243035   0.969   2.809   2.046 -0.7038 -0.6986 -0.7645
14367TIP3   OH243036   0.393   2.731   0.697  0.1936 -0.0564  0.4995
14367TIP3    H143037   0.299   2.714   0.702 -0.0110  0.8274 -0.3356
14367TIP3    H243038   0.427   2.659   0.644  0.3308 -1.5809  2.5494
14368TIP3   OH243039   7.054   0.740   1.541  0.1311 -0.4733  0.3789
14368TIP3    H143040   7.033   0.805   1.608 -2.0384 -1.0430  0.3158
14368TIP3    H243041   7.069   0.791   1.461  2.4247  0.1882  1.1974
14369TIP3   OH243042   8.125   1.191   3.713  0.4856 -0.1352  0.0561
14369TIP3    H143043   8.066   1.134   3.664  0.8191 -1.2112  0.9114
14369TIP3    H243044   8.127   1.155   3.801  1.0066  0.9621  0.4990
14370TIP3   OH243045   0.206   2.050   0.567  0.7724 -0.2548  0.1595
14370TIP3    H143046   0.302   2.051   0.562  0.7545 -0.6269 -0.2201
14370TIP3    H243047   0.183   2.139   0.594  1.2948 -0.5252  1.5282
14371TIP3   OH243048   4.699   0.046   6.050 -0.0964  0.2571 -0.0067
14371TIP3    H143049   4.690   0.137   6.021  0.6847 -0.3716 -2.2647
14371TIP3    H243050   4.612   0.023   6.082 -0.5862  1.4485 -0.4535
14372TIP3   OH243051   5.887   2.349   1.957 -0.2370  0.0553  0.1949
14372TIP3    H143052   5.959   2.304   2.001  0.7342  2.0945  0.7753
14372TIP3    H243053   5.908   2.344   1.864  0.5111  0.4018  0.3435
14373TIP3   OH243054   1.781   6.844   6.960  0.1304  0.1979  0.2338
14373TIP3    H143055   1.875   6.859   6.948 -0.2418  1.5837 -1.2317
14373TIP3    H243056   1.758   6.781   6.891 -0.1084  0.2107  0.2999
14374TIP3   OH243057   0.201   1.991   0.037 -0.1237 -0.1122  0.1129
14374TIP3    H143058   0.161   1.904   0.024 -0.6113  0.1901 -0.4652
14374TIP3    H243059   0.245   2.009  -0.046  2.6286 -1.1414  1.2931
14375TIP3   OH243060   2.208   0.203   1.473  0.0904  0.2352  0.0633
14375TIP3    H143061   2.261   0.142   1.523  1.5745  1.2002 -0.2832
14375TIP3    H243062   2.117   0.180   1.493  0.6183 -2.2810 -0.3371
14376TIP3   OH243063   7.992   2.387   0.011  0.2776  0.0328  0.5286
14376TIP3    H143064   7.915   2.432   0.046  0.5094 -0.3223  1.4992
14376TIP3    H243065   8.010   2.318   0.074 -0.6488 -2.0610 -1.4568
14377TIP3   OH243066   2.267   4.624   6.089  0.1111 -0.4007 -0.1666
14377TIP3    H143067   2.332   4.578   6.035 -0.3388 -2.2494  0.8070
14377TIP3    H243068   2.317   4.691   6.135  0.7723  0.1864 -1.6991
14378TIP3   OH243069   2.607   6.620   6.616  0.4629  0.0252 -0.5410
14378TIP3    H143070   2.552   6.653   6.545 -1.6788 -0.6079  0.7972
14378TIP3    H243071   2.661   6.553   6.575 -0.8851 -0.4590 -1.5408
14379TIP3   OH243072   3.222   5.549   6.374 -0.1196  0.5226  0.8989
14379TIP3    H143073   3.238   5.552   6.280 -1.2919  1.3920  0.7161
14379TIP3    H243074   3.188   5.461   6.390  0.0033  0.4020  0.5043
14380TIP3   OH243075   8.051   1.790   0.603  0.0659  0.5138  0.3747
14380TIP3    H143076   7.979   1.804   0.542  1.1908 -0.8838 -1.3254
14380TIP3    H243077   8.062   1.695   0.606 -0.0794  0.5309  2.9240
14381TIP3   OH243078   1.384   1.285   1.931  0.0740  0.2120  0.5337
14381TIP3    H143079   1.384   1.288   1.835  1.9855  0.3473  0.5242
14381TIP3    H243080   1.462   1.234   1.953 -1.0806 -0.9796  2.0074
14382TIP3   OH243081   4.239   6.212   1.040  0.1841  0.0533 -0.3828
14382TIP3    H143082   4.286   6.222   0.957  1.5204  1.2594  0.4973
14382TIP3    H243083   4.307   6.185   1.102 -0.4576  1.0127  0.7332
14383TIP3   OH243084   6.025   1.424   1.939 -0.0929  0.0147  0.0186
14383TIP3    H143085   6.086   1.453   2.007  0.2863 -0.9854  0.1158
14383TIP3    H243086   5.966   1.364   1.984 -0.2209 -0.1784 -0.4019
14384TIP3   OH243087   7.147   2.360   1.444  0.1692  0.3994  0.0113
14384TIP3    H143088   7.053   2.380   1.443  0.1874  0.5285 -2.4834
14384TIP3    H243089   7.159   2.299   1.372  2.2568  1.5865 -0.6790
14385TIP3   OH243090   7.325   0.979   4.580 -0.2799  0.0986  0.0217
14385TIP3    H143091   7.383   0.923   4.528 -0.5058  0.9674 -1.1874
14385TIP3    H243092   7.294   0.922   4.650  0.6933 -0.8591 -0.3018
14386TIP3   OH243093   7.443   1.961   1.150  0.0399  0.0744 -0.6205
14386TIP3    H143094   7.503   1.956   1.076 -0.8902  1.1041 -1.4696
14386TIP3    H243095   7.498   1.986   1.224  0.7191  0.6598 -1.3103
14387TIP3   OH243096   6.591   3.241   0.286 -0.2736 -0.1003  0.5398
14387TIP3    H143097   6.577   3.275   0.197 -1.8038 -1.5869  0.1921
14387TIP3    H243098   6.657   3.299   0.324 -1.2353  1.8847 -0.7960
14388TIP3   OH243099   7.360   0.767   5.739 -0.1727 -0.0982  0.8787
14388TIP3    H143100   7.404   0.710   5.676 -1.4458  0.1629 -0.2682
14388TIP3    H243101   7.388   0.855   5.715  0.8438 -0.1406  1.8877
14389TIP3   OH243102   1.231   1.752   1.642 -0.4049  0.0709 -0.3870
14389TIP3    H143103   1.272   1.736   1.727 -0.5891  0.4884 -0.2157
14389TIP3    H243104   1.301   1.790   1.589 -0.2506 -0.3270 -0.4649
14390TIP3   OH243105   1.504   2.863   0.202 -0.0247 -0.3603 -0.3926
14390TIP3    H143106   1.503   2.798   0.132 -1.7290 -1.5163  0.6853
14390TIP3    H243107   1.550   2.820   0.274  0.0210  0.1237 -0.1319
14391TIP3   OH243108   0.225   3.617   0.780 -0.0796  0.0038 -0.6168
14391TIP3    H143109   0.154   3.680   0.792 -0.2475  0.1723 -2.2831
14391TIP3    H243110   0.304   3.669   0.778  0.1519 -0.2206  1.6111
14392TIP3   OH243111   0.784   2.657   1.534 -0.0144 -0.1390 -0.7905
14392TIP3    H143112   0.846   2.584   1.539 -0.5093 -0.5579 -0.7010
14392TIP3    H243113   0.819   2.721   1.596  0.8621  0.0498 -1.4595
14393TIP3   OH243114   4.600   2.357   1.200  0.4991 -0.0971 -0.0468
14393TIP3    H143115   4.506   2.368   1.186  0.4257 -0.3060  0.2663
14393TIP3    H243116   4.636   2.445   1.189  0.4300 -0.2189 -1.3616
14394TIP3   OH243117   2.818   7.193   6.574 -0.1098  0.2457  0.4162
14394TIP3    H143118   2.911   7.205   6.592 -0.2500  1.7569  0.1499
14394TIP3    H243119   2.816   7.137   6.496  0.6082  1.8885 -0.8017
14395TIP3   OH243120   0.956   3.059   1.776 -0.0788  0.1649 -0.1017
14395TIP3    H143121   1.002   3.134   1.813 -2.2773  1.9786 -0.9498
14395TIP3    H243122   0.899   3.029   1.847  0.5976 -0.5829  0.1448
14396TIP3   OH243123   0.444   1.547   1.226  0.2310 -1.0995 -0.3007
14396TIP3    H143124   0.371   1.497   1.191  0.4591 -0.9779 -0.9526
14396TIP3    H243125   0.436   1.634   1.186 -1.1908 -0.0459  2.1806
14397TIP3   OH243126   0.830   2.663   0.972 -0.2995 -0.2155  0.2150
14397TIP3    H143127   0.740   2.644   0.998 -0.8155 -0.8444 -1.8925
14397TIP3    H243128   0.884   2.614   1.034 -1.4170 -0.0676  1.3163
14398TIP3   OH243129   2.587   1.361   0.848 -0.5408  0.5273 -0.4854
14398TIP3    H143130   2.679   1.375   0.872 -0.6962  0.6214  0.0747
14398TIP3    H243131   2.588   1.288   0.787 -0.1359  0.2135 -0.1043
14399TIP3   OH243132   2.731   5.324   5.161 -0.6807 -0.3769 -0.4869
14399TIP3    H143133   2.794   5.289   5.225 -1.8543 -0.7486  0.4949
14399TIP3    H243134   2.703   5.247   5.111  0.7960  0.0329 -1.9541
14400TIP3   OH243135   7.437   2.768   0.998  0.2683  0.4273 -0.2924
14400TIP3    H143136   7.440   2.676   0.973  0.3327 -0.0303  1.3880
14400TIP3    H243137   7.391   2.811   0.925 -1.5422 -1.2259 -0.1669
14401TIP3   OH243138   1.533   2.395   2.172  0.0274 -0.4675  0.3073
14401TIP3    H143139   1.456   2.406   2.117  1.2411  0.5291 -1.2533
14401TIP3    H243140   1.505   2.421   2.259 -1.8606 -1.8053  0.1287
14402TIP3   OH243141   0.749   3.687   1.234 -0.3791  0.6570  0.0600
14402TIP3    H143142   0.807   3.699   1.309 -0.7079 -0.1638  0.4566
14402TIP3    H243143   0.792   3.619   1.182 -1.3044 -0.4354  0.6972
14403TIP3   OH243144   5.520   7.133   5.496  0.5168 -0.2413 -0.2673
14403TIP3    H143145   5.530   7.192   5.422 -0.3565  0.7394  0.3789
14403TIP3    H243146   5.490   7.051   5.457 -0.6458  0.4858 -0.9414
14404TIP3   OH243147   1.007   2.483   1.144  0.1967 -0.7965 -0.1078
14404TIP3    H143148   1.021   2.396   1.183 -1.8172 -1.1448 -0.1042
14404TIP3    H243149   1.094   2.510   1.115  0.7187 -3.2584 -1.0239
14405TIP3   OH243150   0.151   1.944   0.846  0.2935 -0.1385  0.0090
14405TIP3    H143151   0.128   1.996   0.769  0.1830  1.6453  1.1999
14405TIP3    H243152   0.203   1.872   0.812 -0.1353  0.3738 -1.7838
14406TIP3   OH243153   4.551   0.197   6.335 -0.3996 -0.2219 -0.1748
14406TIP3    H143154   4.573   0.106   6.356 -0.8929 -0.3246 -0.0925
14406TIP3    H243155   4.635   0.239   6.318 -0.1542 -0.6422 -0.0008
14407TIP3   OH243156   1.551   3.198   2.588 -0.0658 -0.2269 -0.6108
14407TIP3    H143157   1.591   3.113   2.603 -0.8886 -0.5123 -0.0082
14407TIP3    H243158   1.527   3.198   2.496 -1.5589 -1.2933 -0.2317
14408TIP3   OH243159   2.101   2.003   0.767  0.1625  0.3262  0.4224
14408TIP3    H143160   2.078   1.976   0.678  0.1325  1.7182 -0.0133
14408TIP3    H243161   2.036   1.961   0.823  1.0252 -1.7032 -0.0555
14409TIP3   OH243162   0.355   1.580   2.464  0.9793 -0.0726 -0.2032
14409TIP3    H143163   0.435   1.557   2.416  1.6086  0.2583  0.6807
14409TIP3    H243164   0.294   1.610   2.395  1.3306 -1.0852 -0.9608
14410TIP3   OH243165   0.565   1.946   1.434 -0.1927 -0.4199  0.3510
14410TIP3    H143166   0.601   1.882   1.374 -1.3576 -0.2959 -0.4995
14410TIP3    H243167   0.555   1.899   1.517 -2.0884 -1.6754 -0.5621
14411TIP3   OH243168   8.383   3.510   1.866 -0.2845 -0.1857  0.2252
14411TIP3    H143169   8.408   3.435   1.813 -0.0544  1.1408 -1.5928
14411TIP3    H243170   8.454   3.573   1.854 -1.4565  1.1314  0.0750
14412TIP3   OH243171   0.991   2.418   3.604 -0.1812 -0.0497 -0.0159
14412TIP3    H143172   1.018   2.402   3.694 -0.8547  1.4542  0.4506
14412TIP3    H243173   0.989   2.513   3.595  1.3759 -0.1601 -2.0636
14413TIP3   OH243174   6.503   3.995   1.355 -0.0155  0.0803 -0.3751
14413TIP3    H143175   6.446   3.921   1.376 -1.7472  1.1820 -1.0671
14413TIP3    H243176   6.579   3.984   1.412 -0.3487 -2.0915 -0.2929
14414TIP3   OH243177   8.392   2.207   0.536 -0.1652  0.2275 -0.5146
14414TIP3    H143178   8.394   2.266   0.460  0.1589  1.6086  0.5480
14414TIP3    H243179   8.479   2.216   0.575 -0.6974  0.3451  0.6431
14415TIP3   OH243180   1.500   0.949   0.482  0.2764  1.1163 -0.3677
14415TIP3    H143181   1.517   1.043   0.491  2.4955  0.5391  1.7966
14415TIP3    H243182   1.428   0.932   0.543  1.7108  0.9352  1.3028
14416TIP3   OH243183   2.827   3.593   2.122  0.2434  0.3318 -0.2379
14416TIP3    H143184   2.808   3.684   2.145  2.2076  0.9974 -1.1948
14416TIP3    H243185   2.914   3.577   2.157  0.0994 -1.0503 -0.4897
14417TIP3   OH243186   7.267   4.292   1.183  0.0558  0.1417 -0.0883
14417TIP3    H143187   7.284   4.297   1.277  0.6506  1.2199 -0.2499
14417TIP3    H243188   7.311   4.212   1.154  1.3324  0.7142  0.2478
14418TIP3   OH243189   1.098   3.284   0.019 -0.2178  0.0384 -0.2911
14418TIP3    H143190   1.072   3.252   0.106  0.8654 -1.2635 -0.4268
14418TIP3    H243191   1.179   3.332   0.035 -0.4166  0.4300 -0.4706
14419TIP3   OH243192   0.454   2.935   1.481  0.3746 -0.4733  0.5817
14419TIP3    H143193   0.454   2.839   1.491 -2.8348 -0.5710  0.4620
14419TIP3    H243194   0.467   2.949   1.388 -1.4683 -0.9353  0.2304
14420TIP3   OH243195   7.423   3.720   1.459 -0.3468 -0.8032  0.1300
14420TIP3    H143196   7.382   3.749   1.378 -0.1826  0.2282  0.4114
14420TIP3    H243197   7.409   3.791   1.521  2.5333 -0.0677  0.0092
14421TIP3   OH243198   0.567   3.470   0.902 -0.1029  0.3374 -0.6453
14421TIP3    H143199   0.618   3.393   0.928  0.8900  1.1317 -0.2031
14421TIP3    H243200   0.505   3.436   0.837 -0.4906 -1.0602  0.4256
14422TIP3   OH243201   3.039   6.987   5.977  0.0069  0.2757  0.2945
14422TIP3    H143202   3.054   7.038   5.897  0.1467  0.5560  0.4971
14422TIP3    H243203   2.944   6.987   5.989  0.1268  2.6871  1.6913
14423TIP3   OH243204   0.650   4.845   1.057 -0.3160 -0.3727  0.5744
14423TIP3    H143205   0.653   4.775   1.122  1.1826 -0.0314  0.8952
14423TIP3    H243206   0.569   4.892   1.076 -0.3997 -0.9024  1.5377
14424TIP3   OH243207   0.061   0.769   0.843  0.6065 -0.4811  0.5023
14424TIP3    H143208  -0.014   0.748   0.898  1.5513  0.3479  2.1497
14424TIP3    H243209   0.029   0.834   0.782 -0.0604 -0.2405  1.1035
14425TIP3   OH243210   6.416   2.199   1.703 -0.1517  0.6106  0.0568
14425TIP3    H143211   6.321   2.209   1.692 -0.1851  2.8276  1.8255
14425TIP3    H243212   6.428   2.107   1.727 -2.0251  0.5961  1.1009
14426TIP3   OH243213   0.760   5.471   1.754  0.5971  0.1153  0.1363
14426TIP3    H143214   0.765   5.558   1.794 -1.0889  0.6746 -0.8087
14426TIP3    H243215   0.667   5.448   1.759  1.0924 -1.8295  0.7629
14427TIP3   OH243216   7.623   3.041   0.920 -0.2073  0.4602  0.8084
14427TIP3    H143217   7.535   3.015   0.891 -0.4317  1.4585  0.5836
14427TIP3    H243218   7.609   3.082   1.006 -0.1801  2.1290  0.0365
14428TIP3   OH243219   5.153   7.027   6.694  0.0265  0.2366 -0.4832
14428TIP3    H143220   5.139   6.937   6.666  0.7026  0.1332 -0.5081
14428TIP3    H243221   5.167   7.076   6.613 -0.9285  0.4760 -0.5082
14429TIP3   OH243222   8.090   4.379   1.941 -0.0046  0.3886  0.2035
14429TIP3    H143223   8.022   4.430   1.898  2.2762  2.3752 -1.1688
14429TIP3    H243224   8.086   4.406   2.033 -0.3433  1.2652 -0.0698
14430TIP3   OH243225   7.496   2.694   4.023 -0.3804 -0.4427 -0.1567
14430TIP3    H143226   7.507   2.638   4.100  0.6311  0.7266  0.5609
14430TIP3    H243227   7.559   2.765   4.036 -2.0505  1.1820 -0.7466
14431TIP3   OH243228   8.430   1.345   0.215  0.2486 -0.2285 -0.0553
14431TIP3    H143229   8.371   1.273   0.239  0.0362 -0.5500 -1.5115
14431TIP3    H243230   8.515   1.319   0.252 -0.0242 -0.8067  0.1846
14432TIP3   OH243231   0.748   4.380   1.570 -0.2173 -0.0593  0.0024
14432TIP3    H143232   0.712   4.304   1.615  0.4758  0.4163  1.4188
14432TIP3    H243233   0.682   4.404   1.506  0.1058 -2.5797 -1.3111
14433TIP3   OH243234   7.024   1.634   3.233  0.5708  0.7369 -0.0225
14433TIP3    H143235   6.958   1.692   3.196  0.5166  0.4429 -0.3930
14433TIP3    H243236   7.107   1.677   3.214  0.4265  1.8259  1.7082
14434TIP3   OH243237  -0.007   3.299   0.723 -0.3178 -0.0241 -0.2919
14434TIP3    H143238  -0.028   3.208   0.704  1.4129 -0.2868 -0.9871
14434TIP3    H243239   0.069   3.295   0.781 -0.7958  0.9575  0.4175
14435TIP3   OH243240   1.965   0.947   0.723 -0.1165  0.4666 -0.4338
14435TIP3    H143241   1.877   0.911   0.735 -0.2598  0.8797 -0.2595
14435TIP3    H243242   2.016   0.910   0.795 -0.7846  2.3155  1.0192
14436TIP3   OH243243   0.637   1.385   2.653 -0.0812 -0.2551  0.2445
14436TIP3    H143244   0.652   1.341   2.737 -0.7171  2.4181  1.8029
14436TIP3    H243245   0.722   1.424   2.631  0.9872 -3.6305 -2.0472
14437TIP3   OH243246   0.718   4.163   0.690 -0.3317  0.4606 -0.7843
14437TIP3    H143247   0.720   4.089   0.630  2.1364 -0.2813  0.1450
14437TIP3    H243248   0.796   4.214   0.668 -0.9180  1.6969 -0.0696
14438TIP3   OH243249   2.840   3.303   2.020 -0.0931 -0.0374  0.7871
14438TIP3    H143250   2.763   3.360   2.021 -0.5802 -0.6739  0.3245
14438TIP3    H243251   2.846   3.269   2.110  1.2113  2.0631  1.5128
14439TIP3   OH243252   7.854   1.591   0.953 -0.2785 -0.0893 -0.0331
14439TIP3    H143253   7.939   1.634   0.963 -1.0252  1.5984 -0.8291
14439TIP3    H243254   7.803   1.620   1.029 -0.4696 -0.3202 -0.0711
14440TIP3   OH243255   6.477   1.764   5.730  0.4469  0.1155 -0.2223
14440TIP3    H143256   6.458   1.818   5.653 -0.9281 -0.4868 -0.3142
14440TIP3    H243257   6.496   1.677   5.694  2.1200  0.4000 -0.0384
14441TIP3   OH243258   0.052   0.573   1.265 -0.3014  0.2377 -0.4536
14441TIP3    H143259   0.104   0.616   1.197 -1.4883  1.3895 -0.6532
14441TIP3    H243260   0.103   0.496   1.289  0.1523 -0.1607 -2.6211
14442TIP3   OH243261   7.740   3.325   2.309 -0.3730 -0.0382 -0.7061
14442TIP3    H143262   7.732   3.306   2.402 -1.3190  0.5167 -0.6662
14442TIP3    H243263   7.683   3.261   2.267 -0.7908  0.4080 -0.8226
14443TIP3   OH243264   7.817   2.670   2.026 -0.2164  0.1882  0.2382
14443TIP3    H143265   7.725   2.697   2.020  0.0234  0.5703 -2.5092
14443TIP3    H243266   7.866   2.752   2.035  0.0791  0.3178 -2.1000
14444TIP3   OH243267   2.959   1.486   2.186 -0.5398  0.1332  0.1626
14444TIP3    H143268   3.010   1.557   2.224  0.3225  0.2601 -1.2033
14444TIP3    H243269   2.977   1.411   2.242 -1.4566  0.9683  1.6128
14445TIP3   OH243270   0.938   3.706   1.966 -0.1065 -0.1274 -0.4120
14445TIP3    H143271   0.988   3.765   1.910  1.1505 -1.4745 -0.7714
14445TIP3    H243272   1.003   3.642   1.996 -1.2687 -0.8606  0.5854
14446TIP3   OH243273   7.907   3.348   0.769  0.1893  0.2029  0.1878
14446TIP3    H143274   7.870   3.399   0.841  1.8080  3.2760 -1.0569
14446TIP3    H243275   7.995   3.323   0.799  0.5177  0.6943 -0.3610
14447TIP3   OH243276   7.960   3.234   1.130 -0.2359  0.6188  0.1626
14447TIP3    H143277   8.037   3.229   1.073  0.4734  1.1622  1.0527
14447TIP3    H243278   7.935   3.143   1.147 -0.8625  0.4587 -1.5496
14448TIP3   OH243279   7.984   3.417   1.886 -0.1428 -0.6825 -0.1755
14448TIP3    H143280   7.908   3.368   1.856  0.0958 -1.3779  0.3518
14448TIP3    H243281   7.948   3.489   1.938 -0.5114 -0.0268 -1.3019
14449TIP3   OH243282   1.591   5.966   6.118 -0.4313 -0.4005 -0.6983
14449TIP3    H143283   1.572   5.903   6.048 -1.4415 -0.1628 -0.6460
14449TIP3    H243284   1.508   5.975   6.165  0.6059 -1.6503  1.4240
14450TIP3   OH243285   7.078   4.450   0.391 -0.2273 -0.3069 -0.3003
14450TIP3    H143286   7.063   4.394   0.315  1.9582  0.5741 -1.4242
14450TIP3    H243287   6.996   4.498   0.402 -0.7756 -0.8794 -1.7369
14451TIP3   OH243288   1.698   3.801   1.584  0.1014 -0.4655 -0.2356
14451TIP3    H143289   1.730   3.869   1.525  2.3837 -1.7708 -0.5413
14451TIP3    H243290   1.641   3.746   1.530  1.9038 -1.4510 -1.1782
14452TIP3   OH243291   8.346   2.589   0.205 -0.2753 -0.3432 -0.4220
14452TIP3    H143292   8.296   2.589   0.123  0.3978 -4.2114 -0.9143
14452TIP3    H243293   8.420   2.532   0.188  3.1487  3.4379  1.0681
14453TIP3   OH243294   1.086   1.793   1.389 -0.4696 -0.4882 -0.0869
14453TIP3    H143295   1.049   1.881   1.388  0.4845 -0.0894 -1.3116
14453TIP3    H243296   1.108   1.778   1.481  1.4907  1.4896 -0.1915
14454TIP3   OH243297   7.508   1.276   3.776  0.4058 -0.6077 -0.3713
14454TIP3    H143298   7.441   1.220   3.737  0.8544 -1.1363 -0.3871
14454TIP3    H243299   7.569   1.294   3.704  0.2923 -0.1254 -0.3563
14455TIP3   OH243300   2.297   6.893   5.540 -0.2169 -0.2089 -0.2364
14455TIP3    H143301   2.206   6.919   5.551 -0.2692 -0.9515  1.2122
14455TIP3    H243302   2.305   6.873   5.447 -0.8347  2.4289 -0.9089
14456TIP3   OH243303   3.922   6.095   4.912 -0.3641 -0.5086 -0.4026
14456TIP3    H143304   3.966   6.010   4.916  1.1640  0.3219  0.9994
14456TIP3    H243305   3.838   6.076   4.869 -0.4125 -2.8903  0.6394
14457TIP3   OH243306   8.441   4.189   1.252  0.1422  0.2419  0.1858
14457TIP3    H143307   8.492   4.180   1.333 -0.0477  0.2181  0.3050
14457TIP3    H243308   8.360   4.232   1.280  0.2034  0.5058 -0.0461
14458TIP3   OH243309   5.993   5.377   0.498  0.7996 -0.4592  0.4972
14458TIP3    H143310   5.983   5.306   0.561 -1.4210 -1.8897 -1.3910
14458TIP3    H243311   5.917   5.433   0.512 -0.9146 -1.9562 -2.2503
14459TIP3   OH243312   0.597   2.269   2.296  0.0495 -0.0911 -0.0091
14459TIP3    H143313   0.564   2.263   2.385  2.0673 -1.5032  0.6937
14459TIP3    H243314   0.643   2.353   2.293  1.5849 -0.8757  0.8856
14460TIP3   OH243315   3.831   7.030   5.851 -0.0612  0.2834  0.2230
14460TIP3    H143316   3.837   7.016   5.945 -1.1602  0.7974  0.3715
14460TIP3    H243317   3.859   7.121   5.838  1.9502 -0.3619 -0.1700
14461TIP3   OH243318   5.876   3.567   2.687  0.4464 -0.1707  0.2621
14461TIP3    H143319   5.806   3.537   2.629  0.2902 -0.2145  0.4717
14461TIP3    H243320   5.863   3.662   2.692  0.3748 -0.1836  0.3343
14462TIP3   OH243321   1.627   7.917   6.143  0.1179  0.1632 -0.4475
14462TIP3    H143322   1.675   7.880   6.218 -1.8640  1.3064  1.4542
14462TIP3    H243323   1.542   7.872   6.145 -0.0719  0.4636 -1.7873
14463TIP3   OH243324   4.466   7.930   6.792 -0.2864  0.3093 -0.5775
14463TIP3    H143325   4.504   7.845   6.815  0.4305  0.8774  0.3876
14463TIP3    H243326   4.423   7.959   6.872  0.2638  1.2701 -0.6203
14464TIP3   OH243327   2.492   7.551   5.853 -0.0067  0.5758  0.0811
14464TIP3    H143328   2.567   7.606   5.831  0.4452 -0.2013 -0.3239
14464TIP3    H243329   2.519   7.504   5.931 -0.0587  0.2783 -0.0785
14465TIP3   OH243330   6.474   4.322   0.393  1.1165 -0.5732  0.0402
14465TIP3    H143331   6.544   4.265   0.426  0.5296 -0.4741  1.4920
14465TIP3    H243332   6.398   4.266   0.386  0.3725  0.1231  2.0591
14466TIP3   OH243333   3.868   7.581   5.101 -0.6281  0.4169  0.3037
14466TIP3    H143334   3.914   7.590   5.184 -0.3870  0.0552  0.2124
14466TIP3    H243335   3.845   7.671   5.076  0.6665  0.6807 -0.0026
14467TIP3   OH243336   7.744   1.606   0.435 -0.1075 -0.0396  0.1573
14467TIP3    H143337   7.771   1.688   0.475  3.7686 -0.7985 -0.6905
14467TIP3    H243338   7.744   1.623   0.341 -1.3367 -0.4464  0.0746
14468TIP3   OH243339   2.378   7.086   6.643  0.0094  0.0727 -0.4175
14468TIP3    H143340   2.410   7.011   6.692 -1.9155 -0.5780 -0.1028
14468TIP3    H243341   2.376   7.056   6.552 -1.1965 -0.4483 -0.2363
14469TIP3   OH243342   1.190   4.460   1.047 -0.0431  0.1863 -0.0076
14469TIP3    H143343   1.109   4.480   1.001 -0.0551 -0.3069 -0.2025
14469TIP3    H243344   1.257   4.512   1.002 -0.4756  1.6659  1.0282
14470TIP3   OH243345   7.485   0.853   0.287  0.0119 -0.0279 -0.1505
14470TIP3    H143346   7.483   0.774   0.342 -2.5750 -0.0462 -0.2386
14470TIP3    H243347   7.497   0.820   0.198  0.7206 -0.1933 -0.0023
14471TIP3   OH243348   7.499   2.741   2.680  0.1562 -0.7597 -0.0309
14471TIP3    H143349   7.533   2.652   2.677  2.3784  0.0470  0.1119
14471TIP3    H243350   7.476   2.762   2.589  2.9891 -0.2650 -0.6818
14472TIP3   OH243351   0.586   1.756   2.166 -0.6192 -0.5367 -0.2394
14472TIP3    H143352   0.617   1.834   2.211  0.1433 -0.0170 -1.6407
14472TIP3    H243353   0.630   1.684   2.211 -1.0350 -0.1524  0.8104
14473TIP3   OH243354   0.380   0.134   1.895  0.3476  0.1648  0.0776
14473TIP3    H143355   0.454   0.194   1.906  0.6899 -0.5128  1.5469
14473TIP3    H243356   0.395   0.064   1.958 -2.8051  1.2837  2.2472
14474TIP3   OH243357   1.376   1.223   1.066 -0.1300 -0.2858 -0.4136
14474TIP3    H143358   1.399   1.194   1.154  0.1913 -0.8043 -0.6613
14474TIP3    H243359   1.459   1.254   1.029 -0.2138 -0.3050 -0.6192
14475TIP3   OH243360   8.124   2.874   0.620 -0.2212 -0.4292  0.5412
14475TIP3    H143361   8.196   2.919   0.576 -1.5396  1.1113 -0.0827
14475TIP3    H243362   8.111   2.794   0.570 -0.7935  0.6474 -1.0421
14476TIP3   OH243363   7.759   1.200   1.534 -0.5078 -0.6608 -0.0680
14476TIP3    H143364   7.811   1.280   1.540 -0.0563 -0.7556 -2.3574
14476TIP3    H243365   7.676   1.229   1.496 -0.4624 -1.2201 -0.6022
14477TIP3   OH243366   7.576   4.909   1.140  0.4178 -0.1675 -0.7873
14477TIP3    H143367   7.487   4.874   1.145  0.3039  0.1147 -0.8174
14477TIP3    H243368   7.631   4.844   1.184 -0.1327  0.8041  1.4048
14478TIP3   OH243369   0.956   0.667   3.201 -0.0245  0.3014 -0.0627
14478TIP3    H143370   1.002   0.659   3.117  0.1190  1.0070 -0.0593
14478TIP3    H243371   0.916   0.582   3.215 -2.2636  0.9741 -2.1394
14479TIP3   OH243372   7.443   0.136   6.419  0.1828  0.2760  0.1420
14479TIP3    H143373   7.475   0.182   6.341  2.2323  0.2891  0.9712
14479TIP3    H243374   7.504   0.063   6.430 -0.4078 -0.0260  1.4459
14480TIP3   OH243375   7.894   1.191   2.241  0.5901  0.1399  0.2638
14480TIP3    H143376   7.842   1.119   2.275  3.0299 -1.2766  1.0926
14480TIP3    H243377   7.829   1.255   2.210 -1.6049 -2.0342  0.2206
14481TIP3   OH243378   3.642   6.738   4.636 -0.2653  0.3671  0.3644
14481TIP3    H143379   3.706   6.675   4.668  1.4678  2.3353  0.9357
14481TIP3    H243380   3.660   6.744   4.542  1.1542  1.7037  0.6989
14482TIP3   OH243381   2.269   3.674   0.046  0.1019 -0.0396 -0.2719
14482TIP3    H143382   2.242   3.660  -0.044 -0.2349 -1.6854  0.0549
14482TIP3    H243383   2.187   3.679   0.096  0.2421  2.3012 -0.2227
14483TIP3   OH243384   1.000   2.655   0.190  0.0204  0.0840  0.4072
14483TIP3    H143385   0.958   2.572   0.165  1.6224 -0.6717  0.1384
14483TIP3    H243386   1.094   2.637   0.183  0.3820  2.0557 -0.0604
14484TIP3   OH243387   0.161   2.294   0.714  0.3705 -0.3282  0.0580
14484TIP3    H143388   0.160   2.376   0.666 -1.6029 -0.7920 -0.7195
14484TIP3    H243389   0.195   2.317   0.801  0.7331  1.1198 -0.4731
14485TIP3   OH243390   1.288   6.407   5.669 -0.9276 -0.0100 -0.4186
14485TIP3    H143391   1.370   6.456   5.668 -1.6691  1.2455 -1.8236
14485TIP3    H243392   1.262   6.406   5.761 -0.3320  1.2847 -0.2269
14486TIP3   OH243393   2.197   6.243   6.363 -0.3372 -0.0568 -0.5729
14486TIP3    H143394   2.110   6.236   6.322  0.1519 -2.5961 -1.2432
14486TIP3    H243395   2.179   6.254   6.456 -1.3956  1.3342 -0.9242
14487TIP3   OH243396   0.257   1.679   0.771 -0.0412  0.0923  0.1652
14487TIP3    H143397   0.352   1.690   0.766 -0.0811  0.4327  0.1022
14487TIP3    H243398   0.245   1.594   0.812  0.2907 -0.8138 -1.5818
14488TIP3   OH243399   7.612   1.263   2.940 -0.0717 -0.1571 -0.2512
14488TIP3    H143400   7.548   1.207   2.897 -0.5528 -0.6433  1.0756
14488TIP3    H243401   7.569   1.348   2.946 -0.5298 -0.4287  0.4460
14489TIP3   OH243402   8.157   2.990   0.916 -0.4378  0.1178 -0.5785
14489TIP3    H143403   8.146   2.965   0.824  0.9351 -0.0442 -0.7168
14489TIP3    H243404   8.073   2.970   0.957 -1.7027  1.9102 -2.1881
14490TIP3   OH243405   4.053   6.616   6.921  0.0898  0.4631 -0.2985
14490TIP3    H143406   4.076   6.578   6.836 -1.4386 -0.3853 -0.3523
14490TIP3    H243407   4.091   6.556   6.986 -0.5953 -0.0808 -0.3905
14491TIP3   OH243408   0.887   2.477   0.435 -0.0167  0.4633  0.1788
14491TIP3    H143409   0.855   2.424   0.509 -0.7760  1.1494  0.3507
14491TIP3    H243410   0.976   2.502   0.460  0.2267 -0.4495  0.2448
14492TIP3   OH243411   0.366   0.993   2.574 -0.0322 -0.2681 -0.2132
14492TIP3    H143412   0.393   1.044   2.498  0.7573 -1.5916 -0.8291
14492TIP3    H243413   0.331   1.058   2.635  1.1940  1.0356 -0.8714
14493TIP3   OH243414   0.302   0.138   3.485  0.2512 -0.5457  0.1399
14493TIP3    H143415   0.391   0.108   3.503  0.3168  0.5563  1.7080
14493TIP3    H243416   0.264   0.068   3.431  1.8614 -1.3028 -0.0387
14494TIP3   OH243417   6.210   3.843   2.174  0.4312  0.3097 -0.1131
14494TIP3    H143418   6.220   3.766   2.230  0.9340  2.4172  2.8152
14494TIP3    H243419   6.117   3.865   2.181  0.3728  0.2151 -0.6124
14495TIP3   OH243420   8.066   4.351   0.950 -0.3784  0.1443 -0.4662
14495TIP3    H143421   8.005   4.392   1.010  0.5642  1.1595 -0.1910
14495TIP3    H243422   8.011   4.307   0.886 -1.4267 -2.3386  2.0351
14496TIP3   OH243423   0.137   1.971   1.769 -0.2753  0.9996  0.0586
14496TIP3    H143424   0.122   1.903   1.703  0.2966  0.8435  0.0832
14496TIP3    H243425   0.104   2.052   1.729  0.4653  0.9816 -0.5932
14497TIP3   OH243426   0.715   3.334   2.082  0.0165 -0.3597  0.1326
14497TIP3    H143427   0.756   3.248   2.070  1.2090  0.3204 -0.6736
14497TIP3    H243428   0.654   3.342   2.009  0.3505 -0.2639 -0.1371
14498TIP3   OH243429   7.162   2.613   2.239  0.0970 -0.6556 -0.2037
14498TIP3    H143430   7.130   2.533   2.196  0.0912 -0.3415 -0.7891
14498TIP3    H243431   7.097   2.679   2.217  0.1332 -0.4714  0.2385
14499TIP3   OH243432   5.996   2.783   1.994  0.1126  0.4920  0.3077
14499TIP3    H143433   5.961   2.764   2.082  1.2512 -0.8923  0.4841
14499TIP3    H243434   5.981   2.876   1.981 -0.5673  0.5927  1.7542
14500TIP3   OH243435   7.400   4.060   1.109 -0.0663 -0.2134  0.2775
14500TIP3    H143436   7.352   4.024   1.035 -0.8777 -1.0776  1.2196
14500TIP3    H243437   7.439   3.984   1.152 -1.8943 -0.0272  2.3442
14501TIP3   OH243438   3.487   3.891   1.209 -0.1968  0.2504  0.5129
14501TIP3    H143439   3.448   3.916   1.293  0.0090  1.6988  0.1908
14501TIP3    H243440   3.573   3.935   1.209 -0.4271  0.7100 -0.6896
14502TIP3   OH243441   3.277   7.062   6.502  0.4041  0.0574  0.0371
14502TIP3    H143442   3.340   7.011   6.553  0.3900 -1.3089 -1.2791
14502TIP3    H243443   3.192   7.039   6.538  0.4704 -0.1061  0.0891
14503TIP3   OH243444   0.198   1.209   2.725  0.0290 -0.0659 -0.3912
14503TIP3    H143445   0.211   1.238   2.815  0.4237  0.0991 -0.4965
14503TIP3    H243446   0.195   1.290   2.674  1.7275 -0.2070 -0.7637
14504TIP3   OH243447   1.925   3.432   3.113 -0.1857  0.4904  0.5995
14504TIP3    H143448   1.865   3.362   3.141 -1.2192  0.9000 -0.5678
14504TIP3    H243449   1.907   3.504   3.174  0.3909 -0.0046  1.3684
14505TIP3   OH243450   8.378   4.555   1.271 -0.2782 -0.4266  0.9841
14505TIP3    H143451   8.313   4.488   1.251  1.4090 -1.7039 -0.3493
14505TIP3    H243452   8.372   4.567   1.366 -1.2295 -1.8048  1.1063
14506TIP3   OH243453   0.767   1.797   0.482  0.3670 -0.6922 -0.0880
14506TIP3    H143454   0.814   1.862   0.534 -1.2502  0.0922  0.4205
14506TIP3    H243455   0.793   1.713   0.519  1.3517 -0.2798  0.1834
14507TIP3   OH243456   3.887   7.275   6.671  0.0477  0.5922  0.1819
14507TIP3    H143457   3.930   7.191   6.657 -2.0171 -0.3218 -0.8532
14507TIP3    H243458   3.901   7.294   6.763 -1.2626 -1.9364  0.9431
14508TIP3   OH243459   1.774   0.378   1.186  0.3289  0.7850 -0.5089
14508TIP3    H143460   1.709   0.441   1.217  1.1533  1.6595 -0.5196
14508TIP3    H243461   1.783   0.315   1.257 -0.2046  0.9033 -0.3338
14509TIP3   OH243462   0.165   3.284   1.997 -0.7024  0.4638  0.3368
14509TIP3    H143463   0.117   3.350   2.048  1.0862  1.6886  0.4600
14509TIP3    H243464   0.233   3.252   2.056 -1.0711 -0.9728  0.0170
14510TIP3   OH243465   2.091   2.741   2.194 -0.8185 -0.3268 -0.7381
14510TIP3    H143466   2.023   2.808   2.184 -0.1627  0.1939 -1.9067
14510TIP3    H243467   2.165   2.775   2.143 -0.0417 -1.3629 -0.3192
14511TIP3   OH243468   0.240   5.975   6.877  0.3430  0.1914  0.2739
14511TIP3    H143469   0.243   5.880   6.866 -1.0307  0.2433 -0.6768
14511TIP3    H243470   0.150   5.999   6.855  0.9653  1.8346 -0.5696
14512TIP3   OH243471   0.466   3.330   1.337 -0.0512  0.1934  0.2124
14512TIP3    H143472   0.484   3.408   1.284  3.1939  0.0255  0.9365
14512TIP3    H243473   0.462   3.258   1.274  0.4358  0.4754 -0.1449
14513TIP3   OH243474   1.111   2.275   3.415  0.7815 -0.5240 -0.1765
14513TIP3    H143475   1.068   2.317   3.490  0.0238  0.3995 -1.1267
14513TIP3    H243476   1.173   2.214   3.455  0.1412 -0.2868  1.2103
14514TIP3   OH243477   5.602   4.751   6.561  0.2502  0.2821 -0.3774
14514TIP3    H143478   5.581   4.663   6.592  0.7475 -0.4157 -1.9641
14514TIP3    H243479   5.574   4.809   6.632  0.5888 -1.1962  1.0002
14515TIP3   OH243480   2.631   5.432   5.773 -0.2448 -0.1598  0.7679
14515TIP3    H143481   2.573   5.377   5.721 -0.5813  0.7249  0.1841
14515TIP3    H243482   2.574   5.473   5.838 -0.5566  1.7701 -0.6700
14516TIP3   OH243483   6.106   2.214   2.052 -0.3309 -0.3290  0.1758
14516TIP3    H143484   6.160   2.189   2.127  0.6189 -2.5924 -1.2003
14516TIP3    H243485   6.161   2.274   2.002 -0.7611  0.7471  0.9487
14517TIP3   OH243486   0.077   1.083   3.225  0.1648 -0.0641 -0.6290
14517TIP3    H143487   0.083   1.020   3.296 -0.5986 -1.0981 -1.4531
14517TIP3    H243488   0.166   1.090   3.190  0.6308  0.8099  0.7131
14518TIP3   OH243489   3.003   7.384   6.097 -0.7448 -0.0333  0.0412
14518TIP3    H143490   3.094   7.402   6.075 -0.7588 -0.2577 -0.2002
14518TIP3    H243491   2.995   7.411   6.189 -0.9211  1.7655 -0.4787
14519TIP3   OH243492   8.160   2.256   1.136  0.2437 -0.2329  0.1336
14519TIP3    H143493   8.176   2.336   1.186  0.3900  0.1305 -0.4801
14519TIP3    H243494   8.100   2.205   1.189  0.2899  0.2095  0.6124
14520TIP3   OH243495   8.510   5.128   1.214  0.0149  0.2483 -0.3051
14520TIP3    H143496   8.481   5.136   1.305 -0.7057  1.0141 -0.5947
14520TIP3    H243497   8.500   5.036   1.194 -0.5446  0.2078  0.1541
14521TIP3   OH243498   1.735   0.953   1.026 -0.6035 -0.4815  0.1524
14521TIP3    H143499   1.775   1.040   1.022  0.8579 -1.1597 -0.5189
14521TIP3    H243500   1.758   0.920   1.114 -0.0353 -0.6981 -0.0734
14522TIP3   OH243501   8.215   2.026   2.782 -0.2607 -0.3118 -0.1373
14522TIP3    H143502   8.175   1.983   2.707  0.0625  1.2812 -1.2246
14522TIP3    H243503   8.146   2.082   2.818  0.1357  0.2913 -0.3206
14523TIP3   OH243504   1.774   2.240   0.172 -0.6221  0.4042 -0.5960
14523TIP3    H143505   1.842   2.258   0.237 -1.4738 -0.0358  0.4273
14523TIP3    H243506   1.735   2.326   0.155  0.3471  0.7068 -1.3960
14524TIP3   OH243507   1.595   1.776   2.216 -0.0371  0.0694  0.1104
14524TIP3    H143508   1.680   1.816   2.236 -0.1549  1.0491 -1.2886
14524TIP3    H243509   1.617   1.703   2.157 -0.1505  0.1898 -0.0790
14525TIP3   OH243510   4.914   1.470   0.226 -0.6588 -0.7256  0.0132
14525TIP3    H143511   4.916   1.535   0.156  0.1708  0.1928  0.8694
14525TIP3    H243512   4.838   1.496   0.279  1.0787  1.0726  1.7373
14526TIP3   OH243513   4.256   6.782   6.180 -0.0083 -0.3360  0.0173
14526TIP3    H143514   4.246   6.857   6.239 -0.1723 -1.2163  1.1362
14526TIP3    H243515   4.327   6.806   6.121 -0.6447  1.0490 -0.1881
14527TIP3   OH243516   0.576   2.464   1.740  0.1121  0.1934  0.0284
14527TIP3    H143517   0.563   2.409   1.663  1.3399  0.0945 -0.1191
14527TIP3    H243518   0.579   2.553   1.705  2.6122  0.0112 -0.3039
14528TIP3   OH243519   3.069   6.575   6.690 -0.2671  0.3570  0.1672
14528TIP3    H143520   2.979   6.571   6.658 -0.1970  0.0764  0.0065
14528TIP3    H243521   3.108   6.492   6.662 -0.1612  0.1724  0.8522
14529TIP3   OH243522   7.245   2.309   1.923 -0.1624 -0.0692  0.3767
14529TIP3    H143523   7.243   2.255   1.843  0.5823 -1.8260  1.5006
14529TIP3    H243524   7.259   2.398   1.891 -1.6665 -0.4828 -1.5606
14530TIP3   OH243525   0.924   1.617   1.212 -0.1255  0.4555 -0.1830
14530TIP3    H143526   0.978   1.687   1.249 -0.0801  0.4275 -0.1966
14530TIP3    H243527   0.944   1.617   1.119  1.2932 -0.8247  0.1068
14531TIP3   OH243528   7.439   3.230   0.796 -0.1704 -0.4240 -0.1473
14531TIP3    H143529   7.531   3.229   0.769 -0.2444  0.0164 -0.4119
14531TIP3    H243530   7.405   3.313   0.763 -0.7374 -0.7099 -0.2806
14532TIP3   OH243531   1.701   7.319   6.565  0.4843 -0.0265  0.1732
14532TIP3    H143532   1.787   7.348   6.537  0.7838 -0.0405  1.0477
14532TIP3    H243533   1.718   7.267   6.643 -0.3321  0.1267  0.4599
14533TIP3   OH243534   1.086   4.313   5.497 -0.1996  0.4715  0.5032
14533TIP3    H143535   1.025   4.382   5.471  0.5966  0.8548 -0.4134
14533TIP3    H243536   1.142   4.354   5.563  0.5543  0.8566 -0.3591
14534TIP3   OH243537   4.266   5.898   5.763 -0.0053 -0.2888  0.3669
14534TIP3    H143538   4.319   5.857   5.832  1.1968 -0.1971 -0.4792
14534TIP3    H243539   4.235   5.825   5.709  0.6362 -0.2298 -0.0906
14535TIP3   OH243540   2.386   3.439   3.311 -0.4593  0.4188 -0.6088
14535TIP3    H143541   2.456   3.437   3.247 -0.5269  1.8122 -0.7573
14535TIP3    H243542   2.315   3.486   3.268 -1.2851 -0.5213 -0.2751
14536TIP3   OH243543   5.837   7.406   6.320  0.4062 -0.2300  0.3739
14536TIP3    H143544   5.781   7.481   6.339 -0.3849 -0.5830 -0.5124
14536TIP3    H243545   5.783   7.330   6.341  1.7043 -0.5656  2.6671
14537TIP3   OH243546   0.059   4.003   1.938  0.3437  0.0013 -0.5020
14537TIP3    H143547   0.143   4.042   1.914  0.5103 -0.9365 -1.5182
14537TIP3    H243548   0.044   4.031   2.028  1.3307  0.8802 -0.6032
14538TIP3   OH243549   0.309   5.562   1.555  0.3331  0.1367  0.7435
14538TIP3    H143550   0.328   5.635   1.614  0.9226  0.8095 -0.2718
14538TIP3    H243551   0.374   5.569   1.485  0.3207 -1.2929  0.5670
14539TIP3   OH243552   7.910   3.648   0.655  0.2022 -0.5925  0.1318
14539TIP3    H143553   7.866   3.579   0.705 -0.1832  0.1012  0.7574
14539TIP3    H243554   7.984   3.604   0.614 -0.2116 -1.4427  0.2920
14540TIP3   OH243555   2.103   5.126   1.457  0.4687 -0.0688  0.3400
14540TIP3    H143556   2.071   5.203   1.503 -0.2210  0.1816 -0.5367
14540TIP3    H243557   2.046   5.119   1.380 -0.4176 -2.2896  1.1571
14541TIP3   OH243558   2.025   4.026   0.694 -0.0431  0.0170 -0.8207
14541TIP3    H143559   1.963   4.060   0.629  0.1651  1.7967 -0.1224
14541TIP3    H243560   2.111   4.044   0.656  0.0757  0.7348 -0.2157
14542TIP3   OH243561   6.544   5.383   6.902 -0.1985 -0.4320 -0.7675
14542TIP3    H143562   6.610   5.314   6.912 -0.8294 -0.7237  1.6660
14542TIP3    H243563   6.505   5.392   6.989 -0.6524  2.4736 -1.2058
14543TIP3   OH243564   1.149   1.837   0.847 -0.0719 -0.5407 -0.4448
14543TIP3    H143565   1.120   1.782   0.919 -1.3570 -0.4138 -0.8582
14543TIP3    H243566   1.225   1.885   0.882 -0.7117 -0.4376  0.8309
14544TIP3   OH243567   0.560   3.066   1.993 -0.4319 -0.1937  0.3063
14544TIP3    H143568   0.566   3.022   1.908 -0.2486  0.4646 -0.0246
14544TIP3    H243569   0.651   3.073   2.023 -0.2645  1.7601 -0.5794
14545TIP3   OH243570   4.122   5.870   6.883 -0.1021  0.1274  0.3912
14545TIP3    H143571   4.116   5.893   6.976  2.1828  3.0881 -0.1086
14545TIP3    H243572   4.036   5.834   6.862 -1.6944  2.2198  2.9455
14546TIP3   OH243573   8.242   0.365   6.746 -0.4272  0.3633 -0.1549
14546TIP3    H143574   8.227   0.458   6.761  0.4597  0.4413  0.2926
14546TIP3    H243575   8.237   0.326   6.833 -0.1488  0.0861 -0.2629
14547TIP3   OH243576   0.862   1.665   0.219 -0.8640  0.7225 -0.0135
14547TIP3    H143577   0.926   1.598   0.195 -0.3760  1.5647 -1.1167
14547TIP3    H243578   0.830   1.638   0.305 -0.6804 -0.9261 -0.4426
14548TIP3   OH243579   0.668   0.784   6.151  0.4694 -0.2022 -0.2200
14548TIP3    H143580   0.669   0.831   6.234 -0.2148  0.9733 -0.8600
14548TIP3    H243581   0.725   0.709   6.165 -0.3110 -0.4848  1.5863
14549TIP3   OH243582   1.142   3.546   2.672 -0.3163 -0.8122 -0.0172
14549TIP3    H143583   1.173   3.633   2.697  1.7511 -0.8506 -2.2171
14549TIP3    H243584   1.213   3.509   2.620 -1.6917 -3.3139 -0.2131
14550TIP3   OH243585   2.887   3.173   0.373  0.1847 -0.0873 -0.5668
14550TIP3    H143586   2.940   3.202   0.299 -1.9521  1.0003 -1.7095
14550TIP3    H243587   2.860   3.084   0.351  2.3910 -1.0793  0.5346
14551TIP3   OH243588   3.897   6.704   6.133  0.4944  0.1401 -0.2100
14551TIP3    H143589   3.935   6.644   6.198  1.2292 -0.5045 -1.2084
14551TIP3    H243590   3.958   6.777   6.129  1.1596 -0.4454 -1.1179
14552TIP3   OH243591   6.887   0.744   5.933 -0.8530  0.0211 -0.1706
14552TIP3    H143592   6.826   0.814   5.910 -0.4553  0.1676 -0.7918
14552TIP3    H243593   6.836   0.664   5.919 -0.8045  0.1325 -1.0063
14553TIP3   OH243594   2.763   2.226   0.865  0.4139 -0.2746  0.5751
14553TIP3    H143595   2.707   2.303   0.873 -1.2999 -1.1507 -2.1844
14553TIP3    H243596   2.830   2.253   0.802 -0.0136 -0.9277 -0.1646
14554TIP3   OH243597   4.146   6.327   5.448 -0.5186 -0.1070  0.1053
14554TIP3    H143598   4.152   6.263   5.518 -0.9408  1.7950  1.9254
14554TIP3    H243599   4.237   6.341   5.420 -0.3455 -0.8313  0.3043
14555TIP3   OH243600   2.267   1.139   0.926 -0.1111 -0.3986 -0.1805
14555TIP3    H143601   2.236   1.216   0.975  0.4442 -0.6547  0.5691
14555TIP3    H243602   2.210   1.068   0.955 -0.4805 -0.3215 -0.7102
14556TIP3   OH243603   2.042   5.039   0.289  0.3207 -0.1320  0.6056
14556TIP3    H143604   2.121   5.036   0.342  0.2835  0.1167  0.6768
14556TIP3    H243605   2.071   5.077   0.206  0.7038 -1.9808 -0.1324
14557TIP3   OH243606   3.170   6.904   4.818  0.1208  0.0162  0.0813
14557TIP3    H143607   3.249   6.871   4.775 -0.9650  0.2847 -2.1984
14557TIP3    H243608   3.125   6.825   4.848  0.8693 -0.1802  0.6887
14558TIP3   OH243609   4.693   4.364   6.664 -0.2455  0.8896 -0.3127
14558TIP3    H143610   4.709   4.269   6.664  0.9017  1.0794  0.5539
14558TIP3    H243611   4.622   4.376   6.727  0.0255  0.6822  0.0309
14559TIP3   OH243612   3.876   4.001   1.423 -0.3362 -0.4325  0.0358
14559TIP3    H143613   3.839   3.990   1.335 -0.6293 -1.9038  0.3282
14559TIP3    H243614   3.919   4.086   1.420  0.6674 -0.9667 -1.8905
14560TIP3   OH243615   4.170   6.267   6.160 -0.3290  0.1120  0.0940
14560TIP3    H143616   4.172   6.210   6.237  1.1065  0.6093  0.4419
14560TIP3    H243617   4.239   6.231   6.103  0.6771  1.5569  0.3708
14561TIP3   OH243618   3.887   7.294   5.823  0.2101 -0.2104  0.6723
14561TIP3    H143619   3.821   7.337   5.878  0.1552 -0.8977  1.1615
14561TIP3    H243620   3.887   7.344   5.742 -0.4375  0.2107  0.9253
14562TIP3   OH243621   2.599   4.664   0.866  0.4106  0.1327  0.0465
14562TIP3    H143622   2.599   4.684   0.960  0.7464 -1.6404  0.4449
14562TIP3    H243623   2.535   4.724   0.828  0.7040  1.2739  1.3198
14563TIP3   OH243624   0.902   2.356   0.794 -0.6882  0.0067  0.0054
14563TIP3    H143625   0.835   2.336   0.860 -2.5290  2.2519 -1.1270
14563TIP3    H243626   0.892   2.287   0.729 -1.0555 -0.3575  0.4408
14564TIP3   OH243627   8.192   4.559   1.492  0.2256 -0.1000  0.2036
14564TIP3    H143628   8.201   4.582   1.585 -0.2267  0.5739  0.0846
14564TIP3    H243629   8.190   4.463   1.491  1.1952 -0.1333  0.7985
14565TIP3   OH243630   7.864   0.543   6.370 -0.3601  0.0239  0.2591
14565TIP3    H143631   7.893   0.634   6.363 -0.4533  0.0518  0.2356
14565TIP3    H243632   7.928   0.501   6.428  0.0624 -0.0554 -0.2602
14566TIP3   OH243633   4.257   7.231   6.895  0.5777 -0.0236 -0.0145
14566TIP3    H143634   4.258   7.264   6.805 -0.2833 -0.7202 -0.2874
14566TIP3    H243635   4.238   7.309   6.948  1.8870  0.5404 -0.3602
14567TIP3   OH243636   3.876   4.257   1.154  0.2755 -0.1119  0.0051
14567TIP3    H143637   3.969   4.235   1.155  0.0847 -0.9286 -0.0621
14567TIP3    H243638   3.856   4.280   1.245  0.1621 -1.5789  0.3629
14568TIP3   OH243639   5.188   4.855   5.972  0.0925  0.1903  0.1845
14568TIP3    H143640   5.212   4.776   6.020  0.1042 -0.5071 -0.9366
14568TIP3    H243641   5.192   4.925   6.037  4.6091  0.0464  0.2597
14569TIP3   OH243642   0.770   4.227   2.619 -0.0830  0.4862  0.7314
14569TIP3    H143643   0.756   4.281   2.541 -1.0182  0.9898  1.2390
14569TIP3    H243644   0.688   4.179   2.630  0.1403  0.2220  1.2488
14570TIP3   OH243645   2.247   7.678   6.400  0.3959 -0.2862 -0.1050
14570TIP3    H143646   2.244   7.719   6.486  0.5761  0.2768 -0.3643
14570TIP3    H243647   2.183   7.607   6.405 -0.4324  0.4666  0.1287
14571TIP3   OH243648   2.362   3.475   1.528 -0.5904  0.1189  1.0240
14571TIP3    H143649   2.329   3.387   1.544  1.5544 -0.6403  1.5159
14571TIP3    H243650   2.444   3.479   1.577  0.7056  1.4660 -1.1593
14572TIP3   OH243651   3.313   4.398  -0.005  0.4659  0.1680 -0.5878
14572TIP3    H143652   3.267   4.470   0.040  1.2438 -0.1779  0.7640
14572TIP3    H243653   3.401   4.431  -0.019  1.2229 -1.0228  1.2551
14573TIP3   OH243654   2.509   3.468   0.211 -0.4198  0.4182 -0.4231
14573TIP3    H143655   2.457   3.403   0.164 -0.7651 -0.2188  0.8257
14573TIP3    H243656   2.535   3.424   0.292  0.6723  1.2958 -0.2825
14574TIP3   OH243657   0.253   3.118   0.188 -0.2440  0.3202 -0.0912
14574TIP3    H143658   0.321   3.169   0.232  1.5724  0.2573 -2.7701
14574TIP3    H243659   0.273   3.027   0.211 -0.3152  0.4013  0.3054
14575TIP3   OH243660   2.679   3.609   0.879 -0.1216  0.2107  0.1053
14575TIP3    H143661   2.586   3.615   0.854  0.4969  0.6228 -2.1893
14575TIP3    H243662   2.698   3.692   0.921 -0.6513  0.3689  0.0356
14576TIP3   OH243663   3.675   7.424   5.980 -0.2149  0.1371 -0.4216
14576TIP3    H143664   3.702   7.460   6.064 -1.4166  0.3497 -0.1183
14576TIP3    H243665   3.626   7.345   6.003  0.8381 -0.6895 -0.9997
14577TIP3   OH243666   4.537   7.898   6.103 -0.7316 -0.2177 -0.1644
14577TIP3    H143667   4.525   7.919   6.196  0.3206  0.2537 -0.1220
14577TIP3    H243668   4.449   7.896   6.067 -1.1233 -0.0159  0.7697
14578TIP3   OH243669   0.736   2.799   2.291 -0.0305 -0.0642 -0.4289
14578TIP3    H143670   0.741   2.860   2.218  0.2289 -0.9318 -1.1427
14578TIP3    H243671   0.790   2.725   2.264 -1.0275 -0.9839  0.0638
14579TIP3   OH243672   3.289   5.011   0.474 -0.3364  0.4636  0.3689
14579TIP3    H143673   3.213   5.054   0.436  0.1982  0.2450 -0.9681
14579TIP3    H243674   3.277   5.020   0.569 -0.9292  2.2969  0.1233
14580TIP3   OH243675   4.782   7.924   6.464  0.1127 -0.2484  0.2443
14580TIP3    H143676   4.826   7.946   6.546 -0.6036 -1.4291  0.9575
14580TIP3    H243677   4.853   7.900   6.405  0.5162 -1.1679  1.0840
14581TIP3   OH243678   3.510   6.272   6.355  0.0280 -0.0057  0.7029
14581TIP3    H143679   3.550   6.201   6.304  2.0117  0.9144  0.9489
14581TIP3    H243680   3.556   6.271   6.439  0.9486  2.3296  0.2724
14582TIP3   OH243681   5.071   0.727   5.981  0.5156 -0.0078 -0.4517
14582TIP3    H143682   5.033   0.800   5.932 -0.3707  0.3096  0.6764
14582TIP3    H243683   5.016   0.651   5.957  1.1867 -0.2286 -1.3113
14583TIP3   OH243684   3.878   6.143   6.859 -0.5128  0.3378 -0.7074
14583TIP3    H143685   3.814   6.177   6.922 -0.8037  2.2729 -1.9962
14583TIP3    H243686   3.865   6.048   6.860 -1.4316  0.4545  1.1429
14584TIP3   OH243687   2.716   3.518   0.633 -0.2901 -0.2235 -0.6510
14584TIP3    H143688   2.810   3.507   0.626 -0.3699 -1.6468  0.2360
14584TIP3    H243689   2.702   3.547   0.723 -0.7825 -1.2517 -0.3852
14585TIP3   OH243690   1.343   2.150   0.299  0.2408  0.3846 -1.0679
14585TIP3    H143691   1.436   2.170   0.308  0.3039 -0.2440 -0.2634
14585TIP3    H243692   1.298   2.223   0.341  0.3901  0.4200 -0.9709
14586TIP3   OH243693   2.185   4.489   1.835  0.2433 -0.3011 -0.5421
14586TIP3    H143694   2.265   4.435   1.841 -0.4523 -1.7100 -3.0772
14586TIP3    H243695   2.201   4.546   1.760 -1.2387 -0.8153 -1.2661
14587TIP3   OH243696   2.820   3.503   2.931  0.1872 -0.5334  0.0791
14587TIP3    H143697   2.850   3.547   2.852  0.4149 -0.5319  0.1666
14587TIP3    H243698   2.894   3.449   2.959  0.2481 -0.2305  0.5106
14588TIP3   OH243699   4.300   5.806   6.666 -0.1480 -0.1374  0.0395
14588TIP3    H143700   4.249   5.823   6.745  0.5841  1.6157  0.1392
14588TIP3    H243701   4.367   5.743   6.693 -0.1925  0.0986  0.6905
14589TIP3   OH243702   3.814   7.855   6.054  0.2488  0.1182  0.8304
14589TIP3    H143703   3.858   7.771   6.045 -0.0825 -0.0778  1.0396
14589TIP3    H243704   3.882   7.915   6.085  1.3200  0.6889 -2.4088
14590TIP3   OH243705   2.073   4.302   3.135  0.0526  0.0261 -0.2669
14590TIP3    H143706   2.129   4.234   3.172 -0.4748 -0.4795 -0.3881
14590TIP3    H243707   2.003   4.254   3.091 -1.5311  0.6501  1.4860
14591TIP3   OH243708   2.831   2.229   1.429  0.2461 -0.4933  0.2817
14591TIP3    H143709   2.870   2.224   1.342  0.1446 -0.7025  0.2488
14591TIP3    H243710   2.893   2.186   1.486  0.1865 -0.5941  0.2706
14592TIP3   OH243711   0.175   1.575   6.498 -1.3299 -0.2241 -0.2025
14592TIP3    H143712   0.158   1.616   6.414 -0.0472 -1.3262 -1.0306
14592TIP3    H243713   0.088   1.549   6.530 -1.7524 -0.5722 -1.5927
14593TIP3   OH243714   3.865   7.010   6.474 -0.6105 -0.2926 -0.6153
14593TIP3    H143715   3.787   7.054   6.439 -0.9421 -0.4077 -0.0229
14593TIP3    H243716   3.838   6.919   6.486 -0.7018 -0.1139  0.5547
14594TIP3   OH243717   1.261   1.394   0.860 -0.0099  0.2954 -0.0300
14594TIP3    H143718   1.350   1.394   0.823  0.4778  0.2649  1.1017
14594TIP3    H243719   1.265   1.328   0.929 -0.4947  1.3395  1.0090
14595TIP3   OH243720   0.433   2.650   2.307 -0.3048 -0.1430  0.1303
14595TIP3    H143721   0.516   2.677   2.346  0.0998  1.0743 -1.4861
14595TIP3    H243722   0.407   2.725   2.253 -3.2000  0.0950  1.7578
14596TIP3   OH243723   0.318   0.815   0.074  0.1743 -0.0630  0.0305
14596TIP3    H143724   0.222   0.811   0.076 -0.0711  4.0781  0.6719
14596TIP3    H243725   0.339   0.856  -0.009  1.3392  0.0349  0.3693
14597TIP3   OH243726   2.324   4.671   1.408 -0.5621  0.0041  0.1906
14597TIP3    H143727   2.268   4.660   1.485  0.2071  1.2098  0.9559
14597TIP3    H243728   2.267   4.713   1.343 -0.9109  0.0280  0.5101
14598TIP3   OH243729   1.047   3.303   0.295  0.4298  0.0652 -0.2193
14598TIP3    H143730   1.018   3.388   0.329 -0.5544  0.1802 -1.3115
14598TIP3    H243731   0.969   3.248   0.299  0.2293  0.1414 -2.4512
14599TIP3   OH243732   3.448   7.618   6.182 -0.1335  0.1932  0.5314
14599TIP3    H143733   3.397   7.612   6.101  0.7154 -1.4687  0.0836
14599TIP3    H243734   3.525   7.671   6.158  2.1417 -3.5559 -0.9158
14600TIP3   OH243735   7.528   0.234   6.178 -0.5409  0.0094  0.3115
14600TIP3    H143736   7.466   0.306   6.176 -0.2686  0.2181 -1.4639
14600TIP3    H243737   7.614   0.276   6.181 -0.3743 -0.2155 -0.8940
14601TIP3   OH243738   2.906   3.194   0.097 -0.0736 -0.0122  0.5303
14601TIP3    H143739   2.825   3.233   0.128 -0.1893  0.3902 -0.2616
14601TIP3    H243740   2.880   3.108   0.062  0.0927 -0.5612  1.7452
14602TIP3   OH243741   4.122   1.201   0.291 -0.5811 -0.1733 -0.2042
14602TIP3    H143742   4.114   1.233   0.201  0.8047  0.8277  0.0153
14602TIP3    H243743   4.152   1.276   0.341  1.8515 -1.5309  0.4731
14603TIP3   OH243744   5.191   6.427   5.031 -0.6218 -0.3670 -0.9478
14603TIP3    H143745   5.235   6.357   5.079  1.2669  0.0510 -2.0246
14603TIP3    H243746   5.253   6.500   5.033 -1.4536  0.3952 -2.1338
14604TIP3   OH243747   3.259   6.415   6.818 -0.5040  0.4000 -0.6153
14604TIP3    H143748   3.189   6.389   6.879 -0.4434  0.1018 -0.6729
14604TIP3    H243749   3.268   6.509   6.831  0.5845  0.0982  0.9830
14605TIP3   OH243750   0.360   1.385   0.680 -0.4333  0.3300  0.1064
14605TIP3    H143751   0.399   1.352   0.761 -1.3673 -0.2618  0.3157
14605TIP3    H243752   0.435   1.411   0.627  0.1890  0.5781  1.1000
14606TIP3   OH243753   0.851   3.925   0.684  0.1733 -0.5320 -0.4682
14606TIP3    H143754   0.793   3.957   0.752 -0.6212 -0.6675 -1.0768
14606TIP3    H243755   0.848   3.830   0.693 -0.3348 -0.5723 -1.0139
14607TIP3   OH243756   1.290   2.553   1.124  0.3624 -0.4922  0.0858
14607TIP3    H143757   1.361   2.601   1.082  0.2586 -1.6123 -1.4041
14607TIP3    H243758   1.331   2.477   1.163  0.1175 -0.6353  0.0666
14608TIP3   OH243759   4.229   2.131   0.338 -0.3456  0.0612 -0.5551
14608TIP3    H143760   4.205   2.219   0.364  0.1930  0.0715 -0.0785
14608TIP3    H243761   4.249   2.138   0.245  1.4006  0.8082 -0.1429
14609TIP3   OH243762   5.853   7.918   5.692  0.9940  0.2760 -0.3503
14609TIP3    H143763   5.770   7.881   5.663  1.4319  0.0591 -1.3594
14609TIP3    H243764   5.850   7.914   5.787 -0.9710  2.0622 -0.2950
14610TIP3   OH243765   2.204   1.886   0.179  0.3153  0.3765 -0.0115
14610TIP3    H143766   2.172   1.975   0.188  0.1361  0.3686 -0.5416
14610TIP3    H243767   2.141   1.832   0.227  0.4960  0.5446  0.4202
14611TIP3   OH243768   7.180   0.267   6.885 -0.5715 -0.0821  0.6212
14611TIP3    H143769   7.186   0.343   6.943 -1.8416 -0.9864  1.9713
14611TIP3    H243770   7.270   0.237   6.875 -0.2522  0.5693  1.4769
14612TIP3   OH243771   0.185   1.158   6.350 -0.0447  0.4738 -0.4896
14612TIP3    H143772   0.244   1.084   6.339 -0.4377 -0.1426  1.3482
14612TIP3    H243773   0.232   1.233   6.314 -0.0187 -0.7943 -3.2731
14613TIP3   OH243774   1.840   3.494   0.148 -0.0068  0.8507 -0.7007
14613TIP3    H143775   1.802   3.455   0.227 -1.3074  2.9901 -0.2108
14613TIP3    H243776   1.904   3.430   0.118  1.4615  0.5269  2.8483
14614TIP3   OH243777   0.190   3.633   0.510 -0.0234  0.1438 -0.5712
14614TIP3    H143778   0.237   3.611   0.591 -1.7828  0.0899  0.4536
14614TIP3    H243779   0.257   3.672   0.454  1.0632  0.8894  1.1982
14615TIP3   OH243780   1.675   7.799   5.458 -0.4862  0.0265 -0.1167
14615TIP3    H143781   1.597   7.851   5.476  0.0357  0.2130  1.7001
14615TIP3    H243782   1.655   7.713   5.493 -0.0402 -0.0523 -0.0573
14616TIP3   OH243783   8.385   3.026   1.999 -0.4420  0.0471  0.0789
14616TIP3    H143784   8.340   2.956   2.047 -1.7331  1.7820  1.4655
14616TIP3    H243785   8.316   3.090   1.980  0.9292  1.4882 -0.1433
14617TIP3   OH243786   3.198   2.244   0.450  0.5343 -0.2573  0.6855
14617TIP3    H143787   3.251   2.310   0.495  0.9573 -1.1843  1.5701
14617TIP3    H243788   3.116   2.241   0.499  0.1967  0.1953  0.1503
14618TIP3   OH243789   2.524   4.819   0.501 -0.9512 -0.3821  0.2207
14618TIP3    H143790   2.473   4.855   0.573 -0.7965 -0.2773  0.2780
14618TIP3    H243791   2.529   4.726   0.519  1.1260 -0.0286  1.6251
14619TIP3   OH243792   1.292   1.193   0.606 -0.0564 -0.1457  0.1816
14619TIP3    H143793   1.382   1.207   0.577 -0.6272 -0.0777 -1.6103
14619TIP3    H243794   1.282   1.097   0.608 -0.4632 -0.1593 -1.3761
14620TIP3   OH243795   1.764   3.389   1.337 -0.4501  0.1167 -0.0603
14620TIP3    H143796   1.763   3.443   1.258  2.7416  0.4549  0.0737
14620TIP3    H243797   1.673   3.391   1.368 -0.9853  3.0886 -1.5992
14621TIP3   OH243798   2.258   3.166   0.338  0.5730  0.1863  0.1403
14621TIP3    H143799   2.301   3.233   0.285 -2.0206  0.4905 -1.6631
14621TIP3    H243800   2.268   3.085   0.289 -0.4376  0.1589 -0.0293
14622TIP3   OH243801   5.095   6.543   6.336 -0.4150 -0.9338 -0.3302
14622TIP3    H143802   5.172   6.586   6.300  1.1946 -4.1889 -0.9754
14622TIP3    H243803   5.022   6.574   6.282  1.3857 -2.6242 -3.9288
14623TIP3   OH243804   4.953   5.391   5.844 -0.2740  0.3707  0.2921
14623TIP3    H143805   4.995   5.382   5.759 -0.9778 -0.6146  0.0369
14623TIP3    H243806   4.861   5.407   5.824 -0.1195  2.0058  0.8505
14624TIP3   OH243807   2.378   2.544   0.739 -0.1427 -0.5522 -0.2121
14624TIP3    H143808   2.441   2.553   0.668 -0.0766 -3.8067 -0.6386
14624TIP3    H243809   2.298   2.584   0.705  0.8658  1.0615 -0.7467
14625TIP3   OH243810   4.116   7.323   5.342  0.6619 -0.3583 -0.5451
14625TIP3    H143811   4.127   7.409   5.303  0.8443 -0.4988 -0.8067
14625TIP3    H243812   4.181   7.320   5.412  1.9850 -0.9943 -1.7562
14626TIP3   OH243813   3.637   7.151   6.717  0.6648 -0.1899 -0.2511
14626TIP3    H143814   3.722   7.194   6.702  0.9750 -1.1251 -1.1653
14626TIP3    H243815   3.649   7.104   6.800  0.9142 -0.0296 -0.1941
14627TIP3   OH243816   8.444   7.164   1.831  0.0003  0.3932  0.4849
14627TIP3    H143817   8.436   7.209   1.915 -0.0195  1.7804 -0.2436
14627TIP3    H243818   8.358   7.172   1.790 -0.2265 -0.9871  0.6686
14628TIP3   OH243819   1.971   7.380   6.510 -0.5535  0.3963 -0.1495
14628TIP3    H143820   2.030   7.416   6.445 -1.8831  0.9119 -1.0975
14628TIP3    H243821   2.001   7.289   6.522 -0.8718  0.0028 -2.1889
14629TIP3   OH243822   0.413   3.139   1.174  0.1775 -0.1994  0.2773
14629TIP3    H143823   0.378   3.178   1.093  0.0461 -0.6382  0.1237
14629TIP3    H243824   0.430   3.048   1.151 -1.8778 -0.8841  1.3336
14630TIP3   OH243825   2.441   1.304   0.435  0.1863 -0.2927 -0.0326
14630TIP3    H143826   2.420   1.224   0.387  0.3209 -0.4971  0.2498
14630TIP3    H243827   2.357   1.341   0.460  0.1271 -0.3950 -0.0824
14631TIP3   OH243828   1.774   3.233   1.014  0.2220 -0.4164 -0.3898
14631TIP3    H143829   1.747   3.323   1.028 -1.4509 -0.6579 -1.9742
14631TIP3    H243830   1.693   3.185   1.001  1.1481 -2.0067 -0.4886
14632TIP3   OH243831   4.834   5.696   6.552 -0.2914 -0.3220  0.1302
14632TIP3    H143832   4.917   5.648   6.542 -0.3751 -0.3413 -0.5353
14632TIP3    H243833   4.847   5.751   6.629  0.5488  0.0867 -0.2909
14633TIP3   OH243834   1.361   3.815   1.625 -0.2337 -0.1346  0.1417
14633TIP3    H143835   1.412   3.754   1.571 -0.0614 -0.0579  0.2165
14633TIP3    H243836   1.382   3.789   1.715  1.7785  1.6114  0.2142
14634TIP3   OH243837   4.655   6.632   6.100 -0.0519  0.2124 -0.2208
14634TIP3    H143838   4.581   6.602   6.152  1.6881 -1.8156  1.2056
14634TIP3    H243839   4.653   6.577   6.021  0.6811 -0.7931  0.4436
14635TIP3   OH243840   1.450   5.420   4.326 -0.0510  0.2317 -0.4821
14635TIP3    H143841   1.369   5.373   4.308  0.0601 -0.8757  1.6883
14635TIP3    H243842   1.519   5.357   4.304  0.2371  1.0320 -1.9439
14636TIP3   OH243843   1.321   0.784   1.565  0.1072  0.4423 -0.4025
14636TIP3    H143844   1.253   0.742   1.513  1.6303 -1.0944 -1.1800
14636TIP3    H243845   1.290   0.777   1.655 -1.3891  0.9587 -0.8606
14637TIP3   OH243846   1.608   4.939   0.622  0.1130  0.7371 -0.8269
14637TIP3    H143847   1.513   4.930   0.636  0.1609  0.8464 -0.3985
14637TIP3    H243848   1.619   5.030   0.593  0.0175  0.5251 -1.5345
14638TIP3   OH243849   4.544   7.677   6.883 -0.1942  0.0426  0.2124
14638TIP3    H143850   4.563   7.633   6.799 -1.1208 -0.8045  0.4440
14638TIP3    H243851   4.586   7.621   6.948  1.6779  1.4086  0.2290
14639TIP3   OH243852   2.398   0.984   1.210 -0.1484  0.1998  0.1517
14639TIP3    H143853   2.407   1.079   1.211 -1.5429  0.3547 -0.4796
14639TIP3    H243854   2.339   0.964   1.283  0.5477 -0.2405  0.6075
14640TIP3   OH243855   1.244   1.912   0.382  0.1374  0.0397  0.6127
14640TIP3    H143856   1.293   1.853   0.324 -1.2053 -0.0154 -0.5141
14640TIP3    H243857   1.273   2.000   0.358  1.5620 -0.1086  1.7453
14641TIP3   OH243858   2.338   4.447   3.079 -0.2218  0.5972  0.2709
14641TIP3    H143859   2.433   4.433   3.087 -0.4013 -1.5095 -0.8560
14641TIP3    H243860   2.300   4.402   3.154 -0.3241  1.9652  1.0658
14642TIP3   OH243861   0.806   2.679   2.832  0.4518  0.0020  0.0661
14642TIP3    H143862   0.844   2.607   2.781 -0.5118  0.8695 -1.9385
14642TIP3    H243863   0.743   2.719   2.773 -0.0902  1.5952  1.6803
14643TIP3   OH243864   0.338   3.823   0.361  0.0382  0.0462  0.4585
14643TIP3    H143865   0.415   3.804   0.416  0.8232  1.1861 -0.2251
14643TIP3    H243866   0.308   3.908   0.391 -0.1431  0.2107 -0.1962
14644TIP3   OH243867   2.446   1.754   0.978  0.0084 -0.0266 -0.1752
14644TIP3    H143868   2.503   1.828   0.955  1.6469 -1.2898 -0.2383
14644TIP3    H243869   2.376   1.794   1.030 -0.3015  1.8890 -2.0033
14645TIP3   OH243870   2.842   2.378   1.715 -0.5064 -0.3259  0.2409
14645TIP3    H143871   2.889   2.297   1.700 -1.9783 -0.9193 -1.3460
14645TIP3    H243872   2.910   2.443   1.731  0.7207 -1.6585  0.5113
14646TIP3   OH243873   2.651   4.699   1.992 -0.5038 -0.5105 -0.0836
14646TIP3    H143874   2.729   4.649   2.012 -1.2818 -1.3482  0.9071
14646TIP3    H243875   2.610   4.715   2.077 -0.1357  2.0482 -0.3406
14647TIP3   OH243876   8.518   0.327   6.687 -0.0661  0.0775  0.4884
14647TIP3    H143877   8.422   0.319   6.687  0.0656 -1.6872  0.4237
14647TIP3    H243878   8.542   0.315   6.596  0.3128 -0.6940  0.6924
14648TIP3   OH243879   0.474   3.685   0.659  0.2492  0.0514  0.6006
14648TIP3    H143880   0.450   3.592   0.650  1.9004 -0.2695 -0.6485
14648TIP3    H243881   0.535   3.701   0.587 -0.6499  2.3401  0.3230
14649TIP3   OH243882   0.931   3.292   0.931 -0.5372  0.0630 -0.7523
14649TIP3    H143883   0.885   3.254   1.006  1.1887  1.5712  1.1719
14649TIP3    H243884   0.920   3.387   0.943  0.2943  0.3342 -2.0638
14650TIP3   OH243885   0.875   1.183   3.135  0.0333  0.4001  0.4882
14650TIP3    H143886   0.874   1.238   3.057 -1.3601 -0.2549  0.0396
14650TIP3    H243887   0.828   1.234   3.201 -1.9074 -0.5295 -0.1393
14651TIP3   OH243888   3.121   2.861   1.215  0.1637 -0.3901 -0.1712
14651TIP3    H143889   3.030   2.851   1.242  0.0678  1.2057  0.1625
14651TIP3    H243890   3.120   2.936   1.156  1.5106  0.7473  1.2049
14652TIP3   OH243891   3.297   3.731   5.397 -0.1444 -0.0252 -0.0680
14652TIP3    H143892   3.219   3.721   5.343  1.0286 -1.2020 -1.5770
14652TIP3    H243893   3.288   3.666   5.466 -1.8787  1.7989  1.4957
14653TIP3   OH243894   4.574   1.207   0.616  0.2838 -0.3384 -0.3764
14653TIP3    H143895   4.659   1.229   0.654  0.5214  0.8489 -1.5371
14653TIP3    H243896   4.573   1.111   0.612  1.3275 -0.3791  0.1829
14654TIP3   OH243897   1.617   1.443   0.045 -1.0329 -0.2934 -0.0916
14654TIP3    H143898   1.659   1.522   0.079 -1.5442  0.6208 -1.4904
14654TIP3    H243899   1.523   1.465   0.044 -1.2090 -1.0416 -0.1635
14655TIP3   OH243900   4.195   6.960   6.394  0.2056  0.0103  0.3637
14655TIP3    H143901   4.101   6.971   6.406 -0.2511 -0.9005 -2.2330
14655TIP3    H243902   4.222   7.036   6.341  0.8667  0.0251  0.7058
14656TIP3   OH243903   4.754   3.024   0.967 -0.0425 -0.1563  0.1860
14656TIP3    H143904   4.699   3.046   0.892  0.5995 -1.4906 -0.6817
14656TIP3    H243905   4.774   2.931   0.957  2.2135  0.2478  0.5858
14657TIP3   OH243906   1.885   2.830   0.613  0.2983 -0.7377  0.1329
14657TIP3    H143907   1.937   2.882   0.553  0.6309 -1.1361  0.0720
14657TIP3    H243908   1.912   2.858   0.701 -0.9117  0.5649  0.1096
14658TIP3   OH243909   3.059   1.490   0.657  0.0901  0.3768 -0.4532
14658TIP3    H143910   3.143   1.485   0.702  1.0156  0.9200 -2.0705
14658TIP3    H243911   3.078   1.464   0.567 -0.9194  3.0693 -1.5045
14659TIP3   OH243912   1.240   2.235   3.167 -0.2450  0.0342 -0.4423
14659TIP3    H143913   1.175   2.232   3.237  0.3216 -1.6437  0.0337
14659TIP3    H243914   1.190   2.215   3.087 -0.2635 -1.7370 -0.0148
14660TIP3   OH243915   1.252   3.237   0.482 -0.3805 -0.2107 -0.2141
14660TIP3    H143916   1.216   3.205   0.399  1.4772  0.0429 -1.1428
14660TIP3    H243917   1.306   3.312   0.458 -1.4080  1.1046  1.4800
14661TIP3   OH243918   2.087   3.910   2.357 -0.5374 -0.1453  0.5263
14661TIP3    H143919   2.138   3.905   2.275  0.7787 -2.1519  1.4169
14661TIP3    H243920   2.141   3.964   2.415 -1.5668  1.4474  0.0334
14662TIP3   OH243921   0.753   3.649   0.742 -0.7667  0.0473  0.1446
14662TIP3    H143922   0.787   3.565   0.711 -0.7190 -0.0280  0.4054
14662TIP3    H243923   0.703   3.628   0.820  1.4712  0.5958  1.7569
14663TIP3   OH243924   4.765   2.775   0.820  0.2787  0.1557 -0.1468
14663TIP3    H143925   4.675   2.743   0.813  0.1057  0.5924  0.0321
14663TIP3    H243926   4.820   2.699   0.798 -0.0883 -0.7487  1.9372
14664TIP3   OH243927   1.585   2.245   0.427 -0.2548 -0.1703  0.1976
14664TIP3    H143928   1.668   2.232   0.381 -0.0446  1.2094  0.1519
14664TIP3    H243929   1.544   2.318   0.381 -0.0925  1.1799  2.1276
14665TIP3   OH243930   2.260   4.439   0.539 -0.0001  0.1103 -0.1049
14665TIP3    H143931   2.352   4.456   0.519  0.3579 -1.5873 -0.0024
14665TIP3    H243932   2.248   4.475   0.627  0.8897 -0.7276  0.3645
14666TIP3   OH243933   0.973   2.323   2.734  0.1650  0.3156  0.4164
14666TIP3    H143934   1.056   2.281   2.711 -1.3816 -2.1881 -0.8793
14666TIP3    H243935   0.946   2.370   2.655 -0.2287  0.1108  0.4248
14667TIP3   OH243936   3.027   4.718   1.609 -0.1037 -0.0477 -0.1131
14667TIP3    H143937   3.019   4.771   1.529  0.2016 -0.5163 -0.4567
14667TIP3    H243938   3.010   4.629   1.580 -0.6922 -0.1298  0.4846
14668TIP3   OH243939   5.646   5.709   6.926 -0.6465 -0.3977 -0.1816
14668TIP3    H143940   5.610   5.649   6.861  0.6838 -1.0423 -0.3418
14668TIP3    H243941   5.657   5.656   7.005  1.3369 -0.6175 -0.5747
14669TIP3   OH243942   3.179   3.276   1.318 -0.4685 -0.6446 -0.0990
14669TIP3    H143943   3.201   3.239   1.403 -0.8659 -1.3687 -0.3074
14669TIP3    H243944   3.263   3.295   1.277 -0.2764 -0.4582  0.3835
14670TIP3   OH243945   0.106   2.602   2.390  0.2239  0.6998  0.1340
14670TIP3    H143946   0.029   2.582   2.443 -0.5805  3.5339  0.1522
14670TIP3    H243947   0.082   2.682   2.343  2.1314  0.0655 -2.0174
14671TIP3   OH243948   1.513   5.562  -0.017  0.1051 -0.1309  0.2685
14671TIP3    H143949   1.424   5.579  -0.047  0.1174  1.4698  1.0974
14671TIP3    H243950   1.506   5.558   0.078  0.9870  0.4591  0.3649
14672TIP3   OH243951   4.527   7.491   6.665 -0.1834  0.1860 -0.0176
14672TIP3    H143952   4.600   7.474   6.606  0.9607 -1.3799  1.7807
14672TIP3    H243953   4.459   7.428   6.639 -0.2420  0.4764 -0.5728
14673TIP3   OH243954   3.778   7.737   6.587  0.0468 -0.1799 -0.6857
14673TIP3    H143955   3.792   7.696   6.672  0.9623 -1.4646 -1.4424
14673TIP3    H243956   3.688   7.768   6.589 -0.4894 -1.7822  0.0956
14674TIP3   OH243957   5.289   6.253   5.442  0.7130 -0.0052 -0.3619
14674TIP3    H143958   5.197   6.258   5.415  0.5149  1.7118  0.5577
14674TIP3    H243959   5.334   6.319   5.389  0.9981  0.6966  0.7192
14675TIP3   OH243960   5.065   4.231   6.627 -0.0701 -0.5317 -0.2071
14675TIP3    H143961   5.133   4.165   6.618 -0.6075 -0.8835 -1.9545
14675TIP3    H243962   4.988   4.191   6.586 -1.4629 -0.3249  2.1234
14676TIP3   OH243963   2.209   2.378   0.523  0.0284 -0.2996 -0.1831
14676TIP3    H143964   2.217   2.468   0.489  0.3971 -0.4105 -0.3995
14676TIP3    H243965   2.235   2.323   0.449 -1.8818 -0.6573 -0.5988
14677TIP3   OH243966   0.776   4.114   0.177 -0.5056 -0.1436 -0.1065
14677TIP3    H143967   0.776   4.209   0.180 -1.0766 -0.1775  1.6330
14677TIP3    H243968   0.701   4.092   0.121  0.3675  0.4329 -1.5190
14678TIP3   OH243969   4.625   4.427   5.669 -0.5190 -0.0704 -0.1244
14678TIP3    H143970   4.641   4.370   5.594 -0.7714  1.4834 -1.3717
14678TIP3    H243971   4.709   4.471   5.685 -0.7136  0.2928 -0.0843
14679TIP3   OH243972   3.440   6.061   6.944 -0.0389  0.0285 -0.1835
14679TIP3    H143973   3.462   6.118   6.871  1.6897 -0.3784 -0.0053
14679TIP3    H243974   3.428   5.975   6.905  0.6868 -0.1491 -0.0276
14680TIP3   OH243975   1.765   1.632   1.145 -0.2208  0.5340 -0.4142
14680TIP3    H143976   1.832   1.637   1.077 -0.3264  0.3697 -0.5295
14680TIP3    H243977   1.706   1.706   1.127 -0.3809  0.3503 -0.6396
14681TIP3   OH243978   2.389   2.742   0.968  0.0142  0.1865 -0.0769
14681TIP3    H143979   2.477   2.737   0.931 -0.0392  2.5313 -0.6015
14681TIP3    H243980   2.345   2.663   0.937  0.8870  0.6639 -2.6187
14682TIP3   OH243981   3.362   6.575   5.678  0.2915 -0.3005 -0.3048
14682TIP3    H143982   3.440   6.519   5.670  0.0263 -0.5504 -1.2354
14682TIP3    H243983   3.343   6.576   5.772  1.0140 -0.7918 -0.1438
14683TIP3   OH243984   1.437   1.958   2.054  0.7608  0.3425  0.1117
14683TIP3    H143985   1.479   1.910   2.125  0.0585  1.2130  1.1463
14683TIP3    H243986   1.382   2.023   2.099  0.4898  1.0608 -1.2305
14684TIP3   OH243987   3.249   4.978   1.527 -0.1666  0.7252 -0.5051
14684TIP3    H143988   3.236   5.072   1.512  3.4312  1.1374 -1.4454
14684TIP3    H243989   3.252   4.970   1.623  0.5129  1.7581 -0.4235
14685TIP3   OH243990   4.318   6.567   6.508 -0.3778 -0.0454 -0.3549
14685TIP3    H143991   4.328   6.535   6.598 -1.2356 -1.2538 -0.6711
14685TIP3    H243992   4.326   6.662   6.515  0.6618 -0.2067  0.8375
14686TIP3   OH243993   2.697   1.947   1.543  0.0616  0.0030  0.2202
14686TIP3    H143994   2.725   2.022   1.595  0.4188 -1.0944  1.6168
14686TIP3    H243995   2.640   1.896   1.601  1.0373 -1.6074 -0.2050
14687TIP3   OH243996   7.876   1.058   3.254  0.4417  0.3243  0.1365
14687TIP3    H143997   7.881   1.103   3.169  2.3679  0.5219  0.3299
14687TIP3    H243998   7.961   1.074   3.295 -0.4043  0.0760  2.0424
14688TIP3   OH243999   0.654   4.455   0.324 -0.1962  0.6653  0.2416
14688TIP3    H144000   0.591   4.461   0.253  2.5365 -0.5262 -2.4497
14688TIP3    H244001   0.719   4.523   0.304  1.5730 -0.8935  0.4800
14689TIP3   OH244002   3.324   2.181   0.745 -0.0976 -0.0522 -0.1204
14689TIP3    H144003   3.291   2.230   0.820 -1.6360  0.6376 -1.2335
14689TIP3    H244004   3.416   2.165   0.766 -0.0252  1.7554  1.0822
14690TIP3   OH244005   6.189   7.652   6.792  1.3086 -0.5075 -0.0242
14690TIP3    H144006   6.176   7.567   6.835  1.2358 -0.2133  0.5382
14690TIP3    H244007   6.238   7.704   6.856 -0.9675  0.7636  0.7393
14691TIP3   OH244008   6.737   5.152   6.911 -0.2384  0.0767 -0.5241
14691TIP3    H144009   6.733   5.094   6.834  1.6502 -0.8620  0.0518
14691TIP3    H244010   6.825   5.190   6.908 -0.0991 -0.0671  1.2362
14692TIP3   OH244011   0.442   0.334   6.335 -0.6844 -0.0075  0.0983
14692TIP3    H144012   0.535   0.310   6.344 -0.8500 -0.3029  1.0372
14692TIP3    H244013   0.417   0.365   6.421 -1.7229 -0.8278  0.0963
14693TIP3   OH244014   4.807   6.608   5.639  0.5970  0.2172  0.1075
14693TIP3    H144015   4.829   6.587   5.730 -2.3038  1.3841  1.1348
14693TIP3    H244016   4.752   6.535   5.610  0.3871  0.5217 -0.2640
14694TIP3   OH244017   4.221   2.166   0.964  0.6217 -0.5110 -0.0330
14694TIP3    H144018   4.278   2.147   1.039  0.8712 -0.5132 -0.2252
14694TIP3    H244019   4.159   2.094   0.963 -1.1201  0.8898  1.8704
14695TIP3   OH244020   4.218   4.768   0.559 -0.9774 -0.3558  0.1408
14695TIP3    H144021   4.166   4.732   0.488  0.0954 -2.2934  0.3045
14695TIP3    H244022   4.206   4.707   0.632 -1.8863  1.4717  1.5831
14696TIP3   OH244023   7.099   5.855   5.054  0.0791  0.0535  0.4281
14696TIP3    H144024   7.136   5.850   4.966  0.3557  1.1291  0.4819
14696TIP3    H244025   7.162   5.809   5.109  0.1281 -0.2286  0.1432
14697TIP3   OH244026   3.557   5.889   6.580 -0.4306 -0.4771  0.5992
14697TIP3    H144027   3.635   5.845   6.615 -0.8698 -0.4295  1.6464
14697TIP3    H244028   3.546   5.850   6.493  0.6552 -0.6180  0.5077
14698TIP3   OH244029   4.230   1.409   0.424  0.0850 -0.2906 -0.3691
14698TIP3    H144030   4.238   1.394   0.519 -1.2111  0.4732 -0.1313
14698TIP3    H244031   4.210   1.502   0.416  1.5083 -0.0758 -1.4815
14699TIP3   OH244032   2.925   4.337   1.031 -0.6665  0.3634 -0.2998
14699TIP3    H144033   2.937   4.363   1.123 -1.3956 -0.8730  0.1711
14699TIP3    H244034   2.922   4.241   1.035 -1.1486  0.3309 -1.5678
14700TIP3   OH244035   2.961   2.245   0.570  0.7238  0.3092 -0.0512
14700TIP3    H144036   2.875   2.251   0.529  0.1260  0.1551  1.1669
14700TIP3    H244037   2.968   2.325   0.623  0.2871 -0.8398  1.8000
14701TIP3   OH244038   5.082   2.057   1.065 -0.1388  0.5008  0.1351
14701TIP3    H144039   5.118   2.123   1.124  0.3093  0.9282 -0.5924
14701TIP3    H244040   5.127   2.073   0.982 -1.4966  0.5779 -0.6048
14702TIP3   OH244041   1.690   1.772   0.576  0.5009 -0.1088  0.0293
14702TIP3    H144042   1.677   1.866   0.590  0.7091 -0.0384 -0.2432
14702TIP3    H244043   1.621   1.748   0.514  0.1898 -0.2229  0.4116
14703TIP3   OH244044   2.874   1.948   0.315 -0.2145 -0.2404 -0.1456
14703TIP3    H144045   2.871   1.877   0.379 -1.4479  0.4011  0.5170
14703TIP3    H244046   2.812   1.921   0.247  1.2737 -1.0397 -1.2302
14704TIP3   OH244047   3.223   1.249   0.453  0.0539  0.3941  0.1748
14704TIP3    H144048   3.149   1.207   0.496 -0.2842  0.0826 -0.6948
14704TIP3    H244049   3.301   1.209   0.493 -0.2583 -0.5081 -0.1185
14705TIP3   OH244050   3.901   4.284   1.777 -0.0627 -0.2992  0.5208
14705TIP3    H144051   3.937   4.287   1.866  1.7920  2.1131 -0.2447
14705TIP3    H244052   3.920   4.196   1.746  1.4835 -0.3862  1.6613
14706TIP3   OH244053   4.205   0.665   1.233  0.6726  0.3086 -0.7553
14706TIP3    H144054   4.147   0.723   1.183  2.1821  0.7092 -2.1051
14706TIP3    H244055   4.250   0.614   1.166  0.5733 -1.2544  0.3648
14707TIP3   OH244056   4.422   7.945   6.335 -0.0966 -0.2920 -0.0653
14707TIP3    H144057   4.326   7.946   6.328 -0.0319 -1.4941 -1.2594
14707TIP3    H244058   4.445   8.034   6.361 -1.4602  0.2844 -0.7937
14708TIP3   OH244059   6.069   6.524   5.550 -0.0929  0.0575 -0.0931
14708TIP3    H144060   6.013   6.512   5.627  0.4584 -0.5583  0.2180
14708TIP3    H244061   6.137   6.584   5.580 -1.0211  1.4451 -0.7039
14709TIP3   OH244062   2.159   5.413   1.153 -0.4088  0.6971  0.1262
14709TIP3    H144063   2.119   5.377   1.074 -1.3610  0.2221  0.8175
14709TIP3    H244064   2.090   5.408   1.220 -0.0165  2.2269  0.6723
14710TIP3   OH244065   6.505   0.316   0.314  0.2298  0.3534  1.0073
14710TIP3    H144066   6.569   0.356   0.256 -1.3463  1.1174 -0.2578
14710TIP3    H244067   6.463   0.249   0.259 -1.9823  1.7819  0.9169
14711TIP3   OH244068   4.293   2.094   0.078  0.6944 -0.0264  0.0331
14711TIP3    H144069   4.320   2.016   0.030 -0.5447 -1.2567  1.2942
14711TIP3    H244070   4.233   2.139   0.018 -0.5819 -1.3819  0.2707
14712TIP3   OH244071   2.699   3.570   0.043  0.0588  0.5376  0.0633
14712TIP3    H144072   2.736   3.584   0.130  1.1108  0.3862 -0.3459
14712TIP3    H244073   2.607   3.547   0.059  0.3058  0.2684  1.1427
14713TIP3   OH244074   6.697   3.585   5.963  0.3775 -0.4267  0.1662
14713TIP3    H144075   6.643   3.506   5.952  0.8938 -0.6299 -0.9940
14713TIP3    H244076   6.781   3.561   5.925  0.4295  0.8130 -0.5171
14714TIP3   OH244077   5.126   0.515   0.087  0.1268 -0.1799  0.2167
14714TIP3    H144078   5.081   0.599   0.087  3.7505  1.8219  0.9561
14714TIP3    H244079   5.125   0.487   0.179  0.9930  0.1847  0.3343
14715TIP3   OH244080   4.307   1.891   2.061  0.2614 -0.0917 -0.0228
14715TIP3    H144081   4.213   1.907   2.064  0.0775 -0.6578 -1.8606
14715TIP3    H244082   4.322   1.856   1.973  1.9846 -1.2584  0.7033
14716TIP3   OH244083   8.347   1.668   5.846 -0.3430 -0.1472 -0.1335
14716TIP3    H144084   8.315   1.724   5.775  1.3872  2.1673  0.8667
14716TIP3    H244085   8.303   1.700   5.924 -1.4658 -2.0338  0.0394
14717TIP3   OH244086   7.034   0.201   6.279  0.5296  0.1006 -0.7336
14717TIP3    H144087   7.125   0.175   6.294  0.8132  1.6540  0.3625
14717TIP3    H244088   6.987   0.166   6.355  0.5427  0.8900 -0.3562
14718TIP3   OH244089   2.717   2.322   0.478 -0.4025  0.4262 -0.0141
14718TIP3    H144090   2.645   2.315   0.541  0.4717 -1.2261  0.8492
14718TIP3    H244091   2.679   2.367   0.403 -2.2091  0.0037  0.6139
14719TIP3   OH244092   2.467   2.253   0.577  0.5432 -0.0162 -0.2790
14719TIP3    H144093   2.434   2.338   0.605 -1.5768 -0.7724 -0.3509
14719TIP3    H244094   2.409   2.190   0.620  1.8549 -1.4070 -0.5139
14720TIP3   OH244095   2.138   2.894   0.416  0.4676  0.2030 -0.0179
14720TIP3    H144096   2.185   2.936   0.343  0.0532  3.0134  1.2617
14720TIP3    H244097   2.202   2.891   0.487 -0.1441  0.6107  0.5553
14721TIP3   OH244098   8.387  -0.031   4.883 -0.2606 -0.2665 -0.1474
14721TIP3    H144099   8.303  -0.008   4.921  0.1343  1.0684 -0.0754
14721TIP3    H244100   8.408   0.041   4.824  1.0493 -0.3649  0.1824
14722TIP3   OH244101   4.655   8.017   5.283 -0.1961 -0.1798 -0.4081
14722TIP3    H144102   4.642   7.989   5.374 -0.5262 -0.9641 -0.7009
14722TIP3    H244103   4.748   8.001   5.266 -0.3992 -1.1292 -0.5955
14723TIP3   OH244104   7.216   4.881   5.155 -0.1292  0.4251  0.2771
14723TIP3    H144105   7.216   4.805   5.212 -2.7483  0.4342  0.3477
14723TIP3    H244106   7.306   4.889   5.125  0.4907 -1.7727  1.4886
14724TIP3   OH244107   1.255   2.614   0.334 -0.0527  0.4761 -0.2875
14724TIP3    H144108   1.207   2.683   0.380  0.2517  2.2723 -2.5628
14724TIP3    H244109   1.345   2.622   0.365 -0.2322  0.4339  0.2334
14725TIP3   OH244110   6.395   5.748   4.325  0.6155  0.2222  0.6298
14725TIP3    H144111   6.488   5.736   4.304  0.1230  0.8670 -2.1880
14725TIP3    H244112   6.353   5.669   4.290  0.0424  0.2078  1.3579
14726TIP3   OH244113   6.063   2.050   0.354 -0.1343 -0.5874 -0.1879
14726TIP3    H144114   6.142   2.103   0.338  1.0448 -2.4594 -0.6775
14726TIP3    H244115   6.096   1.961   0.364 -2.2422 -1.4439 -0.7620
14727TIP3   OH244116   4.037   3.796   1.529 -0.0528  0.3062  0.6494
14727TIP3    H144117   3.964   3.850   1.500  0.8739  1.2668  0.0595
14727TIP3    H244118   4.007   3.758   1.612 -0.5136  2.2101  1.3889
14728TIP3   OH244119   5.551   5.235   4.856  0.0577 -0.0011 -0.1573
14728TIP3    H144120   5.603   5.160   4.827 -1.6955 -1.5870  0.7026
14728TIP3    H244121   5.604   5.311   4.833  2.4549 -1.5441  0.0870
14729TIP3   OH244122   5.653   7.220   6.369 -0.1183  0.3346  0.1695
14729TIP3    H144123   5.565   7.182   6.365 -0.3022  0.6076  1.3389
14729TIP3    H244124   5.693   7.179   6.446  0.2108  1.3954  0.5709
14730TIP3   OH244125   1.097   1.396   1.282 -0.0167 -0.1020 -0.7051
14730TIP3    H144126   1.062   1.485   1.283  0.5514  0.1223 -0.7649
14730TIP3    H244127   1.190   1.407   1.264 -0.0243 -0.7353 -1.1329
14731TIP3   OH244128   7.715   4.855   5.241 -0.0176 -0.5517 -0.6591
14731TIP3    H144129   7.735   4.949   5.237  0.6821 -0.6891 -0.3600
14731TIP3    H244130   7.622   4.850   5.219 -0.4939  0.3797  1.0251
14732TIP3   OH244131   2.317   3.031   0.980  0.3556 -0.1361  0.2160
14732TIP3    H144132   2.340   2.940   0.961 -2.8265 -1.2827  1.5623
14732TIP3    H244133   2.383   3.059   1.044  2.1405 -1.0199 -1.1864
14733TIP3   OH244134   7.133   5.563   5.710  0.0368  0.2950  0.5670
14733TIP3    H144135   7.158   5.491   5.768 -1.3575  0.0615  0.8963
14733TIP3    H244136   7.038   5.561   5.710 -0.0061  2.0643  0.4716
14734TIP3   OH244137   3.506   3.351   0.672 -0.4202 -0.4233 -0.2418
14734TIP3    H144138   3.479   3.398   0.751  0.8807  2.2683 -1.3496
14734TIP3    H244139   3.455   3.390   0.601  2.9065  1.5506 -1.6554
14735TIP3   OH244140   7.645   2.091   0.488 -0.2347 -0.0309  0.5874
14735TIP3    H144141   7.551   2.089   0.505 -0.3408  0.3983  0.0653
14735TIP3    H244142   7.663   2.182   0.463  0.2014 -0.2580  0.0541
14736TIP3   OH244143   5.283   2.738   0.683  0.1879  1.0412 -0.1314
14736TIP3    H144144   5.205   2.730   0.739 -0.1446  2.2277 -0.4182
14736TIP3    H244145   5.341   2.669   0.714 -2.4233 -2.2737 -2.2738
14737TIP3   OH244146   5.287   5.915   0.656  0.1236  0.4639 -0.2909
14737TIP3    H144147   5.312   5.823   0.646 -1.6766 -0.2122  1.2543
14737TIP3    H244148   5.215   5.927   0.594  1.4454  1.2990 -1.6978
14738TIP3   OH244149   4.248   3.936   4.906  0.2714 -0.0637 -0.5793
14738TIP3    H144150   4.247   4.015   4.851 -0.0587  0.2051 -0.1894
14738TIP3    H244151   4.210   3.868   4.850  1.0353 -0.0714 -1.0997
14739TIP3   OH244152   5.267   5.486   6.293 -0.2809 -0.2975  0.3848
14739TIP3    H144153   5.226   5.537   6.222 -0.2135  1.0375  1.2936
14739TIP3    H244154   5.343   5.445   6.252  0.2301  1.1386 -0.1266
14740TIP3   OH244155   8.434   0.632   4.569  0.0469 -0.3999 -0.2350
14740TIP3    H144156   8.484   0.645   4.488 -0.9484  2.4790 -0.4523
14740TIP3    H244157   8.472   0.695   4.631  1.6287 -3.4285  2.0088
14741TIP3   OH244158   2.547   6.538   6.140 -0.0938 -0.1764  0.2739
14741TIP3    H144159   2.497   6.614   6.169 -0.5535  0.0103 -0.9534
14741TIP3    H244160   2.528   6.470   6.204 -0.8922  0.2916  0.5369
14742TIP3   OH244161   0.196   0.769   1.073 -0.5969 -0.2679  0.3153
14742TIP3    H144162   0.247   0.689   1.063  1.4088  0.9420  0.6761
14742TIP3    H244163   0.138   0.771   0.997 -1.7130 -2.7769  1.0476
14743TIP3   OH244164   8.461   5.129   1.512 -0.0801  0.1230  0.1656
14743TIP3    H144165   8.534   5.172   1.556 -0.1262 -1.9221  2.3763
14743TIP3    H244166   8.383   5.157   1.560 -0.1743 -1.8157  1.2178
14744TIP3   OH244167   0.434   4.126   0.736 -0.4060  0.0283  0.7568
14744TIP3    H144168   0.430   4.058   0.802 -0.2714  2.0758  2.9405
14744TIP3    H244169   0.513   4.176   0.757 -1.2450  1.7098  0.0597
14745TIP3   OH244170   1.377   7.139   4.542  0.4343 -0.6887  0.0389
14745TIP3    H144171   1.298   7.095   4.511 -0.0348 -1.0684  1.6884
14745TIP3    H244172   1.353   7.232   4.544  0.7381 -0.5673 -1.4650
14746TIP3   OH244173   7.038   1.704   0.136  0.2344  0.2098 -0.5979
14746TIP3    H144174   7.120   1.655   0.123 -0.5692 -1.8589  1.8710
14746TIP3    H244175   7.063   1.778   0.192  0.1789 -1.1950  1.3102
14747TIP3   OH244176   3.540   7.638   6.966  0.0531  0.1174  0.4540
14747TIP3    H144177   3.525   7.568   6.902  1.4416  0.2590 -0.0521
14747TIP3    H244178   3.491   7.713   6.931 -0.0856 -0.1268  0.1220
14748TIP3   OH244179   0.005   1.057   5.374 -0.3501  0.3261 -0.2725
14748TIP3    H144180   0.054   1.076   5.293  0.2611 -0.0061  0.0153
14748TIP3    H244181   0.003   1.140   5.421  0.7445  0.1274  0.1419
14749TIP3   OH244182   7.740   0.558   5.811  0.5070  0.4300 -0.3489
14749TIP3    H144183   7.801   0.619   5.852 -0.6736  0.2497  1.7084
14749TIP3    H244184   7.758   0.474   5.852  0.4390 -0.1117 -1.4022
14750TIP3   OH244185   0.017   1.830   6.513  0.6160  0.3361 -0.0481
14750TIP3    H144186  -0.064   1.857   6.557  0.6523  0.0800  0.1783
14750TIP3    H244187   0.071   1.792   6.582  0.8295  0.2780 -0.2441
14751TIP3   OH244188   4.107   1.041   6.657 -0.3141 -0.1513  0.2837
14751TIP3    H144189   4.166   0.985   6.708  1.7299  0.3371 -1.4506
14751TIP3    H244190   4.052   0.980   6.608  0.1366 -0.6386  0.3809
14752TIP3   OH244191   0.050   4.768   0.866 -0.3210 -0.1351  0.2481
14752TIP3    H144192   0.106   4.706   0.820 -1.0869 -0.8667  0.2872
14752TIP3    H244193   0.098   4.851   0.863  0.6257 -0.6874  0.0427
14753TIP3   OH244194   1.994   7.426   5.962  0.4524 -0.0041  0.7353
14753TIP3    H144195   2.088   7.413   5.975  0.8961  1.9291 -0.4020
14753TIP3    H244196   1.981   7.418   5.868 -0.4599  0.1120  0.8458
14754TIP3   OH244197   0.114   4.611   1.073  0.3932 -0.0139 -0.5494
14754TIP3    H144198   0.107   4.673   1.001  1.1876  1.8144  0.8974
14754TIP3    H244199   0.031   4.617   1.119 -0.0865 -1.1278 -1.2418
14755TIP3   OH244200   0.065   5.319   1.804 -0.6362 -0.2853 -0.3524
14755TIP3    H144201   0.117   5.335   1.882  0.2400 -0.4458 -0.8903
14755TIP3    H244202  -0.024   5.306   1.836 -0.2245 -0.6868  0.6503
14756TIP3   OH244203   6.605   3.601   0.112  0.0425  0.0859  0.2878
14756TIP3    H144204   6.605   3.562   0.025  0.4558  0.3252  0.1749
14756TIP3    H244205   6.695   3.631   0.124 -0.5217  2.0536 -0.1228
14757TIP3   OH244206   8.386   1.664   0.831 -0.1946 -0.1701  0.1387
14757TIP3    H144207   8.374   1.759   0.838  1.7011  0.3011 -2.4449
14757TIP3    H244208   8.467   1.647   0.878 -1.7538 -0.8954  2.6541
14758TIP3   OH244209   0.603   3.737   1.009  0.4143  0.2270  0.1100
14758TIP3    H144210   0.607   3.646   0.981  0.5001  0.0285  0.7624
14758TIP3    H244211   0.645   3.738   1.095  0.6772  0.9310 -0.0184
14759TIP3   OH244212   6.941   4.945   0.821  0.3744 -0.4455 -0.5180
14759TIP3    H144213   6.985   4.892   0.754  0.1315  0.4701 -1.4083
14759TIP3    H244214   6.937   5.033   0.783  1.8137  0.4997  1.4148
14760TIP3   OH244215   0.257   1.145   6.616 -0.7464 -0.3580  0.0042
14760TIP3    H144216   0.222   1.133   6.528 -1.3313 -3.1631  0.5730
14760TIP3    H244217   0.192   1.104   6.673  1.7953 -2.6715  1.3349
14761TIP3   OH244218   1.158   4.245   0.064 -0.3984  0.5246  0.6491
14761TIP3    H144219   1.159   4.173   0.001  0.6907  0.5118  0.6821
14761TIP3    H244220   1.154   4.324   0.009  1.6499  0.5553  0.5227
14762TIP3   OH244221   7.350   7.200   1.878  0.4156  0.4553 -0.4097
14762TIP3    H144222   7.334   7.149   1.958  0.3495  0.5581 -0.3574
14762TIP3    H244223   7.436   7.238   1.891  1.2189 -1.0537 -1.1984
14763TIP3   OH244224   2.647   3.487   1.478  0.1047  0.4947 -0.2876
14763TIP3    H144225   2.674   3.543   1.405 -0.4397  1.9681  0.6205
14763TIP3    H244226   2.675   3.399   1.453  2.2295  1.3876 -1.1117
14764TIP3   OH244227   0.553   1.297   5.493  0.4927 -0.2341 -0.4149
14764TIP3    H144228   0.611   1.352   5.440 -1.4603  1.1534 -1.1746
14764TIP3    H244229   0.475   1.287   5.440 -0.4171 -1.1457  1.0605
14765TIP3   OH244230   3.814   7.971   5.243 -0.1225  0.2056  0.3063
14765TIP3    H144231   3.805   7.965   5.148 -0.5272 -1.1290  0.4073
14765TIP3    H244232   3.738   7.922   5.277  0.0219  0.6667  1.3075
14766TIP3   OH244233   3.162   7.765   6.234  0.3282 -0.2680  0.0512
14766TIP3    H144234   3.199   7.771   6.146 -0.1587 -2.2776 -0.3052
14766TIP3    H244235   3.133   7.854   6.254  2.4552  0.6770 -0.9215
14767TIP3   OH244236   2.045   3.612   0.635 -0.2622 -0.3212  0.8197
14767TIP3    H144237   1.973   3.671   0.658 -0.0565 -0.1787  1.1050
14767TIP3    H244238   2.118   3.671   0.614 -0.6029 -0.4292 -0.7534
14768TIP3   OH244239   8.156   0.922   6.323  0.1068 -0.0615 -0.0205
14768TIP3    H144240   8.093   0.932   6.395 -0.0987  1.3069 -0.3727
14768TIP3    H244241   8.236   0.964   6.356 -0.1206  0.9623 -0.7413
14769TIP3   OH244242   1.617   3.668   0.635  0.3171  0.2348  0.1898
14769TIP3    H144243   1.600   3.585   0.679  0.0630  0.7885  1.1325
14769TIP3    H244244   1.683   3.711   0.688 -0.2091  1.0368  0.2096
14770TIP3   OH244245   8.170   4.899   0.160  0.3121 -0.5975  0.3281
14770TIP3    H144246   8.128   4.938   0.084  1.1326 -0.4283 -0.0463
14770TIP3    H244247   8.176   4.806   0.138  0.7815 -0.5096  0.0658
14771TIP3   OH244248   5.609   2.477   4.277  0.5142  0.1875  0.6069
14771TIP3    H144249   5.518   2.448   4.289  0.7483 -1.5339 -1.4827
14771TIP3    H244250   5.649   2.468   4.364 -1.1257  0.3333  1.3999
14772TIP3   OH244251   2.219   4.195   0.039  0.0875  0.4919 -0.7821
14772TIP3    H144252   2.180   4.108   0.052  0.2533  0.5092 -0.1676
14772TIP3    H244253   2.170   4.233  -0.034  1.0144 -0.7288 -2.0791
14773TIP3   OH244254   3.463   6.833   5.800  0.3464 -0.3977 -0.4940
14773TIP3    H144255   3.424   6.916   5.827 -0.5811 -0.9463 -0.1343
14773TIP3    H244256   3.506   6.800   5.879  2.5495  0.7621 -1.1842
14774TIP3   OH244257   0.017   5.854   0.752  0.0489  0.0030  0.4114
14774TIP3    H144258   0.077   5.780   0.757 -0.3743 -0.3722  0.0837
14774TIP3    H244259   0.001   5.879   0.843 -0.7011 -1.0491  0.5808
14775TIP3   OH244260   5.416   7.093   5.171  0.2718 -0.1742  0.0024
14775TIP3    H144261   5.395   7.027   5.237 -0.0040  0.9386  1.0507
14775TIP3    H244262   5.374   7.061   5.091  0.0434 -1.2036  0.5294
14776TIP3   OH244263   3.307   3.616   0.214  0.0733 -0.2868  0.1132
14776TIP3    H144264   3.373   3.661   0.161 -0.0360 -0.4628 -0.1789
14776TIP3    H244265   3.257   3.565   0.150  0.3280 -0.9868  0.4653
14777TIP3   OH244266   8.491   2.084   5.781  0.1570  0.5266  0.0029
14777TIP3    H144267   8.404   2.091   5.742 -0.5884  1.5043  1.8175
14777TIP3    H244268   8.521   1.996   5.757 -1.4932  0.0199 -0.2762
14778TIP3   OH244269   2.452   3.737   0.298  0.4261  0.6314 -0.3717
14778TIP3    H144270   2.467   3.657   0.246 -0.6197  0.3821 -0.3081
14778TIP3    H244271   2.373   3.775   0.260  1.0738  1.8004 -0.5856
14779TIP3   OH244272   3.341   4.810   0.800 -0.0698  0.2414  0.3654
14779TIP3    H144273   3.266   4.869   0.793  0.5045  0.5780 -3.6988
14779TIP3    H244274   3.417   4.868   0.800  0.3271 -0.2745  1.0623
14780TIP3   OH244275   2.217   3.920   1.883 -0.0618  0.6153 -0.4581
14780TIP3    H144276   2.136   3.952   1.842  0.2434  0.6630 -1.0321
14780TIP3    H244277   2.287   3.963   1.833  0.3257  0.1290 -0.3325
14781TIP3   OH244278   3.406   1.258   4.757  0.2978 -0.2853 -0.0829
14781TIP3    H144279   3.368   1.339   4.723 -0.6310 -0.8589 -0.4195
14781TIP3    H244280   3.390   1.193   4.689  2.0926 -0.4969 -0.3326
14782TIP3   OH244281   7.764   1.824   6.268 -0.2257  0.5762  0.1363
14782TIP3    H144282   7.695   1.795   6.208 -0.2960  1.5684 -0.2695
14782TIP3    H244283   7.783   1.747   6.321  0.3007 -0.5094 -1.6054
14783TIP3   OH244284   7.167   1.027   6.128 -0.2022 -0.3455  0.1112
14783TIP3    H144285   7.107   0.953   6.133 -0.1101 -0.3326  2.0337
14783TIP3    H244286   7.151   1.066   6.042 -3.0944 -0.2394  0.6519
14784TIP3   OH244287   1.923   6.424   0.101  0.0740  0.4591 -0.5002
14784TIP3    H144288   1.922   6.415   0.006  0.1042  0.5388 -0.5084
14784TIP3    H244289   1.832   6.442   0.124 -0.0549 -0.2601 -0.4431
14785TIP3   OH244290   0.049   1.037   6.783 -0.3524 -0.7071 -0.3259
14785TIP3    H144291   0.020   1.057   6.872 -0.7287  0.6542 -0.7537
14785TIP3    H244292   0.094   0.952   6.792 -1.0059 -0.9326  1.0256
14786TIP3   OH244293   5.828   0.479   6.455 -0.2578 -0.2104 -0.0212
14786TIP3    H144294   5.844   0.560   6.503 -0.5666 -0.4458  0.4878
14786TIP3    H244295   5.750   0.442   6.497  0.2516 -1.0786  0.1589
14787TIP3   OH244296   1.792   2.926   4.277  0.3876 -0.5442 -0.0211
14787TIP3    H144297   1.797   2.897   4.186  0.8651  0.3992 -0.3059
14787TIP3    H244298   1.756   2.851   4.324  1.9567 -1.7332 -0.6723
14788TIP3   OH244299   3.749   3.640   0.922 -0.1047  0.2821  0.0870
14788TIP3    H144300   3.835   3.634   0.881 -0.6373 -0.2168 -0.9790
14788TIP3    H244301   3.692   3.675   0.853 -1.3243 -1.9650 -0.0865
14789TIP3   OH244302   2.046   1.564   4.368 -0.1665  0.1367 -0.2221
14789TIP3    H144303   2.047   1.581   4.274  0.3340 -4.1920 -1.1282
14789TIP3    H244304   2.133   1.531   4.388 -0.6354 -0.1157  1.5053
14790TIP3   OH244305   5.615   7.760   3.455  0.0616 -0.0241 -0.0781
14790TIP3    H144306   5.581   7.673   3.476 -0.5558 -0.1187 -1.3834
14790TIP3    H244307   5.673   7.782   3.527 -0.2452 -1.2701  0.5561
14791TIP3   OH244308   1.920   1.367   5.481 -0.1089  0.0464  0.1359
14791TIP3    H144309   1.956   1.450   5.512  1.8788 -0.3749 -1.0235
14791TIP3    H244310   1.995   1.319   5.446 -1.5210 -1.5277 -0.8117
14792TIP3   OH244311   2.266   6.672   5.891 -0.4331 -0.3296 -0.4536
14792TIP3    H144312   2.175   6.670   5.921 -0.7210 -2.8559 -1.3758
14792TIP3    H244313   2.299   6.584   5.908  2.0698  0.7571  0.5105
14793TIP3   OH244314   2.411   5.181   0.482  0.4981 -0.4658  0.2663
14793TIP3    H144315   2.453   5.164   0.398  0.8464 -0.1327  0.3702
14793TIP3    H244316   2.475   5.234   0.530 -0.4522  0.8912  0.0524
14794TIP3   OH244317   2.707   4.362   2.199  0.5948 -0.0525 -0.3947
14794TIP3    H144318   2.682   4.389   2.111  1.8612  0.0794 -0.7257
14794TIP3    H244319   2.734   4.271   2.190 -0.4593 -0.4154  0.0912
14795TIP3   OH244320   1.615   4.944   1.127 -0.0781  0.7266  0.3913
14795TIP3    H144321   1.608   5.039   1.120 -0.3217  0.8497  1.9514
14795TIP3    H244322   1.700   4.923   1.090  0.3020  1.6392  0.7249
14796TIP3   OH244323   0.899   5.572   0.333  0.8311 -0.3669  0.4277
14796TIP3    H144324   0.805   5.573   0.313  0.6155  1.0112  1.4125
14796TIP3    H244325   0.909   5.508   0.403  0.6933 -0.8069  0.0486
14797TIP3   OH244326   4.326   7.419   4.261 -0.5371  0.2250  0.5413
14797TIP3    H144327   4.368   7.346   4.214 -1.1935 -0.6246  1.2481
14797TIP3    H244328   4.395   7.484   4.271 -0.3437  0.3481 -1.4557
14798TIP3   OH244329   3.095   4.514   0.583  0.2274  0.2001 -0.4091
14798TIP3    H144330   3.067   4.527   0.674 -0.3726 -0.7057 -0.4564
14798TIP3    H244331   3.149   4.435   0.585 -0.4767 -0.3018 -0.9729
14799TIP3   OH244332   7.510   3.123   5.230  0.2969  0.5937  0.1944
14799TIP3    H144333   7.497   3.208   5.189  1.1064  1.5184  1.8123
14799TIP3    H244334   7.449   3.122   5.303 -2.6060 -1.8596 -2.1287
14800TIP3   OH244335   1.395   5.403   0.563 -0.0715 -0.2228 -0.4090
14800TIP3    H144336   1.313   5.437   0.599 -0.0711 -0.7883  0.1490
14800TIP3    H244337   1.441   5.480   0.531  0.4317  0.4697  1.8602
14801TIP3   OH244338   3.299   7.690   6.446 -0.2172 -0.4736  0.5737
14801TIP3    H144339   3.229   7.714   6.507 -1.1443  0.8042 -0.9603
14801TIP3    H244340   3.260   7.702   6.359  0.8132 -3.0317 -0.2936
14802TIP3   OH244341   0.290   7.543   1.944  0.0631 -0.0917  0.1066
14802TIP3    H144342   0.310   7.457   1.906  2.0795  0.8313 -0.9776
14802TIP3    H244343   0.204   7.565   1.908 -1.4724 -2.5709  2.0719
14803TIP3   OH244344   4.212   7.152   6.185 -0.1563 -0.1788  0.5369
14803TIP3    H144345   4.139   7.208   6.211 -0.1763  0.8625 -1.6486
14803TIP3    H244346   4.173   7.088   6.125  0.9088  1.2466 -1.7642
14804TIP3   OH244347   8.411   4.826   1.216  0.1328 -0.3668 -0.3864
14804TIP3    H144348   8.398   4.844   1.309  0.0862 -0.9515 -0.2772
14804TIP3    H244349   8.396   4.732   1.208  0.7580 -0.4279 -0.8733
14805TIP3   OH244350   0.272   5.453   1.172  0.2012  0.2250  0.4214
14805TIP3    H144351   0.343   5.388   1.171 -0.7708 -0.9016  2.0441
14805TIP3    H244352   0.308   5.528   1.218  0.5067 -0.1558  0.8060
14806TIP3   OH244353   6.557   1.421   6.721 -0.4977  0.1259 -0.3519
14806TIP3    H144354   6.564   1.390   6.631 -1.3828  0.4771 -0.5458
14806TIP3    H244355   6.635   1.386   6.764 -0.0170  0.0444 -1.2752
14807TIP3   OH244356   0.957   1.835   4.356  0.7914  0.5623 -0.0630
14807TIP3    H144357   0.995   1.812   4.441 -0.7661 -1.2332  0.1552
14807TIP3    H244358   0.884   1.775   4.344  1.7636 -0.1109 -3.2756
14808TIP3   OH244359   2.569   2.918   1.334  0.2769  0.2452 -0.0963
14808TIP3    H144360   2.487   2.926   1.383 -0.9437 -0.7534 -1.9084
14808TIP3    H244361   2.562   2.834   1.289  3.1726 -0.7816  1.2436
14809TIP3   OH244362   7.907   3.491   4.591 -0.5205 -0.2793 -0.3008
14809TIP3    H144363   7.979   3.478   4.652 -2.5617 -0.4390  2.1255
14809TIP3    H244364   7.895   3.406   4.548  0.9146 -0.1620 -0.9688
14810TIP3   OH244365   8.375   0.888   6.543 -0.2791  0.5854  0.4970
14810TIP3    H144366   8.345   0.928   6.624 -0.4973  0.4857  0.4641
14810TIP3    H244367   8.441   0.949   6.510  1.0616 -0.2218  1.6221
14811TIP3   OH244368   4.779   7.997   6.015  0.7177  0.3984  0.3907
14811TIP3    H144369   4.766   8.068   6.078  0.1957 -1.3486  2.3018
14811TIP3    H244370   4.698   7.946   6.021  1.6717 -1.1616  0.1030
14812TIP3   OH244371   0.100   1.087   5.082 -0.0369  0.0552 -0.1491
14812TIP3    H144372   0.081   1.111   4.992 -0.2896  1.1182  0.1772
14812TIP3    H244373   0.065   0.998   5.091  0.6929 -0.3558 -1.3040
14813TIP3   OH244374   5.294   6.828   4.286 -0.9682 -0.6007 -0.5565
14813TIP3    H144375   5.388   6.822   4.304 -1.4719 -1.0861  2.1037
14813TIP3    H244376   5.272   6.919   4.309 -1.4695 -0.9994  0.5873
14814TIP3   OH244377   3.453   7.911   6.876 -0.2704  0.3425 -0.2036
14814TIP3    H144378   3.403   7.947   6.803  0.9698  0.4559 -1.0187
14814TIP3    H244379   3.393   7.914   6.950 -1.0982  1.5124 -0.9007
14815TIP3   OH244380   1.814   1.265   5.713  0.2195 -0.0568 -0.5312
14815TIP3    H144381   1.845   1.175   5.728  2.2368  0.9059  1.4081
14815TIP3    H244382   1.841   1.285   5.624  1.8263 -0.6027 -0.1847
14816TIP3   OH244383   3.217   6.862   5.651  0.5342  0.0104 -0.7508
14816TIP3    H144384   3.310   6.869   5.671  0.8879  0.3194 -2.4300
14816TIP3    H244385   3.206   6.909   5.569 -1.0437 -0.3318 -0.7619
14817TIP3   OH244386   1.824   5.004   0.122  0.0026  0.3820 -0.2558
14817TIP3    H144387   1.786   4.921   0.092  0.2848  0.7336 -1.6425
14817TIP3    H244388   1.902   4.979   0.171  0.9948 -0.1270 -2.0451
14818TIP3   OH244389   2.059   6.754   6.318  0.1406  0.4205  0.0370
14818TIP3    H144390   1.976   6.779   6.357  0.6743 -0.4582  1.7690
14818TIP3    H244391   2.118   6.740   6.392  2.4293  2.9673 -1.2315
14819TIP3   OH244392   0.651   4.544   1.008 -0.4013  0.9313 -0.2380
14819TIP3    H144393   0.621   4.457   0.979 -0.4285  0.8299  0.0883
14819TIP3    H244394   0.707   4.575   0.937  0.0956  0.3865 -0.0901
14820TIP3   OH244395   1.088   3.656   1.154 -0.5312  0.1621  0.0480
14820TIP3    H144396   1.140   3.735   1.139  0.1150 -0.0881  0.9215
14820TIP3    H244397   1.152   3.585   1.157 -0.8712 -0.1028  1.4437
14821TIP3   OH244398   2.802   5.490   0.254 -0.0660  0.0249 -0.1412
14821TIP3    H144399   2.887   5.448   0.249  1.3545  2.6067  1.2629
14821TIP3    H244400   2.751   5.435   0.314  1.2200 -0.5687  0.4158
14822TIP3   OH244401   1.103   1.002   5.736 -0.2934 -0.2919 -0.2256
14822TIP3    H144402   1.158   1.050   5.798  0.2190  0.7608 -1.4484
14822TIP3    H244403   1.014   1.031   5.753  0.1051  1.7850 -1.5118
14823TIP3   OH244404   1.225   4.139   0.801  0.1212 -0.2597 -0.3716
14823TIP3    H144405   1.175   4.119   0.879  1.1192 -2.3090 -0.2299
14823TIP3    H244406   1.192   4.079   0.734  0.3703  0.3874 -1.0916
14824TIP3   OH244407   3.544   6.745   5.526  0.2999  0.3948  0.3509
14824TIP3    H144408   3.568   6.711   5.612  0.3381 -2.0408 -0.5572
14824TIP3    H244409   3.509   6.832   5.543  0.5164  0.0447  2.7966
14825TIP3   OH244410   6.383   7.584   5.124  0.4379 -0.2363 -0.8822
14825TIP3    H144411   6.298   7.564   5.162  1.5989  0.1792  2.0938
14825TIP3    H244412   6.433   7.502   5.133  0.9557  0.0795 -0.8626
14826TIP3   OH244413   6.094   8.012   5.606 -0.0070 -0.2632 -0.7093
14826TIP3    H144414   6.006   7.974   5.609  0.2844 -0.8646  0.4766
14826TIP3    H244415   6.152   7.938   5.593  0.3252  0.1452 -1.5675
14827TIP3   OH244416   8.458   1.754   3.290  0.1570  0.2718 -0.5180
14827TIP3    H144417   8.426   1.744   3.379  1.5915 -0.9985 -0.1187
14827TIP3    H244418   8.392   1.807   3.246  1.3295  4.3837  2.3853
14828TIP3   OH244419   3.689   5.637   2.589 -0.2446 -0.1933  0.1730
14828TIP3    H144420   3.711   5.721   2.550 -0.9342  0.8892  2.0296
14828TIP3    H244421   3.610   5.609   2.544  0.6479 -0.4567 -1.2822
14829TIP3   OH244422   2.651   3.769   0.517  0.1606  0.2761  0.0081
14829TIP3    H144423   2.596   3.745   0.443 -0.5816  1.1869  0.2577
14829TIP3    H244424   2.647   3.693   0.576  0.3440 -0.2395 -0.6366
14830TIP3   OH244425   7.380   6.095   5.380  0.0580  0.2126  0.5265
14830TIP3    H144426   7.452   6.138   5.426 -0.3591  0.6077  0.8127
14830TIP3    H244427   7.393   6.118   5.288  0.3516  0.1983  0.5629
   8.50000   8.01388   6.94022   0.00000   0.00000  -2.83333   0.00000  -2.83333  -4.00694
