Title t= 1280.00000 step= 640000
29212
    1ASP      N    1   2.287   3.308   4.797
    1ASP    HT1    2   2.202   3.340   4.847
    1ASP    HT2    3   2.273   3.329   4.696
    1ASP    HT3    4   2.366   3.360   4.841
    1ASP     CA    5   2.291   3.170   4.820
    1ASP     HA    6   2.317   3.157   4.924
    1ASP     CB    7   2.156   3.097   4.795
    1ASP    HB1    8   2.173   2.987   4.802
    1ASP    HB2    9   2.123   3.127   4.693
    1ASP     CG   10   2.051   3.135   4.896
    1ASP    OD1   11   2.074   3.238   4.964
    1ASP    OD2   12   1.950   3.067   4.905
    1ASP      C   13   2.409   3.104   4.750
    1ASP      O   14   2.526   3.117   4.789
    2GLY      N   15   2.379   3.029   4.641
    2GLY     HN   16   2.287   2.993   4.627
    2GLY     CA   17   2.474   2.965   4.555
    2GLY    HA1   18   2.420   2.919   4.473
    2GLY    HA2   19   2.533   2.891   4.607
    2GLY      C   20   2.563   3.052   4.482
    2GLY      O   21   2.561   3.173   4.499
    3ASP      N   22   2.657   2.990   4.399
    3ASP     HN   23   2.665   2.890   4.392
    3ASP     CA   24   2.745   3.067   4.308
    3ASP     HA   25   2.799   3.139   4.368
    3ASP     CB   26   2.859   3.000   4.241
    3ASP    HB1   27   2.916   3.072   4.178
    3ASP    HB2   28   2.819   2.920   4.175
    3ASP     CG   29   2.963   2.938   4.337
    3ASP    OD1   30   2.959   2.950   4.463
    3ASP    OD2   31   3.057   2.877   4.279
    3ASP      C   32   2.666   3.143   4.213
    3ASP      O   33   2.572   3.089   4.150
    4GLY      N   34   2.694   3.276   4.188
    4GLY     HN   35   2.760   3.324   4.245
    4GLY     CA   36   2.636   3.355   4.079
    4GLY    HA1   37   2.653   3.461   4.093
    4GLY    HA2   38   2.533   3.327   4.094
    4GLY      C   39   2.682   3.317   3.933
    4GLY      O   40   2.756   3.226   3.913
    5PRO      N   41   2.622   3.387   3.838
    5PRO     CD   42   2.510   3.487   3.851
    5PRO    HD1   43   2.548   3.589   3.876
    5PRO    HD2   44   2.430   3.450   3.919
    5PRO     CA   45   2.642   3.350   3.695
    5PRO     HA   46   2.597   3.258   3.661
    5PRO     CB   47   2.571   3.457   3.617
    5PRO    HB1   48   2.529   3.431   3.518
    5PRO    HB2   49   2.634   3.547   3.604
    5PRO     CG   50   2.455   3.493   3.712
    5PRO    HG1   51   2.413   3.595   3.694
    5PRO    HG2   52   2.368   3.428   3.689
    5PRO      C   53   2.794   3.357   3.660
    5PRO      O   54   2.860   3.458   3.696
    6GLY      N   55   2.857   3.251   3.587
    6GLY     HN   56   2.810   3.181   3.533
    6GLY     CA   57   2.997   3.266   3.550
    6GLY    HA1   58   3.020   3.176   3.495
    6GLY    HA2   59   3.056   3.268   3.641
    6GLY      C   60   3.031   3.386   3.454
    6GLY      O   61   2.947   3.462   3.403
    7ASP      N   62   3.155   3.402   3.409
    7ASP     HN   63   3.226   3.334   3.428
    7ASP     CA   64   3.181   3.490   3.297
    7ASP     HA   65   3.128   3.581   3.322
    7ASP     CB   66   3.330   3.525   3.281
    7ASP    HB1   67   3.355   3.576   3.185
    7ASP    HB2   68   3.375   3.424   3.271
    7ASP     CG   69   3.388   3.601   3.401
    7ASP    OD1   70   3.319   3.651   3.493
    7ASP    OD2   71   3.512   3.611   3.387
    7ASP      C   72   3.126   3.447   3.158
    7ASP      O   73   3.108   3.325   3.146
    8PRO      N   74   3.087   3.534   3.059
    8PRO     CD   75   3.088   3.678   3.067
    8PRO    HD1   76   3.187   3.703   3.110
    8PRO    HD2   77   3.011   3.702   3.143
    8PRO     CA   78   3.043   3.480   2.932
    8PRO     HA   79   2.971   3.402   2.950
    8PRO     CB   80   2.989   3.602   2.854
    8PRO    HB1   81   2.879   3.609   2.869
    8PRO    HB2   82   3.010   3.601   2.745
    8PRO     CG   83   3.052   3.724   2.926
    8PRO    HG1   84   3.142   3.767   2.877
    8PRO    HG2   85   2.974   3.803   2.934
    8PRO      C   86   3.157   3.402   2.860
    8PRO      O   87   3.275   3.436   2.876
    9GLY      N   88   3.131   3.296   2.784
    9GLY     HN   89   3.036   3.269   2.767
    9GLY     CA   90   3.219   3.230   2.702
    9GLY    HA1   91   3.162   3.140   2.685
    9GLY    HA2   92   3.303   3.208   2.766
    9GLY      C   93   3.263   3.290   2.571
    9GLY      O   94   3.250   3.404   2.541
   10ASP      N   95   3.333   3.203   2.494
   10ASP     HN   96   3.339   3.107   2.519
   10ASP     CA   97   3.378   3.223   2.354
   10ASP     HA   98   3.450   3.302   2.344
   10ASP     CB   99   3.445   3.090   2.312
   10ASP    HB1  100   3.439   3.071   2.202
   10ASP    HB2  101   3.382   3.012   2.360
   10ASP     CG  102   3.592   3.070   2.353
   10ASP    OD1  103   3.642   2.964   2.313
   10ASP    OD2  104   3.651   3.159   2.420
   10ASP      C  105   3.251   3.251   2.266
   10ASP      O  106   3.150   3.181   2.276
   11GLY      N  107   3.265   3.341   2.173
   11GLY     HN  108   3.349   3.391   2.154
   11GLY     CA  109   3.166   3.358   2.064
   11GLY    HA1  110   3.183   3.458   2.028
   11GLY    HA2  111   3.062   3.345   2.089
   11GLY      C  112   3.199   3.270   1.951
   11GLY    OT1  113   3.108   3.186   1.916
   11GLY    OT2  114   3.313   3.270   1.901
   12SOD    SOD  115   5.275   1.485   2.702
   13SOD    SOD  116   6.178   1.121   1.525
   14SOD    SOD  117   1.958   0.228   2.808
   15SOD    SOD  118   4.989   6.555   3.742
   16SOD    SOD  119   4.442   2.185   2.652
   17SOD    SOD  120   4.627   5.625   0.658
   18SOD    SOD  121   5.799   1.906   1.378
   19SOD    SOD  122   5.238   1.194   3.417
   20SOD    SOD  123   6.614   1.296   5.093
   21SOD    SOD  124   7.212   0.847   0.593
   22SOD    SOD  125   1.310   4.253   1.271
   23SOD    SOD  126   3.098   2.775   1.962
   24SOD    SOD  127   1.882   0.657   3.292
   25SOD    SOD  128   3.464   4.840   0.186
   26SOD    SOD  129   4.931   4.591   3.985
   27SOD    SOD  130   4.409   2.946   3.993
   28SOD    SOD  131   5.953   2.439   3.958
   29SOD    SOD  132   1.241   1.342   1.554
   30SOD    SOD  133   3.062   0.332   2.967
   31SOD    SOD  134   3.731   0.269   4.359
   32SOD    SOD  135   3.222   4.096   2.171
   33SOD    SOD  136   1.317   4.644   2.849
   34SOD    SOD  137   0.097   0.181   2.115
   35SOD    SOD  138   4.184   2.789   2.902
   36SOD    SOD  139   6.589   3.449   4.474
   37SOD    SOD  140   1.459   1.994   5.810
   38SOD    SOD  141   2.325   5.685   4.212
   39SOD    SOD  142   0.506   4.635   4.439
   40SOD    SOD  143   2.595   6.669   0.476
   41SOD    SOD  144   6.934   4.296   0.463
   42SOD    SOD  145   5.598   5.116   5.273
   43CLA    CLA  146   2.210   6.532   3.877
   44CLA    CLA  147   3.611   0.516   3.900
   45CLA    CLA  148   4.032   4.667   0.872
   46CLA    CLA  149   6.676   4.679   4.268
   47CLA    CLA  150   0.863   5.582   0.795
   48CLA    CLA  151   4.921   0.968   2.700
   49CLA    CLA  152   0.603   2.823   5.867
   50CLA    CLA  153   5.214   6.266   4.523
   51CLA    CLA  154   0.146   3.449   3.315
   52CLA    CLA  155   7.089   2.166   1.777
   53CLA    CLA  156   0.625   2.435   0.806
   54CLA    CLA  157   5.793   5.376   4.959
   55CLA    CLA  158   1.218   1.169   1.970
   56CLA    CLA  159   3.641   4.312   5.387
   57CLA    CLA  160   2.647   4.545   2.658
   58CLA    CLA  161   4.138   2.910   3.434
   59CLA    CLA  162   0.163   2.492   3.304
   60CLA    CLA  163   2.332   1.231   5.861
   61CLA    CLA  164   3.503   2.945   4.860
   62CLA    CLA  165   4.909   2.863   2.760
   63CLA    CLA  166   0.127   3.114   5.482
   64CLA    CLA  167   3.724   6.473   0.722
   65CLA    CLA  168   4.105   0.932   0.722
   66CLA    CLA  169   0.622   5.296   2.253
   67CLA    CLA  170   2.891   2.758   2.401
   68CLA    CLA  171   6.984   4.611   5.566
   69CLA    CLA  172   5.050   1.013   4.023
   70TIP3   OH2  173   3.288   2.785   1.474
   70TIP3    H1  174   3.221   2.797   1.541
   70TIP3    H2  175   3.246   2.732   1.406
   71TIP3   OH2  176   0.622   4.885   0.569
   71TIP3    H1  177   0.578   4.807   0.601
   71TIP3    H2  178   0.661   4.925   0.647
   72TIP3   OH2  179   4.357   3.483   5.789
   72TIP3    H1  180   4.394   3.458   5.874
   72TIP3    H2  181   4.371   3.577   5.784
   73TIP3   OH2  182   1.830   0.154   4.672
   73TIP3    H1  183   1.755   0.095   4.678
   73TIP3    H2  184   1.818   0.200   4.588
   74TIP3   OH2  185   2.176   6.298   3.617
   74TIP3    H1  186   2.095   6.297   3.566
   74TIP3    H2  187   2.161   6.363   3.686
   75TIP3   OH2  188   7.184   6.513   4.297
   75TIP3    H1  189   7.276   6.527   4.276
   75TIP3    H2  190   7.163   6.429   4.256
   76TIP3   OH2  191   4.991   5.665   0.318
   76TIP3    H1  192   5.035   5.739   0.276
   76TIP3    H2  193   4.964   5.609   0.245
   77TIP3   OH2  194   2.876   0.119   0.899
   77TIP3    H1  195   2.957   0.068   0.898
   77TIP3    H2  196   2.874   0.162   0.813
   78TIP3   OH2  197   3.728   1.194   0.923
   78TIP3    H1  198   3.791   1.122   0.933
   78TIP3    H2  199   3.708   1.196   0.829
   79TIP3   OH2  200   1.627   6.001   1.018
   79TIP3    H1  201   1.599   5.941   1.087
   79TIP3    H2  202   1.578   6.082   1.035
   80TIP3   OH2  203   1.588   3.518   3.548
   80TIP3    H1  204   1.658   3.456   3.527
   80TIP3    H2  205   1.605   3.542   3.639
   81TIP3   OH2  206   1.709   4.690   5.167
   81TIP3    H1  207   1.643   4.759   5.161
   81TIP3    H2  208   1.734   4.673   5.076
   82TIP3   OH2  209   1.086   4.851   3.539
   82TIP3    H1  210   1.017   4.792   3.511
   82TIP3    H2  211   1.131   4.877   3.459
   83TIP3   OH2  212   6.679   0.238   0.586
   83TIP3    H1  213   6.739   0.286   0.528
   83TIP3    H2  214   6.598   0.288   0.582
   84TIP3   OH2  215   5.849   0.109   0.129
   84TIP3    H1  216   5.787   0.130   0.060
   84TIP3    H2  217   5.824   0.166   0.202
   85TIP3   OH2  218   3.352   4.440   3.333
   85TIP3    H1  219   3.367   4.527   3.296
   85TIP3    H2  220   3.292   4.397   3.272
   86TIP3   OH2  221   1.184   1.752   5.501
   86TIP3    H1  222   1.181   1.663   5.466
   86TIP3    H2  223   1.256   1.794   5.453
   87TIP3   OH2  224   1.629   2.445   2.158
   87TIP3    H1  225   1.625   2.539   2.175
   87TIP3    H2  226   1.722   2.423   2.165
   88TIP3   OH2  227   6.103   1.006   4.956
   88TIP3    H1  228   6.076   1.098   4.959
   88TIP3    H2  229   6.182   1.006   4.902
   89TIP3   OH2  230   3.299   6.642   5.259
   89TIP3    H1  231   3.250   6.632   5.177
   89TIP3    H2  232   3.290   6.735   5.281
   90TIP3   OH2  233   1.512   2.723   3.384
   90TIP3    H1  234   1.510   2.702   3.477
   90TIP3    H2  235   1.587   2.674   3.349
   91TIP3   OH2  236   6.476   6.051   1.428
   91TIP3    H1  237   6.447   5.990   1.360
   91TIP3    H2  238   6.571   6.035   1.436
   92TIP3   OH2  239   5.841   4.971   4.339
   92TIP3    H1  240   5.914   4.992   4.397
   92TIP3    H2  241   5.804   5.056   4.316
   93TIP3   OH2  242   1.492   1.308   2.085
   93TIP3    H1  243   1.406   1.267   2.073
   93TIP3    H2  244   1.551   1.234   2.101
   94TIP3   OH2  245   3.003   6.450   2.782
   94TIP3    H1  246   3.078   6.510   2.780
   94TIP3    H2  247   2.940   6.494   2.839
   95TIP3   OH2  248   5.328   4.379   1.722
   95TIP3    H1  249   5.292   4.412   1.640
   95TIP3    H2  250   5.382   4.305   1.696
   96TIP3   OH2  251   6.888   4.126   0.606
   96TIP3    H1  252   6.888   4.036   0.574
   96TIP3    H2  253   6.799   4.141   0.638
   97TIP3   OH2  254   7.102   1.260   1.104
   97TIP3    H1  255   7.120   1.213   1.185
   97TIP3    H2  256   7.188   1.283   1.070
   98TIP3   OH2  257   2.609   4.877   3.207
   98TIP3    H1  258   2.544   4.819   3.248
   98TIP3    H2  259   2.557   4.937   3.154
   99TIP3   OH2  260   6.552   1.299   1.213
   99TIP3    H1  261   6.566   1.253   1.130
   99TIP3    H2  262   6.585   1.387   1.198
  100TIP3   OH2  263   0.204   5.122   0.022
  100TIP3    H1  264   0.251   5.119  -0.062
  100TIP3    H2  265   0.225   5.208   0.059
  101TIP3   OH2  266   0.663   2.259   0.412
  101TIP3    H1  267   0.720   2.258   0.489
  101TIP3    H2  268   0.723   2.259   0.338
  102TIP3   OH2  269   5.217   2.956   5.001
  102TIP3    H1  270   5.221   2.939   5.095
  102TIP3    H2  271   5.291   2.908   4.965
  103TIP3   OH2  272   5.020   2.626   5.071
  103TIP3    H1  273   5.015   2.714   5.033
  103TIP3    H2  274   5.056   2.572   5.001
  104TIP3   OH2  275   4.310   4.597   1.852
  104TIP3    H1  276   4.246   4.655   1.810
  104TIP3    H2  277   4.369   4.571   1.781
  105TIP3   OH2  278   2.619   5.193   2.783
  105TIP3    H1  279   2.541   5.222   2.735
  105TIP3    H2  280   2.664   5.133   2.724
  106TIP3   OH2  281   3.229   4.870   1.008
  106TIP3    H1  282   3.272   4.884   0.924
  106TIP3    H2  283   3.280   4.923   1.070
  107TIP3   OH2  284   7.049   4.832   4.259
  107TIP3    H1  285   7.026   4.913   4.304
  107TIP3    H2  286   6.965   4.798   4.227
  108TIP3   OH2  287   5.075   6.713   2.545
  108TIP3    H1  288   5.075   6.629   2.500
  108TIP3    H2  289   5.053   6.691   2.636
  109TIP3   OH2  290   5.793   1.105   2.561
  109TIP3    H1  291   5.829   1.190   2.585
  109TIP3    H2  292   5.699   1.114   2.576
  110TIP3   OH2  293   3.887   4.394   5.241
  110TIP3    H1  294   3.925   4.452   5.307
  110TIP3    H2  295   3.796   4.384   5.268
  111TIP3   OH2  296   2.931   2.848   2.095
  111TIP3    H1  297   2.836   2.857   2.092
  111TIP3    H2  298   2.949   2.813   2.182
  112TIP3   OH2  299   6.680   3.080   1.270
  112TIP3    H1  300   6.684   3.072   1.175
  112TIP3    H2  301   6.767   3.110   1.295
  113TIP3   OH2  302   2.337   0.016   5.172
  113TIP3    H1  303   2.341  -0.051   5.241
  113TIP3    H2  304   2.265  -0.012   5.116
  114TIP3   OH2  305   5.467   5.855   1.627
  114TIP3    H1  306   5.417   5.900   1.695
  114TIP3    H2  307   5.469   5.763   1.654
  115TIP3   OH2  308   6.553   3.082   5.614
  115TIP3    H1  309   6.600   3.165   5.600
  115TIP3    H2  310   6.537   3.049   5.526
  116TIP3   OH2  311   5.176   4.195   2.196
  116TIP3    H1  312   5.146   4.125   2.138
  116TIP3    H2  313   5.189   4.270   2.138
  117TIP3   OH2  314   1.163   4.392   4.232
  117TIP3    H1  315   1.159   4.350   4.146
  117TIP3    H2  316   1.237   4.349   4.276
  118TIP3   OH2  317   6.233   6.214   3.240
  118TIP3    H1  318   6.160   6.177   3.289
  118TIP3    H2  319   6.284   6.138   3.213
  119TIP3   OH2  320   0.811   5.616   1.626
  119TIP3    H1  321   0.822   5.638   1.718
  119TIP3    H2  322   0.824   5.522   1.622
  120TIP3   OH2  323   3.098   2.895   2.742
  120TIP3    H1  324   3.092   2.915   2.648
  120TIP3    H2  325   3.038   2.822   2.755
  121TIP3   OH2  326   6.502   2.953   0.888
  121TIP3    H1  327   6.591   2.950   0.924
  121TIP3    H2  328   6.485   2.864   0.859
  122TIP3   OH2  329   6.684   4.602   3.814
  122TIP3    H1  330   6.662   4.515   3.848
  122TIP3    H2  331   6.759   4.630   3.866
  123TIP3   OH2  332   6.005   6.621   1.527
  123TIP3    H1  333   6.029   6.639   1.618
  123TIP3    H2  334   6.013   6.706   1.483
  124TIP3   OH2  335   5.120   5.671   2.717
  124TIP3    H1  336   5.033   5.689   2.681
  124TIP3    H2  337   5.106   5.595   2.773
  125TIP3   OH2  338   5.992   3.310   4.626
  125TIP3    H1  339   6.083   3.330   4.647
  125TIP3    H2  340   5.992   3.217   4.605
  126TIP3   OH2  341   2.172   5.897   1.369
  126TIP3    H1  342   2.205   5.976   1.410
  126TIP3    H2  343   2.145   5.925   1.281
  127TIP3   OH2  344   2.144   4.186   2.502
  127TIP3    H1  345   2.202   4.211   2.430
  127TIP3    H2  346   2.056   4.186   2.464
  128TIP3   OH2  347   1.707   4.847   5.645
  128TIP3    H1  348   1.678   4.796   5.569
  128TIP3    H2  349   1.680   4.795   5.721
  129TIP3   OH2  350   5.764   5.079   5.717
  129TIP3    H1  351   5.832   5.123   5.666
  129TIP3    H2  352   5.740   5.002   5.665
  130TIP3   OH2  353   5.416   3.313   1.856
  130TIP3    H1  354   5.463   3.314   1.772
  130TIP3    H2  355   5.324   3.306   1.831
  131TIP3   OH2  356   6.933   3.129   2.287
  131TIP3    H1  357   6.924   3.223   2.298
  131TIP3    H2  358   7.000   3.103   2.350
  132TIP3   OH2  359   6.191   3.040   0.128
  132TIP3    H1  360   6.134   2.967   0.106
  132TIP3    H2  361   6.178   3.103   0.056
  133TIP3   OH2  362   2.333   1.523   2.693
  133TIP3    H1  363   2.420   1.489   2.671
  133TIP3    H2  364   2.309   1.478   2.774
  134TIP3   OH2  365   0.192   1.252   1.468
  134TIP3    H1  366   0.201   1.172   1.520
  134TIP3    H2  367   0.246   1.316   1.514
  135TIP3   OH2  368   0.669   3.116   0.675
  135TIP3    H1  369   0.576   3.128   0.653
  135TIP3    H2  370   0.706   3.204   0.672
  136TIP3   OH2  371   2.799   4.639   4.054
  136TIP3    H1  372   2.766   4.727   4.036
  136TIP3    H2  373   2.892   4.651   4.070
  137TIP3   OH2  374   0.122   2.260   3.746
  137TIP3    H1  375   0.193   2.214   3.701
  137TIP3    H2  376   0.166   2.319   3.807
  138TIP3   OH2  377   1.988   1.272   1.050
  138TIP3    H1  378   2.039   1.351   1.066
  138TIP3    H2  379   1.944   1.255   1.133
  139TIP3   OH2  380   2.811   0.485   4.489
  139TIP3    H1  381   2.829   0.511   4.580
  139TIP3    H2  382   2.719   0.461   4.488
  140TIP3   OH2  383   3.847   0.312   1.322
  140TIP3    H1  384   3.885   0.398   1.302
  140TIP3    H2  385   3.758   0.331   1.352
  141TIP3   OH2  386   1.771   4.158   1.840
  141TIP3    H1  387   1.750   4.183   1.930
  141TIP3    H2  388   1.807   4.237   1.800
  142TIP3   OH2  389   5.629   3.472   4.023
  142TIP3    H1  390   5.598   3.479   3.933
  142TIP3    H2  391   5.611   3.382   4.048
  143TIP3   OH2  392   2.148   4.182   4.988
  143TIP3    H1  393   2.197   4.122   4.932
  143TIP3    H2  394   2.096   4.235   4.928
  144TIP3   OH2  395   0.881   3.024   2.314
  144TIP3    H1  396   0.844   3.105   2.279
  144TIP3    H2  397   0.849   3.020   2.404
  145TIP3   OH2  398   1.111   0.297   5.719
  145TIP3    H1  399   1.143   0.274   5.631
  145TIP3    H2  400   1.176   0.357   5.754
  146TIP3   OH2  401   3.069   2.824   5.102
  146TIP3    H1  402   3.021   2.872   5.170
  146TIP3    H2  403   3.144   2.880   5.081
  147TIP3   OH2  404   2.191   5.873   2.489
  147TIP3    H1  405   2.271   5.821   2.479
  147TIP3    H2  406   2.218   5.962   2.465
  148TIP3   OH2  407   1.142   3.175   1.507
  148TIP3    H1  408   1.131   3.150   1.415
  148TIP3    H2  409   1.235   3.166   1.524
  149TIP3   OH2  410   6.012   0.819   2.063
  149TIP3    H1  411   6.074   0.784   2.128
  149TIP3    H2  412   6.059   0.893   2.024
  150TIP3   OH2  413   5.117   0.964   0.094
  150TIP3    H1  414   5.086   0.879   0.062
  150TIP3    H2  415   5.037   1.014   0.111
  151TIP3   OH2  416   0.568   5.692   0.833
  151TIP3    H1  417   0.566   5.761   0.768
  151TIP3    H2  418   0.659   5.662   0.833
  152TIP3   OH2  419   5.688   6.309   5.820
  152TIP3    H1  420   5.745   6.317   5.743
  152TIP3    H2  421   5.620   6.248   5.794
  153TIP3   OH2  422   6.993   3.032   3.563
  153TIP3    H1  423   7.037   3.093   3.621
  153TIP3    H2  424   6.999   3.072   3.476
  154TIP3   OH2  425   6.997   4.501   3.985
  154TIP3    H1  426   6.972   4.593   3.982
  154TIP3    H2  427   6.914   4.453   3.980
  155TIP3   OH2  428   2.133   5.426   5.550
  155TIP3    H1  429   2.039   5.429   5.531
  155TIP3    H2  430   2.149   5.335   5.577
  156TIP3   OH2  431   3.085   5.889   3.592
  156TIP3    H1  432   3.039   5.810   3.621
  156TIP3    H2  433   3.119   5.866   3.505
  157TIP3   OH2  434   6.977   1.278   3.704
  157TIP3    H1  435   7.012   1.366   3.693
  157TIP3    H2  436   7.032   1.239   3.772
  158TIP3   OH2  437   4.321   4.341   2.516
  158TIP3    H1  438   4.340   4.255   2.553
  158TIP3    H2  439   4.376   4.401   2.567
  159TIP3   OH2  440   3.801   3.397   5.465
  159TIP3    H1  441   3.867   3.395   5.395
  159TIP3    H2  442   3.848   3.430   5.541
  160TIP3   OH2  443   6.886   5.692   1.688
  160TIP3    H1  444   6.979   5.672   1.692
  160TIP3    H2  445   6.877   5.775   1.734
  161TIP3   OH2  446   2.299   1.638   1.427
  161TIP3    H1  447   2.212   1.634   1.465
  161TIP3    H2  448   2.297   1.714   1.369
  162TIP3   OH2  449   2.033   3.266   5.363
  162TIP3    H1  450   1.943   3.288   5.341
  162TIP3    H2  451   2.057   3.197   5.300
  163TIP3   OH2  452   2.332   5.171   0.010
  163TIP3    H1  453   2.304   5.106   0.074
  163TIP3    H2  454   2.324   5.127  -0.074
  164TIP3   OH2  455   3.930   0.058   1.287
  164TIP3    H1  456   4.019   0.068   1.254
  164TIP3    H2  457   3.895   0.147   1.290
  165TIP3   OH2  458   1.931   6.003   1.919
  165TIP3    H1  459   1.872   6.048   1.979
  165TIP3    H2  460   2.014   6.051   1.926
  166TIP3   OH2  461   6.767   2.586   3.611
  166TIP3    H1  462   6.862   2.595   3.605
  166TIP3    H2  463   6.740   2.549   3.527
  167TIP3   OH2  464   1.337   2.770   1.963
  167TIP3    H1  465   1.395   2.791   2.036
  167TIP3    H2  466   1.318   2.855   1.922
  168TIP3   OH2  467   4.642   1.795   2.181
  168TIP3    H1  468   4.590   1.716   2.172
  168TIP3    H2  469   4.583   1.866   2.155
  169TIP3   OH2  470   6.301   4.067   3.071
  169TIP3    H1  471   6.244   4.128   3.024
  169TIP3    H2  472   6.323   4.000   3.006
  170TIP3   OH2  473   2.837   1.140   3.700
  170TIP3    H1  474   2.865   1.107   3.614
  170TIP3    H2  475   2.823   1.234   3.685
  171TIP3   OH2  476   7.107   1.338   3.354
  171TIP3    H1  477   7.090   1.248   3.381
  171TIP3    H2  478   7.034   1.389   3.390
  172TIP3   OH2  479   1.962   2.538   4.217
  172TIP3    H1  480   1.896   2.529   4.148
  172TIP3    H2  481   2.027   2.597   4.180
  173TIP3   OH2  482   1.816   1.405   4.667
  173TIP3    H1  483   1.874   1.456   4.723
  173TIP3    H2  484   1.779   1.469   4.606
  174TIP3   OH2  485   0.371   6.037   5.723
  174TIP3    H1  486   0.325   6.069   5.800
  174TIP3    H2  487   0.444   5.985   5.758
  175TIP3   OH2  488   6.020   0.347   1.106
  175TIP3    H1  489   6.083   0.330   1.176
  175TIP3    H2  490   5.967   0.268   1.102
  176TIP3   OH2  491   1.775   6.728   2.045
  176TIP3    H1  492   1.794   6.635   2.038
  176TIP3    H2  493   1.759   6.756   1.955
  177TIP3   OH2  494   4.560   6.218   3.843
  177TIP3    H1  495   4.546   6.295   3.899
  177TIP3    H2  496   4.492   6.157   3.870
  178TIP3   OH2  497   4.738   0.155   0.925
  178TIP3    H1  498   4.779   0.218   0.866
  178TIP3    H2  499   4.702   0.088   0.867
  179TIP3   OH2  500   5.155   1.272   2.268
  179TIP3    H1  501   5.091   1.210   2.303
  179TIP3    H2  502   5.118   1.302   2.185
  180TIP3   OH2  503   1.559   5.722   5.578
  180TIP3    H1  504   1.487   5.783   5.557
  180TIP3    H2  505   1.627   5.742   5.513
  181TIP3   OH2  506   5.531   4.240   0.696
  181TIP3    H1  507   5.480   4.171   0.654
  181TIP3    H2  508   5.605   4.254   0.638
  182TIP3   OH2  509   0.458   3.324   5.508
  182TIP3    H1  510   0.379   3.338   5.455
  182TIP3    H2  511   0.529   3.357   5.453
  183TIP3   OH2  512   4.293   0.172   2.138
  183TIP3    H1  513   4.384   0.145   2.137
  183TIP3    H2  514   4.243   0.094   2.114
  184TIP3   OH2  515   4.438   0.937   1.168
  184TIP3    H1  516   4.431   0.997   1.242
  184TIP3    H2  517   4.361   0.957   1.114
  185TIP3   OH2  518   2.946   3.483   1.120
  185TIP3    H1  519   2.997   3.469   1.200
  185TIP3    H2  520   3.009   3.516   1.057
  186TIP3   OH2  521   6.225   6.142   0.481
  186TIP3    H1  522   6.232   6.226   0.436
  186TIP3    H2  523   6.183   6.084   0.418
  187TIP3   OH2  524   7.125   2.339   1.373
  187TIP3    H1  525   7.038   2.305   1.353
  187TIP3    H2  526   7.176   2.262   1.397
  188TIP3   OH2  527   5.329   2.722   1.181
  188TIP3    H1  528   5.306   2.632   1.205
  188TIP3    H2  529   5.269   2.745   1.110
  189TIP3   OH2  530   6.424   4.876   0.841
  189TIP3    H1  531   6.436   4.809   0.907
  189TIP3    H2  532   6.337   4.859   0.804
  190TIP3   OH2  533   5.130   5.512   2.226
  190TIP3    H1  534   5.204   5.566   2.197
  190TIP3    H2  535   5.170   5.432   2.258
  191TIP3   OH2  536   0.968   4.373   2.195
  191TIP3    H1  537   1.037   4.439   2.208
  191TIP3    H2  538   1.016   4.292   2.176
  192TIP3   OH2  539   5.467   4.830   2.451
  192TIP3    H1  540   5.485   4.759   2.512
  192TIP3    H2  541   5.542   4.890   2.461
  193TIP3   OH2  542   0.745   3.254   5.197
  193TIP3    H1  543   0.803   3.229   5.125
  193TIP3    H2  544   0.738   3.175   5.251
  194TIP3   OH2  545   1.776   2.114   0.629
  194TIP3    H1  546   1.686   2.132   0.602
  194TIP3    H2  547   1.826   2.118   0.547
  195TIP3   OH2  548   5.662   4.842   5.597
  195TIP3    H1  549   5.701   4.772   5.650
  195TIP3    H2  550   5.570   4.841   5.621
  196TIP3   OH2  551   3.416   4.955   2.654
  196TIP3    H1  552   3.355   4.924   2.588
  196TIP3    H2  553   3.419   4.883   2.718
  197TIP3   OH2  554   1.046   6.462   0.194
  197TIP3    H1  555   1.084   6.379   0.165
  197TIP3    H2  556   1.062   6.522   0.121
  198TIP3   OH2  557   6.979   6.423   1.501
  198TIP3    H1  558   6.969   6.492   1.435
  198TIP3    H2  559   6.980   6.470   1.584
  199TIP3   OH2  560   5.133   1.350   0.244
  199TIP3    H1  561   5.132   1.324   0.336
  199TIP3    H2  562   5.210   1.307   0.207
  200TIP3   OH2  563   7.197   4.261   2.533
  200TIP3    H1  564   7.234   4.256   2.621
  200TIP3    H2  565   7.231   4.183   2.488
  201TIP3   OH2  566   6.684   2.064   1.599
  201TIP3    H1  567   6.685   2.139   1.659
  201TIP3    H2  568   6.776   2.044   1.584
  202TIP3   OH2  569   4.487   2.411   5.560
  202TIP3    H1  570   4.437   2.486   5.591
  202TIP3    H2  571   4.502   2.429   5.467
  203TIP3   OH2  572   2.935   5.915   3.985
  203TIP3    H1  573   2.952   5.840   3.928
  203TIP3    H2  574   2.979   5.988   3.943
  204TIP3   OH2  575   1.330   2.879   4.555
  204TIP3    H1  576   1.385   2.930   4.614
  204TIP3    H2  577   1.309   2.939   4.484
  205TIP3   OH2  578   4.822   6.610   1.682
  205TIP3    H1  579   4.804   6.587   1.773
  205TIP3    H2  580   4.813   6.705   1.678
  206TIP3   OH2  581   3.714   0.481   0.030
  206TIP3    H1  582   3.650   0.550   0.047
  206TIP3    H2  583   3.798   0.526   0.026
  207TIP3   OH2  584   3.537   0.503   4.712
  207TIP3    H1  585   3.567   0.594   4.701
  207TIP3    H2  586   3.475   0.507   4.785
  208TIP3   OH2  587   3.278   1.440   4.308
  208TIP3    H1  588   3.361   1.457   4.262
  208TIP3    H2  589   3.304   1.389   4.385
  209TIP3   OH2  590   2.849   2.406   2.636
  209TIP3    H1  591   2.798   2.427   2.558
  209TIP3    H2  592   2.788   2.422   2.709
  210TIP3   OH2  593   0.603   5.917   4.304
  210TIP3    H1  594   0.551   5.872   4.372
  210TIP3    H2  595   0.662   5.974   4.353
  211TIP3   OH2  596   6.582   6.661   0.527
  211TIP3    H1  597   6.588   6.643   0.433
  211TIP3    H2  598   6.527   6.589   0.561
  212TIP3   OH2  599   0.552   5.332   3.744
  212TIP3    H1  600   0.538   5.425   3.759
  212TIP3    H2  601   0.539   5.321   3.649
  213TIP3   OH2  602   3.546   6.720   3.076
  213TIP3    H1  603   3.587   6.669   3.147
  213TIP3    H2  604   3.452   6.718   3.097
  214TIP3   OH2  605   2.223   2.128   1.588
  214TIP3    H1  606   2.215   2.149   1.681
  214TIP3    H2  607   2.298   2.068   1.583
  215TIP3   OH2  608   1.062   2.753   2.037
  215TIP3    H1  609   1.154   2.752   2.011
  215TIP3    H2  610   1.060   2.707   2.121
  216TIP3   OH2  611   1.550   5.806   1.213
  216TIP3    H1  612   1.614   5.782   1.280
  216TIP3    H2  613   1.479   5.847   1.261
  217TIP3   OH2  614   2.713   1.662   0.828
  217TIP3    H1  615   2.630   1.660   0.781
  217TIP3    H2  616   2.750   1.575   0.816
  218TIP3   OH2  617   4.511   0.971   2.022
  218TIP3    H1  618   4.433   1.012   1.984
  218TIP3    H2  619   4.564   1.045   2.054
  219TIP3   OH2  620   4.182   6.356   1.274
  219TIP3    H1  621   4.251   6.421   1.262
  219TIP3    H2  622   4.150   6.339   1.185
  220TIP3   OH2  623   0.157   5.649   1.488
  220TIP3    H1  624   0.208   5.571   1.470
  220TIP3    H2  625   0.095   5.656   1.415
  221TIP3   OH2  626   4.668   0.309   4.893
  221TIP3    H1  627   4.707   0.270   4.815
  221TIP3    H2  628   4.742   0.345   4.942
  222TIP3   OH2  629   4.225   0.356   2.936
  222TIP3    H1  630   4.231   0.401   2.852
  222TIP3    H2  631   4.135   0.372   2.965
  223TIP3   OH2  632   3.909   5.407   3.192
  223TIP3    H1  633   3.863   5.462   3.128
  223TIP3    H2  634   3.850   5.333   3.207
  224TIP3   OH2  635   5.096   1.564   2.839
  224TIP3    H1  636   5.078   1.490   2.898
  224TIP3    H2  637   5.046   1.637   2.875
  225TIP3   OH2  638   6.687   4.419   1.261
  225TIP3    H1  639   6.684   4.324   1.245
  225TIP3    H2  640   6.764   4.449   1.213
  226TIP3   OH2  641   3.344   2.204   3.286
  226TIP3    H1  642   3.258   2.224   3.249
  226TIP3    H2  643   3.390   2.288   3.287
  227TIP3   OH2  644   3.907   4.077   3.723
  227TIP3    H1  645   3.944   4.160   3.752
  227TIP3    H2  646   3.903   4.024   3.802
  228TIP3   OH2  647   5.942   0.082   4.396
  228TIP3    H1  648   5.869   0.041   4.349
  228TIP3    H2  649   5.910   0.170   4.417
  229TIP3   OH2  650   6.951   0.853   5.054
  229TIP3    H1  651   6.936   0.893   5.140
  229TIP3    H2  652   7.043   0.825   5.056
  230TIP3   OH2  653   5.918   1.844   4.928
  230TIP3    H1  654   5.853   1.784   4.965
  230TIP3    H2  655   5.883   1.931   4.946
  231TIP3   OH2  656   5.642   2.358   4.446
  231TIP3    H1  657   5.629   2.444   4.485
  231TIP3    H2  658   5.559   2.338   4.402
  232TIP3   OH2  659   1.401   4.486   2.703
  232TIP3    H1  660   1.426   4.413   2.646
  232TIP3    H2  661   1.441   4.563   2.662
  233TIP3   OH2  662   3.632   0.396   3.576
  233TIP3    H1  663   3.544   0.357   3.574
  233TIP3    H2  664   3.670   0.364   3.658
  234TIP3   OH2  665   6.285   4.614   2.520
  234TIP3    H1  666   6.209   4.556   2.511
  234TIP3    H2  667   6.353   4.573   2.467
  235TIP3   OH2  668   3.759   1.583   0.673
  235TIP3    H1  669   3.765   1.678   0.684
  235TIP3    H2  670   3.764   1.548   0.762
  236TIP3   OH2  671   0.833   5.344   1.585
  236TIP3    H1  672   0.791   5.270   1.628
  236TIP3    H2  673   0.921   5.346   1.623
  237TIP3   OH2  674   0.362   5.518   3.254
  237TIP3    H1  675   0.273   5.501   3.223
  237TIP3    H2  676   0.410   5.437   3.233
  238TIP3   OH2  677   6.548   6.073   3.421
  238TIP3    H1  678   6.600   6.076   3.340
  238TIP3    H2  679   6.484   6.004   3.406
  239TIP3   OH2  680   6.386   2.677   1.784
  239TIP3    H1  681   6.347   2.725   1.857
  239TIP3    H2  682   6.468   2.723   1.767
  240TIP3   OH2  683   5.703   6.355   0.626
  240TIP3    H1  684   5.672   6.432   0.578
  240TIP3    H2  685   5.747   6.302   0.560
  241TIP3   OH2  686   6.850   4.680   1.544
  241TIP3    H1  687   6.910   4.674   1.470
  241TIP3    H2  688   6.887   4.747   1.601
  242TIP3   OH2  689   6.510   5.885   2.768
  242TIP3    H1  690   6.467   5.902   2.852
  242TIP3    H2  691   6.481   5.797   2.744
  243TIP3   OH2  692   6.432   0.378   0.844
  243TIP3    H1  693   6.457   0.447   0.905
  243TIP3    H2  694   6.423   0.422   0.760
  244TIP3   OH2  695   6.419   6.094   5.458
  244TIP3    H1  696   6.363   6.027   5.419
  244TIP3    H2  697   6.507   6.070   5.433
  245TIP3   OH2  698   2.621   6.105   4.642
  245TIP3    H1  699   2.669   6.088   4.723
  245TIP3    H2  700   2.546   6.157   4.670
  246TIP3   OH2  701   2.165   1.085   5.311
  246TIP3    H1  702   2.169   1.005   5.259
  246TIP3    H2  703   2.122   1.059   5.392
  247TIP3   OH2  704   3.476   6.455   4.071
  247TIP3    H1  705   3.483   6.538   4.118
  247TIP3    H2  706   3.399   6.466   4.015
  248TIP3   OH2  707   0.684   6.621   1.853
  248TIP3    H1  708   0.709   6.572   1.775
  248TIP3    H2  709   0.760   6.675   1.873
  249TIP3   OH2  710   7.088   2.565   3.563
  249TIP3    H1  711   7.051   2.635   3.511
  249TIP3    H2  712   7.183   2.581   3.561
  250TIP3   OH2  713   6.060   0.132   5.773
  250TIP3    H1  714   6.026   0.192   5.839
  250TIP3    H2  715   6.155   0.140   5.779
  251TIP3   OH2  716   1.105   2.585   4.404
  251TIP3    H1  717   1.072   2.669   4.371
  251TIP3    H2  718   1.102   2.527   4.327
  252TIP3   OH2  719   5.624   3.285   1.678
  252TIP3    H1  720   5.607   3.363   1.625
  252TIP3    H2  721   5.671   3.226   1.618
  253TIP3   OH2  722   3.309   4.298   5.735
  253TIP3    H1  723   3.354   4.249   5.667
  253TIP3    H2  724   3.330   4.390   5.716
  254TIP3   OH2  725   2.277   4.688   2.777
  254TIP3    H1  726   2.300   4.694   2.870
  254TIP3    H2  727   2.196   4.738   2.769
  255TIP3   OH2  728   5.313   5.997   0.374
  255TIP3    H1  729   5.362   6.025   0.297
  255TIP3    H2  730   5.247   5.937   0.339
  256TIP3   OH2  731   0.947   2.154   3.381
  256TIP3    H1  732   0.863   2.129   3.419
  256TIP3    H2  733   1.005   2.080   3.401
  257TIP3   OH2  734   6.669   0.230   2.332
  257TIP3    H1  735   6.609   0.184   2.390
  257TIP3    H2  736   6.650   0.323   2.346
  258TIP3   OH2  737   6.479   2.344   2.772
  258TIP3    H1  738   6.474   2.377   2.682
  258TIP3    H2  739   6.569   2.315   2.782
  259TIP3   OH2  740   3.330   3.547   3.731
  259TIP3    H1  741   3.246   3.568   3.772
  259TIP3    H2  742   3.325   3.586   3.644
  260TIP3   OH2  743   2.715   5.021   1.246
  260TIP3    H1  744   2.809   5.011   1.232
  260TIP3    H2  745   2.679   4.933   1.232
  261TIP3   OH2  746   4.226   2.579   2.380
  261TIP3    H1  747   4.303   2.531   2.349
  261TIP3    H2  748   4.253   2.671   2.378
  262TIP3   OH2  749   0.394   6.128   1.251
  262TIP3    H1  750   0.340   6.053   1.229
  262TIP3    H2  751   0.342   6.179   1.313
  263TIP3   OH2  752   6.625   6.437   2.633
  263TIP3    H1  753   6.699   6.496   2.618
  263TIP3    H2  754   6.633   6.370   2.565
  264TIP3   OH2  755   0.521   5.060   5.546
  264TIP3    H1  756   0.435   5.018   5.535
  264TIP3    H2  757   0.552   5.028   5.631
  265TIP3   OH2  758   0.147   2.482   3.917
  265TIP3    H1  759   0.169   2.508   3.827
  265TIP3    H2  760   0.097   2.556   3.951
  266TIP3   OH2  761   0.246   3.618   4.569
  266TIP3    H1  762   0.246   3.652   4.480
  266TIP3    H2  763   0.241   3.696   4.624
  267TIP3   OH2  764   0.617   4.157   1.188
  267TIP3    H1  765   0.554   4.087   1.202
  267TIP3    H2  766   0.563   4.236   1.180
  268TIP3   OH2  767   0.320   1.746   5.314
  268TIP3    H1  768   0.381   1.672   5.318
  268TIP3    H2  769   0.325   1.786   5.401
  269TIP3   OH2  770   6.467   1.235   4.681
  269TIP3    H1  771   6.452   1.193   4.596
  269TIP3    H2  772   6.546   1.192   4.715
  270TIP3   OH2  773   3.648   2.772   2.832
  270TIP3    H1  774   3.577   2.824   2.870
  270TIP3    H2  775   3.670   2.817   2.750
  271TIP3   OH2  776   2.752   2.263   4.484
  271TIP3    H1  777   2.815   2.274   4.556
  271TIP3    H2  778   2.668   2.287   4.522
  272TIP3   OH2  779   1.958   0.483   1.612
  272TIP3    H1  780   2.018   0.439   1.553
  272TIP3    H2  781   1.876   0.435   1.605
  273TIP3   OH2  782   5.455   5.308   0.959
  273TIP3    H1  783   5.435   5.356   1.039
  273TIP3    H2  784   5.489   5.223   0.989
  274TIP3   OH2  785   5.051   4.556   4.167
  274TIP3    H1  786   5.097   4.627   4.212
  274TIP3    H2  787   5.073   4.478   4.216
  275TIP3   OH2  788   3.396   4.640   3.739
  275TIP3    H1  789   3.473   4.666   3.688
  275TIP3    H2  790   3.416   4.551   3.769
  276TIP3   OH2  791   1.735   3.335   1.285
  276TIP3    H1  792   1.827   3.363   1.284
  276TIP3    H2  793   1.730   3.273   1.358
  277TIP3   OH2  794   2.217   1.018   1.125
  277TIP3    H1  795   2.262   1.102   1.138
  277TIP3    H2  796   2.129   1.032   1.161
  278TIP3   OH2  797   4.130   3.732   5.839
  278TIP3    H1  798   4.167   3.817   5.863
  278TIP3    H2  799   4.075   3.750   5.763
  279TIP3   OH2  800   0.352   5.343   0.107
  279TIP3    H1  801   0.421   5.305   0.161
  279TIP3    H2  802   0.336   5.429   0.145
  280TIP3   OH2  803   1.222   4.333   0.693
  280TIP3    H1  804   1.289   4.344   0.625
  280TIP3    H2  805   1.239   4.404   0.755
  281TIP3   OH2  806   3.071   5.289   1.311
  281TIP3    H1  807   3.039   5.264   1.397
  281TIP3    H2  808   3.035   5.224   1.251
  282TIP3   OH2  809   2.068   0.825   3.008
  282TIP3    H1  810   2.027   0.866   2.932
  282TIP3    H2  811   2.154   0.796   2.977
  283TIP3   OH2  812   4.545   0.304   3.766
  283TIP3    H1  813   4.633   0.323   3.799
  283TIP3    H2  814   4.518   0.386   3.724
  284TIP3   OH2  815   5.542   1.449   4.614
  284TIP3    H1  816   5.481   1.501   4.561
  284TIP3    H2  817   5.609   1.420   4.551
  285TIP3   OH2  818   0.977   0.357   2.454
  285TIP3    H1  819   1.046   0.416   2.422
  285TIP3    H2  820   0.924   0.412   2.512
  286TIP3   OH2  821   0.565   4.745   4.242
  286TIP3    H1  822   0.599   4.686   4.175
  286TIP3    H2  823   0.638   4.803   4.263
  287TIP3   OH2  824   0.956   5.278   0.681
  287TIP3    H1  825   0.863   5.256   0.693
  287TIP3    H2  826   0.966   5.364   0.722
  288TIP3   OH2  827   4.104   0.301   0.203
  288TIP3    H1  828   4.172   0.361   0.232
  288TIP3    H2  829   4.075   0.257   0.283
  289TIP3   OH2  830   7.005   2.797   2.507
  289TIP3    H1  831   7.092   2.761   2.493
  289TIP3    H2  832   7.017   2.892   2.499
  290TIP3   OH2  833   7.063   5.948   5.826
  290TIP3    H1  834   7.009   5.880   5.785
  290TIP3    H2  835   7.005   5.988   5.892
  291TIP3   OH2  836   2.369   1.128   4.900
  291TIP3    H1  837   2.323   1.137   4.984
  291TIP3    H2  838   2.424   1.050   4.911
  292TIP3   OH2  839   1.478   5.618   2.279
  292TIP3    H1  840   1.438   5.670   2.349
  292TIP3    H2  841   1.544   5.564   2.323
  293TIP3   OH2  842   6.859   3.922   3.744
  293TIP3    H1  843   6.768   3.903   3.769
  293TIP3    H2  844   6.865   4.017   3.748
  294TIP3   OH2  845   5.991   5.378   0.866
  294TIP3    H1  846   6.042   5.302   0.838
  294TIP3    H2  847   6.034   5.409   0.945
  295TIP3   OH2  848   6.478   5.179   2.728
  295TIP3    H1  849   6.542   5.127   2.679
  295TIP3    H2  850   6.442   5.118   2.792
  296TIP3   OH2  851   3.792   1.682   4.828
  296TIP3    H1  852   3.830   1.717   4.909
  296TIP3    H2  853   3.866   1.675   4.768
  297TIP3   OH2  854   2.622   3.532   0.785
  297TIP3    H1  855   2.532   3.510   0.764
  297TIP3    H2  856   2.664   3.448   0.804
  298TIP3   OH2  857   4.847   2.715   3.142
  298TIP3    H1  858   4.891   2.642   3.185
  298TIP3    H2  859   4.787   2.674   3.080
  299TIP3   OH2  860   2.637   0.533   3.864
  299TIP3    H1  861   2.587   0.615   3.869
  299TIP3    H2  862   2.630   0.505   3.773
  300TIP3   OH2  863   2.217   4.629   5.709
  300TIP3    H1  864   2.255   4.548   5.743
  300TIP3    H2  865   2.132   4.603   5.674
  301TIP3   OH2  866   2.634   4.884   1.556
  301TIP3    H1  867   2.656   4.944   1.485
  301TIP3    H2  868   2.605   4.940   1.628
  302TIP3   OH2  869   1.160   1.305   0.153
  302TIP3    H1  870   1.225   1.237   0.171
  302TIP3    H2  871   1.123   1.280   0.068
  303TIP3   OH2  872   2.136   0.356   4.254
  303TIP3    H1  873   2.225   0.322   4.243
  303TIP3    H2  874   2.135   0.437   4.204
  304TIP3   OH2  875   1.330   3.091   4.357
  304TIP3    H1  876   1.398   3.053   4.301
  304TIP3    H2  877   1.367   3.174   4.387
  305TIP3   OH2  878   5.680   2.009   4.963
  305TIP3    H1  879   5.632   2.085   4.998
  305TIP3    H2  880   5.654   1.937   5.020
  306TIP3   OH2  881   3.808   5.880   3.289
  306TIP3    H1  882   3.806   5.975   3.293
  306TIP3    H2  883   3.767   5.859   3.205
  307TIP3   OH2  884   1.240   4.318   3.732
  307TIP3    H1  885   1.149   4.338   3.752
  307TIP3    H2  886   1.291   4.379   3.785
  308TIP3   OH2  887   5.753   2.559   2.226
  308TIP3    H1  888   5.669   2.570   2.272
  308TIP3    H2  889   5.745   2.474   2.182
  309TIP3   OH2  890   6.422   0.671   4.775
  309TIP3    H1  891   6.362   0.630   4.838
  309TIP3    H2  892   6.496   0.700   4.829
  310TIP3   OH2  893   1.681   4.687   1.329
  310TIP3    H1  894   1.700   4.781   1.328
  310TIP3    H2  895   1.641   4.671   1.414
  311TIP3   OH2  896   5.435   3.849   3.286
  311TIP3    H1  897   5.404   3.783   3.348
  311TIP3    H2  898   5.529   3.832   3.277
  312TIP3   OH2  899   3.281   6.721   4.360
  312TIP3    H1  900   3.236   6.749   4.280
  312TIP3    H2  901   3.331   6.644   4.334
  313TIP3   OH2  902   0.157   3.026   3.515
  313TIP3    H1  903   0.085   3.072   3.471
  313TIP3    H2  904   0.179   2.955   3.456
  314TIP3   OH2  905   0.151   4.304   1.788
  314TIP3    H1  906   0.120   4.286   1.700
  314TIP3    H2  907   0.165   4.399   1.790
  315TIP3   OH2  908   6.109   2.833   1.526
  315TIP3    H1  909   6.126   2.887   1.449
  315TIP3    H2  910   6.162   2.754   1.513
  316TIP3   OH2  911   2.435   4.520   3.895
  316TIP3    H1  912   2.440   4.523   3.800
  316TIP3    H2  913   2.516   4.477   3.922
  317TIP3   OH2  914   1.093   1.955   0.064
  317TIP3    H1  915   1.046   2.026   0.019
  317TIP3    H2  916   1.025   1.910   0.114
  318TIP3   OH2  917   2.660   6.422   5.429
  318TIP3    H1  918   2.609   6.502   5.421
  318TIP3    H2  919   2.623   6.378   5.505
  319TIP3   OH2  920   1.309   4.847   3.734
  319TIP3    H1  921   1.233   4.887   3.693
  319TIP3    H2  922   1.379   4.856   3.669
  320TIP3   OH2  923   2.436   6.116   1.371
  320TIP3    H1  924   2.427   6.110   1.466
  320TIP3    H2  925   2.358   6.162   1.342
  321TIP3   OH2  926   0.044   6.750   3.857
  321TIP3    H1  927   0.080   6.839   3.862
  321TIP3    H2  928   0.103   6.704   3.798
  322TIP3   OH2  929   4.798   3.048   4.416
  322TIP3    H1  930   4.828   3.131   4.378
  322TIP3    H2  931   4.865   2.984   4.391
  323TIP3   OH2  932   0.533   6.556   0.093
  323TIP3    H1  933   0.544   6.649   0.111
  323TIP3    H2  934   0.606   6.514   0.138
  324TIP3   OH2  935   5.251   2.047   3.914
  324TIP3    H1  936   5.274   2.132   3.950
  324TIP3    H2  937   5.265   1.985   3.986
  325TIP3   OH2  938   4.286   2.356   2.173
  325TIP3    H1  939   4.228   2.395   2.109
  325TIP3    H2  940   4.233   2.288   2.215
  326TIP3   OH2  941   0.223   1.626   1.155
  326TIP3    H1  942   0.269   1.648   1.074
  326TIP3    H2  943   0.293   1.606   1.217
  327TIP3   OH2  944   3.348   6.704   1.279
  327TIP3    H1  945   3.377   6.639   1.216
  327TIP3    H2  946   3.336   6.655   1.361
  328TIP3   OH2  947   4.201   0.711   5.030
  328TIP3    H1  948   4.123   0.657   5.044
  328TIP3    H2  949   4.224   0.696   4.938
  329TIP3   OH2  950   2.136   2.383   1.729
  329TIP3    H1  951   2.052   2.361   1.769
  329TIP3    H2  952   2.198   2.322   1.769
  330TIP3   OH2  953   2.789   1.776   0.265
  330TIP3    H1  954   2.757   1.741   0.181
  330TIP3    H2  955   2.746   1.721   0.331
  331TIP3   OH2  956   5.682   1.713   1.411
  331TIP3    H1  957   5.698   1.630   1.366
  331TIP3    H2  958   5.622   1.691   1.482
  332TIP3   OH2  959   3.554   1.823   3.510
  332TIP3    H1  960   3.621   1.828   3.578
  332TIP3    H2  961   3.509   1.908   3.515
  333TIP3   OH2  962   4.109   6.777   3.785
  333TIP3    H1  963   4.018   6.768   3.756
  333TIP3    H2  964   4.155   6.812   3.709
  334TIP3   OH2  965   1.989   1.917   3.757
  334TIP3    H1  966   2.005   1.823   3.746
  334TIP3    H2  967   2.004   1.934   3.850
  335TIP3   OH2  968   0.148   5.389   3.474
  335TIP3    H1  969   0.096   5.318   3.511
  335TIP3    H2  970   0.090   5.431   3.411
  336TIP3   OH2  971   6.990   4.174   4.491
  336TIP3    H1  972   7.034   4.188   4.408
  336TIP3    H2  973   6.942   4.091   4.479
  337TIP3   OH2  974   6.398   6.561   1.605
  337TIP3    H1  975   6.439   6.587   1.522
  337TIP3    H2  976   6.328   6.501   1.580
  338TIP3   OH2  977   2.951   5.938   1.456
  338TIP3    H1  978   2.901   6.019   1.448
  338TIP3    H2  979   3.024   5.949   1.396
  339TIP3   OH2  980   2.984   1.257   4.480
  339TIP3    H1  981   3.037   1.300   4.413
  339TIP3    H2  982   2.974   1.168   4.448
  340TIP3   OH2  983   2.922   1.000   5.539
  340TIP3    H1  984   2.868   1.017   5.463
  340TIP3    H2  985   2.869   0.943   5.594
  341TIP3   OH2  986   1.624   6.242   2.653
  341TIP3    H1  987   1.712   6.205   2.658
  341TIP3    H2  988   1.597   6.252   2.744
  342TIP3   OH2  989   3.673   2.373   5.416
  342TIP3    H1  990   3.634   2.342   5.334
  342TIP3    H2  991   3.623   2.328   5.484
  343TIP3   OH2  992   0.658   1.189   5.778
  343TIP3    H1  993   0.641   1.189   5.872
  343TIP3    H2  994   0.690   1.277   5.759
  344TIP3   OH2  995   4.644   0.163   1.618
  344TIP3    H1  996   4.674   0.236   1.672
  344TIP3    H2  997   4.691   0.087   1.651
  345TIP3   OH2  998   4.561   0.524   5.773
  345TIP3    H1  999   4.535   0.432   5.766
  345TIP3    H2 1000   4.571   0.553   5.683
  346TIP3   OH2 1001   0.510   0.326   2.293
  346TIP3    H1 1002   0.602   0.318   2.319
  346TIP3    H2 1003   0.463   0.273   2.357
  347TIP3   OH2 1004   6.584   4.809   4.812
  347TIP3    H1 1005   6.555   4.796   4.723
  347TIP3    H2 1006   6.663   4.862   4.804
  348TIP3   OH2 1007   2.792   5.857   5.819
  348TIP3    H1 1008   2.701   5.858   5.790
  348TIP3    H2 1009   2.788   5.829   5.910
  349TIP3   OH2 1010   1.036   4.975   0.189
  349TIP3    H1 1011   1.090   4.902   0.159
  349TIP3    H2 1012   0.949   4.958   0.151
  350TIP3   OH2 1013   4.237   3.046   1.465
  350TIP3    H1 1014   4.299   3.067   1.535
  350TIP3    H2 1015   4.246   2.951   1.453
  351TIP3   OH2 1016   3.534   3.831   2.603
  351TIP3    H1 1017   3.531   3.736   2.597
  351TIP3    H2 1018   3.522   3.861   2.513
  352TIP3   OH2 1019   5.673   5.606   5.704
  352TIP3    H1 1020   5.642   5.694   5.720
  352TIP3    H2 1021   5.760   5.603   5.744
  353TIP3   OH2 1022   1.825   0.109   3.705
  353TIP3    H1 1023   1.829   0.169   3.780
  353TIP3    H2 1024   1.746   0.057   3.719
  354TIP3   OH2 1025   6.900   0.671   0.135
  354TIP3    H1 1026   6.974   0.702   0.082
  354TIP3    H2 1027   6.837   0.639   0.071
  355TIP3   OH2 1028   3.235   1.967   3.196
  355TIP3    H1 1029   3.300   2.002   3.256
  355TIP3    H2 1030   3.152   1.976   3.243
  356TIP3   OH2 1031   4.977   1.572   1.579
  356TIP3    H1 1032   5.018   1.549   1.662
  356TIP3    H2 1033   5.042   1.548   1.513
  357TIP3   OH2 1034   0.595   6.782   3.244
  357TIP3    H1 1035   0.541   6.826   3.310
  357TIP3    H2 1036   0.609   6.694   3.279
  358TIP3   OH2 1037   2.626   4.735   1.249
  358TIP3    H1 1038   2.621   4.699   1.161
  358TIP3    H2 1039   2.541   4.713   1.289
  359TIP3   OH2 1040   4.785   1.645   5.098
  359TIP3    H1 1041   4.773   1.559   5.056
  359TIP3    H2 1042   4.703   1.691   5.083
  360TIP3   OH2 1043   1.137   3.923   2.583
  360TIP3    H1 1044   1.045   3.894   2.586
  360TIP3    H2 1045   1.135   4.005   2.534
  361TIP3   OH2 1046   2.243   3.598   2.716
  361TIP3    H1 1047   2.169   3.616   2.658
  361TIP3    H2 1048   2.256   3.503   2.709
  362TIP3   OH2 1049   0.360   2.069   4.042
  362TIP3    H1 1050   0.297   2.140   4.058
  362TIP3    H2 1051   0.317   2.014   3.977
  363TIP3   OH2 1052   2.112   0.283   2.409
  363TIP3    H1 1053   2.187   0.314   2.358
  363TIP3    H2 1054   2.046   0.351   2.399
  364TIP3   OH2 1055   1.457   0.954   5.667
  364TIP3    H1 1056   1.510   1.020   5.623
  364TIP3    H2 1057   1.519   0.906   5.722
  365TIP3   OH2 1058   1.543   4.985   4.859
  365TIP3    H1 1059   1.577   4.947   4.940
  365TIP3    H2 1060   1.599   5.060   4.842
  366TIP3   OH2 1061   7.029   4.292   2.216
  366TIP3    H1 1062   6.977   4.242   2.154
  366TIP3    H2 1063   7.095   4.336   2.163
  367TIP3   OH2 1064   5.306   3.539   1.404
  367TIP3    H1 1065   5.275   3.629   1.411
  367TIP3    H2 1066   5.240   3.495   1.351
  368TIP3   OH2 1067   7.142   3.082   0.159
  368TIP3    H1 1068   7.201   3.154   0.181
  368TIP3    H2 1069   7.186   3.004   0.192
  369TIP3   OH2 1070   1.274   4.857   0.605
  369TIP3    H1 1071   1.311   4.769   0.602
  369TIP3    H2 1072   1.202   4.856   0.542
  370TIP3   OH2 1073   7.048   2.749   2.100
  370TIP3    H1 1074   7.037   2.660   2.133
  370TIP3    H2 1075   7.011   2.747   2.012
  371TIP3   OH2 1076   6.725   4.380   0.519
  371TIP3    H1 1077   6.690   4.465   0.542
  371TIP3    H2 1078   6.671   4.351   0.445
  372TIP3   OH2 1079   2.394   2.905   5.886
  372TIP3    H1 1080   2.355   2.952   5.960
  372TIP3    H2 1081   2.402   2.814   5.916
  373TIP3   OH2 1082   5.220   0.244   3.616
  373TIP3    H1 1083   5.150   0.307   3.605
  373TIP3    H2 1084   5.242   0.215   3.528
  374TIP3   OH2 1085   5.681   5.230   1.246
  374TIP3    H1 1086   5.702   5.287   1.173
  374TIP3    H2 1087   5.740   5.155   1.236
  375TIP3   OH2 1088   1.542   4.260   3.579
  375TIP3    H1 1089   1.531   4.354   3.571
  375TIP3    H2 1090   1.457   4.224   3.554
  376TIP3   OH2 1091   6.211   3.612   5.311
  376TIP3    H1 1092   6.159   3.681   5.271
  376TIP3    H2 1093   6.301   3.646   5.312
  377TIP3   OH2 1094   0.326   2.784   2.551
  377TIP3    H1 1095   0.300   2.840   2.478
  377TIP3    H2 1096   0.412   2.750   2.526
  378TIP3   OH2 1097   0.672   1.753   3.794
  378TIP3    H1 1098   0.651   1.766   3.887
  378TIP3    H2 1099   0.767   1.764   3.789
  379TIP3   OH2 1100   6.198   2.564   1.458
  379TIP3    H1 1101   6.279   2.514   1.450
  379TIP3    H2 1102   6.151   2.522   1.529
  380TIP3   OH2 1103   6.758   2.911   3.296
  380TIP3    H1 1104   6.769   2.879   3.386
  380TIP3    H2 1105   6.837   2.882   3.251
  381TIP3   OH2 1106   2.703   5.107   4.156
  381TIP3    H1 1107   2.761   5.131   4.084
  381TIP3    H2 1108   2.678   5.016   4.137
  382TIP3   OH2 1109   6.678   4.302   5.189
  382TIP3    H1 1110   6.613   4.365   5.222
  382TIP3    H2 1111   6.756   4.355   5.173
  383TIP3   OH2 1112   5.300   5.042   2.357
  383TIP3    H1 1113   5.220   4.991   2.345
  383TIP3    H2 1114   5.370   4.978   2.366
  384TIP3   OH2 1115   6.909   3.911   4.451
  384TIP3    H1 1116   6.879   3.903   4.541
  384TIP3    H2 1117   6.845   3.862   4.399
  385TIP3   OH2 1118   6.762   6.646   5.867
  385TIP3    H1 1119   6.684   6.591   5.871
  385TIP3    H2 1120   6.731   6.734   5.890
  386TIP3   OH2 1121   0.691   4.291   3.699
  386TIP3    H1 1122   0.641   4.357   3.651
  386TIP3    H2 1123   0.679   4.313   3.791
  387TIP3   OH2 1124   5.368   3.132   1.557
  387TIP3    H1 1125   5.293   3.150   1.614
  387TIP3    H2 1126   5.412   3.057   1.598
  388TIP3   OH2 1127   4.118   4.169   3.321
  388TIP3    H1 1128   4.049   4.104   3.309
  388TIP3    H2 1129   4.079   4.252   3.294
  389TIP3   OH2 1130   6.379   4.108   3.778
  389TIP3    H1 1131   6.301   4.054   3.765
  389TIP3    H2 1132   6.391   4.153   3.694
  390TIP3   OH2 1133   4.477   0.290   5.507
  390TIP3    H1 1134   4.484   0.263   5.415
  390TIP3    H2 1135   4.436   0.216   5.551
  391TIP3   OH2 1136   1.907   5.753   2.404
  391TIP3    H1 1137   1.907   5.793   2.317
  391TIP3    H2 1138   1.997   5.764   2.436
  392TIP3   OH2 1139   3.420   1.581   1.105
  392TIP3    H1 1140   3.413   1.644   1.177
  392TIP3    H2 1141   3.330   1.556   1.087
  393TIP3   OH2 1142   1.259   4.828   2.998
  393TIP3    H1 1143   1.165   4.844   3.012
  393TIP3    H2 1144   1.299   4.915   3.003
  394TIP3   OH2 1145   1.368   5.664   2.536
  394TIP3    H1 1146   1.359   5.669   2.631
  394TIP3    H2 1147   1.389   5.572   2.518
  395TIP3   OH2 1148   5.659   3.517   3.168
  395TIP3    H1 1149   5.736   3.483   3.122
  395TIP3    H2 1150   5.585   3.468   3.130
  396TIP3   OH2 1151   0.165   6.195   4.893
  396TIP3    H1 1152   0.167   6.143   4.973
  396TIP3    H2 1153   0.219   6.146   4.831
  397TIP3   OH2 1154   6.065   1.165   2.818
  397TIP3    H1 1155   6.141   1.146   2.763
  397TIP3    H2 1156   6.004   1.211   2.760
  398TIP3   OH2 1157   3.729   5.071   5.173
  398TIP3    H1 1158   3.718   5.142   5.237
  398TIP3    H2 1159   3.655   5.012   5.190
  399TIP3   OH2 1160   6.597   2.021   3.335
  399TIP3    H1 1161   6.608   1.987   3.246
  399TIP3    H2 1162   6.640   2.106   3.334
  400TIP3   OH2 1163   2.432   0.786   4.696
  400TIP3    H1 1164   2.465   0.789   4.786
  400TIP3    H2 1165   2.411   0.694   4.682
  401TIP3   OH2 1166   2.255   3.381   0.195
  401TIP3    H1 1167   2.264   3.347   0.284
  401TIP3    H2 1168   2.346   3.393   0.166
  402TIP3   OH2 1169   3.496   0.320   5.144
  402TIP3    H1 1170   3.484   0.226   5.132
  402TIP3    H2 1171   3.562   0.345   5.080
  403TIP3   OH2 1172   5.782   6.048   5.608
  403TIP3    H1 1173   5.826   5.996   5.540
  403TIP3    H2 1174   5.705   6.085   5.565
  404TIP3   OH2 1175   4.164   5.993   3.234
  404TIP3    H1 1176   4.190   6.050   3.306
  404TIP3    H2 1177   4.225   6.013   3.163
  405TIP3   OH2 1178   4.614   4.134   3.168
  405TIP3    H1 1179   4.597   4.216   3.121
  405TIP3    H2 1180   4.528   4.106   3.198
  406TIP3   OH2 1181   0.723   3.186   2.768
  406TIP3    H1 1182   0.642   3.227   2.739
  406TIP3    H2 1183   0.742   3.227   2.852
  407TIP3   OH2 1184   7.093   1.887   0.812
  407TIP3    H1 1185   7.119   1.951   0.878
  407TIP3    H2 1186   7.055   1.815   0.861
  408TIP3   OH2 1187   5.099   0.463   1.079
  408TIP3    H1 1188   5.079   0.434   1.168
  408TIP3    H2 1189   5.156   0.538   1.090
  409TIP3   OH2 1190   4.602   3.032   4.851
  409TIP3    H1 1191   4.656   3.056   4.776
  409TIP3    H2 1192   4.513   3.053   4.824
  410TIP3   OH2 1193   1.650   3.118   2.094
  410TIP3    H1 1194   1.704   3.188   2.130
  410TIP3    H2 1195   1.561   3.154   2.093
  411TIP3   OH2 1196   6.264   1.341   2.891
  411TIP3    H1 1197   6.235   1.285   2.962
  411TIP3    H2 1198   6.184   1.361   2.841
  412TIP3   OH2 1199   3.424   0.170   2.224
  412TIP3    H1 1200   3.461   0.258   2.228
  412TIP3    H2 1201   3.493   0.116   2.186
  413TIP3   OH2 1202   4.145   1.173   1.636
  413TIP3    H1 1203   4.207   1.117   1.682
  413TIP3    H2 1204   4.177   1.177   1.547
  414TIP3   OH2 1205   0.051   2.778   2.632
  414TIP3    H1 1206   0.135   2.804   2.596
  414TIP3    H2 1207   0.033   2.843   2.700
  415TIP3   OH2 1208   7.070   2.582   3.938
  415TIP3    H1 1209   7.039   2.612   3.853
  415TIP3    H2 1210   7.069   2.661   3.993
  416TIP3   OH2 1211   1.417   0.584   4.518
  416TIP3    H1 1212   1.381   0.661   4.562
  416TIP3    H2 1213   1.504   0.574   4.555
  417TIP3   OH2 1214   5.566   2.607   4.244
  417TIP3    H1 1215   5.648   2.624   4.292
  417TIP3    H2 1216   5.586   2.532   4.189
  418TIP3   OH2 1217   6.037   1.692   5.245
  418TIP3    H1 1218   5.989   1.774   5.232
  418TIP3    H2 1219   6.099   1.712   5.316
  419TIP3   OH2 1220   1.011   0.305   4.671
  419TIP3    H1 1221   1.084   0.364   4.652
  419TIP3    H2 1222   0.957   0.353   4.735
  420TIP3   OH2 1223   3.879   6.780   4.073
  420TIP3    H1 1224   3.895   6.857   4.018
  420TIP3    H2 1225   3.883   6.706   4.012
  421TIP3   OH2 1226   6.311   4.190   4.064
  421TIP3    H1 1227   6.267   4.272   4.086
  421TIP3    H2 1228   6.315   4.189   3.968
  422TIP3   OH2 1229   4.373   3.430   2.960
  422TIP3    H1 1230   4.313   3.361   2.988
  422TIP3    H2 1231   4.429   3.446   3.036
  423TIP3   OH2 1232   4.466   2.623   1.312
  423TIP3    H1 1233   4.454   2.545   1.257
  423TIP3    H2 1234   4.474   2.590   1.401
  424TIP3   OH2 1235   4.713   1.863   1.070
  424TIP3    H1 1236   4.712   1.929   1.140
  424TIP3    H2 1237   4.759   1.788   1.107
  425TIP3   OH2 1238   5.933   5.683   5.042
  425TIP3    H1 1239   5.898   5.594   5.042
  425TIP3    H2 1240   5.910   5.718   4.956
  426TIP3   OH2 1241   3.424   5.051   0.110
  426TIP3    H1 1242   3.333   5.074   0.127
  426TIP3    H2 1243   3.435   5.065   0.016
  427TIP3   OH2 1244   3.253   1.681   5.834
  427TIP3    H1 1245   3.301   1.708   5.756
  427TIP3    H2 1246   3.318   1.639   5.890
  428TIP3   OH2 1247   3.369   5.566   5.816
  428TIP3    H1 1248   3.275   5.560   5.800
  428TIP3    H2 1249   3.393   5.656   5.795
  429TIP3   OH2 1250   2.358   4.325   0.764
  429TIP3    H1 1251   2.372   4.236   0.795
  429TIP3    H2 1252   2.389   4.325   0.674
  430TIP3   OH2 1253   1.619   1.680   1.425
  430TIP3    H1 1254   1.572   1.759   1.398
  430TIP3    H2 1255   1.706   1.690   1.387
  431TIP3   OH2 1256   0.954   5.117   3.183
  431TIP3    H1 1257   0.941   5.212   3.182
  431TIP3    H2 1258   0.985   5.095   3.096
  432TIP3   OH2 1259   1.733   3.482   0.626
  432TIP3    H1 1260   1.670   3.432   0.574
  432TIP3    H2 1261   1.684   3.558   0.656
  433TIP3   OH2 1262   3.545   2.129   3.462
  433TIP3    H1 1263   3.492   2.151   3.386
  433TIP3    H2 1264   3.573   2.213   3.498
  434TIP3   OH2 1265   7.039   6.699   1.568
  434TIP3    H1 1266   7.074   6.676   1.654
  434TIP3    H2 1267   6.989   6.779   1.582
  435TIP3   OH2 1268   0.008   5.703   5.499
  435TIP3    H1 1269   0.082   5.701   5.439
  435TIP3    H2 1270  -0.065   5.735   5.446
  436TIP3   OH2 1271   3.015   1.445   5.550
  436TIP3    H1 1272   2.979   1.518   5.600
  436TIP3    H2 1273   3.101   1.476   5.521
  437TIP3   OH2 1274   0.645   6.689   4.790
  437TIP3    H1 1275   0.619   6.769   4.744
  437TIP3    H2 1276   0.601   6.619   4.742
  438TIP3   OH2 1277   4.375   5.050   5.484
  438TIP3    H1 1278   4.411   5.085   5.403
  438TIP3    H2 1279   4.281   5.070   5.479
  439TIP3   OH2 1280   0.805   5.020   4.705
  439TIP3    H1 1281   0.778   4.928   4.706
  439TIP3    H2 1282   0.728   5.067   4.738
  440TIP3   OH2 1283   1.124   5.422   2.364
  440TIP3    H1 1284   1.171   5.439   2.282
  440TIP3    H2 1285   1.193   5.408   2.429
  441TIP3   OH2 1286   4.366   1.098   4.597
  441TIP3    H1 1287   4.291   1.039   4.585
  441TIP3    H2 1288   4.406   1.102   4.510
  442TIP3   OH2 1289   4.624   6.038   4.113
  442TIP3    H1 1290   4.543   6.051   4.163
  442TIP3    H2 1291   4.672   5.973   4.164
  443TIP3   OH2 1292   4.400   1.126   3.785
  443TIP3    H1 1293   4.333   1.191   3.762
  443TIP3    H2 1294   4.370   1.045   3.744
  444TIP3   OH2 1295   6.606   0.505   4.606
  444TIP3    H1 1296   6.605   0.546   4.520
  444TIP3    H2 1297   6.573   0.572   4.666
  445TIP3   OH2 1298   5.236   3.782   3.078
  445TIP3    H1 1299   5.162   3.724   3.089
  445TIP3    H2 1300   5.290   3.769   3.155
  446TIP3   OH2 1301   5.431   4.162   5.111
  446TIP3    H1 1302   5.419   4.214   5.031
  446TIP3    H2 1303   5.354   4.106   5.115
  447TIP3   OH2 1304   2.214   5.699   0.968
  447TIP3    H1 1305   2.239   5.791   0.978
  447TIP3    H2 1306   2.153   5.700   0.893
  448TIP3   OH2 1307   3.954   2.336   3.112
  448TIP3    H1 1308   3.889   2.333   3.042
  448TIP3    H2 1309   4.012   2.408   3.088
  449TIP3   OH2 1310   4.063   0.347   3.563
  449TIP3    H1 1311   4.000   0.310   3.502
  449TIP3    H2 1312   4.141   0.292   3.554
  450TIP3   OH2 1313   6.408   6.569   2.750
  450TIP3    H1 1314   6.474   6.506   2.721
  450TIP3    H2 1315   6.444   6.606   2.830
  451TIP3   OH2 1316   1.186   0.174   5.479
  451TIP3    H1 1317   1.156   0.085   5.462
  451TIP3    H2 1318   1.272   0.178   5.437
  452TIP3   OH2 1319   4.825   6.700   4.063
  452TIP3    H1 1320   4.832   6.636   4.133
  452TIP3    H2 1321   4.800   6.648   3.986
  453TIP3   OH2 1322   2.246   0.797   2.540
  453TIP3    H1 1323   2.338   0.802   2.513
  453TIP3    H2 1324   2.237   0.864   2.608
  454TIP3   OH2 1325   3.546   3.472   0.354
  454TIP3    H1 1326   3.506   3.392   0.388
  454TIP3    H2 1327   3.620   3.441   0.301
  455TIP3   OH2 1328   1.303   5.762   2.828
  455TIP3    H1 1329   1.224   5.747   2.880
  455TIP3    H2 1330   1.372   5.773   2.893
  456TIP3   OH2 1331   2.776   2.076   5.498
  456TIP3    H1 1332   2.773   2.027   5.416
  456TIP3    H2 1333   2.776   2.168   5.470
  457TIP3   OH2 1334   4.532   3.369   3.438
  457TIP3    H1 1335   4.571   3.456   3.430
  457TIP3    H2 1336   4.533   3.351   3.532
  458TIP3   OH2 1337   1.026   0.457   0.575
  458TIP3    H1 1338   1.013   0.448   0.669
  458TIP3    H2 1339   1.109   0.412   0.558
  459TIP3   OH2 1340   5.522   2.221   5.043
  459TIP3    H1 1341   5.443   2.204   5.094
  459TIP3    H2 1342   5.564   2.295   5.088
  460TIP3   OH2 1343   5.297   5.803   3.197
  460TIP3    H1 1344   5.224   5.849   3.155
  460TIP3    H2 1345   5.255   5.739   3.254
  461TIP3   OH2 1346   0.068   0.698   4.330
  461TIP3    H1 1347   0.081   0.734   4.417
  461TIP3    H2 1348   0.123   0.619   4.328
  462TIP3   OH2 1349   4.949   5.787   5.539
  462TIP3    H1 1350   5.034   5.770   5.499
  462TIP3    H2 1351   4.928   5.876   5.513
  463TIP3   OH2 1352   0.082   3.351   2.197
  463TIP3    H1 1353   0.080   3.426   2.137
  463TIP3    H2 1354   0.067   3.275   2.141
  464TIP3   OH2 1355   1.794   5.247   2.673
  464TIP3    H1 1356   1.737   5.209   2.606
  464TIP3    H2 1357   1.824   5.171   2.724
  465TIP3   OH2 1358   1.414   4.919   3.978
  465TIP3    H1 1359   1.352   4.899   3.908
  465TIP3    H2 1360   1.490   4.956   3.933
  466TIP3   OH2 1361   5.066   6.406   5.070
  466TIP3    H1 1362   5.067   6.420   4.976
  466TIP3    H2 1363   5.002   6.336   5.083
  467TIP3   OH2 1364   3.756   0.187   1.971
  467TIP3    H1 1365   3.833   0.172   1.917
  467TIP3    H2 1366   3.789   0.190   2.061
  468TIP3   OH2 1367   0.030   3.575   5.883
  468TIP3    H1 1368  -0.024   3.500   5.858
  468TIP3    H2 1369  -0.017   3.616   5.956
  469TIP3   OH2 1370   1.719   2.647   5.032
  469TIP3    H1 1371   1.733   2.554   5.012
  469TIP3    H2 1372   1.624   2.658   5.033
  470TIP3   OH2 1373   0.201   4.534   3.724
  470TIP3    H1 1374   0.129   4.493   3.772
  470TIP3    H2 1375   0.213   4.478   3.647
  471TIP3   OH2 1376   2.388   4.389   4.815
  471TIP3    H1 1377   2.460   4.436   4.774
  471TIP3    H2 1378   2.376   4.311   4.761
  472TIP3   OH2 1379   5.622   3.700   4.158
  472TIP3    H1 1380   5.551   3.671   4.215
  472TIP3    H2 1381   5.633   3.629   4.095
  473TIP3   OH2 1382   3.446   1.752   5.223
  473TIP3    H1 1383   3.433   1.759   5.318
  473TIP3    H2 1384   3.540   1.766   5.210
  474TIP3   OH2 1385   5.669   2.334   2.789
  474TIP3    H1 1386   5.673   2.427   2.768
  474TIP3    H2 1387   5.750   2.298   2.753
  475TIP3   OH2 1388   3.716   5.332   3.509
  475TIP3    H1 1389   3.790   5.390   3.489
  475TIP3    H2 1390   3.707   5.277   3.430
  476TIP3   OH2 1391   6.172   0.522   2.612
  476TIP3    H1 1392   6.138   0.501   2.525
  476TIP3    H2 1393   6.130   0.605   2.634
  477TIP3   OH2 1394   2.910   1.843   3.017
  477TIP3    H1 1395   2.946   1.786   2.949
  477TIP3    H2 1396   2.960   1.925   3.008
  478TIP3   OH2 1397   2.652   6.226   3.524
  478TIP3    H1 1398   2.682   6.300   3.578
  478TIP3    H2 1399   2.732   6.180   3.501
  479TIP3   OH2 1400   3.844   3.169   3.002
  479TIP3    H1 1401   3.831   3.169   3.097
  479TIP3    H2 1402   3.887   3.252   2.984
  480TIP3   OH2 1403   5.989   3.120   5.645
  480TIP3    H1 1404   6.078   3.146   5.623
  480TIP3    H2 1405   5.934   3.163   5.580
  481TIP3   OH2 1406   3.078   0.890   4.055
  481TIP3    H1 1407   3.011   0.848   4.108
  481TIP3    H2 1408   3.132   0.817   4.023
  482TIP3   OH2 1409   1.123   0.828   3.349
  482TIP3    H1 1410   1.035   0.827   3.310
  482TIP3    H2 1411   1.136   0.918   3.377
  483TIP3   OH2 1412   4.803   6.094   1.294
  483TIP3    H1 1413   4.829   6.002   1.305
  483TIP3    H2 1414   4.842   6.139   1.368
  484TIP3   OH2 1415   4.444   4.629   1.508
  484TIP3    H1 1416   4.372   4.624   1.444
  484TIP3    H2 1417   4.448   4.722   1.530
  485TIP3   OH2 1418   5.709   5.453   4.337
  485TIP3    H1 1419   5.768   5.522   4.366
  485TIP3    H2 1420   5.626   5.473   4.380
  486TIP3   OH2 1421   1.013   1.645   2.961
  486TIP3    H1 1422   1.054   1.681   3.040
  486TIP3    H2 1423   0.972   1.721   2.919
  487TIP3   OH2 1424   6.047   0.046   3.881
  487TIP3    H1 1425   5.998   0.107   3.824
  487TIP3    H2 1426   6.090   0.103   3.945
  488TIP3   OH2 1427   5.867   4.113   2.426
  488TIP3    H1 1428   5.812   4.180   2.467
  488TIP3    H2 1429   5.834   4.030   2.459
  489TIP3   OH2 1430   1.911   4.656   5.357
  489TIP3    H1 1431   1.826   4.668   5.314
  489TIP3    H2 1432   1.947   4.577   5.318
  490TIP3   OH2 1433   2.117   5.125   2.334
  490TIP3    H1 1434   2.084   5.165   2.254
  490TIP3    H2 1435   2.120   5.197   2.398
  491TIP3   OH2 1436   4.355   0.565   1.628
  491TIP3    H1 1437   4.395   0.546   1.713
  491TIP3    H2 1438   4.333   0.480   1.592
  492TIP3   OH2 1439   0.517   3.072   0.393
  492TIP3    H1 1440   0.438   3.058   0.444
  492TIP3    H2 1441   0.581   3.010   0.428
  493TIP3   OH2 1442   1.480   3.822   4.710
  493TIP3    H1 1443   1.411   3.854   4.651
  493TIP3    H2 1444   1.542   3.778   4.652
  494TIP3   OH2 1445   3.234   2.885   3.422
  494TIP3    H1 1446   3.311   2.924   3.381
  494TIP3    H2 1447   3.230   2.924   3.509
  495TIP3   OH2 1448   3.123   3.764   4.943
  495TIP3    H1 1449   3.199   3.730   4.990
  495TIP3    H2 1450   3.057   3.695   4.951
  496TIP3   OH2 1451   0.159   1.298   0.038
  496TIP3    H1 1452   0.138   1.321   0.128
  496TIP3    H2 1453   0.244   1.253   0.043
  497TIP3   OH2 1454   0.254   1.693   3.535
  497TIP3    H1 1455   0.346   1.670   3.553
  497TIP3    H2 1456   0.255   1.787   3.519
  498TIP3   OH2 1457   1.940   5.564   3.926
  498TIP3    H1 1458   1.908   5.497   3.865
  498TIP3    H2 1459   2.033   5.544   3.937
  499TIP3   OH2 1460   0.762   1.852   4.349
  499TIP3    H1 1461   0.704   1.922   4.318
  499TIP3    H2 1462   0.702   1.779   4.367
  500TIP3   OH2 1463   2.306   0.246   0.601
  500TIP3    H1 1464   2.279   0.257   0.693
  500TIP3    H2 1465   2.385   0.298   0.592
  501TIP3   OH2 1466   0.388   5.720   0.028
  501TIP3    H1 1467   0.386   5.722  -0.067
  501TIP3    H2 1468   0.476   5.750   0.052
  502TIP3   OH2 1469   2.448   3.725   1.125
  502TIP3    H1 1470   2.513   3.659   1.149
  502TIP3    H2 1471   2.493   3.809   1.139
  503TIP3   OH2 1472   2.831   5.523   4.576
  503TIP3    H1 1473   2.756   5.570   4.613
  503TIP3    H2 1474   2.845   5.565   4.491
  504TIP3   OH2 1475   2.738   4.187   1.990
  504TIP3    H1 1476   2.686   4.110   2.011
  504TIP3    H2 1477   2.825   4.152   1.969
  505TIP3   OH2 1478   4.071   4.339   3.776
  505TIP3    H1 1479   3.992   4.393   3.768
  505TIP3    H2 1480   4.133   4.378   3.714
  506TIP3   OH2 1481   1.486   0.935   2.010
  506TIP3    H1 1482   1.559   0.996   2.014
  506TIP3    H2 1483   1.408   0.991   2.005
  507TIP3   OH2 1484   4.799   5.174   5.339
  507TIP3    H1 1485   4.707   5.180   5.364
  507TIP3    H2 1486   4.847   5.190   5.420
  508TIP3   OH2 1487   7.036   4.513   5.852
  508TIP3    H1 1488   7.031   4.527   5.757
  508TIP3    H2 1489   7.019   4.599   5.890
  509TIP3   OH2 1490   4.846   3.289   4.231
  509TIP3    H1 1491   4.938   3.265   4.218
  509TIP3    H2 1492   4.814   3.311   4.144
  510TIP3   OH2 1493   0.610   3.396   5.741
  510TIP3    H1 1494   0.541   3.378   5.677
  510TIP3    H2 1495   0.623   3.312   5.786
  511TIP3   OH2 1496   4.461   1.191   1.766
  511TIP3    H1 1497   4.555   1.192   1.751
  511TIP3    H2 1498   4.436   1.099   1.755
  512TIP3   OH2 1499   2.522   2.337   4.609
  512TIP3    H1 1500   2.426   2.328   4.608
  512TIP3    H2 1501   2.543   2.362   4.699
  513TIP3   OH2 1502   2.970   2.903   0.876
  513TIP3    H1 1503   3.010   2.988   0.857
  513TIP3    H2 1504   3.032   2.839   0.841
  514TIP3   OH2 1505   2.378   0.580   1.494
  514TIP3    H1 1506   2.366   0.485   1.497
  514TIP3    H2 1507   2.295   0.614   1.460
  515TIP3   OH2 1508   2.734   4.167   3.669
  515TIP3    H1 1509   2.813   4.175   3.616
  515TIP3    H2 1510   2.764   4.182   3.759
  516TIP3   OH2 1511   2.106   5.995   2.730
  516TIP3    H1 1512   2.027   6.042   2.702
  516TIP3    H2 1513   2.129   5.939   2.656
  517TIP3   OH2 1514   1.434   4.011   5.093
  517TIP3    H1 1515   1.358   3.968   5.132
  517TIP3    H2 1516   1.491   3.939   5.065
  518TIP3   OH2 1517   3.974   1.445   3.660
  518TIP3    H1 1518   3.892   1.400   3.639
  518TIP3    H2 1519   3.979   1.517   3.598
  519TIP3   OH2 1520   2.006   4.093   1.172
  519TIP3    H1 1521   1.940   4.084   1.103
  519TIP3    H2 1522   2.086   4.116   1.125
  520TIP3   OH2 1523   4.051   5.282   1.240
  520TIP3    H1 1524   4.020   5.316   1.157
  520TIP3    H2 1525   3.984   5.309   1.303
  521TIP3   OH2 1526   3.498   6.039   5.722
  521TIP3    H1 1527   3.405   6.035   5.702
  521TIP3    H2 1528   3.526   6.126   5.694
  522TIP3   OH2 1529   3.100   2.430   3.513
  522TIP3    H1 1530   3.062   2.477   3.439
  522TIP3    H2 1531   3.086   2.488   3.588
  523TIP3   OH2 1532   1.785   3.601   1.754
  523TIP3    H1 1533   1.751   3.558   1.676
  523TIP3    H2 1534   1.808   3.690   1.724
  524TIP3   OH2 1535   5.689   3.763   1.336
  524TIP3    H1 1536   5.750   3.772   1.410
  524TIP3    H2 1537   5.700   3.673   1.306
  525TIP3   OH2 1538   3.752   2.574   1.858
  525TIP3    H1 1539   3.698   2.634   1.808
  525TIP3    H2 1540   3.833   2.622   1.876
  526TIP3   OH2 1541   5.137   0.176   5.807
  526TIP3    H1 1542   5.174   0.097   5.768
  526TIP3    H2 1543   5.183   0.248   5.764
  527TIP3   OH2 1544   2.940   0.920   5.067
  527TIP3    H1 1545   2.890   0.844   5.097
  527TIP3    H2 1546   2.955   0.903   4.974
  528TIP3   OH2 1547   3.186   1.444   0.916
  528TIP3    H1 1548   3.145   1.529   0.931
  528TIP3    H2 1549   3.156   1.418   0.828
  529TIP3   OH2 1550   6.203   2.813   0.327
  529TIP3    H1 1551   6.131   2.866   0.362
  529TIP3    H2 1552   6.215   2.844   0.238
  530TIP3   OH2 1553   1.750   6.621   1.170
  530TIP3    H1 1554   1.735   6.712   1.144
  530TIP3    H2 1555   1.845   6.614   1.180
  531TIP3   OH2 1556   0.070   0.382   1.202
  531TIP3    H1 1557   0.160   0.352   1.215
  531TIP3    H2 1558   0.026   0.309   1.158
  532TIP3   OH2 1559   1.090   2.392   3.398
  532TIP3    H1 1560   1.029   2.456   3.361
  532TIP3    H2 1561   1.042   2.309   3.395
  533TIP3   OH2 1562   0.237   2.799   3.389
  533TIP3    H1 1563   0.277   2.823   3.305
  533TIP3    H2 1564   0.238   2.703   3.389
  534TIP3   OH2 1565   1.603   6.147   5.370
  534TIP3    H1 1566   1.628   6.212   5.435
  534TIP3    H2 1567   1.508   6.160   5.359
  535TIP3   OH2 1568   3.182   5.384   5.082
  535TIP3    H1 1569   3.230   5.398   5.164
  535TIP3    H2 1570   3.098   5.346   5.109
  536TIP3   OH2 1571   5.148   4.671   0.435
  536TIP3    H1 1572   5.083   4.728   0.474
  536TIP3    H2 1573   5.102   4.629   0.362
  537TIP3   OH2 1574   1.664   6.053   1.459
  537TIP3    H1 1575   1.654   5.958   1.454
  537TIP3    H2 1576   1.604   6.079   1.530
  538TIP3   OH2 1577   2.487   2.942   3.938
  538TIP3    H1 1578   2.476   2.863   3.990
  538TIP3    H2 1579   2.529   3.005   3.996
  539TIP3   OH2 1580   1.483   4.212   5.652
  539TIP3    H1 1581   1.395   4.247   5.647
  539TIP3    H2 1582   1.503   4.181   5.564
  540TIP3   OH2 1583   1.112   4.593   4.959
  540TIP3    H1 1584   1.182   4.537   4.926
  540TIP3    H2 1585   1.123   4.590   5.054
  541TIP3   OH2 1586   1.569   6.136   0.105
  541TIP3    H1 1587   1.515   6.214   0.094
  541TIP3    H2 1588   1.618   6.130   0.024
  542TIP3   OH2 1589   4.969   2.499   4.720
  542TIP3    H1 1590   4.987   2.514   4.628
  542TIP3    H2 1591   4.875   2.479   4.723
  543TIP3   OH2 1592   0.118   6.121   5.153
  543TIP3    H1 1593   0.111   6.121   5.248
  543TIP3    H2 1594   0.031   6.146   5.121
  544TIP3   OH2 1595   4.296   0.683   0.033
  544TIP3    H1 1596   4.237   0.741   0.081
  544TIP3    H2 1597   4.323   0.734  -0.043
  545TIP3   OH2 1598   1.113   5.404   2.868
  545TIP3    H1 1599   1.094   5.495   2.893
  545TIP3    H2 1600   1.041   5.380   2.810
  546TIP3   OH2 1601   4.356   1.315   0.999
  546TIP3    H1 1602   4.340   1.404   1.032
  546TIP3    H2 1603   4.288   1.301   0.933
  547TIP3   OH2 1604   4.148   3.039   0.036
  547TIP3    H1 1605   4.153   3.044  -0.059
  547TIP3    H2 1606   4.165   2.947   0.056
  548TIP3   OH2 1607   3.525   6.424   5.746
  548TIP3    H1 1608   3.606   6.377   5.766
  548TIP3    H2 1609   3.549   6.517   5.749
  549TIP3   OH2 1610   6.893   6.094   4.337
  549TIP3    H1 1611   6.878   6.188   4.342
  549TIP3    H2 1612   6.823   6.062   4.280
  550TIP3   OH2 1613   0.815   0.656   3.453
  550TIP3    H1 1614   0.904   0.678   3.481
  550TIP3    H2 1615   0.826   0.614   3.368
  551TIP3   OH2 1616   3.280   2.839   0.212
  551TIP3    H1 1617   3.363   2.841   0.258
  551TIP3    H2 1618   3.301   2.808   0.124
  552TIP3   OH2 1619   2.902   3.904   2.467
  552TIP3    H1 1620   2.837   3.903   2.536
  552TIP3    H2 1621   2.980   3.866   2.506
  553TIP3   OH2 1622   0.531   3.610   3.655
  553TIP3    H1 1623   0.557   3.519   3.639
  553TIP3    H2 1624   0.466   3.605   3.725
  554TIP3   OH2 1625   4.380   2.206   1.563
  554TIP3    H1 1626   4.414   2.150   1.634
  554TIP3    H2 1627   4.317   2.151   1.517
  555TIP3   OH2 1628   2.652   4.885   0.845
  555TIP3    H1 1629   2.736   4.913   0.808
  555TIP3    H2 1630   2.587   4.930   0.792
  556TIP3   OH2 1631   5.835   2.176   3.608
  556TIP3    H1 1632   5.866   2.243   3.547
  556TIP3    H2 1633   5.818   2.100   3.553
  557TIP3   OH2 1634   6.135   5.045   2.955
  557TIP3    H1 1635   6.087   5.124   2.931
  557TIP3    H2 1636   6.085   4.974   2.916
  558TIP3   OH2 1637   4.536   2.460   2.290
  558TIP3    H1 1638   4.453   2.413   2.289
  558TIP3    H2 1639   4.596   2.404   2.241
  559TIP3   OH2 1640   3.713   4.428   0.074
  559TIP3    H1 1641   3.679   4.343   0.049
  559TIP3    H2 1642   3.656   4.458   0.145
  560TIP3   OH2 1643   5.048   1.946   4.576
  560TIP3    H1 1644   5.015   1.856   4.582
  560TIP3    H2 1645   5.131   1.938   4.529
  561TIP3   OH2 1646   3.158   2.871   5.385
  561TIP3    H1 1647   3.159   2.892   5.478
  561TIP3    H2 1648   3.085   2.811   5.374
  562TIP3   OH2 1649   5.963   2.567   3.747
  562TIP3    H1 1650   5.894   2.562   3.681
  562TIP3    H2 1651   5.995   2.657   3.743
  563TIP3   OH2 1652   5.672   2.819   3.232
  563TIP3    H1 1653   5.767   2.827   3.232
  563TIP3    H2 1654   5.655   2.735   3.189
  564TIP3   OH2 1655   6.948   1.061   4.426
  564TIP3    H1 1656   7.009   1.039   4.497
  564TIP3    H2 1657   6.943   1.156   4.427
  565TIP3   OH2 1658   0.155   3.738   1.129
  565TIP3    H1 1659   0.216   3.664   1.128
  565TIP3    H2 1660   0.076   3.704   1.171
  566TIP3   OH2 1661   6.110   3.094   3.175
  566TIP3    H1 1662   6.080   3.076   3.264
  566TIP3    H2 1663   6.044   3.153   3.139
  567TIP3   OH2 1664   6.843   5.251   4.854
  567TIP3    H1 1665   6.795   5.316   4.905
  567TIP3    H2 1666   6.933   5.284   4.852
  568TIP3   OH2 1667   3.833   2.156   2.664
  568TIP3    H1 1668   3.913   2.143   2.714
  568TIP3    H2 1669   3.856   2.130   2.575
  569TIP3   OH2 1670   4.038   3.151   5.284
  569TIP3    H1 1671   4.023   3.244   5.269
  569TIP3    H2 1672   3.956   3.110   5.258
  570TIP3   OH2 1673   4.282   4.261   4.155
  570TIP3    H1 1674   4.275   4.237   4.248
  570TIP3    H2 1675   4.191   4.268   4.125
  571TIP3   OH2 1676   5.268   0.258   1.893
  571TIP3    H1 1677   5.351   0.298   1.920
  571TIP3    H2 1678   5.294   0.177   1.850
  572TIP3   OH2 1679   3.716   6.716   1.027
  572TIP3    H1 1680   3.793   6.758   1.065
  572TIP3    H2 1681   3.749   6.672   0.949
  573TIP3   OH2 1682   3.144   3.987   3.327
  573TIP3    H1 1683   3.226   3.945   3.300
  573TIP3    H2 1684   3.166   4.080   3.336
  574TIP3   OH2 1685   2.445   2.541   3.417
  574TIP3    H1 1686   2.390   2.606   3.373
  574TIP3    H2 1687   2.390   2.463   3.421
  575TIP3   OH2 1688   4.093   1.950   2.705
  575TIP3    H1 1689   4.092   2.022   2.768
  575TIP3    H2 1690   4.044   1.880   2.748
  576TIP3   OH2 1691   5.535   0.981   1.703
  576TIP3    H1 1692   5.475   0.929   1.758
  576TIP3    H2 1693   5.561   1.053   1.760
  577TIP3   OH2 1694   1.821   2.546   3.384
  577TIP3    H1 1695   1.776   2.469   3.349
  577TIP3    H2 1696   1.769   2.571   3.460
  578TIP3   OH2 1697   5.219   4.368   0.692
  578TIP3    H1 1698   5.162   4.383   0.617
  578TIP3    H2 1699   5.300   4.413   0.669
  579TIP3   OH2 1700   2.978   0.330   4.287
  579TIP3    H1 1701   2.898   0.329   4.340
  579TIP3    H2 1702   2.949   0.357   4.200
  580TIP3   OH2 1703   6.607   4.894   1.768
  580TIP3    H1 1704   6.641   4.812   1.731
  580TIP3    H2 1705   6.585   4.947   1.692
  581TIP3   OH2 1706   4.726   1.495   0.292
  581TIP3    H1 1707   4.787   1.517   0.221
  581TIP3    H2 1708   4.640   1.498   0.250
  582TIP3   OH2 1709   6.416   4.540   4.569
  582TIP3    H1 1710   6.353   4.572   4.634
  582TIP3    H2 1711   6.479   4.611   4.561
  583TIP3   OH2 1712   1.629   5.685   3.212
  583TIP3    H1 1713   1.633   5.750   3.282
  583TIP3    H2 1714   1.694   5.620   3.236
  584TIP3   OH2 1715   1.640   3.092   1.829
  584TIP3    H1 1716   1.640   3.074   1.923
  584TIP3    H2 1717   1.726   3.130   1.811
  585TIP3   OH2 1718   6.073   0.573   2.984
  585TIP3    H1 1719   6.017   0.529   2.920
  585TIP3    H2 1720   6.071   0.517   3.061
  586TIP3   OH2 1721   1.197   1.043   2.283
  586TIP3    H1 1722   1.204   1.049   2.188
  586TIP3    H2 1723   1.165   1.129   2.310
  587TIP3   OH2 1724   0.413   4.046   5.182
  587TIP3    H1 1725   0.425   4.018   5.273
  587TIP3    H2 1726   0.385   3.967   5.136
  588TIP3   OH2 1727   0.039   3.321   0.201
  588TIP3    H1 1728   0.134   3.309   0.189
  588TIP3    H2 1729   0.023   3.412   0.178
  589TIP3   OH2 1730   2.269   0.773   1.252
  589TIP3    H1 1731   2.183   0.742   1.279
  589TIP3    H2 1732   2.251   0.858   1.210
  590TIP3   OH2 1733   2.103   0.636   1.795
  590TIP3    H1 1734   2.174   0.579   1.823
  590TIP3    H2 1735   2.061   0.589   1.723
  591TIP3   OH2 1736   3.345   4.718   3.233
  591TIP3    H1 1737   3.351   4.750   3.143
  591TIP3    H2 1738   3.251   4.717   3.252
  592TIP3   OH2 1739   6.971   0.105   1.501
  592TIP3    H1 1740   7.000   0.014   1.498
  592TIP3    H2 1741   7.047   0.156   1.473
  593TIP3   OH2 1742   6.466   6.470   0.692
  593TIP3    H1 1743   6.443   6.518   0.772
  593TIP3    H2 1744   6.394   6.408   0.681
  594TIP3   OH2 1745   1.332   1.531   5.411
  594TIP3    H1 1746   1.331   1.484   5.328
  594TIP3    H2 1747   1.316   1.463   5.477
  595TIP3   OH2 1748   2.240   2.646   4.809
  595TIP3    H1 1749   2.286   2.701   4.746
  595TIP3    H2 1750   2.169   2.702   4.842
  596TIP3   OH2 1751   3.880   4.943   5.572
  596TIP3    H1 1752   3.908   4.882   5.640
  596TIP3    H2 1753   3.961   4.978   5.535
  597TIP3   OH2 1754   0.878   5.481   3.403
  597TIP3    H1 1755   0.911   5.417   3.467
  597TIP3    H2 1756   0.788   5.498   3.431
  598TIP3   OH2 1757   2.368   4.289   5.099
  598TIP3    H1 1758   2.291   4.250   5.059
  598TIP3    H2 1759   2.408   4.341   5.029
  599TIP3   OH2 1760   3.017   0.829   1.679
  599TIP3    H1 1761   2.954   0.795   1.742
  599TIP3    H2 1762   3.060   0.902   1.724
  600TIP3   OH2 1763   0.956   6.050   0.998
  600TIP3    H1 1764   0.869   6.016   0.980
  600TIP3    H2 1765   1.013   5.973   0.992
  601TIP3   OH2 1766   0.604   5.464   1.019
  601TIP3    H1 1767   0.696   5.463   0.992
  601TIP3    H2 1768   0.555   5.461   0.937
  602TIP3   OH2 1769   4.879   6.275   0.321
  602TIP3    H1 1770   4.874   6.228   0.238
  602TIP3    H2 1771   4.949   6.230   0.369
  603TIP3   OH2 1772   1.040   1.802   2.339
  603TIP3    H1 1773   1.047   1.824   2.432
  603TIP3    H2 1774   1.086   1.873   2.294
  604TIP3   OH2 1775   6.217   2.096   4.273
  604TIP3    H1 1776   6.255   2.184   4.280
  604TIP3    H2 1777   6.206   2.082   4.178
  605TIP3   OH2 1778   5.917   1.207   1.928
  605TIP3    H1 1779   5.888   1.291   1.890
  605TIP3    H2 1780   5.861   1.142   1.886
  606TIP3   OH2 1781   2.353   2.344   1.457
  606TIP3    H1 1782   2.295   2.278   1.496
  606TIP3    H2 1783   2.417   2.293   1.407
  607TIP3   OH2 1784   6.575   1.151   0.701
  607TIP3    H1 1785   6.583   1.057   0.719
  607TIP3    H2 1786   6.547   1.155   0.609
  608TIP3   OH2 1787   0.740   3.358   0.591
  608TIP3    H1 1788   0.695   3.384   0.510
  608TIP3    H2 1789   0.781   3.438   0.623
  609TIP3   OH2 1790   6.086   2.967   2.558
  609TIP3    H1 1791   6.009   3.024   2.556
  609TIP3    H2 1792   6.091   2.931   2.470
  610TIP3   OH2 1793   5.051   4.543   1.700
  610TIP3    H1 1794   5.117   4.572   1.763
  610TIP3    H2 1795   5.083   4.576   1.616
  611TIP3   OH2 1796   5.530   2.083   4.656
  611TIP3    H1 1797   5.577   2.159   4.624
  611TIP3    H2 1798   5.596   2.029   4.698
  612TIP3   OH2 1799   1.229   0.541   1.059
  612TIP3    H1 1800   1.146   0.496   1.073
  612TIP3    H2 1801   1.214   0.630   1.092
  613TIP3   OH2 1802   4.464   1.668   0.990
  613TIP3    H1 1803   4.534   1.718   1.034
  613TIP3    H2 1804   4.478   1.686   0.897
  614TIP3   OH2 1805   1.542   4.788   0.394
  614TIP3    H1 1806   1.517   4.743   0.475
  614TIP3    H2 1807   1.539   4.881   0.417
  615TIP3   OH2 1808  -0.001   6.167   3.807
  615TIP3    H1 1809   0.033   6.238   3.752
  615TIP3    H2 1810   0.009   6.088   3.752
  616TIP3   OH2 1811   2.112  -0.001   1.924
  616TIP3    H1 1812   2.117  -0.011   2.019
  616TIP3    H2 1813   2.058   0.077   1.911
  617TIP3   OH2 1814   1.831   0.139   2.019
  617TIP3    H1 1815   1.788   0.128   2.104
  617TIP3    H2 1816   1.766   0.109   1.955
  618TIP3   OH2 1817   2.593   3.205   2.706
  618TIP3    H1 1818   2.554   3.117   2.714
  618TIP3    H2 1819   2.518   3.263   2.690
  619TIP3   OH2 1820   4.722   3.283   1.711
  619TIP3    H1 1821   4.705   3.201   1.663
  619TIP3    H2 1822   4.817   3.286   1.720
  620TIP3   OH2 1823   1.257   1.805   4.178
  620TIP3    H1 1824   1.326   1.850   4.130
  620TIP3    H2 1825   1.293   1.792   4.266
  621TIP3   OH2 1826   5.709   5.511   3.407
  621TIP3    H1 1827   5.704   5.560   3.325
  621TIP3    H2 1828   5.695   5.420   3.381
  622TIP3   OH2 1829   6.224   1.921   1.861
  622TIP3    H1 1830   6.221   1.828   1.839
  622TIP3    H2 1831   6.311   1.950   1.834
  623TIP3   OH2 1832   4.548   4.300   0.683
  623TIP3    H1 1833   4.476   4.329   0.740
  623TIP3    H2 1834   4.518   4.320   0.595
  624TIP3   OH2 1835   0.638   3.878   3.354
  624TIP3    H1 1836   0.603   3.930   3.282
  624TIP3    H2 1837   0.587   3.905   3.430
  625TIP3   OH2 1838   0.003   2.550   1.526
  625TIP3    H1 1839  -0.027   2.490   1.457
  625TIP3    H2 1840   0.056   2.615   1.480
  626TIP3   OH2 1841   3.645   1.789   3.133
  626TIP3    H1 1842   3.691   1.859   3.086
  626TIP3    H2 1843   3.624   1.725   3.066
  627TIP3   OH2 1844   0.013   2.085   2.068
  627TIP3    H1 1845  -0.058   2.030   2.101
  627TIP3    H2 1846  -0.018   2.119   1.985
  628TIP3   OH2 1847   4.361   2.577   3.818
  628TIP3    H1 1848   4.335   2.561   3.908
  628TIP3    H2 1849   4.415   2.656   3.822
  629TIP3   OH2 1850   0.915   1.296   3.479
  629TIP3    H1 1851   0.823   1.319   3.487
  629TIP3    H2 1852   0.918   1.237   3.403
  630TIP3   OH2 1853   3.134   1.693   0.976
  630TIP3    H1 1854   3.188   1.772   0.965
  630TIP3    H2 1855   3.069   1.719   1.043
  631TIP3   OH2 1856   1.246   2.733   3.107
  631TIP3    H1 1857   1.173   2.691   3.061
  631TIP3    H2 1858   1.204   2.796   3.166
  632TIP3   OH2 1859   4.600   2.141   1.748
  632TIP3    H1 1860   4.605   2.085   1.825
  632TIP3    H2 1861   4.609   2.230   1.783
  633TIP3   OH2 1862   3.548   3.862   2.339
  633TIP3    H1 1863   3.546   3.932   2.274
  633TIP3    H2 1864   3.526   3.783   2.290
  634TIP3   OH2 1865   5.539   3.867   2.394
  634TIP3    H1 1866   5.469   3.921   2.358
  634TIP3    H2 1867   5.533   3.784   2.347
  635TIP3   OH2 1868   2.388   2.854   0.422
  635TIP3    H1 1869   2.424   2.939   0.446
  635TIP3    H2 1870   2.358   2.817   0.505
  636TIP3   OH2 1871   6.501   0.639   4.381
  636TIP3    H1 1872   6.464   0.694   4.312
  636TIP3    H2 1873   6.496   0.550   4.347
  637TIP3   OH2 1874   3.933   2.832   2.456
  637TIP3    H1 1875   3.886   2.767   2.404
  637TIP3    H2 1876   3.937   2.910   2.401
  638TIP3   OH2 1877   4.742   2.638   5.089
  638TIP3    H1 1878   4.710   2.722   5.058
  638TIP3    H2 1879   4.834   2.636   5.062
  639TIP3   OH2 1880   0.270   5.760   3.331
  639TIP3    H1 1881   0.341   5.824   3.319
  639TIP3    H2 1882   0.305   5.680   3.292
  640TIP3   OH2 1883   4.571   5.372   0.025
  640TIP3    H1 1884   4.629   5.301   0.052
  640TIP3    H2 1885   4.507   5.380   0.096
  641TIP3   OH2 1886   6.012   3.761   5.210
  641TIP3    H1 1887   5.932   3.766   5.262
  641TIP3    H2 1888   5.991   3.806   5.128
  642TIP3   OH2 1889   1.484   2.164   5.113
  642TIP3    H1 1890   1.462   2.250   5.148
  642TIP3    H2 1891   1.572   2.174   5.076
  643TIP3   OH2 1892   0.732   4.910   3.969
  643TIP3    H1 1893   0.786   4.910   4.047
  643TIP3    H2 1894   0.683   4.828   3.974
  644TIP3   OH2 1895   1.434   1.136   4.691
  644TIP3    H1 1896   1.347   1.120   4.653
  644TIP3    H2 1897   1.419   1.135   4.785
  645TIP3   OH2 1898   1.482   3.193   3.297
  645TIP3    H1 1899   1.485   3.108   3.252
  645TIP3    H2 1900   1.539   3.250   3.245
  646TIP3   OH2 1901   0.469   2.720   0.171
  646TIP3    H1 1902   0.420   2.670   0.237
  646TIP3    H2 1903   0.427   2.806   0.170
  647TIP3   OH2 1904   6.338   4.854   0.116
  647TIP3    H1 1905   6.403   4.808   0.169
  647TIP3    H2 1906   6.384   4.931   0.084
  648TIP3   OH2 1907   5.226   3.799   5.826
  648TIP3    H1 1908   5.240   3.884   5.785
  648TIP3    H2 1909   5.241   3.735   5.757
  649TIP3   OH2 1910   5.658   3.748   0.923
  649TIP3    H1 1911   5.753   3.757   0.911
  649TIP3    H2 1912   5.621   3.776   0.840
  650TIP3   OH2 1913   6.297   0.924   1.555
  650TIP3    H1 1914   6.327   0.873   1.630
  650TIP3    H2 1915   6.325   0.874   1.479
  651TIP3   OH2 1916   0.676   4.110   4.892
  651TIP3    H1 1917   0.719   4.095   4.977
  651TIP3    H2 1918   0.685   4.204   4.877
  652TIP3   OH2 1919   2.177   5.913   5.000
  652TIP3    H1 1920   2.122   5.867   4.935
  652TIP3    H2 1921   2.238   5.964   4.947
  653TIP3   OH2 1922   5.170   5.347   5.423
  653TIP3    H1 1923   5.238   5.380   5.365
  653TIP3    H2 1924   5.178   5.252   5.418
  654TIP3   OH2 1925   4.868   2.906   2.456
  654TIP3    H1 1926   4.892   2.872   2.542
  654TIP3    H2 1927   4.803   2.844   2.423
  655TIP3   OH2 1928   6.239   0.612   5.547
  655TIP3    H1 1929   6.304   0.645   5.609
  655TIP3    H2 1930   6.257   0.519   5.541
  656TIP3   OH2 1931   4.168   4.210   4.822
  656TIP3    H1 1932   4.238   4.244   4.877
  656TIP3    H2 1933   4.096   4.192   4.883
  657TIP3   OH2 1934   6.746   4.451   5.824
  657TIP3    H1 1935   6.741   4.368   5.776
  657TIP3    H2 1936   6.832   4.486   5.804
  658TIP3   OH2 1937   6.327   0.298   4.072
  658TIP3    H1 1938   6.411   0.291   4.119
  658TIP3    H2 1939   6.302   0.390   4.081
  659TIP3   OH2 1940   0.658   3.439   5.365
  659TIP3    H1 1941   0.688   3.371   5.306
  659TIP3    H2 1942   0.721   3.438   5.437
  660TIP3   OH2 1943   4.506   2.547   0.152
  660TIP3    H1 1944   4.536   2.620   0.206
  660TIP3    H2 1945   4.521   2.470   0.205
  661TIP3   OH2 1946   0.977   6.786   4.446
  661TIP3    H1 1947   0.991   6.864   4.498
  661TIP3    H2 1948   0.882   6.773   4.447
  662TIP3   OH2 1949   1.245   3.897   3.526
  662TIP3    H1 1950   1.158   3.904   3.566
  662TIP3    H2 1951   1.297   3.849   3.591
  663TIP3   OH2 1952   0.170   3.445   1.809
  663TIP3    H1 1953   0.195   3.365   1.763
  663TIP3    H2 1954   0.245   3.503   1.799
  664TIP3   OH2 1955   2.790   5.225   1.763
  664TIP3    H1 1956   2.786   5.261   1.674
  664TIP3    H2 1957   2.708   5.177   1.773
  665TIP3   OH2 1958   2.699   0.152   5.353
  665TIP3    H1 1959   2.761   0.178   5.422
  665TIP3    H2 1960   2.741   0.180   5.272
  666TIP3   OH2 1961   0.361   4.323   1.042
  666TIP3    H1 1962   0.312   4.405   1.032
  666TIP3    H2 1963   0.417   4.319   0.964
  667TIP3   OH2 1964   1.745   2.422   4.830
  667TIP3    H1 1965   1.688   2.455   4.760
  667TIP3    H2 1966   1.725   2.329   4.835
  668TIP3   OH2 1967   3.691   0.576   0.353
  668TIP3    H1 1968   3.660   0.507   0.413
  668TIP3    H2 1969   3.787   0.570   0.358
  669TIP3   OH2 1970   6.224   1.461   3.193
  669TIP3    H1 1971   6.139   1.497   3.218
  669TIP3    H2 1972   6.203   1.384   3.141
  670TIP3   OH2 1973   3.119   2.036   1.376
  670TIP3    H1 1974   3.191   2.045   1.314
  670TIP3    H2 1975   3.040   2.039   1.322
  671TIP3   OH2 1976   0.527   1.009   1.624
  671TIP3    H1 1977   0.552   1.031   1.534
  671TIP3    H2 1978   0.589   1.056   1.679
  672TIP3   OH2 1979   1.568   0.930   4.522
  672TIP3    H1 1980   1.608   0.968   4.600
  672TIP3    H2 1981   1.485   0.894   4.553
  673TIP3   OH2 1982   2.728   6.792   1.629
  673TIP3    H1 1983   2.664   6.864   1.626
  673TIP3    H2 1984   2.725   6.761   1.719
  674TIP3   OH2 1985   5.054   5.031   4.686
  674TIP3    H1 1986   5.052   5.097   4.617
  674TIP3    H2 1987   4.964   4.999   4.691
  675TIP3   OH2 1988   4.291   0.424   4.154
  675TIP3    H1 1989   4.281   0.386   4.066
  675TIP3    H2 1990   4.231   0.498   4.155
  676TIP3   OH2 1991   1.573   0.074   5.798
  676TIP3    H1 1992   1.507   0.015   5.762
  676TIP3    H2 1993   1.522   0.149   5.830
  677TIP3   OH2 1994   4.622   0.970   0.810
  677TIP3    H1 1995   4.595   1.015   0.890
  677TIP3    H2 1996   4.550   0.987   0.748
  678TIP3   OH2 1997   4.674   4.284   2.810
  678TIP3    H1 1998   4.710   4.204   2.848
  678TIP3    H2 1999   4.610   4.254   2.746
  679TIP3   OH2 2000   6.956   0.219   0.878
  679TIP3    H1 2001   7.032   0.205   0.822
  679TIP3    H2 2002   6.973   0.166   0.955
  680TIP3   OH2 2003   6.578   3.927   3.821
  680TIP3    H1 2004   6.553   3.915   3.912
  680TIP3    H2 2005   6.517   3.992   3.787
  681TIP3   OH2 2006   6.584   2.178   5.720
  681TIP3    H1 2007   6.594   2.175   5.815
  681TIP3    H2 2008   6.605   2.269   5.696
  682TIP3   OH2 2009   2.128   6.296   4.982
  682TIP3    H1 2010   2.197   6.234   4.957
  682TIP3    H2 2011   2.083   6.253   5.055
  683TIP3   OH2 2012   1.746   4.078   2.751
  683TIP3    H1 2013   1.738   3.984   2.732
  683TIP3    H2 2014   1.706   4.088   2.838
  684TIP3   OH2 2015   1.491   2.543   3.165
  684TIP3    H1 2016   1.452   2.456   3.164
  684TIP3    H2 2017   1.435   2.596   3.109
  685TIP3   OH2 2018   0.869   1.414   2.981
  685TIP3    H1 2019   0.920   1.491   2.956
  685TIP3    H2 2020   0.780   1.434   2.953
  686TIP3   OH2 2021   3.016   3.848   1.832
  686TIP3    H1 2022   2.966   3.793   1.892
  686TIP3    H2 2023   3.022   3.796   1.751
  687TIP3   OH2 2024   2.052   6.107   4.701
  687TIP3    H1 2025   2.120   6.172   4.681
  687TIP3    H2 2026   1.973   6.142   4.659
  688TIP3   OH2 2027   0.767   5.517   0.506
  688TIP3    H1 2028   0.736   5.426   0.500
  688TIP3    H2 2029   0.799   5.525   0.596
  689TIP3   OH2 2030   4.721   6.320   2.362
  689TIP3    H1 2031   4.629   6.295   2.352
  689TIP3    H2 2032   4.729   6.349   2.453
  690TIP3   OH2 2033   7.200   0.325   2.248
  690TIP3    H1 2034   7.107   0.306   2.261
  690TIP3    H2 2035   7.202   0.415   2.215
  691TIP3   OH2 2036   7.144   6.554   3.364
  691TIP3    H1 2037   7.133   6.576   3.456
  691TIP3    H2 2038   7.147   6.638   3.319
  692TIP3   OH2 2039   1.025   0.444   3.411
  692TIP3    H1 2040   1.078   0.364   3.414
  692TIP3    H2 2041   1.079   0.509   3.456
  693TIP3   OH2 2042   0.428   2.657   3.018
  693TIP3    H1 2043   0.485   2.671   2.942
  693TIP3    H2 2044   0.340   2.656   2.982
  694TIP3   OH2 2045   7.068   4.646   1.357
  694TIP3    H1 2046   7.131   4.598   1.410
  694TIP3    H2 2047   7.031   4.580   1.298
  695TIP3   OH2 2048   7.146   5.346   5.259
  695TIP3    H1 2049   7.116   5.256   5.247
  695TIP3    H2 2050   7.229   5.350   5.212
  696TIP3   OH2 2051   5.161   5.837   0.176
  696TIP3    H1 2052   5.234   5.785   0.142
  696TIP3    H2 2053   5.119   5.872   0.098
  697TIP3   OH2 2054   0.296   5.998   2.755
  697TIP3    H1 2055   0.218   5.943   2.754
  697TIP3    H2 2056   0.341   5.979   2.673
  698TIP3   OH2 2057   4.339   5.960   0.199
  698TIP3    H1 2058   4.390   6.028   0.155
  698TIP3    H2 2059   4.248   5.981   0.178
  699TIP3   OH2 2060   3.776   4.952   0.495
  699TIP3    H1 2061   3.854   4.955   0.439
  699TIP3    H2 2062   3.776   4.863   0.531
  700TIP3   OH2 2063   6.639   0.047   0.308
  700TIP3    H1 2064   6.700   0.117   0.330
  700TIP3    H2 2065   6.599   0.022   0.391
  701TIP3   OH2 2066   3.467   0.969   3.506
  701TIP3    H1 2067   3.457   0.890   3.455
  701TIP3    H2 2068   3.482   1.038   3.442
  702TIP3   OH2 2069   4.098   3.413   2.721
  702TIP3    H1 2070   4.041   3.472   2.672
  702TIP3    H2 2071   4.085   3.328   2.679
  703TIP3   OH2 2072   3.660   5.889   0.709
  703TIP3    H1 2073   3.700   5.972   0.733
  703TIP3    H2 2074   3.699   5.826   0.770
  704TIP3   OH2 2075   5.042   2.376   1.859
  704TIP3    H1 2076   5.130   2.351   1.831
  704TIP3    H2 2077   5.052   2.397   1.952
  705TIP3   OH2 2078   5.814   1.556   3.048
  705TIP3    H1 2079   5.749   1.616   3.085
  705TIP3    H2 2080   5.898   1.590   3.078
  706TIP3   OH2 2081   4.153   2.406   3.719
  706TIP3    H1 2082   4.206   2.471   3.766
  706TIP3    H2 2083   4.107   2.458   3.653
  707TIP3   OH2 2084   3.361   3.892   3.227
  707TIP3    H1 2085   3.368   3.878   3.133
  707TIP3    H2 2086   3.452   3.896   3.257
  708TIP3   OH2 2087   6.135   0.039   5.511
  708TIP3    H1 2088   6.091   0.063   5.593
  708TIP3    H2 2089   6.074  -0.021   5.468
  709TIP3   OH2 2090   7.081   0.333   1.847
  709TIP3    H1 2091   7.035   0.293   1.920
  709TIP3    H2 2092   7.155   0.379   1.887
  710TIP3   OH2 2093   4.878   0.066   4.425
  710TIP3    H1 2094   4.823   0.004   4.473
  710TIP3    H2 2095   4.962   0.021   4.415
  711TIP3   OH2 2096   2.270   6.471   5.430
  711TIP3    H1 2097   2.207   6.517   5.485
  711TIP3    H2 2098   2.241   6.380   5.432
  712TIP3   OH2 2099   1.180   1.966   2.187
  712TIP3    H1 2100   1.132   2.042   2.153
  712TIP3    H2 2101   1.258   1.960   2.132
  713TIP3   OH2 2102   3.350   3.131   5.347
  713TIP3    H1 2103   3.358   3.049   5.299
  713TIP3    H2 2104   3.346   3.105   5.439
  714TIP3   OH2 2105   1.384   1.957   4.930
  714TIP3    H1 2106   1.313   1.901   4.961
  714TIP3    H2 2107   1.433   1.979   5.009
  715TIP3   OH2 2108   4.039   3.047   4.646
  715TIP3    H1 2109   3.960   3.018   4.691
  715TIP3    H2 2110   4.030   3.142   4.640
  716TIP3   OH2 2111   3.198   5.834   1.884
  716TIP3    H1 2112   3.209   5.767   1.951
  716TIP3    H2 2113   3.287   5.851   1.852
  717TIP3   OH2 2114   4.166   0.340   3.289
  717TIP3    H1 2115   4.107   0.311   3.219
  717TIP3    H2 2116   4.147   0.433   3.300
  718TIP3   OH2 2117   3.189   5.606   2.620
  718TIP3    H1 2118   3.234   5.680   2.661
  718TIP3    H2 2119   3.104   5.640   2.594
  719TIP3   OH2 2120   5.108   6.184   0.491
  719TIP3    H1 2121   5.133   6.212   0.580
  719TIP3    H2 2122   5.177   6.124   0.465
  720TIP3   OH2 2123   5.970   3.106   3.459
  720TIP3    H1 2124   6.037   3.090   3.526
  720TIP3    H2 2125   5.888   3.085   3.503
  721TIP3   OH2 2126   0.572   2.846   4.938
  721TIP3    H1 2127   0.618   2.839   5.022
  721TIP3    H2 2128   0.493   2.896   4.958
  722TIP3   OH2 2129   1.257   2.096   0.414
  722TIP3    H1 2130   1.170   2.063   0.436
  722TIP3    H2 2131   1.243   2.150   0.336
  723TIP3   OH2 2132   2.210   4.704   1.728
  723TIP3    H1 2133   2.189   4.656   1.809
  723TIP3    H2 2134   2.305   4.709   1.727
  724TIP3   OH2 2135   3.364   0.266   4.592
  724TIP3    H1 2136   3.414   0.230   4.666
  724TIP3    H2 2137   3.383   0.360   4.594
  725TIP3   OH2 2138   0.645   2.106   2.806
  725TIP3    H1 2139   0.645   2.013   2.826
  725TIP3    H2 2140   0.690   2.147   2.879
  726TIP3   OH2 2141   7.058   4.692   1.792
  726TIP3    H1 2142   7.122   4.738   1.846
  726TIP3    H2 2143   7.022   4.760   1.735
  727TIP3   OH2 2144   5.192   6.579   3.569
  727TIP3    H1 2145   5.225   6.572   3.480
  727TIP3    H2 2146   5.259   6.629   3.616
  728TIP3   OH2 2147   5.496   5.469   2.683
  728TIP3    H1 2148   5.563   5.530   2.712
  728TIP3    H2 2149   5.434   5.522   2.633
  729TIP3   OH2 2150   1.905   0.413   0.568
  729TIP3    H1 2151   1.913   0.320   0.549
  729TIP3    H2 2152   1.833   0.442   0.511
  730TIP3   OH2 2153   3.027   5.995   5.831
  730TIP3    H1 2154   2.996   6.043   5.908
  730TIP3    H2 2155   2.955   5.938   5.808
  731TIP3   OH2 2156   5.231   3.025   3.672
  731TIP3    H1 2157   5.267   3.092   3.614
  731TIP3    H2 2158   5.139   3.017   3.647
  732TIP3   OH2 2159   2.247   3.336   3.332
  732TIP3    H1 2160   2.174   3.355   3.392
  732TIP3    H2 2161   2.274   3.247   3.354
  733TIP3   OH2 2162   2.096   2.551   2.245
  733TIP3    H1 2163   2.041   2.628   2.261
  733TIP3    H2 2164   2.129   2.527   2.332
  734TIP3   OH2 2165   0.131   3.580   2.043
  734TIP3    H1 2166   0.107   3.671   2.023
  734TIP3    H2 2167   0.147   3.540   1.957
  735TIP3   OH2 2168   4.597   6.717   5.238
  735TIP3    H1 2169   4.577   6.792   5.183
  735TIP3    H2 2170   4.565   6.742   5.325
  736TIP3   OH2 2171   5.632   2.570   3.735
  736TIP3    H1 2172   5.630   2.592   3.642
  736TIP3    H2 2173   5.542   2.585   3.764
  737TIP3   OH2 2174   4.634   4.336   5.700
  737TIP3    H1 2175   4.714   4.372   5.663
  737TIP3    H2 2176   4.656   4.317   5.791
  738TIP3   OH2 2177   1.919   3.325   3.075
  738TIP3    H1 2178   2.002   3.337   3.028
  738TIP3    H2 2179   1.913   3.401   3.134
  739TIP3   OH2 2180   5.403   1.595   3.272
  739TIP3    H1 2181   5.334   1.655   3.244
  739TIP3    H2 2182   5.456   1.646   3.333
  740TIP3   OH2 2183   0.077   1.361   5.357
  740TIP3    H1 2184   0.116   1.339   5.442
  740TIP3    H2 2185   0.071   1.278   5.311
  741TIP3   OH2 2186   0.816   0.546   2.816
  741TIP3    H1 2187   0.895   0.587   2.851
  741TIP3    H2 2188   0.783   0.492   2.887
  742TIP3   OH2 2189   6.936   3.820   3.163
  742TIP3    H1 2190   6.849   3.820   3.122
  742TIP3    H2 2191   6.975   3.737   3.137
  743TIP3   OH2 2192   4.910   1.449   3.568
  743TIP3    H1 2193   4.826   1.465   3.610
  743TIP3    H2 2194   4.914   1.513   3.496
  744TIP3   OH2 2195   4.596   2.749   4.814
  744TIP3    H1 2196   4.643   2.830   4.833
  744TIP3    H2 2197   4.504   2.774   4.816
  745TIP3   OH2 2198   2.185   6.338   4.569
  745TIP3    H1 2199   2.241   6.407   4.603
  745TIP3    H2 2200   2.233   6.301   4.495
  746TIP3   OH2 2201   6.751   2.172   0.901
  746TIP3    H1 2202   6.838   2.170   0.860
  746TIP3    H2 2203   6.695   2.214   0.836
  747TIP3   OH2 2204   1.411   5.760   1.845
  747TIP3    H1 2205   1.368   5.843   1.862
  747TIP3    H2 2206   1.377   5.701   1.912
  748TIP3   OH2 2207   0.676   4.371   4.841
  748TIP3    H1 2208   0.737   4.373   4.767
  748TIP3    H2 2209   0.706   4.443   4.898
  749TIP3   OH2 2210   5.282   1.420   3.439
  749TIP3    H1 2211   5.305   1.494   3.382
  749TIP3    H2 2212   5.240   1.461   3.515
  750TIP3   OH2 2213   2.358   1.337   1.993
  750TIP3    H1 2214   2.438   1.306   2.034
  750TIP3    H2 2215   2.380   1.347   1.900
  751TIP3   OH2 2216   1.145   4.244   4.006
  751TIP3    H1 2217   1.201   4.194   3.948
  751TIP3    H2 2218   1.130   4.187   4.081
  752TIP3   OH2 2219   3.568   3.198   1.932
  752TIP3    H1 2220   3.473   3.209   1.935
  752TIP3    H2 2221   3.582   3.103   1.933
  753TIP3   OH2 2222   1.008   5.973   5.038
  753TIP3    H1 2223   1.050   5.912   5.098
  753TIP3    H2 2224   0.987   6.049   5.092
  754TIP3   OH2 2225   6.688   3.641   0.525
  754TIP3    H1 2226   6.673   3.634   0.431
  754TIP3    H2 2227   6.708   3.552   0.553
  755TIP3   OH2 2228   1.239   1.698   1.697
  755TIP3    H1 2229   1.235   1.723   1.605
  755TIP3    H2 2230   1.157   1.651   1.713
  756TIP3   OH2 2231   2.181   6.105   4.061
  756TIP3    H1 2232   2.251   6.159   4.025
  756TIP3    H2 2233   2.172   6.134   4.151
  757TIP3   OH2 2234   3.453   4.363   1.326
  757TIP3    H1 2235   3.470   4.288   1.382
  757TIP3    H2 2236   3.503   4.434   1.366
  758TIP3   OH2 2237   4.502   0.457   4.335
  758TIP3    H1 2238   4.437   0.450   4.265
  758TIP3    H2 2239   4.580   0.491   4.292
  759TIP3   OH2 2240   1.062   2.210   3.126
  759TIP3    H1 2241   1.026   2.176   3.207
  759TIP3    H2 2242   1.013   2.291   3.109
  760TIP3   OH2 2243   0.670   5.841   3.430
  760TIP3    H1 2244   0.630   5.774   3.374
  760TIP3    H2 2245   0.764   5.832   3.416
  761TIP3   OH2 2246   6.897   6.170   5.423
  761TIP3    H1 2247   6.989   6.143   5.421
  761TIP3    H2 2248   6.872   6.158   5.515
  762TIP3   OH2 2249   1.129   4.380   0.073
  762TIP3    H1 2250   1.069   4.406   0.143
  762TIP3    H2 2251   1.072   4.346   0.004
  763TIP3   OH2 2252   7.063   3.959   0.928
  763TIP3    H1 2253   7.051   3.990   0.839
  763TIP3    H2 2254   6.992   3.896   0.942
  764TIP3   OH2 2255   5.660   2.222   0.429
  764TIP3    H1 2256   5.728   2.286   0.448
  764TIP3    H2 2257   5.633   2.242   0.339
  765TIP3   OH2 2258   4.575   3.947   0.441
  765TIP3    H1 2259   4.639   4.017   0.435
  765TIP3    H2 2260   4.550   3.945   0.534
  766TIP3   OH2 2261   3.106   2.346   3.164
  766TIP3    H1 2262   3.032   2.386   3.210
  766TIP3    H2 2263   3.147   2.419   3.117
  767TIP3   OH2 2264   4.359   1.987   3.337
  767TIP3    H1 2265   4.421   1.974   3.409
  767TIP3    H2 2266   4.410   2.033   3.270
  768TIP3   OH2 2267   6.365   3.513   2.823
  768TIP3    H1 2268   6.365   3.533   2.730
  768TIP3    H2 2269   6.440   3.454   2.835
  769TIP3   OH2 2270   1.061   3.410   0.862
  769TIP3    H1 2271   1.103   3.441   0.782
  769TIP3    H2 2272   1.045   3.317   0.847
  770TIP3   OH2 2273   6.796   4.349   4.546
  770TIP3    H1 2274   6.771   4.350   4.454
  770TIP3    H2 2275   6.855   4.274   4.554
  771TIP3   OH2 2276   0.697   1.638   2.001
  771TIP3    H1 2277   0.677   1.681   2.085
  771TIP3    H2 2278   0.778   1.680   1.972
  772TIP3   OH2 2279   0.448   2.241   2.308
  772TIP3    H1 2280   0.376   2.238   2.246
  772TIP3    H2 2281   0.423   2.180   2.378
  773TIP3   OH2 2282   6.302   5.209   0.374
  773TIP3    H1 2283   6.332   5.180   0.460
  773TIP3    H2 2284   6.317   5.303   0.373
  774TIP3   OH2 2285   5.888   3.408   1.570
  774TIP3    H1 2286   5.889   3.448   1.657
  774TIP3    H2 2287   5.873   3.315   1.587
  775TIP3   OH2 2288   5.577   3.001   3.772
  775TIP3    H1 2289   5.518   2.931   3.744
  775TIP3    H2 2290   5.632   2.961   3.839
  776TIP3   OH2 2291   2.796   2.360   2.135
  776TIP3    H1 2292   2.720   2.400   2.092
  776TIP3    H2 2293   2.811   2.280   2.086
  777TIP3   OH2 2294   2.079   3.983   2.721
  777TIP3    H1 2295   2.147   3.965   2.656
  777TIP3    H2 2296   2.039   4.065   2.691
  778TIP3   OH2 2297   2.238   1.586   1.972
  778TIP3    H1 2298   2.300   1.515   1.989
  778TIP3    H2 2299   2.291   1.656   1.935
  779TIP3   OH2 2300   2.851   5.943   0.055
  779TIP3    H1 2301   2.846   5.940   0.150
  779TIP3    H2 2302   2.888   6.029   0.035
  780TIP3   OH2 2303   0.695   2.461   2.992
  780TIP3    H1 2304   0.700   2.429   3.082
  780TIP3    H2 2305   0.614   2.422   2.957
  781TIP3   OH2 2306   0.073   1.546   4.905
  781TIP3    H1 2307   0.112   1.592   4.830
  781TIP3    H2 2308   0.083   1.607   4.978
  782TIP3   OH2 2309   1.990   2.808   4.078
  782TIP3    H1 2310   1.974   2.758   3.998
  782TIP3    H2 2311   2.080   2.786   4.102
  783TIP3   OH2 2312   0.966   5.956   0.245
  783TIP3    H1 2313   0.989   5.865   0.260
  783TIP3    H2 2314   0.876   5.964   0.276
  784TIP3   OH2 2315   0.270   1.346   0.710
  784TIP3    H1 2316   0.279   1.264   0.758
  784TIP3    H2 2317   0.176   1.353   0.692
  785TIP3   OH2 2318   2.945   2.566   3.331
  785TIP3    H1 2319   2.850   2.564   3.322
  785TIP3    H2 2320   2.965   2.655   3.359
  786TIP3   OH2 2321   2.552   5.478   1.942
  786TIP3    H1 2322   2.606   5.411   1.985
  786TIP3    H2 2323   2.466   5.469   1.982
  787TIP3   OH2 2324   7.089   4.809   3.451
  787TIP3    H1 2325   7.133   4.881   3.406
  787TIP3    H2 2326   7.120   4.815   3.542
  788TIP3   OH2 2327   4.215   1.104   2.026
  788TIP3    H1 2328   4.177   1.019   2.003
  788TIP3    H2 2329   4.150   1.168   1.999
  789TIP3   OH2 2330   4.254   1.768   1.323
  789TIP3    H1 2331   4.245   1.673   1.321
  789TIP3    H2 2332   4.283   1.792   1.235
  790TIP3   OH2 2333   3.153   1.743   4.278
  790TIP3    H1 2334   3.144   1.692   4.359
  790TIP3    H2 2335   3.106   1.691   4.212
  791TIP3   OH2 2336   0.672   4.184   5.594
  791TIP3    H1 2337   0.721   4.137   5.526
  791TIP3    H2 2338   0.580   4.167   5.573
  792TIP3   OH2 2339   0.592   4.227   1.452
  792TIP3    H1 2340   0.637   4.173   1.388
  792TIP3    H2 2341   0.612   4.187   1.537
  793TIP3   OH2 2342   2.772   2.291   1.639
  793TIP3    H1 2343   2.774   2.360   1.707
  793TIP3    H2 2344   2.810   2.333   1.562
  794TIP3   OH2 2345   3.415   5.763   5.318
  794TIP3    H1 2346   3.423   5.853   5.287
  794TIP3    H2 2347   3.423   5.770   5.413
  795TIP3   OH2 2348   3.409   6.551   4.730
  795TIP3    H1 2349   3.486   6.523   4.680
  795TIP3    H2 2350   3.364   6.613   4.673
  796TIP3   OH2 2351   0.064   1.649   5.418
  796TIP3    H1 2352   0.154   1.637   5.448
  796TIP3    H2 2353   0.056   1.593   5.341
  797TIP3   OH2 2354   6.406   4.980   2.328
  797TIP3    H1 2355   6.476   4.971   2.392
  797TIP3    H2 2356   6.414   4.904   2.272
  798TIP3   OH2 2357   6.708   3.911   5.359
  798TIP3    H1 2358   6.799   3.929   5.338
  798TIP3    H2 2359   6.677   3.990   5.403
  799TIP3   OH2 2360   3.064   2.593   3.734
  799TIP3    H1 2361   3.048   2.560   3.822
  799TIP3    H2 2362   3.151   2.634   3.740
  800TIP3   OH2 2363   4.135   6.772   1.336
  800TIP3    H1 2364   4.140   6.704   1.403
  800TIP3    H2 2365   4.217   6.820   1.343
  801TIP3   OH2 2366   5.056   5.523   5.028
  801TIP3    H1 2367   4.992   5.581   5.070
  801TIP3    H2 2368   5.033   5.436   5.060
  802TIP3   OH2 2369   5.359   3.754   4.523
  802TIP3    H1 2370   5.373   3.735   4.430
  802TIP3    H2 2371   5.446   3.744   4.563
  803TIP3   OH2 2372   1.873   3.990   3.438
  803TIP3    H1 2373   1.889   4.080   3.466
  803TIP3    H2 2374   1.778   3.982   3.436
  804TIP3   OH2 2375   0.304   3.267   0.159
  804TIP3    H1 2376   0.397   3.288   0.161
  804TIP3    H2 2377   0.289   3.229   0.073
  805TIP3   OH2 2378   5.701   6.243   3.234
  805TIP3    H1 2379   5.737   6.230   3.322
  805TIP3    H2 2380   5.763   6.199   3.176
  806TIP3   OH2 2381   3.383   0.860   2.803
  806TIP3    H1 2382   3.407   0.872   2.895
  806TIP3    H2 2383   3.289   0.875   2.800
  807TIP3   OH2 2384   6.275   0.633   4.542
  807TIP3    H1 2385   6.324   0.638   4.624
  807TIP3    H2 2386   6.340   0.650   4.474
  808TIP3   OH2 2387   0.293   5.387   5.501
  808TIP3    H1 2388   0.298   5.477   5.533
  808TIP3    H2 2389   0.384   5.359   5.493
  809TIP3   OH2 2390   1.914   3.565   3.759
  809TIP3    H1 2391   1.820   3.551   3.761
  809TIP3    H2 2392   1.926   3.642   3.703
  810TIP3   OH2 2393   7.138   0.428   2.546
  810TIP3    H1 2394   7.233   0.434   2.558
  810TIP3    H2 2395   7.106   0.515   2.569
  811TIP3   OH2 2396   0.964   3.611   0.239
  811TIP3    H1 2397   0.893   3.657   0.284
  811TIP3    H2 2398   1.020   3.680   0.205
  812TIP3   OH2 2399   4.265   6.520   5.435
  812TIP3    H1 2400   4.310   6.491   5.355
  812TIP3    H2 2401   4.334   6.556   5.490
  813TIP3   OH2 2402   1.833   1.244   1.271
  813TIP3    H1 2403   1.864   1.266   1.358
  813TIP3    H2 2404   1.825   1.148   1.272
  814TIP3   OH2 2405   1.150   6.306   5.588
  814TIP3    H1 2406   1.206   6.375   5.552
  814TIP3    H2 2407   1.066   6.319   5.545
  815TIP3   OH2 2408   5.697   4.374   4.992
  815TIP3    H1 2409   5.718   4.372   5.085
  815TIP3    H2 2410   5.779   4.400   4.949
  816TIP3   OH2 2411   1.771   2.547   4.020
  816TIP3    H1 2412   1.687   2.501   4.020
  816TIP3    H2 2413   1.774   2.592   3.936
  817TIP3   OH2 2414   2.646   0.983   5.858
  817TIP3    H1 2415   2.659   1.060   5.913
  817TIP3    H2 2416   2.654   1.016   5.768
  818TIP3   OH2 2417   0.869   6.509   4.535
  818TIP3    H1 2418   0.788   6.559   4.520
  818TIP3    H2 2419   0.937   6.576   4.541
  819TIP3   OH2 2420   2.640   3.733   5.785
  819TIP3    H1 2421   2.555   3.758   5.747
  819TIP3    H2 2422   2.668   3.659   5.731
  820TIP3   OH2 2423   3.793   5.632   3.075
  820TIP3    H1 2424   3.791   5.715   3.026
  820TIP3    H2 2425   3.704   5.623   3.110
  821TIP3   OH2 2426   5.917   1.593   1.609
  821TIP3    H1 2427   5.888   1.681   1.588
  821TIP3    H2 2428   5.916   1.547   1.525
  822TIP3   OH2 2429   2.194   5.882   3.516
  822TIP3    H1 2430   2.204   5.790   3.495
  822TIP3    H2 2431   2.099   5.894   3.526
  823TIP3   OH2 2432   1.023   5.226   5.075
  823TIP3    H1 2433   1.005   5.193   4.987
  823TIP3    H2 2434   1.068   5.309   5.061
  824TIP3   OH2 2435   0.704   0.823   1.886
  824TIP3    H1 2436   0.717   0.908   1.845
  824TIP3    H2 2437   0.626   0.834   1.941
  825TIP3   OH2 2438   0.267   3.024   4.074
  825TIP3    H1 2439   0.259   2.950   4.134
  825TIP3    H2 2440   0.360   3.049   4.078
  826TIP3   OH2 2441   1.861   4.306   5.446
  826TIP3    H1 2442   1.804   4.282   5.372
  826TIP3    H2 2443   1.948   4.314   5.407
  827TIP3   OH2 2444   0.222   6.264   3.968
  827TIP3    H1 2445   0.182   6.348   3.947
  827TIP3    H2 2446   0.177   6.202   3.911
  828TIP3   OH2 2447   2.698   5.742   4.666
  828TIP3    H1 2448   2.623   5.797   4.644
  828TIP3    H2 2449   2.769   5.775   4.611
  829TIP3   OH2 2450   6.487   1.563   5.427
  829TIP3    H1 2451   6.555   1.620   5.391
  829TIP3    H2 2452   6.496   1.481   5.379
  830TIP3   OH2 2453   0.367   1.491   4.951
  830TIP3    H1 2454   0.329   1.445   5.025
  830TIP3    H2 2455   0.408   1.568   4.989
  831TIP3   OH2 2456   0.728   0.531   2.104
  831TIP3    H1 2457   0.760   0.576   2.182
  831TIP3    H2 2458   0.636   0.556   2.098
  832TIP3   OH2 2459   3.775   2.045   0.488
  832TIP3    H1 2460   3.683   2.065   0.469
  832TIP3    H2 2461   3.816   2.039   0.401
  833TIP3   OH2 2462   5.619   0.445   5.680
  833TIP3    H1 2463   5.668   0.472   5.602
  833TIP3    H2 2464   5.533   0.420   5.647
  834TIP3   OH2 2465   2.961   1.626   5.750
  834TIP3    H1 2466   2.920   1.693   5.694
  834TIP3    H2 2467   3.037   1.670   5.788
  835TIP3   OH2 2468   1.338   1.179   5.359
  835TIP3    H1 2469   1.425   1.158   5.391
  835TIP3    H2 2470   1.296   1.095   5.342
  836TIP3   OH2 2471   4.020   5.861   1.042
  836TIP3    H1 2472   4.095   5.811   1.010
  836TIP3    H2 2473   4.010   5.934   0.981
  837TIP3   OH2 2474   4.818   3.479   5.294
  837TIP3    H1 2475   4.747   3.419   5.318
  837TIP3    H2 2476   4.786   3.565   5.323
  838TIP3   OH2 2477   2.172   4.926   5.143
  838TIP3    H1 2478   2.131   4.906   5.227
  838TIP3    H2 2479   2.109   4.898   5.078
  839TIP3   OH2 2480   6.550   1.539   3.710
  839TIP3    H1 2481   6.522   1.623   3.673
  839TIP3    H2 2482   6.538   1.476   3.640
  840TIP3   OH2 2483   5.150   0.061   0.481
  840TIP3    H1 2484   5.085   0.128   0.500
  840TIP3    H2 2485   5.222   0.108   0.438
  841TIP3   OH2 2486   0.186   2.366   2.984
  841TIP3    H1 2487   0.146   2.423   2.919
  841TIP3    H2 2488   0.194   2.421   3.062
  842TIP3   OH2 2489   6.723   1.911   2.877
  842TIP3    H1 2490   6.713   1.885   2.786
  842TIP3    H2 2491   6.815   1.892   2.897
  843TIP3   OH2 2492   3.968   1.039   3.778
  843TIP3    H1 2493   3.902   1.028   3.709
  843TIP3    H2 2494   4.029   0.967   3.764
  844TIP3   OH2 2495   6.963   0.455   2.805
  844TIP3    H1 2496   6.899   0.425   2.870
  844TIP3    H2 2497   7.040   0.480   2.856
  845TIP3   OH2 2498   4.969   2.222   0.951
  845TIP3    H1 2499   4.900   2.231   0.886
  845TIP3    H2 2500   4.990   2.129   0.951
  846TIP3   OH2 2501   2.228   4.327   5.526
  846TIP3    H1 2502   2.242   4.315   5.620
  846TIP3    H2 2503   2.248   4.420   5.511
  847TIP3   OH2 2504   6.686   5.542   5.642
  847TIP3    H1 2505   6.649   5.521   5.727
  847TIP3    H2 2506   6.658   5.471   5.585
  848TIP3   OH2 2507   7.088   3.237   3.703
  848TIP3    H1 2508   7.156   3.280   3.755
  848TIP3    H2 2509   7.015   3.299   3.702
  849TIP3   OH2 2510   2.859   1.714   2.730
  849TIP3    H1 2511   2.911   1.640   2.763
  849TIP3    H2 2512   2.922   1.768   2.682
  850TIP3   OH2 2513   5.551   5.819   0.730
  850TIP3    H1 2514   5.615   5.763   0.775
  850TIP3    H2 2515   5.604   5.889   0.692
  851TIP3   OH2 2516   5.084   3.541   2.831
  851TIP3    H1 2517   5.043   3.601   2.893
  851TIP3    H2 2518   5.017   3.522   2.766
  852TIP3   OH2 2519   1.049   4.184   5.871
  852TIP3    H1 2520   0.954   4.197   5.867
  852TIP3    H2 2521   1.064   4.146   5.958
  853TIP3   OH2 2522   5.487   5.380   0.291
  853TIP3    H1 2523   5.485   5.298   0.242
  853TIP3    H2 2524   5.395   5.404   0.302
  854TIP3   OH2 2525   4.928   1.288   5.253
  854TIP3    H1 2526   4.998   1.336   5.209
  854TIP3    H2 2527   4.849   1.308   5.202
  855TIP3   OH2 2528   2.004   2.394   3.641
  855TIP3    H1 2529   1.916   2.358   3.633
  855TIP3    H2 2530   2.042   2.383   3.553
  856TIP3   OH2 2531   3.951   5.979   1.312
  856TIP3    H1 2532   4.025   5.951   1.366
  856TIP3    H2 2533   3.964   5.934   1.228
  857TIP3   OH2 2534   2.325   4.523   0.125
  857TIP3    H1 2535   2.294   4.545   0.213
  857TIP3    H2 2536   2.408   4.477   0.140
  858TIP3   OH2 2537   3.968   0.284   2.399
  858TIP3    H1 2538   3.967   0.204   2.347
  858TIP3    H2 2539   4.043   0.333   2.367
  859TIP3   OH2 2540   3.603   3.598   3.624
  859TIP3    H1 2541   3.580   3.611   3.532
  859TIP3    H2 2542   3.521   3.570   3.665
  860TIP3   OH2 2543   6.829   5.655   1.339
  860TIP3    H1 2544   6.876   5.722   1.389
  860TIP3    H2 2545   6.759   5.703   1.294
  861TIP3   OH2 2546   2.871   1.992   1.707
  861TIP3    H1 2547   2.841   2.055   1.641
  861TIP3    H2 2548   2.810   1.919   1.701
  862TIP3   OH2 2549   5.349   2.919   3.283
  862TIP3    H1 2550   5.392   2.902   3.199
  862TIP3    H2 2551   5.387   2.856   3.343
  863TIP3   OH2 2552   3.036   6.782   5.866
  863TIP3    H1 2553   3.063   6.696   5.897
  863TIP3    H2 2554   3.106   6.841   5.894
  864TIP3   OH2 2555   6.404   3.439   2.553
  864TIP3    H1 2556   6.326   3.385   2.537
  864TIP3    H2 2557   6.411   3.493   2.475
  865TIP3   OH2 2558   3.315   1.905   0.957
  865TIP3    H1 2559   3.379   1.849   0.914
  865TIP3    H2 2560   3.328   1.991   0.917
  866TIP3   OH2 2561   1.721   0.998   1.281
  866TIP3    H1 2562   1.719   0.989   1.377
  866TIP3    H2 2563   1.642   1.048   1.261
  867TIP3   OH2 2564   3.539   2.220   2.349
  867TIP3    H1 2565   3.591   2.299   2.363
  867TIP3    H2 2566   3.504   2.230   2.261
  868TIP3   OH2 2567   0.679   3.106   3.750
  868TIP3    H1 2568   0.655   3.043   3.682
  868TIP3    H2 2569   0.675   3.191   3.706
  869TIP3   OH2 2570   4.166   3.837   3.971
  869TIP3    H1 2571   4.206   3.871   4.051
  869TIP3    H2 2572   4.083   3.885   3.963
  870TIP3   OH2 2573   5.496   1.147   3.372
  870TIP3    H1 2574   5.535   1.165   3.458
  870TIP3    H2 2575   5.495   1.051   3.365
  871TIP3   OH2 2576   3.976   0.533   0.353
  871TIP3    H1 2577   4.008   0.458   0.403
  871TIP3    H2 2578   4.014   0.609   0.396
  872TIP3   OH2 2579   2.711   0.641   5.506
  872TIP3    H1 2580   2.735   0.630   5.598
  872TIP3    H2 2581   2.648   0.714   5.506
  873TIP3   OH2 2582   4.812   4.766   4.104
  873TIP3    H1 2583   4.744   4.789   4.168
  873TIP3    H2 2584   4.795   4.823   4.029
  874TIP3   OH2 2585   3.511   0.974   0.957
  874TIP3    H1 2586   3.572   1.034   1.000
  874TIP3    H2 2587   3.445   1.032   0.917
  875TIP3   OH2 2588   0.783   5.737   1.895
  875TIP3    H1 2589   0.689   5.723   1.906
  875TIP3    H2 2590   0.794   5.831   1.905
  876TIP3   OH2 2591   4.373   0.677   4.800
  876TIP3    H1 2592   4.418   0.693   4.717
  876TIP3    H2 2593   4.405   0.592   4.829
  877TIP3   OH2 2594   2.176   5.328   4.852
  877TIP3    H1 2595   2.174   5.259   4.786
  877TIP3    H2 2596   2.265   5.362   4.849
  878TIP3   OH2 2597   6.678   2.728   1.722
  878TIP3    H1 2598   6.697   2.790   1.792
  878TIP3    H2 2599   6.716   2.767   1.644
  879TIP3   OH2 2600   1.360   4.510   3.891
  879TIP3    H1 2601   1.305   4.559   3.951
  879TIP3    H2 2602   1.405   4.577   3.839
  880TIP3   OH2 2603   1.107   4.335   5.452
  880TIP3    H1 2604   1.024   4.368   5.486
  880TIP3    H2 2605   1.103   4.351   5.358
  881TIP3   OH2 2606   7.036   1.638   2.333
  881TIP3    H1 2607   7.109   1.600   2.284
  881TIP3    H2 2608   6.998   1.702   2.273
  882TIP3   OH2 2609   5.284   2.799   0.783
  882TIP3    H1 2610   5.282   2.837   0.871
  882TIP3    H2 2611   5.259   2.708   0.796
  883TIP3   OH2 2612   1.615   5.820   3.861
  883TIP3    H1 2613   1.568   5.738   3.878
  883TIP3    H2 2614   1.583   5.881   3.928
  884TIP3   OH2 2615   6.344   1.574   2.464
  884TIP3    H1 2616   6.430   1.533   2.470
  884TIP3    H2 2617   6.350   1.652   2.518
  885TIP3   OH2 2618   6.048   2.827   0.038
  885TIP3    H1 2619   5.970   2.876   0.013
  885TIP3    H2 2620   6.053   2.756  -0.026
  886TIP3   OH2 2621   3.539   3.308   4.087
  886TIP3    H1 2622   3.631   3.281   4.097
  886TIP3    H2 2623   3.531   3.387   4.141
  887TIP3   OH2 2624   5.309   4.298   2.473
  887TIP3    H1 2625   5.283   4.273   2.385
  887TIP3    H2 2626   5.322   4.215   2.519
  888TIP3   OH2 2627   6.354   1.763   2.639
  888TIP3    H1 2628   6.296   1.838   2.649
  888TIP3    H2 2629   6.330   1.704   2.710
  889TIP3   OH2 2630   6.887   0.540   5.576
  889TIP3    H1 2631   6.925   0.507   5.657
  889TIP3    H2 2632   6.815   0.596   5.605
  890TIP3   OH2 2633   1.363   6.097   5.271
  890TIP3    H1 2634   1.390   6.021   5.220
  890TIP3    H2 2635   1.306   6.147   5.212
  891TIP3   OH2 2636   5.620   2.606   3.472
  891TIP3    H1 2637   5.565   2.644   3.403
  891TIP3    H2 2638   5.620   2.512   3.454
  892TIP3   OH2 2639   6.562   2.677   2.338
  892TIP3    H1 2640   6.652   2.711   2.340
  892TIP3    H2 2641   6.509   2.751   2.308
  893TIP3   OH2 2642   1.476   2.122   4.696
  893TIP3    H1 2643   1.509   2.102   4.608
  893TIP3    H2 2644   1.458   2.036   4.735
  894TIP3   OH2 2645   1.865   1.888   3.529
  894TIP3    H1 2646   1.925   1.905   3.601
  894TIP3    H2 2647   1.884   1.958   3.466
  895TIP3   OH2 2648   0.004   4.780   5.124
  895TIP3    H1 2649  -0.056   4.805   5.054
  895TIP3    H2 2650   0.016   4.686   5.112
  896TIP3   OH2 2651   2.047   5.151   4.170
  896TIP3    H1 2652   1.970   5.200   4.142
  896TIP3    H2 2653   2.017   5.101   4.246
  897TIP3   OH2 2654   2.463   4.610   1.805
  897TIP3    H1 2655   2.520   4.615   1.728
  897TIP3    H2 2656   2.456   4.516   1.824
  898TIP3   OH2 2657   4.117   6.625   3.490
  898TIP3    H1 2658   4.037   6.663   3.454
  898TIP3    H2 2659   4.182   6.694   3.483
  899TIP3   OH2 2660   1.427   4.658   1.872
  899TIP3    H1 2661   1.419   4.571   1.911
  899TIP3    H2 2662   1.517   4.686   1.893
  900TIP3   OH2 2663   3.404   1.134   1.944
  900TIP3    H1 2664   3.420   1.098   2.031
  900TIP3    H2 2665   3.425   1.062   1.884
  901TIP3   OH2 2666   4.111   0.809   4.720
  901TIP3    H1 2667   4.195   0.763   4.733
  901TIP3    H2 2668   4.112   0.879   4.786
  902TIP3   OH2 2669   2.490   1.896   2.956
  902TIP3    H1 2670   2.411   1.890   2.903
  902TIP3    H2 2671   2.477   1.973   3.011
  903TIP3   OH2 2672   1.127   0.765   5.004
  903TIP3    H1 2673   1.124   0.858   4.981
  903TIP3    H2 2674   1.060   0.754   5.071
  904TIP3   OH2 2675   2.154   6.287   0.554
  904TIP3    H1 2676   2.069   6.244   0.564
  904TIP3    H2 2677   2.198   6.238   0.485
  905TIP3   OH2 2678   2.726   2.669   4.263
  905TIP3    H1 2679   2.808   2.625   4.240
  905TIP3    H2 2680   2.730   2.678   4.358
  906TIP3   OH2 2681   2.105   3.319   2.214
  906TIP3    H1 2682   2.108   3.340   2.121
  906TIP3    H2 2683   2.192   3.286   2.235
  907TIP3   OH2 2684   6.163   3.105   1.106
  907TIP3    H1 2685   6.110   3.026   1.113
  907TIP3    H2 2686   6.235   3.092   1.168
  908TIP3   OH2 2687   5.903   3.442   2.565
  908TIP3    H1 2688   5.869   3.513   2.620
  908TIP3    H2 2689   5.875   3.466   2.476
  909TIP3   OH2 2690   2.042   6.768   4.062
  909TIP3    H1 2691   2.050   6.700   3.995
  909TIP3    H2 2692   2.131   6.784   4.091
  910TIP3   OH2 2693   0.282   0.330   0.188
  910TIP3    H1 2694   0.373   0.347   0.166
  910TIP3    H2 2695   0.234   0.351   0.108
  911TIP3   OH2 2696   4.119   5.581   5.354
  911TIP3    H1 2697   4.212   5.570   5.332
  911TIP3    H2 2698   4.085   5.641   5.288
  912TIP3   OH2 2699   2.573   2.570   2.077
  912TIP3    H1 2700   2.556   2.597   1.987
  912TIP3    H2 2701   2.498   2.515   2.101
  913TIP3   OH2 2702   4.327   6.109   4.051
  913TIP3    H1 2703   4.286   6.170   3.990
  913TIP3    H2 2704   4.326   6.025   4.006
  914TIP3   OH2 2705   4.379   4.208   2.906
  914TIP3    H1 2706   4.404   4.171   2.821
  914TIP3    H2 2707   4.394   4.137   2.969
  915TIP3   OH2 2708   0.134   0.553   5.182
  915TIP3    H1 2709   0.199   0.506   5.129
  915TIP3    H2 2710   0.104   0.488   5.246
  916TIP3   OH2 2711   3.662   4.954   2.426
  916TIP3    H1 2712   3.751   4.986   2.440
  916TIP3    H2 2713   3.661   4.923   2.335
  917TIP3   OH2 2714   4.058   3.089   2.611
  917TIP3    H1 2715   4.000   3.048   2.675
  917TIP3    H2 2716   4.016   3.073   2.527
  918TIP3   OH2 2717   1.420   2.012   2.372
  918TIP3    H1 2718   1.447   2.079   2.309
  918TIP3    H2 2719   1.325   2.021   2.377
  919TIP3   OH2 2720   2.863   4.185   0.899
  919TIP3    H1 2721   2.875   4.131   0.978
  919TIP3    H2 2722   2.815   4.262   0.930
  920TIP3   OH2 2723   0.342   3.612   5.603
  920TIP3    H1 2724   0.331   3.687   5.661
  920TIP3    H2 2725   0.281   3.546   5.637
  921TIP3   OH2 2726   3.370   3.302   5.637
  921TIP3    H1 2727   3.464   3.302   5.621
  921TIP3    H2 2728   3.348   3.211   5.653
  922TIP3   OH2 2729   4.181   5.141   2.174
  922TIP3    H1 2730   4.269   5.111   2.194
  922TIP3    H2 2731   4.124   5.079   2.219
  923TIP3   OH2 2732   6.061   0.776   4.824
  923TIP3    H1 2733   5.973   0.738   4.834
  923TIP3    H2 2734   6.066   0.845   4.890
  924TIP3   OH2 2735   4.339   4.654   0.717
  924TIP3    H1 2736   4.269   4.658   0.782
  924TIP3    H2 2737   4.419   4.655   0.768
  925TIP3   OH2 2738   0.469   0.272   1.918
  925TIP3    H1 2739   0.463   0.357   1.874
  925TIP3    H2 2740   0.554   0.273   1.962
  926TIP3   OH2 2741   3.337   0.930   1.201
  926TIP3    H1 2742   3.269   0.962   1.141
  926TIP3    H2 2743   3.405   0.895   1.144
  927TIP3   OH2 2744   3.805   3.694   4.748
  927TIP3    H1 2745   3.748   3.767   4.769
  927TIP3    H2 2746   3.847   3.672   4.832
  928TIP3   OH2 2747   5.625   2.811   1.723
  928TIP3    H1 2748   5.590   2.806   1.634
  928TIP3    H2 2749   5.601   2.898   1.754
  929TIP3   OH2 2750   5.571   3.912   5.172
  929TIP3    H1 2751   5.530   3.864   5.100
  929TIP3    H2 2752   5.541   4.002   5.162
  930TIP3   OH2 2753   2.698   1.599   1.595
  930TIP3    H1 2754   2.735   1.616   1.682
  930TIP3    H2 2755   2.754   1.648   1.535
  931TIP3   OH2 2756   6.228   3.939   4.497
  931TIP3    H1 2757   6.300   3.994   4.526
  931TIP3    H2 2758   6.181   3.993   4.433
  932TIP3   OH2 2759   2.436   3.325   1.054
  932TIP3    H1 2760   2.427   3.341   1.148
  932TIP3    H2 2761   2.436   3.412   1.014
  933TIP3   OH2 2762   3.085   3.102   1.046
  933TIP3    H1 2763   3.146   3.084   1.117
  933TIP3    H2 2764   2.999   3.108   1.089
  934TIP3   OH2 2765   0.851   6.636   4.185
  934TIP3    H1 2766   0.772   6.595   4.220
  934TIP3    H2 2767   0.881   6.576   4.117
  935TIP3   OH2 2768   4.029   4.921   0.419
  935TIP3    H1 2769   4.044   4.869   0.340
  935TIP3    H2 2770   4.061   4.865   0.491
  936TIP3   OH2 2771   2.666   3.321   2.388
  936TIP3    H1 2772   2.762   3.317   2.388
  936TIP3    H2 2773   2.638   3.231   2.377
  937TIP3   OH2 2774   3.221   1.322   2.429
  937TIP3    H1 2775   3.181   1.288   2.348
  937TIP3    H2 2776   3.163   1.291   2.498
  938TIP3   OH2 2777   2.708   1.000   0.153
  938TIP3    H1 2778   2.629   0.990   0.207
  938TIP3    H2 2779   2.750   1.079   0.187
  939TIP3   OH2 2780   6.854   0.325   0.063
  939TIP3    H1 2781   6.859   0.248   0.008
  939TIP3    H2 2782   6.788   0.380   0.022
  940TIP3   OH2 2783   6.270   0.838   3.672
  940TIP3    H1 2784   6.322   0.793   3.605
  940TIP3    H2 2785   6.324   0.913   3.698
  941TIP3   OH2 2786   3.343   3.349   4.522
  941TIP3    H1 2787   3.359   3.310   4.436
  941TIP3    H2 2788   3.327   3.275   4.580
  942TIP3   OH2 2789   0.473   4.707   0.758
  942TIP3    H1 2790   0.442   4.625   0.720
  942TIP3    H2 2791   0.501   4.683   0.846
  943TIP3   OH2 2792   0.263   2.071   2.483
  943TIP3    H1 2793   0.268   2.124   2.562
  943TIP3    H2 2794   0.273   1.981   2.514
  944TIP3   OH2 2795   6.866   0.475   4.971
  944TIP3    H1 2796   6.928   0.484   5.043
  944TIP3    H2 2797   6.894   0.541   4.907
  945TIP3   OH2 2798   1.658   5.386   3.475
  945TIP3    H1 2799   1.728   5.449   3.491
  945TIP3    H2 2800   1.701   5.313   3.428
  946TIP3   OH2 2801   6.253   5.861   5.345
  946TIP3    H1 2802   6.174   5.895   5.387
  946TIP3    H2 2803   6.232   5.863   5.251
  947TIP3   OH2 2804   0.211   2.202   1.681
  947TIP3    H1 2805   0.258   2.130   1.724
  947TIP3    H2 2806   0.151   2.235   1.748
  948TIP3   OH2 2807   1.030   2.301   2.091
  948TIP3    H1 2808   1.000   2.380   2.046
  948TIP3    H2 2809   1.082   2.254   2.025
  949TIP3   OH2 2810   0.759   4.582   4.993
  949TIP3    H1 2811   0.841   4.625   5.019
  949TIP3    H2 2812   0.694   4.617   5.053
  950TIP3   OH2 2813   2.886   6.071   0.904
  950TIP3    H1 2814   2.878   6.164   0.882
  950TIP3    H2 2815   2.799   6.035   0.888
  951TIP3   OH2 2816   0.091   0.793   5.350
  951TIP3    H1 2817   0.003   0.757   5.340
  951TIP3    H2 2818   0.148   0.733   5.302
  952TIP3   OH2 2819   0.586   1.042   3.614
  952TIP3    H1 2820   0.632   1.080   3.539
  952TIP3    H2 2821   0.565   0.953   3.586
  953TIP3   OH2 2822   3.371   0.589   2.722
  953TIP3    H1 2823   3.438   0.558   2.661
  953TIP3    H2 2824   3.406   0.671   2.757
  954TIP3   OH2 2825   2.917   1.393   2.894
  954TIP3    H1 2826   2.857   1.456   2.933
  954TIP3    H2 2827   2.981   1.446   2.848
  955TIP3   OH2 2828   1.034   6.209   2.499
  955TIP3    H1 2829   1.072   6.290   2.534
  955TIP3    H2 2830   1.093   6.184   2.428
  956TIP3   OH2 2831   7.105   6.257   1.067
  956TIP3    H1 2832   7.092   6.169   1.102
  956TIP3    H2 2833   7.199   6.273   1.076
  957TIP3   OH2 2834   1.378   1.075   0.484
  957TIP3    H1 2835   1.461   1.028   0.481
  957TIP3    H2 2836   1.337   1.057   0.400
  958TIP3   OH2 2837   4.284   4.271   1.899
  958TIP3    H1 2838   4.239   4.275   1.983
  958TIP3    H2 2839   4.294   4.363   1.873
  959TIP3   OH2 2840   0.714   5.754   5.195
  959TIP3    H1 2841   0.621   5.754   5.218
  959TIP3    H2 2842   0.740   5.663   5.200
  960TIP3   OH2 2843   5.958   2.180   3.057
  960TIP3    H1 2844   6.049   2.167   3.084
  960TIP3    H2 2845   5.925   2.092   3.039
  961TIP3   OH2 2846   2.402   6.044   4.869
  961TIP3    H1 2847   2.492   6.013   4.882
  961TIP3    H2 2848   2.412   6.124   4.817
  962TIP3   OH2 2849   6.747   1.322   3.514
  962TIP3    H1 2850   6.813   1.317   3.583
  962TIP3    H2 2851   6.786   1.380   3.448
  963TIP3   OH2 2852   0.361   3.496   5.132
  963TIP3    H1 2853   0.398   3.532   5.212
  963TIP3    H2 2854   0.267   3.492   5.149
  964TIP3   OH2 2855   6.015   4.627   0.323
  964TIP3    H1 2856   5.922   4.628   0.303
  964TIP3    H2 2857   6.026   4.552   0.382
  965TIP3   OH2 2858   6.352   1.479   0.234
  965TIP3    H1 2859   6.338   1.385   0.223
  965TIP3    H2 2860   6.324   1.496   0.324
  966TIP3   OH2 2861   5.558   1.133   1.478
  966TIP3    H1 2862   5.569   1.045   1.514
  966TIP3    H2 2863   5.600   1.191   1.542
  967TIP3   OH2 2864   5.539   6.727   4.694
  967TIP3    H1 2865   5.497   6.649   4.657
  967TIP3    H2 2866   5.466   6.786   4.712
  968TIP3   OH2 2867   4.692   2.369   1.458
  968TIP3    H1 2868   4.725   2.315   1.530
  968TIP3    H2 2869   4.740   2.340   1.381
  969TIP3   OH2 2870   6.758   3.371   0.792
  969TIP3    H1 2871   6.690   3.438   0.786
  969TIP3    H2 2872   6.710   3.288   0.787
  970TIP3   OH2 2873   1.076   3.995   4.141
  970TIP3    H1 2874   1.099   3.906   4.115
  970TIP3    H2 2875   1.126   4.011   4.221
  971TIP3   OH2 2876   0.621   1.403   4.101
  971TIP3    H1 2877   0.659   1.444   4.023
  971TIP3    H2 2878   0.583   1.321   4.069
  972TIP3   OH2 2879   0.938   1.515   0.093
  972TIP3    H1 2880   0.914   1.556   0.009
  972TIP3    H2 2881   1.021   1.472   0.075
  973TIP3   OH2 2882   0.299   4.548   4.480
  973TIP3    H1 2883   0.252   4.488   4.537
  973TIP3    H2 2884   0.248   4.549   4.399
  974TIP3   OH2 2885   1.138   2.292   3.897
  974TIP3    H1 2886   1.060   2.268   3.946
  974TIP3    H2 2887   1.123   2.383   3.870
  975TIP3   OH2 2888   2.539   3.069   0.464
  975TIP3    H1 2889   2.603   3.082   0.534
  975TIP3    H2 2890   2.563   3.134   0.398
  976TIP3   OH2 2891   3.416   0.472   5.746
  976TIP3    H1 2892   3.389   0.427   5.827
  976TIP3    H2 2893   3.345   0.455   5.684
  977TIP3   OH2 2894   3.836   5.607   3.374
  977TIP3    H1 2895   3.856   5.542   3.307
  977TIP3    H2 2896   3.818   5.687   3.326
  978TIP3   OH2 2897   5.206   6.347   2.928
  978TIP3    H1 2898   5.181   6.333   2.837
  978TIP3    H2 2899   5.173   6.270   2.974
  979TIP3   OH2 2900   6.093   6.112   5.483
  979TIP3    H1 2901   6.127   6.167   5.553
  979TIP3    H2 2902   6.051   6.039   5.528
  980TIP3   OH2 2903   6.423   0.061   4.722
  980TIP3    H1 2904   6.431   0.010   4.803
  980TIP3    H2 2905   6.358   0.128   4.743
  981TIP3   OH2 2906   2.771   4.201   5.193
  981TIP3    H1 2907   2.772   4.206   5.097
  981TIP3    H2 2908   2.783   4.108   5.212
  982TIP3   OH2 2909   6.706   5.035   5.034
  982TIP3    H1 2910   6.742   5.121   5.055
  982TIP3    H2 2911   6.747   5.011   4.952
  983TIP3   OH2 2912   4.403   6.413   3.405
  983TIP3    H1 2913   4.390   6.492   3.352
  983TIP3    H2 2914   4.454   6.444   3.481
  984TIP3   OH2 2915   2.643   1.743   3.733
  984TIP3    H1 2916   2.710   1.806   3.708
  984TIP3    H2 2917   2.625   1.695   3.652
  985TIP3   OH2 2918   1.344   2.919   0.102
  985TIP3    H1 2919   1.327   2.985   0.169
  985TIP3    H2 2920   1.421   2.952   0.055
  986TIP3   OH2 2921   2.798   3.754   0.865
  986TIP3    H1 2922   2.741   3.685   0.833
  986TIP3    H2 2923   2.886   3.726   0.840
  987TIP3   OH2 2924   2.836   4.063   1.480
  987TIP3    H1 2925   2.843   4.148   1.524
  987TIP3    H2 2926   2.920   4.021   1.496
  988TIP3   OH2 2927   4.119   4.130   2.843
  988TIP3    H1 2928   4.207   4.153   2.871
  988TIP3    H2 2929   4.089   4.065   2.907
  989TIP3   OH2 2930   6.798   3.475   1.831
  989TIP3    H1 2931   6.785   3.532   1.907
  989TIP3    H2 2932   6.819   3.535   1.760
  990TIP3   OH2 2933   2.343   4.155   5.354
  990TIP3    H1 2934   2.319   4.205   5.276
  990TIP3    H2 2935   2.311   4.208   5.427
  991TIP3   OH2 2936   5.552   5.841   3.133
  991TIP3    H1 2937   5.527   5.897   3.059
  991TIP3    H2 2938   5.470   5.801   3.161
  992TIP3   OH2 2939   4.747   4.190   3.562
  992TIP3    H1 2940   4.759   4.127   3.491
  992TIP3    H2 2941   4.708   4.138   3.633
  993TIP3   OH2 2942   3.254   6.188   3.975
  993TIP3    H1 2943   3.194   6.167   4.046
  993TIP3    H2 2944   3.242   6.282   3.959
  994TIP3   OH2 2945   1.603   6.349   5.559
  994TIP3    H1 2946   1.603   6.444   5.566
  994TIP3    H2 2947   1.554   6.319   5.636
  995TIP3   OH2 2948   1.219   4.276   5.696
  995TIP3    H1 2949   1.161   4.244   5.764
  995TIP3    H2 2950   1.163   4.285   5.618
  996TIP3   OH2 2951   1.482   6.459   5.177
  996TIP3    H1 2952   1.467   6.431   5.267
  996TIP3    H2 2953   1.444   6.389   5.124
  997TIP3   OH2 2954   1.045   3.919   2.232
  997TIP3    H1 2955   1.058   3.955   2.144
  997TIP3    H2 2956   0.950   3.908   2.239
  998TIP3   OH2 2957   1.623   5.385   0.871
  998TIP3    H1 2958   1.717   5.376   0.889
  998TIP3    H2 2959   1.603   5.476   0.892
  999TIP3   OH2 2960   3.515   1.368   3.901
  999TIP3    H1 2961   3.447   1.328   3.846
  999TIP3    H2 2962   3.582   1.300   3.909
 1000TIP3   OH2 2963   4.994   6.491   0.456
 1000TIP3    H1 2964   4.975   6.410   0.411
 1000TIP3    H2 2965   5.059   6.535   0.401
 1001TIP3   OH2 2966   7.030   2.846   3.981
 1001TIP3    H1 2967   6.953   2.902   3.985
 1001TIP3    H2 2968   7.104   2.906   3.991
 1002TIP3   OH2 2969   3.244   5.942   0.324
 1002TIP3    H1 2970   3.233   5.853   0.357
 1002TIP3    H2 2971   3.333   5.944   0.288
 1003TIP3   OH2 2972   2.233   2.689   4.144
 1003TIP3    H1 2973   2.263   2.613   4.094
 1003TIP3    H2 2974   2.313   2.735   4.169
 1004TIP3   OH2 2975   6.201   4.771   1.622
 1004TIP3    H1 2976   6.275   4.721   1.657
 1004TIP3    H2 2977   6.239   4.853   1.592
 1005TIP3   OH2 2978   3.836   3.243   3.281
 1005TIP3    H1 2979   3.813   3.197   3.361
 1005TIP3    H2 2980   3.780   3.321   3.281
 1006TIP3   OH2 2981   7.041   4.453   1.899
 1006TIP3    H1 2982   7.115   4.463   1.959
 1006TIP3    H2 2983   7.035   4.538   1.855
 1007TIP3   OH2 2984   3.214   2.671   0.907
 1007TIP3    H1 2985   3.261   2.749   0.877
 1007TIP3    H2 2986   3.281   2.603   0.910
 1008TIP3   OH2 2987   4.843   4.209   4.050
 1008TIP3    H1 2988   4.899   4.154   4.105
 1008TIP3    H2 2989   4.830   4.158   3.970
 1009TIP3   OH2 2990   4.020   5.572   5.813
 1009TIP3    H1 2991   3.973   5.630   5.754
 1009TIP3    H2 2992   3.953   5.536   5.870
 1010TIP3   OH2 2993   4.199   6.760   2.123
 1010TIP3    H1 2994   4.198   6.799   2.036
 1010TIP3    H2 2995   4.173   6.669   2.109
 1011TIP3   OH2 2996   6.679   6.000   4.168
 1011TIP3    H1 2997   6.659   6.080   4.119
 1011TIP3    H2 2998   6.596   5.976   4.209
 1012TIP3   OH2 2999   4.938   5.474   5.436
 1012TIP3    H1 3000   4.946   5.495   5.529
 1012TIP3    H2 3001   5.014   5.419   5.417
 1013TIP3   OH2 3002   5.085   1.324   1.443
 1013TIP3    H1 3003   5.073   1.350   1.351
 1013TIP3    H2 3004   5.164   1.269   1.442
 1014TIP3   OH2 3005   2.147   5.820   2.119
 1014TIP3    H1 3006   2.136   5.763   2.043
 1014TIP3    H2 3007   2.060   5.857   2.134
 1015TIP3   OH2 3008   1.446   6.211   4.194
 1015TIP3    H1 3009   1.440   6.307   4.191
 1015TIP3    H2 3010   1.401   6.187   4.275
 1016TIP3   OH2 3011   3.461   1.050   1.416
 1016TIP3    H1 3012   3.420   1.013   1.337
 1016TIP3    H2 3013   3.480   1.141   1.392
 1017TIP3   OH2 3014   4.813   0.342   5.556
 1017TIP3    H1 3015   4.718   0.333   5.544
 1017TIP3    H2 3016   4.835   0.274   5.619
 1018TIP3   OH2 3017   5.973   5.165   5.571
 1018TIP3    H1 3018   5.962   5.122   5.486
 1018TIP3    H2 3019   6.021   5.246   5.550
 1019TIP3   OH2 3020   6.329   5.331   1.279
 1019TIP3    H1 3021   6.241   5.368   1.265
 1019TIP3    H2 3022   6.351   5.291   1.195
 1020TIP3   OH2 3023   4.981   5.473   5.761
 1020TIP3    H1 3024   5.014   5.548   5.810
 1020TIP3    H2 3025   4.890   5.465   5.787
 1021TIP3   OH2 3026   3.026   4.819   0.495
 1021TIP3    H1 3027   3.073   4.891   0.536
 1021TIP3    H2 3028   2.996   4.765   0.568
 1022TIP3   OH2 3029   7.101   1.088   3.508
 1022TIP3    H1 3030   7.082   1.133   3.590
 1022TIP3    H2 3031   7.024   1.033   3.492
 1023TIP3   OH2 3032   3.508   4.367   2.753
 1023TIP3    H1 3033   3.524   4.275   2.735
 1023TIP3    H2 3034   3.474   4.368   2.843
 1024TIP3   OH2 3035   2.872   2.089   2.523
 1024TIP3    H1 3036   2.801   2.025   2.514
 1024TIP3    H2 3037   2.940   2.042   2.571
 1025TIP3   OH2 3038   2.141   3.906   2.336
 1025TIP3    H1 3039   2.229   3.870   2.324
 1025TIP3    H2 3040   2.117   3.938   2.249
 1026TIP3   OH2 3041   1.586   0.249   3.835
 1026TIP3    H1 3042   1.512   0.247   3.896
 1026TIP3    H2 3043   1.550   0.215   3.753
 1027TIP3   OH2 3044   4.497   0.709   2.118
 1027TIP3    H1 3045   4.477   0.794   2.080
 1027TIP3    H2 3046   4.588   0.717   2.147
 1028TIP3   OH2 3047   2.014   0.628   5.124
 1028TIP3    H1 3048   2.033   0.535   5.139
 1028TIP3    H2 3049   1.979   0.659   5.208
 1029TIP3   OH2 3050   3.572   0.819   4.397
 1029TIP3    H1 3051   3.573   0.877   4.321
 1029TIP3    H2 3052   3.527   0.740   4.366
 1030TIP3   OH2 3053   2.391   4.975   2.393
 1030TIP3    H1 3054   2.310   5.022   2.413
 1030TIP3    H2 3055   2.427   4.953   2.479
 1031TIP3   OH2 3056   6.419   4.668   2.822
 1031TIP3    H1 3057   6.458   4.637   2.904
 1031TIP3    H2 3058   6.330   4.632   2.823
 1032TIP3   OH2 3059   6.578   3.359   2.859
 1032TIP3    H1 3060   6.571   3.377   2.952
 1032TIP3    H2 3061   6.619   3.272   2.854
 1033TIP3   OH2 3062   6.508   6.378   5.321
 1033TIP3    H1 3063   6.489   6.321   5.395
 1033TIP3    H2 3064   6.590   6.345   5.285
 1034TIP3   OH2 3065   6.775   1.822   1.730
 1034TIP3    H1 3066   6.868   1.800   1.738
 1034TIP3    H2 3067   6.765   1.903   1.780
 1035TIP3   OH2 3068   2.613   0.358   0.094
 1035TIP3    H1 3069   2.667   0.334   0.018
 1035TIP3    H2 3070   2.523   0.350   0.063
 1036TIP3   OH2 3071   5.728   1.112   5.010
 1036TIP3    H1 3072   5.813   1.144   5.040
 1036TIP3    H2 3073   5.665   1.176   5.044
 1037TIP3   OH2 3074   0.835   1.948   5.186
 1037TIP3    H1 3075   0.809   1.921   5.275
 1037TIP3    H2 3076   0.858   2.040   5.195
 1038TIP3   OH2 3077   1.978   1.515   4.119
 1038TIP3    H1 3078   1.954   1.443   4.176
 1038TIP3    H2 3079   2.014   1.582   4.177
 1039TIP3   OH2 3080   3.038   5.001   5.513
 1039TIP3    H1 3081   3.041   4.912   5.548
 1039TIP3    H2 3082   2.945   5.020   5.505
 1040TIP3   OH2 3083   3.585   4.962   3.671
 1040TIP3    H1 3084   3.494   4.954   3.643
 1040TIP3    H2 3085   3.635   4.971   3.590
 1041TIP3   OH2 3086   6.456   4.234   2.199
 1041TIP3    H1 3087   6.417   4.197   2.278
 1041TIP3    H2 3088   6.550   4.219   2.210
 1042TIP3   OH2 3089   2.430   3.891   5.317
 1042TIP3    H1 3090   2.413   3.976   5.356
 1042TIP3    H2 3091   2.392   3.896   5.229
 1043TIP3   OH2 3092   7.036   2.765   5.691
 1043TIP3    H1 3093   7.041   2.791   5.599
 1043TIP3    H2 3094   7.125   2.776   5.723
 1044TIP3   OH2 3095   6.314   1.642   2.883
 1044TIP3    H1 3096   6.220   1.664   2.884
 1044TIP3    H2 3097   6.317   1.548   2.895
 1045TIP3   OH2 3098   6.946   5.343   5.771
 1045TIP3    H1 3099   6.947   5.248   5.759
 1045TIP3    H2 3100   6.931   5.379   5.684
 1046TIP3   OH2 3101   2.568   3.762   2.975
 1046TIP3    H1 3102   2.533   3.674   2.962
 1046TIP3    H2 3103   2.502   3.821   2.940
 1047TIP3   OH2 3104   4.631   1.523   3.582
 1047TIP3    H1 3105   4.593   1.572   3.509
 1047TIP3    H2 3106   4.618   1.431   3.558
 1048TIP3   OH2 3107   4.856   5.755   2.932
 1048TIP3    H1 3108   4.826   5.790   2.848
 1048TIP3    H2 3109   4.781   5.706   2.966
 1049TIP3   OH2 3110   7.045   6.422   0.676
 1049TIP3    H1 3111   6.962   6.412   0.631
 1049TIP3    H2 3112   7.025   6.475   0.754
 1050TIP3   OH2 3113   1.440   5.340   4.618
 1050TIP3    H1 3114   1.393   5.263   4.588
 1050TIP3    H2 3115   1.517   5.345   4.561
 1051TIP3   OH2 3116   3.259   0.272   1.065
 1051TIP3    H1 3117   3.259   0.177   1.053
 1051TIP3    H2 3118   3.174   0.293   1.102
 1052TIP3   OH2 3119   4.500   3.812   2.888
 1052TIP3    H1 3120   4.545   3.847   2.965
 1052TIP3    H2 3121   4.425   3.763   2.924
 1053TIP3   OH2 3122   2.465   2.589   5.572
 1053TIP3    H1 3123   2.435   2.680   5.570
 1053TIP3    H2 3124   2.543   2.588   5.516
 1054TIP3   OH2 3125   3.451   0.412   1.679
 1054TIP3    H1 3126   3.498   0.349   1.734
 1054TIP3    H2 3127   3.422   0.361   1.604
 1055TIP3   OH2 3128   0.094   1.658   2.559
 1055TIP3    H1 3129   0.007   1.675   2.593
 1055TIP3    H2 3130   0.088   1.674   2.465
 1056TIP3   OH2 3131   2.378   6.523   4.698
 1056TIP3    H1 3132   2.471   6.546   4.702
 1056TIP3    H2 3133   2.334   6.595   4.744
 1057TIP3   OH2 3134   4.343   4.266   5.018
 1057TIP3    H1 3135   4.273   4.294   5.076
 1057TIP3    H2 3136   4.421   4.262   5.074
 1058TIP3   OH2 3137   4.836   2.492   2.550
 1058TIP3    H1 3138   4.851   2.399   2.567
 1058TIP3    H2 3139   4.917   2.535   2.579
 1059TIP3   OH2 3140   4.731   4.788   1.807
 1059TIP3    H1 3141   4.680   4.864   1.833
 1059TIP3    H2 3142   4.735   4.793   1.711
 1060TIP3   OH2 3143   4.579   5.767   3.518
 1060TIP3    H1 3144   4.548   5.757   3.428
 1060TIP3    H2 3145   4.499   5.766   3.571
 1061TIP3   OH2 3146   4.615   1.555   4.282
 1061TIP3    H1 3147   4.583   1.570   4.193
 1061TIP3    H2 3148   4.691   1.498   4.271
 1062TIP3   OH2 3149   2.255   0.451   1.934
 1062TIP3    H1 3150   2.334   0.406   1.904
 1062TIP3    H2 3151   2.188   0.383   1.935
 1063TIP3   OH2 3152   2.570   0.481   2.516
 1063TIP3    H1 3153   2.475   0.487   2.524
 1063TIP3    H2 3154   2.590   0.526   2.434
 1064TIP3   OH2 3155   2.937   4.579   5.334
 1064TIP3    H1 3156   2.940   4.623   5.420
 1064TIP3    H2 3157   2.910   4.648   5.273
 1065TIP3   OH2 3158   2.767   4.492   1.314
 1065TIP3    H1 3159   2.723   4.577   1.310
 1065TIP3    H2 3160   2.698   4.428   1.295
 1066TIP3   OH2 3161   1.356   2.610   1.362
 1066TIP3    H1 3162   1.330   2.545   1.296
 1066TIP3    H2 3163   1.434   2.573   1.403
 1067TIP3   OH2 3164   6.602   3.573   3.465
 1067TIP3    H1 3165   6.570   3.578   3.556
 1067TIP3    H2 3166   6.686   3.618   3.467
 1068TIP3   OH2 3167   0.580   3.700   5.811
 1068TIP3    H1 3168   0.569   3.655   5.727
 1068TIP3    H2 3169   0.512   3.662   5.867
 1069TIP3   OH2 3170   1.210   6.205   2.276
 1069TIP3    H1 3171   1.290   6.240   2.315
 1069TIP3    H2 3172   1.241   6.137   2.216
 1070TIP3   OH2 3173   4.679   5.504   5.144
 1070TIP3    H1 3174   4.681   5.412   5.120
 1070TIP3    H2 3175   4.643   5.505   5.233
 1071TIP3   OH2 3176   3.691   0.863   3.194
 1071TIP3    H1 3177   3.735   0.809   3.260
 1071TIP3    H2 3178   3.757   0.927   3.168
 1072TIP3   OH2 3179   5.329   4.516   4.706
 1072TIP3    H1 3180   5.286   4.600   4.695
 1072TIP3    H2 3181   5.394   4.513   4.635
 1073TIP3   OH2 3182   4.673   6.401   3.239
 1073TIP3    H1 3183   4.590   6.381   3.283
 1073TIP3    H2 3184   4.676   6.342   3.165
 1074TIP3   OH2 3185   2.902   0.966   4.733
 1074TIP3    H1 3186   2.807   0.966   4.720
 1074TIP3    H2 3187   2.932   1.048   4.694
 1075TIP3   OH2 3188   4.141   2.676   1.071
 1075TIP3    H1 3189   4.083   2.750   1.088
 1075TIP3    H2 3190   4.133   2.660   0.977
 1076TIP3   OH2 3191   3.046   6.582   0.333
 1076TIP3    H1 3192   3.034   6.489   0.312
 1076TIP3    H2 3193   3.018   6.590   0.424
 1077TIP3   OH2 3194   2.391   0.641   2.124
 1077TIP3    H1 3195   2.482   0.667   2.109
 1077TIP3    H2 3196   2.360   0.612   2.038
 1078TIP3   OH2 3197   2.667   6.715   0.056
 1078TIP3    H1 3198   2.595   6.737  -0.002
 1078TIP3    H2 3199   2.734   6.678  -0.002
 1079TIP3   OH2 3200   4.198   1.216   3.076
 1079TIP3    H1 3201   4.275   1.239   3.024
 1079TIP3    H2 3202   4.150   1.154   3.021
 1080TIP3   OH2 3203   1.388   2.580   0.897
 1080TIP3    H1 3204   1.307   2.535   0.921
 1080TIP3    H2 3205   1.403   2.556   0.806
 1081TIP3   OH2 3206   1.537   4.101   4.836
 1081TIP3    H1 3207   1.510   4.041   4.767
 1081TIP3    H2 3208   1.482   4.079   4.911
 1082TIP3   OH2 3209   4.938   6.170   5.595
 1082TIP3    H1 3210   4.964   6.258   5.568
 1082TIP3    H2 3211   4.944   6.118   5.514
 1083TIP3   OH2 3212   4.470   4.928   1.828
 1083TIP3    H1 3213   4.450   4.974   1.747
 1083TIP3    H2 3214   4.396   4.946   1.885
 1084TIP3   OH2 3215   1.069   6.775   5.812
 1084TIP3    H1 3216   1.059   6.860   5.767
 1084TIP3    H2 3217   1.043   6.710   5.747
 1085TIP3   OH2 3218   3.751   0.891   5.192
 1085TIP3    H1 3219   3.763   0.928   5.105
 1085TIP3    H2 3220   3.770   0.797   5.182
 1086TIP3   OH2 3221   7.190   5.817   2.351
 1086TIP3    H1 3222   7.178   5.803   2.257
 1086TIP3    H2 3223   7.126   5.759   2.392
 1087TIP3   OH2 3224   2.834   2.376   5.758
 1087TIP3    H1 3225   2.777   2.449   5.784
 1087TIP3    H2 3226   2.835   2.380   5.662
 1088TIP3   OH2 3227   5.784   6.011   5.892
 1088TIP3    H1 3228   5.816   6.013   5.802
 1088TIP3    H2 3229   5.862   5.995   5.945
 1089TIP3   OH2 3230   4.775   6.429   5.029
 1089TIP3    H1 3231   4.711   6.362   5.054
 1089TIP3    H2 3232   4.775   6.428   4.933
 1090TIP3   OH2 3233   3.313   5.854   1.550
 1090TIP3    H1 3234   3.322   5.846   1.645
 1090TIP3    H2 3235   3.328   5.947   1.532
 1091TIP3   OH2 3236   6.437   5.922   4.250
 1091TIP3    H1 3237   6.401   5.834   4.240
 1091TIP3    H2 3238   6.402   5.952   4.334
 1092TIP3   OH2 3239   2.664   5.109   3.584
 1092TIP3    H1 3240   2.742   5.154   3.618
 1092TIP3    H2 3241   2.609   5.179   3.550
 1093TIP3   OH2 3242   2.985   0.409   5.222
 1093TIP3    H1 3243   2.931   0.479   5.259
 1093TIP3    H2 3244   2.923   0.339   5.202
 1094TIP3   OH2 3245   3.017   1.925   0.223
 1094TIP3    H1 3246   2.940   1.867   0.223
 1094TIP3    H2 3247   3.079   1.881   0.164
 1095TIP3   OH2 3248   6.356   5.293   0.994
 1095TIP3    H1 3249   6.319   5.319   0.909
 1095TIP3    H2 3250   6.331   5.202   1.005
 1096TIP3   OH2 3251   2.342   3.672   4.787
 1096TIP3    H1 3252   2.323   3.687   4.695
 1096TIP3    H2 3253   2.272   3.614   4.817
 1097TIP3   OH2 3254   3.896   3.939   1.037
 1097TIP3    H1 3255   3.849   3.875   0.983
 1097TIP3    H2 3256   3.931   3.888   1.110
 1098TIP3   OH2 3257   5.541   3.267   3.760
 1098TIP3    H1 3258   5.564   3.175   3.742
 1098TIP3    H2 3259   5.614   3.317   3.726
 1099TIP3   OH2 3260   2.844   2.380   5.470
 1099TIP3    H1 3261   2.846   2.453   5.408
 1099TIP3    H2 3262   2.933   2.346   5.470
 1100TIP3   OH2 3263   5.988   5.723   2.272
 1100TIP3    H1 3264   5.901   5.687   2.253
 1100TIP3    H2 3265   6.049   5.658   2.239
 1101TIP3   OH2 3266   0.207   2.488   4.589
 1101TIP3    H1 3267   0.258   2.569   4.602
 1101TIP3    H2 3268   0.122   2.508   4.627
 1102TIP3   OH2 3269   1.656   3.156   2.413
 1102TIP3    H1 3270   1.675   3.250   2.405
 1102TIP3    H2 3271   1.725   3.123   2.470
 1103TIP3   OH2 3272   0.565   0.167   4.693
 1103TIP3    H1 3273   0.609   0.247   4.666
 1103TIP3    H2 3274   0.473   0.182   4.672
 1104TIP3   OH2 3275   0.343   5.646   5.586
 1104TIP3    H1 3276   0.273   5.702   5.553
 1104TIP3    H2 3277   0.347   5.664   5.679
 1105TIP3   OH2 3278   4.798   0.552   4.631
 1105TIP3    H1 3279   4.757   0.497   4.697
 1105TIP3    H2 3280   4.815   0.493   4.557
 1106TIP3   OH2 3281   5.722   3.331   2.834
 1106TIP3    H1 3282   5.756   3.401   2.778
 1106TIP3    H2 3283   5.773   3.254   2.811
 1107TIP3   OH2 3284   1.526   2.838   4.094
 1107TIP3    H1 3285   1.550   2.930   4.104
 1107TIP3    H2 3286   1.586   2.804   4.028
 1108TIP3   OH2 3287   3.988   6.659   0.734
 1108TIP3    H1 3288   3.951   6.737   0.776
 1108TIP3    H2 3289   3.926   6.589   0.756
 1109TIP3   OH2 3290   0.425   5.093   3.773
 1109TIP3    H1 3291   0.335   5.112   3.747
 1109TIP3    H2 3292   0.470   5.178   3.766
 1110TIP3   OH2 3293   0.134   2.976   2.854
 1110TIP3    H1 3294   0.047   3.008   2.878
 1110TIP3    H2 3295   0.192   3.007   2.924
 1111TIP3   OH2 3296   3.862   4.282   0.552
 1111TIP3    H1 3297   3.812   4.270   0.471
 1111TIP3    H2 3298   3.941   4.230   0.539
 1112TIP3   OH2 3299   6.117   5.480   1.147
 1112TIP3    H1 3300   6.133   5.553   1.207
 1112TIP3    H2 3301   6.023   5.483   1.129
 1113TIP3   OH2 3302   3.281   3.337   1.121
 1113TIP3    H1 3303   3.307   3.258   1.073
 1113TIP3    H2 3304   3.362   3.368   1.162
 1114TIP3   OH2 3305   5.230   3.822   1.929
 1114TIP3    H1 3306   5.184   3.905   1.935
 1114TIP3    H2 3307   5.319   3.841   1.958
 1115TIP3   OH2 3308   6.364   4.147   4.626
 1115TIP3    H1 3309   6.423   4.204   4.675
 1115TIP3    H2 3310   6.310   4.207   4.575
 1116TIP3   OH2 3311   1.667   3.438   2.440
 1116TIP3    H1 3312   1.689   3.493   2.365
 1116TIP3    H2 3313   1.585   3.473   2.473
 1117TIP3   OH2 3314   2.320   2.898   2.114
 1117TIP3    H1 3315   2.258   2.827   2.097
 1117TIP3    H2 3316   2.293   2.934   2.198
 1118TIP3   OH2 3317   1.565   3.670   3.166
 1118TIP3    H1 3318   1.506   3.724   3.219
 1118TIP3    H2 3319   1.643   3.723   3.154
 1119TIP3   OH2 3320   0.298   1.389   5.203
 1119TIP3    H1 3321   0.309   1.299   5.172
 1119TIP3    H2 3322   0.225   1.385   5.264
 1120TIP3   OH2 3323   5.936   0.685   0.217
 1120TIP3    H1 3324   6.030   0.665   0.216
 1120TIP3    H2 3325   5.913   0.686   0.310
 1121TIP3   OH2 3326   3.861   1.103   2.662
 1121TIP3    H1 3327   3.782   1.066   2.702
 1121TIP3    H2 3328   3.932   1.049   2.695
 1122TIP3   OH2 3329   1.938   0.941   2.481
 1122TIP3    H1 3330   1.986   0.988   2.413
 1122TIP3    H2 3331   1.900   0.865   2.435
 1123TIP3   OH2 3332   2.903   6.720   0.880
 1123TIP3    H1 3333   2.947   6.799   0.911
 1123TIP3    H2 3334   2.913   6.658   0.953
 1124TIP3   OH2 3335   1.849   1.285   1.908
 1124TIP3    H1 3336   1.842   1.346   1.835
 1124TIP3    H2 3337   1.939   1.253   1.904
 1125TIP3   OH2 3338   0.757   0.252   4.022
 1125TIP3    H1 3339   0.814   0.303   3.965
 1125TIP3    H2 3340   0.802   0.252   4.107
 1126TIP3   OH2 3341   2.790   4.835   1.889
 1126TIP3    H1 3342   2.808   4.929   1.895
 1126TIP3    H2 3343   2.867   4.798   1.847
 1127TIP3   OH2 3344   1.213   5.741   5.799
 1127TIP3    H1 3345   1.275   5.672   5.775
 1127TIP3    H2 3346   1.175   5.769   5.716
 1128TIP3   OH2 3347   2.112   1.741   5.702
 1128TIP3    H1 3348   2.098   1.833   5.678
 1128TIP3    H2 3349   2.194   1.717   5.660
 1129TIP3   OH2 3350   2.552   1.428   3.207
 1129TIP3    H1 3351   2.506   1.507   3.235
 1129TIP3    H2 3352   2.486   1.374   3.165
 1130TIP3   OH2 3353   1.196   1.114   3.415
 1130TIP3    H1 3354   1.231   1.202   3.431
 1130TIP3    H2 3355   1.194   1.106   3.320
 1131TIP3   OH2 3356   4.845   4.049   0.869
 1131TIP3    H1 3357   4.934   4.026   0.895
 1131TIP3    H2 3358   4.793   4.042   0.949
 1132TIP3   OH2 3359   1.768   4.814   4.284
 1132TIP3    H1 3360   1.835   4.746   4.275
 1132TIP3    H2 3361   1.687   4.766   4.302
 1133TIP3   OH2 3362   0.986   5.165   1.906
 1133TIP3    H1 3363   0.972   5.099   1.838
 1133TIP3    H2 3364   0.963   5.248   1.865
 1134TIP3   OH2 3365   0.401   4.247   4.521
 1134TIP3    H1 3366   0.425   4.196   4.445
 1134TIP3    H2 3367   0.439   4.334   4.505
 1135TIP3   OH2 3368   3.690   4.740   2.634
 1135TIP3    H1 3369   3.645   4.798   2.573
 1135TIP3    H2 3370   3.746   4.686   2.578
 1136TIP3   OH2 3371   1.912   1.427   5.384
 1136TIP3    H1 3372   1.955   1.466   5.461
 1136TIP3    H2 3373   1.900   1.335   5.407
 1137TIP3   OH2 3374   2.925   6.306   0.777
 1137TIP3    H1 3375   3.011   6.314   0.735
 1137TIP3    H2 3376   2.863   6.322   0.706
 1138TIP3   OH2 3377   3.043   6.141   4.436
 1138TIP3    H1 3378   2.961   6.191   4.444
 1138TIP3    H2 3379   3.063   6.116   4.526
 1139TIP3   OH2 3380   0.645   1.600   5.754
 1139TIP3    H1 3381   0.649   1.680   5.806
 1139TIP3    H2 3382   0.559   1.563   5.773
 1140TIP3   OH2 3383   5.896   0.548   1.313
 1140TIP3    H1 3384   5.853   0.505   1.387
 1140TIP3    H2 3385   5.936   0.477   1.263
 1141TIP3   OH2 3386   2.111   3.462   4.315
 1141TIP3    H1 3387   2.148   3.445   4.401
 1141TIP3    H2 3388   2.162   3.408   4.255
 1142TIP3   OH2 3389   4.943   4.818   4.981
 1142TIP3    H1 3390   4.919   4.845   5.070
 1142TIP3    H2 3391   5.016   4.757   4.994
 1143TIP3   OH2 3392   1.931   0.364   5.147
 1143TIP3    H1 3393   1.861   0.339   5.086
 1143TIP3    H2 3394   1.942   0.288   5.204
 1144TIP3   OH2 3395   5.408   3.355   0.633
 1144TIP3    H1 3396   5.314   3.370   0.642
 1144TIP3    H2 3397   5.448   3.433   0.673
 1145TIP3   OH2 3398   6.012   5.252   5.850
 1145TIP3    H1 3399   5.997   5.346   5.840
 1145TIP3    H2 3400   6.012   5.217   5.761
 1146TIP3   OH2 3401   5.422   0.029   1.746
 1146TIP3    H1 3402   5.456  -0.009   1.665
 1146TIP3    H2 3403   5.354  -0.032   1.775
 1147TIP3   OH2 3404   1.143   5.836   4.582
 1147TIP3    H1 3405   1.174   5.774   4.516
 1147TIP3    H2 3406   1.132   5.783   4.661
 1148TIP3   OH2 3407   4.167   5.018   1.641
 1148TIP3    H1 3408   4.152   4.962   1.718
 1148TIP3    H2 3409   4.184   5.104   1.678
 1149TIP3   OH2 3410   2.006   4.446   3.601
 1149TIP3    H1 3411   1.964   4.377   3.551
 1149TIP3    H2 3412   1.934   4.498   3.637
 1150TIP3   OH2 3413   3.989   6.200   3.724
 1150TIP3    H1 3414   3.903   6.189   3.766
 1150TIP3    H2 3415   4.002   6.119   3.674
 1151TIP3   OH2 3416   4.715   5.689   5.865
 1151TIP3    H1 3417   4.683   5.600   5.846
 1151TIP3    H2 3418   4.680   5.709   5.952
 1152TIP3   OH2 3419   3.292   4.653   2.768
 1152TIP3    H1 3420   3.274   4.561   2.747
 1152TIP3    H2 3421   3.226   4.702   2.720
 1153TIP3   OH2 3422   0.642   2.665   1.823
 1153TIP3    H1 3423   0.675   2.755   1.818
 1153TIP3    H2 3424   0.647   2.634   1.732
 1154TIP3   OH2 3425   6.209   0.676   1.862
 1154TIP3    H1 3426   6.246   0.661   1.775
 1154TIP3    H2 3427   6.279   0.722   1.909
 1155TIP3   OH2 3428   4.220   4.910   0.926
 1155TIP3    H1 3429   4.160   4.843   0.894
 1155TIP3    H2 3430   4.259   4.946   0.847
 1156TIP3   OH2 3431   6.462   3.225   1.349
 1156TIP3    H1 3432   6.513   3.265   1.419
 1156TIP3    H2 3433   6.526   3.173   1.300
 1157TIP3   OH2 3434   1.401   1.505   1.165
 1157TIP3    H1 3435   1.471   1.570   1.167
 1157TIP3    H2 3436   1.363   1.512   1.077
 1158TIP3   OH2 3437   4.980   6.781   3.738
 1158TIP3    H1 3438   4.997   6.851   3.800
 1158TIP3    H2 3439   4.885   6.782   3.724
 1159TIP3   OH2 3440   2.550   5.050   1.806
 1159TIP3    H1 3441   2.465   5.082   1.777
 1159TIP3    H2 3442   2.530   4.973   1.859
 1160TIP3   OH2 3443   4.020   0.027   3.680
 1160TIP3    H1 3444   4.112   0.045   3.660
 1160TIP3    H2 3445   3.973   0.047   3.599
 1161TIP3   OH2 3446   4.736   2.337   2.975
 1161TIP3    H1 3447   4.793   2.379   3.040
 1161TIP3    H2 3448   4.658   2.392   2.972
 1162TIP3   OH2 3449   6.619   2.147   3.851
 1162TIP3    H1 3450   6.685   2.193   3.903
 1162TIP3    H2 3451   6.595   2.071   3.905
 1163TIP3   OH2 3452   3.385   6.345   3.436
 1163TIP3    H1 3453   3.480   6.334   3.434
 1163TIP3    H2 3454   3.371   6.427   3.484
 1164TIP3   OH2 3455   3.418   4.656   4.826
 1164TIP3    H1 3456   3.351   4.721   4.807
 1164TIP3    H2 3457   3.371   4.585   4.870
 1165TIP3   OH2 3458   2.892   3.107   0.232
 1165TIP3    H1 3459   2.899   3.027   0.180
 1165TIP3    H2 3460   2.798   3.127   0.235
 1166TIP3   OH2 3461   5.660   3.387   5.648
 1166TIP3    H1 3462   5.698   3.374   5.735
 1166TIP3    H2 3463   5.735   3.385   5.589
 1167TIP3   OH2 3464   4.850   4.737   5.559
 1167TIP3    H1 3465   4.769   4.740   5.509
 1167TIP3    H2 3466   4.822   4.718   5.649
 1168TIP3   OH2 3467   0.107   2.485   5.696
 1168TIP3    H1 3468   0.159   2.405   5.707
 1168TIP3    H2 3469   0.105   2.523   5.784
 1169TIP3   OH2 3470   3.304   1.560   4.740
 1169TIP3    H1 3471   3.358   1.483   4.724
 1169TIP3    H2 3472   3.362   1.634   4.721
 1170TIP3   OH2 3473   6.198   5.666   2.056
 1170TIP3    H1 3474   6.278   5.671   2.109
 1170TIP3    H2 3475   6.206   5.738   1.993
 1171TIP3   OH2 3476   4.905   6.162   1.548
 1171TIP3    H1 3477   4.934   6.253   1.541
 1171TIP3    H2 3478   4.819   6.167   1.590
 1172TIP3   OH2 3479   4.988   0.337   2.226
 1172TIP3    H1 3480   4.971   0.294   2.310
 1172TIP3    H2 3481   4.904   0.334   2.180
 1173TIP3   OH2 3482   0.950   4.420   2.722
 1173TIP3    H1 3483   0.914   4.442   2.637
 1173TIP3    H2 3484   0.876   4.383   2.771
 1174TIP3   OH2 3485   3.316   6.769   5.712
 1174TIP3    H1 3486   3.276   6.838   5.764
 1174TIP3    H2 3487   3.242   6.725   5.669
 1175TIP3   OH2 3488   1.846   0.391   3.608
 1175TIP3    H1 3489   1.916   0.437   3.562
 1175TIP3    H2 3490   1.881   0.374   3.695
 1176TIP3   OH2 3491   5.077   3.158   4.166
 1176TIP3    H1 3492   5.106   3.068   4.178
 1176TIP3    H2 3493   5.125   3.190   4.090
 1177TIP3   OH2 3494   7.062   1.776   5.208
 1177TIP3    H1 3495   7.015   1.769   5.292
 1177TIP3    H2 3496   7.039   1.864   5.176
 1178TIP3   OH2 3497   4.600   2.319   2.529
 1178TIP3    H1 3498   4.687   2.352   2.549
 1178TIP3    H2 3499   4.608   2.279   2.443
 1179TIP3   OH2 3500   2.652   4.078   2.420
 1179TIP3    H1 3501   2.720   4.040   2.475
 1179TIP3    H2 3502   2.659   4.172   2.433
 1180TIP3   OH2 3503   5.525   6.394   0.278
 1180TIP3    H1 3504   5.521   6.355   0.191
 1180TIP3    H2 3505   5.618   6.409   0.293
 1181TIP3   OH2 3506   5.413   2.335   0.268
 1181TIP3    H1 3507   5.337   2.337   0.325
 1181TIP3    H2 3508   5.441   2.426   0.261
 1182TIP3   OH2 3509   1.202   5.336   1.585
 1182TIP3    H1 3510   1.209   5.428   1.610
 1182TIP3    H2 3511   1.183   5.338   1.491
 1183TIP3   OH2 3512   2.525   3.865   0.756
 1183TIP3    H1 3513   2.620   3.860   0.755
 1183TIP3    H2 3514   2.497   3.804   0.687
 1184TIP3   OH2 3515   1.983   1.283   1.498
 1184TIP3    H1 3516   2.067   1.268   1.455
 1184TIP3    H2 3517   1.986   1.374   1.528
 1185TIP3   OH2 3518   6.319   3.002   1.913
 1185TIP3    H1 3519   6.281   3.059   1.980
 1185TIP3    H2 3520   6.337   2.920   1.960
 1186TIP3   OH2 3521   6.408   5.584   1.081
 1186TIP3    H1 3522   6.467   5.512   1.058
 1186TIP3    H2 3523   6.321   5.542   1.088
 1187TIP3   OH2 3524   6.287   4.884   1.318
 1187TIP3    H1 3525   6.196   4.907   1.336
 1187TIP3    H2 3526   6.332   4.893   1.402
 1188TIP3   OH2 3527   6.125   3.431   2.934
 1188TIP3    H1 3528   6.203   3.446   2.881
 1188TIP3    H2 3529   6.122   3.336   2.946
 1189TIP3   OH2 3530   5.990   0.830   1.095
 1189TIP3    H1 3531   5.974   0.917   1.132
 1189TIP3    H2 3532   6.067   0.798   1.141
 1190TIP3   OH2 3533   6.137   6.754   2.079
 1190TIP3    H1 3534   6.073   6.691   2.112
 1190TIP3    H2 3535   6.177   6.791   2.158
 1191TIP3   OH2 3536   4.741   1.041   4.292
 1191TIP3    H1 3537   4.769   1.126   4.327
 1191TIP3    H2 3538   4.763   0.979   4.362
 1192TIP3   OH2 3539   6.478   4.776   2.134
 1192TIP3    H1 3540   6.451   4.698   2.085
 1192TIP3    H2 3541   6.569   4.790   2.110
 1193TIP3   OH2 3542   6.744   3.101   2.956
 1193TIP3    H1 3543   6.673   3.037   2.952
 1193TIP3    H2 3544   6.728   3.149   3.036
 1194TIP3   OH2 3545   3.234   2.696   1.789
 1194TIP3    H1 3546   3.250   2.602   1.778
 1194TIP3    H2 3547   3.321   2.736   1.787
 1195TIP3   OH2 3548   4.920   6.192   3.494
 1195TIP3    H1 3549   4.903   6.112   3.445
 1195TIP3    H2 3550   4.834   6.222   3.523
 1196TIP3   OH2 3551   6.408   4.848   3.271
 1196TIP3    H1 3552   6.396   4.937   3.304
 1196TIP3    H2 3553   6.489   4.852   3.219
 1197TIP3   OH2 3554   1.894   0.571   4.876
 1197TIP3    H1 3555   1.927   0.642   4.821
 1197TIP3    H2 3556   1.906   0.602   4.965
 1198TIP3   OH2 3557   4.212   5.490   3.165
 1198TIP3    H1 3558   4.219   5.538   3.248
 1198TIP3    H2 3559   4.127   5.516   3.130
 1199TIP3   OH2 3560   5.694   4.782   1.693
 1199TIP3    H1 3561   5.715   4.800   1.784
 1199TIP3    H2 3562   5.770   4.812   1.644
 1200TIP3   OH2 3563   1.692   1.138   2.071
 1200TIP3    H1 3564   1.713   1.166   2.160
 1200TIP3    H2 3565   1.755   1.185   2.016
 1201TIP3   OH2 3566   3.974   4.943   3.678
 1201TIP3    H1 3567   3.925   5.022   3.700
 1201TIP3    H2 3568   4.002   4.907   3.762
 1202TIP3   OH2 3569   6.673   1.964   1.069
 1202TIP3    H1 3570   6.720   2.014   1.002
 1202TIP3    H2 3571   6.706   1.998   1.152
 1203TIP3   OH2 3572   4.342   0.447   5.203
 1203TIP3    H1 3573   4.414   0.397   5.240
 1203TIP3    H2 3574   4.267   0.387   5.204
 1204TIP3   OH2 3575   5.008   4.923   3.204
 1204TIP3    H1 3576   5.006   4.988   3.134
 1204TIP3    H2 3577   4.918   4.892   3.211
 1205TIP3   OH2 3578   4.830   0.280   0.246
 1205TIP3    H1 3579   4.771   0.223   0.295
 1205TIP3    H2 3580   4.803   0.368   0.269
 1206TIP3   OH2 3581   3.895   2.367   4.335
 1206TIP3    H1 3582   3.839   2.343   4.410
 1206TIP3    H2 3583   3.857   2.320   4.261
 1207TIP3   OH2 3584   3.882   3.601   4.021
 1207TIP3    H1 3585   3.846   3.557   4.097
 1207TIP3    H2 3586   3.904   3.689   4.052
 1208TIP3   OH2 3587   5.216   2.167   2.026
 1208TIP3    H1 3588   5.283   2.113   2.067
 1208TIP3    H2 3589   5.261   2.207   1.951
 1209TIP3   OH2 3590   4.521   5.275   2.738
 1209TIP3    H1 3591   4.596   5.230   2.700
 1209TIP3    H2 3592   4.506   5.230   2.821
 1210TIP3   OH2 3593   1.375   6.304   3.846
 1210TIP3    H1 3594   1.298   6.357   3.862
 1210TIP3    H2 3595   1.358   6.221   3.891
 1211TIP3   OH2 3596   1.908   2.338   2.174
 1211TIP3    H1 3597   2.003   2.351   2.170
 1211TIP3    H2 3598   1.896   2.270   2.241
 1212TIP3   OH2 3599   0.780   5.695   1.093
 1212TIP3    H1 3600   0.780   5.676   0.999
 1212TIP3    H2 3601   0.688   5.691   1.118
 1213TIP3   OH2 3602   4.418   3.603   0.267
 1213TIP3    H1 3603   4.394   3.604   0.360
 1213TIP3    H2 3604   4.472   3.524   0.257
 1214TIP3   OH2 3605   1.813   6.067   2.328
 1214TIP3    H1 3606   1.749   6.016   2.379
 1214TIP3    H2 3607   1.793   6.046   2.237
 1215TIP3   OH2 3608   5.918   4.493   1.692
 1215TIP3    H1 3609   6.004   4.499   1.733
 1215TIP3    H2 3610   5.919   4.561   1.624
 1216TIP3   OH2 3611   2.411   1.753   1.859
 1216TIP3    H1 3612   2.416   1.832   1.913
 1216TIP3    H2 3613   2.498   1.714   1.864
 1217TIP3   OH2 3614   6.033   0.938   0.786
 1217TIP3    H1 3615   6.061   0.926   0.876
 1217TIP3    H2 3616   6.045   0.852   0.745
 1218TIP3   OH2 3617   6.453   0.772   2.342
 1218TIP3    H1 3618   6.456   0.836   2.413
 1218TIP3    H2 3619   6.540   0.779   2.301
 1219TIP3   OH2 3620   4.716   1.371   4.700
 1219TIP3    H1 3621   4.697   1.450   4.650
 1219TIP3    H2 3622   4.632   1.344   4.736
 1220TIP3   OH2 3623   5.126   1.930   1.916
 1220TIP3    H1 3624   5.083   1.928   1.830
 1220TIP3    H2 3625   5.137   2.023   1.935
 1221TIP3   OH2 3626   4.724   1.360   5.078
 1221TIP3    H1 3627   4.637   1.382   5.112
 1221TIP3    H2 3628   4.710   1.282   5.026
 1222TIP3   OH2 3629   5.122   3.327   3.934
 1222TIP3    H1 3630   5.073   3.408   3.919
 1222TIP3    H2 3631   5.186   3.325   3.864
 1223TIP3   OH2 3632   1.900   1.138   5.523
 1223TIP3    H1 3633   1.847   1.149   5.603
 1223TIP3    H2 3634   1.983   1.180   5.544
 1224TIP3   OH2 3635   5.944   2.019   3.393
 1224TIP3    H1 3636   5.963   1.938   3.441
 1224TIP3    H2 3637   6.028   2.044   3.354
 1225TIP3   OH2 3638   6.563   6.665   2.942
 1225TIP3    H1 3639   6.487   6.695   2.992
 1225TIP3    H2 3640   6.598   6.592   2.993
 1226TIP3   OH2 3641   5.087   4.386   4.626
 1226TIP3    H1 3642   5.176   4.413   4.652
 1226TIP3    H2 3643   5.030   4.451   4.666
 1227TIP3   OH2 3644   7.021   4.064   0.113
 1227TIP3    H1 3645   7.007   3.999   0.043
 1227TIP3    H2 3646   7.042   4.145   0.066
 1228TIP3   OH2 3647   6.528   6.674   5.238
 1228TIP3    H1 3648   6.508   6.601   5.296
 1228TIP3    H2 3649   6.586   6.637   5.172
 1229TIP3   OH2 3650   5.118   6.369   2.152
 1229TIP3    H1 3651   5.171   6.289   2.153
 1229TIP3    H2 3652   5.032   6.340   2.121
 1230TIP3   OH2 3653   4.218   1.640   5.032
 1230TIP3    H1 3654   4.231   1.674   5.120
 1230TIP3    H2 3655   4.246   1.711   4.974
 1231TIP3   OH2 3656   3.537   2.710   2.309
 1231TIP3    H1 3657   3.573   2.798   2.314
 1231TIP3    H2 3658   3.471   2.707   2.379
 1232TIP3   OH2 3659   1.994   3.401   0.454
 1232TIP3    H1 3660   1.908   3.386   0.493
 1232TIP3    H2 3661   1.988   3.360   0.368
 1233TIP3   OH2 3662   5.812   3.830   2.420
 1233TIP3    H1 3663   5.820   3.752   2.474
 1233TIP3    H2 3664   5.719   3.837   2.400
 1234TIP3   OH2 3665   6.390   1.120   4.145
 1234TIP3    H1 3666   6.317   1.083   4.194
 1234TIP3    H2 3667   6.350   1.171   4.076
 1235TIP3   OH2 3668   5.892   6.776   2.441
 1235TIP3    H1 3669   5.874   6.851   2.385
 1235TIP3    H2 3670   5.806   6.751   2.476
 1236TIP3   OH2 3671   0.475   2.231   2.634
 1236TIP3    H1 3672   0.538   2.175   2.680
 1236TIP3    H2 3673   0.529   2.297   2.591
 1237TIP3   OH2 3674   2.008   6.235   5.235
 1237TIP3    H1 3675   1.927   6.279   5.260
 1237TIP3    H2 3676   2.066   6.246   5.311
 1238TIP3   OH2 3677   2.152   1.994   1.207
 1238TIP3    H1 3678   2.065   2.033   1.220
 1238TIP3    H2 3679   2.136   1.918   1.151
 1239TIP3   OH2 3680   5.548   4.637   2.622
 1239TIP3    H1 3681   5.641   4.648   2.603
 1239TIP3    H2 3682   5.544   4.558   2.676
 1240TIP3   OH2 3683   2.610   2.720   5.130
 1240TIP3    H1 3684   2.564   2.799   5.103
 1240TIP3    H2 3685   2.541   2.654   5.141
 1241TIP3   OH2 3686   1.266   0.299   2.101
 1241TIP3    H1 3687   1.280   0.391   2.125
 1241TIP3    H2 3688   1.248   0.301   2.007
 1242TIP3   OH2 3689   5.743   4.655   4.512
 1242TIP3    H1 3690   5.776   4.569   4.483
 1242TIP3    H2 3691   5.728   4.644   4.606
 1243TIP3   OH2 3692   4.337   3.832   3.307
 1243TIP3    H1 3693   4.250   3.796   3.323
 1243TIP3    H2 3694   4.383   3.763   3.260
 1244TIP3   OH2 3695   1.766   0.164   3.425
 1244TIP3    H1 3696   1.779   0.210   3.507
 1244TIP3    H2 3697   1.703   0.095   3.446
 1245TIP3   OH2 3698   3.840   0.693   1.606
 1245TIP3    H1 3699   3.922   0.681   1.656
 1245TIP3    H2 3700   3.782   0.625   1.640
 1246TIP3   OH2 3701   1.393   3.511   2.987
 1246TIP3    H1 3702   1.382   3.565   2.909
 1246TIP3    H2 3703   1.425   3.571   3.054
 1247TIP3   OH2 3704   0.702   4.006   5.167
 1247TIP3    H1 3705   0.674   3.915   5.160
 1247TIP3    H2 3706   0.621   4.056   5.168
 1248TIP3   OH2 3707   0.637   1.172   3.847
 1248TIP3    H1 3708   0.629   1.125   3.764
 1248TIP3    H2 3709   0.707   1.127   3.894
 1249TIP3   OH2 3710   6.754   3.168   4.191
 1249TIP3    H1 3711   6.736   3.261   4.205
 1249TIP3    H2 3712   6.706   3.124   4.261
 1250TIP3   OH2 3713   3.412   3.746   0.668
 1250TIP3    H1 3714   3.475   3.677   0.689
 1250TIP3    H2 3715   3.369   3.766   0.751
 1251TIP3   OH2 3716   0.340   5.679   5.863
 1251TIP3    H1 3717   0.341   5.620   5.938
 1251TIP3    H2 3718   0.255   5.723   5.868
 1252TIP3   OH2 3719   4.757   6.545   3.819
 1252TIP3    H1 3720   4.695   6.499   3.877
 1252TIP3    H2 3721   4.702   6.581   3.749
 1253TIP3   OH2 3722   4.548   6.361   0.941
 1253TIP3    H1 3723   4.487   6.405   0.881
 1253TIP3    H2 3724   4.588   6.292   0.888
 1254TIP3   OH2 3725   4.304   0.520   5.462
 1254TIP3    H1 3726   4.311   0.522   5.366
 1254TIP3    H2 3727   4.367   0.453   5.489
 1255TIP3   OH2 3728   3.899   1.094   3.365
 1255TIP3    H1 3729   3.976   1.149   3.377
 1255TIP3    H2 3730   3.835   1.151   3.323
 1256TIP3   OH2 3731   1.400   4.304   1.060
 1256TIP3    H1 3732   1.347   4.356   0.999
 1256TIP3    H2 3733   1.473   4.361   1.084
 1257TIP3   OH2 3734   1.414   4.254   4.329
 1257TIP3    H1 3735   1.493   4.229   4.377
 1257TIP3    H2 3736   1.432   4.230   4.238
 1258TIP3   OH2 3737   0.880   5.692   3.944
 1258TIP3    H1 3738   0.846   5.740   3.869
 1258TIP3    H2 3739   0.876   5.755   4.017
 1259TIP3   OH2 3740   5.507   2.165   4.268
 1259TIP3    H1 3741   5.564   2.087   4.263
 1259TIP3    H2 3742   5.551   2.230   4.213
 1260TIP3   OH2 3743   5.056   2.142   3.484
 1260TIP3    H1 3744   5.143   2.137   3.522
 1260TIP3    H2 3745   5.049   2.233   3.453
 1261TIP3   OH2 3746   4.430   6.634   5.764
 1261TIP3    H1 3747   4.391   6.550   5.740
 1261TIP3    H2 3748   4.410   6.692   5.690
 1262TIP3   OH2 3749   1.372   0.178   2.873
 1262TIP3    H1 3750   1.329   0.177   2.788
 1262TIP3    H2 3751   1.360   0.268   2.905
 1263TIP3   OH2 3752   3.813   4.497   1.028
 1263TIP3    H1 3753   3.727   4.523   0.995
 1263TIP3    H2 3754   3.871   4.569   1.000
 1264TIP3   OH2 3755   5.491   5.607   5.204
 1264TIP3    H1 3756   5.489   5.644   5.115
 1264TIP3    H2 3757   5.454   5.676   5.259
 1265TIP3   OH2 3758   6.810   0.797   3.083
 1265TIP3    H1 3759   6.725   0.841   3.087
 1265TIP3    H2 3760   6.856   0.840   3.011
 1266TIP3   OH2 3761   3.264   3.966   1.790
 1266TIP3    H1 3762   3.233   4.031   1.727
 1266TIP3    H2 3763   3.185   3.919   1.818
 1267TIP3   OH2 3764   4.167   0.371   1.203
 1267TIP3    H1 3765   4.261   0.368   1.222
 1267TIP3    H2 3766   4.152   0.456   1.164
 1268TIP3   OH2 3767   4.835   5.955   3.360
 1268TIP3    H1 3768   4.849   5.889   3.427
 1268TIP3    H2 3769   4.752   5.930   3.319
 1269TIP3   OH2 3770   1.033   5.147   4.299
 1269TIP3    H1 3771   1.000   5.062   4.326
 1269TIP3    H2 3772   0.974   5.210   4.340
 1270TIP3   OH2 3773   0.655   3.466   3.215
 1270TIP3    H1 3774   0.587   3.519   3.256
 1270TIP3    H2 3775   0.674   3.511   3.132
 1271TIP3   OH2 3776   1.251   1.200   0.678
 1271TIP3    H1 3777   1.309   1.161   0.612
 1271TIP3    H2 3778   1.163   1.182   0.645
 1272TIP3   OH2 3779   1.168   6.281   4.816
 1272TIP3    H1 3780   1.218   6.232   4.752
 1272TIP3    H2 3781   1.080   6.286   4.779
 1273TIP3   OH2 3782   2.947   4.646   0.714
 1273TIP3    H1 3783   2.998   4.665   0.793
 1273TIP3    H2 3784   2.992   4.571   0.674
 1274TIP3   OH2 3785   2.135   4.985   2.852
 1274TIP3    H1 3786   2.107   5.071   2.883
 1274TIP3    H2 3787   2.198   4.954   2.918
 1275TIP3   OH2 3788   2.985   1.923   0.674
 1275TIP3    H1 3789   2.916   1.884   0.728
 1275TIP3    H2 3790   3.005   1.855   0.609
 1276TIP3   OH2 3791   2.711   4.305   4.784
 1276TIP3    H1 3792   2.664   4.241   4.730
 1276TIP3    H2 3793   2.684   4.390   4.749
 1277TIP3   OH2 3794   4.436   0.154   4.747
 1277TIP3    H1 3795   4.400   0.215   4.810
 1277TIP3    H2 3796   4.496   0.206   4.694
 1278TIP3   OH2 3797   5.743   4.731   4.243
 1278TIP3    H1 3798   5.730   4.826   4.243
 1278TIP3    H2 3799   5.765   4.709   4.333
 1279TIP3   OH2 3800   3.769   1.766   2.112
 1279TIP3    H1 3801   3.702   1.813   2.062
 1279TIP3    H2 3802   3.730   1.681   2.130
 1280TIP3   OH2 3803   4.443   6.185   3.195
 1280TIP3    H1 3804   4.410   6.183   3.285
 1280TIP3    H2 3805   4.393   6.255   3.153
 1281TIP3   OH2 3806   3.101   4.761   5.833
 1281TIP3    H1 3807   3.011   4.794   5.830
 1281TIP3    H2 3808   3.114   4.737   5.925
 1282TIP3   OH2 3809   2.282   2.404   0.545
 1282TIP3    H1 3810   2.365   2.451   0.548
 1282TIP3    H2 3811   2.217   2.471   0.524
 1283TIP3   OH2 3812   3.047   3.775   4.532
 1283TIP3    H1 3813   3.017   3.687   4.558
 1283TIP3    H2 3814   2.975   3.809   4.479
 1284TIP3   OH2 3815   2.021   4.881   3.452
 1284TIP3    H1 3816   2.085   4.816   3.483
 1284TIP3    H2 3817   1.957   4.830   3.403
 1285TIP3   OH2 3818   1.015   0.647   4.105
 1285TIP3    H1 3819   1.058   0.664   4.021
 1285TIP3    H2 3820   0.922   0.639   4.083
 1286TIP3   OH2 3821   1.386   6.058   5.772
 1286TIP3    H1 3822   1.349   6.056   5.684
 1286TIP3    H2 3823   1.481   6.061   5.757
 1287TIP3   OH2 3824   4.304   6.356   2.492
 1287TIP3    H1 3825   4.302   6.274   2.541
 1287TIP3    H2 3826   4.354   6.335   2.413
 1288TIP3   OH2 3827   3.585   5.530   2.796
 1288TIP3    H1 3828   3.617   5.491   2.715
 1288TIP3    H2 3829   3.604   5.624   2.786
 1289TIP3   OH2 3830   3.416   6.698   2.023
 1289TIP3    H1 3831   3.394   6.687   2.116
 1289TIP3    H2 3832   3.473   6.774   2.020
 1290TIP3   OH2 3833   2.349   2.679   0.913
 1290TIP3    H1 3834   2.268   2.716   0.947
 1290TIP3    H2 3835   2.333   2.585   0.910
 1291TIP3   OH2 3836   1.407   5.087   2.713
 1291TIP3    H1 3837   1.435   5.117   2.627
 1291TIP3    H2 3838   1.326   5.038   2.696
 1292TIP3   OH2 3839   0.320   0.810   1.421
 1292TIP3    H1 3840   0.259   0.793   1.349
 1292TIP3    H2 3841   0.344   0.902   1.411
 1293TIP3   OH2 3842   3.908   4.318   1.679
 1293TIP3    H1 3843   3.864   4.233   1.680
 1293TIP3    H2 3844   3.836   4.381   1.689
 1294TIP3   OH2 3845   5.354   1.479   5.785
 1294TIP3    H1 3846   5.339   1.571   5.805
 1294TIP3    H2 3847   5.267   1.441   5.778
 1295TIP3   OH2 3848   2.890   6.492   1.508
 1295TIP3    H1 3849   2.828   6.564   1.495
 1295TIP3    H2 3850   2.834   6.415   1.525
 1296TIP3   OH2 3851   6.019   3.790   2.872
 1296TIP3    H1 3852   6.094   3.754   2.920
 1296TIP3    H2 3853   5.959   3.819   2.940
 1297TIP3   OH2 3854   4.540   3.702   3.624
 1297TIP3    H1 3855   4.455   3.670   3.595
 1297TIP3    H2 3856   4.522   3.755   3.702
 1298TIP3   OH2 3857   4.827   2.052   3.738
 1298TIP3    H1 3858   4.920   2.031   3.733
 1298TIP3    H2 3859   4.782   1.968   3.732
 1299TIP3   OH2 3860   2.662   3.963   0.156
 1299TIP3    H1 3861   2.733   4.025   0.141
 1299TIP3    H2 3862   2.591   4.017   0.192
 1300TIP3   OH2 3863   2.430   3.776   5.586
 1300TIP3    H1 3864   2.438   3.785   5.491
 1300TIP3    H2 3865   2.363   3.709   5.598
 1301TIP3   OH2 3866   4.095   6.789   5.609
 1301TIP3    H1 3867   4.120   6.775   5.518
 1301TIP3    H2 3868   4.113   6.705   5.652
 1302TIP3   OH2 3869   3.174   1.639   0.036
 1302TIP3    H1 3870   3.225   1.633  -0.045
 1302TIP3    H2 3871   3.084   1.618   0.009
 1303TIP3   OH2 3872   5.183   1.653   4.359
 1303TIP3    H1 3873   5.108   1.704   4.327
 1303TIP3    H2 3874   5.180   1.572   4.308
 1304TIP3   OH2 3875   3.083   2.171   0.781
 1304TIP3    H1 3876   3.052   2.088   0.744
 1304TIP3    H2 3877   3.003   2.218   0.803
 1305TIP3   OH2 3878   0.361   3.972   3.383
 1305TIP3    H1 3879   0.268   3.959   3.399
 1305TIP3    H2 3880   0.365   4.014   3.297
 1306TIP3   OH2 3881   6.066   2.826   4.883
 1306TIP3    H1 3882   6.038   2.765   4.952
 1306TIP3    H2 3883   6.154   2.797   4.860
 1307TIP3   OH2 3884   0.337   5.966   0.559
 1307TIP3    H1 3885   0.259   5.924   0.595
 1307TIP3    H2 3886   0.331   6.057   0.588
 1308TIP3   OH2 3887   7.024   1.895   2.077
 1308TIP3    H1 3888   6.938   1.861   2.100
 1308TIP3    H2 3889   7.062   1.828   2.021
 1309TIP3   OH2 3890   3.142   1.532   4.085
 1309TIP3    H1 3891   3.061   1.483   4.090
 1309TIP3    H2 3892   3.200   1.491   4.149
 1310TIP3   OH2 3893   5.283   6.242   5.382
 1310TIP3    H1 3894   5.209   6.296   5.355
 1310TIP3    H2 3895   5.285   6.170   5.320
 1311TIP3   OH2 3896   6.629   0.751   4.929
 1311TIP3    H1 3897   6.721   0.754   4.955
 1311TIP3    H2 3898   6.588   0.693   4.993
 1312TIP3   OH2 3899   2.649   4.441   4.265
 1312TIP3    H1 3900   2.621   4.526   4.299
 1312TIP3    H2 3901   2.703   4.462   4.189
 1313TIP3   OH2 3902   6.715   2.091   0.491
 1313TIP3    H1 3903   6.794   2.112   0.442
 1313TIP3    H2 3904   6.692   2.172   0.536
 1314TIP3   OH2 3905   0.688   4.181   0.573
 1314TIP3    H1 3906   0.658   4.122   0.503
 1314TIP3    H2 3907   0.767   4.140   0.608
 1315TIP3   OH2 3908   6.697   5.219   4.344
 1315TIP3    H1 3909   6.726   5.131   4.367
 1315TIP3    H2 3910   6.608   5.226   4.380
 1316TIP3   OH2 3911   2.483   4.450   2.197
 1316TIP3    H1 3912   2.517   4.479   2.113
 1316TIP3    H2 3913   2.452   4.360   2.180
 1317TIP3   OH2 3914   4.316   3.266   2.146
 1317TIP3    H1 3915   4.407   3.270   2.115
 1317TIP3    H2 3916   4.270   3.331   2.093
 1318TIP3   OH2 3917   6.599   0.259   2.011
 1318TIP3    H1 3918   6.612   0.227   2.100
 1318TIP3    H2 3919   6.613   0.182   1.956
 1319TIP3   OH2 3920   2.696   0.094   3.088
 1319TIP3    H1 3921   2.656   0.038   3.155
 1319TIP3    H2 3922   2.746   0.034   3.033
 1320TIP3   OH2 3923   1.841   3.692   1.311
 1320TIP3    H1 3924   1.779   3.687   1.384
 1320TIP3    H2 3925   1.917   3.738   1.348
 1321TIP3   OH2 3926   1.692   1.432   5.603
 1321TIP3    H1 3927   1.681   1.421   5.509
 1321TIP3    H2 3928   1.777   1.476   5.612
 1322TIP3   OH2 3929   5.840   5.486   0.672
 1322TIP3    H1 3930   5.866   5.431   0.746
 1322TIP3    H2 3931   5.807   5.567   0.711
 1323TIP3   OH2 3932   3.931   1.780   5.524
 1323TIP3    H1 3933   3.967   1.713   5.465
 1323TIP3    H2 3934   3.917   1.856   5.467
 1324TIP3   OH2 3935   1.872   6.622   0.242
 1324TIP3    H1 3936   1.919   6.561   0.299
 1324TIP3    H2 3937   1.809   6.665   0.300
 1325TIP3   OH2 3938   1.983   0.826   4.805
 1325TIP3    H1 3939   1.968   0.849   4.897
 1325TIP3    H2 3940   1.961   0.906   4.756
 1326TIP3   OH2 3941   0.054   4.009   3.793
 1326TIP3    H1 3942  -0.002   3.997   3.870
 1326TIP3    H2 3943   0.079   3.921   3.767
 1327TIP3   OH2 3944   4.417   6.512   1.696
 1327TIP3    H1 3945   4.430   6.528   1.789
 1327TIP3    H2 3946   4.474   6.438   1.676
 1328TIP3   OH2 3947   3.543   6.681   5.818
 1328TIP3    H1 3948   3.454   6.704   5.792
 1328TIP3    H2 3949   3.590   6.764   5.815
 1329TIP3   OH2 3950   6.531   1.826   2.041
 1329TIP3    H1 3951   6.526   1.804   1.948
 1329TIP3    H2 3952   6.480   1.758   2.084
 1330TIP3   OH2 3953   2.175   6.695   4.507
 1330TIP3    H1 3954   2.176   6.687   4.603
 1330TIP3    H2 3955   2.089   6.662   4.481
 1331TIP3   OH2 3956   0.746   2.669   3.752
 1331TIP3    H1 3957   0.662   2.700   3.787
 1331TIP3    H2 3958   0.758   2.719   3.671
 1332TIP3   OH2 3959   1.560   2.196   0.487
 1332TIP3    H1 3960   1.543   2.255   0.414
 1332TIP3    H2 3961   1.484   2.137   0.488
 1333TIP3   OH2 3962   5.492   6.112   0.170
 1333TIP3    H1 3963   5.564   6.080   0.225
 1333TIP3    H2 3964   5.475   6.040   0.109
 1334TIP3   OH2 3965   3.298   1.864   4.090
 1334TIP3    H1 3966   3.352   1.793   4.055
 1334TIP3    H2 3967   3.258   1.827   4.168
 1335TIP3   OH2 3968   4.924   0.818   2.008
 1335TIP3    H1 3969   5.016   0.798   2.025
 1335TIP3    H2 3970   4.916   0.912   2.024
 1336TIP3   OH2 3971   7.095   5.123   5.411
 1336TIP3    H1 3972   7.153   5.050   5.390
 1336TIP3    H2 3973   7.144   5.176   5.474
 1337TIP3   OH2 3974   4.312   6.345   5.768
 1337TIP3    H1 3975   4.407   6.336   5.764
 1337TIP3    H2 3976   4.279   6.257   5.754
 1338TIP3   OH2 3977   3.007   3.330   0.902
 1338TIP3    H1 3978   3.066   3.262   0.934
 1338TIP3    H2 3979   2.970   3.369   0.981
 1339TIP3   OH2 3980   0.146   0.856   2.966
 1339TIP3    H1 3981   0.095   0.825   3.040
 1339TIP3    H2 3982   0.139   0.952   2.971
 1340TIP3   OH2 3983   3.260   4.441   1.830
 1340TIP3    H1 3984   3.284   4.443   1.737
 1340TIP3    H2 3985   3.187   4.502   1.837
 1341TIP3   OH2 3986   1.451   0.732   1.704
 1341TIP3    H1 3987   1.489   0.772   1.625
 1341TIP3    H2 3988   1.447   0.803   1.767
 1342TIP3   OH2 3989   3.727   2.830   2.098
 1342TIP3    H1 3990   3.645   2.868   2.064
 1342TIP3    H2 3991   3.736   2.867   2.186
 1343TIP3   OH2 3992   1.005   3.462   2.786
 1343TIP3    H1 3993   1.073   3.408   2.828
 1343TIP3    H2 3994   0.943   3.398   2.750
 1344TIP3   OH2 3995   5.922   0.248   0.843
 1344TIP3    H1 3996   5.899   0.219   0.932
 1344TIP3    H2 3997   6.017   0.259   0.846
 1345TIP3   OH2 3998   1.516   6.750   5.162
 1345TIP3    H1 3999   1.520   6.684   5.232
 1345TIP3    H2 4000   1.598   6.799   5.171
 1346TIP3   OH2 4001   6.592   0.672   0.378
 1346TIP3    H1 4002   6.569   0.579   0.372
 1346TIP3    H2 4003   6.548   0.712   0.303
 1347TIP3   OH2 4004   4.131   2.317   1.427
 1347TIP3    H1 4005   4.106   2.285   1.513
 1347TIP3    H2 4006   4.120   2.242   1.369
 1348TIP3   OH2 4007   1.762   0.688   2.818
 1348TIP3    H1 4008   1.734   0.637   2.742
 1348TIP3    H2 4009   1.796   0.769   2.781
 1349TIP3   OH2 4010   4.480   2.980   5.761
 1349TIP3    H1 4011   4.460   2.921   5.834
 1349TIP3    H2 4012   4.550   3.036   5.794
 1350TIP3   OH2 4013   4.604   4.417   3.141
 1350TIP3    H1 4014   4.597   4.507   3.111
 1350TIP3    H2 4015   4.552   4.414   3.221
 1351TIP3   OH2 4016   5.954   0.540   0.479
 1351TIP3    H1 4017   6.046   0.555   0.502
 1351TIP3    H2 4018   5.905   0.574   0.554
 1352TIP3   OH2 4019   4.121   1.884   3.035
 1352TIP3    H1 4020   4.156   1.824   3.101
 1352TIP3    H2 4021   4.057   1.937   3.081
 1353TIP3   OH2 4022   5.161   6.506   4.332
 1353TIP3    H1 4023   5.096   6.466   4.273
 1353TIP3    H2 4024   5.186   6.435   4.391
 1354TIP3   OH2 4025   1.549   0.694   2.184
 1354TIP3    H1 4026   1.551   0.784   2.219
 1354TIP3    H2 4027   1.576   0.704   2.093
 1355TIP3   OH2 4028   3.254   3.153   0.082
 1355TIP3    H1 4029   3.197   3.194   0.017
 1355TIP3    H2 4030   3.272   3.066   0.046
 1356TIP3   OH2 4031   1.642   1.777   0.899
 1356TIP3    H1 4032   1.674   1.799   0.812
 1356TIP3    H2 4033   1.675   1.688   0.915
 1357TIP3   OH2 4034   4.152   1.153   2.399
 1357TIP3    H1 4035   4.079   1.166   2.338
 1357TIP3    H2 4036   4.211   1.226   2.380
 1358TIP3   OH2 4037   4.626   1.552   2.550
 1358TIP3    H1 4038   4.548   1.603   2.526
 1358TIP3    H2 4039   4.591   1.473   2.591
 1359TIP3   OH2 4040   6.540   1.374   2.915
 1359TIP3    H1 4041   6.590   1.295   2.895
 1359TIP3    H2 4042   6.450   1.352   2.892
 1360TIP3   OH2 4043   1.745   2.270   0.227
 1360TIP3    H1 4044   1.649   2.268   0.233
 1360TIP3    H2 4045   1.765   2.224   0.146
 1361TIP3   OH2 4046   1.019   1.723   0.945
 1361TIP3    H1 4047   1.079   1.666   0.897
 1361TIP3    H2 4048   1.010   1.800   0.889
 1362TIP3   OH2 4049   6.777   0.054   3.295
 1362TIP3    H1 4050   6.826  -0.015   3.251
 1362TIP3    H2 4051   6.760   0.119   3.226
 1363TIP3   OH2 4052   2.474   4.571   5.501
 1363TIP3    H1 4053   2.403   4.630   5.476
 1363TIP3    H2 4054   2.453   4.488   5.458
 1364TIP3   OH2 4055   5.279   4.452   1.416
 1364TIP3    H1 4056   5.339   4.384   1.386
 1364TIP3    H2 4057   5.193   4.424   1.384
 1365TIP3   OH2 4058   4.260   3.080   5.643
 1365TIP3    H1 4059   4.319   3.009   5.669
 1365TIP3    H2 4060   4.318   3.152   5.619
 1366TIP3   OH2 4061   0.838   6.731   0.753
 1366TIP3    H1 4062   0.808   6.657   0.701
 1366TIP3    H2 4063   0.792   6.807   0.716
 1367TIP3   OH2 4064   3.942   0.573   1.340
 1367TIP3    H1 4065   4.005   0.637   1.306
 1367TIP3    H2 4066   3.922   0.603   1.428
 1368TIP3   OH2 4067   0.126   2.606   1.958
 1368TIP3    H1 4068   0.165   2.523   1.929
 1368TIP3    H2 4069   0.174   2.628   2.038
 1369TIP3   OH2 4070   5.377   3.015   2.446
 1369TIP3    H1 4071   5.314   2.946   2.428
 1369TIP3    H2 4072   5.462   2.977   2.420
 1370TIP3   OH2 4073   7.121   0.495   0.026
 1370TIP3    H1 4074   7.128   0.481  -0.069
 1370TIP3    H2 4075   7.037   0.457   0.050
 1371TIP3   OH2 4076   1.823   5.521   4.214
 1371TIP3    H1 4077   1.809   5.539   4.307
 1371TIP3    H2 4078   1.784   5.597   4.169
 1372TIP3   OH2 4079   1.122   2.176   1.836
 1372TIP3    H1 4080   1.215   2.197   1.823
 1372TIP3    H2 4081   1.111   2.089   1.797
 1373TIP3   OH2 4082   0.688   6.024   1.216
 1373TIP3    H1 4083   0.594   6.043   1.216
 1373TIP3    H2 4084   0.716   6.041   1.126
 1374TIP3   OH2 4085   6.354   5.273   5.040
 1374TIP3    H1 4086   6.405   5.348   5.071
 1374TIP3    H2 4087   6.268   5.309   5.019
 1375TIP3   OH2 4088   0.545   1.736   4.103
 1375TIP3    H1 4089   0.566   1.688   4.183
 1375TIP3    H2 4090   0.565   1.827   4.124
 1376TIP3   OH2 4091   0.149   5.533   3.084
 1376TIP3    H1 4092   0.095   5.507   3.009
 1376TIP3    H2 4093   0.213   5.594   3.047
 1377TIP3   OH2 4094   3.815   2.635   2.299
 1377TIP3    H1 4095   3.720   2.644   2.286
 1377TIP3    H2 4096   3.853   2.657   2.214
 1378TIP3   OH2 4097   4.006   5.912   1.608
 1378TIP3    H1 4098   3.924   5.954   1.634
 1378TIP3    H2 4099   4.057   5.908   1.689
 1379TIP3   OH2 4100   7.179   2.511   4.695
 1379TIP3    H1 4101   7.177   2.443   4.762
 1379TIP3    H2 4102   7.125   2.477   4.624
 1380TIP3   OH2 4103   1.384   2.403   2.464
 1380TIP3    H1 4104   1.445   2.360   2.404
 1380TIP3    H2 4105   1.324   2.333   2.491
 1381TIP3   OH2 4106   1.040   0.489   1.860
 1381TIP3    H1 4107   1.129   0.523   1.846
 1381TIP3    H2 4108   0.983   0.562   1.836
 1382TIP3   OH2 4109   4.859   1.363   2.962
 1382TIP3    H1 4110   4.784   1.388   3.016
 1382TIP3    H2 4111   4.820   1.333   2.879
 1383TIP3   OH2 4112   6.879   4.486   0.882
 1383TIP3    H1 4113   6.879   4.467   0.788
 1383TIP3    H2 4114   6.912   4.406   0.923
 1384TIP3   OH2 4115   3.329   0.617   1.385
 1384TIP3    H1 4116   3.423   0.616   1.364
 1384TIP3    H2 4117   3.287   0.649   1.305
 1385TIP3   OH2 4118   0.224   2.102   4.373
 1385TIP3    H1 4119   0.307   2.150   4.374
 1385TIP3    H2 4120   0.249   2.010   4.373
 1386TIP3   OH2 4121   4.711   1.558   3.150
 1386TIP3    H1 4122   4.648   1.630   3.147
 1386TIP3    H2 4123   4.740   1.556   3.242
 1387TIP3   OH2 4124   6.672   3.360   2.295
 1387TIP3    H1 4125   6.652   3.393   2.382
 1387TIP3    H2 4126   6.761   3.392   2.278
 1388TIP3   OH2 4127   1.335   0.833   4.638
 1388TIP3    H1 4128   1.262   0.892   4.659
 1388TIP3    H2 4129   1.342   0.775   4.714
 1389TIP3   OH2 4130   0.443   0.548   1.843
 1389TIP3    H1 4131   0.419   0.592   1.925
 1389TIP3    H2 4132   0.458   0.619   1.781
 1390TIP3   OH2 4133   6.133   4.311   4.616
 1390TIP3    H1 4134   6.177   4.323   4.700
 1390TIP3    H2 4135   6.072   4.239   4.631
 1391TIP3   OH2 4136   0.007   6.079   2.428
 1391TIP3    H1 4137  -0.030   6.002   2.383
 1391TIP3    H2 4138  -0.067   6.139   2.438
 1392TIP3   OH2 4139   4.866   2.649   0.792
 1392TIP3    H1 4140   4.837   2.652   0.883
 1392TIP3    H2 4141   4.876   2.740   0.766
 1393TIP3   OH2 4142   2.626   3.744   1.849
 1393TIP3    H1 4143   2.706   3.760   1.900
 1393TIP3    H2 4144   2.613   3.825   1.800
 1394TIP3   OH2 4145   0.961   4.281   0.415
 1394TIP3    H1 4146   0.962   4.193   0.453
 1394TIP3    H2 4147   0.925   4.269   0.327
 1395TIP3   OH2 4148   5.757   2.660   5.529
 1395TIP3    H1 4149   5.719   2.597   5.468
 1395TIP3    H2 4150   5.689   2.728   5.539
 1396TIP3   OH2 4151   1.999   2.202   2.406
 1396TIP3    H1 4152   2.086   2.165   2.396
 1396TIP3    H2 4153   1.951   2.139   2.459
 1397TIP3   OH2 4154   6.535   4.486   3.044
 1397TIP3    H1 4155   6.508   4.423   2.977
 1397TIP3    H2 4156   6.465   4.482   3.109
 1398TIP3   OH2 4157   5.082   0.580   1.604
 1398TIP3    H1 4158   5.128   0.524   1.541
 1398TIP3    H2 4159   5.086   0.532   1.687
 1399TIP3   OH2 4160   6.562   5.427   2.022
 1399TIP3    H1 4161   6.542   5.340   1.989
 1399TIP3    H2 4162   6.639   5.454   1.972
 1400TIP3   OH2 4163   5.966   4.218   2.096
 1400TIP3    H1 4164   5.897   4.152   2.100
 1400TIP3    H2 4165   5.926   4.293   2.053
 1401TIP3   OH2 4166   3.084   1.123   5.220
 1401TIP3    H1 4167   3.023   1.193   5.243
 1401TIP3    H2 4168   3.029   1.054   5.183
 1402TIP3   OH2 4169   4.010   4.023   4.286
 1402TIP3    H1 4170   4.054   4.073   4.355
 1402TIP3    H2 4171   4.054   3.938   4.286
 1403TIP3   OH2 4172   6.443   3.626   4.472
 1403TIP3    H1 4173   6.430   3.656   4.382
 1403TIP3    H2 4174   6.364   3.577   4.493
 1404TIP3   OH2 4175   1.213   3.306   2.578
 1404TIP3    H1 4176   1.133   3.357   2.585
 1404TIP3    H2 4177   1.184   3.217   2.557
 1405TIP3   OH2 4178   6.174   2.387   0.263
 1405TIP3    H1 4179   6.146   2.437   0.186
 1405TIP3    H2 4180   6.147   2.440   0.338
 1406TIP3   OH2 4181   5.558   4.875   4.546
 1406TIP3    H1 4182   5.527   4.896   4.458
 1406TIP3    H2 4183   5.625   4.808   4.533
 1407TIP3   OH2 4184   0.754   1.189   5.382
 1407TIP3    H1 4185   0.831   1.160   5.431
 1407TIP3    H2 4186   0.680   1.161   5.435
 1408TIP3   OH2 4187   5.128   2.765   3.871
 1408TIP3    H1 4188   5.129   2.859   3.856
 1408TIP3    H2 4189   5.058   2.752   3.935
 1409TIP3   OH2 4190   0.257   6.061   3.608
 1409TIP3    H1 4191   0.346   6.035   3.631
 1409TIP3    H2 4192   0.221   5.986   3.561
 1410TIP3   OH2 4193   0.884   3.668   3.908
 1410TIP3    H1 4194   0.838   3.586   3.927
 1410TIP3    H2 4195   0.816   3.727   3.876
 1411TIP3   OH2 4196   6.646   0.806   3.735
 1411TIP3    H1 4197   6.655   0.871   3.805
 1411TIP3    H2 4198   6.735   0.787   3.708
 1412TIP3   OH2 4199   1.979   1.518   5.645
 1412TIP3    H1 4200   1.984   1.497   5.739
 1412TIP3    H2 4201   2.039   1.592   5.634
 1413TIP3   OH2 4202   5.896   5.807   0.286
 1413TIP3    H1 4203   5.952   5.736   0.318
 1413TIP3    H2 4204   5.815   5.764   0.260
 1414TIP3   OH2 4205   5.447   6.748   1.623
 1414TIP3    H1 4206   5.431   6.655   1.610
 1414TIP3    H2 4207   5.537   6.762   1.594
 1415TIP3   OH2 4208   2.352   2.563   2.671
 1415TIP3    H1 4209   2.419   2.622   2.636
 1415TIP3    H2 4210   2.286   2.558   2.602
 1416TIP3   OH2 4211   4.718   0.881   1.671
 1416TIP3    H1 4212   4.803   0.858   1.633
 1416TIP3    H2 4213   4.735   0.962   1.719
 1417TIP3   OH2 4214   1.810   0.967   5.314
 1417TIP3    H1 4215   1.834   1.022   5.387
 1417TIP3    H2 4216   1.847   0.881   5.335
 1418TIP3   OH2 4217   2.697   5.431   5.148
 1418TIP3    H1 4218   2.603   5.416   5.158
 1418TIP3    H2 4219   2.704   5.523   5.124
 1419TIP3   OH2 4220   2.119   1.664   3.163
 1419TIP3    H1 4221   2.066   1.626   3.093
 1419TIP3    H2 4222   2.103   1.759   3.157
 1420TIP3   OH2 4223   6.429   5.725   2.230
 1420TIP3    H1 4224   6.397   5.647   2.275
 1420TIP3    H2 4225   6.396   5.798   2.282
 1421TIP3   OH2 4226   2.637   5.383   2.508
 1421TIP3    H1 4227   2.683   5.388   2.424
 1421TIP3    H2 4228   2.702   5.349   2.569
 1422TIP3   OH2 4229   3.010   4.334   5.252
 1422TIP3    H1 4230   2.920   4.306   5.235
 1422TIP3    H2 4231   3.000   4.418   5.296
 1423TIP3   OH2 4232   0.147   3.716   4.036
 1423TIP3    H1 4233   0.154   3.625   4.064
 1423TIP3    H2 4234   0.226   3.731   3.985
 1424TIP3   OH2 4235   3.951   3.038   1.608
 1424TIP3    H1 4236   4.006   3.115   1.593
 1424TIP3    H2 4237   4.003   2.964   1.577
 1425TIP3   OH2 4238   3.560   3.739   0.286
 1425TIP3    H1 4239   3.562   3.662   0.343
 1425TIP3    H2 4240   3.514   3.711   0.208
 1426TIP3   OH2 4241   0.915   0.689   4.514
 1426TIP3    H1 4242   0.956   0.726   4.592
 1426TIP3    H2 4243   0.883   0.764   4.465
 1427TIP3   OH2 4244   6.745   4.436   4.050
 1427TIP3    H1 4245   6.714   4.346   4.053
 1427TIP3    H2 4246   6.700   4.479   4.123
 1428TIP3   OH2 4247   6.708   5.823   0.236
 1428TIP3    H1 4248   6.763   5.865   0.171
 1428TIP3    H2 4249   6.691   5.735   0.201
 1429TIP3   OH2 4250   5.317   0.604   5.315
 1429TIP3    H1 4251   5.369   0.646   5.246
 1429TIP3    H2 4252   5.279   0.527   5.273
 1430TIP3   OH2 4253   0.636   0.890   2.172
 1430TIP3    H1 4254   0.681   0.809   2.196
 1430TIP3    H2 4255   0.692   0.960   2.205
 1431TIP3   OH2 4256   4.856   0.762   5.080
 1431TIP3    H1 4257   4.914   0.714   5.139
 1431TIP3    H2 4258   4.769   0.751   5.118
 1432TIP3   OH2 4259   0.946   0.197   0.094
 1432TIP3    H1 4260   0.897   0.273   0.125
 1432TIP3    H2 4261   1.021   0.235   0.047
 1433TIP3   OH2 4262   5.195   6.600   1.093
 1433TIP3    H1 4263   5.193   6.553   1.176
 1433TIP3    H2 4264   5.179   6.533   1.026
 1434TIP3   OH2 4265   3.379   2.310   1.483
 1434TIP3    H1 4266   3.408   2.398   1.508
 1434TIP3    H2 4267   3.460   2.261   1.468
 1435TIP3   OH2 4268   5.117   2.225   1.221
 1435TIP3    H1 4269   5.142   2.179   1.141
 1435TIP3    H2 4270   5.111   2.157   1.288
 1436TIP3   OH2 4271   2.717   5.277   0.162
 1436TIP3    H1 4272   2.669   5.303   0.084
 1436TIP3    H2 4273   2.690   5.340   0.229
 1437TIP3   OH2 4274   4.826   5.766   3.635
 1437TIP3    H1 4275   4.742   5.740   3.598
 1437TIP3    H2 4276   4.803   5.819   3.711
 1438TIP3   OH2 4277   1.057   3.116   4.261
 1438TIP3    H1 4278   1.144   3.134   4.297
 1438TIP3    H2 4279   1.069   3.119   4.166
 1439TIP3   OH2 4280   3.224   3.594   5.327
 1439TIP3    H1 4281   3.160   3.523   5.322
 1439TIP3    H2 4282   3.308   3.549   5.341
 1440TIP3   OH2 4283   3.836   6.338   2.930
 1440TIP3    H1 4284   3.909   6.368   2.876
 1440TIP3    H2 4285   3.866   6.256   2.968
 1441TIP3   OH2 4286   3.547   4.909   3.123
 1441TIP3    H1 4287   3.473   4.900   3.063
 1441TIP3    H2 4288   3.564   4.820   3.154
 1442TIP3   OH2 4289   1.869   0.625   3.055
 1442TIP3    H1 4290   1.952   0.670   3.045
 1442TIP3    H2 4291   1.815   0.657   2.982
 1443TIP3   OH2 4292   7.077   3.519   5.607
 1443TIP3    H1 4293   7.106   3.454   5.671
 1443TIP3    H2 4294   7.049   3.594   5.661
 1444TIP3   OH2 4295   2.998   0.675   4.730
 1444TIP3    H1 4296   2.981   0.765   4.705
 1444TIP3    H2 4297   3.074   0.680   4.788
 1445TIP3   OH2 4298   4.758   0.776   4.487
 1445TIP3    H1 4299   4.784   0.704   4.544
 1445TIP3    H2 4300   4.695   0.826   4.539
 1446TIP3   OH2 4301   5.437   5.042   5.419
 1446TIP3    H1 4302   5.344   5.061   5.435
 1446TIP3    H2 4303   5.449   4.953   5.453
 1447TIP3   OH2 4304   3.023   0.704   0.178
 1447TIP3    H1 4305   3.020   0.735   0.087
 1447TIP3    H2 4306   3.039   0.783   0.230
 1448TIP3   OH2 4307   4.597   0.929   4.674
 1448TIP3    H1 4308   4.638   1.004   4.629
 1448TIP3    H2 4309   4.507   0.929   4.643
 1449TIP3   OH2 4310   3.986   5.812   0.203
 1449TIP3    H1 4311   4.019   5.887   0.253
 1449TIP3    H2 4312   3.935   5.761   0.266
 1450TIP3   OH2 4313   4.248   3.883   2.690
 1450TIP3    H1 4314   4.271   3.847   2.776
 1450TIP3    H2 4315   4.158   3.855   2.675
 1451TIP3   OH2 4316   5.967   3.295   3.874
 1451TIP3    H1 4317   5.913   3.262   3.947
 1451TIP3    H2 4318   5.929   3.380   3.854
 1452TIP3   OH2 4319   0.936   4.496   4.348
 1452TIP3    H1 4320   0.882   4.418   4.358
 1452TIP3    H2 4321   1.020   4.463   4.316
 1453TIP3   OH2 4322   0.143   3.643   0.630
 1453TIP3    H1 4323   0.230   3.605   0.619
 1453TIP3    H2 4324   0.159   3.727   0.674
 1454TIP3   OH2 4325   6.086   5.001   3.210
 1454TIP3    H1 4326   6.168   5.031   3.249
 1454TIP3    H2 4327   6.096   5.018   3.116
 1455TIP3   OH2 4328   1.951   3.324   0.826
 1455TIP3    H1 4329   1.912   3.371   0.752
 1455TIP3    H2 4330   1.876   3.294   0.878
 1456TIP3   OH2 4331   2.550   1.337   5.650
 1456TIP3    H1 4332   2.499   1.324   5.730
 1456TIP3    H2 4333   2.491   1.310   5.579
 1457TIP3   OH2 4334   6.423   4.261   4.312
 1457TIP3    H1 4335   6.388   4.205   4.243
 1457TIP3    H2 4336   6.393   4.349   4.290
 1458TIP3   OH2 4337   1.179   0.200   3.463
 1458TIP3    H1 4338   1.242   0.162   3.401
 1458TIP3    H2 4339   1.108   0.136   3.467
 1459TIP3   OH2 4340   1.698   2.668   3.023
 1459TIP3    H1 4341   1.620   2.650   3.076
 1459TIP3    H2 4342   1.707   2.763   3.025
 1460TIP3   OH2 4343   4.991   1.207   3.453
 1460TIP3    H1 4344   4.937   1.133   3.424
 1460TIP3    H2 4345   4.928   1.270   3.488
 1461TIP3   OH2 4346   4.348   5.670   2.976
 1461TIP3    H1 4347   4.360   5.694   2.884
 1461TIP3    H2 4348   4.260   5.702   2.998
 1462TIP3   OH2 4349   1.330   3.645   3.698
 1462TIP3    H1 4350   1.335   3.594   3.779
 1462TIP3    H2 4351   1.415   3.634   3.657
 1463TIP3   OH2 4352   3.460   3.742   5.611
 1463TIP3    H1 4353   3.528   3.795   5.570
 1463TIP3    H2 4354   3.508   3.672   5.656
 1464TIP3   OH2 4355   1.400   3.737   4.348
 1464TIP3    H1 4356   1.437   3.820   4.320
 1464TIP3    H2 4357   1.329   3.760   4.408
 1465TIP3   OH2 4358   1.883   6.201   0.531
 1465TIP3    H1 4359   1.805   6.205   0.475
 1465TIP3    H2 4360   1.854   6.234   0.615
 1466TIP3   OH2 4361   4.576   2.017   3.022
 1466TIP3    H1 4362   4.550   2.074   3.094
 1466TIP3    H2 4363   4.597   2.077   2.950
 1467TIP3   OH2 4364   1.477   1.838   2.564
 1467TIP3    H1 4365   1.444   1.903   2.503
 1467TIP3    H2 4366   1.423   1.760   2.548
 1468TIP3   OH2 4367   1.618   2.942   1.349
 1468TIP3    H1 4368   1.565   2.883   1.295
 1468TIP3    H2 4369   1.594   2.920   1.439
 1469TIP3   OH2 4370   6.201   0.729   0.604
 1469TIP3    H1 4371   6.220   0.815   0.567
 1469TIP3    H2 4372   6.211   0.669   0.530
 1470TIP3   OH2 4373   4.516   3.151   3.865
 1470TIP3    H1 4374   4.489   3.233   3.824
 1470TIP3    H2 4375   4.612   3.149   3.855
 1471TIP3   OH2 4376   4.872   6.248   2.052
 1471TIP3    H1 4377   4.796   6.262   1.995
 1471TIP3    H2 4378   4.909   6.165   2.023
 1472TIP3   OH2 4379   5.444   6.646   2.683
 1472TIP3    H1 4380   5.360   6.608   2.658
 1472TIP3    H2 4381   5.451   6.627   2.777
 1473TIP3   OH2 4382   3.996   1.993   1.702
 1473TIP3    H1 4383   3.907   1.957   1.700
 1473TIP3    H2 4384   4.011   2.026   1.613
 1474TIP3   OH2 4385   4.890   1.661   4.562
 1474TIP3    H1 4386   4.801   1.694   4.548
 1474TIP3    H2 4387   4.919   1.634   4.475
 1475TIP3   OH2 4388   3.586   1.036   2.190
 1475TIP3    H1 4389   3.584   0.972   2.119
 1475TIP3    H2 4390   3.678   1.062   2.196
 1476TIP3   OH2 4391   1.937   2.490   2.995
 1476TIP3    H1 4392   1.848   2.519   3.016
 1476TIP3    H2 4393   1.984   2.570   2.974
 1477TIP3   OH2 4394   4.796   4.524   1.825
 1477TIP3    H1 4395   4.781   4.618   1.828
 1477TIP3    H2 4396   4.870   4.513   1.765
 1478TIP3   OH2 4397   0.708   4.627   5.744
 1478TIP3    H1 4398   0.650   4.572   5.796
 1478TIP3    H2 4399   0.672   4.715   5.752
 1479TIP3   OH2 4400   6.775   1.845   2.177
 1479TIP3    H1 4401   6.685   1.837   2.145
 1479TIP3    H2 4402   6.775   1.926   2.229
 1480TIP3   OH2 4403   2.062   3.164   3.857
 1480TIP3    H1 4404   1.993   3.160   3.790
 1480TIP3    H2 4405   2.130   3.105   3.825
 1481TIP3   OH2 4406   4.113   4.896   3.912
 1481TIP3    H1 4407   4.208   4.908   3.914
 1481TIP3    H2 4408   4.084   4.919   4.001
 1482TIP3   OH2 4409   1.996   6.654   1.775
 1482TIP3    H1 4410   2.071   6.654   1.833
 1482TIP3    H2 4411   1.980   6.562   1.755
 1483TIP3   OH2 4412   6.869   1.339   1.355
 1483TIP3    H1 4413   6.941   1.376   1.406
 1483TIP3    H2 4414   6.880   1.244   1.364
 1484TIP3   OH2 4415   5.522   0.652   1.116
 1484TIP3    H1 4416   5.452   0.668   1.053
 1484TIP3    H2 4417   5.598   0.629   1.063
 1485TIP3   OH2 4418   4.829   4.049   5.715
 1485TIP3    H1 4419   4.897   4.072   5.777
 1485TIP3    H2 4420   4.876   4.022   5.636
 1486TIP3   OH2 4421   5.673   1.792   1.027
 1486TIP3    H1 4422   5.744   1.771   0.967
 1486TIP3    H2 4423   5.649   1.709   1.066
 1487TIP3   OH2 4424   0.582   1.575   0.596
 1487TIP3    H1 4425   0.589   1.537   0.684
 1487TIP3    H2 4426   0.536   1.658   0.608
 1488TIP3   OH2 4427   4.321   0.492   0.246
 1488TIP3    H1 4428   4.320   0.537   0.331
 1488TIP3    H2 4429   4.309   0.563   0.182
 1489TIP3   OH2 4430   1.682   1.471   3.976
 1489TIP3    H1 4431   1.667   1.507   4.063
 1489TIP3    H2 4432   1.775   1.445   3.977
 1490TIP3   OH2 4433   4.734   5.489   2.524
 1490TIP3    H1 4434   4.750   5.395   2.536
 1490TIP3    H2 4435   4.710   5.521   2.611
 1491TIP3   OH2 4436   5.976   3.835   3.178
 1491TIP3    H1 4437   5.970   3.740   3.173
 1491TIP3    H2 4438   6.066   3.852   3.208
 1492TIP3   OH2 4439   6.483   1.160   4.412
 1492TIP3    H1 4440   6.422   1.147   4.340
 1492TIP3    H2 4441   6.537   1.081   4.413
 1493TIP3   OH2 4442   1.783   4.229   0.786
 1493TIP3    H1 4443   1.858   4.279   0.755
 1493TIP3    H2 4444   1.775   4.251   0.878
 1494TIP3   OH2 4445   2.977   1.224   3.081
 1494TIP3    H1 4446   2.944   1.273   3.156
 1494TIP3    H2 4447   2.965   1.283   3.007
 1495TIP3   OH2 4448   4.892   0.399   5.024
 1495TIP3    H1 4449   4.912   0.472   5.082
 1495TIP3    H2 4450   4.865   0.328   5.082
 1496TIP3   OH2 4451   3.820   5.175   3.746
 1496TIP3    H1 4452   3.743   5.167   3.803
 1496TIP3    H2 4453   3.787   5.219   3.667
 1497TIP3   OH2 4454   3.336   0.905   5.083
 1497TIP3    H1 4455   3.291   0.981   5.046
 1497TIP3    H2 4456   3.332   0.919   5.178
 1498TIP3   OH2 4457   7.073   2.311   3.706
 1498TIP3    H1 4458   7.074   2.385   3.645
 1498TIP3    H2 4459   7.162   2.307   3.740
 1499TIP3   OH2 4460   6.327   2.299   0.883
 1499TIP3    H1 4461   6.344   2.303   0.789
 1499TIP3    H2 4462   6.410   2.322   0.924
 1500TIP3   OH2 4463   5.615   5.817   5.481
 1500TIP3    H1 4464   5.529   5.849   5.453
 1500TIP3    H2 4465   5.611   5.821   5.577
 1501TIP3   OH2 4466   5.192   5.277   1.705
 1501TIP3    H1 4467   5.181   5.185   1.727
 1501TIP3    H2 4468   5.115   5.299   1.653
 1502TIP3   OH2 4469   0.069   3.414   1.350
 1502TIP3    H1 4470   0.042   3.493   1.302
 1502TIP3    H2 4471   0.036   3.428   1.438
 1503TIP3   OH2 4472   4.978   6.441   4.148
 1503TIP3    H1 4473   5.038   6.469   4.079
 1503TIP3    H2 4474   4.931   6.367   4.110
 1504TIP3   OH2 4475   2.453   4.065   1.275
 1504TIP3    H1 4476   2.518   4.013   1.227
 1504TIP3    H2 4477   2.462   4.036   1.366
 1505TIP3   OH2 4478   5.331   4.069   2.627
 1505TIP3    H1 4479   5.301   3.982   2.599
 1505TIP3    H2 4480   5.271   4.093   2.698
 1506TIP3   OH2 4481   4.639   2.175   2.774
 1506TIP3    H1 4482   4.709   2.118   2.744
 1506TIP3    H2 4483   4.681   2.236   2.834
 1507TIP3   OH2 4484   1.894   6.448   4.253
 1507TIP3    H1 4485   1.807   6.471   4.219
 1507TIP3    H2 4486   1.903   6.500   4.333
 1508TIP3   OH2 4487   3.511   4.364   3.782
 1508TIP3    H1 4488   3.460   4.329   3.710
 1508TIP3    H2 4489   3.487   4.309   3.857
 1509TIP3   OH2 4490   4.557   4.919   5.655
 1509TIP3    H1 4491   4.496   4.886   5.721
 1509TIP3    H2 4492   4.507   4.986   5.608
 1510TIP3   OH2 4493   0.119   1.096   0.596
 1510TIP3    H1 4494   0.178   1.061   0.664
 1510TIP3    H2 4495   0.081   1.174   0.635
 1511TIP3   OH2 4496   4.180   5.618   4.759
 1511TIP3    H1 4497   4.213   5.697   4.717
 1511TIP3    H2 4498   4.166   5.557   4.686
 1512TIP3   OH2 4499   2.022   2.290   1.339
 1512TIP3    H1 4500   1.990   2.200   1.335
 1512TIP3    H2 4501   2.064   2.297   1.425
 1513TIP3   OH2 4502   4.075   2.459   0.175
 1513TIP3    H1 4503   3.988   2.427   0.198
 1513TIP3    H2 4504   4.132   2.424   0.244
 1514TIP3   OH2 4505   6.171   2.451   3.573
 1514TIP3    H1 4506   6.263   2.423   3.569
 1514TIP3    H2 4507   6.146   2.436   3.664
 1515TIP3   OH2 4508   3.590   5.551   4.629
 1515TIP3    H1 4509   3.517   5.538   4.690
 1515TIP3    H2 4510   3.649   5.478   4.645
 1516TIP3   OH2 4511   3.787   0.232   0.190
 1516TIP3    H1 4512   3.771   0.325   0.175
 1516TIP3    H2 4513   3.877   0.227   0.220
 1517TIP3   OH2 4514   0.930   5.896   3.507
 1517TIP3    H1 4515   1.014   5.902   3.554
 1517TIP3    H2 4516   0.945   5.944   3.426
 1518TIP3   OH2 4517   3.714   5.601   5.546
 1518TIP3    H1 4518   3.747   5.517   5.515
 1518TIP3    H2 4519   3.753   5.611   5.633
 1519TIP3   OH2 4520   6.496   0.521   2.126
 1519TIP3    H1 4521   6.524   0.449   2.070
 1519TIP3    H2 4522   6.419   0.486   2.172
 1520TIP3   OH2 4523   1.248   0.909   3.007
 1520TIP3    H1 4524   1.306   0.894   2.933
 1520TIP3    H2 4525   1.302   0.890   3.084
 1521TIP3   OH2 4526   7.207   1.492   3.119
 1521TIP3    H1 4527   7.277   1.522   3.176
 1521TIP3    H2 4528   7.161   1.426   3.170
 1522TIP3   OH2 4529   4.431   3.302   5.577
 1522TIP3    H1 4530   4.520   3.283   5.605
 1522TIP3    H2 4531   4.415   3.391   5.608
 1523TIP3   OH2 4532   0.006   3.619   0.235
 1523TIP3    H1 4533  -0.033   3.706   0.227
 1523TIP3    H2 4534  -0.055   3.571   0.292
 1524TIP3   OH2 4535   5.364   6.396   4.010
 1524TIP3    H1 4536   5.458   6.381   4.021
 1524TIP3    H2 4537   5.325   6.364   4.092
 1525TIP3   OH2 4538   5.783   3.111   1.536
 1525TIP3    H1 4539   5.772   3.017   1.522
 1525TIP3    H2 4540   5.779   3.149   1.449
 1526TIP3   OH2 4541   3.277   6.662   3.168
 1526TIP3    H1 4542   3.187   6.633   3.184
 1526TIP3    H2 4543   3.288   6.738   3.225
 1527TIP3   OH2 4544   4.982   2.379   1.481
 1527TIP3    H1 4545   5.075   2.399   1.489
 1527TIP3    H2 4546   4.967   2.307   1.542
 1528TIP3   OH2 4547   7.130   4.529   3.354
 1528TIP3    H1 4548   7.219   4.516   3.387
 1528TIP3    H2 4549   7.099   4.608   3.399
 1529TIP3   OH2 4550   1.722   0.869   1.774
 1529TIP3    H1 4551   1.814   0.893   1.785
 1529TIP3    H2 4552   1.674   0.950   1.791
 1530TIP3   OH2 4553   1.399   2.866   5.227
 1530TIP3    H1 4554   1.315   2.903   5.197
 1530TIP3    H2 4555   1.443   2.938   5.271
 1531TIP3   OH2 4556   3.441   2.525   2.149
 1531TIP3    H1 4557   3.486   2.596   2.197
 1531TIP3    H2 4558   3.365   2.504   2.203
 1532TIP3   OH2 4559   1.087   5.756   2.608
 1532TIP3    H1 4560   1.167   5.707   2.628
 1532TIP3    H2 4561   1.089   5.830   2.668
 1533TIP3   OH2 4562   6.652   0.860   4.540
 1533TIP3    H1 4563   6.737   0.818   4.554
 1533TIP3    H2 4564   6.605   0.801   4.481
 1534TIP3   OH2 4565   2.411   6.035   4.390
 1534TIP3    H1 4566   2.351   6.109   4.377
 1534TIP3    H2 4567   2.498   6.071   4.376
 1535TIP3   OH2 4568   3.647   4.134   5.016
 1535TIP3    H1 4569   3.633   4.096   5.103
 1535TIP3    H2 4570   3.614   4.223   5.023
 1536TIP3   OH2 4571   6.581   4.553   2.644
 1536TIP3    H1 4572   6.596   4.634   2.596
 1536TIP3    H2 4573   6.502   4.570   2.696
 1537TIP3   OH2 4574   6.497   6.189   4.576
 1537TIP3    H1 4575   6.585   6.154   4.566
 1537TIP3    H2 4576   6.495   6.226   4.664
 1538TIP3   OH2 4577   3.200   5.073   2.899
 1538TIP3    H1 4578   3.263   5.132   2.857
 1538TIP3    H2 4579   3.115   5.115   2.885
 1539TIP3   OH2 4580   1.287   0.903   2.731
 1539TIP3    H1 4581   1.214   0.864   2.682
 1539TIP3    H2 4582   1.363   0.852   2.704
 1540TIP3   OH2 4583   3.903   0.333   3.856
 1540TIP3    H1 4584   3.994   0.329   3.883
 1540TIP3    H2 4585   3.894   0.418   3.812
 1541TIP3   OH2 4586   6.942   3.498   0.273
 1541TIP3    H1 4587   6.962   3.427   0.212
 1541TIP3    H2 4588   6.970   3.465   0.358
 1542TIP3   OH2 4589   5.130   2.130   0.225
 1542TIP3    H1 4590   5.136   2.101   0.317
 1542TIP3    H2 4591   5.061   2.077   0.187
 1543TIP3   OH2 4592   0.520   0.676   2.484
 1543TIP3    H1 4593   0.432   0.714   2.490
 1543TIP3    H2 4594   0.579   0.752   2.485
 1544TIP3   OH2 4595   4.329   2.088   2.823
 1544TIP3    H1 4596   4.299   2.119   2.908
 1544TIP3    H2 4597   4.318   1.993   2.827
 1545TIP3   OH2 4598   0.396   2.204   1.237
 1545TIP3    H1 4599   0.347   2.235   1.313
 1545TIP3    H2 4600   0.418   2.284   1.189
 1546TIP3   OH2 4601   6.686   5.327   5.490
 1546TIP3    H1 4602   6.642   5.269   5.428
 1546TIP3    H2 4603   6.767   5.352   5.446
 1547TIP3   OH2 4604   6.003   3.523   1.787
 1547TIP3    H1 4605   5.989   3.514   1.881
 1547TIP3    H2 4606   6.067   3.594   1.779
 1548TIP3   OH2 4607   2.893   2.386   4.288
 1548TIP3    H1 4608   2.958   2.443   4.329
 1548TIP3    H2 4609   2.840   2.355   4.361
 1549TIP3   OH2 4610   0.612   2.026   3.748
 1549TIP3    H1 4611   0.661   2.067   3.820
 1549TIP3    H2 4612   0.615   1.932   3.768
 1550TIP3   OH2 4613   0.917   1.175   0.236
 1550TIP3    H1 4614   0.850   1.242   0.240
 1550TIP3    H2 4615   0.943   1.173   0.143
 1551TIP3   OH2 4616   2.236   1.410   0.728
 1551TIP3    H1 4617   2.246   1.417   0.633
 1551TIP3    H2 4618   2.284   1.330   0.751
 1552TIP3   OH2 4619   5.946   0.708   3.193
 1552TIP3    H1 4620   5.999   0.650   3.138
 1552TIP3    H2 4621   5.887   0.648   3.240
 1553TIP3   OH2 4622   5.019   6.349   3.293
 1553TIP3    H1 4623   4.975   6.320   3.213
 1553TIP3    H2 4624   4.978   6.297   3.363
 1554TIP3   OH2 4625   2.869   1.606   4.644
 1554TIP3    H1 4626   2.835   1.640   4.561
 1554TIP3    H2 4627   2.888   1.684   4.696
 1555TIP3   OH2 4628   6.252   0.938   0.467
 1555TIP3    H1 4629   6.167   0.960   0.428
 1555TIP3    H2 4630   6.309   0.922   0.392
 1556TIP3   OH2 4631   6.409   3.825   2.567
 1556TIP3    H1 4632   6.403   3.845   2.661
 1556TIP3    H2 4633   6.350   3.751   2.555
 1557TIP3   OH2 4634   1.116   1.220   1.365
 1557TIP3    H1 4635   1.072   1.301   1.339
 1557TIP3    H2 4636   1.175   1.200   1.292
 1558TIP3   OH2 4637   5.674   6.768   2.156
 1558TIP3    H1 4638   5.713   6.839   2.206
 1558TIP3    H2 4639   5.582   6.767   2.184
 1559TIP3   OH2 4640   0.217   1.992   0.513
 1559TIP3    H1 4641   0.258   2.053   0.451
 1559TIP3    H2 4642   0.144   1.954   0.463
 1560TIP3   OH2 4643   1.701   1.501   4.948
 1560TIP3    H1 4644   1.690   1.593   4.927
 1560TIP3    H2 4645   1.775   1.498   5.008
 1561TIP3   OH2 4646   3.968   5.757   5.189
 1561TIP3    H1 4647   3.889   5.704   5.206
 1561TIP3    H2 4648   3.935   5.837   5.148
 1562TIP3   OH2 4649   4.182   0.016   5.235
 1562TIP3    H1 4650   4.190  -0.007   5.327
 1562TIP3    H2 4651   4.235  -0.049   5.189
 1563TIP3   OH2 4652   4.873   2.096   5.675
 1563TIP3    H1 4653   4.871   2.192   5.680
 1563TIP3    H2 4654   4.966   2.074   5.687
 1564TIP3   OH2 4655   2.368   0.633   3.470
 1564TIP3    H1 4656   2.369   0.705   3.533
 1564TIP3    H2 4657   2.367   0.676   3.384
 1565TIP3   OH2 4658   5.348   2.575   3.873
 1565TIP3    H1 4659   5.365   2.553   3.964
 1565TIP3    H2 4660   5.262   2.618   3.874
 1566TIP3   OH2 4661   6.645   5.927   5.851
 1566TIP3    H1 4662   6.713   5.861   5.840
 1566TIP3    H2 4663   6.603   5.905   5.934
 1567TIP3   OH2 4664   6.707   4.270   2.720
 1567TIP3    H1 4665   6.757   4.276   2.801
 1567TIP3    H2 4666   6.762   4.313   2.654
 1568TIP3   OH2 4667   3.031   0.697   5.423
 1568TIP3    H1 4668   3.008   0.790   5.423
 1568TIP3    H2 4669   2.950   0.652   5.398
 1569TIP3   OH2 4670   1.758   5.520   0.455
 1569TIP3    H1 4671   1.814   5.512   0.532
 1569TIP3    H2 4672   1.785   5.603   0.415
 1570TIP3   OH2 4673   0.098   2.237   0.597
 1570TIP3    H1 4674   0.163   2.167   0.591
 1570TIP3    H2 4675   0.039   2.221   0.523
 1571TIP3   OH2 4676   6.251   3.319   5.223
 1571TIP3    H1 4677   6.227   3.385   5.287
 1571TIP3    H2 4678   6.242   3.363   5.138
 1572TIP3   OH2 4679   0.934   2.160   5.555
 1572TIP3    H1 4680   0.917   2.157   5.461
 1572TIP3    H2 4681   0.852   2.193   5.593
 1573TIP3   OH2 4682   3.356   1.226   5.223
 1573TIP3    H1 4683   3.262   1.210   5.211
 1573TIP3    H2 4684   3.383   1.268   5.141
 1574TIP3   OH2 4685   4.419   4.290   4.451
 1574TIP3    H1 4686   4.405   4.384   4.445
 1574TIP3    H2 4687   4.497   4.280   4.505
 1575TIP3   OH2 4688   4.114   6.088   4.404
 1575TIP3    H1 4689   4.117   6.160   4.341
 1575TIP3    H2 4690   4.044   6.112   4.465
 1576TIP3   OH2 4691   6.775   1.849   0.194
 1576TIP3    H1 4692   6.834   1.778   0.168
 1576TIP3    H2 4693   6.694   1.805   0.221
 1577TIP3   OH2 4694   0.521   3.922   0.805
 1577TIP3    H1 4695   0.569   3.866   0.866
 1577TIP3    H2 4696   0.508   4.004   0.853
 1578TIP3   OH2 4697   3.625   5.510   1.015
 1578TIP3    H1 4698   3.547   5.503   0.961
 1578TIP3    H2 4699   3.634   5.603   1.033
 1579TIP3   OH2 4700   4.549   4.087   5.384
 1579TIP3    H1 4701   4.607   4.163   5.393
 1579TIP3    H2 4702   4.461   4.123   5.389
 1580TIP3   OH2 4703   6.659   0.313   4.929
 1580TIP3    H1 4704   6.587   0.342   4.985
 1580TIP3    H2 4705   6.731   0.372   4.950
 1581TIP3   OH2 4706   1.063   1.177   3.990
 1581TIP3    H1 4707   1.012   1.112   3.942
 1581TIP3    H2 4708   0.998   1.227   4.039
 1582TIP3   OH2 4709   7.200   6.167   3.280
 1582TIP3    H1 4710   7.197   6.175   3.185
 1582TIP3    H2 4711   7.111   6.188   3.309
 1583TIP3   OH2 4712   4.867   6.087   2.808
 1583TIP3    H1 4713   4.836   6.002   2.777
 1583TIP3    H2 4714   4.938   6.110   2.748
 1584TIP3   OH2 4715   2.553   4.994   5.136
 1584TIP3    H1 4716   2.515   4.911   5.107
 1584TIP3    H2 4717   2.497   5.062   5.100
 1585TIP3   OH2 4718   1.304   2.472   5.626
 1585TIP3    H1 4719   1.319   2.514   5.711
 1585TIP3    H2 4720   1.383   2.491   5.576
 1586TIP3   OH2 4721   0.081   1.071   5.296
 1586TIP3    H1 4722   0.080   0.982   5.332
 1586TIP3    H2 4723   0.116   1.061   5.208
 1587TIP3   OH2 4724   1.060   1.684   3.531
 1587TIP3    H1 4725   0.967   1.693   3.512
 1587TIP3    H2 4726   1.075   1.741   3.605
 1588TIP3   OH2 4727   6.558   1.407   2.211
 1588TIP3    H1 4728   6.505   1.484   2.190
 1588TIP3    H2 4729   6.636   1.443   2.254
 1589TIP3   OH2 4730   5.335   4.025   3.829
 1589TIP3    H1 4731   5.318   4.118   3.844
 1589TIP3    H2 4732   5.414   4.023   3.776
 1590TIP3   OH2 4733   3.050   3.553   2.467
 1590TIP3    H1 4734   2.989   3.482   2.445
 1590TIP3    H2 4735   3.135   3.510   2.472
 1591TIP3   OH2 4736   6.647   5.773   0.513
 1591TIP3    H1 4737   6.650   5.682   0.484
 1591TIP3    H2 4738   6.689   5.822   0.442
 1592TIP3   OH2 4739   5.415   0.646   3.029
 1592TIP3    H1 4740   5.342   0.584   3.021
 1592TIP3    H2 4741   5.450   0.654   2.940
 1593TIP3   OH2 4742   7.087   5.540   0.135
 1593TIP3    H1 4743   7.168   5.573   0.096
 1593TIP3    H2 4744   7.090   5.569   0.226
 1594TIP3   OH2 4745   1.200   6.414   1.655
 1594TIP3    H1 4746   1.294   6.420   1.672
 1594TIP3    H2 4747   1.166   6.358   1.725
 1595TIP3   OH2 4748   3.631   3.104   5.261
 1595TIP3    H1 4749   3.584   3.133   5.183
 1595TIP3    H2 4750   3.590   3.152   5.333
 1596TIP3   OH2 4751   5.391   5.054   1.405
 1596TIP3    H1 4752   5.362   5.005   1.482
 1596TIP3    H2 4753   5.386   4.992   1.333
 1597TIP3   OH2 4754   4.764   0.672   0.159
 1597TIP3    H1 4755   4.707   0.749   0.162
 1597TIP3    H2 4756   4.783   0.653   0.251
 1598TIP3   OH2 4757   6.261   0.753   5.848
 1598TIP3    H1 4758   6.316   0.800   5.911
 1598TIP3    H2 4759   6.320   0.689   5.807
 1599TIP3   OH2 4760   5.365   1.747   5.771
 1599TIP3    H1 4761   5.330   1.796   5.697
 1599TIP3    H2 4762   5.460   1.748   5.758
 1600TIP3   OH2 4763   3.527   0.486   5.362
 1600TIP3    H1 4764   3.481   0.433   5.297
 1600TIP3    H2 4765   3.471   0.564   5.372
 1601TIP3   OH2 4766   1.901   5.063   5.168
 1601TIP3    H1 4767   1.880   5.117   5.245
 1601TIP3    H2 4768   1.986   5.097   5.138
 1602TIP3   OH2 4769   4.916   6.669   4.361
 1602TIP3    H1 4770   5.003   6.630   4.370
 1602TIP3    H2 4771   4.932   6.762   4.347
 1603TIP3   OH2 4772   0.375   4.749   4.064
 1603TIP3    H1 4773   0.301   4.801   4.095
 1603TIP3    H2 4774   0.439   4.753   4.135
 1604TIP3   OH2 4775   6.080   2.161   0.970
 1604TIP3    H1 4776   6.040   2.203   1.046
 1604TIP3    H2 4777   6.155   2.217   0.948
 1605TIP3   OH2 4778   2.892   6.659   4.218
 1605TIP3    H1 4779   2.943   6.588   4.257
 1605TIP3    H2 4780   2.855   6.620   4.138
 1606TIP3   OH2 4781   6.860   1.805   3.550
 1606TIP3    H1 4782   6.794   1.786   3.484
 1606TIP3    H2 4783   6.832   1.889   3.588
 1607TIP3   OH2 4784   3.674   5.820   4.642
 1607TIP3    H1 4785   3.642   5.731   4.654
 1607TIP3    H2 4786   3.766   5.809   4.618
 1608TIP3   OH2 4787   4.274   0.709   4.154
 1608TIP3    H1 4788   4.368   0.712   4.140
 1608TIP3    H2 4789   4.243   0.797   4.129
 1609TIP3   OH2 4790   3.907   3.630   3.669
 1609TIP3    H1 4791   3.965   3.630   3.745
 1609TIP3    H2 4792   3.821   3.655   3.705
 1610TIP3   OH2 4793   3.074   2.770   4.036
 1610TIP3    H1 4794   3.082   2.677   4.057
 1610TIP3    H2 4795   3.046   2.810   4.119
 1611TIP3   OH2 4796   3.446   2.560   1.272
 1611TIP3    H1 4797   3.531   2.604   1.267
 1611TIP3    H2 4798   3.383   2.627   1.248
 1612TIP3   OH2 4799   6.229   1.083   2.276
 1612TIP3    H1 4800   6.219   1.168   2.317
 1612TIP3    H2 4801   6.145   1.039   2.291
 1613TIP3   OH2 4802   0.480   2.521   3.258
 1613TIP3    H1 4803   0.393   2.495   3.289
 1613TIP3    H2 4804   0.466   2.541   3.165
 1614TIP3   OH2 4805   4.486   0.862   3.517
 1614TIP3    H1 4806   4.540   0.836   3.442
 1614TIP3    H2 4807   4.399   0.874   3.481
 1615TIP3   OH2 4808   6.247   5.499   1.779
 1615TIP3    H1 4809   6.237   5.562   1.850
 1615TIP3    H2 4810   6.234   5.413   1.820
 1616TIP3   OH2 4811   4.066   2.340   0.768
 1616TIP3    H1 4812   4.156   2.343   0.801
 1616TIP3    H2 4813   4.076   2.332   0.673
 1617TIP3   OH2 4814   1.846   3.976   5.130
 1617TIP3    H1 4815   1.771   3.940   5.082
 1617TIP3    H2 4816   1.922   3.953   5.076
 1618TIP3   OH2 4817   3.643   2.685   3.675
 1618TIP3    H1 4818   3.654   2.711   3.766
 1618TIP3    H2 4819   3.620   2.766   3.629
 1619TIP3   OH2 4820   6.426   0.414   5.289
 1619TIP3    H1 4821   6.478   0.436   5.366
 1619TIP3    H2 4822   6.347   0.373   5.324
 1620TIP3   OH2 4823   0.311   4.141   2.115
 1620TIP3    H1 4824   0.387   4.107   2.066
 1620TIP3    H2 4825   0.317   4.236   2.104
 1621TIP3   OH2 4826   3.152   6.112   0.972
 1621TIP3    H1 4827   3.149   6.172   0.897
 1621TIP3    H2 4828   3.062   6.078   0.978
 1622TIP3   OH2 4829   5.667   3.102   3.208
 1622TIP3    H1 4830   5.689   3.016   3.243
 1622TIP3    H2 4831   5.612   3.142   3.276
 1623TIP3   OH2 4832   3.950   4.967   4.222
 1623TIP3    H1 4833   3.877   5.027   4.235
 1623TIP3    H2 4834   3.908   4.884   4.196
 1624TIP3   OH2 4835   0.572   1.295   4.807
 1624TIP3    H1 4836   0.660   1.323   4.832
 1624TIP3    H2 4837   0.513   1.354   4.854
 1625TIP3   OH2 4838   5.602   0.561   2.579
 1625TIP3    H1 4839   5.668   0.494   2.595
 1625TIP3    H2 4840   5.652   0.643   2.579
 1626TIP3   OH2 4841   2.318   4.042   5.662
 1626TIP3    H1 4842   2.405   4.083   5.651
 1626TIP3    H2 4843   2.326   3.958   5.617
 1627TIP3   OH2 4844   3.507   1.066   0.535
 1627TIP3    H1 4845   3.450   1.142   0.521
 1627TIP3    H2 4846   3.524   1.033   0.447
 1628TIP3   OH2 4847   0.020   0.743   3.178
 1628TIP3    H1 4848  -0.025   0.818   3.218
 1628TIP3    H2 4849   0.072   0.706   3.250
 1629TIP3   OH2 4850   0.721   2.177   4.337
 1629TIP3    H1 4851   0.703   2.198   4.429
 1629TIP3    H2 4852   0.809   2.210   4.322
 1630TIP3   OH2 4853   0.424   1.632   3.271
 1630TIP3    H1 4854   0.488   1.569   3.236
 1630TIP3    H2 4855   0.440   1.633   3.365
 1631TIP3   OH2 4856   6.826   2.011   4.539
 1631TIP3    H1 4857   6.735   2.010   4.568
 1631TIP3    H2 4858   6.876   1.982   4.616
 1632TIP3   OH2 4859   6.488   2.418   4.982
 1632TIP3    H1 4860   6.514   2.352   5.046
 1632TIP3    H2 4861   6.529   2.499   5.014
 1633TIP3   OH2 4862   3.276   2.892   4.451
 1633TIP3    H1 4863   3.251   2.904   4.543
 1633TIP3    H2 4864   3.193   2.895   4.403
 1634TIP3   OH2 4865   6.170   3.673   5.737
 1634TIP3    H1 4866   6.142   3.719   5.815
 1634TIP3    H2 4867   6.191   3.742   5.674
 1635TIP3   OH2 4868   1.725   1.907   4.616
 1635TIP3    H1 4869   1.666   1.948   4.552
 1635TIP3    H2 4870   1.813   1.921   4.579
 1636TIP3   OH2 4871   0.852   4.889   0.752
 1636TIP3    H1 4872   0.866   4.882   0.847
 1636TIP3    H2 4873   0.828   4.800   0.725
 1637TIP3   OH2 4874   0.230   2.626   5.498
 1637TIP3    H1 4875   0.190   2.567   5.563
 1637TIP3    H2 4876   0.323   2.629   5.523
 1638TIP3   OH2 4877   4.989   4.930   1.672
 1638TIP3    H1 4878   5.073   4.889   1.651
 1638TIP3    H2 4879   5.002   4.968   1.759
 1639TIP3   OH2 4880   4.569   5.089   0.567
 1639TIP3    H1 4881   4.643   5.147   0.549
 1639TIP3    H2 4882   4.506   5.143   0.615
 1640TIP3   OH2 4883   0.178   0.834   0.460
 1640TIP3    H1 4884   0.249   0.774   0.483
 1640TIP3    H2 4885   0.175   0.832   0.364
 1641TIP3   OH2 4886   4.827   4.183   4.884
 1641TIP3    H1 4887   4.840   4.098   4.926
 1641TIP3    H2 4888   4.883   4.180   4.807
 1642TIP3   OH2 4889   2.731   3.732   0.380
 1642TIP3    H1 4890   2.708   3.820   0.410
 1642TIP3    H2 4891   2.739   3.741   0.285
 1643TIP3   OH2 4892   4.254   4.085   4.423
 1643TIP3    H1 4893   4.218   4.060   4.508
 1643TIP3    H2 4894   4.314   4.157   4.443
 1644TIP3   OH2 4895   0.465   0.730   1.639
 1644TIP3    H1 4896   0.429   0.711   1.552
 1644TIP3    H2 4897   0.510   0.814   1.629
 1645TIP3   OH2 4898   2.484   1.059   0.320
 1645TIP3    H1 4899   2.410   1.119   0.317
 1645TIP3    H2 4900   2.449   0.979   0.359
 1646TIP3   OH2 4901   0.994   2.803   1.724
 1646TIP3    H1 4902   1.067   2.790   1.664
 1646TIP3    H2 4903   1.028   2.776   1.810
 1647TIP3   OH2 4904   3.584   2.054   2.625
 1647TIP3    H1 4905   3.530   2.121   2.583
 1647TIP3    H2 4906   3.663   2.101   2.653
 1648TIP3   OH2 4907   2.556   3.054   1.197
 1648TIP3    H1 4908   2.619   3.008   1.142
 1648TIP3    H2 4909   2.478   3.062   1.143
 1649TIP3   OH2 4910   5.493   2.620   0.196
 1649TIP3    H1 4911   5.476   2.714   0.183
 1649TIP3    H2 4912   5.587   2.616   0.215
 1650TIP3   OH2 4913   7.113   1.104   2.312
 1650TIP3    H1 4914   7.147   1.147   2.391
 1650TIP3    H2 4915   7.163   1.023   2.306
 1651TIP3   OH2 4916   1.358   5.283   0.533
 1651TIP3    H1 4917   1.308   5.363   0.548
 1651TIP3    H2 4918   1.417   5.304   0.461
 1652TIP3   OH2 4919   1.422   1.255   3.529
 1652TIP3    H1 4920   1.442   1.209   3.611
 1652TIP3    H2 4921   1.382   1.337   3.557
 1653TIP3   OH2 4922   7.056   1.540   5.042
 1653TIP3    H1 4923   7.068   1.625   5.083
 1653TIP3    H2 4924   7.125   1.535   4.975
 1654TIP3   OH2 4925   0.651   4.998   2.269
 1654TIP3    H1 4926   0.620   5.089   2.267
 1654TIP3    H2 4927   0.733   5.002   2.318
 1655TIP3   OH2 4928   2.093   5.090   1.274
 1655TIP3    H1 4929   2.049   5.105   1.358
 1655TIP3    H2 4930   2.073   4.999   1.253
 1656TIP3   OH2 4931   4.655   4.851   0.699
 1656TIP3    H1 4932   4.613   4.914   0.641
 1656TIP3    H2 4933   4.607   4.858   0.782
 1657TIP3   OH2 4934   6.575   5.134   2.199
 1657TIP3    H1 4935   6.500   5.098   2.246
 1657TIP3    H2 4936   6.542   5.152   2.111
 1658TIP3   OH2 4937   2.773   6.558   2.988
 1658TIP3    H1 4938   2.710   6.618   2.948
 1658TIP3    H2 4939   2.756   6.474   2.945
 1659TIP3   OH2 4940   3.104   2.134   5.705
 1659TIP3    H1 4941   3.048   2.093   5.771
 1659TIP3    H2 4942   3.043   2.182   5.648
 1660TIP3   OH2 4943   0.053   6.741   0.239
 1660TIP3    H1 4944   0.009   6.737   0.154
 1660TIP3    H2 4945   0.042   6.831   0.268
 1661TIP3   OH2 4946   3.569   5.453   3.178
 1661TIP3    H1 4947   3.590   5.367   3.214
 1661TIP3    H2 4948   3.500   5.436   3.114
 1662TIP3   OH2 4949   6.650   5.171   0.447
 1662TIP3    H1 4950   6.745   5.178   0.453
 1662TIP3    H2 4951   6.623   5.137   0.532
 1663TIP3   OH2 4952   6.811   0.714   1.926
 1663TIP3    H1 4953   6.756   0.751   1.857
 1663TIP3    H2 4954   6.887   0.772   1.928
 1664TIP3   OH2 4955   0.376   6.727   2.595
 1664TIP3    H1 4956   0.471   6.724   2.607
 1664TIP3    H2 4957   0.355   6.645   2.552
 1665TIP3   OH2 4958   3.750   0.940   4.045
 1665TIP3    H1 4959   3.670   0.887   4.048
 1665TIP3    H2 4960   3.820   0.878   4.065
 1666TIP3   OH2 4961   5.969   0.357   4.968
 1666TIP3    H1 4962   5.878   0.334   4.987
 1666TIP3    H2 4963   6.000   0.288   4.910
 1667TIP3   OH2 4964   5.540   1.643   1.643
 1667TIP3    H1 4965   5.556   1.553   1.671
 1667TIP3    H2 4966   5.454   1.665   1.679
 1668TIP3   OH2 4967   5.261   0.502   2.775
 1668TIP3    H1 4968   5.249   0.592   2.745
 1668TIP3    H2 4969   5.236   0.447   2.701
 1669TIP3   OH2 4970   3.662   3.238   2.787
 1669TIP3    H1 4971   3.588   3.188   2.822
 1669TIP3    H2 4972   3.739   3.195   2.824
 1670TIP3   OH2 4973   5.331   5.634   2.532
 1670TIP3    H1 4974   5.260   5.632   2.596
 1670TIP3    H2 4975   5.306   5.569   2.466
 1671TIP3   OH2 4976   0.738   1.134   2.584
 1671TIP3    H1 4977   0.824   1.176   2.599
 1671TIP3    H2 4978   0.677   1.185   2.638
 1672TIP3   OH2 4979   2.080   0.853   0.414
 1672TIP3    H1 4980   2.073   0.792   0.340
 1672TIP3    H2 4981   2.043   0.805   0.488
 1673TIP3   OH2 4982   5.997   0.373   2.415
 1673TIP3    H1 4983   6.025   0.421   2.337
 1673TIP3    H2 4984   6.053   0.295   2.415
 1674TIP3   OH2 4985   5.493   1.468   3.658
 1674TIP3    H1 4986   5.455   1.383   3.677
 1674TIP3    H2 4987   5.448   1.497   3.579
 1675TIP3   OH2 4988   0.098   4.778   2.209
 1675TIP3    H1 4989   0.086   4.732   2.292
 1675TIP3    H2 4990   0.173   4.836   2.225
 1676TIP3   OH2 4991   4.541   1.388   0.518
 1676TIP3    H1 4992   4.517   1.297   0.535
 1676TIP3    H2 4993   4.605   1.384   0.447
 1677TIP3   OH2 4994   1.146   4.628   2.710
 1677TIP3    H1 4995   1.120   4.660   2.624
 1677TIP3    H2 4996   1.116   4.537   2.713
 1678TIP3   OH2 4997   3.975   3.401   1.782
 1678TIP3    H1 4998   3.986   3.405   1.877
 1678TIP3    H2 4999   3.885   3.372   1.770
 1679TIP3   OH2 5000   4.220   1.653   4.366
 1679TIP3    H1 5001   4.148   1.609   4.320
 1679TIP3    H2 5002   4.290   1.587   4.369
 1680TIP3   OH2 5003   2.986   3.463   0.364
 1680TIP3    H1 5004   2.891   3.457   0.358
 1680TIP3    H2 5005   3.018   3.381   0.328
 1681TIP3   OH2 5006   6.965   5.428   1.547
 1681TIP3    H1 5007   7.032   5.445   1.481
 1681TIP3    H2 5008   6.902   5.499   1.537
 1682TIP3   OH2 5009   1.398   2.168   2.790
 1682TIP3    H1 5010   1.385   2.088   2.840
 1682TIP3    H2 5011   1.493   2.174   2.779
 1683TIP3   OH2 5012   3.432   0.629   0.791
 1683TIP3    H1 5013   3.511   0.682   0.779
 1683TIP3    H2 5014   3.446   0.583   0.873
 1684TIP3   OH2 5015   4.866   5.293   3.733
 1684TIP3    H1 5016   4.909   5.346   3.666
 1684TIP3    H2 5017   4.779   5.334   3.743
 1685TIP3   OH2 5018   1.435   5.944   4.467
 1685TIP3    H1 5019   1.412   5.931   4.375
 1685TIP3    H2 5020   1.464   5.858   4.497
 1686TIP3   OH2 5021   2.683   1.616   3.482
 1686TIP3    H1 5022   2.603   1.576   3.449
 1686TIP3    H2 5023   2.705   1.683   3.417
 1687TIP3   OH2 5024   5.752   5.321   0.983
 1687TIP3    H1 5025   5.835   5.343   0.940
 1687TIP3    H2 5026   5.690   5.387   0.952
 1688TIP3   OH2 5027   1.946   3.910   4.552
 1688TIP3    H1 5028   1.979   3.870   4.633
 1688TIP3    H2 5029   1.989   3.861   4.482
 1689TIP3   OH2 5030   5.628   0.061   5.362
 1689TIP3    H1 5031   5.684   0.075   5.439
 1689TIP3    H2 5032   5.549   0.112   5.380
 1690TIP3   OH2 5033   5.264   5.012   1.802
 1690TIP3    H1 5034   5.244   4.950   1.732
 1690TIP3    H2 5035   5.312   4.961   1.867
 1691TIP3   OH2 5036   0.183   3.177   1.296
 1691TIP3    H1 5037   0.108   3.133   1.257
 1691TIP3    H2 5038   0.152   3.266   1.312
 1692TIP3   OH2 5039   4.172   6.266   3.902
 1692TIP3    H1 5040   4.095   6.240   3.851
 1692TIP3    H2 5041   4.199   6.349   3.863
 1693TIP3   OH2 5042   1.042   5.840   0.782
 1693TIP3    H1 5043   0.997   5.872   0.704
 1693TIP3    H2 5044   0.995   5.760   0.806
 1694TIP3   OH2 5045   2.165   1.422   3.261
 1694TIP3    H1 5046   2.167   1.518   3.253
 1694TIP3    H2 5047   2.072   1.401   3.271
 1695TIP3   OH2 5048   4.211   3.004   0.288
 1695TIP3    H1 5049   4.200   3.037   0.199
 1695TIP3    H2 5050   4.298   3.033   0.314
 1696TIP3   OH2 5051   6.656   6.521   4.159
 1696TIP3    H1 5052   6.672   6.594   4.218
 1696TIP3    H2 5053   6.704   6.544   4.079
 1697TIP3   OH2 5054   4.861   2.644   1.715
 1697TIP3    H1 5055   4.870   2.551   1.738
 1697TIP3    H2 5056   4.857   2.646   1.620
 1698TIP3   OH2 5057   4.664   5.866   0.631
 1698TIP3    H1 5058   4.742   5.910   0.665
 1698TIP3    H2 5059   4.592   5.902   0.684
 1699TIP3   OH2 5060   5.852   4.017   5.427
 1699TIP3    H1 5061   5.794   4.093   5.428
 1699TIP3    H2 5062   5.794   3.942   5.427
 1700TIP3   OH2 5063   4.395   0.623   4.542
 1700TIP3    H1 5064   4.430   0.703   4.504
 1700TIP3    H2 5065   4.416   0.555   4.478
 1701TIP3   OH2 5066   1.896   5.721   1.034
 1701TIP3    H1 5067   1.948   5.674   1.100
 1701TIP3    H2 5068   1.926   5.811   1.039
 1702TIP3   OH2 5069   0.492   2.336   2.892
 1702TIP3    H1 5070   0.420   2.305   2.947
 1702TIP3    H2 5071   0.466   2.314   2.803
 1703TIP3   OH2 5072   0.596   4.509   3.592
 1703TIP3    H1 5073   0.576   4.573   3.659
 1703TIP3    H2 5074   0.678   4.540   3.552
 1704TIP3   OH2 5075   0.835   3.568   5.840
 1704TIP3    H1 5076   0.753   3.518   5.837
 1704TIP3    H2 5077   0.807   3.660   5.840
 1705TIP3   OH2 5078   4.429   1.807   2.906
 1705TIP3    H1 5079   4.340   1.815   2.940
 1705TIP3    H2 5080   4.480   1.870   2.956
 1706TIP3   OH2 5081   4.623   2.695   0.386
 1706TIP3    H1 5082   4.719   2.694   0.391
 1706TIP3    H2 5083   4.597   2.763   0.447
 1707TIP3   OH2 5084   1.354   2.826   5.779
 1707TIP3    H1 5085   1.432   2.804   5.831
 1707TIP3    H2 5086   1.285   2.770   5.814
 1708TIP3   OH2 5087   6.265   5.166   1.485
 1708TIP3    H1 5088   6.345   5.115   1.500
 1708TIP3    H2 5089   6.293   5.238   1.428
 1709TIP3   OH2 5090   3.794   0.334   5.861
 1709TIP3    H1 5091   3.794   0.391   5.784
 1709TIP3    H2 5092   3.719   0.362   5.913
 1710TIP3   OH2 5093   4.568   4.157   4.198
 1710TIP3    H1 5094   4.496   4.221   4.198
 1710TIP3    H2 5095   4.642   4.204   4.158
 1711TIP3   OH2 5096   0.382   1.691   2.818
 1711TIP3    H1 5097   0.358   1.726   2.904
 1711TIP3    H2 5098   0.332   1.610   2.810
 1712TIP3   OH2 5099   0.944   5.196   2.163
 1712TIP3    H1 5100   0.879   5.259   2.131
 1712TIP3    H2 5101   0.982   5.159   2.084
 1713TIP3   OH2 5102   5.850   2.992   2.910
 1713TIP3    H1 5103   5.756   3.012   2.918
 1713TIP3    H2 5104   5.852   2.901   2.882
 1714TIP3   OH2 5105   0.915   1.411   0.554
 1714TIP3    H1 5106   0.837   1.360   0.574
 1714TIP3    H2 5107   0.978   1.348   0.520
 1715TIP3   OH2 5108   6.305   2.004   1.291
 1715TIP3    H1 5109   6.367   1.951   1.342
 1715TIP3    H2 5110   6.281   1.947   1.217
 1716TIP3   OH2 5111   4.957   6.492   5.625
 1716TIP3    H1 5112   5.004   6.523   5.548
 1716TIP3    H2 5113   4.990   6.545   5.697
 1717TIP3   OH2 5114   4.707   2.014   5.238
 1717TIP3    H1 5115   4.688   2.050   5.152
 1717TIP3    H2 5116   4.791   1.970   5.228
 1718TIP3   OH2 5117   5.404   5.419   3.296
 1718TIP3    H1 5118   5.492   5.388   3.319
 1718TIP3    H2 5119   5.356   5.339   3.274
 1719TIP3   OH2 5120   2.118   1.558   2.523
 1719TIP3    H1 5121   2.208   1.557   2.553
 1719TIP3    H2 5122   2.117   1.496   2.450
 1720TIP3   OH2 5123   1.563   4.639   5.502
 1720TIP3    H1 5124   1.483   4.612   5.548
 1720TIP3    H2 5125   1.558   4.595   5.418
 1721TIP3   OH2 5126   2.173   5.452   3.959
 1721TIP3    H1 5127   2.207   5.406   3.882
 1721TIP3    H2 5128   2.249   5.459   4.017
 1722TIP3   OH2 5129   5.286   3.771   3.902
 1722TIP3    H1 5130   5.201   3.748   3.939
 1722TIP3    H2 5131   5.286   3.867   3.902
 1723TIP3   OH2 5132   1.675   3.530   2.709
 1723TIP3    H1 5133   1.660   3.480   2.629
 1723TIP3    H2 5134   1.717   3.468   2.769
 1724TIP3   OH2 5135   6.090   5.388   5.473
 1724TIP3    H1 5136   6.174   5.434   5.472
 1724TIP3    H2 5137   6.061   5.389   5.382
 1725TIP3   OH2 5138   6.728   4.603   0.121
 1725TIP3    H1 5139   6.672   4.673   0.156
 1725TIP3    H2 5140   6.681   4.571   0.044
 1726TIP3   OH2 5141   1.304   4.281   1.743
 1726TIP3    H1 5142   1.307   4.362   1.694
 1726TIP3    H2 5143   1.248   4.300   1.819
 1727TIP3   OH2 5144   4.429   2.915   3.354
 1727TIP3    H1 5145   4.451   3.007   3.369
 1727TIP3    H2 5146   4.334   2.911   3.368
 1728TIP3   OH2 5147   4.262   5.540   4.373
 1728TIP3    H1 5148   4.212   5.500   4.302
 1728TIP3    H2 5149   4.253   5.634   4.357
 1729TIP3   OH2 5150   3.459   1.411   1.932
 1729TIP3    H1 5151   3.421   1.324   1.944
 1729TIP3    H2 5152   3.500   1.407   1.845
 1730TIP3   OH2 5153   1.458   1.067   0.820
 1730TIP3    H1 5154   1.390   1.116   0.773
 1730TIP3    H2 5155   1.415   0.988   0.850
 1731TIP3   OH2 5156   2.128   2.330   4.134
 1731TIP3    H1 5157   2.066   2.400   4.153
 1731TIP3    H2 5158   2.119   2.314   4.040
 1732TIP3   OH2 5159   7.118   6.399   5.555
 1732TIP3    H1 5160   7.120   6.311   5.593
 1732TIP3    H2 5161   7.114   6.457   5.631
 1733TIP3   OH2 5162   6.398   0.236   3.359
 1733TIP3    H1 5163   6.458   0.306   3.383
 1733TIP3    H2 5164   6.315   0.260   3.401
 1734TIP3   OH2 5165   4.264   5.259   5.184
 1734TIP3    H1 5166   4.176   5.232   5.157
 1734TIP3    H2 5167   4.251   5.303   5.268
 1735TIP3   OH2 5168   3.780   0.520   2.371
 1735TIP3    H1 5169   3.840   0.450   2.399
 1735TIP3    H2 5170   3.833   0.600   2.375
 1736TIP3   OH2 5171   2.229   0.871   0.071
 1736TIP3    H1 5172   2.165   0.807   0.103
 1736TIP3    H2 5173   2.314   0.833   0.094
 1737TIP3   OH2 5174   2.084   2.278   3.874
 1737TIP3    H1 5175   2.172   2.248   3.851
 1737TIP3    H2 5176   2.040   2.290   3.790
 1738TIP3   OH2 5177   6.129   4.246   3.006
 1738TIP3    H1 5178   6.052   4.285   3.048
 1738TIP3    H2 5179   6.186   4.320   2.987
 1739TIP3   OH2 5180   6.416   5.785   3.019
 1739TIP3    H1 5181   6.413   5.698   2.978
 1739TIP3    H2 5182   6.331   5.793   3.062
 1740TIP3   OH2 5183   3.865   3.888   3.511
 1740TIP3    H1 5184   3.895   3.813   3.561
 1740TIP3    H2 5185   3.896   3.964   3.560
 1741TIP3   OH2 5186   2.572   0.930   4.958
 1741TIP3    H1 5187   2.539   0.841   4.968
 1741TIP3    H2 5188   2.667   0.920   4.952
 1742TIP3   OH2 5189   4.850   1.959   2.791
 1742TIP3    H1 5190   4.931   1.921   2.758
 1742TIP3    H2 5191   4.785   1.889   2.780
 1743TIP3   OH2 5192   6.066   2.581   2.235
 1743TIP3    H1 5193   6.141   2.545   2.186
 1743TIP3    H2 5194   5.996   2.585   2.170
 1744TIP3   OH2 5195   5.081   5.091   2.974
 1744TIP3    H1 5196   5.054   5.053   2.890
 1744TIP3    H2 5197   5.172   5.063   2.984
 1745TIP3   OH2 5198   1.910   5.105   3.713
 1745TIP3    H1 5199   1.962   5.111   3.793
 1745TIP3    H2 5200   1.944   5.028   3.668
 1746TIP3   OH2 5201   1.987   2.621   3.836
 1746TIP3    H1 5202   2.055   2.653   3.776
 1746TIP3    H2 5203   1.965   2.534   3.802
 1747TIP3   OH2 5204   4.498   0.087   2.811
 1747TIP3    H1 5205   4.471   0.085   2.719
 1747TIP3    H2 5206   4.582   0.040   2.812
 1748TIP3   OH2 5207   4.512   3.603   0.719
 1748TIP3    H1 5208   4.500   3.698   0.731
 1748TIP3    H2 5209   4.434   3.575   0.670
 1749TIP3   OH2 5210   1.439   1.683   4.688
 1749TIP3    H1 5211   1.476   1.595   4.687
 1749TIP3    H2 5212   1.498   1.734   4.743
 1750TIP3   OH2 5213   3.658   0.463   5.617
 1750TIP3    H1 5214   3.660   0.508   5.532
 1750TIP3    H2 5215   3.570   0.480   5.650
 1751TIP3   OH2 5216   1.850   6.696   3.316
 1751TIP3    H1 5217   1.772   6.735   3.277
 1751TIP3    H2 5218   1.909   6.769   3.331
 1752TIP3   OH2 5219   5.354   2.689   4.714
 1752TIP3    H1 5220   5.340   2.749   4.641
 1752TIP3    H2 5221   5.416   2.624   4.681
 1753TIP3   OH2 5222   4.482   5.194   1.146
 1753TIP3    H1 5223   4.554   5.130   1.148
 1753TIP3    H2 5224   4.522   5.274   1.111
 1754TIP3   OH2 5225   0.770   2.477   1.546
 1754TIP3    H1 5226   0.781   2.469   1.452
 1754TIP3    H2 5227   0.834   2.415   1.583
 1755TIP3   OH2 5228   4.763   0.352   2.069
 1755TIP3    H1 5229   4.760   0.447   2.070
 1755TIP3    H2 5230   4.693   0.325   2.128
 1756TIP3   OH2 5231   6.492   0.616   0.972
 1756TIP3    H1 5232   6.532   0.701   0.956
 1756TIP3    H2 5233   6.398   0.632   0.962
 1757TIP3   OH2 5234   3.313   2.743   2.482
 1757TIP3    H1 5235   3.243   2.806   2.464
 1757TIP3    H2 5236   3.269   2.658   2.484
 1758TIP3   OH2 5237   2.356   5.030   3.681
 1758TIP3    H1 5238   2.386   5.036   3.772
 1758TIP3    H2 5239   2.374   4.939   3.656
 1759TIP3   OH2 5240   3.293   1.535   2.945
 1759TIP3    H1 5241   3.339   1.454   2.966
 1759TIP3    H2 5242   3.317   1.595   3.016
 1760TIP3   OH2 5243   4.678   1.745   2.829
 1760TIP3    H1 5244   4.606   1.772   2.887
 1760TIP3    H2 5245   4.636   1.691   2.762
 1761TIP3   OH2 5246   3.633   3.906   4.811
 1761TIP3    H1 5247   3.537   3.913   4.812
 1761TIP3    H2 5248   3.661   3.954   4.889
 1762TIP3   OH2 5249   1.266   3.752   1.507
 1762TIP3    H1 5250   1.255   3.772   1.414
 1762TIP3    H2 5251   1.266   3.656   1.511
 1763TIP3   OH2 5252   1.790   1.545   3.461
 1763TIP3    H1 5253   1.851   1.602   3.508
 1763TIP3    H2 5254   1.704   1.567   3.498
 1764TIP3   OH2 5255   0.092   0.351   4.097
 1764TIP3    H1 5256   0.108   0.416   4.165
 1764TIP3    H2 5257   0.086   0.401   4.016
 1765TIP3   OH2 5258   1.929   1.887   2.621
 1765TIP3    H1 5259   1.841   1.899   2.656
 1765TIP3    H2 5260   1.966   1.975   2.617
 1766TIP3   OH2 5261   2.620   6.481   3.664
 1766TIP3    H1 5262   2.681   6.529   3.720
 1766TIP3    H2 5263   2.536   6.526   3.676
 1767TIP3   OH2 5264   6.916   1.315   2.191
 1767TIP3    H1 5265   6.842   1.259   2.169
 1767TIP3    H2 5266   6.979   1.256   2.234
 1768TIP3   OH2 5267   2.626   2.968   2.066
 1768TIP3    H1 5268   2.580   2.934   2.143
 1768TIP3    H2 5269   2.582   2.927   1.991
 1769TIP3   OH2 5270   2.041   2.182   5.788
 1769TIP3    H1 5271   2.078   2.113   5.843
 1769TIP3    H2 5272   2.043   2.260   5.844
 1770TIP3   OH2 5273   5.218   0.103   2.963
 1770TIP3    H1 5274   5.145   0.129   3.020
 1770TIP3    H2 5275   5.180   0.101   2.875
 1771TIP3   OH2 5276   5.865   3.730   1.551
 1771TIP3    H1 5277   5.900   3.791   1.616
 1771TIP3    H2 5278   5.923   3.655   1.554
 1772TIP3   OH2 5279   3.065   6.114   0.430
 1772TIP3    H1 5280   3.139   6.071   0.387
 1772TIP3    H2 5281   3.077   6.207   0.411
 1773TIP3   OH2 5282   0.514   1.091   5.479
 1773TIP3    H1 5283   0.477   1.161   5.533
 1773TIP3    H2 5284   0.473   1.011   5.512
 1774TIP3   OH2 5285   1.872   1.797   5.864
 1774TIP3    H1 5286   1.909   1.825   5.948
 1774TIP3    H2 5287   1.948   1.784   5.807
 1775TIP3   OH2 5288   0.127   1.474   1.757
 1775TIP3    H1 5289   0.103   1.382   1.749
 1775TIP3    H2 5290   0.221   1.473   1.775
 1776TIP3   OH2 5291   3.948   5.400   0.437
 1776TIP3    H1 5292   3.962   5.422   0.529
 1776TIP3    H2 5293   4.006   5.327   0.420
 1777TIP3   OH2 5294   6.817   5.937   3.242
 1777TIP3    H1 5295   6.788   6.020   3.204
 1777TIP3    H2 5296   6.756   5.872   3.205
 1778TIP3   OH2 5297   2.080   4.656   0.379
 1778TIP3    H1 5298   2.036   4.588   0.430
 1778TIP3    H2 5299   2.152   4.686   0.435
 1779TIP3   OH2 5300   2.347   4.690   2.255
 1779TIP3    H1 5301   2.405   4.765   2.268
 1779TIP3    H2 5302   2.405   4.616   2.241
 1780TIP3   OH2 5303   2.461   4.586   3.247
 1780TIP3    H1 5304   2.478   4.502   3.290
 1780TIP3    H2 5305   2.376   4.613   3.282
 1781TIP3   OH2 5306   4.498   4.869   4.554
 1781TIP3    H1 5307   4.507   4.964   4.561
 1781TIP3    H2 5308   4.404   4.854   4.546
 1782TIP3   OH2 5309   3.839   3.392   4.910
 1782TIP3    H1 5310   3.873   3.480   4.920
 1782TIP3    H2 5311   3.752   3.394   4.950
 1783TIP3   OH2 5312   2.351   4.784   3.045
 1783TIP3    H1 5313   2.385   4.721   3.108
 1783TIP3    H2 5314   2.414   4.856   3.046
 1784TIP3   OH2 5315   0.425   5.315   3.489
 1784TIP3    H1 5316   0.427   5.329   3.395
 1784TIP3    H2 5317   0.332   5.321   3.512
 1785TIP3   OH2 5318   2.017   6.646   1.188
 1785TIP3    H1 5319   2.083   6.687   1.133
 1785TIP3    H2 5320   2.067   6.594   1.251
 1786TIP3   OH2 5321   4.098   0.637   2.663
 1786TIP3    H1 5322   4.018   0.686   2.644
 1786TIP3    H2 5323   4.169   0.695   2.635
 1787TIP3   OH2 5324   0.128   0.663   1.258
 1787TIP3    H1 5325   0.105   0.571   1.258
 1787TIP3    H2 5326   0.179   0.675   1.177
 1788TIP3   OH2 5327   1.348   3.104   2.745
 1788TIP3    H1 5328   1.326   3.084   2.654
 1788TIP3    H2 5329   1.279   3.162   2.775
 1789TIP3   OH2 5330   3.854   0.868   4.377
 1789TIP3    H1 5331   3.760   0.858   4.393
 1789TIP3    H2 5332   3.885   0.778   4.365
 1790TIP3   OH2 5333   6.587   4.158   1.246
 1790TIP3    H1 5334   6.605   4.087   1.307
 1790TIP3    H2 5335   6.492   4.158   1.236
 1791TIP3   OH2 5336   1.039   3.885   5.659
 1791TIP3    H1 5337   1.077   3.803   5.688
 1791TIP3    H2 5338   0.953   3.888   5.701
 1792TIP3   OH2 5339   0.381   5.472   4.324
 1792TIP3    H1 5340   0.310   5.535   4.337
 1792TIP3    H2 5341   0.396   5.472   4.229
 1793TIP3   OH2 5342   5.981   1.317   4.445
 1793TIP3    H1 5343   6.028   1.398   4.465
 1793TIP3    H2 5344   5.987   1.309   4.349
 1794TIP3   OH2 5345   5.096   6.696   4.679
 1794TIP3    H1 5346   5.145   6.691   4.761
 1794TIP3    H2 5347   5.009   6.663   4.702
 1795TIP3   OH2 5348   0.640   2.827   2.905
 1795TIP3    H1 5349   0.708   2.846   2.970
 1795TIP3    H2 5350   0.681   2.849   2.821
 1796TIP3   OH2 5351   5.696   4.141   2.850
 1796TIP3    H1 5352   5.646   4.163   2.771
 1796TIP3    H2 5353   5.788   4.151   2.825
 1797TIP3   OH2 5354   0.304   2.111   0.285
 1797TIP3    H1 5355   0.269   2.076   0.203
 1797TIP3    H2 5356   0.348   2.192   0.260
 1798TIP3   OH2 5357   3.267   6.236   3.190
 1798TIP3    H1 5358   3.317   6.277   3.260
 1798TIP3    H2 5359   3.176   6.256   3.211
 1799TIP3   OH2 5360   1.141   4.423   1.925
 1799TIP3    H1 5361   1.135   4.454   2.015
 1799TIP3    H2 5362   1.083   4.482   1.876
 1800TIP3   OH2 5363   7.024   0.675   5.389
 1800TIP3    H1 5364   6.952   0.738   5.391
 1800TIP3    H2 5365   6.991   0.600   5.439
 1801TIP3   OH2 5366   1.976   4.337   5.839
 1801TIP3    H1 5367   1.971   4.391   5.760
 1801TIP3    H2 5368   1.986   4.248   5.806
 1802TIP3   OH2 5369   3.323   1.328   5.606
 1802TIP3    H1 5370   3.383   1.350   5.677
 1802TIP3    H2 5371   3.328   1.403   5.547
 1803TIP3   OH2 5372   4.069   4.006   5.438
 1803TIP3    H1 5373   4.164   3.995   5.431
 1803TIP3    H2 5374   4.057   4.098   5.462
 1804TIP3   OH2 5375   6.403   4.931   3.674
 1804TIP3    H1 5376   6.447   4.859   3.628
 1804TIP3    H2 5377   6.433   4.923   3.764
 1805TIP3   OH2 5378   2.220   1.506   2.254
 1805TIP3    H1 5379   2.284   1.576   2.268
 1805TIP3    H2 5380   2.215   1.497   2.159
 1806TIP3   OH2 5381   5.902   1.712   0.872
 1806TIP3    H1 5382   5.928   1.793   0.827
 1806TIP3    H2 5383   5.967   1.648   0.844
 1807TIP3   OH2 5384   2.761   0.091   4.818
 1807TIP3    H1 5385   2.759   0.043   4.901
 1807TIP3    H2 5386   2.671   0.122   4.806
 1808TIP3   OH2 5387   0.549   5.564   4.527
 1808TIP3    H1 5388   0.559   5.517   4.444
 1808TIP3    H2 5389   0.482   5.630   4.510
 1809TIP3   OH2 5390   2.712   5.818   5.100
 1809TIP3    H1 5391   2.622   5.786   5.095
 1809TIP3    H2 5392   2.729   5.828   5.194
 1810TIP3   OH2 5393   5.338   6.435   1.312
 1810TIP3    H1 5394   5.395   6.507   1.286
 1810TIP3    H2 5395   5.319   6.452   1.405
 1811TIP3   OH2 5396   3.883   3.720   1.517
 1811TIP3    H1 5397   3.844   3.715   1.604
 1811TIP3    H2 5398   3.971   3.753   1.531
 1812TIP3   OH2 5399   1.047   1.876   3.719
 1812TIP3    H1 5400   0.972   1.904   3.771
 1812TIP3    H2 5401   1.074   1.954   3.671
 1813TIP3   OH2 5402   5.041   5.514   2.925
 1813TIP3    H1 5403   4.993   5.587   2.965
 1813TIP3    H2 5404   5.119   5.505   2.979
 1814TIP3   OH2 5405   3.124   0.929   5.813
 1814TIP3    H1 5406   3.088   0.971   5.735
 1814TIP3    H2 5407   3.165   1.000   5.862
 1815TIP3   OH2 5408   4.413   5.350   3.014
 1815TIP3    H1 5409   4.406   5.266   3.060
 1815TIP3    H2 5410   4.344   5.404   3.052
 1816TIP3   OH2 5411   6.312   1.894   3.607
 1816TIP3    H1 5412   6.332   1.963   3.543
 1816TIP3    H2 5413   6.232   1.924   3.651
 1817TIP3   OH2 5414   5.056   2.720   3.587
 1817TIP3    H1 5415   5.095   2.758   3.666
 1817TIP3    H2 5416   4.999   2.790   3.553
 1818TIP3   OH2 5417   1.104   3.619   5.734
 1818TIP3    H1 5418   1.018   3.597   5.772
 1818TIP3    H2 5419   1.143   3.535   5.712
 1819TIP3   OH2 5420   1.412   2.736   3.678
 1819TIP3    H1 5421   1.349   2.769   3.614
 1819TIP3    H2 5422   1.459   2.814   3.707
 1820TIP3   OH2 5423   0.159   3.954   2.245
 1820TIP3    H1 5424   0.186   3.886   2.183
 1820TIP3    H2 5425   0.204   4.033   2.215
 1821TIP3   OH2 5426   6.149   3.362   2.460
 1821TIP3    H1 5427   6.071   3.382   2.512
 1821TIP3    H2 5428   6.122   3.289   2.404
 1822TIP3   OH2 5429   4.127   6.142   1.744
 1822TIP3    H1 5430   4.184   6.151   1.668
 1822TIP3    H2 5431   4.173   6.081   1.802
 1823TIP3   OH2 5432   4.421   3.838   3.840
 1823TIP3    H1 5433   4.423   3.930   3.815
 1823TIP3    H2 5434   4.332   3.824   3.874
 1824TIP3   OH2 5435   6.357   6.021   0.978
 1824TIP3    H1 5436   6.355   5.933   0.940
 1824TIP3    H2 5437   6.295   6.017   1.051
 1825TIP3   OH2 5438   6.950   6.314   2.853
 1825TIP3    H1 5439   6.992   6.336   2.936
 1825TIP3    H2 5440   6.856   6.312   2.874
 1826TIP3   OH2 5441   1.497   1.233   1.221
 1826TIP3    H1 5442   1.517   1.326   1.234
 1826TIP3    H2 5443   1.442   1.231   1.142
 1827TIP3   OH2 5444   2.256   0.002   1.264
 1827TIP3    H1 5445   2.290   0.089   1.285
 1827TIP3    H2 5446   2.164   0.018   1.240
 1828TIP3   OH2 5447   1.466   5.144   2.451
 1828TIP3    H1 5448   1.487   5.221   2.398
 1828TIP3    H2 5449   1.392   5.104   2.406
 1829TIP3   OH2 5450   6.566   5.557   3.722
 1829TIP3    H1 5451   6.601   5.485   3.670
 1829TIP3    H2 5452   6.581   5.635   3.669
 1830TIP3   OH2 5453   3.298   4.265   0.142
 1830TIP3    H1 5454   3.289   4.176   0.176
 1830TIP3    H2 5455   3.391   4.284   0.152
 1831TIP3   OH2 5456   7.030   4.803   2.891
 1831TIP3    H1 5457   7.094   4.872   2.904
 1831TIP3    H2 5458   7.062   4.730   2.945
 1832TIP3   OH2 5459   4.441   4.839   3.614
 1832TIP3    H1 5460   4.419   4.833   3.707
 1832TIP3    H2 5461   4.468   4.750   3.590
 1833TIP3   OH2 5462   3.967   1.976   2.129
 1833TIP3    H1 5463   3.917   1.899   2.156
 1833TIP3    H2 5464   3.926   2.002   2.046
 1834TIP3   OH2 5465   2.587   3.929   4.409
 1834TIP3    H1 5466   2.613   3.837   4.412
 1834TIP3    H2 5467   2.531   3.935   4.331
 1835TIP3   OH2 5468   3.089   1.568   4.912
 1835TIP3    H1 5469   3.173   1.570   4.867
 1835TIP3    H2 5470   3.041   1.496   4.870
 1836TIP3   OH2 5471   4.111   1.775   0.693
 1836TIP3    H1 5472   4.130   1.682   0.709
 1836TIP3    H2 5473   4.195   1.819   0.706
 1837TIP3   OH2 5474   7.210   1.343   0.673
 1837TIP3    H1 5475   7.118   1.317   0.675
 1837TIP3    H2 5476   7.209   1.437   0.655
 1838TIP3   OH2 5477   0.930   1.899   2.833
 1838TIP3    H1 5478   0.892   1.961   2.896
 1838TIP3    H2 5479   0.860   1.883   2.769
 1839TIP3   OH2 5480   2.165   4.123   0.929
 1839TIP3    H1 5481   2.260   4.125   0.935
 1839TIP3    H2 5482   2.146   4.151   0.840
 1840TIP3   OH2 5483   3.261   5.149   3.712
 1840TIP3    H1 5484   3.268   5.054   3.701
 1840TIP3    H2 5485   3.352   5.179   3.712
 1841TIP3   OH2 5486   1.854   5.792   1.793
 1841TIP3    H1 5487   1.874   5.813   1.702
 1841TIP3    H2 5488   1.882   5.870   1.842
 1842TIP3   OH2 5489   6.966   1.682   0.074
 1842TIP3    H1 5490   7.047   1.631   0.073
 1842TIP3    H2 5491   6.951   1.704  -0.017
 1843TIP3   OH2 5492   2.933   3.277   2.425
 1843TIP3    H1 5493   2.999   3.224   2.380
 1843TIP3    H2 5494   2.923   3.236   2.511
 1844TIP3   OH2 5495   2.439   6.533   2.461
 1844TIP3    H1 5496   2.504   6.513   2.394
 1844TIP3    H2 5497   2.395   6.612   2.429
 1845TIP3   OH2 5498   3.161   6.648   2.669
 1845TIP3    H1 5499   3.219   6.716   2.705
 1845TIP3    H2 5500   3.163   6.663   2.574
 1846TIP3   OH2 5501   6.755   2.948   5.439
 1846TIP3    H1 5502   6.787   3.031   5.404
 1846TIP3    H2 5503   6.768   2.954   5.533
 1847TIP3   OH2 5504   6.276   3.968   1.137
 1847TIP3    H1 5505   6.350   3.926   1.181
 1847TIP3    H2 5506   6.308   3.986   1.048
 1848TIP3   OH2 5507   1.298   3.182   0.149
 1848TIP3    H1 5508   1.390   3.207   0.135
 1848TIP3    H2 5509   1.252   3.219   0.074
 1849TIP3   OH2 5510   0.531   3.323   1.087
 1849TIP3    H1 5511   0.504   3.231   1.085
 1849TIP3    H2 5512   0.526   3.347   1.180
 1850TIP3   OH2 5513   2.914   1.254   1.011
 1850TIP3    H1 5514   2.887   1.314   0.942
 1850TIP3    H2 5515   2.921   1.308   1.089
 1851TIP3   OH2 5516   0.160   0.635   4.039
 1851TIP3    H1 5517   0.111   0.688   4.102
 1851TIP3    H2 5518   0.174   0.692   3.964
 1852TIP3   OH2 5519   1.737   1.589   4.488
 1852TIP3    H1 5520   1.788   1.628   4.417
 1852TIP3    H2 5521   1.708   1.664   4.541
 1853TIP3   OH2 5522   0.768   3.167   0.108
 1853TIP3    H1 5523   0.739   3.078   0.087
 1853TIP3    H2 5524   0.861   3.158   0.128
 1854TIP3   OH2 5525   4.559   1.996   2.559
 1854TIP3    H1 5526   4.605   2.025   2.480
 1854TIP3    H2 5527   4.551   1.901   2.549
 1855TIP3   OH2 5528   3.519   0.624   5.046
 1855TIP3    H1 5529   3.458   0.670   5.103
 1855TIP3    H2 5530   3.587   0.591   5.105
 1856TIP3   OH2 5531   2.242   0.554   0.028
 1856TIP3    H1 5532   2.303   0.614  -0.014
 1856TIP3    H2 5533   2.179   0.611   0.072
 1857TIP3   OH2 5534   5.163   0.163   5.042
 1857TIP3    H1 5535   5.183   0.116   4.961
 1857TIP3    H2 5536   5.097   0.109   5.086
 1858TIP3   OH2 5537   3.051   3.903   1.523
 1858TIP3    H1 5538   3.014   3.817   1.543
 1858TIP3    H2 5539   3.140   3.885   1.494
 1859TIP3   OH2 5540   6.022   1.648   5.821
 1859TIP3    H1 5541   6.068   1.575   5.862
 1859TIP3    H2 5542   6.074   1.725   5.845
 1860TIP3   OH2 5543   4.371   4.348   1.522
 1860TIP3    H1 5544   4.419   4.431   1.513
 1860TIP3    H2 5545   4.279   4.374   1.520
 1861TIP3   OH2 5546   2.866   2.886   0.504
 1861TIP3    H1 5547   2.862   2.975   0.538
 1861TIP3    H2 5548   2.955   2.877   0.470
 1862TIP3   OH2 5549   0.620   5.660   4.219
 1862TIP3    H1 5550   0.532   5.643   4.252
 1862TIP3    H2 5551   0.637   5.752   4.241
 1863TIP3   OH2 5552   0.072   6.646   1.254
 1863TIP3    H1 5553   0.009   6.718   1.254
 1863TIP3    H2 5554   0.151   6.684   1.291
 1864TIP3   OH2 5555   0.937   1.190   5.159
 1864TIP3    H1 5556   0.885   1.250   5.106
 1864TIP3    H2 5557   0.892   1.186   5.243
 1865TIP3   OH2 5558   2.895   1.337   3.961
 1865TIP3    H1 5559   2.829   1.272   3.939
 1865TIP3    H2 5560   2.913   1.322   4.054
 1866TIP3   OH2 5561   5.561   4.309   3.156
 1866TIP3    H1 5562   5.567   4.213   3.159
 1866TIP3    H2 5563   5.637   4.336   3.104
 1867TIP3   OH2 5564   6.590   5.125   5.328
 1867TIP3    H1 5565   6.618   5.161   5.243
 1867TIP3    H2 5566   6.545   5.043   5.305
 1868TIP3   OH2 5567   7.083   3.904   2.577
 1868TIP3    H1 5568   7.159   3.868   2.532
 1868TIP3    H2 5569   7.119   3.951   2.653
 1869TIP3   OH2 5570   7.097   4.684   0.423
 1869TIP3    H1 5571   7.164   4.745   0.396
 1869TIP3    H2 5572   7.133   4.597   0.403
 1870TIP3   OH2 5573   5.379   3.211   4.257
 1870TIP3    H1 5574   5.333   3.128   4.245
 1870TIP3    H2 5575   5.443   3.193   4.326
 1871TIP3   OH2 5576   3.525   4.319   0.359
 1871TIP3    H1 5577   3.604   4.269   0.377
 1871TIP3    H2 5578   3.454   4.254   0.362
 1872TIP3   OH2 5579   3.518   3.762   1.591
 1872TIP3    H1 5580   3.517   3.681   1.643
 1872TIP3    H2 5581   3.584   3.817   1.634
 1873TIP3   OH2 5582   5.352   5.798   4.660
 1873TIP3    H1 5583   5.384   5.739   4.727
 1873TIP3    H2 5584   5.264   5.823   4.690
 1874TIP3   OH2 5585   0.692   1.251   0.689
 1874TIP3    H1 5586   0.634   1.227   0.616
 1874TIP3    H2 5587   0.644   1.320   0.735
 1875TIP3   OH2 5588   5.551   5.564   3.639
 1875TIP3    H1 5589   5.458   5.547   3.625
 1875TIP3    H2 5590   5.592   5.545   3.554
 1876TIP3   OH2 5591   1.639   6.489   1.582
 1876TIP3    H1 5592   1.577   6.520   1.516
 1876TIP3    H2 5593   1.698   6.431   1.535
 1877TIP3   OH2 5594   2.389   5.472   0.787
 1877TIP3    H1 5595   2.471   5.495   0.743
 1877TIP3    H2 5596   2.413   5.461   0.879
 1878TIP3   OH2 5597   2.578   0.890   2.095
 1878TIP3    H1 5598   2.663   0.845   2.104
 1878TIP3    H2 5599   2.590   0.972   2.143
 1879TIP3   OH2 5600   2.761   2.747   4.521
 1879TIP3    H1 5601   2.834   2.807   4.503
 1879TIP3    H2 5602   2.736   2.766   4.611
 1880TIP3   OH2 5603   3.640   3.737   1.100
 1880TIP3    H1 5604   3.559   3.696   1.069
 1880TIP3    H2 5605   3.709   3.698   1.047
 1881TIP3   OH2 5606   7.134   3.470   0.867
 1881TIP3    H1 5607   7.076   3.476   0.791
 1881TIP3    H2 5608   7.163   3.560   0.882
 1882TIP3   OH2 5609   1.717   0.954   2.683
 1882TIP3    H1 5610   1.786   1.005   2.641
 1882TIP3    H2 5611   1.673   1.017   2.741
 1883TIP3   OH2 5612   5.386   5.184   4.489
 1883TIP3    H1 5613   5.439   5.126   4.434
 1883TIP3    H2 5614   5.440   5.199   4.566
 1884TIP3   OH2 5615   2.012   5.324   5.805
 1884TIP3    H1 5616   2.003   5.294   5.896
 1884TIP3    H2 5617   2.056   5.251   5.760
 1885TIP3   OH2 5618   4.788   3.810   4.607
 1885TIP3    H1 5619   4.798   3.861   4.527
 1885TIP3    H2 5620   4.708   3.845   4.648
 1886TIP3   OH2 5621   0.808   6.545   5.225
 1886TIP3    H1 5622   0.807   6.635   5.256
 1886TIP3    H2 5623   0.723   6.509   5.253
 1887TIP3   OH2 5624   4.122   6.529   1.638
 1887TIP3    H1 5625   4.079   6.455   1.595
 1887TIP3    H2 5626   4.216   6.512   1.628
 1888TIP3   OH2 5627   0.831   3.570   0.936
 1888TIP3    H1 5628   0.813   3.560   1.030
 1888TIP3    H2 5629   0.893   3.500   0.917
 1889TIP3   OH2 5630   1.176   0.761   3.907
 1889TIP3    H1 5631   1.224   0.784   3.987
 1889TIP3    H2 5632   1.220   0.810   3.838
 1890TIP3   OH2 5633   1.554   2.747   1.073
 1890TIP3    H1 5634   1.473   2.710   1.036
 1890TIP3    H2 5635   1.614   2.673   1.077
 1891TIP3   OH2 5636   4.790   1.028   0.405
 1891TIP3    H1 5637   4.803   1.091   0.334
 1891TIP3    H2 5638   4.870   0.977   0.407
 1892TIP3   OH2 5639   4.198   1.975   1.876
 1892TIP3    H1 5640   4.134   1.955   1.808
 1892TIP3    H2 5641   4.150   1.965   1.958
 1893TIP3   OH2 5642   2.943   2.087   0.470
 1893TIP3    H1 5643   2.960   2.030   0.545
 1893TIP3    H2 5644   2.965   2.034   0.394
 1894TIP3   OH2 5645   0.606   3.429   1.909
 1894TIP3    H1 5646   0.677   3.383   1.952
 1894TIP3    H2 5647   0.534   3.366   1.905
 1895TIP3   OH2 5648   4.635   4.355   4.834
 1895TIP3    H1 5649   4.542   4.347   4.855
 1895TIP3    H2 5650   4.674   4.273   4.865
 1896TIP3   OH2 5651   0.695   4.446   0.161
 1896TIP3    H1 5652   0.732   4.358   0.162
 1896TIP3    H2 5653   0.614   4.438   0.110
 1897TIP3   OH2 5654   0.182   6.334   3.664
 1897TIP3    H1 5655   0.239   6.258   3.672
 1897TIP3    H2 5656   0.187   6.358   3.572
 1898TIP3   OH2 5657   3.530   2.882   1.520
 1898TIP3    H1 5658   3.521   2.977   1.509
 1898TIP3    H2 5659   3.442   2.848   1.502
 1899TIP3   OH2 5660   5.509   5.834   2.810
 1899TIP3    H1 5661   5.484   5.920   2.776
 1899TIP3    H2 5662   5.432   5.802   2.857
 1900TIP3   OH2 5663   0.968   2.933   5.342
 1900TIP3    H1 5664   1.029   2.937   5.268
 1900TIP3    H2 5665   0.942   2.841   5.348
 1901TIP3   OH2 5666   5.521   1.277   5.063
 1901TIP3    H1 5667   5.466   1.333   5.007
 1901TIP3    H2 5668   5.460   1.213   5.099
 1902TIP3   OH2 5669   1.396   0.751   5.465
 1902TIP3    H1 5670   1.309   0.787   5.446
 1902TIP3    H2 5671   1.420   0.788   5.550
 1903TIP3   OH2 5672   0.364   6.693   5.016
 1903TIP3    H1 5673   0.361   6.644   5.099
 1903TIP3    H2 5674   0.335   6.630   4.950
 1904TIP3   OH2 5675   3.849   5.234   5.601
 1904TIP3    H1 5676   3.839   5.144   5.571
 1904TIP3    H2 5677   3.837   5.287   5.523
 1905TIP3   OH2 5678   6.378   3.716   3.687
 1905TIP3    H1 5679   6.417   3.788   3.637
 1905TIP3    H2 5680   6.453   3.664   3.716
 1906TIP3   OH2 5681   6.712   1.666   1.512
 1906TIP3    H1 5682   6.703   1.720   1.590
 1906TIP3    H2 5683   6.800   1.685   1.479
 1907TIP3   OH2 5684   2.796   0.588   2.650
 1907TIP3    H1 5685   2.878   0.544   2.627
 1907TIP3    H2 5686   2.732   0.555   2.587
 1908TIP3   OH2 5687   4.776   2.287   0.757
 1908TIP3    H1 5688   4.802   2.364   0.807
 1908TIP3    H2 5689   4.714   2.320   0.692
 1909TIP3   OH2 5690   1.936   4.692   2.171
 1909TIP3    H1 5691   1.999   4.629   2.137
 1909TIP3    H2 5692   1.975   4.725   2.252
 1910TIP3   OH2 5693   4.589   3.902   1.697
 1910TIP3    H1 5694   4.673   3.938   1.727
 1910TIP3    H2 5695   4.528   3.976   1.702
 1911TIP3   OH2 5696   1.497   6.212   4.674
 1911TIP3    H1 5697   1.468   6.122   4.689
 1911TIP3    H2 5698   1.490   6.224   4.579
 1912TIP3   OH2 5699   6.709   0.982   0.315
 1912TIP3    H1 5700   6.772   1.006   0.248
 1912TIP3    H2 5701   6.748   1.013   0.397
 1913TIP3   OH2 5702   0.371   3.098   4.767
 1913TIP3    H1 5703   0.353   3.186   4.798
 1913TIP3    H2 5704   0.314   3.042   4.820
 1914TIP3   OH2 5705   1.388   6.492   4.149
 1914TIP3    H1 5706   1.301   6.526   4.170
 1914TIP3    H2 5707   1.401   6.514   4.056
 1915TIP3   OH2 5708   4.678   0.673   3.070
 1915TIP3    H1 5709   4.660   0.634   2.984
 1915TIP3    H2 5710   4.729   0.751   3.051
 1916TIP3   OH2 5711   0.775   6.633   0.419
 1916TIP3    H1 5712   0.865   6.606   0.439
 1916TIP3    H2 5713   0.722   6.593   0.487
 1917TIP3   OH2 5714   3.505   4.566   5.239
 1917TIP3    H1 5715   3.532   4.515   5.315
 1917TIP3    H2 5716   3.521   4.508   5.164
 1918TIP3   OH2 5717   2.752   2.781   1.640
 1918TIP3    H1 5718   2.677   2.751   1.588
 1918TIP3    H2 5719   2.809   2.825   1.577
 1919TIP3   OH2 5720   7.008   3.703   2.808
 1919TIP3    H1 5721   6.989   3.744   2.723
 1919TIP3    H2 5722   7.080   3.756   2.844
 1920TIP3   OH2 5723   1.903   1.752   0.396
 1920TIP3    H1 5724   1.995   1.756   0.372
 1920TIP3    H2 5725   1.857   1.750   0.312
 1921TIP3   OH2 5726   3.439   6.159   0.687
 1921TIP3    H1 5727   3.511   6.173   0.626
 1921TIP3    H2 5728   3.401   6.075   0.661
 1922TIP3   OH2 5729   3.195   1.979   2.398
 1922TIP3    H1 5730   3.229   2.033   2.470
 1922TIP3    H2 5731   3.226   2.022   2.319
 1923TIP3   OH2 5732   6.692   0.044   3.548
 1923TIP3    H1 5733   6.678   0.129   3.588
 1923TIP3    H2 5734   6.715   0.064   3.457
 1924TIP3   OH2 5735   0.823   4.374   5.493
 1924TIP3    H1 5736   0.795   4.460   5.524
 1924TIP3    H2 5737   0.767   4.312   5.540
 1925TIP3   OH2 5738   0.918   2.622   3.385
 1925TIP3    H1 5739   0.841   2.645   3.333
 1925TIP3    H2 5740   0.913   2.678   3.462
 1926TIP3   OH2 5741   2.750   5.079   2.234
 1926TIP3    H1 5742   2.754   5.173   2.251
 1926TIP3    H2 5743   2.838   5.056   2.204
 1927TIP3   OH2 5744   3.220   5.637   0.685
 1927TIP3    H1 5745   3.217   5.601   0.597
 1927TIP3    H2 5746   3.198   5.730   0.674
 1928TIP3   OH2 5747   1.062   2.516   4.137
 1928TIP3    H1 5748   1.133   2.566   4.097
 1928TIP3    H2 5749   0.984   2.543   4.090
 1929TIP3   OH2 5750   4.018   5.376   2.174
 1929TIP3    H1 5751   3.950   5.341   2.231
 1929TIP3    H2 5752   4.090   5.312   2.180
 1930TIP3   OH2 5753   2.683   3.132   1.701
 1930TIP3    H1 5754   2.748   3.159   1.766
 1930TIP3    H2 5755   2.664   3.041   1.723
 1931TIP3   OH2 5756   0.578   1.912   1.851
 1931TIP3    H1 5757   0.656   1.968   1.849
 1931TIP3    H2 5758   0.586   1.856   1.774
 1932TIP3   OH2 5759   4.545   3.094   5.121
 1932TIP3    H1 5760   4.566   3.047   5.040
 1932TIP3    H2 5761   4.476   3.042   5.162
 1933TIP3   OH2 5762   0.193   5.028   2.573
 1933TIP3    H1 5763   0.162   5.042   2.484
 1933TIP3    H2 5764   0.287   5.017   2.565
 1934TIP3   OH2 5765   1.274   6.720   2.575
 1934TIP3    H1 5766   1.197   6.719   2.518
 1934TIP3    H2 5767   1.349   6.722   2.515
 1935TIP3   OH2 5768   3.489   3.499   4.713
 1935TIP3    H1 5769   3.435   3.453   4.649
 1935TIP3    H2 5770   3.532   3.430   4.763
 1936TIP3   OH2 5771   0.044   3.714   4.847
 1936TIP3    H1 5772   0.101   3.735   4.773
 1936TIP3    H2 5773  -0.023   3.783   4.845
 1937TIP3   OH2 5774   6.427   2.405   1.444
 1937TIP3    H1 5775   6.514   2.430   1.473
 1937TIP3    H2 5776   6.442   2.329   1.386
 1938TIP3   OH2 5777   2.744   2.453   2.390
 1938TIP3    H1 5778   2.779   2.542   2.389
 1938TIP3    H2 5779   2.770   2.417   2.305
 1939TIP3   OH2 5780   2.098   4.855   2.343
 1939TIP3    H1 5781   2.130   4.945   2.337
 1939TIP3    H2 5782   2.174   4.801   2.318
 1940TIP3   OH2 5783   4.601   3.811   4.852
 1940TIP3    H1 5784   4.548   3.752   4.799
 1940TIP3    H2 5785   4.550   3.892   4.856
 1941TIP3   OH2 5786   6.844   1.084   2.525
 1941TIP3    H1 5787   6.800   1.092   2.440
 1941TIP3    H2 5788   6.925   1.036   2.505
 1942TIP3   OH2 5789   0.298   2.202   5.618
 1942TIP3    H1 5790   0.352   2.267   5.660
 1942TIP3    H2 5791   0.331   2.197   5.528
 1943TIP3   OH2 5792   2.342   4.933   1.118
 1943TIP3    H1 5793   2.301   5.015   1.146
 1943TIP3    H2 5794   2.429   4.959   1.087
 1944TIP3   OH2 5795   6.105   3.705   4.404
 1944TIP3    H1 5796   6.020   3.750   4.408
 1944TIP3    H2 5797   6.164   3.760   4.454
 1945TIP3   OH2 5798   2.733   3.505   5.616
 1945TIP3    H1 5799   2.744   3.411   5.627
 1945TIP3    H2 5800   2.695   3.515   5.528
 1946TIP3   OH2 5801   2.235   4.468   2.979
 1946TIP3    H1 5802   2.307   4.507   2.930
 1946TIP3    H2 5803   2.178   4.430   2.912
 1947TIP3   OH2 5804   4.823   2.321   3.727
 1947TIP3    H1 5805   4.806   2.228   3.737
 1947TIP3    H2 5806   4.739   2.363   3.745
 1948TIP3   OH2 5807   5.808   0.726   4.914
 1948TIP3    H1 5808   5.727   0.772   4.934
 1948TIP3    H2 5809   5.852   0.716   4.998
 1949TIP3   OH2 5810   0.228   1.043   1.670
 1949TIP3    H1 5811   0.214   0.967   1.725
 1949TIP3    H2 5812   0.323   1.049   1.659
 1950TIP3   OH2 5813   5.646   6.793   2.569
 1950TIP3    H1 5814   5.584   6.725   2.594
 1950TIP3    H2 5815   5.638   6.859   2.638
 1951TIP3   OH2 5816   6.879   0.778   5.805
 1951TIP3    H1 5817   6.855   0.863   5.769
 1951TIP3    H2 5818   6.966   0.792   5.842
 1952TIP3   OH2 5819   6.956   6.493   1.771
 1952TIP3    H1 5820   7.023   6.559   1.787
 1952TIP3    H2 5821   6.893   6.505   1.842
 1953TIP3   OH2 5822   7.135   2.360   4.909
 1953TIP3    H1 5823   7.140   2.367   5.005
 1953TIP3    H2 5824   7.172   2.274   4.889
 1954TIP3   OH2 5825   6.107   3.260   1.758
 1954TIP3    H1 5826   6.179   3.245   1.696
 1954TIP3    H2 5827   6.084   3.352   1.745
 1955TIP3   OH2 5828   2.135   3.967   0.573
 1955TIP3    H1 5829   2.087   3.918   0.507
 1955TIP3    H2 5830   2.131   3.912   0.652
 1956TIP3   OH2 5831   6.544   3.178   1.799
 1956TIP3    H1 5832   6.506   3.153   1.715
 1956TIP3    H2 5833   6.504   3.118   1.862
 1957TIP3   OH2 5834   3.067   3.829   5.344
 1957TIP3    H1 5835   3.111   3.744   5.331
 1957TIP3    H2 5836   3.109   3.865   5.422
 1958TIP3   OH2 5837   1.426   0.198   3.602
 1958TIP3    H1 5838   1.442   0.105   3.584
 1958TIP3    H2 5839   1.344   0.217   3.556
 1959TIP3   OH2 5840   4.080   1.926   3.542
 1959TIP3    H1 5841   4.034   1.987   3.484
 1959TIP3    H2 5842   4.038   1.937   3.627
 1960TIP3   OH2 5843   7.047   4.713   1.042
 1960TIP3    H1 5844   6.953   4.728   1.048
 1960TIP3    H2 5845   7.068   4.728   0.949
 1961TIP3   OH2 5846   3.137   2.001   1.827
 1961TIP3    H1 5847   3.166   2.080   1.782
 1961TIP3    H2 5848   3.046   1.989   1.799
 1962TIP3   OH2 5849   6.450   1.911   5.882
 1962TIP3    H1 5850   6.471   2.005   5.878
 1962TIP3    H2 5851   6.357   1.908   5.906
 1963TIP3   OH2 5852   4.732   2.380   1.804
 1963TIP3    H1 5853   4.826   2.363   1.800
 1963TIP3    H2 5854   4.724   2.455   1.864
 1964TIP3   OH2 5855   0.634   4.091   3.181
 1964TIP3    H1 5856   0.687   4.170   3.173
 1964TIP3    H2 5857   0.545   4.119   3.160
 1965TIP3   OH2 5858   5.552   0.224   4.150
 1965TIP3    H1 5859   5.557   0.128   4.143
 1965TIP3    H2 5860   5.473   0.241   4.200
 1966TIP3   OH2 5861   4.424   4.988   2.251
 1966TIP3    H1 5862   4.507   4.997   2.298
 1966TIP3    H2 5863   4.401   4.896   2.261
 1967TIP3   OH2 5864   6.756   4.765   0.662
 1967TIP3    H1 5865   6.784   4.822   0.734
 1967TIP3    H2 5866   6.680   4.719   0.697
 1968TIP3   OH2 5867   1.581   5.885   1.667
 1968TIP3    H1 5868   1.523   5.841   1.729
 1968TIP3    H2 5869   1.611   5.815   1.609
 1969TIP3   OH2 5870   3.599   2.411   3.599
 1969TIP3    H1 5871   3.506   2.422   3.579
 1969TIP3    H2 5872   3.623   2.492   3.644
 1970TIP3   OH2 5873   6.657   2.447   5.830
 1970TIP3    H1 5874   6.651   2.523   5.772
 1970TIP3    H2 5875   6.718   2.474   5.899
 1971TIP3   OH2 5876   1.102   0.032   5.785
 1971TIP3    H1 5877   1.027  -0.013   5.748
 1971TIP3    H2 5878   1.079   0.125   5.780
 1972TIP3   OH2 5879   4.652   2.098   1.211
 1972TIP3    H1 5880   4.661   2.074   1.304
 1972TIP3    H2 5881   4.709   2.175   1.201
 1973TIP3   OH2 5882   3.075   0.143   2.551
 1973TIP3    H1 5883   3.161   0.185   2.560
 1973TIP3    H2 5884   3.095   0.052   2.528
 1974TIP3   OH2 5885   5.067   6.150   5.850
 1974TIP3    H1 5886   5.025   6.126   5.768
 1974TIP3    H2 5887   5.025   6.232   5.876
 1975TIP3   OH2 5888   2.821   4.667   3.193
 1975TIP3    H1 5889   2.746   4.711   3.154
 1975TIP3    H2 5890   2.787   4.583   3.224
 1976TIP3   OH2 5891   4.088   2.474   2.049
 1976TIP3    H1 5892   4.066   2.567   2.049
 1976TIP3    H2 5893   4.004   2.429   2.060
 1977TIP3   OH2 5894   2.394   0.507   4.647
 1977TIP3    H1 5895   2.315   0.458   4.627
 1977TIP3    H2 5896   2.423   0.473   4.732
 1978TIP3   OH2 5897   1.842   3.828   1.054
 1978TIP3    H1 5898   1.844   3.751   0.998
 1978TIP3    H2 5899   1.853   3.794   1.143
 1979TIP3   OH2 5900   3.642   5.212   3.277
 1979TIP3    H1 5901   3.689   5.168   3.206
 1979TIP3    H2 5902   3.571   5.152   3.300
 1980TIP3   OH2 5903   6.205   1.349   1.039
 1980TIP3    H1 5904   6.254   1.323   0.961
 1980TIP3    H2 5905   6.219   1.444   1.046
 1981TIP3   OH2 5906   0.093   5.951   3.415
 1981TIP3    H1 5907   0.125   5.885   3.354
 1981TIP3    H2 5908   0.061   6.022   3.360
 1982TIP3   OH2 5909   4.260   3.504   1.316
 1982TIP3    H1 5910   4.302   3.589   1.328
 1982TIP3    H2 5911   4.205   3.493   1.394
 1983TIP3   OH2 5912   4.226   2.209   3.038
 1983TIP3    H1 5913   4.286   2.279   3.062
 1983TIP3    H2 5914   4.161   2.208   3.108
 1984TIP3   OH2 5915   2.318   2.848   1.221
 1984TIP3    H1 5916   2.319   2.918   1.156
 1984TIP3    H2 5917   2.226   2.827   1.233
 1985TIP3   OH2 5918   0.089   4.777   0.830
 1985TIP3    H1 5919   0.074   4.840   0.900
 1985TIP3    H2 5920   0.136   4.827   0.763
 1986TIP3   OH2 5921   5.728   0.925   0.380
 1986TIP3    H1 5922   5.822   0.935   0.393
 1986TIP3    H2 5923   5.720   0.853   0.317
 1987TIP3   OH2 5924   6.653   2.364   5.481
 1987TIP3    H1 5925   6.676   2.272   5.465
 1987TIP3    H2 5926   6.738   2.408   5.494
 1988TIP3   OH2 5927   6.184   6.223   4.650
 1988TIP3    H1 5928   6.225   6.220   4.563
 1988TIP3    H2 5929   6.091   6.207   4.634
 1989TIP3   OH2 5930   0.489   1.809   4.520
 1989TIP3    H1 5931   0.498   1.902   4.540
 1989TIP3    H2 5932   0.534   1.765   4.592
 1990TIP3   OH2 5933   2.652   5.369   4.203
 1990TIP3    H1 5934   2.659   5.278   4.175
 1990TIP3    H2 5935   2.721   5.414   4.155
 1991TIP3   OH2 5936   4.504   1.230   4.824
 1991TIP3    H1 5937   4.468   1.174   4.755
 1991TIP3    H2 5938   4.427   1.267   4.868
 1992TIP3   OH2 5939   6.763   6.712   3.947
 1992TIP3    H1 5940   6.671   6.726   3.927
 1992TIP3    H2 5941   6.808   6.789   3.912
 1993TIP3   OH2 5942   1.537   5.458   2.605
 1993TIP3    H1 5943   1.586   5.380   2.631
 1993TIP3    H2 5944   1.580   5.530   2.653
 1994TIP3   OH2 5945   5.904   5.783   2.795
 1994TIP3    H1 5946   5.990   5.798   2.835
 1994TIP3    H2 5947   5.867   5.871   2.784
 1995TIP3   OH2 5948   6.761   0.307   4.515
 1995TIP3    H1 5949   6.718   0.376   4.565
 1995TIP3    H2 5950   6.755   0.229   4.571
 1996TIP3   OH2 5951   2.518   6.006   1.061
 1996TIP3    H1 5952   2.551   5.991   0.973
 1996TIP3    H2 5953   2.454   6.077   1.051
 1997TIP3   OH2 5954   0.885   6.772   1.973
 1997TIP3    H1 5955   0.953   6.791   2.037
 1997TIP3    H2 5956   0.930   6.773   1.888
 1998TIP3   OH2 5957   1.158   3.547   4.239
 1998TIP3    H1 5958   1.120   3.528   4.153
 1998TIP3    H2 5959   1.100   3.503   4.301
 1999TIP3   OH2 5960   5.711   5.476   5.262
 1999TIP3    H1 5961   5.629   5.525   5.270
 1999TIP3    H2 5962   5.704   5.431   5.178
 2000TIP3   OH2 5963   3.193   4.465   5.458
 2000TIP3    H1 5964   3.165   4.547   5.418
 2000TIP3    H2 5965   3.112   4.427   5.492
 2001TIP3   OH2 5966   1.404   3.500   2.490
 2001TIP3    H1 5967   1.353   3.420   2.500
 2001TIP3    H2 5968   1.339   3.570   2.490
 2002TIP3   OH2 5969   4.276   0.601   2.296
 2002TIP3    H1 5970   4.278   0.647   2.380
 2002TIP3    H2 5971   4.310   0.665   2.233
 2003TIP3   OH2 5972   6.706   4.503   1.705
 2003TIP3    H1 5973   6.654   4.467   1.632
 2003TIP3    H2 5974   6.785   4.538   1.664
 2004TIP3   OH2 5975   4.914   1.653   3.903
 2004TIP3    H1 5976   5.004   1.683   3.919
 2004TIP3    H2 5977   4.898   1.589   3.972
 2005TIP3   OH2 5978   3.281   4.313   4.120
 2005TIP3    H1 5979   3.368   4.277   4.099
 2005TIP3    H2 5980   3.278   4.313   4.216
 2006TIP3   OH2 5981   2.823   1.051   4.393
 2006TIP3    H1 5982   2.787   1.039   4.481
 2006TIP3    H2 5983   2.810   0.967   4.350
 2007TIP3   OH2 5984   0.169   1.868   2.045
 2007TIP3    H1 5985   0.144   1.958   2.069
 2007TIP3    H2 5986   0.147   1.861   1.952
 2008TIP3   OH2 5987   2.295   3.980   4.809
 2008TIP3    H1 5988   2.329   4.062   4.773
 2008TIP3    H2 5989   2.282   3.923   4.733
 2009TIP3   OH2 5990   1.738   2.512   1.123
 2009TIP3    H1 5991   1.696   2.520   1.208
 2009TIP3    H2 5992   1.831   2.530   1.141
 2010TIP3   OH2 5993   6.127   4.083   1.428
 2010TIP3    H1 5994   6.081   4.127   1.357
 2010TIP3    H2 5995   6.133   3.992   1.400
 2011TIP3   OH2 5996   2.572   4.532   4.694
 2011TIP3    H1 5997   2.599   4.604   4.752
 2011TIP3    H2 5998   2.632   4.538   4.619
 2012TIP3   OH2 5999   2.366   1.971   4.002
 2012TIP3    H1 6000   2.461   1.969   3.998
 2012TIP3    H2 6001   2.345   2.050   4.051
 2013TIP3   OH2 6002   1.352   6.154   1.640
 2013TIP3    H1 6003   1.284   6.163   1.573
 2013TIP3    H2 6004   1.377   6.244   1.662
 2014TIP3   OH2 6005   3.371   0.957   3.059
 2014TIP3    H1 6006   3.344   1.045   3.035
 2014TIP3    H2 6007   3.432   0.969   3.132
 2015TIP3   OH2 6008   6.200   6.015   1.188
 2015TIP3    H1 6009   6.216   6.095   1.237
 2015TIP3    H2 6010   6.156   5.957   1.250
 2016TIP3   OH2 6011   0.021   6.059   4.249
 2016TIP3    H1 6012  -0.015   6.145   4.226
 2016TIP3    H2 6013   0.010   6.007   4.170
 2017TIP3   OH2 6014   1.569   1.254   4.117
 2017TIP3    H1 6015   1.566   1.278   4.210
 2017TIP3    H2 6016   1.560   1.338   4.071
 2018TIP3   OH2 6017   0.223   4.217   3.911
 2018TIP3    H1 6018   0.157   4.148   3.910
 2018TIP3    H2 6019   0.180   4.292   3.870
 2019TIP3   OH2 6020   5.098   6.671   5.338
 2019TIP3    H1 6021   5.018   6.645   5.292
 2019TIP3    H2 6022   5.071   6.684   5.429
 2020TIP3   OH2 6023   3.155   2.939   3.817
 2020TIP3    H1 6024   3.103   2.875   3.865
 2020TIP3    H2 6025   3.126   3.024   3.850
 2021TIP3   OH2 6026   4.136   5.590   0.136
 2021TIP3    H1 6027   4.082   5.668   0.141
 2021TIP3    H2 6028   4.075   5.518   0.121
 2022TIP3   OH2 6029   4.429   4.347   0.032
 2022TIP3    H1 6030   4.359   4.344   0.097
 2022TIP3    H2 6031   4.426   4.260  -0.009
 2023TIP3   OH2 6032   5.403   6.292   2.324
 2023TIP3    H1 6033   5.480   6.323   2.372
 2023TIP3    H2 6034   5.412   6.197   2.325
 2024TIP3   OH2 6035   6.526   0.560   3.064
 2024TIP3    H1 6036   6.519   0.581   2.971
 2024TIP3    H2 6037   6.481   0.476   3.074
 2025TIP3   OH2 6038   1.271   3.049   5.469
 2025TIP3    H1 6039   1.241   2.960   5.487
 2025TIP3    H2 6040   1.191   3.102   5.468
 2026TIP3   OH2 6041   5.441   0.139   0.952
 2026TIP3    H1 6042   5.489   0.066   0.992
 2026TIP3    H2 6043   5.497   0.215   0.966
 2027TIP3   OH2 6044   2.981   2.804   3.452
 2027TIP3    H1 6045   3.075   2.802   3.435
 2027TIP3    H2 6046   2.973   2.840   3.540
 2028TIP3   OH2 6047   5.249   2.774   2.416
 2028TIP3    H1 6048   5.184   2.748   2.350
 2028TIP3    H2 6049   5.199   2.782   2.497
 2029TIP3   OH2 6050   4.468   1.071   4.052
 2029TIP3    H1 6051   4.560   1.051   4.036
 2029TIP3    H2 6052   4.444   1.134   3.984
 2030TIP3   OH2 6053   5.738   0.771   1.325
 2030TIP3    H1 6054   5.711   0.815   1.244
 2030TIP3    H2 6055   5.805   0.708   1.296
 2031TIP3   OH2 6056   6.280   5.346   2.015
 2031TIP3    H1 6057   6.236   5.415   2.065
 2031TIP3    H2 6058   6.371   5.375   2.008
 2032TIP3   OH2 6059   3.866   4.834   3.206
 2032TIP3    H1 6060   3.858   4.894   3.131
 2032TIP3    H2 6061   3.812   4.758   3.182
 2033TIP3   OH2 6062   1.437   5.693   4.554
 2033TIP3    H1 6063   1.481   5.643   4.624
 2033TIP3    H2 6064   1.361   5.639   4.531
 2034TIP3   OH2 6065   4.756   3.153   1.107
 2034TIP3    H1 6066   4.737   3.229   1.053
 2034TIP3    H2 6067   4.686   3.152   1.173
 2035TIP3   OH2 6068   0.916   4.536   1.775
 2035TIP3    H1 6069   0.826   4.523   1.744
 2035TIP3    H2 6070   0.970   4.527   1.696
 2036TIP3   OH2 6071   1.648   2.133   3.812
 2036TIP3    H1 6072   1.645   2.042   3.842
 2036TIP3    H2 6073   1.557   2.152   3.788
 2037TIP3   OH2 6074   6.346   0.356   5.641
 2037TIP3    H1 6075   6.341   0.260   5.648
 2037TIP3    H2 6076   6.396   0.382   5.718
 2038TIP3   OH2 6077   0.988   2.228   0.196
 2038TIP3    H1 6078   0.931   2.152   0.209
 2038TIP3    H2 6079   0.976   2.252   0.104
 2039TIP3   OH2 6080   4.026   6.464   4.775
 2039TIP3    H1 6081   3.991   6.519   4.845
 2039TIP3    H2 6082   3.996   6.376   4.797
 2040TIP3   OH2 6083   0.761   2.614   2.313
 2040TIP3    H1 6084   0.731   2.691   2.266
 2040TIP3    H2 6085   0.851   2.601   2.285
 2041TIP3   OH2 6086   4.586   3.925   5.607
 2041TIP3    H1 6087   4.582   3.976   5.526
 2041TIP3    H2 6088   4.678   3.932   5.635
 2042TIP3   OH2 6089   4.758   4.012   2.828
 2042TIP3    H1 6090   4.772   3.918   2.840
 2042TIP3    H2 6091   4.836   4.043   2.783
 2043TIP3   OH2 6092   6.752   2.518   1.394
 2043TIP3    H1 6093   6.710   2.601   1.372
 2043TIP3    H2 6094   6.823   2.543   1.454
 2044TIP3   OH2 6095   0.989   2.735   1.058
 2044TIP3    H1 6096   0.970   2.757   1.149
 2044TIP3    H2 6097   0.948   2.650   1.044
 2045TIP3   OH2 6098   1.299   5.725   0.502
 2045TIP3    H1 6099   1.241   5.655   0.532
 2045TIP3    H2 6100   1.297   5.720   0.407
 2046TIP3   OH2 6101   5.960   0.715   1.765
 2046TIP3    H1 6102   6.000   0.713   1.852
 2046TIP3    H2 6103   6.022   0.668   1.709
 2047TIP3   OH2 6104   2.731   6.060   4.122
 2047TIP3    H1 6105   2.793   6.005   4.075
 2047TIP3    H2 6106   2.746   6.040   4.214
 2048TIP3   OH2 6107   2.206   4.957   1.966
 2048TIP3    H1 6108   2.279   4.896   1.962
 2048TIP3    H2 6109   2.243   5.037   2.002
 2049TIP3   OH2 6110   6.604   4.829   5.886
 2049TIP3    H1 6111   6.573   4.791   5.804
 2049TIP3    H2 6112   6.671   4.893   5.860
 2050TIP3   OH2 6113   5.496   1.575   1.086
 2050TIP3    H1 6114   5.424   1.515   1.063
 2050TIP3    H2 6115   5.468   1.660   1.054
 2051TIP3   OH2 6116   1.903   2.026   1.359
 2051TIP3    H1 6117   1.926   1.991   1.445
 2051TIP3    H2 6118   1.829   1.972   1.330
 2052TIP3   OH2 6119   5.298   6.579   4.850
 2052TIP3    H1 6120   5.239   6.505   4.841
 2052TIP3    H2 6121   5.386   6.540   4.847
 2053TIP3   OH2 6122   3.148   0.120   3.050
 2053TIP3    H1 6123   3.228   0.068   3.041
 2053TIP3    H2 6124   3.103   0.084   3.126
 2054TIP3   OH2 6125   2.277   2.824   1.686
 2054TIP3    H1 6126   2.316   2.847   1.602
 2054TIP3    H2 6127   2.252   2.732   1.677
 2055TIP3   OH2 6128   3.248   5.671   1.347
 2055TIP3    H1 6129   3.211   5.715   1.270
 2055TIP3    H2 6130   3.262   5.742   1.410
 2056TIP3   OH2 6131   2.343   4.889   5.636
 2056TIP3    H1 6132   2.310   4.800   5.643
 2056TIP3    H2 6133   2.424   4.881   5.587
 2057TIP3   OH2 6134   1.476   5.075   1.849
 2057TIP3    H1 6135   1.513   4.995   1.887
 2057TIP3    H2 6136   1.549   5.137   1.847
 2058TIP3   OH2 6137   4.069   2.853   1.781
 2058TIP3    H1 6138   4.157   2.829   1.751
 2058TIP3    H2 6139   4.077   2.944   1.809
 2059TIP3   OH2 6140   2.875   3.708   2.296
 2059TIP3    H1 6141   2.887   3.793   2.339
 2059TIP3    H2 6142   2.931   3.648   2.345
 2060TIP3   OH2 6143   5.284   0.062   4.819
 2060TIP3    H1 6144   5.338  -0.013   4.795
 2060TIP3    H2 6145   5.247   0.092   4.736
 2061TIP3   OH2 6146   4.626   3.150   0.131
 2061TIP3    H1 6147   4.548   3.203   0.114
 2061TIP3    H2 6148   4.635   3.151   0.227
 2062TIP3   OH2 6149   3.174   0.796   3.497
 2062TIP3    H1 6150   3.230   0.722   3.522
 2062TIP3    H2 6151   3.152   0.839   3.579
 2063TIP3   OH2 6152   5.736   2.779   4.434
 2063TIP3    H1 6153   5.826   2.750   4.445
 2063TIP3    H2 6154   5.743   2.872   4.410
 2064TIP3   OH2 6155   0.351   1.316   1.235
 2064TIP3    H1 6156   0.299   1.277   1.306
 2064TIP3    H2 6157   0.389   1.395   1.274
 2065TIP3   OH2 6158   1.177   2.375   0.959
 2065TIP3    H1 6159   1.104   2.322   0.991
 2065TIP3    H2 6160   1.254   2.321   0.978
 2066TIP3   OH2 6161   5.637   4.388   1.720
 2066TIP3    H1 6162   5.625   4.296   1.695
 2066TIP3    H2 6163   5.730   4.405   1.705
 2067TIP3   OH2 6164   0.138   1.199   3.245
 2067TIP3    H1 6165   0.136   1.133   3.314
 2067TIP3    H2 6166   0.074   1.265   3.272
 2068TIP3   OH2 6167   6.677   6.288   2.899
 2068TIP3    H1 6168   6.612   6.330   2.843
 2068TIP3    H2 6169   6.699   6.207   2.853
 2069TIP3   OH2 6170   5.383   1.042   4.058
 2069TIP3    H1 6171   5.391   1.052   4.153
 2069TIP3    H2 6172   5.292   1.064   4.038
 2070TIP3   OH2 6173   5.862   6.329   5.611
 2070TIP3    H1 6174   5.842   6.240   5.579
 2070TIP3    H2 6175   5.866   6.382   5.531
 2071TIP3   OH2 6176   6.529   0.168   1.559
 2071TIP3    H1 6177   6.484   0.092   1.595
 2071TIP3    H2 6178   6.622   0.151   1.577
 2072TIP3   OH2 6179   2.603   1.068   5.595
 2072TIP3    H1 6180   2.565   1.156   5.601
 2072TIP3    H2 6181   2.654   1.069   5.514
 2073TIP3   OH2 6182   5.159   2.104   0.513
 2073TIP3    H1 6183   5.238   2.133   0.558
 2073TIP3    H2 6184   5.154   2.010   0.530
 2074TIP3   OH2 6185   1.244   1.500   2.735
 2074TIP3    H1 6186   1.217   1.464   2.819
 2074TIP3    H2 6187   1.269   1.590   2.754
 2075TIP3   OH2 6188   0.052   3.356   2.676
 2075TIP3    H1 6189  -0.031   3.359   2.724
 2075TIP3    H2 6190   0.109   3.417   2.723
 2076TIP3   OH2 6191   6.528   1.920   4.005
 2076TIP3    H1 6192   6.554   1.890   3.918
 2076TIP3    H2 6193   6.555   1.849   4.064
 2077TIP3   OH2 6194   0.813   4.007   5.419
 2077TIP3    H1 6195   0.872   3.939   5.450
 2077TIP3    H2 6196   0.815   3.998   5.324
 2078TIP3   OH2 6197   3.265   4.659   5.172
 2078TIP3    H1 6198   3.252   4.604   5.094
 2078TIP3    H2 6199   3.324   4.608   5.227
 2079TIP3   OH2 6200   5.475   1.416   3.083
 2079TIP3    H1 6201   5.503   1.351   3.148
 2079TIP3    H2 6202   5.451   1.493   3.134
 2080TIP3   OH2 6203   3.978   5.501   4.893
 2080TIP3    H1 6204   4.035   5.560   4.844
 2080TIP3    H2 6205   3.981   5.419   4.844
 2081TIP3   OH2 6206   4.850   4.912   5.253
 2081TIP3    H1 6207   4.832   5.003   5.277
 2081TIP3    H2 6208   4.782   4.862   5.297
 2082TIP3   OH2 6209   2.203   6.446   0.017
 2082TIP3    H1 6210   2.269   6.384  -0.013
 2082TIP3    H2 6211   2.142   6.455  -0.057
 2083TIP3   OH2 6212   2.419   3.700   2.052
 2083TIP3    H1 6213   2.393   3.612   2.027
 2083TIP3    H2 6214   2.506   3.711   2.013
 2084TIP3   OH2 6215   5.057   3.883   4.461
 2084TIP3    H1 6216   5.056   3.795   4.423
 2084TIP3    H2 6217   5.135   3.884   4.516
 2085TIP3   OH2 6218   1.372   0.213   5.156
 2085TIP3    H1 6219   1.397   0.175   5.240
 2085TIP3    H2 6220   1.421   0.163   5.091
 2086TIP3   OH2 6221   2.508   6.623   5.479
 2086TIP3    H1 6222   2.512   6.687   5.551
 2086TIP3    H2 6223   2.428   6.574   5.495
 2087TIP3   OH2 6224   2.831   2.147   1.954
 2087TIP3    H1 6225   2.844   2.117   1.864
 2087TIP3    H2 6226   2.844   2.068   2.008
 2088TIP3   OH2 6227   3.824   5.692   1.153
 2088TIP3    H1 6228   3.890   5.746   1.111
 2088TIP3    H2 6229   3.745   5.746   1.152
 2089TIP3   OH2 6230   5.967   5.081   0.494
 2089TIP3    H1 6231   5.997   4.996   0.461
 2089TIP3    H2 6232   5.974   5.140   0.420
 2090TIP3   OH2 6233   6.367   4.187   1.496
 2090TIP3    H1 6234   6.351   4.160   1.586
 2090TIP3    H2 6235   6.281   4.180   1.453
 2091TIP3   OH2 6236   1.139   6.546   4.860
 2091TIP3    H1 6237   1.168   6.463   4.822
 2091TIP3    H2 6238   1.049   6.529   4.889
 2092TIP3   OH2 6239   4.358   0.577   3.356
 2092TIP3    H1 6240   4.380   0.517   3.285
 2092TIP3    H2 6241   4.264   0.591   3.348
 2093TIP3   OH2 6242   3.173   1.806   5.094
 2093TIP3    H1 6243   3.242   1.782   5.157
 2093TIP3    H2 6244   3.174   1.734   5.030
 2094TIP3   OH2 6245   7.200   0.146   1.110
 2094TIP3    H1 6246   7.206   0.066   1.163
 2094TIP3    H2 6247   7.111   0.178   1.124
 2095TIP3   OH2 6248   1.109   3.485   3.354
 2095TIP3    H1 6249   1.067   3.524   3.431
 2095TIP3    H2 6250   1.195   3.455   3.386
 2096TIP3   OH2 6251   6.497   1.064   5.847
 2096TIP3    H1 6252   6.435   1.134   5.829
 2096TIP3    H2 6253   6.465   1.025   5.929
 2097TIP3   OH2 6254   6.408   0.322   3.093
 2097TIP3    H1 6255   6.402   0.292   3.184
 2097TIP3    H2 6256   6.318   0.319   3.060
 2098TIP3   OH2 6257   6.419   1.440   5.037
 2098TIP3    H1 6258   6.405   1.527   5.000
 2098TIP3    H2 6259   6.333   1.415   5.071
 2099TIP3   OH2 6260   6.094   0.861   3.401
 2099TIP3    H1 6261   6.000   0.845   3.409
 2099TIP3    H2 6262   6.134   0.774   3.406
 2100TIP3   OH2 6263   1.380   1.704   0.909
 2100TIP3    H1 6264   1.353   1.760   0.836
 2100TIP3    H2 6265   1.474   1.718   0.916
 2101TIP3   OH2 6266   4.392   3.888   0.246
 2101TIP3    H1 6267   4.394   3.793   0.254
 2101TIP3    H2 6268   4.445   3.919   0.319
 2102TIP3   OH2 6269   3.593   2.350   0.121
 2102TIP3    H1 6270   3.563   2.385   0.204
 2102TIP3    H2 6271   3.622   2.427   0.071
 2103TIP3   OH2 6272   4.367   6.113   5.191
 2103TIP3    H1 6273   4.325   6.196   5.214
 2103TIP3    H2 6274   4.302   6.046   5.214
 2104TIP3   OH2 6275   0.015   2.118   4.199
 2104TIP3    H1 6276  -0.066   2.115   4.249
 2104TIP3    H2 6277   0.082   2.089   4.260
 2105TIP3   OH2 6278   5.057   1.194   4.310
 2105TIP3    H1 6279   5.069   1.133   4.237
 2105TIP3    H2 6280   5.049   1.137   4.387
 2106TIP3   OH2 6281   3.069   6.370   5.420
 2106TIP3    H1 6282   3.100   6.297   5.474
 2106TIP3    H2 6283   2.999   6.333   5.367
 2107TIP3   OH2 6284   2.923   2.348   0.538
 2107TIP3    H1 6285   2.986   2.406   0.496
 2107TIP3    H2 6286   2.944   2.261   0.506
 2108TIP3   OH2 6287   1.286   3.017   1.821
 2108TIP3    H1 6288   1.241   3.091   1.861
 2108TIP3    H2 6289   1.367   3.055   1.785
 2109TIP3   OH2 6290   4.006   4.404   3.141
 2109TIP3    H1 6291   4.084   4.400   3.085
 2109TIP3    H2 6292   3.951   4.470   3.099
 2110TIP3   OH2 6293   1.694   6.117   3.544
 2110TIP3    H1 6294   1.619   6.069   3.580
 2110TIP3    H2 6295   1.680   6.207   3.573
 2111TIP3   OH2 6296   0.047   5.930   3.972
 2111TIP3    H1 6297   0.015   5.850   3.930
 2111TIP3    H2 6298  -0.003   6.000   3.929
 2112TIP3   OH2 6299   5.440   6.380   2.062
 2112TIP3    H1 6300   5.429   6.473   2.083
 2112TIP3    H2 6301   5.443   6.336   2.147
 2113TIP3   OH2 6302   1.875   1.326   2.592
 2113TIP3    H1 6303   1.871   1.414   2.629
 2113TIP3    H2 6304   1.840   1.269   2.660
 2114TIP3   OH2 6305   6.680   2.793   0.133
 2114TIP3    H1 6306   6.671   2.701   0.158
 2114TIP3    H2 6307   6.639   2.841   0.205
 2115TIP3   OH2 6308   2.613   0.018   2.102
 2115TIP3    H1 6309   2.658   0.014   2.187
 2115TIP3    H2 6310   2.524   0.045   2.123
 2116TIP3   OH2 6311   3.751   3.684   2.867
 2116TIP3    H1 6312   3.678   3.627   2.844
 2116TIP3    H2 6313   3.735   3.708   2.959
 2117TIP3   OH2 6314   6.720   2.104   5.431
 2117TIP3    H1 6315   6.791   2.057   5.388
 2117TIP3    H2 6316   6.673   2.038   5.482
 2118TIP3   OH2 6317   0.865   4.948   1.734
 2118TIP3    H1 6318   0.831   5.024   1.688
 2118TIP3    H2 6319   0.938   4.917   1.680
 2119TIP3   OH2 6320   6.573   2.366   1.081
 2119TIP3    H1 6321   6.637   2.315   1.031
 2119TIP3    H2 6322   6.554   2.312   1.157
 2120TIP3   OH2 6323   2.068   4.476   5.230
 2120TIP3    H1 6324   2.085   4.382   5.226
 2120TIP3    H2 6325   2.034   4.497   5.143
 2121TIP3   OH2 6326   1.306   6.492   5.444
 2121TIP3    H1 6327   1.272   6.581   5.454
 2121TIP3    H2 6328   1.295   6.473   5.351
 2122TIP3   OH2 6329   4.376   2.710   2.972
 2122TIP3    H1 6330   4.452   2.726   2.917
 2122TIP3    H2 6331   4.412   2.697   3.060
 2123TIP3   OH2 6332   3.967   0.228   4.314
 2123TIP3    H1 6333   4.039   0.235   4.377
 2123TIP3    H2 6334   4.007   0.245   4.229
 2124TIP3   OH2 6335   6.219   0.355   1.290
 2124TIP3    H1 6336   6.280   0.427   1.305
 2124TIP3    H2 6337   6.235   0.295   1.363
 2125TIP3   OH2 6338   6.218   2.094   2.099
 2125TIP3    H1 6339   6.194   2.024   2.039
 2125TIP3    H2 6340   6.314   2.088   2.106
 2126TIP3   OH2 6341   5.723   5.733   4.052
 2126TIP3    H1 6342   5.672   5.659   4.021
 2126TIP3    H2 6343   5.685   5.755   4.138
 2127TIP3   OH2 6344   3.541   2.864   0.026
 2127TIP3    H1 6345   3.614   2.856  -0.036
 2127TIP3    H2 6346   3.463   2.871  -0.029
 2128TIP3   OH2 6347   5.415   2.008   2.118
 2128TIP3    H1 6348   5.492   1.981   2.168
 2128TIP3    H2 6349   5.345   1.951   2.150
 2129TIP3   OH2 6350   3.765   5.223   2.211
 2129TIP3    H1 6351   3.792   5.181   2.292
 2129TIP3    H2 6352   3.715   5.299   2.238
 2130TIP3   OH2 6353   0.933   4.611   3.915
 2130TIP3    H1 6354   1.006   4.629   3.974
 2130TIP3    H2 6355   0.962   4.639   3.829
 2131TIP3   OH2 6356   6.946   1.647   3.152
 2131TIP3    H1 6357   6.861   1.617   3.120
 2131TIP3    H2 6358   7.008   1.614   3.087
 2132TIP3   OH2 6359   1.393   0.119   0.500
 2132TIP3    H1 6360   1.478   0.153   0.471
 2132TIP3    H2 6361   1.360   0.069   0.425
 2133TIP3   OH2 6362   2.667   1.428   4.686
 2133TIP3    H1 6363   2.612   1.458   4.758
 2133TIP3    H2 6364   2.731   1.499   4.674
 2134TIP3   OH2 6365   7.072   0.610   4.838
 2134TIP3    H1 6366   7.098   0.604   4.930
 2134TIP3    H2 6367   7.155   0.623   4.791
 2135TIP3   OH2 6368   4.538   6.285   5.058
 2135TIP3    H1 6369   4.523   6.262   4.966
 2135TIP3    H2 6370   4.498   6.214   5.108
 2136TIP3   OH2 6371   1.508   6.423   2.215
 2136TIP3    H1 6372   1.475   6.347   2.168
 2136TIP3    H2 6373   1.511   6.395   2.307
 2137TIP3   OH2 6374   2.077   2.836   0.994
 2137TIP3    H1 6375   2.071   2.816   1.087
 2137TIP3    H2 6376   2.075   2.931   0.989
 2138TIP3   OH2 6377   4.085   2.076   1.202
 2138TIP3    H1 6378   4.106   2.006   1.140
 2138TIP3    H2 6379   3.989   2.078   1.203
 2139TIP3   OH2 6380   4.093   4.617   2.081
 2139TIP3    H1 6381   4.113   4.528   2.112
 2139TIP3    H2 6382   4.178   4.655   2.061
 2140TIP3   OH2 6383   5.170   5.126   2.691
 2140TIP3    H1 6384   5.153   5.032   2.691
 2140TIP3    H2 6385   5.206   5.144   2.604
 2141TIP3   OH2 6386   6.202   4.349   2.507
 2141TIP3    H1 6387   6.292   4.326   2.530
 2141TIP3    H2 6388   6.179   4.290   2.436
 2142TIP3   OH2 6389   1.639   6.800   3.191
 2142TIP3    H1 6390   1.581   6.732   3.158
 2142TIP3    H2 6391   1.688   6.829   3.115
 2143TIP3   OH2 6392   3.235   0.830   0.960
 2143TIP3    H1 6393   3.186   0.798   0.884
 2143TIP3    H2 6394   3.324   0.842   0.927
 2144TIP3   OH2 6395   6.568   2.740   3.195
 2144TIP3    H1 6396   6.629   2.803   3.234
 2144TIP3    H2 6397   6.522   2.702   3.270
 2145TIP3   OH2 6398   3.907   2.665   5.859
 2145TIP3    H1 6399   3.990   2.661   5.906
 2145TIP3    H2 6400   3.869   2.578   5.870
 2146TIP3   OH2 6401   3.808   1.499   1.677
 2146TIP3    H1 6402   3.845   1.427   1.625
 2146TIP3    H2 6403   3.713   1.485   1.672
 2147TIP3   OH2 6404   4.281   6.360   3.081
 2147TIP3    H1 6405   4.271   6.393   2.992
 2147TIP3    H2 6406   4.224   6.417   3.134
 2148TIP3   OH2 6407   2.237   0.529   3.141
 2148TIP3    H1 6408   2.289   0.601   3.176
 2148TIP3    H2 6409   2.287   0.497   3.066
 2149TIP3   OH2 6410   0.720   0.305   5.251
 2149TIP3    H1 6411   0.639   0.283   5.298
 2149TIP3    H2 6412   0.790   0.290   5.314
 2150TIP3   OH2 6413   2.577   4.450   0.507
 2150TIP3    H1 6414   2.606   4.369   0.548
 2150TIP3    H2 6415   2.617   4.520   0.559
 2151TIP3   OH2 6416   6.036   2.304   2.091
 2151TIP3    H1 6417   6.087   2.330   2.014
 2151TIP3    H2 6418   6.084   2.229   2.127
 2152TIP3   OH2 6419   5.472   0.813   1.407
 2152TIP3    H1 6420   5.456   0.777   1.495
 2152TIP3    H2 6421   5.544   0.760   1.373
 2153TIP3   OH2 6422   0.812   4.909   0.059
 2153TIP3    H1 6423   0.725   4.936   0.028
 2153TIP3    H2 6424   0.795   4.835   0.117
 2154TIP3   OH2 6425   5.730   3.435   3.700
 2154TIP3    H1 6426   5.784   3.503   3.739
 2154TIP3    H2 6427   5.691   3.476   3.623
 2155TIP3   OH2 6428   1.191   0.358   0.110
 2155TIP3    H1 6429   1.156   0.414   0.179
 2155TIP3    H2 6430   1.266   0.406   0.076
 2156TIP3   OH2 6431   6.601   4.251   0.230
 2156TIP3    H1 6432   6.576   4.259   0.138
 2156TIP3    H2 6433   6.690   4.218   0.227
 2157TIP3   OH2 6434   2.899   2.092   4.091
 2157TIP3    H1 6435   2.914   2.055   4.179
 2157TIP3    H2 6436   2.979   2.142   4.073
 2158TIP3   OH2 6437   3.982   1.259   1.973
 2158TIP3    H1 6438   3.908   1.226   1.923
 2158TIP3    H2 6439   3.961   1.350   1.991
 2159TIP3   OH2 6440   0.018   4.836   1.911
 2159TIP3    H1 6441   0.019   4.889   1.991
 2159TIP3    H2 6442   0.082   4.878   1.853
 2160TIP3   OH2 6443   5.799   3.505   4.678
 2160TIP3    H1 6444   5.845   3.586   4.654
 2160TIP3    H2 6445   5.865   3.436   4.666
 2161TIP3   OH2 6446   6.962   1.443   5.380
 2161TIP3    H1 6447   7.056   1.449   5.364
 2161TIP3    H2 6448   6.955   1.411   5.470
 2162TIP3   OH2 6449   2.875   1.319   5.245
 2162TIP3    H1 6450   2.913   1.407   5.248
 2162TIP3    H2 6451   2.854   1.305   5.153
 2163TIP3   OH2 6452   0.973   6.389   5.391
 2163TIP3    H1 6453   0.897   6.338   5.417
 2163TIP3    H2 6454   0.946   6.435   5.312
 2164TIP3   OH2 6455   0.900   4.784   3.003
 2164TIP3    H1 6456   0.884   4.692   2.980
 2164TIP3    H2 6457   0.828   4.807   3.061
 2165TIP3   OH2 6458   5.628   2.402   5.263
 2165TIP3    H1 6459   5.566   2.443   5.323
 2165TIP3    H2 6460   5.659   2.324   5.309
 2166TIP3   OH2 6461   3.172   5.351   3.530
 2166TIP3    H1 6462   3.198   5.333   3.440
 2166TIP3    H2 6463   3.217   5.284   3.581
 2167TIP3   OH2 6464   6.195   5.527   1.501
 2167TIP3    H1 6465   6.224   5.516   1.591
 2167TIP3    H2 6466   6.274   5.510   1.448
 2168TIP3   OH2 6467   4.037   0.862   2.192
 2168TIP3    H1 6468   4.117   0.845   2.242
 2168TIP3    H2 6469   4.013   0.777   2.155
 2169TIP3   OH2 6470   3.000   3.442   5.361
 2169TIP3    H1 6471   2.919   3.439   5.310
 2169TIP3    H2 6472   3.023   3.350   5.376
 2170TIP3   OH2 6473   5.897   5.791   3.826
 2170TIP3    H1 6474   5.932   5.880   3.832
 2170TIP3    H2 6475   5.857   5.775   3.912
 2171TIP3   OH2 6476   0.557   0.604   5.095
 2171TIP3    H1 6477   0.547   0.677   5.033
 2171TIP3    H2 6478   0.637   0.560   5.067
 2172TIP3   OH2 6479   0.308   0.825   3.284
 2172TIP3    H1 6480   0.325   0.862   3.198
 2172TIP3    H2 6481   0.274   0.899   3.335
 2173TIP3   OH2 6482   6.924   4.196   3.927
 2173TIP3    H1 6483   6.846   4.177   3.978
 2173TIP3    H2 6484   6.891   4.213   3.838
 2174TIP3   OH2 6485   6.847   0.288   0.348
 2174TIP3    H1 6486   6.854   0.324   0.260
 2174TIP3    H2 6487   6.929   0.241   0.362
 2175TIP3   OH2 6488   0.041   5.251   5.568
 2175TIP3    H1 6489   0.077   5.188   5.630
 2175TIP3    H2 6490   0.114   5.275   5.511
 2176TIP3   OH2 6491   7.121   0.042   3.690
 2176TIP3    H1 6492   7.107   0.135   3.703
 2176TIP3    H2 6493   7.037   0.001   3.715
 2177TIP3   OH2 6494   0.214   1.487   2.797
 2177TIP3    H1 6495   0.153   1.509   2.866
 2177TIP3    H2 6496   0.169   1.512   2.716
 2178TIP3   OH2 6497   2.432   1.041   1.391
 2178TIP3    H1 6498   2.384   0.959   1.399
 2178TIP3    H2 6499   2.484   1.047   1.472
 2179TIP3   OH2 6500   5.444   5.619   1.752
 2179TIP3    H1 6501   5.453   5.530   1.786
 2179TIP3    H2 6502   5.375   5.659   1.806
 2180TIP3   OH2 6503   4.270   0.134   3.635
 2180TIP3    H1 6504   4.294   0.130   3.728
 2180TIP3    H2 6505   4.340   0.087   3.590
 2181TIP3   OH2 6506   6.344   1.789   4.218
 2181TIP3    H1 6507   6.420   1.798   4.277
 2181TIP3    H2 6508   6.289   1.864   4.238
 2182TIP3   OH2 6509   3.859   2.875   4.264
 2182TIP3    H1 6510   3.916   2.810   4.304
 2182TIP3    H2 6511   3.918   2.926   4.207
 2183TIP3   OH2 6512   5.192   0.972   3.433
 2183TIP3    H1 6513   5.139   0.941   3.506
 2183TIP3    H2 6514   5.212   0.892   3.383
 2184TIP3   OH2 6515   2.181   6.723   4.785
 2184TIP3    H1 6516   2.139   6.807   4.799
 2184TIP3    H2 6517   2.172   6.676   4.868
 2185TIP3   OH2 6518   4.825   5.275   0.591
 2185TIP3    H1 6519   4.879   5.350   0.614
 2185TIP3    H2 6520   4.884   5.215   0.545
 2186TIP3   OH2 6521   4.267   5.521   2.174
 2186TIP3    H1 6522   4.181   5.479   2.170
 2186TIP3    H2 6523   4.283   5.536   2.267
 2187TIP3   OH2 6524   1.135   1.505   0.794
 2187TIP3    H1 6525   1.225   1.530   0.775
 2187TIP3    H2 6526   1.088   1.518   0.711
 2188TIP3   OH2 6527   1.859   2.103   4.427
 2188TIP3    H1 6528   1.818   2.189   4.428
 2188TIP3    H2 6529   1.875   2.084   4.335
 2189TIP3   OH2 6530   4.683   5.578   3.056
 2189TIP3    H1 6531   4.744   5.550   3.125
 2189TIP3    H2 6532   4.616   5.510   3.054
 2190TIP3   OH2 6533   5.273   5.876   3.898
 2190TIP3    H1 6534   5.296   5.969   3.903
 2190TIP3    H2 6535   5.345   5.836   3.848
 2191TIP3   OH2 6536   0.405   3.238   0.769
 2191TIP3    H1 6537   0.451   3.322   0.767
 2191TIP3    H2 6538   0.370   3.227   0.681
 2192TIP3   OH2 6539   1.577   2.888   1.610
 2192TIP3    H1 6540   1.672   2.893   1.605
 2192TIP3    H2 6541   1.555   2.935   1.690
 2193TIP3   OH2 6542   6.261   3.303   4.720
 2193TIP3    H1 6543   6.297   3.214   4.716
 2193TIP3    H2 6544   6.289   3.336   4.805
 2194TIP3   OH2 6545   1.786   3.629   5.578
 2194TIP3    H1 6546   1.717   3.629   5.510
 2194TIP3    H2 6547   1.860   3.674   5.537
 2195TIP3   OH2 6548   6.705   3.957   1.794
 2195TIP3    H1 6549   6.799   3.975   1.806
 2195TIP3    H2 6550   6.665   4.043   1.783
 2196TIP3   OH2 6551   5.330   3.530   4.868
 2196TIP3    H1 6552   5.237   3.550   4.862
 2196TIP3    H2 6553   5.372   3.587   4.803
 2197TIP3   OH2 6554   6.345   3.709   4.236
 2197TIP3    H1 6555   6.257   3.684   4.264
 2197TIP3    H2 6556   6.364   3.650   4.163
 2198TIP3   OH2 6557   4.022   6.188   2.214
 2198TIP3    H1 6558   4.097   6.132   2.194
 2198TIP3    H2 6559   3.946   6.135   2.192
 2199TIP3   OH2 6560   0.148   0.659   3.410
 2199TIP3    H1 6561   0.168   0.568   3.432
 2199TIP3    H2 6562   0.233   0.696   3.384
 2200TIP3   OH2 6563   6.699   0.683   3.345
 2200TIP3    H1 6564   6.779   0.733   3.359
 2200TIP3    H2 6565   6.681   0.691   3.251
 2201TIP3   OH2 6566   4.079   4.534   4.204
 2201TIP3    H1 6567   4.084   4.568   4.115
 2201TIP3    H2 6568   4.052   4.443   4.194
 2202TIP3   OH2 6569   6.292   2.250   5.205
 2202TIP3    H1 6570   6.368   2.199   5.232
 2202TIP3    H2 6571   6.296   2.249   5.109
 2203TIP3   OH2 6572   2.321   6.752   2.742
 2203TIP3    H1 6573   2.342   6.811   2.670
 2203TIP3    H2 6574   2.396   6.694   2.748
 2204TIP3   OH2 6575   1.989   1.633   3.668
 2204TIP3    H1 6576   2.055   1.595   3.727
 2204TIP3    H2 6577   2.024   1.616   3.580
 2205TIP3   OH2 6578   3.859   3.484   0.428
 2205TIP3    H1 6579   3.890   3.446   0.346
 2205TIP3    H2 6580   3.907   3.567   0.436
 2206TIP3   OH2 6581   5.349   3.619   5.188
 2206TIP3    H1 6582   5.414   3.689   5.176
 2206TIP3    H2 6583   5.367   3.558   5.117
 2207TIP3   OH2 6584   5.598   5.254   1.501
 2207TIP3    H1 6585   5.678   5.261   1.450
 2207TIP3    H2 6586   5.553   5.177   1.466
 2208TIP3   OH2 6587   7.222   4.611   4.224
 2208TIP3    H1 6588   7.194   4.700   4.204
 2208TIP3    H2 6589   7.142   4.559   4.222
 2209TIP3   OH2 6590   0.010   0.342   5.320
 2209TIP3    H1 6591   0.017   0.346   5.415
 2209TIP3    H2 6592   0.061   0.264   5.296
 2210TIP3   OH2 6593   3.464   1.484   0.679
 2210TIP3    H1 6594   3.530   1.496   0.747
 2210TIP3    H2 6595   3.483   1.553   0.616
 2211TIP3   OH2 6596   5.550   5.284   4.027
 2211TIP3    H1 6597   5.575   5.373   4.003
 2211TIP3    H2 6598   5.458   5.277   4.002
 2212TIP3   OH2 6599   1.272   3.916   5.835
 2212TIP3    H1 6600   1.190   3.931   5.788
 2212TIP3    H2 6601   1.248   3.860   5.908
 2213TIP3   OH2 6602   7.180   6.163   5.690
 2213TIP3    H1 6603   7.144   6.083   5.728
 2213TIP3    H2 6604   7.201   6.218   5.765
 2214TIP3   OH2 6605   2.797   1.700   1.203
 2214TIP3    H1 6606   2.712   1.685   1.162
 2214TIP3    H2 6607   2.846   1.752   1.139
 2215TIP3   OH2 6608   7.106   4.091   5.035
 2215TIP3    H1 6609   7.168   4.080   5.108
 2215TIP3    H2 6610   7.028   4.043   5.063
 2216TIP3   OH2 6611   0.051   4.557   0.663
 2216TIP3    H1 6612   0.137   4.557   0.621
 2216TIP3    H2 6613   0.031   4.650   0.677
 2217TIP3   OH2 6614   6.314   0.905   3.950
 2217TIP3    H1 6615   6.356   0.961   3.885
 2217TIP3    H2 6616   6.257   0.963   3.999
 2218TIP3   OH2 6617   4.084   0.826   1.291
 2218TIP3    H1 6618   4.118   0.879   1.219
 2218TIP3    H2 6619   4.162   0.806   1.344
 2219TIP3   OH2 6620   2.616   5.189   3.291
 2219TIP3    H1 6621   2.561   5.177   3.214
 2219TIP3    H2 6622   2.578   5.132   3.358
 2220TIP3   OH2 6623   6.110   3.084   3.738
 2220TIP3    H1 6624   6.081   3.158   3.792
 2220TIP3    H2 6625   6.202   3.103   3.718
 2221TIP3   OH2 6626   3.243   5.806   3.380
 2221TIP3    H1 6627   3.191   5.767   3.310
 2221TIP3    H2 6628   3.333   5.798   3.351
 2222TIP3   OH2 6629   3.256   4.008   0.211
 2222TIP3    H1 6630   3.321   3.940   0.193
 2222TIP3    H2 6631   3.272   4.032   0.302
 2223TIP3   OH2 6632   4.682   4.687   2.731
 2223TIP3    H1 6633   4.646   4.770   2.701
 2223TIP3    H2 6634   4.750   4.665   2.667
 2224TIP3   OH2 6635   3.113   5.533   2.055
 2224TIP3    H1 6636   3.096   5.545   2.149
 2224TIP3    H2 6637   3.201   5.496   2.051
 2225TIP3   OH2 6638   2.015   4.328   4.342
 2225TIP3    H1 6639   2.025   4.322   4.247
 2225TIP3    H2 6640   1.962   4.252   4.365
 2226TIP3   OH2 6641   2.212   5.974   1.038
 2226TIP3    H1 6642   2.237   6.041   0.974
 2226TIP3    H2 6643   2.144   6.015   1.091
 2227TIP3   OH2 6644   4.607   2.116   0.542
 2227TIP3    H1 6645   4.587   2.171   0.617
 2227TIP3    H2 6646   4.551   2.039   0.553
 2228TIP3   OH2 6647   5.363   5.261   2.852
 2228TIP3    H1 6648   5.304   5.217   2.791
 2228TIP3    H2 6649   5.394   5.338   2.803
 2229TIP3   OH2 6650   4.911   5.188   5.586
 2229TIP3    H1 6651   4.829   5.157   5.625
 2229TIP3    H2 6652   4.966   5.210   5.661
 2230TIP3   OH2 6653   2.049   6.528   3.294
 2230TIP3    H1 6654   1.975   6.589   3.290
 2230TIP3    H2 6655   2.123   6.581   3.322
 2231TIP3   OH2 6656   4.026   4.100   1.359
 2231TIP3    H1 6657   3.951   4.046   1.333
 2231TIP3    H2 6658   4.086   4.038   1.401
 2232TIP3   OH2 6659   3.229   6.019   3.027
 2232TIP3    H1 6660   3.241   6.096   3.083
 2232TIP3    H2 6661   3.149   6.038   2.977
 2233TIP3   OH2 6662   1.649   5.874   5.317
 2233TIP3    H1 6663   1.706   5.891   5.242
 2233TIP3    H2 6664   1.626   5.961   5.349
 2234TIP3   OH2 6665   6.733   4.146   3.634
 2234TIP3    H1 6666   6.718   4.084   3.562
 2234TIP3    H2 6667   6.731   4.232   3.592
 2235TIP3   OH2 6668   2.996   2.227   4.945
 2235TIP3    H1 6669   2.950   2.290   5.000
 2235TIP3    H2 6670   3.005   2.149   5.001
 2236TIP3   OH2 6671   2.811   5.621   5.679
 2236TIP3    H1 6672   2.818   5.713   5.703
 2236TIP3    H2 6673   2.890   5.604   5.627
 2237TIP3   OH2 6674   1.210   2.910   3.326
 2237TIP3    H1 6675   1.269   2.972   3.368
 2237TIP3    H2 6676   1.252   2.825   3.337
 2238TIP3   OH2 6677   7.167   5.899   1.071
 2238TIP3    H1 6678   7.076   5.913   1.097
 2238TIP3    H2 6679   7.165   5.901   0.975
 2239TIP3   OH2 6680   3.763   6.152   0.751
 2239TIP3    H1 6681   3.821   6.162   0.827
 2239TIP3    H2 6682   3.725   6.239   0.738
 2240TIP3   OH2 6683   6.472   5.547   2.887
 2240TIP3    H1 6684   6.496   5.472   2.941
 2240TIP3    H2 6685   6.511   5.529   2.802
 2241TIP3   OH2 6686   5.888   1.503   5.100
 2241TIP3    H1 6687   5.831   1.563   5.051
 2241TIP3    H2 6688   5.943   1.561   5.153
 2242TIP3   OH2 6689   0.201   2.676   2.886
 2242TIP3    H1 6690   0.143   2.633   2.824
 2242TIP3    H2 6691   0.211   2.765   2.853
 2243TIP3   OH2 6692   4.665   3.445   3.027
 2243TIP3    H1 6693   4.692   3.353   3.031
 2243TIP3    H2 6694   4.665   3.466   2.934
 2244TIP3   OH2 6695   4.508   2.219   3.200
 2244TIP3    H1 6696   4.525   2.275   3.276
 2244TIP3    H2 6697   4.530   2.274   3.124
 2245TIP3   OH2 6698   4.328   4.748   2.338
 2245TIP3    H1 6699   4.344   4.706   2.423
 2245TIP3    H2 6700   4.333   4.677   2.275
 2246TIP3   OH2 6701   2.687   4.894   2.887
 2246TIP3    H1 6702   2.751   4.833   2.850
 2246TIP3    H2 6703   2.661   4.949   2.813
 2247TIP3   OH2 6704   2.312   3.854   5.067
 2247TIP3    H1 6705   2.317   3.888   4.978
 2247TIP3    H2 6706   2.390   3.799   5.076
 2248TIP3   OH2 6707   5.189   2.540   4.864
 2248TIP3    H1 6708   5.114   2.513   4.811
 2248TIP3    H2 6709   5.239   2.599   4.807
 2249TIP3   OH2 6710   0.609   6.521   5.419
 2249TIP3    H1 6711   0.647   6.601   5.456
 2249TIP3    H2 6712   0.552   6.487   5.489
 2250TIP3   OH2 6713   4.958   0.205   1.619
 2250TIP3    H1 6714   4.921   0.248   1.696
 2250TIP3    H2 6715   4.908   0.240   1.546
 2251TIP3   OH2 6716   1.643   5.869   2.421
 2251TIP3    H1 6717   1.617   5.852   2.511
 2251TIP3    H2 6718   1.719   5.812   2.407
 2252TIP3   OH2 6719   2.881   1.113   3.431
 2252TIP3    H1 6720   2.961   1.081   3.391
 2252TIP3    H2 6721   2.855   1.187   3.376
 2253TIP3   OH2 6722   3.999   2.112   3.764
 2253TIP3    H1 6723   3.963   2.199   3.750
 2253TIP3    H2 6724   3.923   2.054   3.770
 2254TIP3   OH2 6725   2.623   2.169   2.724
 2254TIP3    H1 6726   2.677   2.195   2.799
 2254TIP3    H2 6727   2.605   2.076   2.738
 2255TIP3   OH2 6728   0.017   2.355   1.072
 2255TIP3    H1 6729   0.090   2.324   1.019
 2255TIP3    H2 6730   0.051   2.434   1.115
 2256TIP3   OH2 6731   3.020   6.585   3.101
 2256TIP3    H1 6732   2.932   6.576   3.063
 2256TIP3    H2 6733   3.041   6.497   3.132
 2257TIP3   OH2 6734   6.618   0.445   5.870
 2257TIP3    H1 6735   6.650   0.381   5.806
 2257TIP3    H2 6736   6.542   0.401   5.911
 2258TIP3   OH2 6737   3.376   5.162   4.951
 2258TIP3    H1 6738   3.329   5.191   5.029
 2258TIP3    H2 6739   3.329   5.202   4.878
 2259TIP3   OH2 6740   4.033   4.807   1.808
 2259TIP3    H1 6741   4.107   4.837   1.861
 2259TIP3    H2 6742   3.960   4.800   1.871
 2260TIP3   OH2 6743   4.961   1.801   4.290
 2260TIP3    H1 6744   4.884   1.834   4.244
 2260TIP3    H2 6745   5.016   1.879   4.303
 2261TIP3   OH2 6746   2.735   3.649   0.119
 2261TIP3    H1 6747   2.649   3.676   0.087
 2261TIP3    H2 6748   2.725   3.557   0.142
 2262TIP3   OH2 6749   5.961   4.146   4.778
 2262TIP3    H1 6750   5.866   4.132   4.771
 2262TIP3    H2 6751   5.970   4.217   4.841
 2263TIP3   OH2 6752   3.211   2.433   0.682
 2263TIP3    H1 6753   3.146   2.366   0.704
 2263TIP3    H2 6754   3.274   2.429   0.753
 2264TIP3   OH2 6755   1.358   2.042   0.037
 2264TIP3    H1 6756   1.265   2.018   0.037
 2264TIP3    H2 6757   1.404   1.959   0.043
 2265TIP3   OH2 6758   7.108   2.598   1.275
 2265TIP3    H1 6759   7.106   2.642   1.189
 2265TIP3    H2 6760   7.099   2.505   1.254
 2266TIP3   OH2 6761   4.316   5.491   1.565
 2266TIP3    H1 6762   4.253   5.563   1.565
 2266TIP3    H2 6763   4.327   5.469   1.473
 2267TIP3   OH2 6764   6.016   2.699   5.131
 2267TIP3    H1 6765   5.971   2.782   5.141
 2267TIP3    H2 6766   6.014   2.659   5.218
 2268TIP3   OH2 6767   5.404   0.525   0.395
 2268TIP3    H1 6768   5.495   0.499   0.380
 2268TIP3    H2 6769   5.384   0.494   0.483
 2269TIP3   OH2 6770   1.640   0.607   5.100
 2269TIP3    H1 6771   1.633   0.667   5.025
 2269TIP3    H2 6772   1.558   0.620   5.148
 2270TIP3   OH2 6773   2.224   5.091   2.607
 2270TIP3    H1 6774   2.186   5.030   2.670
 2270TIP3    H2 6775   2.262   5.161   2.660
 2271TIP3   OH2 6776   2.471   1.848   1.315
 2271TIP3    H1 6777   2.475   1.930   1.266
 2271TIP3    H2 6778   2.496   1.781   1.252
 2272TIP3   OH2 6779   0.062   5.318   4.635
 2272TIP3    H1 6780   0.075   5.410   4.614
 2272TIP3    H2 6781  -0.011   5.317   4.697
 2273TIP3   OH2 6782   0.739   0.357   3.407
 2273TIP3    H1 6783   0.751   0.318   3.321
 2273TIP3    H2 6784   0.827   0.383   3.435
 2274TIP3   OH2 6785   6.985   0.053   2.824
 2274TIP3    H1 6786   7.032   0.134   2.839
 2274TIP3    H2 6787   6.894   0.079   2.812
 2275TIP3   OH2 6788   4.812   5.099   5.855
 2275TIP3    H1 6789   4.724   5.135   5.853
 2275TIP3    H2 6790   4.800   5.006   5.834
 2276TIP3   OH2 6791   6.264   5.416   3.502
 2276TIP3    H1 6792   6.358   5.402   3.513
 2276TIP3    H2 6793   6.224   5.344   3.552
 2277TIP3   OH2 6794   1.496   1.450   2.619
 2277TIP3    H1 6795   1.402   1.466   2.625
 2277TIP3    H2 6796   1.525   1.444   2.710
 2278TIP3   OH2 6797   6.288   2.753   2.063
 2278TIP3    H1 6798   6.318   2.675   2.109
 2278TIP3    H2 6799   6.200   2.729   2.032
 2279TIP3   OH2 6800   0.629   6.250   2.856
 2279TIP3    H1 6801   0.677   6.294   2.786
 2279TIP3    H2 6802   0.643   6.156   2.839
 2280TIP3   OH2 6803   2.612   0.611   1.305
 2280TIP3    H1 6804   2.638   0.702   1.312
 2280TIP3    H2 6805   2.527   0.607   1.351
 2281TIP3   OH2 6806   6.655   1.212   0.953
 2281TIP3    H1 6807   6.614   1.216   0.867
 2281TIP3    H2 6808   6.744   1.181   0.936
 2282TIP3   OH2 6809   1.280   5.338   3.519
 2282TIP3    H1 6810   1.229   5.326   3.439
 2282TIP3    H2 6811   1.303   5.430   3.520
 2283TIP3   OH2 6812   5.402   2.199   1.307
 2283TIP3    H1 6813   5.342   2.255   1.258
 2283TIP3    H2 6814   5.457   2.159   1.240
 2284TIP3   OH2 6815   4.342   3.065   2.526
 2284TIP3    H1 6816   4.387   3.147   2.546
 2284TIP3    H2 6817   4.260   3.070   2.574
 2285TIP3   OH2 6818   0.362   5.915   5.397
 2285TIP3    H1 6819   0.407   5.886   5.318
 2285TIP3    H2 6820   0.425   5.900   5.467
 2286TIP3   OH2 6821   4.398   4.102   2.640
 2286TIP3    H1 6822   4.339   4.035   2.673
 2286TIP3    H2 6823   4.456   4.056   2.579
 2287TIP3   OH2 6824   6.973   2.088   3.859
 2287TIP3    H1 6825   6.992   2.169   3.811
 2287TIP3    H2 6826   6.883   2.066   3.833
 2288TIP3   OH2 6827   2.424   1.442   3.655
 2288TIP3    H1 6828   2.365   1.403   3.590
 2288TIP3    H2 6829   2.381   1.524   3.680
 2289TIP3   OH2 6830   4.800   1.165   4.554
 2289TIP3    H1 6831   4.855   1.127   4.622
 2289TIP3    H2 6832   4.761   1.242   4.595
 2290TIP3   OH2 6833   0.190   5.844   0.885
 2290TIP3    H1 6834   0.137   5.855   0.806
 2290TIP3    H2 6835   0.231   5.930   0.898
 2291TIP3   OH2 6836   3.829   4.263   0.829
 2291TIP3    H1 6837   3.827   4.349   0.872
 2291TIP3    H2 6838   3.815   4.283   0.736
 2292TIP3   OH2 6839   0.745   6.062   0.539
 2292TIP3    H1 6840   0.796   5.981   0.539
 2292TIP3    H2 6841   0.707   6.066   0.451
 2293TIP3   OH2 6842   1.474   4.968   1.407
 2293TIP3    H1 6843   1.412   4.984   1.479
 2293TIP3    H2 6844   1.551   5.020   1.429
 2294TIP3   OH2 6845   0.909   5.903   5.406
 2294TIP3    H1 6846   0.870   5.989   5.420
 2294TIP3    H2 6847   0.847   5.858   5.349
 2295TIP3   OH2 6848   1.253   4.553   5.266
 2295TIP3    H1 6849   1.328   4.575   5.210
 2295TIP3    H2 6850   1.247   4.458   5.261
 2296TIP3   OH2 6851   5.595   3.067   1.853
 2296TIP3    H1 6852   5.657   3.052   1.924
 2296TIP3    H2 6853   5.617   3.153   1.818
 2297TIP3   OH2 6854   3.528   2.050   1.764
 2297TIP3    H1 6855   3.508   2.000   1.686
 2297TIP3    H2 6856   3.520   2.142   1.737
 2298TIP3   OH2 6857   1.314   5.971   2.148
 2298TIP3    H1 6858   1.273   5.891   2.179
 2298TIP3    H2 6859   1.287   5.979   2.056
 2299TIP3   OH2 6860   6.901   3.411   3.591
 2299TIP3    H1 6861   6.910   3.488   3.648
 2299TIP3    H2 6862   6.946   3.436   3.511
 2300TIP3   OH2 6863   2.856   1.749   5.377
 2300TIP3    H1 6864   2.807   1.703   5.445
 2300TIP3    H2 6865   2.906   1.680   5.333
 2301TIP3   OH2 6866   2.856   4.330   5.866
 2301TIP3    H1 6867   2.925   4.264   5.876
 2301TIP3    H2 6868   2.781   4.293   5.913
 2302TIP3   OH2 6869   0.291   5.410   1.343
 2302TIP3    H1 6870   0.324   5.333   1.297
 2302TIP3    H2 6871   0.352   5.480   1.318
 2303TIP3   OH2 6872   5.580   4.124   5.735
 2303TIP3    H1 6873   5.649   4.079   5.783
 2303TIP3    H2 6874   5.584   4.214   5.765
 2304TIP3   OH2 6875   1.859   5.180   1.141
 2304TIP3    H1 6876   1.840   5.121   1.069
 2304TIP3    H2 6877   1.888   5.123   1.213
 2305TIP3   OH2 6878   2.880   4.908   5.722
 2305TIP3    H1 6879   2.834   4.929   5.803
 2305TIP3    H2 6880   2.812   4.902   5.656
 2306TIP3   OH2 6881   3.527   5.787   5.848
 2306TIP3    H1 6882   3.503   5.878   5.833
 2306TIP3    H2 6883   3.621   5.790   5.866
 2307TIP3   OH2 6884   6.457   6.741   3.898
 2307TIP3    H1 6885   6.471   6.799   3.972
 2307TIP3    H2 6886   6.363   6.742   3.883
 2308TIP3   OH2 6887   5.138   0.970   5.680
 2308TIP3    H1 6888   5.067   1.012   5.630
 2308TIP3    H2 6889   5.182   0.914   5.617
 2309TIP3   OH2 6890   6.658   0.434   2.737
 2309TIP3    H1 6891   6.575   0.482   2.736
 2309TIP3    H2 6892   6.719   0.493   2.781
 2310TIP3   OH2 6893   1.215   6.782   5.472
 2310TIP3    H1 6894   1.283   6.777   5.540
 2310TIP3    H2 6895   1.195   6.875   5.466
 2311TIP3   OH2 6896   6.641   5.147   1.522
 2311TIP3    H1 6897   6.599   5.220   1.476
 2311TIP3    H2 6898   6.721   5.184   1.558
 2312TIP3   OH2 6899   0.636   3.332   0.350
 2312TIP3    H1 6900   0.684   3.293   0.278
 2312TIP3    H2 6901   0.575   3.264   0.378
 2313TIP3   OH2 6902   2.163   3.320   2.936
 2313TIP3    H1 6903   2.172   3.312   2.841
 2313TIP3    H2 6904   2.253   3.335   2.967
 2314TIP3   OH2 6905   1.381   0.392   4.928
 2314TIP3    H1 6906   1.452   0.355   4.874
 2314TIP3    H2 6907   1.408   0.375   5.018
 2315TIP3   OH2 6908   0.909   1.760   0.224
 2315TIP3    H1 6909   0.917   1.732   0.316
 2315TIP3    H2 6910   0.932   1.681   0.174
 2316TIP3   OH2 6911   6.831   0.132   5.866
 2316TIP3    H1 6912   6.911   0.114   5.816
 2316TIP3    H2 6913   6.801   0.046   5.895
 2317TIP3   OH2 6914   5.071   3.150   4.834
 2317TIP3    H1 6915   5.100   3.217   4.772
 2317TIP3    H2 6916   5.151   3.105   4.860
 2318TIP3   OH2 6917   5.330   3.368   3.254
 2318TIP3    H1 6918   5.252   3.416   3.227
 2318TIP3    H2 6919   5.366   3.333   3.172
 2319TIP3   OH2 6920   4.955   2.864   4.941
 2319TIP3    H1 6921   5.021   2.931   4.959
 2319TIP3    H2 6922   4.951   2.858   4.846
 2320TIP3   OH2 6923   3.556   0.770   4.081
 2320TIP3    H1 6924   3.595   0.707   4.021
 2320TIP3    H2 6925   3.473   0.730   4.107
 2321TIP3   OH2 6926   4.081   3.765   0.614
 2321TIP3    H1 6927   4.049   3.760   0.524
 2321TIP3    H2 6928   4.028   3.834   0.655
 2322TIP3   OH2 6929   7.111   4.613   3.078
 2322TIP3    H1 6930   7.182   4.677   3.079
 2322TIP3    H2 6931   7.114   4.572   3.165
 2323TIP3   OH2 6932   1.881   4.674   3.304
 2323TIP3    H1 6933   1.829   4.599   3.334
 2323TIP3    H2 6934   1.830   4.713   3.233
 2324TIP3   OH2 6935   2.070   0.293   5.837
 2324TIP3    H1 6936   2.098   0.201   5.838
 2324TIP3    H2 6937   2.117   0.333   5.910
 2325TIP3   OH2 6938   3.113   2.516   2.547
 2325TIP3    H1 6939   3.047   2.585   2.553
 2325TIP3    H2 6940   3.071   2.440   2.588
 2326TIP3   OH2 6941   2.204   3.651   5.643
 2326TIP3    H1 6942   2.155   3.573   5.666
 2326TIP3    H2 6943   2.140   3.710   5.604
 2327TIP3   OH2 6944   5.508   0.383   2.006
 2327TIP3    H1 6945   5.445   0.453   1.988
 2327TIP3    H2 6946   5.580   0.426   2.052
 2328TIP3   OH2 6947   4.063   5.645   1.538
 2328TIP3    H1 6948   4.031   5.732   1.562
 2328TIP3    H2 6949   4.100   5.656   1.451
 2329TIP3   OH2 6950   3.923   6.609   0.245
 2329TIP3    H1 6951   3.874   6.532   0.272
 2329TIP3    H2 6952   3.859   6.680   0.243
 2330TIP3   OH2 6953   5.548   3.815   2.676
 2330TIP3    H1 6954   5.564   3.867   2.597
 2330TIP3    H2 6955   5.506   3.876   2.736
 2331TIP3   OH2 6956   7.014   0.645   4.416
 2331TIP3    H1 6957   7.085   0.687   4.368
 2331TIP3    H2 6958   6.942   0.642   4.353
 2332TIP3   OH2 6959   2.217   1.651   3.454
 2332TIP3    H1 6960   2.217   1.682   3.364
 2332TIP3    H2 6961   2.273   1.712   3.501
 2333TIP3   OH2 6962   5.040   5.165   0.942
 2333TIP3    H1 6963   5.059   5.237   0.881
 2333TIP3    H2 6964   4.963   5.122   0.905
 2334TIP3   OH2 6965   4.282   6.211   1.495
 2334TIP3    H1 6966   4.372   6.223   1.463
 2334TIP3    H2 6967   4.230   6.274   1.444
 2335TIP3   OH2 6968   0.409   4.484   0.613
 2335TIP3    H1 6969   0.342   4.483   0.545
 2335TIP3    H2 6970   0.492   4.481   0.566
 2336TIP3   OH2 6971   0.514   3.868   0.536
 2336TIP3    H1 6972   0.459   3.790   0.533
 2336TIP3    H2 6973   0.541   3.874   0.628
 2337TIP3   OH2 6974   1.265   5.402   2.633
 2337TIP3    H1 6975   1.208   5.358   2.696
 2337TIP3    H2 6976   1.353   5.394   2.671
 2338TIP3   OH2 6977   5.044   0.938   1.351
 2338TIP3    H1 6978   5.117   0.876   1.353
 2338TIP3    H2 6979   4.974   0.894   1.398
 2339TIP3   OH2 6980   0.753   0.913   0.211
 2339TIP3    H1 6981   0.719   0.859   0.283
 2339TIP3    H2 6982   0.725   1.002   0.232
 2340TIP3   OH2 6983   3.467   4.797   1.636
 2340TIP3    H1 6984   3.463   4.795   1.540
 2340TIP3    H2 6985   3.533   4.864   1.655
 2341TIP3   OH2 6986   1.254   0.276   4.248
 2341TIP3    H1 6987   1.279   0.280   4.341
 2341TIP3    H2 6988   1.192   0.348   4.237
 2342TIP3   OH2 6989   4.794   4.782   1.531
 2342TIP3    H1 6990   4.881   4.805   1.564
 2342TIP3    H2 6991   4.811   4.721   1.459
 2343TIP3   OH2 6992   0.507   1.963   1.394
 2343TIP3    H1 6993   0.463   2.046   1.376
 2343TIP3    H2 6994   0.584   1.988   1.446
 2344TIP3   OH2 6995   5.808   1.224   0.919
 2344TIP3    H1 6996   5.897   1.225   0.882
 2344TIP3    H2 6997   5.763   1.157   0.868
 2345TIP3   OH2 6998   0.723   1.027   4.123
 2345TIP3    H1 6999   0.688   0.969   4.055
 2345TIP3    H2 7000   0.807   0.988   4.147
 2346TIP3   OH2 7001   3.500   1.847   4.390
 2346TIP3    H1 7002   3.505   1.922   4.449
 2346TIP3    H2 7003   3.587   1.809   4.392
 2347TIP3   OH2 7004   2.586   1.952   4.505
 2347TIP3    H1 7005   2.644   1.883   4.473
 2347TIP3    H2 7006   2.642   2.009   4.558
 2348TIP3   OH2 7007   4.141   3.458   3.419
 2348TIP3    H1 7008   4.062   3.506   3.398
 2348TIP3    H2 7009   4.142   3.384   3.358
 2349TIP3   OH2 7010   4.158   5.426   5.588
 2349TIP3    H1 7011   4.123   5.461   5.506
 2349TIP3    H2 7012   4.085   5.432   5.650
 2350TIP3   OH2 7013   3.669   2.331   4.897
 2350TIP3    H1 7014   3.595   2.391   4.886
 2350TIP3    H2 7015   3.630   2.244   4.895
 2351TIP3   OH2 7016   2.746   0.961   3.885
 2351TIP3    H1 7017   2.741   0.999   3.973
 2351TIP3    H2 7018   2.752   1.035   3.826
 2352TIP3   OH2 7019   4.369   2.754   3.602
 2352TIP3    H1 7020   4.376   2.832   3.547
 2352TIP3    H2 7021   4.296   2.705   3.564
 2353TIP3   OH2 7022   6.944   2.349   2.196
 2353TIP3    H1 7023   7.013   2.344   2.130
 2353TIP3    H2 7024   6.971   2.419   2.254
 2354TIP3   OH2 7025   6.741   5.853   5.092
 2354TIP3    H1 7026   6.651   5.880   5.108
 2354TIP3    H2 7027   6.751   5.771   5.140
 2355TIP3   OH2 7028   1.732   3.329   3.764
 2355TIP3    H1 7029   1.817   3.292   3.740
 2355TIP3    H2 7030   1.720   3.303   3.855
 2356TIP3   OH2 7031   3.057   5.207   1.564
 2356TIP3    H1 7032   3.081   5.274   1.627
 2356TIP3    H2 7033   3.052   5.126   1.615
 2357TIP3   OH2 7034   4.592   3.355   2.068
 2357TIP3    H1 7035   4.656   3.404   2.016
 2357TIP3    H2 7036   4.629   3.353   2.156
 2358TIP3   OH2 7037   2.932   4.003   0.706
 2358TIP3    H1 7038   2.864   3.959   0.656
 2358TIP3    H2 7039   2.885   4.067   0.759
 2359TIP3   OH2 7040   6.634   6.218   1.817
 2359TIP3    H1 7041   6.713   6.212   1.764
 2359TIP3    H2 7042   6.565   6.181   1.762
 2360TIP3   OH2 7043   4.159   1.155   5.799
 2360TIP3    H1 7044   4.082   1.103   5.777
 2360TIP3    H2 7045   4.162   1.224   5.734
 2361TIP3   OH2 7046   6.789   0.786   5.358
 2361TIP3    H1 7047   6.719   0.748   5.304
 2361TIP3    H2 7048   6.751   0.867   5.393
 2362TIP3   OH2 7049   1.123   1.287   4.295
 2362TIP3    H1 7050   1.144   1.198   4.320
 2362TIP3    H2 7051   1.038   1.280   4.251
 2363TIP3   OH2 7052   4.743   2.649   1.453
 2363TIP3    H1 7053   4.707   2.560   1.451
 2363TIP3    H2 7054   4.793   2.656   1.371
 2364TIP3   OH2 7055   0.021   4.927   3.695
 2364TIP3    H1 7056   0.094   4.889   3.744
 2364TIP3    H2 7057  -0.057   4.899   3.743
 2365TIP3   OH2 7058   0.049   0.434   3.746
 2365TIP3    H1 7059   0.103   0.408   3.820
 2365TIP3    H2 7060   0.055   0.362   3.684
 2366TIP3   OH2 7061   0.998   2.851   5.748
 2366TIP3    H1 7062   1.008   2.813   5.835
 2366TIP3    H2 7063   0.906   2.836   5.726
 2367TIP3   OH2 7064   0.381   1.149   5.714
 2367TIP3    H1 7065   0.349   1.086   5.778
 2367TIP3    H2 7066   0.473   1.162   5.737
 2368TIP3   OH2 7067   0.681   4.475   1.475
 2368TIP3    H1 7068   0.639   4.390   1.488
 2368TIP3    H2 7069   0.638   4.533   1.539
 2369TIP3   OH2 7070   5.956   6.040   4.324
 2369TIP3    H1 7071   5.981   6.132   4.315
 2369TIP3    H2 7072   5.868   6.043   4.363
 2370TIP3   OH2 7073   6.616   6.226   4.033
 2370TIP3    H1 7074   6.652   6.227   3.944
 2370TIP3    H2 7075   6.638   6.313   4.068
 2371TIP3   OH2 7076   3.626   4.234   0.985
 2371TIP3    H1 7077   3.668   4.215   1.069
 2371TIP3    H2 7078   3.696   4.228   0.921
 2372TIP3   OH2 7079   1.856   5.582   3.527
 2372TIP3    H1 7080   1.860   5.659   3.583
 2372TIP3    H2 7081   1.878   5.509   3.585
 2373TIP3   OH2 7082   2.323   0.771   2.929
 2373TIP3    H1 7083   2.376   0.850   2.941
 2373TIP3    H2 7084   2.384   0.706   2.895
 2374TIP3   OH2 7085   4.368   1.051   4.996
 2374TIP3    H1 7086   4.462   1.062   4.983
 2374TIP3    H2 7087   4.360   1.034   5.090
 2375TIP3   OH2 7088   0.970   6.521   1.533
 2375TIP3    H1 7089   0.975   6.489   1.443
 2375TIP3    H2 7090   1.054   6.497   1.571
 2376TIP3   OH2 7091   4.425   2.506   4.942
 2376TIP3    H1 7092   4.369   2.431   4.959
 2376TIP3    H2 7093   4.514   2.469   4.938
 2377TIP3   OH2 7094   5.280   0.721   1.773
 2377TIP3    H1 7095   5.358   0.698   1.723
 2377TIP3    H2 7096   5.209   0.675   1.727
 2378TIP3   OH2 7097   4.113   4.586   5.210
 2378TIP3    H1 7098   4.030   4.620   5.244
 2378TIP3    H2 7099   4.130   4.638   5.132
 2379TIP3   OH2 7100   1.959   5.537   1.217
 2379TIP3    H1 7101   2.008   5.454   1.219
 2379TIP3    H2 7102   1.872   5.513   1.248
 2380TIP3   OH2 7103   5.037   1.428   1.202
 2380TIP3    H1 7104   4.968   1.381   1.154
 2380TIP3    H2 7105   5.037   1.516   1.165
 2381TIP3   OH2 7106   1.762   4.870   2.755
 2381TIP3    H1 7107   1.797   4.934   2.816
 2381TIP3    H2 7108   1.828   4.864   2.685
 2382TIP3   OH2 7109   2.321   5.880   5.285
 2382TIP3    H1 7110   2.282   5.841   5.363
 2382TIP3    H2 7111   2.301   5.818   5.214
 2383TIP3   OH2 7112   6.712   1.527   3.069
 2383TIP3    H1 7113   6.674   1.610   3.097
 2383TIP3    H2 7114   6.667   1.507   2.987
 2384TIP3   OH2 7115   0.753   0.234   2.355
 2384TIP3    H1 7116   0.731   0.170   2.423
 2384TIP3    H2 7117   0.835   0.273   2.384
 2385TIP3   OH2 7118   2.749   1.815   2.105
 2385TIP3    H1 7119   2.698   1.834   2.184
 2385TIP3    H2 7120   2.793   1.732   2.124
 2386TIP3   OH2 7121   1.206   5.659   3.388
 2386TIP3    H1 7122   1.280   5.611   3.350
 2386TIP3    H2 7123   1.197   5.621   3.476
 2387TIP3   OH2 7124   1.084   6.429   2.653
 2387TIP3    H1 7125   1.030   6.506   2.668
 2387TIP3    H2 7126   1.159   6.441   2.711
 2388TIP3   OH2 7127   6.598   3.453   4.704
 2388TIP3    H1 7128   6.654   3.427   4.778
 2388TIP3    H2 7129   6.519   3.487   4.746
 2389TIP3   OH2 7130   2.117   3.100   4.356
 2389TIP3    H1 7131   2.149   3.098   4.266
 2389TIP3    H2 7132   2.121   3.009   4.385
 2390TIP3   OH2 7133   0.379   5.453   2.093
 2390TIP3    H1 7134   0.315   5.454   2.164
 2390TIP3    H2 7135   0.463   5.438   2.137
 2391TIP3   OH2 7136   5.058   2.129   2.352
 2391TIP3    H1 7137   5.096   2.068   2.289
 2391TIP3    H2 7138   5.123   2.133   2.423
 2392TIP3   OH2 7139   6.547   4.790   4.545
 2392TIP3    H1 7140   6.612   4.777   4.475
 2392TIP3    H2 7141   6.499   4.869   4.518
 2393TIP3   OH2 7142   3.534   4.233   4.026
 2393TIP3    H1 7143   3.522   4.143   3.995
 2393TIP3    H2 7144   3.629   4.243   4.036
 2394TIP3   OH2 7145   6.148   0.957   0.100
 2394TIP3    H1 7146   6.234   0.983   0.069
 2394TIP3    H2 7147   6.100   0.934   0.020
 2395TIP3   OH2 7148   6.877   4.391   0.247
 2395TIP3    H1 7149   6.927   4.362   0.171
 2395TIP3    H2 7150   6.837   4.473   0.219
 2396TIP3   OH2 7151   2.148   1.855   1.786
 2396TIP3    H1 7152   2.149   1.892   1.874
 2396TIP3    H2 7153   2.227   1.802   1.782
 2397TIP3   OH2 7154   0.467   2.785   3.750
 2397TIP3    H1 7155   0.413   2.863   3.765
 2397TIP3    H2 7156   0.433   2.720   3.811
 2398TIP3   OH2 7157   5.484   1.042   3.776
 2398TIP3    H1 7158   5.477   0.948   3.760
 2398TIP3    H2 7159   5.447   1.055   3.863
 2399TIP3   OH2 7160   4.642   4.983   2.744
 2399TIP3    H1 7161   4.642   4.992   2.839
 2399TIP3    H2 7162   4.734   4.969   2.722
 2400TIP3   OH2 7163   0.556   4.064   1.774
 2400TIP3    H1 7164   0.579   4.033   1.862
 2400TIP3    H2 7165   0.637   4.057   1.724
 2401TIP3   OH2 7166   1.528   4.928   3.406
 2401TIP3    H1 7167   1.505   5.015   3.438
 2401TIP3    H2 7168   1.479   4.918   3.324
 2402TIP3   OH2 7169   3.548   4.222   0.037
 2402TIP3    H1 7170   3.534   4.182  -0.049
 2402TIP3    H2 7171   3.559   4.147   0.097
 2403TIP3   OH2 7172   6.336   1.202   0.244
 2403TIP3    H1 7173   6.404   1.223   0.307
 2403TIP3    H2 7174   6.353   1.111   0.220
 2404TIP3   OH2 7175   6.480   5.697   5.364
 2404TIP3    H1 7176   6.534   5.743   5.428
 2404TIP3    H2 7177   6.398   5.747   5.363
 2405TIP3   OH2 7178   4.713   1.825   0.157
 2405TIP3    H1 7179   4.637   1.855   0.107
 2405TIP3    H2 7180   4.788   1.860   0.109
 2406TIP3   OH2 7181   0.491   5.567   1.535
 2406TIP3    H1 7182   0.564   5.589   1.593
 2406TIP3    H2 7183   0.529   5.568   1.447
 2407TIP3   OH2 7184   2.903   0.253   3.112
 2407TIP3    H1 7185   2.900   0.328   3.171
 2407TIP3    H2 7186   2.823   0.204   3.130
 2408TIP3   OH2 7187   4.761   0.401   3.162
 2408TIP3    H1 7188   4.747   0.351   3.242
 2408TIP3    H2 7189   4.719   0.485   3.178
 2409TIP3   OH2 7190   2.178   4.977   0.209
 2409TIP3    H1 7191   2.247   4.982   0.275
 2409TIP3    H2 7192   2.100   5.011   0.253
 2410TIP3   OH2 7193   5.678   4.609   4.776
 2410TIP3    H1 7194   5.687   4.517   4.801
 2410TIP3    H2 7195   5.742   4.655   4.830
 2411TIP3   OH2 7196   1.673   5.815   4.156
 2411TIP3    H1 7197   1.683   5.909   4.140
 2411TIP3    H2 7198   1.748   5.792   4.212
 2412TIP3   OH2 7199   1.851   5.291   4.074
 2412TIP3    H1 7200   1.760   5.264   4.083
 2412TIP3    H2 7201   1.853   5.379   4.112
 2413TIP3   OH2 7202   5.074   5.966   4.589
 2413TIP3    H1 7203   5.015   6.005   4.653
 2413TIP3    H2 7204   5.108   6.040   4.539
 2414TIP3   OH2 7205   0.019   1.946   5.382
 2414TIP3    H1 7206   0.098   1.917   5.429
 2414TIP3    H2 7207  -0.017   1.866   5.345
 2415TIP3   OH2 7208   6.958   3.132   0.775
 2415TIP3    H1 7209   6.964   3.197   0.705
 2415TIP3    H2 7210   7.013   3.167   0.845
 2416TIP3   OH2 7211   1.679   1.918   2.755
 2416TIP3    H1 7212   1.619   1.892   2.685
 2416TIP3    H2 7213   1.667   1.852   2.823
 2417TIP3   OH2 7214   4.529   5.957   1.886
 2417TIP3    H1 7215   4.477   5.947   1.806
 2417TIP3    H2 7216   4.482   5.904   1.951
 2418TIP3   OH2 7217   2.377   4.176   1.607
 2418TIP3    H1 7218   2.441   4.244   1.586
 2418TIP3    H2 7219   2.407   4.099   1.560
 2419TIP3   OH2 7220   2.515   1.972   3.286
 2419TIP3    H1 7221   2.489   1.890   3.328
 2419TIP3    H2 7222   2.583   2.008   3.343
 2420TIP3   OH2 7223   6.655   4.974   2.618
 2420TIP3    H1 7224   6.647   4.898   2.560
 2420TIP3    H2 7225   6.678   4.937   2.703
 2421TIP3   OH2 7226   2.924   3.033   4.717
 2421TIP3    H1 7227   3.015   3.052   4.739
 2421TIP3    H2 7228   2.929   2.981   4.637
 2422TIP3   OH2 7229   2.161   6.543   5.700
 2422TIP3    H1 7230   2.241   6.595   5.711
 2422TIP3    H2 7231   2.091   6.608   5.697
 2423TIP3   OH2 7232   0.770   6.307   1.732
 2423TIP3    H1 7233   0.820   6.232   1.702
 2423TIP3    H2 7234   0.786   6.375   1.666
 2424TIP3   OH2 7235   1.179   2.128   4.223
 2424TIP3    H1 7236   1.153   2.154   4.134
 2424TIP3    H2 7237   1.175   2.033   4.222
 2425TIP3   OH2 7238   1.940   3.205   4.519
 2425TIP3    H1 7239   1.987   3.152   4.454
 2425TIP3    H2 7240   1.917   3.143   4.588
 2426TIP3   OH2 7241   0.706   0.204   0.313
 2426TIP3    H1 7242   0.638   0.261   0.278
 2426TIP3    H2 7243   0.773   0.264   0.345
 2427TIP3   OH2 7244   5.117   4.396   4.961
 2427TIP3    H1 7245   5.144   4.488   4.961
 2427TIP3    H2 7246   5.184   4.351   4.909
 2428TIP3   OH2 7247   5.990   1.981   0.084
 2428TIP3    H1 7248   6.014   1.897   0.045
 2428TIP3    H2 7249   6.056   2.042   0.051
 2429TIP3   OH2 7250   0.727   2.859   0.497
 2429TIP3    H1 7251   0.754   2.902   0.578
 2429TIP3    H2 7252   0.685   2.778   0.526
 2430TIP3   OH2 7253   0.695   0.244   2.072
 2430TIP3    H1 7254   0.724   0.335   2.077
 2430TIP3    H2 7255   0.714   0.209   2.159
 2431TIP3   OH2 7256   2.866   5.316   2.646
 2431TIP3    H1 7257   2.896   5.300   2.736
 2431TIP3    H2 7258   2.944   5.307   2.593
 2432TIP3   OH2 7259   0.066   3.553   5.143
 2432TIP3    H1 7260   0.039   3.589   5.059
 2432TIP3    H2 7261  -0.012   3.560   5.198
 2433TIP3   OH2 7262   0.037   1.717   2.950
 2433TIP3    H1 7263   0.079   1.763   3.023
 2433TIP3    H2 7264  -0.003   1.640   2.990
 2434TIP3   OH2 7265   4.759   2.860   3.528
 2434TIP3    H1 7266   4.687   2.798   3.527
 2434TIP3    H2 7267   4.726   2.937   3.480
 2435TIP3   OH2 7268   2.580   2.240   2.451
 2435TIP3    H1 7269   2.606   2.215   2.540
 2435TIP3    H2 7270   2.617   2.328   2.440
 2436TIP3   OH2 7271   1.144   3.309   5.282
 2436TIP3    H1 7272   1.078   3.378   5.284
 2436TIP3    H2 7273   1.096   3.229   5.306
 2437TIP3   OH2 7274   2.838   5.238   4.621
 2437TIP3    H1 7275   2.849   5.326   4.585
 2437TIP3    H2 7276   2.807   5.186   4.547
 2438TIP3   OH2 7277   5.480   0.372   0.665
 2438TIP3    H1 7278   5.454   0.435   0.732
 2438TIP3    H2 7279   5.574   0.357   0.681
 2439TIP3   OH2 7280   5.799   4.477   0.668
 2439TIP3    H1 7281   5.828   4.458   0.757
 2439TIP3    H2 7282   5.770   4.393   0.633
 2440TIP3   OH2 7283   3.027   5.562   1.769
 2440TIP3    H1 7284   3.015   5.593   1.679
 2440TIP3    H2 7285   3.034   5.642   1.821
 2441TIP3   OH2 7286   3.774   4.208   3.517
 2441TIP3    H1 7287   3.821   4.159   3.585
 2441TIP3    H2 7288   3.840   4.267   3.480
 2442TIP3   OH2 7289   6.594   3.224   3.210
 2442TIP3    H1 7290   6.517   3.220   3.153
 2442TIP3    H2 7291   6.565   3.275   3.286
 2443TIP3   OH2 7292   5.975   4.650   5.615
 2443TIP3    H1 7293   5.891   4.687   5.643
 2443TIP3    H2 7294   6.033   4.725   5.606
 2444TIP3   OH2 7295   4.877   6.604   0.972
 2444TIP3    H1 7296   4.849   6.513   0.984
 2444TIP3    H2 7297   4.918   6.605   0.885
 2445TIP3   OH2 7298   2.639   2.510   2.798
 2445TIP3    H1 7299   2.568   2.522   2.734
 2445TIP3    H2 7300   2.599   2.533   2.882
 2446TIP3   OH2 7301   3.729   5.179   1.214
 2446TIP3    H1 7302   3.721   5.274   1.221
 2446TIP3    H2 7303   3.684   5.145   1.291
 2447TIP3   OH2 7304   4.737   5.853   2.683
 2447TIP3    H1 7305   4.661   5.812   2.641
 2447TIP3    H2 7306   4.801   5.864   2.612
 2448TIP3   OH2 7307   3.028   4.385   2.528
 2448TIP3    H1 7308   3.105   4.376   2.585
 2448TIP3    H2 7309   2.953   4.380   2.588
 2449TIP3   OH2 7310   2.269   1.926   4.396
 2449TIP3    H1 7311   2.201   1.994   4.390
 2449TIP3    H2 7312   2.347   1.967   4.358
 2450TIP3   OH2 7313   5.334   0.596   0.053
 2450TIP3    H1 7314   5.371   0.514   0.020
 2450TIP3    H2 7315   5.301   0.575   0.140
 2451TIP3   OH2 7316   0.520   2.990   5.591
 2451TIP3    H1 7317   0.462   3.065   5.579
 2451TIP3    H2 7318   0.521   2.975   5.685
 2452TIP3   OH2 7319   3.160   0.669   1.156
 2452TIP3    H1 7320   3.191   0.723   1.084
 2452TIP3    H2 7321   3.099   0.725   1.204
 2453TIP3   OH2 7322   3.869   6.153   3.436
 2453TIP3    H1 7323   3.913   6.084   3.486
 2453TIP3    H2 7324   3.935   6.222   3.428
 2454TIP3   OH2 7325   6.718   1.516   0.160
 2454TIP3    H1 7326   6.758   1.558   0.236
 2454TIP3    H2 7327   6.792   1.497   0.102
 2455TIP3   OH2 7328   4.198   1.824   0.090
 2455TIP3    H1 7329   4.247   1.789   0.164
 2455TIP3    H2 7330   4.247   1.796   0.013
 2456TIP3   OH2 7331   4.762   3.659   1.034
 2456TIP3    H1 7332   4.775   3.648   0.940
 2456TIP3    H2 7333   4.708   3.737   1.042
 2457TIP3   OH2 7334   1.035   5.667   0.199
 2457TIP3    H1 7335   1.067   5.599   0.258
 2457TIP3    H2 7336   1.111   5.691   0.146
 2458TIP3   OH2 7337   4.839   0.059   2.018
 2458TIP3    H1 7338   4.827   0.154   2.029
 2458TIP3    H2 7339   4.932   0.045   2.032
 2459TIP3   OH2 7340   3.029   1.545   5.234
 2459TIP3    H1 7341   3.099   1.543   5.300
 2459TIP3    H2 7342   3.074   1.538   5.150
 2460TIP3   OH2 7343   4.396   5.399   1.941
 2460TIP3    H1 7344   4.490   5.386   1.955
 2460TIP3    H2 7345   4.359   5.400   2.029
 2461TIP3   OH2 7346   2.572   2.782   2.289
 2461TIP3    H1 7347   2.666   2.764   2.294
 2461TIP3    H2 7348   2.534   2.703   2.251
 2462TIP3   OH2 7349   1.516   0.407   5.464
 2462TIP3    H1 7350   1.430   0.420   5.425
 2462TIP3    H2 7351   1.573   0.470   5.419
 2463TIP3   OH2 7352   6.556   0.696   4.062
 2463TIP3    H1 7353   6.504   0.769   4.094
 2463TIP3    H2 7354   6.494   0.641   4.014
 2464TIP3   OH2 7355   4.329   0.501   0.973
 2464TIP3    H1 7356   4.239   0.469   0.963
 2464TIP3    H2 7357   4.325   0.564   1.044
 2465TIP3   OH2 7358   7.159   5.719   1.655
 2465TIP3    H1 7359   7.215   5.732   1.578
 2465TIP3    H2 7360   7.204   5.765   1.726
 2466TIP3   OH2 7361   2.080   5.737   0.128
 2466TIP3    H1 7362   2.093   5.832   0.129
 2466TIP3    H2 7363   2.029   5.720   0.208
 2467TIP3   OH2 7364   6.369   2.362   4.177
 2467TIP3    H1 7365   6.431   2.291   4.161
 2467TIP3    H2 7366   6.422   2.431   4.217
 2468TIP3   OH2 7367   3.579   5.996   3.692
 2468TIP3    H1 7368   3.500   5.941   3.690
 2468TIP3    H2 7369   3.645   5.944   3.646
 2469TIP3   OH2 7370   6.155   5.799   3.138
 2469TIP3    H1 7371   6.091   5.737   3.104
 2469TIP3    H2 7372   6.168   5.772   3.229
 2470TIP3   OH2 7373   2.833   5.607   3.310
 2470TIP3    H1 7374   2.765   5.553   3.270
 2470TIP3    H2 7375   2.804   5.697   3.296
 2471TIP3   OH2 7376   4.021   1.683   1.932
 2471TIP3    H1 7377   3.980   1.623   1.994
 2471TIP3    H2 7378   3.948   1.728   1.890
 2472TIP3   OH2 7379   3.315   0.730   2.009
 2472TIP3    H1 7380   3.276   0.652   1.971
 2472TIP3    H2 7381   3.406   0.729   1.977
 2473TIP3   OH2 7382   3.914   6.163   0.096
 2473TIP3    H1 7383   3.927   6.115   0.178
 2473TIP3    H2 7384   3.985   6.133   0.039
 2474TIP3   OH2 7385   2.227   6.697   1.929
 2474TIP3    H1 7386   2.292   6.635   1.897
 2474TIP3    H2 7387   2.278   6.765   1.973
 2475TIP3   OH2 7388   6.483   0.750   1.404
 2475TIP3    H1 7389   6.522   0.836   1.391
 2475TIP3    H2 7390   6.515   0.697   1.331
 2476TIP3   OH2 7391   6.321   0.103   5.787
 2476TIP3    H1 7392   6.376   0.069   5.716
 2476TIP3    H2 7393   6.339   0.045   5.861
 2477TIP3   OH2 7394   4.935   4.863   0.329
 2477TIP3    H1 7395   4.990   4.790   0.300
 2477TIP3    H2 7396   4.846   4.839   0.303
 2478TIP3   OH2 7397   4.459   0.123   1.048
 2478TIP3    H1 7398   4.535   0.124   0.991
 2478TIP3    H2 7399   4.493   0.146   1.135
 2479TIP3   OH2 7400   0.992   4.754   1.921
 2479TIP3    H1 7401   0.928   4.819   1.890
 2479TIP3    H2 7402   0.964   4.672   1.880
 2480TIP3   OH2 7403   5.476   5.651   4.908
 2480TIP3    H1 7404   5.541   5.720   4.926
 2480TIP3    H2 7405   5.525   5.585   4.858
 2481TIP3   OH2 7406   2.300   3.553   5.390
 2481TIP3    H1 7407   2.271   3.574   5.479
 2481TIP3    H2 7408   2.220   3.548   5.339
 2482TIP3   OH2 7409   3.673   2.764   4.057
 2482TIP3    H1 7410   3.629   2.848   4.041
 2482TIP3    H2 7411   3.741   2.785   4.122
 2483TIP3   OH2 7412   4.889   1.714   2.974
 2483TIP3    H1 7413   4.833   1.665   3.035
 2483TIP3    H2 7414   4.833   1.731   2.899
 2484TIP3   OH2 7415   4.267   1.376   1.826
 2484TIP3    H1 7416   4.336   1.312   1.813
 2484TIP3    H2 7417   4.192   1.340   1.779
 2485TIP3   OH2 7418   5.022   2.283   4.082
 2485TIP3    H1 7419   5.036   2.327   3.998
 2485TIP3    H2 7420   4.942   2.231   4.069
 2486TIP3   OH2 7421   5.177   0.283   4.064
 2486TIP3    H1 7422   5.225   0.213   4.110
 2486TIP3    H2 7423   5.230   0.361   4.079
 2487TIP3   OH2 7424   0.408   4.303   2.384
 2487TIP3    H1 7425   0.377   4.213   2.387
 2487TIP3    H2 7426   0.407   4.326   2.291
 2488TIP3   OH2 7427   3.629   6.263   5.495
 2488TIP3    H1 7428   3.651   6.346   5.538
 2488TIP3    H2 7429   3.549   6.282   5.446
 2489TIP3   OH2 7430   3.020   0.450   2.595
 2489TIP3    H1 7431   3.083   0.521   2.607
 2489TIP3    H2 7432   3.055   0.378   2.647
 2490TIP3   OH2 7433   5.615   0.062   0.696
 2490TIP3    H1 7434   5.614   0.152   0.730
 2490TIP3    H2 7435   5.619   0.007   0.775
 2491TIP3   OH2 7436   3.749   4.948   3.465
 2491TIP3    H1 7437   3.761   4.965   3.371
 2491TIP3    H2 7438   3.799   5.017   3.508
 2492TIP3   OH2 7439   2.143   2.768   2.436
 2492TIP3    H1 7440   2.186   2.683   2.437
 2492TIP3    H2 7441   2.214   2.830   2.418
 2493TIP3   OH2 7442   3.971   3.420   2.952
 2493TIP3    H1 7443   3.999   3.507   2.980
 2493TIP3    H2 7444   4.022   3.403   2.873
 2494TIP3   OH2 7445   1.656   0.414   1.607
 2494TIP3    H1 7446   1.599   0.455   1.672
 2494TIP3    H2 7447   1.605   0.415   1.526
 2495TIP3   OH2 7448   4.526   1.343   2.693
 2495TIP3    H1 7449   4.620   1.328   2.689
 2495TIP3    H2 7450   4.487   1.259   2.666
 2496TIP3   OH2 7451   3.289   5.670   4.053
 2496TIP3    H1 7452   3.224   5.687   3.985
 2496TIP3    H2 7453   3.341   5.750   4.056
 2497TIP3   OH2 7454   6.023   1.116   5.438
 2497TIP3    H1 7455   6.035   1.025   5.466
 2497TIP3    H2 7456   6.035   1.166   5.519
 2498TIP3   OH2 7457   5.773   3.888   2.920
 2498TIP3    H1 7458   5.684   3.857   2.938
 2498TIP3    H2 7459   5.761   3.980   2.896
 2499TIP3   OH2 7460   5.836   4.832   4.831
 2499TIP3    H1 7461   5.748   4.851   4.799
 2499TIP3    H2 7462   5.894   4.871   4.765
 2500TIP3   OH2 7463   1.778   4.351   1.490
 2500TIP3    H1 7464   1.697   4.324   1.447
 2500TIP3    H2 7465   1.844   4.348   1.420
 2501TIP3   OH2 7466   6.805   6.568   3.305
 2501TIP3    H1 7467   6.851   6.622   3.369
 2501TIP3    H2 7468   6.823   6.610   3.221
 2502TIP3   OH2 7469   3.402   5.478   2.047
 2502TIP3    H1 7470   3.419   5.384   2.050
 2502TIP3    H2 7471   3.460   5.511   1.978
 2503TIP3   OH2 7472   5.253   0.773   1.005
 2503TIP3    H1 7473   5.173   0.826   0.996
 2503TIP3    H2 7474   5.273   0.775   1.098
 2504TIP3   OH2 7475   1.558   3.760   0.039
 2504TIP3    H1 7476   1.519   3.704   0.107
 2504TIP3    H2 7477   1.515   3.845   0.051
 2505TIP3   OH2 7478   4.419   5.670   3.284
 2505TIP3    H1 7479   4.381   5.606   3.344
 2505TIP3    H2 7480   4.398   5.637   3.197
 2506TIP3   OH2 7481   0.152   3.524   2.426
 2506TIP3    H1 7482   0.133   3.485   2.511
 2506TIP3    H2 7483   0.124   3.459   2.362
 2507TIP3   OH2 7484   1.701   5.661   0.075
 2507TIP3    H1 7485   1.738   5.739   0.035
 2507TIP3    H2 7486   1.696   5.682   0.169
 2508TIP3   OH2 7487   6.316   2.182   5.553
 2508TIP3    H1 7488   6.403   2.145   5.536
 2508TIP3    H2 7489   6.257   2.132   5.497
 2509TIP3   OH2 7490   6.186   1.646   3.457
 2509TIP3    H1 7491   6.154   1.562   3.422
 2509TIP3    H2 7492   6.277   1.651   3.429
 2510TIP3   OH2 7493   6.538   5.828   1.156
 2510TIP3    H1 7494   6.480   5.880   1.100
 2510TIP3    H2 7495   6.521   5.737   1.131
 2511TIP3   OH2 7496   0.098   5.901   2.954
 2511TIP3    H1 7497   0.035   5.892   3.025
 2511TIP3    H2 7498   0.057   5.855   2.880
 2512TIP3   OH2 7499   1.559   0.300   4.488
 2512TIP3    H1 7500   1.468   0.303   4.519
 2512TIP3    H2 7501   1.595   0.222   4.529
 2513TIP3   OH2 7502   0.742   4.033   1.593
 2513TIP3    H1 7503   0.707   3.961   1.540
 2513TIP3    H2 7504   0.830   4.049   1.556
 2514TIP3   OH2 7505   7.074   4.302   4.213
 2514TIP3    H1 7506   7.023   4.349   4.278
 2514TIP3    H2 7507   7.067   4.355   4.133
 2515TIP3   OH2 7508   0.677   4.890   5.750
 2515TIP3    H1 7509   0.762   4.931   5.740
 2515TIP3    H2 7510   0.669   4.874   5.844
 2516TIP3   OH2 7511   5.664   1.687   5.386
 2516TIP3    H1 7512   5.739   1.670   5.444
 2516TIP3    H2 7513   5.655   1.607   5.334
 2517TIP3   OH2 7514   3.851   4.734   1.571
 2517TIP3    H1 7515   3.797   4.807   1.541
 2517TIP3    H2 7516   3.906   4.770   1.640
 2518TIP3   OH2 7517   3.631   4.932   4.287
 2518TIP3    H1 7518   3.561   4.982   4.245
 2518TIP3    H2 7519   3.607   4.930   4.380
 2519TIP3   OH2 7520   3.614   1.983   4.067
 2519TIP3    H1 7521   3.588   1.978   3.975
 2519TIP3    H2 7522   3.531   1.988   4.115
 2520TIP3   OH2 7523   3.867   3.072   3.500
 2520TIP3    H1 7524   3.877   3.158   3.540
 2520TIP3    H2 7525   3.956   3.038   3.494
 2521TIP3   OH2 7526   2.033   5.704   0.776
 2521TIP3    H1 7527   2.004   5.622   0.736
 2521TIP3    H2 7528   1.970   5.718   0.848
 2522TIP3   OH2 7529   6.688   5.863   4.836
 2522TIP3    H1 7530   6.597   5.883   4.854
 2522TIP3    H2 7531   6.735   5.889   4.916
 2523TIP3   OH2 7532   1.264   6.186   3.471
 2523TIP3    H1 7533   1.245   6.104   3.426
 2523TIP3    H2 7534   1.182   6.235   3.469
 2524TIP3   OH2 7535   2.850   2.545   1.049
 2524TIP3    H1 7536   2.894   2.476   1.098
 2524TIP3    H2 7537   2.911   2.569   0.979
 2525TIP3   OH2 7538   6.561   4.048   3.184
 2525TIP3    H1 7539   6.469   4.024   3.171
 2525TIP3    H2 7540   6.595   3.980   3.242
 2526TIP3   OH2 7541   3.728   4.908   1.395
 2526TIP3    H1 7542   3.785   4.965   1.447
 2526TIP3    H2 7543   3.757   4.922   1.305
 2527TIP3   OH2 7544   0.582   3.130   3.438
 2527TIP3    H1 7545   0.542   3.044   3.443
 2527TIP3    H2 7546   0.528   3.177   3.373
 2528TIP3   OH2 7547   5.402   5.661   0.153
 2528TIP3    H1 7548   5.486   5.629   0.187
 2528TIP3    H2 7549   5.378   5.598   0.085
 2529TIP3   OH2 7550   1.777   4.976   4.037
 2529TIP3    H1 7551   1.826   4.933   3.967
 2529TIP3    H2 7552   1.797   4.926   4.115
 2530TIP3   OH2 7553   3.609   4.058   3.012
 2530TIP3    H1 7554   3.566   4.062   2.927
 2530TIP3    H2 7555   3.673   4.129   3.009
 2531TIP3   OH2 7556   2.410   0.026   2.895
 2531TIP3    H1 7557   2.504   0.005   2.891
 2531TIP3    H2 7558   2.381   0.018   2.804
 2532TIP3   OH2 7559   5.417   2.348   2.447
 2532TIP3    H1 7560   5.460   2.433   2.445
 2532TIP3    H2 7561   5.426   2.315   2.357
 2533TIP3   OH2 7562   5.871   0.370   4.444
 2533TIP3    H1 7563   5.938   0.340   4.505
 2533TIP3    H2 7564   5.862   0.464   4.462
 2534TIP3   OH2 7565   7.129   0.928   2.661
 2534TIP3    H1 7566   7.163   0.851   2.708
 2534TIP3    H2 7567   7.106   0.895   2.574
 2535TIP3   OH2 7568   4.640   2.461   0.588
 2535TIP3    H1 7569   4.668   2.551   0.605
 2535TIP3    H2 7570   4.668   2.444   0.498
 2536TIP3   OH2 7571   4.447   2.146   2.103
 2536TIP3    H1 7572   4.402   2.223   2.069
 2536TIP3    H2 7573   4.380   2.101   2.156
 2537TIP3   OH2 7574   6.717   6.262   3.776
 2537TIP3    H1 7575   6.667   6.344   3.782
 2537TIP3    H2 7576   6.656   6.200   3.737
 2538TIP3   OH2 7577   4.723   4.903   3.269
 2538TIP3    H1 7578   4.686   4.835   3.325
 2538TIP3    H2 7579   4.696   4.985   3.311
 2539TIP3   OH2 7580   7.081   0.124   0.278
 2539TIP3    H1 7581   7.108   0.043   0.322
 2539TIP3    H2 7582   7.109   0.113   0.187
 2540TIP3   OH2 7583   5.700   4.377   4.373
 2540TIP3    H1 7584   5.629   4.361   4.311
 2540TIP3    H2 7585   5.748   4.294   4.377
 2541TIP3   OH2 7586   3.284   0.435   3.900
 2541TIP3    H1 7587   3.255   0.404   3.986
 2541TIP3    H2 7588   3.380   0.438   3.907
 2542TIP3   OH2 7589   0.220   1.337   3.553
 2542TIP3    H1 7590   0.280   1.304   3.486
 2542TIP3    H2 7591   0.182   1.416   3.515
 2543TIP3   OH2 7592   7.070   3.582   5.342
 2543TIP3    H1 7593   6.977   3.604   5.347
 2543TIP3    H2 7594   7.090   3.542   5.426
 2544TIP3   OH2 7595   6.374   4.222   5.346
 2544TIP3    H1 7596   6.280   4.240   5.335
 2544TIP3    H2 7597   6.418   4.297   5.304
 2545TIP3   OH2 7598   2.795   3.446   1.944
 2545TIP3    H1 7599   2.861   3.499   1.988
 2545TIP3    H2 7600   2.845   3.380   1.895
 2546TIP3   OH2 7601   1.748   1.996   2.364
 2546TIP3    H1 7602   1.753   2.087   2.392
 2546TIP3    H2 7603   1.657   1.971   2.381
 2547TIP3   OH2 7604   0.701   6.079   4.504
 2547TIP3    H1 7605   0.680   6.029   4.583
 2547TIP3    H2 7606   0.773   6.136   4.530
 2548TIP3   OH2 7607   4.203   6.519   3.747
 2548TIP3    H1 7608   4.186   6.510   3.654
 2548TIP3    H2 7609   4.167   6.604   3.771
 2549TIP3   OH2 7610   3.199   1.035   0.112
 2549TIP3    H1 7611   3.293   1.018   0.105
 2549TIP3    H2 7612   3.167   1.027   0.022
 2550TIP3   OH2 7613   5.198   0.930   4.339
 2550TIP3    H1 7614   5.150   0.861   4.384
 2550TIP3    H2 7615   5.189   0.910   4.246
 2551TIP3   OH2 7616   0.759   3.892   5.738
 2551TIP3    H1 7617   0.705   3.965   5.708
 2551TIP3    H2 7618   0.696   3.825   5.764
 2552TIP3   OH2 7619   5.094   2.412   0.241
 2552TIP3    H1 7620   5.085   2.322   0.272
 2552TIP3    H2 7621   5.069   2.408   0.149
 2553TIP3   OH2 7622   6.194   5.076   1.940
 2553TIP3    H1 7623   6.102   5.098   1.925
 2553TIP3    H2 7624   6.231   5.156   1.978
 2554TIP3   OH2 7625   0.228   6.696   3.299
 2554TIP3    H1 7626   0.256   6.630   3.236
 2554TIP3    H2 7627   0.254   6.661   3.384
 2555TIP3   OH2 7628   5.803   2.378   3.157
 2555TIP3    H1 7629   5.866   2.313   3.125
 2555TIP3    H2 7630   5.857   2.443   3.203
 2556TIP3   OH2 7631   3.360   1.238   0.942
 2556TIP3    H1 7632   3.318   1.324   0.946
 2556TIP3    H2 7633   3.312   1.192   0.874
 2557TIP3   OH2 7634   3.404   0.686   1.644
 2557TIP3    H1 7635   3.436   0.597   1.661
 2557TIP3    H2 7636   3.362   0.681   1.558
 2558TIP3   OH2 7637   2.181   3.892   3.112
 2558TIP3    H1 7638   2.237   3.821   3.081
 2558TIP3    H2 7639   2.237   3.969   3.110
 2559TIP3   OH2 7640   1.954   3.799   3.624
 2559TIP3    H1 7641   1.929   3.855   3.550
 2559TIP3    H2 7642   2.020   3.848   3.671
 2560TIP3   OH2 7643   3.713   5.697   5.282
 2560TIP3    H1 7644   3.622   5.725   5.278
 2560TIP3    H2 7645   3.722   5.655   5.367
 2561TIP3   OH2 7646   4.395   2.539   4.690
 2561TIP3    H1 7647   4.419   2.549   4.782
 2561TIP3    H2 7648   4.381   2.629   4.660
 2562TIP3   OH2 7649   6.020   5.037   3.574
 2562TIP3    H1 7650   6.030   4.994   3.489
 2562TIP3    H2 7651   6.107   5.071   3.594
 2563TIP3   OH2 7652   3.446   4.166   1.882
 2563TIP3    H1 7653   3.384   4.094   1.867
 2563TIP3    H2 7654   3.405   4.241   1.840
 2564TIP3   OH2 7655   1.850   3.762   3.110
 2564TIP3    H1 7656   1.855   3.857   3.114
 2564TIP3    H2 7657   1.917   3.737   3.047
 2565TIP3   OH2 7658   2.379   1.831   3.603
 2565TIP3    H1 7659   2.433   1.910   3.615
 2565TIP3    H2 7660   2.351   1.807   3.691
 2566TIP3   OH2 7661   1.759   4.675   4.912
 2566TIP3    H1 7662   1.672   4.668   4.873
 2566TIP3    H2 7663   1.808   4.731   4.852
 2567TIP3   OH2 7664   7.128   6.166   2.089
 2567TIP3    H1 7665   7.056   6.220   2.123
 2567TIP3    H2 7666   7.192   6.164   2.160
 2568TIP3   OH2 7667   3.088   0.624   5.781
 2568TIP3    H1 7668   3.046   0.708   5.765
 2568TIP3    H2 7669   3.180   0.645   5.795
 2569TIP3   OH2 7670   0.748   5.056   1.312
 2569TIP3    H1 7671   0.751   5.151   1.305
 2569TIP3    H2 7672   0.658   5.037   1.339
 2570TIP3   OH2 7673   4.787   1.044   3.445
 2570TIP3    H1 7674   4.771   1.027   3.538
 2570TIP3    H2 7675   4.836   0.967   3.415
 2571TIP3   OH2 7676   1.552   6.599   1.346
 2571TIP3    H1 7677   1.620   6.594   1.278
 2571TIP3    H2 7678   1.527   6.692   1.347
 2572TIP3   OH2 7679   4.767   5.191   3.273
 2572TIP3    H1 7680   4.854   5.220   3.300
 2572TIP3    H2 7681   4.766   5.205   3.178
 2573TIP3   OH2 7682   2.697   4.068   3.326
 2573TIP3    H1 7683   2.675   3.978   3.351
 2573TIP3    H2 7684   2.784   4.062   3.288
 2574TIP3   OH2 7685   2.426   2.991   2.728
 2574TIP3    H1 7686   2.352   3.038   2.690
 2574TIP3    H2 7687   2.386   2.916   2.773
 2575TIP3   OH2 7688   3.886   5.378   5.122
 2575TIP3    H1 7689   3.810   5.359   5.067
 2575TIP3    H2 7690   3.937   5.441   5.072
 2576TIP3   OH2 7691   6.831   0.679   2.693
 2576TIP3    H1 7692   6.813   0.633   2.611
 2576TIP3    H2 7693   6.892   0.623   2.740
 2577TIP3   OH2 7694   0.256   3.500   1.038
 2577TIP3    H1 7695   0.206   3.464   0.965
 2577TIP3    H2 7696   0.340   3.454   1.035
 2578TIP3   OH2 7697   5.176   4.775   3.362
 2578TIP3    H1 7698   5.262   4.814   3.373
 2578TIP3    H2 7699   5.142   4.813   3.281
 2579TIP3   OH2 7700   0.080   4.240   2.783
 2579TIP3    H1 7701   0.149   4.296   2.817
 2579TIP3    H2 7702   0.050   4.190   2.859
 2580TIP3   OH2 7703   0.489   3.925   4.829
 2580TIP3    H1 7704   0.535   3.843   4.812
 2580TIP3    H2 7705   0.555   3.983   4.867
 2581TIP3   OH2 7706   1.180   1.355   5.209
 2581TIP3    H1 7707   1.224   1.336   5.126
 2581TIP3    H2 7708   1.223   1.298   5.272
 2582TIP3   OH2 7709   3.813   4.927   1.094
 2582TIP3    H1 7710   3.882   4.917   1.159
 2582TIP3    H2 7711   3.778   5.015   1.110
 2583TIP3   OH2 7712   1.653   6.324   0.440
 2583TIP3    H1 7713   1.623   6.362   0.357
 2583TIP3    H2 7714   1.578   6.334   0.499
 2584TIP3   OH2 7715   3.074   3.137   5.234
 2584TIP3    H1 7716   3.089   3.147   5.140
 2584TIP3    H2 7717   3.161   3.128   5.271
 2585TIP3   OH2 7718   2.739   5.636   4.336
 2585TIP3    H1 7719   2.827   5.634   4.300
 2585TIP3    H2 7720   2.698   5.555   4.305
 2586TIP3   OH2 7721   4.117   5.197   0.366
 2586TIP3    H1 7722   4.205   5.237   0.365
 2586TIP3    H2 7723   4.115   5.142   0.287
 2587TIP3   OH2 7724   0.778   2.828   4.778
 2587TIP3    H1 7725   0.696   2.837   4.826
 2587TIP3    H2 7726   0.768   2.746   4.730
 2588TIP3   OH2 7727   0.103   2.944   5.187
 2588TIP3    H1 7728   0.009   2.941   5.168
 2588TIP3    H2 7729   0.110   2.999   5.264
 2589TIP3   OH2 7730   1.406   1.964   5.307
 2589TIP3    H1 7731   1.479   1.906   5.286
 2589TIP3    H2 7732   1.404   2.027   5.236
 2590TIP3   OH2 7733   0.385   4.809   1.829
 2590TIP3    H1 7734   0.346   4.834   1.913
 2590TIP3    H2 7735   0.418   4.892   1.793
 2591TIP3   OH2 7736   0.841   4.553   1.269
 2591TIP3    H1 7737   0.779   4.510   1.328
 2591TIP3    H2 7738   0.804   4.640   1.253
 2592TIP3   OH2 7739   6.480   1.122   2.348
 2592TIP3    H1 7740   6.393   1.101   2.315
 2592TIP3    H2 7741   6.505   1.202   2.301
 2593TIP3   OH2 7742   3.406   4.463   4.561
 2593TIP3    H1 7743   3.363   4.415   4.632
 2593TIP3    H2 7744   3.493   4.482   4.594
 2594TIP3   OH2 7745   3.809   1.088   5.362
 2594TIP3    H1 7746   3.719   1.118   5.375
 2594TIP3    H2 7747   3.800   1.004   5.316
 2595TIP3   OH2 7748   4.634   1.709   5.786
 2595TIP3    H1 7749   4.629   1.804   5.774
 2595TIP3    H2 7750   4.667   1.698   5.875
 2596TIP3   OH2 7751   6.732   2.043   3.623
 2596TIP3    H1 7752   6.756   2.093   3.545
 2596TIP3    H2 7753   6.685   2.106   3.678
 2597TIP3   OH2 7754   2.474   6.545   3.193
 2597TIP3    H1 7755   2.449   6.455   3.173
 2597TIP3    H2 7756   2.565   6.539   3.224
 2598TIP3   OH2 7757   2.337   3.828   2.823
 2598TIP3    H1 7758   2.295   3.757   2.774
 2598TIP3    H2 7759   2.324   3.906   2.768
 2599TIP3   OH2 7760   1.651   5.732   5.820
 2599TIP3    H1 7761   1.604   5.724   5.737
 2599TIP3    H2 7762   1.737   5.692   5.804
 2600TIP3   OH2 7763   6.707   0.821   2.226
 2600TIP3    H1 7764   6.736   0.769   2.151
 2600TIP3    H2 7765   6.770   0.893   2.231
 2601TIP3   OH2 7766   3.892   4.638   0.008
 2601TIP3    H1 7767   3.925   4.619  -0.080
 2601TIP3    H2 7768   3.833   4.565   0.028
 2602TIP3   OH2 7769   4.900   1.807   2.102
 2602TIP3    H1 7770   4.888   1.872   2.032
 2602TIP3    H2 7771   4.814   1.803   2.145
 2603TIP3   OH2 7772   0.090   5.201   4.186
 2603TIP3    H1 7773   0.096   5.293   4.210
 2603TIP3    H2 7774   0.016   5.167   4.236
 2604TIP3   OH2 7775   6.161   1.877   1.093
 2604TIP3    H1 7776   6.154   1.963   1.053
 2604TIP3    H2 7777   6.182   1.818   1.021
 2605TIP3   OH2 7778   0.399   1.507   5.843
 2605TIP3    H1 7779   0.306   1.488   5.851
 2605TIP3    H2 7780   0.423   1.546   5.928
 2606TIP3   OH2 7781   1.533   4.972   0.182
 2606TIP3    H1 7782   1.517   4.906   0.250
 2606TIP3    H2 7783   1.483   5.048   0.211
 2607TIP3   OH2 7784   4.295   2.262   5.004
 2607TIP3    H1 7785   4.348   2.187   5.031
 2607TIP3    H2 7786   4.241   2.228   4.932
 2608TIP3   OH2 7787   2.319   0.635   3.926
 2608TIP3    H1 7788   2.388   0.695   3.896
 2608TIP3    H2 7789   2.244   0.691   3.941
 2609TIP3   OH2 7790   3.192   4.276   1.480
 2609TIP3    H1 7791   3.237   4.357   1.505
 2609TIP3    H2 7792   3.260   4.209   1.481
 2610TIP3   OH2 7793   5.187   4.987   4.970
 2610TIP3    H1 7794   5.176   5.004   4.877
 2610TIP3    H2 7795   5.110   4.935   4.994
 2611TIP3   OH2 7796   3.208   3.039   4.727
 2611TIP3    H1 7797   3.282   3.014   4.783
 2611TIP3    H2 7798   3.165   2.956   4.706
 2612TIP3   OH2 7799   3.674   6.673   3.441
 2612TIP3    H1 7800   3.760   6.714   3.426
 2612TIP3    H2 7801   3.692   6.600   3.501
 2613TIP3   OH2 7802   5.122   4.110   1.346
 2613TIP3    H1 7803   5.195   4.058   1.314
 2613TIP3    H2 7804   5.044   4.066   1.312
 2614TIP3   OH2 7805   0.494   5.658   1.907
 2614TIP3    H1 7806   0.428   5.649   1.837
 2614TIP3    H2 7807   0.476   5.586   1.967
 2615TIP3   OH2 7808   6.343   6.148   2.202
 2615TIP3    H1 7809   6.356   6.094   2.279
 2615TIP3    H2 7810   6.429   6.149   2.159
 2616TIP3   OH2 7811   6.911   2.700   4.985
 2616TIP3    H1 7812   6.898   2.608   4.963
 2616TIP3    H2 7813   7.002   2.706   5.013
 2617TIP3   OH2 7814   1.216   3.028   2.218
 2617TIP3    H1 7815   1.122   3.027   2.232
 2617TIP3    H2 7816   1.242   2.936   2.213
 2618TIP3   OH2 7817   5.554   3.414   0.319
 2618TIP3    H1 7818   5.639   3.393   0.283
 2618TIP3    H2 7819   5.511   3.330   0.333
 2619TIP3   OH2 7820   4.485   2.647   3.227
 2619TIP3    H1 7821   4.485   2.735   3.264
 2619TIP3    H2 7822   4.537   2.595   3.288
 2620TIP3   OH2 7823   0.601   0.759   4.851
 2620TIP3    H1 7824   0.586   0.780   4.758
 2620TIP3    H2 7825   0.647   0.676   4.850
 2621TIP3   OH2 7826   2.822   1.249   5.883
 2621TIP3    H1 7827   2.874   1.214   5.810
 2621TIP3    H2 7828   2.785   1.331   5.849
 2622TIP3   OH2 7829   2.911   5.694   2.539
 2622TIP3    H1 7830   2.874   5.699   2.627
 2622TIP3    H2 7831   2.868   5.765   2.491
 2623TIP3   OH2 7832   6.132   4.312   4.338
 2623TIP3    H1 7833   6.157   4.348   4.423
 2623TIP3    H2 7834   6.164   4.376   4.274
 2624TIP3   OH2 7835   6.632   5.729   2.011
 2624TIP3    H1 7836   6.631   5.636   2.034
 2624TIP3    H2 7837   6.554   5.765   2.052
 2625TIP3   OH2 7838   5.940   5.198   2.321
 2625TIP3    H1 7839   5.883   5.155   2.257
 2625TIP3    H2 7840   5.930   5.146   2.401
 2626TIP3   OH2 7841   4.446   2.482   1.082
 2626TIP3    H1 7842   4.462   2.388   1.084
 2626TIP3    H2 7843   4.437   2.503   0.989
 2627TIP3   OH2 7844   1.978   0.741   2.021
 2627TIP3    H1 7845   2.037   0.740   2.096
 2627TIP3    H2 7846   2.036   0.731   1.945
 2628TIP3   OH2 7847   3.860   4.529   4.988
 2628TIP3    H1 7848   3.819   4.608   5.025
 2628TIP3    H2 7849   3.881   4.475   5.064
 2629TIP3   OH2 7850   6.193   4.197   5.654
 2629TIP3    H1 7851   6.128   4.252   5.698
 2629TIP3    H2 7852   6.154   4.178   5.568
 2630TIP3   OH2 7853   2.613   5.918   1.436
 2630TIP3    H1 7854   2.648   5.896   1.350
 2630TIP3    H2 7855   2.554   5.992   1.420
 2631TIP3   OH2 7856   5.487   2.633   2.393
 2631TIP3    H1 7857   5.399   2.670   2.390
 2631TIP3    H2 7858   5.541   2.702   2.433
 2632TIP3   OH2 7859   6.502   2.916   2.946
 2632TIP3    H1 7860   6.411   2.928   2.918
 2632TIP3    H2 7861   6.496   2.857   3.022
 2633TIP3   OH2 7862   1.570   6.304   4.926
 2633TIP3    H1 7863   1.534   6.393   4.933
 2633TIP3    H2 7864   1.556   6.280   4.834
 2634TIP3   OH2 7865   4.912   0.168   4.005
 2634TIP3    H1 7866   4.999   0.209   4.011
 2634TIP3    H2 7867   4.867   0.216   3.936
 2635TIP3   OH2 7868   4.209   0.098   1.151
 2635TIP3    H1 7869   4.291   0.098   1.102
 2635TIP3    H2 7870   4.183   0.190   1.155
 2636TIP3   OH2 7871   5.549   3.616   4.706
 2636TIP3    H1 7872   5.631   3.586   4.745
 2636TIP3    H2 7873   5.536   3.558   4.631
 2637TIP3   OH2 7874   3.175   5.298   0.620
 2637TIP3    H1 7875   3.190   5.354   0.696
 2637TIP3    H2 7876   3.085   5.318   0.594
 2638TIP3   OH2 7877   7.076   3.650   1.750
 2638TIP3    H1 7878   7.078   3.674   1.842
 2638TIP3    H2 7879   7.163   3.672   1.717
 2639TIP3   OH2 7880   5.827   0.613   2.071
 2639TIP3    H1 7881   5.881   0.557   2.015
 2639TIP3    H2 7882   5.879   0.693   2.082
 2640TIP3   OH2 7883   0.446   5.721   2.260
 2640TIP3    H1 7884   0.402   5.640   2.284
 2640TIP3    H2 7885   0.375   5.782   2.238
 2641TIP3   OH2 7886   5.556   1.733   0.711
 2641TIP3    H1 7887   5.615   1.669   0.751
 2641TIP3    H2 7888   5.576   1.728   0.618
 2642TIP3   OH2 7889   1.596   3.605   3.832
 2642TIP3    H1 7890   1.583   3.518   3.870
 2642TIP3    H2 7891   1.593   3.664   3.907
 2643TIP3   OH2 7892   6.991   1.691   1.425
 2643TIP3    H1 7893   7.045   1.653   1.494
 2643TIP3    H2 7894   7.048   1.694   1.349
 2644TIP3   OH2 7895   3.044   4.002   3.664
 2644TIP3    H1 7896   3.064   3.937   3.731
 2644TIP3    H2 7897   3.044   3.952   3.582
 2645TIP3   OH2 7898   5.378   2.292   0.557
 2645TIP3    H1 7899   5.423   2.375   0.573
 2645TIP3    H2 7900   5.429   2.250   0.488
 2646TIP3   OH2 7901   6.565   1.719   0.347
 2646TIP3    H1 7902   6.476   1.745   0.368
 2646TIP3    H2 7903   6.555   1.645   0.288
 2647TIP3   OH2 7904   6.939   0.998   4.813
 2647TIP3    H1 7905   6.929   0.921   4.757
 2647TIP3    H2 7906   6.930   0.965   4.902
 2648TIP3   OH2 7907   4.748   0.827   5.392
 2648TIP3    H1 7908   4.811   0.888   5.353
 2648TIP3    H2 7909   4.674   0.881   5.418
 2649TIP3   OH2 7910   3.454   3.626   2.865
 2649TIP3    H1 7911   3.372   3.585   2.839
 2649TIP3    H2 7912   3.486   3.573   2.938
 2650TIP3   OH2 7913   1.040   5.013   5.442
 2650TIP3    H1 7914   0.951   4.978   5.446
 2650TIP3    H2 7915   1.095   4.936   5.427
 2651TIP3   OH2 7916   2.864   4.110   4.930
 2651TIP3    H1 7917   2.777   4.138   4.903
 2651TIP3    H2 7918   2.889   4.043   4.867
 2652TIP3   OH2 7919   4.844   4.585   3.167
 2652TIP3    H1 7920   4.818   4.493   3.162
 2652TIP3    H2 7921   4.804   4.617   3.248
 2653TIP3   OH2 7922   4.124   3.194   3.320
 2653TIP3    H1 7923   4.035   3.228   3.328
 2653TIP3    H2 7924   4.119   3.106   3.358
 2654TIP3   OH2 7925   5.436   1.554   2.230
 2654TIP3    H1 7926   5.353   1.545   2.276
 2654TIP3    H2 7927   5.488   1.612   2.286
 2655TIP3   OH2 7928   3.327   4.278   0.913
 2655TIP3    H1 7929   3.268   4.318   0.978
 2655TIP3    H2 7930   3.414   4.289   0.949
 2656TIP3   OH2 7931   5.643   6.739   0.097
 2656TIP3    H1 7932   5.731   6.705   0.112
 2656TIP3    H2 7933   5.655   6.834   0.086
 2657TIP3   OH2 7934   4.074   0.368   1.784
 2657TIP3    H1 7935   4.061   0.340   1.694
 2657TIP3    H2 7936   4.061   0.463   1.782
 2658TIP3   OH2 7937   6.200   6.687   3.812
 2658TIP3    H1 7938   6.126   6.745   3.827
 2658TIP3    H2 7939   6.175   6.604   3.852
 2659TIP3   OH2 7940   1.401   5.897   4.193
 2659TIP3    H1 7941   1.486   5.860   4.170
 2659TIP3    H2 7942   1.340   5.825   4.180
 2660TIP3   OH2 7943   2.214   5.181   5.279
 2660TIP3    H1 7944   2.219   5.101   5.227
 2660TIP3    H2 7945   2.120   5.198   5.287
 2661TIP3   OH2 7946   4.463   2.234   5.795
 2661TIP3    H1 7947   4.499   2.202   5.712
 2661TIP3    H2 7948   4.536   2.228   5.857
 2662TIP3   OH2 7949   3.951   2.719   3.252
 2662TIP3    H1 7950   4.007   2.778   3.301
 2662TIP3    H2 7951   3.905   2.669   3.319
 2663TIP3   OH2 7952   2.545   3.112   3.014
 2663TIP3    H1 7953   2.485   3.185   2.999
 2663TIP3    H2 7954   2.515   3.044   2.953
 2664TIP3   OH2 7955   0.837   0.942   1.070
 2664TIP3    H1 7956   0.917   0.989   1.046
 2664TIP3    H2 7957   0.768   0.986   1.021
 2665TIP3   OH2 7958   2.405   0.768   3.223
 2665TIP3    H1 7959   2.500   0.762   3.230
 2665TIP3    H2 7960   2.389   0.823   3.147
 2666TIP3   OH2 7961   6.937   5.990   1.172
 2666TIP3    H1 7962   6.862   5.994   1.113
 2666TIP3    H2 7963   6.935   6.073   1.220
 2667TIP3   OH2 7964   4.129   3.891   1.580
 2667TIP3    H1 7965   4.091   3.966   1.626
 2667TIP3    H2 7966   4.151   3.828   1.649
 2668TIP3   OH2 7967   1.612   2.099   2.987
 2668TIP3    H1 7968   1.537   2.061   3.033
 2668TIP3    H2 7969   1.650   2.025   2.939
 2669TIP3   OH2 7970   6.198   2.425   1.891
 2669TIP3    H1 7971   6.254   2.438   1.814
 2669TIP3    H2 7972   6.144   2.504   1.895
 2670TIP3   OH2 7973   3.793   2.117   1.182
 2670TIP3    H1 7974   3.756   2.193   1.227
 2670TIP3    H2 7975   3.719   2.057   1.172
 2671TIP3   OH2 7976   7.065   2.826   0.606
 2671TIP3    H1 7977   7.098   2.770   0.676
 2671TIP3    H2 7978   6.973   2.840   0.627
 2672TIP3   OH2 7979   5.164   4.489   2.808
 2672TIP3    H1 7980   5.213   4.430   2.866
 2672TIP3    H2 7981   5.080   4.446   2.796
 2673TIP3   OH2 7982   5.068   4.865   2.291
 2673TIP3    H1 7983   4.997   4.921   2.324
 2673TIP3    H2 7984   5.026   4.782   2.270
 2674TIP3   OH2 7985   3.560   1.833   1.943
 2674TIP3    H1 7986   3.550   1.920   1.905
 2674TIP3    H2 7987   3.475   1.792   1.931
 2675TIP3   OH2 7988   3.387   5.197   2.094
 2675TIP3    H1 7989   3.292   5.202   2.097
 2675TIP3    H2 7990   3.413   5.184   2.185
 2676TIP3   OH2 7991   3.938   3.534   2.543
 2676TIP3    H1 7992   3.912   3.621   2.572
 2676TIP3    H2 7993   3.858   3.483   2.546
 2677TIP3   OH2 7994   2.284   4.240   0.469
 2677TIP3    H1 7995   2.197   4.219   0.433
 2677TIP3    H2 7996   2.289   4.336   0.463
 2678TIP3   OH2 7997   5.134   6.504   5.840
 2678TIP3    H1 7998   5.176   6.479   5.757
 2678TIP3    H2 7999   5.062   6.442   5.850
 2679TIP3   OH2 8000   3.250   4.721   0.189
 2679TIP3    H1 8001   3.285   4.632   0.185
 2679TIP3    H2 8002   3.155   4.709   0.193
 2680TIP3   OH2 8003   7.100   5.064   2.198
 2680TIP3    H1 8004   7.092   5.156   2.224
 2680TIP3    H2 8005   7.029   5.020   2.246
 2681TIP3   OH2 8006   5.131   3.260   3.005
 2681TIP3    H1 8007   5.065   3.246   2.938
 2681TIP3    H2 8008   5.097   3.215   3.082
 2682TIP3   OH2 8009   6.901   5.914   3.526
 2682TIP3    H1 8010   6.908   5.819   3.528
 2682TIP3    H2 8011   6.872   5.935   3.437
 2683TIP3   OH2 8012   6.457   5.321   3.059
 2683TIP3    H1 8013   6.386   5.348   3.118
 2683TIP3    H2 8014   6.482   5.234   3.090
 2684TIP3   OH2 8015   0.044   4.522   1.505
 2684TIP3    H1 8016   0.069   4.432   1.484
 2684TIP3    H2 8017   0.125   4.563   1.535
 2685TIP3   OH2 8018   6.355   0.007   1.131
 2685TIP3    H1 8019   6.385   0.077   1.072
 2685TIP3    H2 8020   6.405   0.020   1.211
 2686TIP3   OH2 8021   6.061   4.325   3.488
 2686TIP3    H1 8022   6.131   4.388   3.507
 2686TIP3    H2 8023   6.013   4.317   3.570
 2687TIP3   OH2 8024   0.320   3.581   0.204
 2687TIP3    H1 8025   0.353   3.595   0.116
 2687TIP3    H2 8026   0.225   3.596   0.197
 2688TIP3   OH2 8027   1.643   1.148   0.651
 2688TIP3    H1 8028   1.568   1.143   0.711
 2688TIP3    H2 8029   1.709   1.198   0.700
 2689TIP3   OH2 8030   0.744   6.153   5.423
 2689TIP3    H1 8031   0.705   6.234   5.455
 2689TIP3    H2 8032   0.705   6.084   5.476
 2690TIP3   OH2 8033   2.696   6.464   3.333
 2690TIP3    H1 8034   2.790   6.472   3.317
 2690TIP3    H2 8035   2.676   6.372   3.313
 2691TIP3   OH2 8036   2.443   0.695   5.004
 2691TIP3    H1 8037   2.494   0.614   4.996
 2691TIP3    H2 8038   2.356   0.671   4.974
 2692TIP3   OH2 8039   3.167   4.730   1.682
 2692TIP3    H1 8040   3.125   4.803   1.637
 2692TIP3    H2 8041   3.251   4.765   1.711
 2693TIP3   OH2 8042   4.226   0.971   3.484
 2693TIP3    H1 8043   4.248   1.053   3.528
 2693TIP3    H2 8044   4.201   0.911   3.555
 2694TIP3   OH2 8045   3.389   3.164   4.303
 2694TIP3    H1 8046   3.415   3.213   4.225
 2694TIP3    H2 8047   3.364   3.078   4.271
 2695TIP3   OH2 8048   4.710   1.735   0.470
 2695TIP3    H1 8049   4.654   1.703   0.540
 2695TIP3    H2 8050   4.723   1.659   0.413
 2696TIP3   OH2 8051   4.928   1.418   0.087
 2696TIP3    H1 8052   4.966   1.423  -0.001
 2696TIP3    H2 8053   5.002   1.411   0.146
 2697TIP3   OH2 8054   6.293   1.449   3.845
 2697TIP3    H1 8055   6.245   1.523   3.809
 2697TIP3    H2 8056   6.385   1.476   3.841
 2698TIP3   OH2 8057   4.917   3.956   1.238
 2698TIP3    H1 8058   4.899   3.915   1.322
 2698TIP3    H2 8059   4.862   4.034   1.237
 2699TIP3   OH2 8060   1.820   3.357   2.164
 2699TIP3    H1 8061   1.893   3.323   2.215
 2699TIP3    H2 8062   1.856   3.432   2.118
 2700TIP3   OH2 8063   3.647   1.569   2.960
 2700TIP3    H1 8064   3.606   1.483   2.959
 2700TIP3    H2 8065   3.691   1.575   2.875
 2701TIP3   OH2 8066   3.332   3.524   1.827
 2701TIP3    H1 8067   3.299   3.542   1.739
 2701TIP3    H2 8068   3.311   3.432   1.842
 2702TIP3   OH2 8069   0.708   4.193   5.883
 2702TIP3    H1 8070   0.721   4.190   5.789
 2702TIP3    H2 8071   0.647   4.121   5.902
 2703TIP3   OH2 8072   4.154   6.758   4.205
 2703TIP3    H1 8073   4.151   6.817   4.280
 2703TIP3    H2 8074   4.121   6.674   4.239
 2704TIP3   OH2 8075   5.861   6.758   5.429
 2704TIP3    H1 8076   5.882   6.670   5.400
 2704TIP3    H2 8077   5.819   6.746   5.515
 2705TIP3   OH2 8078   4.965   0.293   0.879
 2705TIP3    H1 8079   5.045   0.256   0.842
 2705TIP3    H2 8080   4.995   0.347   0.952
 2706TIP3   OH2 8081   0.170   6.091   5.436
 2706TIP3    H1 8082   0.212   6.170   5.470
 2706TIP3    H2 8083   0.241   6.027   5.431
 2707TIP3   OH2 8084   4.529   5.815   5.236
 2707TIP3    H1 8085   4.520   5.729   5.277
 2707TIP3    H2 8086   4.441   5.852   5.240
 2708TIP3   OH2 8087   2.898   5.453   4.076
 2708TIP3    H1 8088   2.953   5.521   4.116
 2708TIP3    H2 8089   2.959   5.390   4.040
 2709TIP3   OH2 8090   0.305   1.058   3.688
 2709TIP3    H1 8091   0.387   1.044   3.641
 2709TIP3    H2 8092   0.305   1.151   3.710
 2710TIP3   OH2 8093   6.565   1.079   3.514
 2710TIP3    H1 8094   6.522   1.117   3.438
 2710TIP3    H2 8095   6.630   1.143   3.541
 2711TIP3   OH2 8096   6.748   3.446   4.936
 2711TIP3    H1 8097   6.716   3.516   4.994
 2711TIP3    H2 8098   6.843   3.453   4.941
 2712TIP3   OH2 8099   1.804   6.762   4.794
 2712TIP3    H1 8100   1.728   6.781   4.740
 2712TIP3    H2 8101   1.872   6.821   4.761
 2713TIP3   OH2 8102   6.726   2.526   0.136
 2713TIP3    H1 8103   6.802   2.475   0.166
 2713TIP3    H2 8104   6.651   2.483   0.177
 2714TIP3   OH2 8105   0.229   0.399   3.392
 2714TIP3    H1 8106   0.321   0.410   3.415
 2714TIP3    H2 8107   0.206   0.312   3.427
 2715TIP3   OH2 8108   5.482   0.865   3.277
 2715TIP3    H1 8109   5.535   0.786   3.277
 2715TIP3    H2 8110   5.397   0.837   3.244
 2716TIP3   OH2 8111   2.463   6.494   0.495
 2716TIP3    H1 8112   2.402   6.526   0.428
 2716TIP3    H2 8113   2.444   6.401   0.502
 2717TIP3   OH2 8114   1.058   5.379   4.747
 2717TIP3    H1 8115   1.040   5.348   4.659
 2717TIP3    H2 8116   1.094   5.302   4.792
 2718TIP3   OH2 8117   0.709   5.984   2.771
 2718TIP3    H1 8118   0.795   6.000   2.733
 2718TIP3    H2 8119   0.676   5.907   2.725
 2719TIP3   OH2 8120   4.405   6.375   0.698
 2719TIP3    H1 8121   4.339   6.432   0.737
 2719TIP3    H2 8122   4.406   6.398   0.605
 2720TIP3   OH2 8123   5.134   2.660   2.675
 2720TIP3    H1 8124   5.050   2.705   2.687
 2720TIP3    H2 8125   5.200   2.723   2.706
 2721TIP3   OH2 8126   6.984   0.383   3.996
 2721TIP3    H1 8127   6.976   0.410   4.087
 2721TIP3    H2 8128   7.008   0.462   3.949
 2722TIP3   OH2 8129   3.234   4.944   5.158
 2722TIP3    H1 8130   3.256   4.862   5.201
 2722TIP3    H2 8131   3.169   4.920   5.092
 2723TIP3   OH2 8132   4.929   3.556   0.504
 2723TIP3    H1 8133   4.844   3.591   0.477
 2723TIP3    H2 8134   4.992   3.607   0.454
 2724TIP3   OH2 8135   2.037   2.550   0.528
 2724TIP3    H1 8136   1.988   2.629   0.552
 2724TIP3    H2 8137   1.994   2.518   0.449
 2725TIP3   OH2 8138   4.432   5.971   5.493
 2725TIP3    H1 8139   4.515   6.018   5.483
 2725TIP3    H2 8140   4.410   5.942   5.405
 2726TIP3   OH2 8141   2.223   1.421   4.279
 2726TIP3    H1 8142   2.179   1.422   4.364
 2726TIP3    H2 8143   2.250   1.330   4.266
 2727TIP3   OH2 8144   6.891   6.586   2.681
 2727TIP3    H1 8145   6.919   6.508   2.727
 2727TIP3    H2 8146   6.935   6.582   2.596
 2728TIP3   OH2 8147   6.520   5.049   0.227
 2728TIP3    H1 8148   6.583   5.060   0.299
 2728TIP3    H2 8149   6.443   5.100   0.255
 2729TIP3   OH2 8150   0.543   5.897   4.034
 2729TIP3    H1 8151   0.564   5.898   4.128
 2729TIP3    H2 8152   0.610   5.953   3.994
 2730TIP3   OH2 8153   4.740   1.129   1.763
 2730TIP3    H1 8154   4.737   1.159   1.672
 2730TIP3    H2 8155   4.820   1.167   1.798
 2731TIP3   OH2 8156   6.117   6.583   0.956
 2731TIP3    H1 8157   6.042   6.543   0.911
 2731TIP3    H2 8158   6.078   6.626   1.032
 2732TIP3   OH2 8159   5.234   3.871   3.597
 2732TIP3    H1 8160   5.253   3.957   3.559
 2732TIP3    H2 8161   5.251   3.881   3.690
 2733TIP3   OH2 8162   6.358   3.062   4.792
 2733TIP3    H1 8163   6.443   3.102   4.772
 2733TIP3    H2 8164   6.379   2.989   4.851
 2734TIP3   OH2 8165   5.237   0.718   4.016
 2734TIP3    H1 8166   5.313   0.722   3.958
 2734TIP3    H2 8167   5.190   0.800   3.999
 2735TIP3   OH2 8168   2.867   0.825   2.139
 2735TIP3    H1 8169   2.867   0.895   2.074
 2735TIP3    H2 8170   2.908   0.751   2.094
 2736TIP3   OH2 8171   2.281   3.229   0.432
 2736TIP3    H1 8172   2.251   3.262   0.517
 2736TIP3    H2 8173   2.340   3.156   0.455
 2737TIP3   OH2 8174   5.415   5.971   1.391
 2737TIP3    H1 8175   5.431   5.913   1.466
 2737TIP3    H2 8176   5.330   6.012   1.410
 2738TIP3   OH2 8177   2.262   4.178   4.569
 2738TIP3    H1 8178   2.251   4.111   4.501
 2738TIP3    H2 8179   2.231   4.259   4.529
 2739TIP3   OH2 8180   5.267   2.779   1.680
 2739TIP3    H1 8181   5.246   2.815   1.594
 2739TIP3    H2 8182   5.270   2.856   1.738
 2740TIP3   OH2 8183   2.768   4.887   3.444
 2740TIP3    H1 8184   2.742   4.859   3.356
 2740TIP3    H2 8185   2.698   4.946   3.472
 2741TIP3   OH2 8186   2.337   2.409   0.918
 2741TIP3    H1 8187   2.290   2.352   0.979
 2741TIP3    H2 8188   2.429   2.384   0.927
 2742TIP3   OH2 8189   3.525   3.405   2.999
 2742TIP3    H1 8190   3.560   3.367   2.918
 2742TIP3    H2 8191   3.435   3.375   3.002
 2743TIP3   OH2 8192   6.357   4.269   0.619
 2743TIP3    H1 8193   6.338   4.266   0.526
 2743TIP3    H2 8194   6.282   4.228   0.661
 2744TIP3   OH2 8195   1.999   1.622   4.773
 2744TIP3    H1 8196   2.018   1.676   4.696
 2744TIP3    H2 8197   1.988   1.685   4.844
 2745TIP3   OH2 8198   6.652   6.346   0.184
 2745TIP3    H1 8199   6.606   6.338   0.267
 2745TIP3    H2 8200   6.743   6.364   0.208
 2746TIP3   OH2 8201   0.436   5.469   0.652
 2746TIP3    H1 8202   0.500   5.471   0.581
 2746TIP3    H2 8203   0.477   5.414   0.719
 2747TIP3   OH2 8204   2.052   5.834   4.771
 2747TIP3    H1 8205   2.026   5.917   4.730
 2747TIP3    H2 8206   1.980   5.774   4.751
 2748TIP3   OH2 8207   0.113   2.831   0.302
 2748TIP3    H1 8208   0.164   2.830   0.383
 2748TIP3    H2 8209   0.032   2.785   0.324
 2749TIP3   OH2 8210   4.712   2.356   4.352
 2749TIP3    H1 8211   4.801   2.333   4.379
 2749TIP3    H2 8212   4.705   2.450   4.369
 2750TIP3   OH2 8213   0.544   5.606   3.798
 2750TIP3    H1 8214   0.469   5.654   3.763
 2750TIP3    H2 8215   0.532   5.607   3.893
 2751TIP3   OH2 8216   1.714   6.095   2.059
 2751TIP3    H1 8217   1.673   6.147   1.990
 2751TIP3    H2 8218   1.644   6.039   2.092
 2752TIP3   OH2 8219   6.480   6.646   2.380
 2752TIP3    H1 8220   6.514   6.559   2.397
 2752TIP3    H2 8221   6.469   6.650   2.285
 2753TIP3   OH2 8222   5.415   4.855   1.987
 2753TIP3    H1 8223   5.366   4.812   2.057
 2753TIP3    H2 8224   5.486   4.795   1.966
 2754TIP3   OH2 8225   1.224   5.560   4.457
 2754TIP3    H1 8226   1.200   5.493   4.521
 2754TIP3    H2 8227   1.178   5.534   4.377
 2755TIP3   OH2 8228   5.364   0.201   0.442
 2755TIP3    H1 8229   5.426   0.178   0.373
 2755TIP3    H2 8230   5.416   0.247   0.508
 2756TIP3   OH2 8231   5.679   6.602   1.125
 2756TIP3    H1 8232   5.683   6.652   1.043
 2756TIP3    H2 8233   5.630   6.523   1.102
 2757TIP3   OH2 8234   3.765   6.034   2.174
 2757TIP3    H1 8235   3.688   6.022   2.117
 2757TIP3    H2 8236   3.757   6.124   2.206
 2758TIP3   OH2 8237   6.898   3.612   3.769
 2758TIP3    H1 8238   6.980   3.611   3.819
 2758TIP3    H2 8239   6.875   3.705   3.764
 2759TIP3   OH2 8240   2.602   0.963   3.437
 2759TIP3    H1 8241   2.680   1.007   3.470
 2759TIP3    H2 8242   2.634   0.904   3.369
 2760TIP3   OH2 8243   3.082   2.032   2.144
 2760TIP3    H1 8244   3.066   2.098   2.211
 2760TIP3    H2 8245   3.127   2.079   2.074
 2761TIP3   OH2 8246   1.211   1.315   5.576
 2761TIP3    H1 8247   1.184   1.247   5.639
 2761TIP3    H2 8248   1.271   1.270   5.517
 2762TIP3   OH2 8249   5.397   4.813   1.270
 2762TIP3    H1 8250   5.333   4.806   1.200
 2762TIP3    H2 8251   5.482   4.804   1.227
 2763TIP3   OH2 8252   0.761   2.942   1.852
 2763TIP3    H1 8253   0.742   3.029   1.818
 2763TIP3    H2 8254   0.855   2.942   1.866
 2764TIP3   OH2 8255   4.925   5.289   5.117
 2764TIP3    H1 8256   4.909   5.244   5.199
 2764TIP3    H2 8257   4.854   5.260   5.059
 2765TIP3   OH2 8258   3.324   0.420   0.365
 2765TIP3    H1 8259   3.295   0.511   0.358
 2765TIP3    H2 8260   3.379   0.406   0.288
 2766TIP3   OH2 8261   3.688   6.149   5.125
 2766TIP3    H1 8262   3.649   6.227   5.085
 2766TIP3    H2 8263   3.778   6.176   5.146
 2767TIP3   OH2 8264   4.191   5.747   1.302
 2767TIP3    H1 8265   4.189   5.721   1.210
 2767TIP3    H2 8266   4.282   5.771   1.319
 2768TIP3   OH2 8267   3.039   4.669   0.981
 2768TIP3    H1 8268   3.053   4.614   1.059
 2768TIP3    H2 8269   3.118   4.724   0.977
 2769TIP3   OH2 8270   2.021   4.168   0.383
 2769TIP3    H1 8271   2.007   4.136   0.293
 2769TIP3    H2 8272   2.024   4.088   0.436
 2770TIP3   OH2 8273   1.105   5.272   0.113
 2770TIP3    H1 8274   1.095   5.334   0.041
 2770TIP3    H2 8275   1.038   5.205   0.096
 2771TIP3   OH2 8276   7.133   6.798   2.640
 2771TIP3    H1 8277   7.172   6.849   2.568
 2771TIP3    H2 8278   7.087   6.727   2.596
 2772TIP3   OH2 8279   6.797   4.118   2.135
 2772TIP3    H1 8280   6.822   4.028   2.156
 2772TIP3    H2 8281   6.839   4.134   2.050
 2773TIP3   OH2 8282   4.620   5.401   0.712
 2773TIP3    H1 8283   4.537   5.353   0.713
 2773TIP3    H2 8284   4.685   5.335   0.690
 2774TIP3   OH2 8285   4.255   3.687   2.916
 2774TIP3    H1 8286   4.161   3.699   2.923
 2774TIP3    H2 8287   4.269   3.593   2.925
 2775TIP3   OH2 8288   3.042   5.161   0.349
 2775TIP3    H1 8289   3.122   5.174   0.297
 2775TIP3    H2 8290   3.058   5.080   0.397
 2776TIP3   OH2 8291   1.488   6.606   0.700
 2776TIP3    H1 8292   1.525   6.635   0.616
 2776TIP3    H2 8293   1.418   6.669   0.717
 2777TIP3   OH2 8294   3.467   5.494   1.414
 2777TIP3    H1 8295   3.394   5.550   1.385
 2777TIP3    H2 8296   3.434   5.452   1.494
 2778TIP3   OH2 8297   2.499   6.001   0.356
 2778TIP3    H1 8298   2.550   5.980   0.434
 2778TIP3    H2 8299   2.478   5.916   0.318
 2779TIP3   OH2 8300   3.409   1.389   4.993
 2779TIP3    H1 8301   3.494   1.422   5.021
 2779TIP3    H2 8302   3.403   1.414   4.901
 2780TIP3   OH2 8303   6.181   5.666   3.411
 2780TIP3    H1 8304   6.217   5.580   3.433
 2780TIP3    H2 8305   6.104   5.675   3.467
 2781TIP3   OH2 8306   3.033   3.987   0.005
 2781TIP3    H1 8307   2.949   4.030   0.023
 2781TIP3    H2 8308   3.081   3.995   0.088
 2782TIP3   OH2 8309   0.620   1.828   2.774
 2782TIP3    H1 8310   0.635   1.822   2.679
 2782TIP3    H2 8311   0.537   1.782   2.788
 2783TIP3   OH2 8312   6.739   3.282   0.491
 2783TIP3    H1 8313   6.772   3.202   0.450
 2783TIP3    H2 8314   6.691   3.252   0.568
 2784TIP3   OH2 8315   5.955   5.868   4.105
 2784TIP3    H1 8316   5.878   5.820   4.076
 2784TIP3    H2 8317   5.921   5.934   4.166
 2785TIP3   OH2 8318   3.083   5.504   5.819
 2785TIP3    H1 8319   3.020   5.501   5.891
 2785TIP3    H2 8320   3.079   5.417   5.780
 2786TIP3   OH2 8321   1.603   2.859   5.605
 2786TIP3    H1 8322   1.553   2.778   5.593
 2786TIP3    H2 8323   1.676   2.833   5.661
 2787TIP3   OH2 8324   6.580   5.617   4.223
 2787TIP3    H1 8325   6.653   5.580   4.272
 2787TIP3    H2 8326   6.612   5.622   4.133
 2788TIP3   OH2 8327   2.273   6.007   0.598
 2788TIP3    H1 8328   2.273   5.911   0.597
 2788TIP3    H2 8329   2.192   6.031   0.643
 2789TIP3   OH2 8330   1.818   2.222   4.044
 2789TIP3    H1 8331   1.755   2.218   3.972
 2789TIP3    H2 8332   1.887   2.281   4.011
 2790TIP3   OH2 8333   6.627   2.077   3.050
 2790TIP3    H1 8334   6.664   2.014   2.988
 2790TIP3    H2 8335   6.561   2.125   2.999
 2791TIP3   OH2 8336   2.421   0.807   1.007
 2791TIP3    H1 8337   2.509   0.775   1.029
 2791TIP3    H2 8338   2.365   0.770   1.075
 2792TIP3   OH2 8339   0.366   3.854   5.411
 2792TIP3    H1 8340   0.341   3.818   5.496
 2792TIP3    H2 8341   0.415   3.783   5.369
 2793TIP3   OH2 8342   6.718   0.921   2.705
 2793TIP3    H1 8343   6.765   0.973   2.641
 2793TIP3    H2 8344   6.761   0.835   2.704
 2794TIP3   OH2 8345   2.843   3.430   1.584
 2794TIP3    H1 8346   2.905   3.366   1.618
 2794TIP3    H2 8347   2.796   3.385   1.515
 2795TIP3   OH2 8348   0.638   6.506   4.296
 2795TIP3    H1 8349   0.561   6.554   4.266
 2795TIP3    H2 8350   0.628   6.502   4.391
 2796TIP3   OH2 8351   4.648   4.279   2.125
 2796TIP3    H1 8352   4.641   4.372   2.145
 2796TIP3    H2 8353   4.606   4.235   2.199
 2797TIP3   OH2 8354   4.838   4.429   3.499
 2797TIP3    H1 8355   4.933   4.438   3.511
 2797TIP3    H2 8356   4.819   4.338   3.520
 2798TIP3   OH2 8357   5.285   1.118   0.284
 2798TIP3    H1 8358   5.237   1.050   0.237
 2798TIP3    H2 8359   5.245   1.120   0.370
 2799TIP3   OH2 8360   2.180   1.265   5.066
 2799TIP3    H1 8361   2.106   1.278   5.007
 2799TIP3    H2 8362   2.141   1.227   5.145
 2800TIP3   OH2 8363   5.256   1.938   4.192
 2800TIP3    H1 8364   5.314   1.956   4.267
 2800TIP3    H2 8365   5.178   1.990   4.210
 2801TIP3   OH2 8366   4.077   4.470   5.746
 2801TIP3    H1 8367   4.045   4.422   5.822
 2801TIP3    H2 8368   4.156   4.515   5.777
 2802TIP3   OH2 8369   6.914   1.372   0.033
 2802TIP3    H1 8370   6.973   1.405   0.100
 2802TIP3    H2 8371   6.969   1.315  -0.021
 2803TIP3   OH2 8372   3.114   1.455   1.398
 2803TIP3    H1 8373   3.037   1.477   1.345
 2803TIP3    H2 8374   3.139   1.368   1.369
 2804TIP3   OH2 8375   4.580   6.454   3.999
 2804TIP3    H1 8376   4.509   6.517   3.991
 2804TIP3    H2 8377   4.620   6.473   4.084
 2805TIP3   OH2 8378   3.983   3.694   3.071
 2805TIP3    H1 8379   4.020   3.721   3.155
 2805TIP3    H2 8380   3.898   3.656   3.094
 2806TIP3   OH2 8381   2.315   5.430   3.195
 2806TIP3    H1 8382   2.268   5.439   3.278
 2806TIP3    H2 8383   2.404   5.459   3.215
 2807TIP3   OH2 8384   3.847   2.982   5.152
 2807TIP3    H1 8385   3.777   3.031   5.195
 2807TIP3    H2 8386   3.805   2.936   5.080
 2808TIP3   OH2 8387   4.405   5.623   5.427
 2808TIP3    H1 8388   4.481   5.578   5.463
 2808TIP3    H2 8389   4.364   5.665   5.503
 2809TIP3   OH2 8390   6.412   6.655   2.109
 2809TIP3    H1 8391   6.426   6.616   2.023
 2809TIP3    H2 8392   6.324   6.693   2.104
 2810TIP3   OH2 8393   5.690   3.277   4.809
 2810TIP3    H1 8394   5.739   3.322   4.740
 2810TIP3    H2 8395   5.627   3.223   4.763
 2811TIP3   OH2 8396   1.952   3.570   4.609
 2811TIP3    H1 8397   1.925   3.581   4.518
 2811TIP3    H2 8398   1.911   3.643   4.655
 2812TIP3   OH2 8399   5.722   1.647   4.379
 2812TIP3    H1 8400   5.793   1.640   4.315
 2812TIP3    H2 8401   5.764   1.629   4.463
 2813TIP3   OH2 8402   3.076   1.438   1.703
 2813TIP3    H1 8403   3.131   1.452   1.626
 2813TIP3    H2 8404   3.022   1.362   1.680
 2814TIP3   OH2 8405   1.681   1.731   3.220
 2814TIP3    H1 8406   1.707   1.658   3.277
 2814TIP3    H2 8407   1.706   1.810   3.268
 2815TIP3   OH2 8408   1.823   4.477   2.633
 2815TIP3    H1 8409   1.773   4.487   2.714
 2815TIP3    H2 8410   1.854   4.566   2.612
 2816TIP3   OH2 8411   3.019   6.525   3.457
 2816TIP3    H1 8412   3.034   6.489   3.544
 2816TIP3    H2 8413   3.050   6.616   3.463
 2817TIP3   OH2 8414   3.552   1.247   1.144
 2817TIP3    H1 8415   3.625   1.214   1.091
 2817TIP3    H2 8416   3.480   1.257   1.082
 2818TIP3   OH2 8417   0.301   5.725   2.953
 2818TIP3    H1 8418   0.225   5.781   2.966
 2818TIP3    H2 8419   0.376   5.783   2.967
 2819TIP3   OH2 8420   6.243   3.448   4.982
 2819TIP3    H1 8421   6.153   3.460   4.952
 2819TIP3    H2 8422   6.286   3.530   4.959
 2820TIP3   OH2 8423   1.323   1.902   0.739
 2820TIP3    H1 8424   1.360   1.889   0.651
 2820TIP3    H2 8425   1.231   1.924   0.724
 2821TIP3   OH2 8426   4.081   4.302   2.087
 2821TIP3    H1 8427   4.069   4.246   2.163
 2821TIP3    H2 8428   4.011   4.277   2.027
 2822TIP3   OH2 8429   2.143   0.212   0.232
 2822TIP3    H1 8430   2.233   0.191   0.209
 2822TIP3    H2 8431   2.099   0.127   0.235
 2823TIP3   OH2 8432   4.911   3.333   4.614
 2823TIP3    H1 8433   5.002   3.327   4.644
 2823TIP3    H2 8434   4.871   3.250   4.642
 2824TIP3   OH2 8435   7.211   4.700   4.491
 2824TIP3    H1 8436   7.220   4.669   4.401
 2824TIP3    H2 8437   7.206   4.795   4.484
 2825TIP3   OH2 8438   0.200   0.314   2.863
 2825TIP3    H1 8439   0.259   0.239   2.877
 2825TIP3    H2 8440   0.250   0.374   2.809
 2826TIP3   OH2 8441   6.739   5.125   0.065
 2826TIP3    H1 8442   6.659   5.096   0.108
 2826TIP3    H2 8443   6.809   5.080   0.112
 2827TIP3   OH2 8444   6.384   5.303   5.669
 2827TIP3    H1 8445   6.383   5.378   5.609
 2827TIP3    H2 8446   6.418   5.231   5.617
 2828TIP3   OH2 8447   2.426   1.949   1.589
 2828TIP3    H1 8448   2.434   1.884   1.659
 2828TIP3    H2 8449   2.429   1.898   1.508
 2829TIP3   OH2 8450   5.660   2.076   1.825
 2829TIP3    H1 8451   5.677   2.165   1.794
 2829TIP3    H2 8452   5.735   2.054   1.881
 2830TIP3   OH2 8453   4.010   1.650   4.671
 2830TIP3    H1 8454   3.966   1.631   4.588
 2830TIP3    H2 8455   4.089   1.596   4.670
 2831TIP3   OH2 8456   4.174   1.443   3.332
 2831TIP3    H1 8457   4.103   1.435   3.269
 2831TIP3    H2 8458   4.154   1.523   3.381
 2832TIP3   OH2 8459   6.795   3.534   4.437
 2832TIP3    H1 8460   6.853   3.532   4.514
 2832TIP3    H2 8461   6.840   3.590   4.375
 2833TIP3   OH2 8462   5.725   5.936   1.494
 2833TIP3    H1 8463   5.709   6.030   1.481
 2833TIP3    H2 8464   5.645   5.905   1.538
 2834TIP3   OH2 8465   0.699   2.875   2.167
 2834TIP3    H1 8466   0.700   2.883   2.071
 2834TIP3    H2 8467   0.782   2.913   2.195
 2835TIP3   OH2 8468   2.073   1.087   2.250
 2835TIP3    H1 8469   2.058   1.123   2.163
 2835TIP3    H2 8470   2.142   1.022   2.238
 2836TIP3   OH2 8471   6.960   0.334   1.186
 2836TIP3    H1 8472   6.973   0.415   1.235
 2836TIP3    H2 8473   6.906   0.360   1.111
 2837TIP3   OH2 8474   5.358   3.238   2.324
 2837TIP3    H1 8475   5.374   3.158   2.374
 2837TIP3    H2 8476   5.298   3.212   2.255
 2838TIP3   OH2 8477   1.626   4.158   4.492
 2838TIP3    H1 8478   1.646   4.065   4.480
 2838TIP3    H2 8479   1.711   4.200   4.505
 2839TIP3   OH2 8480   6.128   6.661   1.796
 2839TIP3    H1 8481   6.203   6.655   1.855
 2839TIP3    H2 8482   6.052   6.659   1.854
 2840TIP3   OH2 8483   2.028   1.587   1.490
 2840TIP3    H1 8484   2.022   1.677   1.522
 2840TIP3    H2 8485   2.042   1.595   1.396
 2841TIP3   OH2 8486   3.240   1.663   3.209
 2841TIP3    H1 8487   3.253   1.745   3.160
 2841TIP3    H2 8488   3.279   1.680   3.295
 2842TIP3   OH2 8489   4.385   3.232   3.256
 2842TIP3    H1 8490   4.295   3.217   3.285
 2842TIP3    H2 8491   4.428   3.272   3.332
 2843TIP3   OH2 8492   2.999   5.688   4.215
 2843TIP3    H1 8493   2.991   5.762   4.154
 2843TIP3    H2 8494   3.064   5.717   4.279
 2844TIP3   OH2 8495   1.711   6.151   5.109
 2844TIP3    H1 8496   1.665   6.206   5.045
 2844TIP3    H2 8497   1.642   6.123   5.170
 2845TIP3   OH2 8498   4.411   0.461   3.111
 2845TIP3    H1 8499   4.484   0.464   3.049
 2845TIP3    H2 8500   4.350   0.397   3.073
 2846TIP3   OH2 8501   5.222   3.277   5.423
 2846TIP3    H1 8502   5.244   3.274   5.330
 2846TIP3    H2 8503   5.159   3.348   5.430
 2847TIP3   OH2 8504   0.429   0.078   1.463
 2847TIP3    H1 8505   0.444   0.156   1.409
 2847TIP3    H2 8506   0.510   0.066   1.512
 2848TIP3   OH2 8507   7.124   5.185   0.416
 2848TIP3    H1 8508   7.195   5.193   0.480
 2848TIP3    H2 8509   7.052   5.234   0.454
 2849TIP3   OH2 8510   0.897   3.698   2.835
 2849TIP3    H1 8511   0.948   3.751   2.896
 2849TIP3    H2 8512   0.939   3.612   2.837
 2850TIP3   OH2 8513   0.849   3.071   3.390
 2850TIP3    H1 8514   0.879   3.100   3.304
 2850TIP3    H2 8515   0.771   3.123   3.407
 2851TIP3   OH2 8516   2.108   4.818   1.215
 2851TIP3    H1 8517   2.198   4.790   1.203
 2851TIP3    H2 8518   2.071   4.758   1.279
 2852TIP3   OH2 8519   3.067   4.075   0.477
 2852TIP3    H1 8520   3.029   4.036   0.556
 2852TIP3    H2 8521   3.018   4.036   0.405
 2853TIP3   OH2 8522   2.557   0.738   1.615
 2853TIP3    H1 8523   2.633   0.734   1.557
 2853TIP3    H2 8524   2.498   0.669   1.583
 2854TIP3   OH2 8525   6.139   1.432   5.312
 2854TIP3    H1 8526   6.132   1.408   5.404
 2854TIP3    H2 8527   6.137   1.528   5.312
 2855TIP3   OH2 8528   3.794   4.364   4.041
 2855TIP3    H1 8529   3.796   4.404   3.954
 2855TIP3    H2 8530   3.744   4.425   4.094
 2856TIP3   OH2 8531   5.303   5.340   2.337
 2856TIP3    H1 8532   5.395   5.365   2.349
 2856TIP3    H2 8533   5.302   5.247   2.359
 2857TIP3   OH2 8534   3.208   0.945   2.157
 2857TIP3    H1 8535   3.256   0.885   2.101
 2857TIP3    H2 8536   3.258   0.949   2.238
 2858TIP3   OH2 8537   1.994   3.715   4.360
 2858TIP3    H1 8538   2.045   3.645   4.318
 2858TIP3    H2 8539   1.905   3.702   4.326
 2859TIP3   OH2 8540   3.305   0.632   5.336
 2859TIP3    H1 8541   3.333   0.724   5.337
 2859TIP3    H2 8542   3.211   0.636   5.350
 2860TIP3   OH2 8543   2.692   6.586   0.677
 2860TIP3    H1 8544   2.762   6.620   0.733
 2860TIP3    H2 8545   2.726   6.503   0.643
 2861TIP3   OH2 8546   2.459   5.542   2.791
 2861TIP3    H1 8547   2.415   5.596   2.727
 2861TIP3    H2 8548   2.414   5.559   2.874
 2862TIP3   OH2 8549   2.836   1.605   3.877
 2862TIP3    H1 8550   2.863   1.516   3.900
 2862TIP3    H2 8551   2.753   1.593   3.830
 2863TIP3   OH2 8552   3.752   1.023   3.595
 2863TIP3    H1 8553   3.786   1.048   3.510
 2863TIP3    H2 8554   3.681   0.963   3.576
 2864TIP3   OH2 8555   6.360   1.937   4.549
 2864TIP3    H1 8556   6.381   1.847   4.576
 2864TIP3    H2 8557   6.438   1.987   4.573
 2865TIP3   OH2 8558   5.134   6.524   3.915
 2865TIP3    H1 8559   5.217   6.479   3.899
 2865TIP3    H2 8560   5.160   6.614   3.937
 2866TIP3   OH2 8561   5.219   2.917   4.186
 2866TIP3    H1 8562   5.298   2.878   4.224
 2866TIP3    H2 8563   5.233   2.911   4.091
 2867TIP3   OH2 8564   1.624   5.456   2.945
 2867TIP3    H1 8565   1.581   5.371   2.937
 2867TIP3    H2 8566   1.671   5.452   3.028
 2868TIP3   OH2 8567   1.128   0.968   3.625
 2868TIP3    H1 8568   1.213   0.934   3.655
 2868TIP3    H2 8569   1.149   1.013   3.543
 2869TIP3   OH2 8570   2.953   5.956   3.242
 2869TIP3    H1 8571   2.890   5.978   3.174
 2869TIP3    H2 8572   2.996   5.876   3.211
 2870TIP3   OH2 8573   4.630   6.047   4.656
 2870TIP3    H1 8574   4.572   5.979   4.691
 2870TIP3    H2 8575   4.574   6.123   4.644
 2871TIP3   OH2 8576   7.155   3.991   3.222
 2871TIP3    H1 8577   7.078   3.938   3.201
 2871TIP3    H2 8578   7.120   4.075   3.251
 2872TIP3   OH2 8579   3.892   4.760   5.785
 2872TIP3    H1 8580   3.837   4.787   5.859
 2872TIP3    H2 8581   3.958   4.702   5.825
 2873TIP3   OH2 8582   6.868   0.170   5.109
 2873TIP3    H1 8583   6.850   0.105   5.041
 2873TIP3    H2 8584   6.894   0.249   5.060
 2874TIP3   OH2 8585   2.573   3.535   3.234
 2874TIP3    H1 8586   2.600   3.540   3.143
 2874TIP3    H2 8587   2.641   3.483   3.277
 2875TIP3   OH2 8588   5.305   6.504   1.578
 2875TIP3    H1 8589   5.224   6.523   1.626
 2875TIP3    H2 8590   5.335   6.420   1.614
 2876TIP3   OH2 8591   0.657   2.707   3.309
 2876TIP3    H1 8592   0.592   2.776   3.324
 2876TIP3    H2 8593   0.605   2.631   3.284
 2877TIP3   OH2 8594   5.111   6.045   0.822
 2877TIP3    H1 8595   5.155   6.129   0.831
 2877TIP3    H2 8596   5.170   5.993   0.765
 2878TIP3   OH2 8597   1.954   4.405   1.995
 2878TIP3    H1 8598   2.037   4.366   2.022
 2878TIP3    H2 8599   1.950   4.390   1.901
 2879TIP3   OH2 8600   4.889   2.613   0.339
 2879TIP3    H1 8601   4.942   2.669   0.395
 2879TIP3    H2 8602   4.952   2.562   0.288
 2880TIP3   OH2 8603   0.640   0.796   0.437
 2880TIP3    H1 8604   0.628   0.872   0.494
 2880TIP3    H2 8605   0.552   0.761   0.425
 2881TIP3   OH2 8606   1.766   5.138   5.555
 2881TIP3    H1 8607   1.789   5.051   5.587
 2881TIP3    H2 8608   1.711   5.122   5.478
 2882TIP3   OH2 8609   6.023   4.738   4.193
 2882TIP3    H1 8610   5.929   4.735   4.210
 2882TIP3    H2 8611   6.034   4.810   4.130
 2883TIP3   OH2 8612   0.756   5.205   5.233
 2883TIP3    H1 8613   0.797   5.199   5.147
 2883TIP3    H2 8614   0.800   5.138   5.286
 2884TIP3   OH2 8615   4.229   4.585   1.355
 2884TIP3    H1 8616   4.194   4.496   1.361
 2884TIP3    H2 8617   4.178   4.626   1.285
 2885TIP3   OH2 8618   1.325   3.546   2.146
 2885TIP3    H1 8619   1.409   3.500   2.145
 2885TIP3    H2 8620   1.345   3.632   2.184
 2886TIP3   OH2 8621   4.799   6.579   3.072
 2886TIP3    H1 8622   4.851   6.652   3.107
 2886TIP3    H2 8623   4.784   6.522   3.147
 2887TIP3   OH2 8624   5.248   4.892   4.188
 2887TIP3    H1 8625   5.229   4.816   4.244
 2887TIP3    H2 8626   5.260   4.854   4.101
 2888TIP3   OH2 8627   0.832   6.515   4.920
 2888TIP3    H1 8628   0.833   6.531   5.015
 2888TIP3    H2 8629   0.782   6.588   4.884
 2889TIP3   OH2 8630   1.776   0.861   3.301
 2889TIP3    H1 8631   1.786   0.933   3.364
 2889TIP3    H2 8632   1.706   0.891   3.243
 2890TIP3   OH2 8633   6.596   4.541   0.851
 2890TIP3    H1 8634   6.560   4.537   0.940
 2890TIP3    H2 8635   6.689   4.562   0.864
 2891TIP3   OH2 8636   5.715   4.422   5.273
 2891TIP3    H1 8637   5.687   4.332   5.289
 2891TIP3    H2 8638   5.792   4.433   5.329
 2892TIP3   OH2 8639   2.705   0.645   2.269
 2892TIP3    H1 8640   2.757   0.717   2.233
 2892TIP3    H2 8641   2.769   0.582   2.301
 2893TIP3   OH2 8642   2.462   0.289   1.835
 2893TIP3    H1 8643   2.384   0.293   1.779
 2893TIP3    H2 8644   2.491   0.198   1.830
 2894TIP3   OH2 8645   0.277   4.614   0.183
 2894TIP3    H1 8646   0.255   4.539   0.238
 2894TIP3    H2 8647   0.344   4.582   0.123
 2895TIP3   OH2 8648   5.469   1.364   2.596
 2895TIP3    H1 8649   5.537   1.417   2.556
 2895TIP3    H2 8650   5.447   1.298   2.530
 2896TIP3   OH2 8651   6.744   4.729   5.423
 2896TIP3    H1 8652   6.775   4.819   5.437
 2896TIP3    H2 8653   6.812   4.674   5.461
 2897TIP3   OH2 8654   5.242   4.413   2.000
 2897TIP3    H1 8655   5.279   4.409   1.912
 2897TIP3    H2 8656   5.312   4.450   2.054
 2898TIP3   OH2 8657   5.545   1.780   2.350
 2898TIP3    H1 8658   5.531   1.854   2.409
 2898TIP3    H2 8659   5.593   1.817   2.276
 2899TIP3   OH2 8660   3.818   5.115   0.261
 2899TIP3    H1 8661   3.905   5.105   0.299
 2899TIP3    H2 8662   3.766   5.155   0.331
 2900TIP3   OH2 8663   3.084   5.385   3.136
 2900TIP3    H1 8664   3.119   5.324   3.201
 2900TIP3    H2 8665   3.158   5.440   3.111
 2901TIP3   OH2 8666   2.834   6.245   5.320
 2901TIP3    H1 8667   2.777   6.320   5.339
 2901TIP3    H2 8668   2.800   6.174   5.375
 2902TIP3   OH2 8669   0.911   2.496   3.863
 2902TIP3    H1 8670   0.848   2.549   3.815
 2902TIP3    H2 8671   0.992   2.502   3.812
 2903TIP3   OH2 8672   5.841   5.241   3.526
 2903TIP3    H1 8673   5.882   5.158   3.552
 2903TIP3    H2 8674   5.753   5.217   3.498
 2904TIP3   OH2 8675   2.010   3.427   2.466
 2904TIP3    H1 8676   2.021   3.517   2.497
 2904TIP3    H2 8677   2.049   3.427   2.379
 2905TIP3   OH2 8678   6.458   0.620   5.731
 2905TIP3    H1 8679   6.509   0.544   5.761
 2905TIP3    H2 8680   6.524   0.687   5.714
 2906TIP3   OH2 8681   4.821   1.051   1.274
 2906TIP3    H1 8682   4.911   1.032   1.302
 2906TIP3    H2 8683   4.779   1.088   1.352
 2907TIP3   OH2 8684   4.066   4.138   2.314
 2907TIP3    H1 8685   4.148   4.089   2.308
 2907TIP3    H2 8686   4.031   4.116   2.400
 2908TIP3   OH2 8687   3.676   5.011   1.661
 2908TIP3    H1 8688   3.765   5.041   1.678
 2908TIP3    H2 8689   3.621   5.068   1.716
 2909TIP3   OH2 8690   0.975   2.267   4.321
 2909TIP3    H1 8691   0.974   2.316   4.238
 2909TIP3    H2 8692   1.046   2.204   4.311
 2910TIP3   OH2 8693   5.408   4.483   5.202
 2910TIP3    H1 8694   5.418   4.392   5.174
 2910TIP3    H2 8695   5.479   4.530   5.157
 2911TIP3   OH2 8696   0.678   4.028   0.341
 2911TIP3    H1 8697   0.628   4.018   0.260
 2911TIP3    H2 8698   0.647   3.958   0.398
 2912TIP3   OH2 8699   1.830   6.184   4.151
 2912TIP3    H1 8700   1.876   6.166   4.069
 2912TIP3    H2 8701   1.884   6.251   4.194
 2913TIP3   OH2 8702   4.351   5.134   4.783
 2913TIP3    H1 8703   4.317   5.128   4.694
 2913TIP3    H2 8704   4.446   5.145   4.773
 2914TIP3   OH2 8705   3.499   2.298   1.186
 2914TIP3    H1 8706   3.460   2.386   1.185
 2914TIP3    H2 8707   3.558   2.299   1.261
 2915TIP3   OH2 8708   2.318   2.769   0.164
 2915TIP3    H1 8709   2.344   2.798   0.251
 2915TIP3    H2 8710   2.363   2.686   0.151
 2916TIP3   OH2 8711   0.837   2.839   3.100
 2916TIP3    H1 8712   0.878   2.897   3.163
 2916TIP3    H2 8713   0.793   2.772   3.153
 2917TIP3   OH2 8714   2.672   2.814   0.330
 2917TIP3    H1 8715   2.605   2.864   0.377
 2917TIP3    H2 8716   2.745   2.808   0.391
 2918TIP3   OH2 8717   5.545   0.962   0.917
 2918TIP3    H1 8718   5.495   1.032   0.876
 2918TIP3    H2 8719   5.523   0.967   1.010
 2919TIP3   OH2 8720   1.735   5.143   2.428
 2919TIP3    H1 8721   1.743   5.188   2.343
 2919TIP3    H2 8722   1.645   5.112   2.430
 2920TIP3   OH2 8723   2.302   4.404   1.950
 2920TIP3    H1 8724   2.333   4.354   2.025
 2920TIP3    H2 8725   2.275   4.338   1.886
 2921TIP3   OH2 8726   1.924   1.924   5.261
 2921TIP3    H1 8727   1.879   1.990   5.209
 2921TIP3    H2 8728   1.904   1.841   5.218
 2922TIP3   OH2 8729   4.820   0.376   3.781
 2922TIP3    H1 8730   4.872   0.386   3.702
 2922TIP3    H2 8731   4.818   0.463   3.821
 2923TIP3   OH2 8732   1.122   0.643   5.739
 2923TIP3    H1 8733   1.034   0.611   5.759
 2923TIP3    H2 8734   1.180   0.589   5.793
 2924TIP3   OH2 8735   4.250   6.249   5.425
 2924TIP3    H1 8736   4.159   6.232   5.449
 2924TIP3    H2 8737   4.275   6.325   5.478
 2925TIP3   OH2 8738   4.288   2.838   2.388
 2925TIP3    H1 8739   4.294   2.915   2.445
 2925TIP3    H2 8740   4.255   2.872   2.305
 2926TIP3   OH2 8741   6.826   3.711   3.387
 2926TIP3    H1 8742   6.890   3.673   3.447
 2926TIP3    H2 8743   6.878   3.744   3.314
 2927TIP3   OH2 8744   3.685   5.281   0.463
 2927TIP3    H1 8745   3.755   5.332   0.503
 2927TIP3    H2 8746   3.617   5.277   0.530
 2928TIP3   OH2 8747   5.419   1.344   1.695
 2928TIP3    H1 8748   5.360   1.313   1.626
 2928TIP3    H2 8749   5.401   1.288   1.770
 2929TIP3   OH2 8750   2.718   2.403   3.535
 2929TIP3    H1 8751   2.629   2.416   3.567
 2929TIP3    H2 8752   2.773   2.457   3.593
 2930TIP3   OH2 8753   4.133   4.761   5.478
 2930TIP3    H1 8754   4.176   4.748   5.393
 2930TIP3    H2 8755   4.072   4.687   5.485
 2931TIP3   OH2 8756   1.068   0.122   3.098
 2931TIP3    H1 8757   1.134   0.151   3.161
 2931TIP3    H2 8758   1.057   0.029   3.117
 2932TIP3   OH2 8759   5.566   2.959   2.177
 2932TIP3    H1 8760   5.659   2.958   2.154
 2932TIP3    H2 8761   5.544   3.052   2.181
 2933TIP3   OH2 8762   5.745   2.321   2.073
 2933TIP3    H1 8763   5.723   2.374   1.996
 2933TIP3    H2 8764   5.839   2.309   2.068
 2934TIP3   OH2 8765   5.533   6.698   0.858
 2934TIP3    H1 8766   5.626   6.680   0.846
 2934TIP3    H2 8767   5.504   6.729   0.772
 2935TIP3   OH2 8768   2.676   2.116   0.404
 2935TIP3    H1 8769   2.760   2.076   0.425
 2935TIP3    H2 8770   2.674   2.119   0.308
 2936TIP3   OH2 8771   0.554   2.248   1.814
 2936TIP3    H1 8772   0.508   2.266   1.732
 2936TIP3    H2 8773   0.646   2.267   1.795
 2937TIP3   OH2 8774   5.574   2.368   1.764
 2937TIP3    H1 8775   5.544   2.416   1.688
 2937TIP3    H2 8776   5.643   2.423   1.802
 2938TIP3   OH2 8777   0.453   1.547   1.323
 2938TIP3    H1 8778   0.520   1.579   1.263
 2938TIP3    H2 8779   0.495   1.549   1.410
 2939TIP3   OH2 8780   4.372   4.475   4.763
 2939TIP3    H1 8781   4.297   4.436   4.720
 2939TIP3    H2 8782   4.336   4.519   4.840
 2940TIP3   OH2 8783   3.411   4.621   5.840
 2940TIP3    H1 8784   3.332   4.643   5.791
 2940TIP3    H2 8785   3.463   4.569   5.778
 2941TIP3   OH2 8786   1.532   1.432   4.748
 2941TIP3    H1 8787   1.595   1.470   4.809
 2941TIP3    H2 8788   1.549   1.338   4.752
 2942TIP3   OH2 8789   0.001   5.690   1.267
 2942TIP3    H1 8790   0.074   5.669   1.209
 2942TIP3    H2 8791  -0.047   5.759   1.221
 2943TIP3   OH2 8792   4.260   6.474   0.491
 2943TIP3    H1 8793   4.171   6.448   0.466
 2943TIP3    H2 8794   4.274   6.558   0.448
 2944TIP3   OH2 8795   2.838   1.416   0.777
 2944TIP3    H1 8796   2.911   1.419   0.715
 2944TIP3    H2 8797   2.786   1.340   0.749
 2945TIP3   OH2 8798   4.689   4.087   1.109
 2945TIP3    H1 8799   4.686   4.182   1.101
 2945TIP3    H2 8800   4.604   4.064   1.147
 2946TIP3   OH2 8801   0.012   4.106   1.957
 2946TIP3    H1 8802   0.039   4.181   1.905
 2946TIP3    H2 8803   0.079   4.099   2.026
 2947TIP3   OH2 8804   6.851   3.720   0.154
 2947TIP3    H1 8805   6.926   3.674   0.192
 2947TIP3    H2 8806   6.777   3.663   0.174
 2948TIP3   OH2 8807   1.507   3.632   1.761
 2948TIP3    H1 8808   1.477   3.541   1.752
 2948TIP3    H2 8809   1.602   3.625   1.765
 2949TIP3   OH2 8810   5.720   1.112   3.595
 2949TIP3    H1 8811   5.788   1.168   3.633
 2949TIP3    H2 8812   5.656   1.100   3.666
 2950TIP3   OH2 8813   1.012   6.391   4.315
 2950TIP3    H1 8814   1.085   6.452   4.323
 2950TIP3    H2 8815   0.947   6.421   4.379
 2951TIP3   OH2 8816   1.988   6.530   1.508
 2951TIP3    H1 8817   1.914   6.575   1.550
 2951TIP3    H2 8818   1.949   6.450   1.472
 2952TIP3   OH2 8819   6.083   0.637   3.747
 2952TIP3    H1 8820   6.136   0.713   3.724
 2952TIP3    H2 8821   6.040   0.612   3.665
 2953TIP3   OH2 8822   2.130   1.278   5.586
 2953TIP3    H1 8823   2.205   1.255   5.640
 2953TIP3    H2 8824   2.139   1.372   5.572
 2954TIP3   OH2 8825   3.423   4.483   2.257
 2954TIP3    H1 8826   3.493   4.504   2.319
 2954TIP3    H2 8827   3.455   4.513   2.173
 2955TIP3   OH2 8828   5.990   6.394   2.037
 2955TIP3    H1 8829   5.928   6.467   2.032
 2955TIP3    H2 8830   6.042   6.412   2.116
 2956TIP3   OH2 8831   3.851   1.721   2.400
 2956TIP3    H1 8832   3.805   1.778   2.462
 2956TIP3    H2 8833   3.792   1.715   2.325
 2957TIP3   OH2 8834   1.038   2.658   2.295
 2957TIP3    H1 8835   1.035   2.565   2.316
 2957TIP3    H2 8836   1.117   2.690   2.340
 2958TIP3   OH2 8837   3.146   1.240   3.535
 2958TIP3    H1 8838   3.202   1.248   3.458
 2958TIP3    H2 8839   3.078   1.178   3.510
 2959TIP3   OH2 8840   0.308   5.070   1.068
 2959TIP3    H1 8841   0.213   5.060   1.057
 2959TIP3    H2 8842   0.344   5.056   0.981
 2960TIP3   OH2 8843   2.645   1.266   2.902
 2960TIP3    H1 8844   2.609   1.340   2.950
 2960TIP3    H2 8845   2.739   1.273   2.914
 2961TIP3   OH2 8846   1.747   5.303   2.203
 2961TIP3    H1 8847   1.759   5.378   2.261
 2961TIP3    H2 8848   1.663   5.318   2.160
 2962TIP3   OH2 8849   2.393   4.761   4.055
 2962TIP3    H1 8850   2.403   4.675   4.013
 2962TIP3    H2 8851   2.320   4.749   4.116
 2963TIP3   OH2 8852   5.621   2.129   3.956
 2963TIP3    H1 8853   5.616   2.068   3.883
 2963TIP3    H2 8854   5.537   2.176   3.954
 2964TIP3   OH2 8855   4.887   5.536   2.034
 2964TIP3    H1 8856   4.950   5.501   2.097
 2964TIP3    H2 8857   4.894   5.477   1.958
 2965TIP3   OH2 8858   2.162   1.009   1.508
 2965TIP3    H1 8859   2.118   1.005   1.593
 2965TIP3    H2 8860   2.128   0.934   1.460
 2966TIP3   OH2 8861   1.276   0.484   4.003
 2966TIP3    H1 8862   1.319   0.504   3.920
 2966TIP3    H2 8863   1.240   0.568   4.032
 2967TIP3   OH2 8864   2.089   4.941   1.725
 2967TIP3    H1 8865   2.124   4.857   1.695
 2967TIP3    H2 8866   2.137   4.961   1.805
 2968TIP3   OH2 8867   0.107   0.572   4.746
 2968TIP3    H1 8868   0.175   0.510   4.719
 2968TIP3    H2 8869   0.132   0.655   4.706
 2969TIP3   OH2 8870   1.007   2.574   5.063
 2969TIP3    H1 8871   0.970   2.501   5.013
 2969TIP3    H2 8872   1.016   2.645   4.999
 2970TIP3   OH2 8873   1.473   5.276   5.807
 2970TIP3    H1 8874   1.392   5.245   5.767
 2970TIP3    H2 8875   1.513   5.198   5.845
 2971TIP3   OH2 8876   0.024   3.732   0.894
 2971TIP3    H1 8877   0.093   3.758   0.955
 2971TIP3    H2 8878  -0.014   3.815   0.864
 2972TIP3   OH2 8879   3.861   0.040   5.633
 2972TIP3    H1 8880   3.880   0.130   5.605
 2972TIP3    H2 8881   3.939  -0.010   5.606
 2973TIP3   OH2 8882   3.318   6.369   2.307
 2973TIP3    H1 8883   3.355   6.456   2.297
 2973TIP3    H2 8884   3.315   6.354   2.402
 2974TIP3   OH2 8885   5.328   4.024   5.708
 2974TIP3    H1 8886   5.344   3.949   5.651
 2974TIP3    H2 8887   5.415   4.059   5.727
 2975TIP3   OH2 8888   1.861   0.213   0.812
 2975TIP3    H1 8889   1.867   0.213   0.716
 2975TIP3    H2 8890   1.951   0.224   0.842
 2976TIP3   OH2 8891   4.119   0.554   4.524
 2976TIP3    H1 8892   4.068   0.517   4.596
 2976TIP3    H2 8893   4.208   0.560   4.557
 2977TIP3   OH2 8894   1.396   3.074   5.720
 2977TIP3    H1 8895   1.399   2.980   5.735
 2977TIP3    H2 8896   1.351   3.084   5.636
 2978TIP3   OH2 8897   3.157   3.359   3.998
 2978TIP3    H1 8898   3.233   3.378   4.053
 2978TIP3    H2 8899   3.140   3.441   3.952
 2979TIP3   OH2 8900   5.005   5.879   3.125
 2979TIP3    H1 8901   4.950   5.931   3.184
 2979TIP3    H2 8902   4.946   5.849   3.056
 2980TIP3   OH2 8903   5.819   2.087   4.196
 2980TIP3    H1 8904   5.772   2.046   4.268
 2980TIP3    H2 8905   5.774   2.057   4.117
 2981TIP3   OH2 8906   3.462   4.091   2.142
 2981TIP3    H1 8907   3.549   4.116   2.174
 2981TIP3    H2 8908   3.460   4.121   2.051
 2982TIP3   OH2 8909   1.856   5.377   3.706
 2982TIP3    H1 8910   1.769   5.344   3.731
 2982TIP3    H2 8911   1.913   5.300   3.711
 2983TIP3   OH2 8912   6.048   0.225   4.115
 2983TIP3    H1 8913   5.993   0.302   4.101
 2983TIP3    H2 8914   6.138   0.258   4.111
 2984TIP3   OH2 8915   4.361   4.278   2.265
 2984TIP3    H1 8916   4.364   4.308   2.356
 2984TIP3    H2 8917   4.267   4.277   2.243
 2985TIP3   OH2 8918   0.289   6.426   1.883
 2985TIP3    H1 8919   0.236   6.346   1.887
 2985TIP3    H2 8920   0.359   6.404   1.821
 2986TIP3   OH2 8921   2.296   5.718   0.651
 2986TIP3    H1 8922   2.349   5.667   0.711
 2986TIP3    H2 8923   2.208   5.680   0.657
 2987TIP3   OH2 8924   3.130   6.263   1.701
 2987TIP3    H1 8925   3.093   6.276   1.614
 2987TIP3    H2 8926   3.106   6.173   1.724
 2988TIP3   OH2 8927   1.094   4.837   4.798
 2988TIP3    H1 8928   1.079   4.763   4.858
 2988TIP3    H2 8929   1.168   4.809   4.745
 2989TIP3   OH2 8930   4.185   0.093   0.060
 2989TIP3    H1 8931   4.114   0.030   0.073
 2989TIP3    H2 8932   4.162   0.167   0.116
 2990TIP3   OH2 8933   6.020   4.973   1.327
 2990TIP3    H1 8934   6.000   4.989   1.419
 2990TIP3    H2 8935   5.938   4.990   1.281
 2991TIP3   OH2 8936   0.311   4.928   5.433
 2991TIP3    H1 8937   0.257   4.962   5.362
 2991TIP3    H2 8938   0.333   4.839   5.406
 2992TIP3   OH2 8939   4.311   5.644   1.817
 2992TIP3    H1 8940   4.385   5.654   1.756
 2992TIP3    H2 8941   4.331   5.566   1.868
 2993TIP3   OH2 8942   3.490   4.406   4.288
 2993TIP3    H1 8943   3.458   4.441   4.372
 2993TIP3    H2 8944   3.542   4.329   4.313
 2994TIP3   OH2 8945   6.371   0.642   1.629
 2994TIP3    H1 8946   6.329   0.561   1.600
 2994TIP3    H2 8947   6.434   0.662   1.560
 2995TIP3   OH2 8948   1.300   6.320   0.130
 2995TIP3    H1 8949   1.253   6.327   0.047
 2995TIP3    H2 8950   1.255   6.252   0.178
 2996TIP3   OH2 8951   6.662   1.435   0.535
 2996TIP3    H1 8952   6.708   1.506   0.491
 2996TIP3    H2 8953   6.698   1.434   0.624
 2997TIP3   OH2 8954   4.649   4.589   5.882
 2997TIP3    H1 8955   4.624   4.505   5.843
 2997TIP3    H2 8956   4.644   4.574   5.977
 2998TIP3   OH2 8957   2.112   4.833   4.516
 2998TIP3    H1 8958   2.135   4.756   4.465
 2998TIP3    H2 8959   2.196   4.870   4.543
 2999TIP3   OH2 8960   5.571   0.069   2.871
 2999TIP3    H1 8961   5.537   0.149   2.911
 2999TIP3    H2 8962   5.558   0.002   2.938
 3000TIP3   OH2 8963   2.365   6.209   0.194
 3000TIP3    H1 8964   2.278   6.247   0.207
 3000TIP3    H2 8965   2.362   6.126   0.241
 3001TIP3   OH2 8966   2.245   3.036   2.994
 3001TIP3    H1 8967   2.208   3.123   2.979
 3001TIP3    H2 8968   2.186   2.977   2.947
 3002TIP3   OH2 8969   0.025   1.212   1.800
 3002TIP3    H1 8970  -0.046   1.184   1.741
 3002TIP3    H2 8971   0.102   1.165   1.769
 3003TIP3   OH2 8972   6.241   5.322   2.662
 3003TIP3    H1 8973   6.316   5.284   2.708
 3003TIP3    H2 8974   6.246   5.287   2.573
 3004TIP3   OH2 8975   5.683   1.312   1.634
 3004TIP3    H1 8976   5.743   1.356   1.694
 3004TIP3    H2 8977   5.597   1.325   1.673
 3005TIP3   OH2 8978   1.423   1.483   3.865
 3005TIP3    H1 8979   1.517   1.495   3.880
 3005TIP3    H2 8980   1.382   1.509   3.947
 3006TIP3   OH2 8981   1.218   5.188   5.685
 3006TIP3    H1 8982   1.244   5.108   5.639
 3006TIP3    H2 8983   1.169   5.157   5.761
 3007TIP3   OH2 8984   0.926   0.879   4.725
 3007TIP3    H1 8985   0.929   0.787   4.752
 3007TIP3    H2 8986   0.854   0.916   4.776
 3008TIP3   OH2 8987   4.437   5.397   5.604
 3008TIP3    H1 8988   4.367   5.403   5.538
 3008TIP3    H2 8989   4.413   5.461   5.671
 3009TIP3   OH2 8990   5.656   6.400   3.755
 3009TIP3    H1 8991   5.580   6.345   3.772
 3009TIP3    H2 8992   5.692   6.368   3.673
 3010TIP3   OH2 8993   4.541   0.351   2.864
 3010TIP3    H1 8994   4.461   0.383   2.824
 3010TIP3    H2 8995   4.529   0.256   2.869
 3011TIP3   OH2 8996   1.295   1.353   4.934
 3011TIP3    H1 8997   1.248   1.347   4.851
 3011TIP3    H2 8998   1.333   1.267   4.947
 3012TIP3   OH2 8999   6.273   6.617   0.123
 3012TIP3    H1 9000   6.215   6.594   0.051
 3012TIP3    H2 9001   6.357   6.578   0.100
 3013TIP3   OH2 9002   3.218   1.132   4.649
 3013TIP3    H1 9003   3.286   1.200   4.652
 3013TIP3    H2 9004   3.144   1.173   4.605
 3014TIP3   OH2 9005   1.882   3.517   3.254
 3014TIP3    H1 9006   1.936   3.553   3.325
 3014TIP3    H2 9007   1.848   3.593   3.208
 3015TIP3   OH2 9008   1.223   5.219   3.031
 3015TIP3    H1 9009   1.172   5.167   2.969
 3015TIP3    H2 9010   1.188   5.308   3.022
 3016TIP3   OH2 9011   5.214   3.559   1.922
 3016TIP3    H1 9012   5.265   3.541   2.002
 3016TIP3    H2 9013   5.230   3.651   1.903
 3017TIP3   OH2 9014   6.437   5.363   4.395
 3017TIP3    H1 9015   6.445   5.373   4.300
 3017TIP3    H2 9016   6.368   5.424   4.419
 3018TIP3   OH2 9017   0.845   1.627   5.537
 3018TIP3    H1 9018   0.756   1.591   5.539
 3018TIP3    H2 9019   0.899   1.556   5.502
 3019TIP3   OH2 9020   6.947   2.660   4.623
 3019TIP3    H1 9021   6.965   2.649   4.530
 3019TIP3    H2 9022   7.006   2.730   4.651
 3020TIP3   OH2 9023   2.083   3.937   2.064
 3020TIP3    H1 9024   1.990   3.951   2.083
 3020TIP3    H2 9025   2.086   3.913   1.972
 3021TIP3   OH2 9026   1.064   0.112   4.886
 3021TIP3    H1 9027   1.048   0.028   4.843
 3021TIP3    H2 9028   1.102   0.088   4.971
 3022TIP3   OH2 9029   1.727   0.436   0.357
 3022TIP3    H1 9030   1.792   0.441   0.286
 3022TIP3    H2 9031   1.670   0.511   0.342
 3023TIP3   OH2 9032   3.876   3.992   3.283
 3023TIP3    H1 9033   3.819   4.069   3.275
 3023TIP3    H2 9034   3.836   3.940   3.352
 3024TIP3   OH2 9035   0.374   5.584   0.269
 3024TIP3    H1 9036   0.314   5.627   0.330
 3024TIP3    H2 9037   0.362   5.631   0.187
 3025TIP3   OH2 9038   4.429   1.177   4.317
 3025TIP3    H1 9039   4.396   1.177   4.227
 3025TIP3    H2 9040   4.520   1.150   4.309
 3026TIP3   OH2 9041   6.105   4.558   0.878
 3026TIP3    H1 9042   6.056   4.476   0.867
 3026TIP3    H2 9043   6.178   4.550   0.816
 3027TIP3   OH2 9044   5.016   0.468   0.593
 3027TIP3    H1 9045   4.924   0.474   0.565
 3027TIP3    H2 9046   5.011   0.460   0.688
 3028TIP3   OH2 9047   7.118   4.336   4.684
 3028TIP3    H1 9048   7.084   4.291   4.607
 3028TIP3    H2 9049   7.211   4.346   4.668
 3029TIP3   OH2 9050   1.688   0.314   4.228
 3029TIP3    H1 9051   1.674   0.407   4.207
 3029TIP3    H2 9052   1.663   0.306   4.320
 3030TIP3   OH2 9053   3.780   6.349   1.029
 3030TIP3    H1 9054   3.699   6.298   1.036
 3030TIP3    H2 9055   3.768   6.402   0.950
 3031TIP3   OH2 9056   2.489   1.438   4.905
 3031TIP3    H1 9057   2.518   1.446   4.996
 3031TIP3    H2 9058   2.396   1.460   4.908
 3032TIP3   OH2 9059   6.110   6.373   3.850
 3032TIP3    H1 9060   6.156   6.297   3.885
 3032TIP3    H2 9061   6.117   6.439   3.919
 3033TIP3   OH2 9062   0.016   5.176   1.857
 3033TIP3    H1 9063   0.037   5.100   1.803
 3033TIP3    H2 9064   0.007   5.248   1.794
 3034TIP3   OH2 9065   6.117   1.094   1.767
 3034TIP3    H1 9066   6.150   1.029   1.828
 3034TIP3    H2 9067   6.061   1.151   1.820
 3035TIP3   OH2 9068   0.999   6.312   2.904
 3035TIP3    H1 9069   1.013   6.314   2.810
 3035TIP3    H2 9070   1.033   6.227   2.932
 3036TIP3   OH2 9071   1.089   1.619   4.039
 3036TIP3    H1 9072   1.135   1.536   4.052
 3036TIP3    H2 9073   1.141   1.683   4.087
 3037TIP3   OH2 9074   3.941   1.686   4.236
 3037TIP3    H1 9075   4.014   1.647   4.187
 3037TIP3    H2 9076   3.951   1.780   4.221
 3038TIP3   OH2 9077   0.740   5.343   2.932
 3038TIP3    H1 9078   0.713   5.252   2.942
 3038TIP3    H2 9079   0.801   5.342   2.857
 3039TIP3   OH2 9080   5.273   1.678   2.585
 3039TIP3    H1 9081   5.271   1.674   2.489
 3039TIP3    H2 9082   5.334   1.749   2.604
 3040TIP3   OH2 9083   0.349   3.746   3.860
 3040TIP3    H1 9084   0.385   3.835   3.859
 3040TIP3    H2 9085   0.281   3.747   3.792
 3041TIP3   OH2 9086   6.314   0.067   1.961
 3041TIP3    H1 9087   6.346   0.155   1.982
 3041TIP3    H2 9088   6.356   0.046   1.877
 3042TIP3   OH2 9089   7.128   1.797   3.629
 3042TIP3    H1 9090   7.177   1.874   3.658
 3042TIP3    H2 9091   7.049   1.832   3.589
 3043TIP3   OH2 9092   4.999   3.897   5.250
 3043TIP3    H1 9093   5.007   3.807   5.217
 3043TIP3    H2 9094   4.965   3.947   5.176
 3044TIP3   OH2 9095   3.132   4.262   4.422
 3044TIP3    H1 9096   3.131   4.239   4.514
 3044TIP3    H2 9097   3.140   4.357   4.420
 3045TIP3   OH2 9098   0.326   0.856   5.509
 3045TIP3    H1 9099   0.391   0.795   5.474
 3045TIP3    H2 9100   0.255   0.855   5.445
 3046TIP3   OH2 9101   1.903   2.287   0.992
 3046TIP3    H1 9102   1.972   2.259   0.933
 3046TIP3    H2 9103   1.945   2.349   1.052
 3047TIP3   OH2 9104   4.657   3.071   0.428
 3047TIP3    H1 9105   4.716   2.997   0.445
 3047TIP3    H2 9106   4.715   3.147   0.428
 3048TIP3   OH2 9107   2.086   0.249   0.946
 3048TIP3    H1 9108   2.148   0.315   0.975
 3048TIP3    H2 9109   2.138   0.169   0.937
 3049TIP3   OH2 9110   4.280   3.004   2.844
 3049TIP3    H1 9111   4.350   3.017   2.909
 3049TIP3    H2 9112   4.225   3.082   2.853
 3050TIP3   OH2 9113   3.898   5.803   4.922
 3050TIP3    H1 9114   3.841   5.806   4.845
 3050TIP3    H2 9115   3.919   5.710   4.933
 3051TIP3   OH2 9116   3.068   5.247   2.462
 3051TIP3    H1 9117   3.082   5.208   2.376
 3051TIP3    H2 9118   3.066   5.173   2.523
 3052TIP3   OH2 9119   1.478   4.470   2.081
 3052TIP3    H1 9120   1.517   4.383   2.088
 3052TIP3    H2 9121   1.552   4.529   2.069
 3053TIP3   OH2 9122   2.829   5.772   5.386
 3053TIP3    H1 9123   2.914   5.740   5.416
 3053TIP3    H2 9124   2.766   5.710   5.422
 3054TIP3   OH2 9125   2.499   2.519   0.150
 3054TIP3    H1 9126   2.421   2.466   0.165
 3054TIP3    H2 9127   2.547   2.473   0.082
 3055TIP3   OH2 9128   4.626   0.975   5.897
 3055TIP3    H1 9129   4.697   0.933   5.848
 3055TIP3    H2 9130   4.551   0.972   5.838
 3056TIP3   OH2 9131   6.700   3.280   5.231
 3056TIP3    H1 9132   6.665   3.363   5.197
 3056TIP3    H2 9133   6.795   3.288   5.219
 3057TIP3   OH2 9134   5.219   5.892   2.507
 3057TIP3    H1 9135   5.125   5.901   2.493
 3057TIP3    H2 9136   5.233   5.797   2.512
 3058TIP3   OH2 9137   1.538   0.051   3.049
 3058TIP3    H1 9138   1.596   0.126   3.062
 3058TIP3    H2 9139   1.482   0.076   2.976
 3059TIP3   OH2 9140   4.013   4.266   4.156
 3059TIP3    H1 9141   3.941   4.309   4.110
 3059TIP3    H2 9142   3.987   4.174   4.161
 3060TIP3   OH2 9143   0.372   4.964   0.799
 3060TIP3    H1 9144   0.408   4.876   0.791
 3060TIP3    H2 9145   0.299   4.966   0.736
 3061TIP3   OH2 9146   1.924   3.551   1.977
 3061TIP3    H1 9147   2.000   3.521   1.927
 3061TIP3    H2 9148   1.855   3.562   1.912
 3062TIP3   OH2 9149   6.172   1.301   5.070
 3062TIP3    H1 9150   6.143   1.319   5.159
 3062TIP3    H2 9151   6.091   1.303   5.018
 3063TIP3   OH2 9152   3.537   1.950   2.291
 3063TIP3    H1 9153   3.483   1.998   2.229
 3063TIP3    H2 9154   3.554   2.013   2.362
 3064TIP3   OH2 9155   3.485   6.456   0.562
 3064TIP3    H1 9156   3.425   6.437   0.634
 3064TIP3    H2 9157   3.566   6.482   0.605
 3065TIP3   OH2 9158   5.153   1.700   4.005
 3065TIP3    H1 9159   5.208   1.635   4.049
 3065TIP3    H2 9160   5.175   1.783   4.047
 3066TIP3   OH2 9161   4.617   2.783   2.855
 3066TIP3    H1 9162   4.615   2.710   2.792
 3066TIP3    H2 9163   4.710   2.798   2.871
 3067TIP3   OH2 9164   2.421   3.382   1.323
 3067TIP3    H1 9165   2.384   3.425   1.401
 3067TIP3    H2 9166   2.511   3.362   1.348
 3068TIP3   OH2 9167   1.987   3.777   2.873
 3068TIP3    H1 9168   2.064   3.726   2.899
 3068TIP3    H2 9169   2.022   3.850   2.822
 3069TIP3   OH2 9170   6.780   5.476   1.836
 3069TIP3    H1 9171   6.824   5.542   1.783
 3069TIP3    H2 9172   6.844   5.454   1.904
 3070TIP3   OH2 9173   0.791   1.880   3.145
 3070TIP3    H1 9174   0.854   1.945   3.115
 3070TIP3    H2 9175   0.705   1.915   3.120
 3071TIP3   OH2 9176   2.185   2.269   5.576
 3071TIP3    H1 9177   2.126   2.239   5.645
 3071TIP3    H2 9178   2.168   2.363   5.569
 3072TIP3   OH2 9179   3.072   6.054   3.814
 3072TIP3    H1 9180   3.085   5.998   3.738
 3072TIP3    H2 9181   3.148   6.113   3.813
 3073TIP3   OH2 9182   3.960   2.645   0.813
 3073TIP3    H1 9183   4.031   2.607   0.761
 3073TIP3    H2 9184   3.903   2.571   0.834
 3074TIP3   OH2 9185   2.357   4.356   2.664
 3074TIP3    H1 9186   2.323   4.430   2.613
 3074TIP3    H2 9187   2.403   4.397   2.738
 3075TIP3   OH2 9188   5.142   1.598   2.283
 3075TIP3    H1 9189   5.099   1.664   2.338
 3075TIP3    H2 9190   5.076   1.530   2.269
 3076TIP3   OH2 9191   4.872   2.922   1.024
 3076TIP3    H1 9192   4.880   2.886   1.112
 3076TIP3    H2 9193   4.817   3.000   1.035
 3077TIP3   OH2 9194   2.993   4.699   5.568
 3077TIP3    H1 9195   3.062   4.703   5.634
 3077TIP3    H2 9196   2.912   4.701   5.617
 3078TIP3   OH2 9197   2.716   6.466   3.990
 3078TIP3    H1 9198   2.714   6.376   3.957
 3078TIP3    H2 9199   2.625   6.495   3.984
 3079TIP3   OH2 9200   4.628   2.775   1.925
 3079TIP3    H1 9201   4.585   2.841   1.979
 3079TIP3    H2 9202   4.557   2.727   1.883
 3080TIP3   OH2 9203   3.513   0.286   2.820
 3080TIP3    H1 9204   3.567   0.241   2.885
 3080TIP3    H2 9205   3.558   0.270   2.737
 3081TIP3   OH2 9206   0.304   4.312   5.241
 3081TIP3    H1 9207   0.311   4.324   5.336
 3081TIP3    H2 9208   0.348   4.229   5.225
 3082TIP3   OH2 9209   4.130   1.281   4.753
 3082TIP3    H1 9210   4.036   1.272   4.770
 3082TIP3    H2 9211   4.139   1.263   4.660
 3083TIP3   OH2 9212   0.382   2.916   5.361
 3083TIP3    H1 9213   0.418   2.908   5.449
 3083TIP3    H2 9214   0.297   2.959   5.375
 3084TIP3   OH2 9215   6.135   6.125   2.010
 3084TIP3    H1 9216   6.205   6.128   2.075
 3084TIP3    H2 9217   6.098   6.214   2.009
 3085TIP3   OH2 9218   2.033   4.794   2.704
 3085TIP3    H1 9219   2.003   4.835   2.623
 3085TIP3    H2 9220   2.053   4.868   2.762
 3086TIP3   OH2 9221   5.959   4.683   1.492
 3086TIP3    H1 9222   6.046   4.707   1.524
 3086TIP3    H2 9223   5.957   4.715   1.401
 3087TIP3   OH2 9224   3.911   0.945   4.975
 3087TIP3    H1 9225   3.926   0.852   4.963
 3087TIP3    H2 9226   3.951   0.986   4.898
 3088TIP3   OH2 9227   1.505   5.165   3.542
 3088TIP3    H1 9228   1.421   5.200   3.573
 3088TIP3    H2 9229   1.562   5.242   3.537
 3089TIP3   OH2 9230   2.776   5.059   5.244
 3089TIP3    H1 9231   2.825   5.121   5.189
 3089TIP3    H2 9232   2.702   5.033   5.190
 3090TIP3   OH2 9233   5.811   0.908   3.437
 3090TIP3    H1 9234   5.757   0.837   3.402
 3090TIP3    H2 9235   5.750   0.980   3.451
 3091TIP3   OH2 9236   6.594   0.513   2.386
 3091TIP3    H1 9237   6.542   0.558   2.320
 3091TIP3    H2 9238   6.543   0.519   2.466
 3092TIP3   OH2 9239   5.409   6.534   4.566
 3092TIP3    H1 9240   5.336   6.596   4.576
 3092TIP3    H2 9241   5.367   6.451   4.544
 3093TIP3   OH2 9242   6.648   3.571   3.021
 3093TIP3    H1 9243   6.563   3.555   3.062
 3093TIP3    H2 9244   6.656   3.666   3.019
 3094TIP3   OH2 9245   3.257   6.349   5.680
 3094TIP3    H1 9246   3.259   6.255   5.699
 3094TIP3    H2 9247   3.334   6.384   5.726
 3095TIP3   OH2 9248   0.623   1.744   1.190
 3095TIP3    H1 9249   0.554   1.795   1.148
 3095TIP3    H2 9250   0.658   1.803   1.257
 3096TIP3   OH2 9251   6.787   1.152   5.865
 3096TIP3    H1 9252   6.696   1.126   5.874
 3096TIP3    H2 9253   6.797   1.227   5.924
 3097TIP3   OH2 9254   3.167   0.613   4.137
 3097TIP3    H1 9255   3.229   0.543   4.157
 3097TIP3    H2 9256   3.093   0.596   4.195
 3098TIP3   OH2 9257   4.265   3.114   4.062
 3098TIP3    H1 9258   4.229   3.174   3.997
 3098TIP3    H2 9259   4.246   3.155   4.147
 3099TIP3   OH2 9260   5.187   2.585   0.485
 3099TIP3    H1 9261   5.181   2.527   0.409
 3099TIP3    H2 9262   5.281   2.591   0.504
 3100TIP3   OH2 9263   7.068   2.872   3.168
 3100TIP3    H1 9264   7.046   2.904   3.080
 3100TIP3    H2 9265   7.147   2.819   3.155
 3101TIP3   OH2 9266   3.439   5.342   1.149
 3101TIP3    H1 9267   3.427   5.389   1.232
 3101TIP3    H2 9268   3.499   5.397   1.099
 3102TIP3   OH2 9269   6.932   6.307   5.842
 3102TIP3    H1 9270   6.899   6.388   5.882
 3102TIP3    H2 9271   7.026   6.308   5.859
 3103TIP3   OH2 9272   6.265   4.262   0.045
 3103TIP3    H1 9273   6.334   4.210   0.003
 3103TIP3    H2 9274   6.265   4.345  -0.002
 3104TIP3   OH2 9275   1.009   3.107   5.596
 3104TIP3    H1 9276   0.918   3.110   5.566
 3104TIP3    H2 9277   1.021   3.017   5.626
 3105TIP3   OH2 9278   2.040   2.385   3.367
 3105TIP3    H1 9279   1.996   2.311   3.323
 3105TIP3    H2 9280   1.975   2.455   3.367
 3106TIP3   OH2 9281   7.039   1.185   3.032
 3106TIP3    H1 9282   7.055   1.261   2.976
 3106TIP3    H2 9283   6.956   1.204   3.076
 3107TIP3   OH2 9284   4.654   1.547   1.834
 3107TIP3    H1 9285   4.568   1.556   1.793
 3107TIP3    H2 9286   4.679   1.637   1.858
 3108TIP3   OH2 9287   4.337   2.986   4.792
 3108TIP3    H1 9288   4.322   3.065   4.741
 3108TIP3    H2 9289   4.270   2.988   4.861
 3109TIP3   OH2 9290   3.924   2.825   0.114
 3109TIP3    H1 9291   4.015   2.797   0.115
 3109TIP3    H2 9292   3.902   2.838   0.207
 3110TIP3   OH2 9293   2.943   0.836   1.198
 3110TIP3    H1 9294   2.913   0.885   1.121
 3110TIP3    H2 9295   2.927   0.895   1.272
 3111TIP3   OH2 9296   3.820   4.217   2.935
 3111TIP3    H1 9297   3.886   4.148   2.935
 3111TIP3    H2 9298   3.867   4.296   2.961
 3112TIP3   OH2 9299   3.418   5.041   3.370
 3112TIP3    H1 9300   3.434   5.008   3.281
 3112TIP3    H2 9301   3.376   4.968   3.415
 3113TIP3   OH2 9302   3.551   6.098   2.006
 3113TIP3    H1 9303   3.587   6.161   1.944
 3113TIP3    H2 9304   3.521   6.152   2.080
 3114TIP3   OH2 9305   5.466   5.426   5.843
 3114TIP3    H1 9306   5.559   5.431   5.865
 3114TIP3    H2 9307   5.461   5.356   5.777
 3115TIP3   OH2 9308   6.710   3.947   0.040
 3115TIP3    H1 9309   6.731   3.887   0.112
 3115TIP3    H2 9310   6.793   3.962  -0.004
 3116TIP3   OH2 9311   0.581   6.259   0.724
 3116TIP3    H1 9312   0.489   6.237   0.707
 3116TIP3    H2 9313   0.630   6.208   0.660
 3117TIP3   OH2 9314   0.405   3.703   2.506
 3117TIP3    H1 9315   0.316   3.669   2.506
 3117TIP3    H2 9316   0.458   3.635   2.548
 3118TIP3   OH2 9317   2.864   4.057   1.205
 3118TIP3    H1 9318   2.949   4.099   1.211
 3118TIP3    H2 9319   2.834   4.050   1.295
 3119TIP3   OH2 9320   3.683   2.505   3.965
 3119TIP3    H1 9321   3.684   2.439   4.035
 3119TIP3    H2 9322   3.678   2.589   4.011
 3120TIP3   OH2 9323   3.622   5.251   4.867
 3120TIP3    H1 9324   3.612   5.335   4.913
 3120TIP3    H2 9325   3.553   5.196   4.902
 3121TIP3   OH2 9326   0.501   0.671   5.379
 3121TIP3    H1 9327   0.504   0.639   5.289
 3121TIP3    H2 9328   0.558   0.748   5.379
 3122TIP3   OH2 9329   4.268   2.441   3.217
 3122TIP3    H1 9330   4.332   2.508   3.193
 3122TIP3    H2 9331   4.284   2.424   3.310
 3123TIP3   OH2 9332   5.442   3.160   0.425
 3123TIP3    H1 9333   5.426   3.077   0.470
 3123TIP3    H2 9334   5.424   3.227   0.491
 3124TIP3   OH2 9335   4.199   0.871   4.396
 3124TIP3    H1 9336   4.144   0.858   4.474
 3124TIP3    H2 9337   4.180   0.796   4.341
 3125TIP3   OH2 9338   0.204   5.923   1.188
 3125TIP3    H1 9339   0.254   5.845   1.165
 3125TIP3    H2 9340   0.116   5.905   1.156
 3126TIP3   OH2 9341   5.697   5.184   4.266
 3126TIP3    H1 9342   5.737   5.264   4.302
 3126TIP3    H2 9343   5.630   5.216   4.205
 3127TIP3   OH2 9344   0.692   4.672   2.100
 3127TIP3    H1 9345   0.750   4.705   2.169
 3127TIP3    H2 9346   0.665   4.750   2.052
 3128TIP3   OH2 9347   2.062   2.985   0.503
 3128TIP3    H1 9348   2.085   3.047   0.572
 3128TIP3    H2 9349   2.107   2.904   0.527
 3129TIP3   OH2 9350   1.189   0.853   2.467
 3129TIP3    H1 9351   1.174   0.928   2.409
 3129TIP3    H2 9352   1.116   0.856   2.529
 3130TIP3   OH2 9353   4.323   2.704   4.369
 3130TIP3    H1 9354   4.331   2.609   4.375
 3130TIP3    H2 9355   4.314   2.733   4.460
 3131TIP3   OH2 9356   1.214   4.786   5.433
 3131TIP3    H1 9357   1.252   4.699   5.446
 3131TIP3    H2 9358   1.262   4.822   5.358
 3132TIP3   OH2 9359   6.509   2.116   2.089
 3132TIP3    H1 9360   6.578   2.166   2.131
 3132TIP3    H2 9361   6.547   2.028   2.077
 3133TIP3   OH2 9362   0.256   1.742   0.759
 3133TIP3    H1 9363   0.226   1.820   0.805
 3133TIP3    H2 9364   0.325   1.774   0.700
 3134TIP3   OH2 9365   6.474   0.725   3.520
 3134TIP3    H1 9366   6.516   0.695   3.440
 3134TIP3    H2 9367   6.546   0.757   3.575
 3135TIP3   OH2 9368   6.278   3.067   4.069
 3135TIP3    H1 9369   6.319   3.131   4.011
 3135TIP3    H2 9370   6.350   3.010   4.096
 3136TIP3   OH2 9371   1.705   6.760   5.859
 3136TIP3    H1 9372   1.742   6.846   5.876
 3136TIP3    H2 9373   1.647   6.743   5.934
 3137TIP3   OH2 9374   0.542   1.459   4.554
 3137TIP3    H1 9375   0.457   1.424   4.526
 3137TIP3    H2 9376   0.555   1.422   4.641
 3138TIP3   OH2 9377   1.697   5.926   0.266
 3138TIP3    H1 9378   1.662   5.964   0.185
 3138TIP3    H2 9379   1.659   5.979   0.336
 3139TIP3   OH2 9380   5.178   4.730   5.295
 3139TIP3    H1 9381   5.146   4.800   5.352
 3139TIP3    H2 9382   5.262   4.705   5.333
 3140TIP3   OH2 9383   0.946   1.241   3.201
 3140TIP3    H1 9384   0.934   1.306   3.132
 3140TIP3    H2 9385   0.885   1.171   3.178
 3141TIP3   OH2 9386   3.307   6.220   1.148
 3141TIP3    H1 9387   3.385   6.244   1.099
 3141TIP3    H2 9388   3.254   6.170   1.087
 3142TIP3   OH2 9389   2.860   5.387   1.981
 3142TIP3    H1 9390   2.910   5.468   1.972
 3142TIP3    H2 9391   2.857   5.350   1.893
 3143TIP3   OH2 9392   6.698   4.668   5.154
 3143TIP3    H1 9393   6.709   4.691   5.247
 3143TIP3    H2 9394   6.787   4.668   5.119
 3144TIP3   OH2 9395   3.952   3.986   0.701
 3144TIP3    H1 9396   3.875   3.929   0.712
 3144TIP3    H2 9397   3.946   4.047   0.775
 3145TIP3   OH2 9398   2.760   0.623   0.213
 3145TIP3    H1 9399   2.746   0.546   0.157
 3145TIP3    H2 9400   2.852   0.646   0.199
 3146TIP3   OH2 9401   3.114   2.981   0.344
 3146TIP3    H1 9402   3.177   2.926   0.297
 3146TIP3    H2 9403   3.057   3.015   0.276
 3147TIP3   OH2 9404   6.787   6.663   0.797
 3147TIP3    H1 9405   6.864   6.669   0.740
 3147TIP3    H2 9406   6.817   6.613   0.873
 3148TIP3   OH2 9407   2.977   1.577   3.284
 3148TIP3    H1 9408   3.056   1.619   3.249
 3148TIP3    H2 9409   2.918   1.649   3.304
 3149TIP3   OH2 9410   5.543   3.429   2.272
 3149TIP3    H1 9411   5.499   3.510   2.244
 3149TIP3    H2 9412   5.471   3.370   2.294
 3150TIP3   OH2 9413   6.126   3.890   0.714
 3150TIP3    H1 9414   6.152   3.813   0.664
 3150TIP3    H2 9415   6.070   3.855   0.784
 3151TIP3   OH2 9416   6.060   1.919   3.001
 3151TIP3    H1 9417   6.097   1.953   2.920
 3151TIP3    H2 9418   6.132   1.922   3.064
 3152TIP3   OH2 9419   0.156   5.699   0.420
 3152TIP3    H1 9420   0.071   5.667   0.392
 3152TIP3    H2 9421   0.159   5.684   0.514
 3153TIP3   OH2 9422   6.045   6.230   2.715
 3153TIP3    H1 9423   5.969   6.181   2.745
 3153TIP3    H2 9424   6.011   6.318   2.695
 3154TIP3   OH2 9425   0.179   4.207   0.273
 3154TIP3    H1 9426   0.209   4.196   0.183
 3154TIP3    H2 9427   0.205   4.126   0.317
 3155TIP3   OH2 9428   0.854   6.476   3.061
 3155TIP3    H1 9429   0.888   6.405   3.006
 3155TIP3    H2 9430   0.764   6.451   3.081
 3156TIP3   OH2 9431   4.355   2.678   2.054
 3156TIP3    H1 9432   4.387   2.638   1.973
 3156TIP3    H2 9433   4.335   2.604   2.111
 3157TIP3   OH2 9434   4.858   0.710   2.420
 3157TIP3    H1 9435   4.914   0.719   2.497
 3157TIP3    H2 9436   4.861   0.796   2.377
 3158TIP3   OH2 9437   6.119   2.737   3.491
 3158TIP3    H1 9438   6.027   2.752   3.515
 3158TIP3    H2 9439   6.152   2.678   3.559
 3159TIP3   OH2 9440   4.087   0.691   5.863
 3159TIP3    H1 9441   4.068   0.676   5.770
 3159TIP3    H2 9442   4.164   0.638   5.881
 3160TIP3   OH2 9443   2.345   0.086   4.601
 3160TIP3    H1 9444   2.294   0.006   4.593
 3160TIP3    H2 9445   2.285   0.149   4.641
 3161TIP3   OH2 9446   3.537   4.140   3.382
 3161TIP3    H1 9447   3.548   4.047   3.399
 3161TIP3    H2 9448   3.618   4.180   3.416
 3162TIP3   OH2 9449   2.117   1.437   1.771
 3162TIP3    H1 9450   2.198   1.388   1.752
 3162TIP3    H2 9451   2.139   1.491   1.847
 3163TIP3   OH2 9452   2.033   1.769   5.000
 3163TIP3    H1 9453   2.040   1.697   5.063
 3163TIP3    H2 9454   2.112   1.820   5.014
 3164TIP3   OH2 9455   4.357   3.172   1.214
 3164TIP3    H1 9456   4.272   3.134   1.235
 3164TIP3    H2 9457   4.343   3.218   1.131
 3165TIP3   OH2 9458   4.917   3.858   2.200
 3165TIP3    H1 9459   4.985   3.793   2.218
 3165TIP3    H2 9460   4.951   3.908   2.125
 3166TIP3   OH2 9461   1.209   5.219   0.746
 3166TIP3    H1 9462   1.232   5.231   0.654
 3166TIP3    H2 9463   1.114   5.212   0.746
 3167TIP3   OH2 9464   5.275   2.130   3.658
 3167TIP3    H1 9465   5.283   2.093   3.746
 3167TIP3    H2 9466   5.329   2.209   3.659
 3168TIP3   OH2 9467   4.544   0.997   5.518
 3168TIP3    H1 9468   4.566   1.090   5.521
 3168TIP3    H2 9469   4.538   0.970   5.610
 3169TIP3   OH2 9470   0.325   3.842   2.036
 3169TIP3    H1 9471   0.406   3.802   2.004
 3169TIP3    H2 9472   0.307   3.914   1.975
 3170TIP3   OH2 9473   3.412   5.064   1.097
 3170TIP3    H1 9474   3.493   5.015   1.115
 3170TIP3    H2 9475   3.428   5.151   1.132
 3171TIP3   OH2 9476   1.619   0.183   0.360
 3171TIP3    H1 9477   1.626   0.156   0.268
 3171TIP3    H2 9478   1.642   0.275   0.360
 3172TIP3   OH2 9479   0.465   2.321   0.220
 3172TIP3    H1 9480   0.447   2.397   0.275
 3172TIP3    H2 9481   0.559   2.308   0.226
 3173TIP3   OH2 9482   1.415   5.177   3.231
 3173TIP3    H1 9483   1.438   5.229   3.308
 3173TIP3    H2 9484   1.343   5.225   3.190
 3174TIP3   OH2 9485   3.841   6.566   4.460
 3174TIP3    H1 9486   3.821   6.635   4.396
 3174TIP3    H2 9487   3.921   6.525   4.427
 3175TIP3   OH2 9488   6.000   1.004   3.643
 3175TIP3    H1 9489   6.083   0.959   3.628
 3175TIP3    H2 9490   5.940   0.964   3.581
 3176TIP3   OH2 9491   1.541   5.395   1.991
 3176TIP3    H1 9492   1.506   5.370   1.905
 3176TIP3    H2 9493   1.596   5.471   1.972
 3177TIP3   OH2 9494   6.469   3.923   4.081
 3177TIP3    H1 9495   6.388   3.969   4.063
 3177TIP3    H2 9496   6.445   3.857   4.146
 3178TIP3   OH2 9497   6.797   2.221   4.070
 3178TIP3    H1 9498   6.719   2.207   4.123
 3178TIP3    H2 9499   6.870   2.195   4.127
 3179TIP3   OH2 9500   0.654   3.164   4.841
 3179TIP3    H1 9501   0.689   3.097   4.899
 3179TIP3    H2 9502   0.561   3.169   4.863
 3180TIP3   OH2 9503   6.701   5.589   0.989
 3180TIP3    H1 9504   6.682   5.656   0.923
 3180TIP3    H2 9505   6.783   5.617   1.028
 3181TIP3   OH2 9506   5.456   4.706   5.016
 3181TIP3    H1 9507   5.515   4.747   5.080
 3181TIP3    H2 9508   5.509   4.699   4.936
 3182TIP3   OH2 9509   6.673   3.736   2.538
 3182TIP3    H1 9510   6.685   3.659   2.594
 3182TIP3    H2 9511   6.591   3.775   2.568
 3183TIP3   OH2 9512   2.132   2.699   2.002
 3183TIP3    H1 9513   2.110   2.630   2.065
 3183TIP3    H2 9514   2.064   2.693   1.935
 3184TIP3   OH2 9515   2.183   3.964   3.371
 3184TIP3    H1 9516   2.102   4.012   3.392
 3184TIP3    H2 9517   2.161   3.909   3.296
 3185TIP3   OH2 9518   5.897   3.273   3.238
 3185TIP3    H1 9519   5.920   3.232   3.322
 3185TIP3    H2 9520   5.811   3.236   3.216
 3186TIP3   OH2 9521   3.604   5.467   5.149
 3186TIP3    H1 9522   3.652   5.549   5.163
 3186TIP3    H2 9523   3.512   5.491   5.164
 3187TIP3   OH2 9524   4.387   6.335   4.271
 3187TIP3    H1 9525   4.343   6.413   4.235
 3187TIP3    H2 9526   4.379   6.270   4.202
 3188TIP3   OH2 9527   2.942   3.674   5.741
 3188TIP3    H1 9528   2.873   3.627   5.694
 3188TIP3    H2 9529   3.023   3.640   5.704
 3189TIP3   OH2 9530   0.980   2.165   0.975
 3189TIP3    H1 9531   0.892   2.130   0.959
 3189TIP3    H2 9532   1.028   2.147   0.894
 3190TIP3   OH2 9533   5.331   6.343   5.639
 3190TIP3    H1 9534   5.379   6.273   5.684
 3190TIP3    H2 9535   5.310   6.306   5.553
 3191TIP3   OH2 9536   0.210   2.026   5.181
 3191TIP3    H1 9537   0.144   2.021   5.251
 3191TIP3    H2 9538   0.161   2.056   5.104
 3192TIP3   OH2 9539   1.164   1.050   5.004
 3192TIP3    H1 9540   1.091   1.071   5.062
 3192TIP3    H2 9541   1.242   1.081   5.050
 3193TIP3   OH2 9542   0.450   1.816   0.597
 3193TIP3    H1 9543   0.384   1.875   0.560
 3193TIP3    H2 9544   0.529   1.870   0.600
 3194TIP3   OH2 9545   2.524   4.343   3.371
 3194TIP3    H1 9546   2.567   4.289   3.306
 3194TIP3    H2 9547   2.451   4.290   3.403
 3195TIP3   OH2 9548   2.380   2.635   4.437
 3195TIP3    H1 9549   2.429   2.589   4.505
 3195TIP3    H2 9550   2.288   2.618   4.458
 3196TIP3   OH2 9551   2.977   6.352   3.244
 3196TIP3    H1 9552   2.952   6.270   3.286
 3196TIP3    H2 9553   2.999   6.410   3.317
 3197TIP3   OH2 9554   5.382   2.070   3.127
 3197TIP3    H1 9555   5.463   2.098   3.086
 3197TIP3    H2 9556   5.336   2.151   3.149
 3198TIP3   OH2 9557   5.302   5.506   3.033
 3198TIP3    H1 9558   5.335   5.424   2.998
 3198TIP3    H2 9559   5.308   5.495   3.128
 3199TIP3   OH2 9560   2.684   0.805   0.401
 3199TIP3    H1 9561   2.701   0.746   0.328
 3199TIP3    H2 9562   2.592   0.789   0.424
 3200TIP3   OH2 9563   4.917   4.216   2.314
 3200TIP3    H1 9564   4.999   4.184   2.275
 3200TIP3    H2 9565   4.852   4.206   2.244
 3201TIP3   OH2 9566   6.708   1.190   2.077
 3201TIP3    H1 9567   6.652   1.268   2.080
 3201TIP3    H2 9568   6.655   1.125   2.031
 3202TIP3   OH2 9569   2.500   4.831   0.550
 3202TIP3    H1 9570   2.474   4.892   0.481
 3202TIP3    H2 9571   2.420   4.815   0.600
 3203TIP3   OH2 9572   0.033   0.195   4.679
 3203TIP3    H1 9573   0.047   0.131   4.609
 3203TIP3    H2 9574  -0.033   0.255   4.644
 3204TIP3   OH2 9575   4.960   4.931   4.408
 3204TIP3    H1 9576   5.028   4.873   4.443
 3204TIP3    H2 9577   5.003   5.016   4.403
 3205TIP3   OH2 9578   0.483   2.692   0.642
 3205TIP3    H1 9579   0.511   2.629   0.709
 3205TIP3    H2 9580   0.516   2.655   0.560
 3206TIP3   OH2 9581   3.115   0.336   3.433
 3206TIP3    H1 9582   3.026   0.365   3.411
 3206TIP3    H2 9583   3.101   0.258   3.487
 3207TIP3   OH2 9584   1.117   1.320   5.876
 3207TIP3    H1 9585   1.144   1.346   5.788
 3207TIP3    H2 9586   1.147   1.230   5.885
 3208TIP3   OH2 9587   4.022   4.107   2.577
 3208TIP3    H1 9588   3.941   4.073   2.614
 3208TIP3    H2 9589   4.062   4.156   2.649
 3209TIP3   OH2 9590   6.122   3.809   1.683
 3209TIP3    H1 9591   6.163   3.880   1.634
 3209TIP3    H2 9592   6.079   3.853   1.757
 3210TIP3   OH2 9593   5.136   2.034   5.689
 3210TIP3    H1 9594   5.187   2.024   5.769
 3210TIP3    H2 9595   5.125   1.945   5.656
 3211TIP3   OH2 9596   6.605   4.261   3.852
 3211TIP3    H1 9597   6.521   4.224   3.827
 3211TIP3    H2 9598   6.661   4.248   3.776
 3212TIP3   OH2 9599   2.568   1.069   1.629
 3212TIP3    H1 9600   2.655   1.065   1.667
 3212TIP3    H2 9601   2.514   1.013   1.685
 3213TIP3   OH2 9602   5.280   4.736   2.706
 3213TIP3    H1 9603   5.357   4.686   2.678
 3213TIP3    H2 9604   5.221   4.670   2.743
 3214TIP3   OH2 9605   3.293   4.647   0.479
 3214TIP3    H1 9606   3.237   4.603   0.414
 3214TIP3    H2 9607   3.299   4.737   0.447
 3215TIP3   OH2 9608   3.859   2.465   5.020
 3215TIP3    H1 9609   3.874   2.541   4.964
 3215TIP3    H2 9610   3.801   2.408   4.969
 3216TIP3   OH2 9611   2.458   0.736   0.112
 3216TIP3    H1 9612   2.526   0.699   0.169
 3216TIP3    H2 9613   2.505   0.765   0.034
 3217TIP3   OH2 9614   6.396   3.378   1.903
 3217TIP3    H1 9615   6.316   3.326   1.913
 3217TIP3    H2 9616   6.460   3.316   1.869
 3218TIP3   OH2 9617   3.568   2.288   5.880
 3218TIP3    H1 9618   3.578   2.195   5.902
 3218TIP3    H2 9619   3.502   2.289   5.811
 3219TIP3   OH2 9620   2.107   3.567   3.037
 3219TIP3    H1 9621   2.122   3.481   2.998
 3219TIP3    H2 9622   2.181   3.580   3.096
 3220TIP3   OH2 9623   2.502   0.277   3.173
 3220TIP3    H1 9624   2.574   0.220   3.148
 3220TIP3    H2 9625   2.427   0.243   3.124
 3221TIP3   OH2 9626   1.298   1.802   4.450
 3221TIP3    H1 9627   1.312   1.743   4.523
 3221TIP3    H2 9628   1.209   1.836   4.462
 3222TIP3   OH2 9629   6.172   0.756   2.318
 3222TIP3    H1 9630   6.147   0.827   2.377
 3222TIP3    H2 9631   6.267   0.754   2.322
 3223TIP3   OH2 9632   2.818   0.793   5.744
 3223TIP3    H1 9633   2.786   0.706   5.767
 3223TIP3    H2 9634   2.755   0.853   5.785
 3224TIP3   OH2 9635   0.826   4.113   4.141
 3224TIP3    H1 9636   0.758   4.046   4.131
 3224TIP3    H2 9637   0.908   4.067   4.124
 3225TIP3   OH2 9638   7.056   5.866   0.777
 3225TIP3    H1 9639   6.986   5.928   0.758
 3225TIP3    H2 9640   7.026   5.783   0.741
 3226TIP3   OH2 9641   2.540   1.161   5.149
 3226TIP3    H1 9642   2.472   1.199   5.093
 3226TIP3    H2 9643   2.611   1.140   5.089
 3227TIP3   OH2 9644   6.810   1.695   1.201
 3227TIP3    H1 9645   6.871   1.731   1.137
 3227TIP3    H2 9646   6.859   1.692   1.283
 3228TIP3   OH2 9647   0.268   3.103   1.792
 3228TIP3    H1 9648   0.235   3.023   1.831
 3228TIP3    H2 9649   0.335   3.074   1.730
 3229TIP3   OH2 9650   6.386   1.997   0.859
 3229TIP3    H1 9651   6.433   2.026   0.781
 3229TIP3    H2 9652   6.362   2.078   0.905
 3230TIP3   OH2 9653   5.057   2.208   5.149
 3230TIP3    H1 9654   5.145   2.170   5.145
 3230TIP3    H2 9655   5.051   2.243   5.238
 3231TIP3   OH2 9656   6.781   1.129   5.020
 3231TIP3    H1 9657   6.866   1.158   4.988
 3231TIP3    H2 9658   6.737   1.091   4.944
 3232TIP3   OH2 9659   4.678   0.768   0.509
 3232TIP3    H1 9660   4.594   0.799   0.545
 3232TIP3    H2 9661   4.727   0.848   0.492
 3233TIP3   OH2 9662   7.172   1.519   4.547
 3233TIP3    H1 9663   7.219   1.481   4.473
 3233TIP3    H2 9664   7.238   1.526   4.617
 3234TIP3   OH2 9665   6.044   1.981   3.692
 3234TIP3    H1 9666   6.010   1.899   3.654
 3234TIP3    H2 9667   5.991   2.050   3.652
 3235TIP3   OH2 9668   1.944   1.845   1.599
 3235TIP3    H1 9669   2.014   1.858   1.663
 3235TIP3    H2 9670   1.865   1.832   1.651
 3236TIP3   OH2 9671   4.226   2.214   0.979
 3236TIP3    H1 9672   4.307   2.235   1.025
 3236TIP3    H2 9673   4.166   2.187   1.048
 3237TIP3   OH2 9674   3.363   3.922   4.905
 3237TIP3    H1 9675   3.279   3.880   4.891
 3237TIP3    H2 9676   3.373   3.926   5.000
 3238TIP3   OH2 9677   4.074   3.482   2.052
 3238TIP3    H1 9678   4.099   3.476   2.144
 3238TIP3    H2 9679   4.145   3.532   2.012
 3239TIP3   OH2 9680   0.594   3.392   4.358
 3239TIP3    H1 9681   0.557   3.414   4.444
 3239TIP3    H2 9682   0.654   3.319   4.376
 3240TIP3   OH2 9683   0.717   2.791   5.162
 3240TIP3    H1 9684   0.781   2.753   5.222
 3240TIP3    H2 9685   0.641   2.733   5.168
 3241TIP3   OH2 9686   6.587   0.438   5.506
 3241TIP3    H1 9687   6.550   0.357   5.542
 3241TIP3    H2 9688   6.676   0.441   5.539
 3242TIP3   OH2 9689   4.261   5.195   0.962
 3242TIP3    H1 9690   4.218   5.113   0.986
 3242TIP3    H2 9691   4.338   5.200   1.019
 3243TIP3   OH2 9692   6.844   4.869   5.689
 3243TIP3    H1 9693   6.799   4.915   5.618
 3243TIP3    H2 9694   6.892   4.799   5.645
 3244TIP3   OH2 9695   6.903   6.293   3.344
 3244TIP3    H1 9696   6.917   6.386   3.326
 3244TIP3    H2 9697   6.923   6.283   3.437
 3245TIP3   OH2 9698   0.733   3.634   2.594
 3245TIP3    H1 9699   0.781   3.641   2.677
 3245TIP3    H2 9700   0.707   3.542   2.589
 3246TIP3   OH2 9701   4.871   5.497   4.186
 3246TIP3    H1 9702   4.877   5.490   4.282
 3246TIP3    H2 9703   4.784   5.463   4.165
 3247TIP3   OH2 9704   4.078   0.634   1.706
 3247TIP3    H1 9705   4.139   0.674   1.768
 3247TIP3    H2 9706   4.133   0.609   1.631
 3248TIP3   OH2 9707   5.919   2.362   4.448
 3248TIP3    H1 9708   5.924   2.275   4.487
 3248TIP3    H2 9709   5.827   2.374   4.425
 3249TIP3   OH2 9710   3.742   1.696   4.458
 3249TIP3    H1 9711   3.788   1.614   4.442
 3249TIP3    H2 9712   3.805   1.764   4.437
 3250TIP3   OH2 9713   0.306   5.412   1.022
 3250TIP3    H1 9714   0.371   5.387   1.088
 3250TIP3    H2 9715   0.332   5.363   0.944
 3251TIP3   OH2 9716   5.215   2.424   2.868
 3251TIP3    H1 9717   5.279   2.388   2.807
 3251TIP3    H2 9718   5.173   2.494   2.820
 3252TIP3   OH2 9719   0.925   4.055   0.627
 3252TIP3    H1 9720   0.897   3.981   0.680
 3252TIP3    H2 9721   1.019   4.042   0.615
 3253TIP3   OH2 9722   5.817   6.526   3.976
 3253TIP3    H1 9723   5.858   6.605   3.941
 3253TIP3    H2 9724   5.772   6.487   3.902
 3254TIP3   OH2 9725   6.681   3.847   3.002
 3254TIP3    H1 9726   6.633   3.877   2.925
 3254TIP3    H2 9727   6.672   3.918   3.065
 3255TIP3   OH2 9728   6.770   2.849   2.385
 3255TIP3    H1 9729   6.725   2.931   2.405
 3255TIP3    H2 9730   6.837   2.840   2.453
 3256TIP3   OH2 9731   3.792   1.175   1.278
 3256TIP3    H1 9732   3.711   1.201   1.235
 3256TIP3    H2 9733   3.778   1.083   1.302
 3257TIP3   OH2 9734   6.896   3.862   0.542
 3257TIP3    H1 9735   6.971   3.803   0.550
 3257TIP3    H2 9736   6.829   3.808   0.499
 3258TIP3   OH2 9737   7.123   6.725   0.670
 3258TIP3    H1 9738   7.082   6.785   0.733
 3258TIP3    H2 9739   7.057   6.711   0.603
 3259TIP3   OH2 9740   1.555   4.526   3.261
 3259TIP3    H1 9741   1.637   4.502   3.304
 3259TIP3    H2 9742   1.502   4.446   3.264
 3260TIP3   OH2 9743   3.420   6.516   0.812
 3260TIP3    H1 9744   3.512   6.506   0.787
 3260TIP3    H2 9745   3.422   6.545   0.903
 3261TIP3   OH2 9746   4.401   3.517   4.898
 3261TIP3    H1 9747   4.460   3.442   4.908
 3261TIP3    H2 9748   4.414   3.546   4.808
 3262TIP3   OH2 9749   2.383   5.687   2.241
 3262TIP3    H1 9750   2.375   5.605   2.290
 3262TIP3    H2 9751   2.293   5.717   2.230
 3263TIP3   OH2 9752   2.383   1.219   3.848
 3263TIP3    H1 9753   2.421   1.258   3.770
 3263TIP3    H2 9754   2.362   1.293   3.905
 3264TIP3   OH2 9755   4.790   3.602   0.779
 3264TIP3    H1 9756   4.853   3.587   0.708
 3264TIP3    H2 9757   4.705   3.607   0.735
 3265TIP3   OH2 9758   0.965   4.508   3.132
 3265TIP3    H1 9759   0.958   4.413   3.132
 3265TIP3    H2 9760   1.042   4.526   3.079
 3266TIP3   OH2 9761   6.981   2.165   2.420
 3266TIP3    H1 9762   6.973   2.228   2.348
 3266TIP3    H2 9763   6.932   2.089   2.390
 3267TIP3   OH2 9764   3.350   2.050   0.716
 3267TIP3    H1 9765   3.352   2.000   0.635
 3267TIP3    H2 9766   3.268   2.100   0.711
 3268TIP3   OH2 9767   0.759   0.803   0.720
 3268TIP3    H1 9768   0.828   0.781   0.782
 3268TIP3    H2 9769   0.803   0.808   0.635
 3269TIP3   OH2 9770   1.076   6.750   0.261
 3269TIP3    H1 9771   0.994   6.797   0.278
 3269TIP3    H2 9772   1.073   6.674   0.319
 3270TIP3   OH2 9773   2.835   4.080   5.514
 3270TIP3    H1 9774   2.815   4.033   5.433
 3270TIP3    H2 9775   2.890   4.153   5.487
 3271TIP3   OH2 9776   0.094   0.673   2.437
 3271TIP3    H1 9777   0.126   0.583   2.429
 3271TIP3    H2 9778   0.140   0.708   2.513
 3272TIP3   OH2 9779   3.481   5.240   5.648
 3272TIP3    H1 9780   3.410   5.302   5.633
 3272TIP3    H2 9781   3.560   5.290   5.630
 3273TIP3   OH2 9782   3.861   6.679   2.398
 3273TIP3    H1 9783   3.924   6.618   2.438
 3273TIP3    H2 9784   3.788   6.682   2.460
 3274TIP3   OH2 9785   5.133   6.006   4.953
 3274TIP3    H1 9786   5.188   5.932   4.928
 3274TIP3    H2 9787   5.060   6.004   4.891
 3275TIP3   OH2 9788   2.538   0.772   3.851
 3275TIP3    H1 9789   2.615   0.817   3.884
 3275TIP3    H2 9790   2.507   0.826   3.778
 3276TIP3   OH2 9791   0.142   5.337   4.973
 3276TIP3    H1 9792   0.121   5.246   4.951
 3276TIP3    H2 9793   0.194   5.330   5.054
 3277TIP3   OH2 9794   1.837   5.817   0.600
 3277TIP3    H1 9795   1.794   5.903   0.603
 3277TIP3    H2 9796   1.779   5.760   0.651
 3278TIP3   OH2 9797   3.724   3.196   0.327
 3278TIP3    H1 9798   3.643   3.152   0.302
 3278TIP3    H2 9799   3.785   3.176   0.256
 3279TIP3   OH2 9800   4.269   0.014   0.837
 3279TIP3    H1 9801   4.240  -0.073   0.808
 3279TIP3    H2 9802   4.338  -0.004   0.901
 3280TIP3   OH2 9803   2.345   2.069   0.544
 3280TIP3    H1 9804   2.418   2.128   0.560
 3280TIP3    H2 9805   2.267   2.125   0.549
 3281TIP3   OH2 9806   4.357   1.706   5.627
 3281TIP3    H1 9807   4.346   1.612   5.634
 3281TIP3    H2 9808   4.433   1.726   5.682
 3282TIP3   OH2 9809   2.480   6.400   1.355
 3282TIP3    H1 9810   2.500   6.453   1.432
 3282TIP3    H2 9811   2.511   6.312   1.378
 3283TIP3   OH2 9812   5.227   5.755   4.947
 3283TIP3    H1 9813   5.164   5.683   4.939
 3283TIP3    H2 9814   5.313   5.713   4.941
 3284TIP3   OH2 9815   3.375   5.269   2.790
 3284TIP3    H1 9816   3.447   5.220   2.751
 3284TIP3    H2 9817   3.343   5.326   2.720
 3285TIP3   OH2 9818   5.114   0.612   5.599
 3285TIP3    H1 9819   5.084   0.557   5.526
 3285TIP3    H2 9820   5.162   0.682   5.556
 3286TIP3   OH2 9821   5.019   3.486   5.794
 3286TIP3    H1 9822   4.960   3.444   5.856
 3286TIP3    H2 9823   5.097   3.432   5.794
 3287TIP3   OH2 9824   5.700   0.286   1.800
 3287TIP3    H1 9825   5.621   0.309   1.849
 3287TIP3    H2 9826   5.688   0.193   1.777
 3288TIP3   OH2 9827   1.815   3.299   4.955
 3288TIP3    H1 9828   1.764   3.257   5.025
 3288TIP3    H2 9829   1.896   3.248   4.951
 3289TIP3   OH2 9830   4.085   1.052   5.407
 3289TIP3    H1 9831   4.120   1.000   5.335
 3289TIP3    H2 9832   3.994   1.068   5.384
 3290TIP3   OH2 9833   4.075   5.755   3.100
 3290TIP3    H1 9834   4.011   5.792   3.040
 3290TIP3    H2 9835   4.117   5.831   3.140
 3291TIP3   OH2 9836   1.815   4.124   3.990
 3291TIP3    H1 9837   1.750   4.055   3.974
 3291TIP3    H2 9838   1.856   4.139   3.905
 3292TIP3   OH2 9839   2.571   3.994   1.516
 3292TIP3    H1 9840   2.583   4.028   1.605
 3292TIP3    H2 9841   2.654   4.012   1.472
 3293TIP3   OH2 9842   7.209   4.374   3.843
 3293TIP3    H1 9843   7.133   4.332   3.803
 3293TIP3    H2 9844   7.174   4.420   3.919
 3294TIP3   OH2 9845   7.083   0.843   1.909
 3294TIP3    H1 9846   7.159   0.814   1.858
 3294TIP3    H2 9847   7.105   0.932   1.935
 3295TIP3   OH2 9848   5.857   1.288   3.083
 3295TIP3    H1 9849   5.836   1.381   3.076
 3295TIP3    H2 9850   5.813   1.248   3.008
 3296TIP3   OH2 9851   3.593   1.946   1.138
 3296TIP3    H1 9852   3.569   1.878   1.075
 3296TIP3    H2 9853   3.569   1.908   1.223
 3297TIP3   OH2 9854   5.687   4.038   1.449
 3297TIP3    H1 9855   5.652   4.086   1.375
 3297TIP3    H2 9856   5.689   3.946   1.420
 3298TIP3   OH2 9857   6.903   3.311   1.468
 3298TIP3    H1 9858   6.919   3.333   1.377
 3298TIP3    H2 9859   6.990   3.303   1.507
 3299TIP3   OH2 9860   7.174   3.221   0.969
 3299TIP3    H1 9861   7.169   3.311   0.937
 3299TIP3    H2 9862   7.266   3.198   0.961
 3300TIP3   OH2 9863   3.863   2.320   2.042
 3300TIP3    H1 9864   3.774   2.349   2.063
 3300TIP3    H2 9865   3.851   2.242   1.988
 3301TIP3   OH2 9866   2.242   2.956   3.803
 3301TIP3    H1 9867   2.327   2.982   3.769
 3301TIP3    H2 9868   2.250   2.863   3.821
 3302TIP3   OH2 9869   3.918   5.389   1.496
 3302TIP3    H1 9870   3.972   5.468   1.508
 3302TIP3    H2 9871   3.843   5.419   1.445
 3303TIP3   OH2 9872   6.008   1.002   1.338
 3303TIP3    H1 9873   5.948   0.971   1.406
 3303TIP3    H2 9874   5.974   1.088   1.314
 3304TIP3   OH2 9875   1.350   1.733   3.752
 3304TIP3    H1 9876   1.256   1.728   3.771
 3304TIP3    H2 9877   1.385   1.649   3.783
 3305TIP3   OH2 9878   1.131   4.706   1.308
 3305TIP3    H1 9879   1.217   4.746   1.291
 3305TIP3    H2 9880   1.070   4.779   1.301
 3306TIP3   OH2 9881   4.868   2.099   0.412
 3306TIP3    H1 9882   4.798   2.100   0.477
 3306TIP3    H2 9883   4.945   2.131   0.459
 3307TIP3   OH2 9884   4.997   1.981   5.348
 3307TIP3    H1 9885   5.023   2.072   5.357
 3307TIP3    H2 9886   5.032   1.955   5.262
 3308TIP3   OH2 9887   3.554   4.616   0.273
 3308TIP3    H1 9888   3.529   4.531   0.310
 3308TIP3    H2 9889   3.633   4.641   0.321
 3309TIP3   OH2 9890   1.725   1.696   5.299
 3309TIP3    H1 9891   1.773   1.615   5.286
 3309TIP3    H2 9892   1.674   1.681   5.379
 3310TIP3   OH2 9893   2.719   0.535   5.773
 3310TIP3    H1 9894   2.645   0.475   5.781
 3310TIP3    H2 9895   2.780   0.506   5.840
 3311TIP3   OH2 9896   5.751   3.490   1.334
 3311TIP3    H1 9897   5.680   3.428   1.351
 3311TIP3    H2 9898   5.807   3.484   1.411
 3312TIP3   OH2 9899   2.112   2.263   5.169
 3312TIP3    H1 9900   2.044   2.299   5.227
 3312TIP3    H2 9901   2.067   2.246   5.087
 3313TIP3   OH2 9902   2.327   6.531   0.259
 3313TIP3    H1 9903   2.282   6.514   0.176
 3313TIP3    H2 9904   2.368   6.617   0.247
 3314TIP3   OH2 9905   7.166   3.402   1.668
 3314TIP3    H1 9906   7.100   3.468   1.689
 3314TIP3    H2 9907   7.237   3.418   1.731
 3315TIP3   OH2 9908   6.947   6.328   3.618
 3315TIP3    H1 9909   6.994   6.382   3.682
 3315TIP3    H2 9910   6.877   6.286   3.668
 3316TIP3   OH2 9911   2.292   4.222   3.455
 3316TIP3    H1 9912   2.286   4.128   3.467
 3316TIP3    H2 9913   2.254   4.237   3.368
 3317TIP3   OH2 9914   4.604   0.376   5.207
 3317TIP3    H1 9915   4.697   0.375   5.230
 3317TIP3    H2 9916   4.581   0.284   5.196
 3318TIP3   OH2 9917   4.530   5.717   2.576
 3318TIP3    H1 9918   4.541   5.640   2.633
 3318TIP3    H2 9919   4.498   5.681   2.493
 3319TIP3   OH2 9920   3.785   5.954   2.521
 3319TIP3    H1 9921   3.808   5.914   2.437
 3319TIP3    H2 9922   3.852   6.020   2.535
 3320TIP3   OH2 9923   6.226   3.762   4.700
 3320TIP3    H1 9924   6.139   3.726   4.689
 3320TIP3    H2 9925   6.233   3.829   4.632
 3321TIP3   OH2 9926   6.487   0.873   5.237
 3321TIP3    H1 9927   6.560   0.935   5.233
 3321TIP3    H2 9928   6.425   0.913   5.299
 3322TIP3   OH2 9929   2.633   1.827   2.354
 3322TIP3    H1 9930   2.597   1.807   2.440
 3322TIP3    H2 9931   2.728   1.835   2.368
 3323TIP3   OH2 9932   1.501   5.358   4.962
 3323TIP3    H1 9933   1.501   5.307   5.043
 3323TIP3    H2 9934   1.409   5.364   4.937
 3324TIP3   OH2 9935   1.570   4.746   3.612
 3324TIP3    H1 9936   1.594   4.809   3.680
 3324TIP3    H2 9937   1.563   4.798   3.532
 3325TIP3   OH2 9938   6.485   4.492   1.087
 3325TIP3    H1 9939   6.559   4.463   1.141
 3325TIP3    H2 9940   6.448   4.410   1.053
 3326TIP3   OH2 9941   2.120   0.857   3.902
 3326TIP3    H1 9942   2.031   0.840   3.870
 3326TIP3    H2 9943   2.107   0.899   3.987
 3327TIP3   OH2 9944   1.860   3.077   3.689
 3327TIP3    H1 9945   1.772   3.051   3.662
 3327TIP3    H2 9946   1.914   3.001   3.668
 3328TIP3   OH2 9947   5.338   0.546   0.885
 3328TIP3    H1 9948   5.303   0.629   0.916
 3328TIP3    H2 9949   5.277   0.480   0.918
 3329TIP3   OH2 9950   7.177   2.579   0.122
 3329TIP3    H1 9951   7.180   2.589   0.217
 3329TIP3    H2 9952   7.099   2.627   0.095
 3330TIP3   OH2 9953   5.186   2.072   1.005
 3330TIP3    H1 9954   5.180   1.992   0.954
 3330TIP3    H2 9955   5.213   2.139   0.942
 3331TIP3   OH2 9956   5.090   1.483   5.738
 3331TIP3    H1 9957   5.010   1.469   5.788
 3331TIP3    H2 9958   5.076   1.437   5.655
 3332TIP3   OH2 9959   0.855   2.138   2.966
 3332TIP3    H1 9960   0.802   2.185   3.030
 3332TIP3    H2 9961   0.945   2.157   2.990
 3333TIP3   OH2 9962   5.537   0.656   2.311
 3333TIP3    H1 9963   5.576   0.589   2.256
 3333TIP3    H2 9964   5.547   0.623   2.400
 3334TIP3   OH2 9965   2.796   1.262   2.312
 3334TIP3    H1 9966   2.779   1.356   2.320
 3334TIP3    H2 9967   2.891   1.256   2.301
 3335TIP3   OH2 9968   7.128   6.009   5.476
 3335TIP3    H1 9969   7.159   6.085   5.526
 3335TIP3    H2 9970   7.208   5.959   5.459
 3336TIP3   OH2 9971   4.544   3.945   2.465
 3336TIP3    H1 9972   4.544   3.859   2.507
 3336TIP3    H2 9973   4.637   3.964   2.449
 3337TIP3   OH2 9974   0.505   4.304   3.417
 3337TIP3    H1 9975   0.537   4.318   3.328
 3337TIP3    H2 9976   0.549   4.372   3.468
 3338TIP3   OH2 9977   2.670   6.204   3.233
 3338TIP3    H1 9978   2.649   6.186   3.325
 3338TIP3    H2 9979   2.614   6.145   3.184
 3339TIP3   OH2 9980   6.790   5.380   3.203
 3339TIP3    H1 9981   6.734   5.304   3.185
 3339TIP3    H2 9982   6.729   5.446   3.238
 3340TIP3   OH2 9983   1.104   5.512   3.925
 3340TIP3    H1 9984   1.062   5.426   3.934
 3340TIP3    H2 9985   1.033   5.575   3.935
 3341TIP3   OH2 9986   4.347   1.367   2.362
 3341TIP3    H1 9987   4.336   1.388   2.269
 3341TIP3    H2 9988   4.416   1.302   2.364
 3342TIP3   OH2 9989   2.953   5.020   3.615
 3342TIP3    H1 9990   2.888   4.994   3.550
 3342TIP3    H2 9991   2.955   5.116   3.610
 3343TIP3   OH2 9992   0.498   4.077   3.625
 3343TIP3    H1 9993   0.454   4.077   3.540
 3343TIP3    H2 9994   0.569   4.141   3.617
 3344TIP3   OH2 9995   1.974   5.514   4.723
 3344TIP3    H1 9996   1.897   5.491   4.775
 3344TIP3    H2 9997   2.044   5.457   4.757
 3345TIP3   OH2 9998   2.201   1.237   1.370
 3345TIP3    H1 9999   2.292   1.261   1.350
 3345TIP3    H210000   2.209   1.157   1.422
 3346TIP3   OH210001   1.628   3.851   5.255
 3346TIP3    H110002   1.719   3.849   5.224
 3346TIP3    H210003   1.579   3.800   5.190
 3347TIP3   OH210004   0.707   6.052   3.181
 3347TIP3    H110005   0.699   5.999   3.102
 3347TIP3    H210006   0.617   6.068   3.209
 3348TIP3   OH210007   2.203   5.329   0.656
 3348TIP3    H110008   2.279   5.378   0.689
 3348TIP3    H210009   2.167   5.285   0.733
 3349TIP3   OH210010   4.302   1.578   2.814
 3349TIP3    H110011   4.272   1.579   2.724
 3349TIP3    H210012   4.370   1.646   2.817
 3350TIP3   OH210013   1.260   1.803   1.427
 3350TIP3    H110014   1.218   1.816   1.342
 3350TIP3    H210015   1.348   1.840   1.416
 3351TIP3   OH210016   1.917   4.051   0.107
 3351TIP3    H110017   1.960   4.109   0.043
 3351TIP3    H210018   1.880   3.980   0.054
 3352TIP3   OH210019   2.054   6.284   5.750
 3352TIP3    H110020   2.091   6.368   5.723
 3352TIP3    H210021   1.963   6.303   5.771
 3353TIP3   OH210022   2.250   5.485   1.163
 3353TIP3    H110023   2.221   5.550   1.099
 3353TIP3    H210024   2.292   5.537   1.232
 3354TIP3   OH210025   6.456   2.346   4.725
 3354TIP3    H110026   6.368   2.310   4.716
 3354TIP3    H210027   6.456   2.391   4.809
 3355TIP3   OH210028   5.225   3.107   0.656
 3355TIP3    H110029   5.189   3.120   0.743
 3355TIP3    H210030   5.195   3.184   0.606
 3356TIP3   OH210031   7.015   0.761   3.444
 3356TIP3    H110032   7.106   0.784   3.425
 3356TIP3    H210033   7.013   0.743   3.538
 3357TIP3   OH210034   0.477   6.510   1.300
 3357TIP3    H110035   0.397   6.496   1.351
 3357TIP3    H210036   0.523   6.426   1.303
 3358TIP3   OH210037   2.862   2.813   0.116
 3358TIP3    H110038   2.810   2.777   0.043
 3358TIP3    H210039   2.803   2.811   0.191
 3359TIP3   OH210040   7.007   4.773   4.931
 3359TIP3    H110041   6.928   4.821   4.905
 3359TIP3    H210042   6.976   4.685   4.951
 3360TIP3   OH210043   5.176   4.744   3.049
 3360TIP3    H110044   5.176   4.669   2.990
 3360TIP3    H210045   5.085   4.751   3.078
 3361TIP3   OH210046   4.409   1.314   2.080
 3361TIP3    H110047   4.353   1.238   2.098
 3361TIP3    H210048   4.354   1.372   2.027
 3362TIP3   OH210049   3.167   3.608   5.608
 3362TIP3    H110050   3.251   3.581   5.644
 3362TIP3    H210051   3.174   3.587   5.514
 3363TIP3   OH210052   6.653   2.345   0.682
 3363TIP3    H110053   6.618   2.398   0.611
 3363TIP3    H210054   6.712   2.404   0.730
 3364TIP3   OH210055   0.137   4.265   1.518
 3364TIP3    H110056   0.070   4.225   1.462
 3364TIP3    H210057   0.220   4.231   1.484
 3365TIP3   OH210058   6.018   1.846   2.125
 3365TIP3    H110059   6.109   1.860   2.100
 3365TIP3    H210060   6.016   1.755   2.156
 3366TIP3   OH210061   4.260   3.805   5.582
 3366TIP3    H110062   4.305   3.825   5.664
 3366TIP3    H210063   4.330   3.775   5.523
 3367TIP3   OH210064   6.248   4.349   4.871
 3367TIP3    H110065   6.275   4.435   4.902
 3367TIP3    H210066   6.299   4.287   4.923
 3368TIP3   OH210067   3.290   1.772   1.887
 3368TIP3    H110068   3.223   1.839   1.875
 3368TIP3    H210069   3.288   1.752   1.980
 3369TIP3   OH210070   4.654   1.865   3.438
 3369TIP3    H110071   4.739   1.897   3.469
 3369TIP3    H210072   4.612   1.831   3.517
 3370TIP3   OH210073   0.222   4.925   4.712
 3370TIP3    H110074   0.171   4.844   4.718
 3370TIP3    H210075   0.309   4.901   4.743
 3371TIP3   OH210076   4.952   1.086   2.050
 3371TIP3    H110077   5.040   1.066   2.082
 3371TIP3    H210078   4.966   1.135   1.970
 3372TIP3   OH210079   3.724   1.993   2.963
 3372TIP3    H110080   3.641   2.029   2.995
 3372TIP3    H210081   3.789   2.018   3.029
 3373TIP3   OH210082   5.896   3.330   5.513
 3373TIP3    H110083   5.920   3.310   5.423
 3373TIP3    H210084   5.928   3.419   5.527
 3374TIP3   OH210085   4.874   5.718   5.152
 3374TIP3    H110086   4.810   5.649   5.162
 3374TIP3    H210087   4.830   5.785   5.099
 3375TIP3   OH210088   5.835   0.215   5.598
 3375TIP3    H110089   5.839   0.153   5.671
 3375TIP3    H210090   5.774   0.283   5.629
 3376TIP3   OH210091   4.196   5.886   1.861
 3376TIP3    H110092   4.264   5.820   1.875
 3376TIP3    H210093   4.116   5.836   1.846
 3377TIP3   OH210094   3.222   5.887   1.152
 3377TIP3    H110095   3.266   5.925   1.076
 3377TIP3    H210096   3.136   5.928   1.153
 3378TIP3   OH210097   0.607   2.784   0.940
 3378TIP3    H110098   0.607   2.695   0.905
 3378TIP3    H210099   0.515   2.802   0.959
 3379TIP3   OH210100   0.350   0.421   5.080
 3379TIP3    H110101   0.403   0.344   5.059
 3379TIP3    H210102   0.412   0.494   5.076
 3380TIP3   OH210103   5.635   4.542   3.766
 3380TIP3    H110104   5.637   4.586   3.850
 3380TIP3    H210105   5.674   4.605   3.705
 3381TIP3   OH210106   1.222   1.854   1.083
 3381TIP3    H110107   1.137   1.822   1.053
 3381TIP3    H210108   1.283   1.822   1.016
 3382TIP3   OH210109   5.697   2.566   1.922
 3382TIP3    H110110   5.676   2.625   1.850
 3382TIP3    H210111   5.681   2.617   2.001
 3383TIP3   OH210112   4.428   6.091   0.584
 3383TIP3    H110113   4.508   6.073   0.534
 3383TIP3    H210114   4.445   6.175   0.626
 3384TIP3   OH210115   1.191   5.766   5.147
 3384TIP3    H110116   1.204   5.748   5.240
 3384TIP3    H210117   1.277   5.799   5.117
 3385TIP3   OH210118   5.103   6.646   1.414
 3385TIP3    H110119   5.157   6.584   1.463
 3385TIP3    H210120   5.143   6.732   1.432
 3386TIP3   OH210121   1.088   1.271   2.893
 3386TIP3    H110122   1.011   1.326   2.886
 3386TIP3    H210123   1.156   1.327   2.929
 3387TIP3   OH210124   1.352   3.395   3.461
 3387TIP3    H110125   1.435   3.441   3.473
 3387TIP3    H210126   1.376   3.313   3.418
 3388TIP3   OH210127   1.544   4.671   4.392
 3388TIP3    H110128   1.501   4.646   4.310
 3388TIP3    H210129   1.517   4.761   4.407
 3389TIP3   OH210130   1.343   1.154   3.866
 3389TIP3    H110131   1.266   1.124   3.913
 3389TIP3    H210132   1.320   1.240   3.833
 3390TIP3   OH210133   5.064   5.531   3.901
 3390TIP3    H110134   5.027   5.456   3.948
 3390TIP3    H210135   5.157   5.511   3.894
 3391TIP3   OH210136   4.530   2.756   3.926
 3391TIP3    H110137   4.596   2.717   3.869
 3391TIP3    H210138   4.545   2.716   4.012
 3392TIP3   OH210139   4.330   0.443   2.695
 3392TIP3    H110140   4.287   0.507   2.640
 3392TIP3    H210141   4.396   0.402   2.639
 3393TIP3   OH210142   1.446   4.782   4.709
 3393TIP3    H110143   1.484   4.856   4.757
 3393TIP3    H210144   1.478   4.793   4.620
 3394TIP3   OH210145   5.412   6.522   2.923
 3394TIP3    H110146   5.347   6.453   2.939
 3394TIP3    H210147   5.495   6.484   2.949
 3395TIP3   OH210148   0.112   6.183   1.298
 3395TIP3    H110149   0.105   6.187   1.394
 3395TIP3    H210150   0.063   6.104   1.274
 3396TIP3   OH210151   7.013   2.732   1.487
 3396TIP3    H110152   7.022   2.698   1.398
 3396TIP3    H210153   7.090   2.701   1.533
 3397TIP3   OH210154   6.764   4.910   1.278
 3397TIP3    H110155   6.709   4.849   1.327
 3397TIP3    H210156   6.727   4.996   1.297
 3398TIP3   OH210157   3.596   3.415   0.855
 3398TIP3    H110158   3.650   3.337   0.843
 3398TIP3    H210159   3.605   3.463   0.773
 3399TIP3   OH210160   5.981   5.740   1.470
 3399TIP3    H110161   5.906   5.798   1.463
 3399TIP3    H210162   5.949   5.666   1.521
 3400TIP3   OH210163   1.152   5.381   1.319
 3400TIP3    H110164   1.094   5.414   1.250
 3400TIP3    H210165   1.202   5.312   1.278
 3401TIP3   OH210166   4.505   2.813   0.622
 3401TIP3    H110167   4.508   2.882   0.688
 3401TIP3    H210168   4.421   2.827   0.577
 3402TIP3   OH210169   6.627   6.322   5.697
 3402TIP3    H110170   6.681   6.262   5.748
 3402TIP3    H210171   6.690   6.372   5.646
 3403TIP3   OH210172   1.891   5.962   5.161
 3403TIP3    H110173   1.820   6.025   5.149
 3403TIP3    H210174   1.971   6.016   5.164
 3404TIP3   OH210175   1.309   4.177   3.500
 3404TIP3    H110176   1.256   4.228   3.562
 3404TIP3    H210177   1.272   4.089   3.503
 3405TIP3   OH210178   2.907   5.423   5.372
 3405TIP3    H110179   2.851   5.422   5.295
 3405TIP3    H210180   2.882   5.345   5.421
 3406TIP3   OH210181   4.307   2.382   2.694
 3406TIP3    H110182   4.281   2.462   2.649
 3406TIP3    H210183   4.226   2.334   2.706
 3407TIP3   OH210184   5.633   2.874   2.496
 3407TIP3    H110185   5.684   2.879   2.577
 3407TIP3    H210186   5.699   2.869   2.426
 3408TIP3   OH210187   1.695   0.643   3.753
 3408TIP3    H110188   1.650   0.600   3.826
 3408TIP3    H210189   1.674   0.589   3.677
 3409TIP3   OH210190   4.255   0.352   2.360
 3409TIP3    H110191   4.260   0.293   2.286
 3409TIP3    H210192   4.265   0.440   2.322
 3410TIP3   OH210193   1.400   3.412   0.612
 3410TIP3    H110194   1.473   3.359   0.643
 3410TIP3    H210195   1.425   3.437   0.523
 3411TIP3   OH210196   5.207   5.593   3.372
 3411TIP3    H110197   5.195   5.566   3.463
 3411TIP3    H210198   5.283   5.542   3.342
 3412TIP3   OH210199   5.821   2.074   2.494
 3412TIP3    H110200   5.902   2.043   2.453
 3412TIP3    H210201   5.843   2.162   2.525
 3413TIP3   OH210202   4.356   5.134   3.204
 3413TIP3    H110203   4.422   5.180   3.255
 3413TIP3    H210204   4.361   5.043   3.235
 3414TIP3   OH210205   3.249   1.351   0.267
 3414TIP3    H110206   3.241   1.446   0.269
 3414TIP3    H210207   3.343   1.334   0.258
 3415TIP3   OH210208   1.094   5.751   3.007
 3415TIP3    H110209   1.060   5.710   3.086
 3415TIP3    H210210   1.040   5.829   2.994
 3416TIP3   OH210211   1.542   5.289   1.115
 3416TIP3    H110212   1.596   5.287   1.035
 3416TIP3    H210213   1.498   5.374   1.111
 3417TIP3   OH210214   7.138   6.612   2.180
 3417TIP3    H110215   7.233   6.610   2.184
 3417TIP3    H210216   7.116   6.569   2.097
 3418TIP3   OH210217   4.544   4.344   5.183
 3418TIP3    H110218   4.566   4.419   5.126
 3418TIP3    H210219   4.625   4.327   5.231
 3419TIP3   OH210220   4.466   3.771   5.790
 3419TIP3    H110221   4.499   3.815   5.869
 3419TIP3    H210222   4.526   3.797   5.721
 3420TIP3   OH210223   0.539   4.407   5.835
 3420TIP3    H110224   0.466   4.394   5.896
 3420TIP3    H210225   0.610   4.354   5.871
 3421TIP3   OH210226   6.146   4.402   1.173
 3421TIP3    H110227   6.082   4.366   1.234
 3421TIP3    H210228   6.118   4.493   1.160
 3422TIP3   OH210229   2.179   5.238   1.700
 3422TIP3    H110230   2.172   5.256   1.794
 3422TIP3    H210231   2.263   5.195   1.690
 3423TIP3   OH210232   2.740   6.719   1.885
 3423TIP3    H110233   2.706   6.646   1.938
 3423TIP3    H210234   2.752   6.790   1.948
 3424TIP3   OH210235   3.955   0.631   4.313
 3424TIP3    H110236   3.899   0.563   4.277
 3424TIP3    H210237   4.009   0.586   4.379
 3425TIP3   OH210238   3.132   0.750   2.640
 3425TIP3    H110239   3.217   0.705   2.635
 3425TIP3    H210240   3.113   0.774   2.549
 3426TIP3   OH210241   0.684   1.343   2.008
 3426TIP3    H110242   0.613   1.339   2.072
 3426TIP3    H210243   0.706   1.436   2.003
 3427TIP3   OH210244   2.690   1.996   1.492
 3427TIP3    H110245   2.620   1.936   1.470
 3427TIP3    H210246   2.722   2.028   1.408
 3428TIP3   OH210247   4.055   6.764   0.492
 3428TIP3    H110248   4.045   6.727   0.579
 3428TIP3    H210249   4.009   6.702   0.435
 3429TIP3   OH210250   0.151   1.947   3.426
 3429TIP3    H110251   0.215   2.018   3.433
 3429TIP3    H210252   0.074   1.978   3.474
 3430TIP3   OH210253   4.365   2.420   4.065
 3430TIP3    H110254   4.398   2.337   4.097
 3430TIP3    H210255   4.368   2.478   4.141
 3431TIP3   OH210256   4.083   5.045   5.438
 3431TIP3    H110257   4.121   4.958   5.425
 3431TIP3    H210258   4.072   5.079   5.350
 3432TIP3   OH210259   6.955   3.435   2.289
 3432TIP3    H110260   6.971   3.526   2.315
 3432TIP3    H210261   7.004   3.423   2.208
 3433TIP3   OH210262   0.694   4.767   4.742
 3433TIP3    H110263   0.719   4.680   4.773
 3433TIP3    H210264   0.605   4.780   4.775
 3434TIP3   OH210265   5.218   4.687   4.376
 3434TIP3    H110266   5.309   4.660   4.362
 3434TIP3    H210267   5.211   4.703   4.470
 3435TIP3   OH210268   5.317   4.330   3.039
 3435TIP3    H110269   5.265   4.383   3.099
 3435TIP3    H210270   5.407   4.340   3.071
 3436TIP3   OH210271   4.461   3.464   2.689
 3436TIP3    H110272   4.378   3.443   2.647
 3436TIP3    H210273   4.447   3.445   2.782
 3437TIP3   OH210274   6.312   3.939   2.816
 3437TIP3    H110275   6.236   3.935   2.758
 3437TIP3    H210276   6.300   3.866   2.877
 3438TIP3   OH210277   4.233   2.595   0.642
 3438TIP3    H110278   4.252   2.688   0.638
 3438TIP3    H210279   4.199   2.574   0.555
 3439TIP3   OH210280   5.477   6.634   1.971
 3439TIP3    H110281   5.418   6.677   2.032
 3439TIP3    H210282   5.469   6.685   1.890
 3440TIP3   OH210283   6.369   5.869   3.485
 3440TIP3    H110284   6.291   5.902   3.531
 3440TIP3    H210285   6.336   5.798   3.431
 3441TIP3   OH210286   4.666   3.287   2.594
 3441TIP3    H110287   4.610   3.351   2.638
 3441TIP3    H210288   4.627   3.202   2.616
 3442TIP3   OH210289   6.162   0.916   5.645
 3442TIP3    H110290   6.077   0.872   5.642
 3442TIP3    H210291   6.202   0.887   5.727
 3443TIP3   OH210292   1.816   5.206   0.586
 3443TIP3    H110293   1.786   5.292   0.555
 3443TIP3    H210294   1.738   5.167   0.627
 3444TIP3   OH210295   1.799   4.889   1.055
 3444TIP3    H110296   1.795   4.880   1.150
 3444TIP3    H210297   1.716   4.930   1.031
 3445TIP3   OH210298   7.150   1.496   4.173
 3445TIP3    H110299   7.133   1.520   4.081
 3445TIP3    H210300   7.196   1.572   4.209
 3446TIP3   OH210301   2.973   2.604   0.791
 3446TIP3    H110302   3.057   2.621   0.833
 3446TIP3    H210303   2.994   2.550   0.715
 3447TIP3   OH210304   7.169   5.546   3.311
 3447TIP3    H110305   7.245   5.559   3.255
 3447TIP3    H210306   7.094   5.562   3.254
 3448TIP3   OH210307   1.434   1.956   2.032
 3448TIP3    H110308   1.407   1.875   1.989
 3448TIP3    H210309   1.521   1.936   2.067
 3449TIP3   OH210310   4.640   4.766   1.116
 3449TIP3    H110311   4.644   4.809   1.201
 3449TIP3    H210312   4.731   4.761   1.087
 3450TIP3   OH210313   6.269   2.848   5.450
 3450TIP3    H110314   6.323   2.776   5.419
 3450TIP3    H210315   6.263   2.908   5.376
 3451TIP3   OH210316   0.260   2.330   1.452
 3451TIP3    H110317   0.219   2.416   1.458
 3451TIP3    H210318   0.255   2.294   1.540
 3452TIP3   OH210319   7.022   1.031   5.791
 3452TIP3    H110320   6.942   1.075   5.819
 3452TIP3    H210321   7.089   1.062   5.852
 3453TIP3   OH210322   6.934   5.913   4.085
 3453TIP3    H110323   6.946   6.006   4.063
 3453TIP3    H210324   6.847   5.909   4.125
 3454TIP3   OH210325   4.165   2.241   0.511
 3454TIP3    H110326   4.169   2.146   0.507
 3454TIP3    H210327   4.250   2.270   0.478
 3455TIP3   OH210328   0.674   3.133   5.807
 3455TIP3    H110329   0.761   3.155   5.839
 3455TIP3    H210330   0.660   3.043   5.836
 3456TIP3   OH210331   5.894   6.291   4.097
 3456TIP3    H110332   5.896   6.376   4.053
 3456TIP3    H210333   5.932   6.307   4.183
 3457TIP3   OH210334   4.797   3.026   1.650
 3457TIP3    H110335   4.842   3.026   1.565
 3457TIP3    H210336   4.848   2.965   1.703
 3458TIP3   OH210337   0.584   2.460   4.294
 3458TIP3    H110338   0.552   2.550   4.289
 3458TIP3    H210339   0.667   2.467   4.342
 3459TIP3   OH210340   3.525   4.505   4.047
 3459TIP3    H110341   3.493   4.494   4.137
 3459TIP3    H210342   3.512   4.419   4.007
 3460TIP3   OH210343   3.902   4.677   2.488
 3460TIP3    H110344   3.960   4.604   2.511
 3460TIP3    H210345   3.890   4.669   2.394
 3461TIP3   OH210346   4.693   2.702   4.326
 3461TIP3    H110347   4.784   2.725   4.342
 3461TIP3    H210348   4.646   2.740   4.400
 3462TIP3   OH210349   1.386   3.066   2.471
 3462TIP3    H110350   1.468   3.110   2.495
 3462TIP3    H210351   1.407   2.973   2.471
 3463TIP3   OH210352   5.234   0.429   2.158
 3463TIP3    H110353   5.153   0.398   2.198
 3463TIP3    H210354   5.216   0.519   2.132
 3464TIP3   OH210355   2.617   4.532   3.571
 3464TIP3    H110356   2.708   4.559   3.584
 3464TIP3    H210357   2.620   4.473   3.496
 3465TIP3   OH210358   7.193   0.072   1.701
 3465TIP3    H110359   7.135   0.110   1.767
 3465TIP3    H210360   7.183   0.129   1.625
 3466TIP3   OH210361   3.581   6.424   5.109
 3466TIP3    H110362   3.486   6.416   5.120
 3466TIP3    H210363   3.593   6.506   5.060
 3467TIP3   OH210364   4.039   3.003   5.522
 3467TIP3    H110365   4.110   3.025   5.582
 3467TIP3    H210366   4.052   3.060   5.447
 3468TIP3   OH210367   3.827   3.242   4.130
 3468TIP3    H110368   3.856   3.151   4.128
 3468TIP3    H210369   3.839   3.268   4.222
 3469TIP3   OH210370   7.008   3.335   4.298
 3469TIP3    H110371   7.031   3.427   4.310
 3469TIP3    H210372   7.044   3.291   4.375
 3470TIP3   OH210373   1.141   2.102   1.181
 3470TIP3    H110374   1.178   2.028   1.131
 3470TIP3    H210375   1.069   2.134   1.126
 3471TIP3   OH210376   4.485   2.587   0.828
 3471TIP3    H110377   4.464   2.579   0.735
 3471TIP3    H210378   4.501   2.680   0.842
 3472TIP3   OH210379   4.765   4.027   5.114
 3472TIP3    H110380   4.674   3.998   5.114
 3472TIP3    H210381   4.762   4.112   5.158
 3473TIP3   OH210382   5.956   0.313   1.483
 3473TIP3    H110383   5.993   0.258   1.415
 3473TIP3    H210384   5.960   0.260   1.562
 3474TIP3   OH210385   1.654   2.804   0.724
 3474TIP3    H110386   1.702   2.873   0.769
 3474TIP3    H210387   1.672   2.725   0.774
 3475TIP3   OH210388   3.234   6.055   5.674
 3475TIP3    H110389   3.228   5.998   5.597
 3475TIP3    H210390   3.161   6.028   5.730
 3476TIP3   OH210391   3.645   5.765   3.526
 3476TIP3    H110392   3.552   5.743   3.533
 3476TIP3    H210393   3.657   5.788   3.434
 3477TIP3   OH210394   6.536   0.339   4.323
 3477TIP3    H110395   6.625   0.343   4.357
 3477TIP3    H210396   6.497   0.262   4.364
 3478TIP3   OH210397   4.071   2.284   2.397
 3478TIP3    H110398   4.059   2.367   2.443
 3478TIP3    H210399   3.984   2.245   2.394
 3479TIP3   OH210400   3.458   5.900   1.826
 3479TIP3    H110401   3.531   5.840   1.842
 3479TIP3    H210402   3.488   5.984   1.860
 3480TIP3   OH210403   6.434   2.539   5.568
 3480TIP3    H110404   6.370   2.543   5.497
 3480TIP3    H210405   6.506   2.486   5.533
 3481TIP3   OH210406   5.309   2.993   1.816
 3481TIP3    H110407   5.239   3.017   1.877
 3481TIP3    H210408   5.390   3.017   1.862
 3482TIP3   OH210409   4.968   4.764   3.819
 3482TIP3    H110410   4.916   4.843   3.835
 3482TIP3    H210411   4.988   4.766   3.726
 3483TIP3   OH210412   0.172   4.635   3.397
 3483TIP3    H110413   0.195   4.543   3.386
 3483TIP3    H210414   0.251   4.676   3.432
 3484TIP3   OH210415   2.806   4.716   2.390
 3484TIP3    H110416   2.790   4.662   2.467
 3484TIP3    H210417   2.897   4.698   2.366
 3485TIP3   OH210418   1.274   5.996   1.853
 3485TIP3    H110419   1.210   5.940   1.809
 3485TIP3    H210420   1.290   6.068   1.792
 3486TIP3   OH210421   3.824   4.586   1.332
 3486TIP3    H110422   3.879   4.628   1.266
 3486TIP3    H210423   3.860   4.616   1.415
 3487TIP3   OH210424   5.834   2.213   1.463
 3487TIP3    H110425   5.749   2.169   1.473
 3487TIP3    H210426   5.873   2.172   1.386
 3488TIP3   OH210427   3.138   1.081   3.290
 3488TIP3    H110428   3.200   1.027   3.340
 3488TIP3    H210429   3.117   1.029   3.213
 3489TIP3   OH210430   6.228   2.930   5.730
 3489TIP3    H110431   6.233   3.025   5.727
 3489TIP3    H210432   6.245   2.902   5.640
 3490TIP3   OH210433   1.357   4.543   1.640
 3490TIP3    H110434   1.339   4.601   1.715
 3490TIP3    H210435   1.449   4.560   1.619
 3491TIP3   OH210436   1.396   4.671   5.015
 3491TIP3    H110437   1.396   4.576   5.004
 3491TIP3    H210438   1.424   4.706   4.930
 3492TIP3   OH210439   1.193   6.197   5.085
 3492TIP3    H110440   1.104   6.162   5.092
 3492TIP3    H210441   1.200   6.225   4.994
 3493TIP3   OH210442   4.815   2.329   1.212
 3493TIP3    H110443   4.905   2.331   1.244
 3493TIP3    H210444   4.810   2.399   1.147
 3494TIP3   OH210445   1.105   3.171   4.919
 3494TIP3    H110446   1.064   3.111   4.857
 3494TIP3    H210447   1.052   3.251   4.914
 3495TIP3   OH210448   1.993   1.204   4.249
 3495TIP3    H110449   2.083   1.189   4.220
 3495TIP3    H210450   1.939   1.154   4.187
 3496TIP3   OH210451   2.225   3.557   1.011
 3496TIP3    H110452   2.281   3.618   1.059
 3496TIP3    H210453   2.144   3.553   1.061
 3497TIP3   OH210454   6.701   1.518   0.808
 3497TIP3    H110455   6.670   1.492   0.895
 3497TIP3    H210456   6.700   1.614   0.809
 3498TIP3   OH210457   3.489   0.187   4.800
 3498TIP3    H110458   3.580   0.214   4.789
 3498TIP3    H210459   3.493   0.097   4.833
 3499TIP3   OH210460   0.051   3.609   3.623
 3499TIP3    H110461   0.074   3.539   3.563
 3499TIP3    H210462   0.120   3.675   3.611
 3500TIP3   OH210463   6.018   0.227   0.395
 3500TIP3    H110464   6.087   0.230   0.328
 3500TIP3    H210465   5.978   0.314   0.392
 3501TIP3   OH210466   0.639   0.156   3.577
 3501TIP3    H110467   0.660   0.221   3.510
 3501TIP3    H210468   0.558   0.116   3.547
 3502TIP3   OH210469   4.674   2.041   1.485
 3502TIP3    H110470   4.725   1.967   1.519
 3502TIP3    H210471   4.630   2.077   1.562
 3503TIP3   OH210472   7.106   5.611   5.078
 3503TIP3    H110473   7.104   5.694   5.126
 3503TIP3    H210474   7.145   5.549   5.139
 3504TIP3   OH210475   2.203   0.590   4.911
 3504TIP3    H110476   2.127   0.578   4.854
 3504TIP3    H210477   2.165   0.600   4.999
 3505TIP3   OH210478   3.162   5.019   2.355
 3505TIP3    H110479   3.240   5.072   2.372
 3505TIP3    H210480   3.190   4.929   2.372
 3506TIP3   OH210481   6.630   4.877   3.105
 3506TIP3    H110482   6.690   4.804   3.118
 3506TIP3    H210483   6.620   4.883   3.010
 3507TIP3   OH210484   5.411   4.229   0.158
 3507TIP3    H110485   5.434   4.242   0.066
 3507TIP3    H210486   5.343   4.295   0.175
 3508TIP3   OH210487   2.956   6.289   2.315
 3508TIP3    H110488   2.988   6.354   2.377
 3508TIP3    H210489   2.897   6.338   2.258
 3509TIP3   OH210490   6.786   1.250   3.132
 3509TIP3    H110491   6.745   1.217   3.052
 3509TIP3    H210492   6.772   1.345   3.129
 3510TIP3   OH210493   0.883   3.871   2.553
 3510TIP3    H110494   0.847   3.901   2.470
 3510TIP3    H210495   0.825   3.799   2.579
 3511TIP3   OH210496   0.686   6.755   4.439
 3511TIP3    H110497   0.639   6.758   4.355
 3511TIP3    H210498   0.622   6.788   4.503
 3512TIP3   OH210499   2.345   5.629   0.122
 3512TIP3    H110500   2.260   5.662   0.094
 3512TIP3    H210501   2.398   5.629   0.042
 3513TIP3   OH210502   1.858   6.378   4.997
 3513TIP3    H110503   1.810   6.333   5.066
 3513TIP3    H210504   1.941   6.330   4.990
 3514TIP3   OH210505   0.084   0.837   4.573
 3514TIP3    H110506   0.176   0.859   4.556
 3514TIP3    H210507   0.046   0.919   4.605
 3515TIP3   OH210508   2.338   0.972   5.669
 3515TIP3    H110509   2.334   1.042   5.735
 3515TIP3    H210510   2.431   0.969   5.644
 3516TIP3   OH210511   6.204   5.755   4.070
 3516TIP3    H110512   6.204   5.736   3.976
 3516TIP3    H210513   6.130   5.814   4.082
 3517TIP3   OH210514   3.713   0.745   5.483
 3517TIP3    H110515   3.656   0.807   5.439
 3517TIP3    H210516   3.708   0.768   5.576
 3518TIP3   OH210517   5.158   5.265   5.741
 3518TIP3    H110518   5.154   5.242   5.648
 3518TIP3    H210519   5.095   5.336   5.751
 3519TIP3   OH210520   1.506   4.185   2.600
 3519TIP3    H110521   1.434   4.141   2.645
 3519TIP3    H210522   1.584   4.135   2.625
 3520TIP3   OH210523   1.419   0.096   2.275
 3520TIP3    H110524   1.445   0.184   2.250
 3520TIP3    H210525   1.411   0.099   2.371
 3521TIP3   OH210526   5.814   0.406   2.607
 3521TIP3    H110527   5.826   0.323   2.654
 3521TIP3    H210528   5.881   0.404   2.538
 3522TIP3   OH210529   7.157   5.496   2.281
 3522TIP3    H110530   7.184   5.454   2.362
 3522TIP3    H210531   7.238   5.511   2.232
 3523TIP3   OH210532   1.807   4.881   1.686
 3523TIP3    H110533   1.843   4.969   1.679
 3523TIP3    H210534   1.749   4.885   1.762
 3524TIP3   OH210535   4.359   0.974   2.997
 3524TIP3    H110536   4.448   0.985   2.962
 3524TIP3    H210537   4.341   0.881   2.989
 3525TIP3   OH210538   0.909   2.674   5.306
 3525TIP3    H110539   0.939   2.625   5.383
 3525TIP3    H210540   0.976   2.660   5.240
 3526TIP3   OH210541   5.479   4.601   4.336
 3526TIP3    H110542   5.535   4.669   4.299
 3526TIP3    H210543   5.526   4.519   4.321
 3527TIP3   OH210544   5.530   3.238   3.444
 3527TIP3    H110545   5.467   3.266   3.378
 3527TIP3    H210546   5.542   3.314   3.501
 3528TIP3   OH210547   2.881   0.436   0.823
 3528TIP3    H110548   2.932   0.380   0.763
 3528TIP3    H210549   2.831   0.494   0.765
 3529TIP3   OH210550   5.780   6.024   1.173
 3529TIP3    H110551   5.702   5.993   1.128
 3529TIP3    H210552   5.746   6.077   1.246
 3530TIP3   OH210553   3.532   6.294   2.654
 3530TIP3    H110554   3.489   6.222   2.701
 3530TIP3    H210555   3.564   6.352   2.724
 3531TIP3   OH210556   0.703   3.762   4.185
 3531TIP3    H110557   0.777   3.737   4.130
 3531TIP3    H210558   0.652   3.822   4.131
 3532TIP3   OH210559   3.011   3.236   1.673
 3532TIP3    H110560   3.028   3.199   1.760
 3532TIP3    H210561   3.097   3.244   1.634
 3533TIP3   OH210562   4.556   5.373   2.219
 3533TIP3    H110563   4.600   5.294   2.189
 3533TIP3    H210564   4.515   5.347   2.302
 3534TIP3   OH210565   3.786   3.657   0.113
 3534TIP3    H110566   3.742   3.687   0.193
 3534TIP3    H210567   3.779   3.562   0.116
 3535TIP3   OH210568   3.239   5.110   5.375
 3535TIP3    H110569   3.171   5.074   5.432
 3535TIP3    H210570   3.235   5.057   5.296
 3536TIP3   OH210571   4.096   3.603   5.485
 3536TIP3    H110572   4.086   3.531   5.548
 3536TIP3    H210573   4.153   3.666   5.529
 3537TIP3   OH210574   5.655   4.140   0.286
 3537TIP3    H110575   5.641   4.050   0.317
 3537TIP3    H210576   5.584   4.156   0.224
 3538TIP3   OH210577   2.589   6.619   2.668
 3538TIP3    H110578   2.560   6.587   2.582
 3538TIP3    H210579   2.641   6.548   2.703
 3539TIP3   OH210580   1.189   5.791   2.319
 3539TIP3    H110581   1.219   5.859   2.378
 3539TIP3    H210582   1.194   5.710   2.370
 3540TIP3   OH210583   0.191   1.362   0.332
 3540TIP3    H110584   0.252   1.403   0.393
 3540TIP3    H210585   0.118   1.333   0.386
 3541TIP3   OH210586   4.393   0.398   4.919
 3541TIP3    H110587   4.479   0.358   4.925
 3541TIP3    H210588   4.362   0.402   5.010
 3542TIP3   OH210589   0.733   0.121   0.595
 3542TIP3    H110590   0.749   0.129   0.501
 3542TIP3    H210591   0.649   0.076   0.601
 3543TIP3   OH210592   2.921   0.727   3.754
 3543TIP3    H110593   3.006   0.769   3.764
 3543TIP3    H210594   2.861   0.781   3.806
 3544TIP3   OH210595   5.254   5.148   1.135
 3544TIP3    H110596   5.212   5.156   1.049
 3544TIP3    H210597   5.342   5.116   1.115
 3545TIP3   OH210598   4.792   1.518   1.070
 3545TIP3    H110599   4.796   1.436   1.021
 3545TIP3    H210600   4.739   1.496   1.147
 3546TIP3   OH210601   4.308   6.789   2.852
 3546TIP3    H110602   4.220   6.774   2.887
 3546TIP3    H210603   4.343   6.861   2.905
 3547TIP3   OH210604   5.550   3.996   3.628
 3547TIP3    H110605   5.617   3.952   3.576
 3547TIP3    H210606   5.550   4.086   3.596
 3548TIP3   OH210607   4.712   2.703   5.807
 3548TIP3    H110608   4.716   2.793   5.775
 3548TIP3    H210609   4.776   2.699   5.877
 3549TIP3   OH210610   5.218   4.086   3.069
 3549TIP3    H110611   5.241   4.175   3.044
 3549TIP3    H210612   5.191   4.044   2.987
 3550TIP3   OH210613   7.160   4.078   4.030
 3550TIP3    H110614   7.070   4.104   4.010
 3550TIP3    H210615   7.181   4.125   4.111
 3551TIP3   OH210616   2.984   2.902   1.810
 3551TIP3    H110617   2.902   2.944   1.837
 3551TIP3    H210618   2.986   2.911   1.715
 3552TIP3   OH210619   0.793   5.348   1.304
 3552TIP3    H110620   0.807   5.369   1.397
 3552TIP3    H210621   0.854   5.406   1.258
 3553TIP3   OH210622   6.600   2.686   2.625
 3553TIP3    H110623   6.508   2.670   2.644
 3553TIP3    H210624   6.602   2.706   2.531
 3554TIP3   OH210625   0.023   6.777   4.163
 3554TIP3    H110626  -0.012   6.701   4.209
 3554TIP3    H210627  -0.046   6.801   4.100
 3555TIP3   OH210628   2.363   3.244   5.888
 3555TIP3    H110629   2.337   3.232   5.797
 3555TIP3    H210630   2.364   3.339   5.901
 3556TIP3   OH210631   5.178   4.779   4.682
 3556TIP3    H110632   5.100   4.726   4.701
 3556TIP3    H210633   5.150   4.869   4.700
 3557TIP3   OH210634   5.006   4.325   1.920
 3557TIP3    H110635   4.970   4.395   1.867
 3557TIP3    H210636   5.091   4.358   1.950
 3558TIP3   OH210637   2.426   0.871   3.636
 3558TIP3    H110638   2.336   0.905   3.633
 3558TIP3    H210639   2.472   0.920   3.568
 3559TIP3   OH210640   6.911   2.455   0.446
 3559TIP3    H110641   6.944   2.424   0.361
 3559TIP3    H210642   6.881   2.544   0.428
 3560TIP3   OH210643   6.373   0.095   2.627
 3560TIP3    H110644   6.381   0.147   2.707
 3560TIP3    H210645   6.463   0.075   2.602
 3561TIP3   OH210646   0.788   3.741   0.403
 3561TIP3    H110647   0.700   3.706   0.386
 3561TIP3    H210648   0.782   3.778   0.492
 3562TIP3   OH210649   0.277   5.070   5.801
 3562TIP3    H110650   0.291   4.976   5.783
 3562TIP3    H210651   0.327   5.087   5.881
 3563TIP3   OH210652   2.738   2.703   0.662
 3563TIP3    H110653   2.765   2.782   0.615
 3563TIP3    H210654   2.818   2.669   0.700
 3564TIP3   OH210655   2.663   2.756   3.728
 3564TIP3    H110656   2.615   2.779   3.808
 3564TIP3    H210657   2.718   2.682   3.754
 3565TIP3   OH210658   3.731   4.135   0.368
 3565TIP3    H110659   3.690   4.095   0.291
 3565TIP3    H210660   3.715   4.074   0.439
 3566TIP3   OH210661   5.482   0.613   1.602
 3566TIP3    H110662   5.559   0.597   1.657
 3566TIP3    H210663   5.501   0.565   1.521
 3567TIP3   OH210664   1.933   1.320   0.250
 3567TIP3    H110665   1.872   1.381   0.292
 3567TIP3    H210666   1.939   1.247   0.311
 3568TIP3   OH210667   3.371   6.106   2.788
 3568TIP3    H110668   3.410   6.041   2.730
 3568TIP3    H210669   3.320   6.055   2.851
 3569TIP3   OH210670   4.569   0.413   0.351
 3569TIP3    H110671   4.552   0.380   0.263
 3569TIP3    H210672   4.484   0.406   0.396
 3570TIP3   OH210673   3.848   2.459   1.537
 3570TIP3    H110674   3.933   2.428   1.567
 3570TIP3    H210675   3.848   2.552   1.555
 3571TIP3   OH210676   6.092   6.637   5.071
 3571TIP3    H110677   6.014   6.673   5.112
 3571TIP3    H210678   6.065   6.552   5.037
 3572TIP3   OH210679   3.340   6.360   1.827
 3572TIP3    H110680   3.268   6.333   1.770
 3572TIP3    H210681   3.313   6.334   1.915
 3573TIP3   OH210682   3.317   4.693   4.007
 3573TIP3    H110683   3.341   4.673   3.916
 3573TIP3    H210684   3.354   4.621   4.058
 3574TIP3   OH210685   5.257   3.444   4.181
 3574TIP3    H110686   5.181   3.392   4.156
 3574TIP3    H210687   5.323   3.379   4.207
 3575TIP3   OH210688   3.997   3.782   2.719
 3575TIP3    H110689   3.936   3.852   2.697
 3575TIP3    H210690   3.945   3.720   2.771
 3576TIP3   OH210691   3.674   2.245   4.482
 3576TIP3    H110692   3.593   2.262   4.433
 3576TIP3    H210693   3.680   2.317   4.544
 3577TIP3   OH210694   1.719   4.444   4.466
 3577TIP3    H110695   1.748   4.400   4.386
 3577TIP3    H210696   1.646   4.499   4.438
 3578TIP3   OH210697   1.321   4.285   5.210
 3578TIP3    H110698   1.392   4.223   5.222
 3578TIP3    H210699   1.321   4.304   5.116
 3579TIP3   OH210700   2.045   3.725   5.032
 3579TIP3    H110701   2.123   3.767   5.066
 3579TIP3    H210702   2.066   3.632   5.031
 3580TIP3   OH210703   3.393   4.180   3.148
 3580TIP3    H110704   3.412   4.101   3.098
 3580TIP3    H210705   3.422   4.161   3.237
 3581TIP3   OH210706   4.492   6.288   4.785
 3581TIP3    H110707   4.443   6.361   4.822
 3581TIP3    H210708   4.445   6.263   4.706
 3582TIP3   OH210709   7.034   0.930   0.463
 3582TIP3    H110710   6.970   0.989   0.503
 3582TIP3    H210711   6.981   0.859   0.427
 3583TIP3   OH210712   4.369   4.109   3.332
 3583TIP3    H110713   4.281   4.143   3.349
 3583TIP3    H210714   4.371   4.025   3.377
 3584TIP3   OH210715   3.222   5.196   3.285
 3584TIP3    H110716   3.164   5.125   3.260
 3584TIP3    H210717   3.304   5.153   3.310
 3585TIP3   OH210718   1.614   3.213   5.717
 3585TIP3    H110719   1.553   3.273   5.761
 3585TIP3    H210720   1.561   3.136   5.696
 3586TIP3   OH210721   5.153   1.578   4.916
 3586TIP3    H110722   5.107   1.586   4.833
 3586TIP3    H210723   5.239   1.545   4.893
 3587TIP3   OH210724   6.648   0.442   1.683
 3587TIP3    H110725   6.555   0.461   1.700
 3587TIP3    H210726   6.695   0.489   1.752
 3588TIP3   OH210727   5.587   3.758   5.800
 3588TIP3    H110728   5.651   3.829   5.795
 3588TIP3    H210729   5.564   3.739   5.710
 3589TIP3   OH210730   0.396   0.642   1.086
 3589TIP3    H110731   0.439   0.575   1.033
 3589TIP3    H210732   0.439   0.637   1.171
 3590TIP3   OH210733   6.958   1.974   1.545
 3590TIP3    H110734   7.005   2.025   1.612
 3590TIP3    H210735   7.027   1.926   1.499
 3591TIP3   OH210736   5.716   3.031   3.525
 3591TIP3    H110737   5.688   3.111   3.481
 3591TIP3    H210738   5.656   3.022   3.599
 3592TIP3   OH210739   0.036   4.209   5.751
 3592TIP3    H110740   0.086   4.202   5.833
 3592TIP3    H210741   0.012   4.301   5.745
 3593TIP3   OH210742   4.517   3.436   3.750
 3593TIP3    H110743   4.464   3.500   3.704
 3593TIP3    H210744   4.556   3.484   3.823
 3594TIP3   OH210745   1.609   0.024   4.581
 3594TIP3    H110746   1.561   0.015   4.498
 3594TIP3    H210747   1.543   0.012   4.648
 3595TIP3   OH210748   5.636   4.992   2.809
 3595TIP3    H110749   5.544   5.013   2.824
 3595TIP3    H210750   5.649   5.008   2.716
 3596TIP3   OH210751   3.512   6.643   5.450
 3596TIP3    H110752   3.453   6.658   5.524
 3596TIP3    H210753   3.454   6.632   5.375
 3597TIP3   OH210754   3.397   2.517   3.922
 3597TIP3    H110755   3.487   2.502   3.949
 3597TIP3    H210756   3.368   2.432   3.887
 3598TIP3   OH210757   4.885   5.017   0.751
 3598TIP3    H110758   4.940   5.032   0.674
 3598TIP3    H210759   4.816   4.958   0.721
 3599TIP3   OH210760   7.007   2.555   4.343
 3599TIP3    H110761   7.074   2.531   4.279
 3599TIP3    H210762   6.937   2.491   4.330
 3600TIP3   OH210763   2.574   0.265   4.624
 3600TIP3    H110764   2.636   0.221   4.565
 3600TIP3    H210765   2.500   0.204   4.631
 3601TIP3   OH210766   1.818   4.720   3.021
 3601TIP3    H110767   1.847   4.629   3.012
 3601TIP3    H210768   1.762   4.735   2.945
 3602TIP3   OH210769   6.784   6.401   0.602
 3602TIP3    H110770   6.742   6.316   0.618
 3602TIP3    H210771   6.718   6.465   0.631
 3603TIP3   OH210772   6.196   6.524   5.441
 3603TIP3    H110773   6.231   6.438   5.467
 3603TIP3    H210774   6.210   6.528   5.346
 3604TIP3   OH210775   3.949   2.732   1.982
 3604TIP3    H110776   3.997   2.778   1.913
 3604TIP3    H210777   3.879   2.791   2.007
 3605TIP3   OH210778   3.090   1.593   2.784
 3605TIP3    H110779   3.156   1.554   2.842
 3605TIP3    H210780   3.140   1.626   2.709
 3606TIP3   OH210781   0.830   1.799   4.079
 3606TIP3    H110782   0.824   1.822   4.172
 3606TIP3    H210783   0.867   1.711   4.077
 3607TIP3   OH210784   3.827   6.126   4.098
 3607TIP3    H110785   3.835   6.107   4.005
 3607TIP3    H210786   3.740   6.164   4.107
 3608TIP3   OH210787   6.219   5.533   0.563
 3608TIP3    H110788   6.275   5.608   0.541
 3608TIP3    H210789   6.145   5.540   0.503
 3609TIP3   OH210790   4.422   1.882   0.554
 3609TIP3    H110791   4.426   1.787   0.561
 3609TIP3    H210792   4.332   1.901   0.528
 3610TIP3   OH210793   7.021   2.566   2.901
 3610TIP3    H110794   7.087   2.543   2.835
 3610TIP3    H210795   6.970   2.635   2.860
 3611TIP3   OH210796   0.589   3.401   2.676
 3611TIP3    H110797   0.553   3.461   2.741
 3611TIP3    H210798   0.515   3.382   2.618
 3612TIP3   OH210799   5.417   1.832   2.952
 3612TIP3    H110800   5.340   1.880   2.984
 3612TIP3    H210801   5.480   1.837   3.024
 3613TIP3   OH210802   6.261   5.190   4.546
 3613TIP3    H110803   6.337   5.237   4.511
 3613TIP3    H210804   6.292   5.156   4.630
 3614TIP3   OH210805   1.884   2.972   4.659
 3614TIP3    H110806   1.843   2.887   4.676
 3614TIP3    H210807   1.901   3.008   4.746
 3615TIP3   OH210808   0.642   4.649   1.765
 3615TIP3    H110809   0.635   4.712   1.837
 3615TIP3    H210810   0.623   4.700   1.687
 3616TIP3   OH210811   1.185   3.293   2.933
 3616TIP3    H110812   1.146   3.234   2.998
 3616TIP3    H210813   1.237   3.355   2.984
 3617TIP3   OH210814   5.419   2.797   3.717
 3617TIP3    H110815   5.336   2.820   3.673
 3617TIP3    H210816   5.398   2.718   3.767
 3618TIP3   OH210817   3.145   2.675   2.188
 3618TIP3    H110818   3.193   2.595   2.211
 3618TIP3    H210819   3.092   2.695   2.266
 3619TIP3   OH210820   0.132   6.403   0.777
 3619TIP3    H110821   0.186   6.482   0.777
 3619TIP3    H210822   0.043   6.434   0.793
 3620TIP3   OH210823   2.002   6.358   2.584
 3620TIP3    H110824   2.097   6.365   2.592
 3620TIP3    H210825   1.968   6.400   2.663
 3621TIP3   OH210826   4.776   0.633   2.171
 3621TIP3    H110827   4.813   0.667   2.253
 3621TIP3    H210828   4.841   0.655   2.105
 3622TIP3   OH210829   0.517   0.105   2.694
 3622TIP3    H110830   0.591   0.162   2.714
 3622TIP3    H210831   0.556   0.018   2.683
 3623TIP3   OH210832   3.696   3.390   2.577
 3623TIP3    H110833   3.675   3.356   2.664
 3623TIP3    H210834   3.682   3.317   2.518
 3624TIP3   OH210835   2.623   6.608   1.216
 3624TIP3    H110836   2.545   6.644   1.173
 3624TIP3    H210837   2.587   6.550   1.284
 3625TIP3   OH210838   5.798   0.515   5.463
 3625TIP3    H110839   5.757   0.523   5.376
 3625TIP3    H210840   5.870   0.453   5.450
 3626TIP3   OH210841   3.969   4.302   0.032
 3626TIP3    H110842   4.028   4.319   0.105
 3626TIP3    H210843   3.886   4.343   0.058
 3627TIP3   OH210844   3.999   1.466   5.039
 3627TIP3    H110845   3.985   1.432   4.950
 3627TIP3    H210846   4.086   1.505   5.037
 3628TIP3   OH210847   3.018   0.415   1.040
 3628TIP3    H110848   2.968   0.449   0.965
 3628TIP3    H210849   3.081   0.484   1.060
 3629TIP3   OH210850   3.428   0.982   3.774
 3629TIP3    H110851   3.443   0.981   3.679
 3629TIP3    H210852   3.475   0.906   3.807
 3630TIP3   OH210853   2.469   0.909   1.833
 3630TIP3    H110854   2.475   0.898   1.928
 3630TIP3    H210855   2.488   0.823   1.797
 3631TIP3   OH210856   6.032   3.004   4.198
 3631TIP3    H110857   5.979   3.052   4.134
 3631TIP3    H210858   6.122   3.019   4.171
 3632TIP3   OH210859   5.219   5.909   4.221
 3632TIP3    H110860   5.168   5.990   4.221
 3632TIP3    H210861   5.161   5.845   4.179
 3633TIP3   OH210862   4.132   4.317   5.209
 3633TIP3    H110863   4.106   4.409   5.201
 3633TIP3    H210864   4.053   4.272   5.237
 3634TIP3   OH210865   2.050   5.478   3.101
 3634TIP3    H110866   2.132   5.466   3.148
 3634TIP3    H210867   2.062   5.560   3.053
 3635TIP3   OH210868   3.121   1.639   4.536
 3635TIP3    H110869   3.200   1.611   4.582
 3635TIP3    H210870   3.051   1.590   4.580
 3636TIP3   OH210871   2.814   2.441   1.391
 3636TIP3    H110872   2.801   2.535   1.402
 3636TIP3    H210873   2.898   2.434   1.346
 3637TIP3   OH210874   0.120   5.103   4.488
 3637TIP3    H110875   0.204   5.121   4.447
 3637TIP3    H210876   0.105   5.178   4.546
 3638TIP3   OH210877   5.124   1.809   5.534
 3638TIP3    H110878   5.083   1.858   5.464
 3638TIP3    H210879   5.175   1.741   5.489
 3639TIP3   OH210880   3.411   5.013   5.747
 3639TIP3    H110881   3.408   4.954   5.671
 3639TIP3    H210882   3.444   5.096   5.711
 3640TIP3   OH210883   0.981   2.361   2.361
 3640TIP3    H110884   1.024   2.287   2.318
 3640TIP3    H210885   0.894   2.364   2.322
 3641TIP3   OH210886   6.980   4.404   2.590
 3641TIP3    H110887   6.956   4.452   2.511
 3641TIP3    H210888   7.036   4.334   2.559
 3642TIP3   OH210889   6.968   1.992   0.346
 3642TIP3    H110890   7.049   1.940   0.342
 3642TIP3    H210891   6.911   1.953   0.280
 3643TIP3   OH210892   3.129   2.945   2.446
 3643TIP3    H110893   3.046   2.899   2.429
 3643TIP3    H210894   3.138   3.005   2.372
 3644TIP3   OH210895   1.249   3.890   4.536
 3644TIP3    H110896   1.176   3.841   4.498
 3644TIP3    H210897   1.218   3.980   4.539
 3645TIP3   OH210898   4.029   1.361   5.643
 3645TIP3    H110899   4.045   1.455   5.641
 3645TIP3    H210900   3.988   1.342   5.559
 3646TIP3   OH210901   7.199   3.172   3.313
 3646TIP3    H110902   7.228   3.263   3.323
 3646TIP3    H210903   7.104   3.177   3.316
 3647TIP3   OH210904   4.847   0.362   1.403
 3647TIP3    H110905   4.827   0.337   1.312
 3647TIP3    H210906   4.867   0.456   1.397
 3648TIP3   OH210907   1.607   4.074   2.323
 3648TIP3    H110908   1.621   4.016   2.397
 3648TIP3    H210909   1.658   4.153   2.343
 3649TIP3   OH210910   6.219   0.859   3.020
 3649TIP3    H110911   6.177   0.944   3.005
 3649TIP3    H210912   6.154   0.796   2.990
 3650TIP3   OH210913   5.389   1.408   4.845
 3650TIP3    H110914   5.306   1.371   4.818
 3650TIP3    H210915   5.441   1.414   4.765
 3651TIP3   OH210916   4.307   4.609   5.825
 3651TIP3    H110917   4.355   4.649   5.753
 3651TIP3    H210918   4.333   4.660   5.902
 3652TIP3   OH210919   5.721   5.698   2.501
 3652TIP3    H110920   5.763   5.685   2.586
 3652TIP3    H210921   5.719   5.611   2.461
 3653TIP3   OH210922   2.406   3.316   5.593
 3653TIP3    H110923   2.333   3.322   5.531
 3653TIP3    H210924   2.476   3.367   5.552
 3654TIP3   OH210925   2.446   4.825   1.966
 3654TIP3    H110926   2.509   4.794   2.030
 3654TIP3    H210927   2.442   4.756   1.900
 3655TIP3   OH210928   3.242   6.229   2.552
 3655TIP3    H110929   3.302   6.174   2.502
 3655TIP3    H210930   3.255   6.201   2.643
 3656TIP3   OH210931   3.426   1.321   4.634
 3656TIP3    H110932   3.506   1.333   4.686
 3656TIP3    H210933   3.458   1.306   4.545
 3657TIP3   OH210934   0.975   4.052   1.437
 3657TIP3    H110935   1.040   4.122   1.428
 3657TIP3    H210936   0.974   4.009   1.351
 3658TIP3   OH210937   5.839   0.599   0.736
 3658TIP3    H110938   5.890   0.587   0.816
 3658TIP3    H210939   5.760   0.645   0.764
 3659TIP3   OH210940   4.865   4.694   0.945
 3659TIP3    H110941   4.852   4.728   0.857
 3659TIP3    H210942   4.958   4.709   0.964
 3660TIP3   OH210943   7.153   2.614   0.746
 3660TIP3    H110944   7.235   2.564   0.750
 3660TIP3    H210945   7.087   2.548   0.724
 3661TIP3   OH210946   0.932   5.385   4.486
 3661TIP3    H110947   0.975   5.433   4.415
 3661TIP3    H210948   0.838   5.392   4.466
 3662TIP3   OH210949   3.084   5.610   0.109
 3662TIP3    H110950   3.176   5.584   0.101
 3662TIP3    H210951   3.042   5.537   0.153
 3663TIP3   OH210952   0.821   6.391   5.652
 3663TIP3    H110953   0.776   6.420   5.731
 3663TIP3    H210954   0.842   6.472   5.605
 3664TIP3   OH210955   4.281   2.938   3.801
 3664TIP3    H110956   4.191   2.948   3.770
 3664TIP3    H210957   4.318   2.870   3.745
 3665TIP3   OH210958   0.689   3.032   5.311
 3665TIP3    H110959   0.602   3.007   5.342
 3665TIP3    H210960   0.711   2.967   5.245
 3666TIP3   OH210961   0.604   4.565   1.000
 3666TIP3    H110962   0.536   4.503   0.973
 3666TIP3    H210963   0.686   4.515   0.991
 3667TIP3   OH210964   0.133   0.165   4.332
 3667TIP3    H110965   0.218   0.159   4.376
 3667TIP3    H210966   0.150   0.219   4.254
 3668TIP3   OH210967   6.204   0.317   0.210
 3668TIP3    H110968   6.221   0.226   0.186
 3668TIP3    H210969   6.281   0.365   0.179
 3669TIP3   OH210970   2.142   5.493   4.513
 3669TIP3    H110971   2.079   5.533   4.573
 3669TIP3    H210972   2.122   5.532   4.428
 3670TIP3   OH210973   6.979   2.200   5.288
 3670TIP3    H110974   6.941   2.282   5.257
 3670TIP3    H210975   6.980   2.210   5.383
 3671TIP3   OH210976   2.470   5.702   0.354
 3671TIP3    H110977   2.423   5.678   0.274
 3671TIP3    H210978   2.404   5.698   0.423
 3672TIP3   OH210979   7.000   2.292   4.601
 3672TIP3    H110980   6.931   2.232   4.575
 3672TIP3    H210981   7.082   2.246   4.579
 3673TIP3   OH210982   0.670   3.849   3.754
 3673TIP3    H110983   0.680   3.907   3.679
 3673TIP3    H210984   0.634   3.768   3.717
 3674TIP3   OH210985   6.781   0.173   3.031
 3674TIP3    H110986   6.874   0.180   3.050
 3674TIP3    H210987   6.746   0.261   3.049
 3675TIP3   OH210988   3.153   6.578   1.455
 3675TIP3    H110989   3.083   6.550   1.514
 3675TIP3    H210990   3.151   6.514   1.384
 3676TIP3   OH210991   2.192   4.637   2.005
 3676TIP3    H110992   2.230   4.552   1.982
 3676TIP3    H210993   2.243   4.666   2.081
 3677TIP3   OH210994   2.668   5.854   3.236
 3677TIP3    H110995   2.689   5.896   3.319
 3677TIP3    H210996   2.575   5.834   3.242
 3678TIP3   OH210997   5.935   0.576   3.504
 3678TIP3    H110998   5.984   0.540   3.429
 3678TIP3    H210999   5.874   0.507   3.528
 3679TIP3   OH211000   5.728   2.100   1.010
 3679TIP3    H111001   5.646   2.069   1.047
 3679TIP3    H211002   5.716   2.093   0.915
 3680TIP3   OH211003   2.287   2.219   1.158
 3680TIP3    H111004   2.259   2.134   1.193
 3680TIP3    H211005   2.236   2.283   1.208
 3681TIP3   OH211006   4.405   2.802   1.087
 3681TIP3    H111007   4.435   2.805   1.177
 3681TIP3    H211008   4.326   2.748   1.089
 3682TIP3   OH211009   4.659   5.080   4.740
 3682TIP3    H111010   4.702   4.995   4.742
 3682TIP3    H211011   4.660   5.105   4.647
 3683TIP3   OH211012   7.075   1.585   1.690
 3683TIP3    H111013   7.161   1.559   1.723
 3683TIP3    H211014   7.063   1.675   1.721
 3684TIP3   OH211015   0.205   4.441   0.427
 3684TIP3    H111016   0.133   4.485   0.381
 3684TIP3    H211017   0.210   4.355   0.385
 3685TIP3   OH211018   1.239   3.418   1.606
 3685TIP3    H111019   1.183   3.342   1.586
 3685TIP3    H211020   1.227   3.432   1.700
 3686TIP3   OH211021   0.755   2.960   2.623
 3686TIP3    H111022   0.733   3.025   2.689
 3686TIP3    H211023   0.840   2.926   2.649
 3687TIP3   OH211024   6.924   0.282   2.235
 3687TIP3    H111025   6.915   0.360   2.180
 3687TIP3    H211026   6.835   0.261   2.262
 3688TIP3   OH211027   3.216   3.255   0.344
 3688TIP3    H111028   3.197   3.167   0.376
 3688TIP3    H211029   3.241   3.242   0.253
 3689TIP3   OH211030   2.298   0.402   0.984
 3689TIP3    H111031   2.381   0.355   0.972
 3689TIP3    H211032   2.291   0.458   0.907
 3690TIP3   OH211033   6.815   3.605   2.063
 3690TIP3    H111034   6.723   3.579   2.054
 3690TIP3    H211035   6.819   3.651   2.147
 3691TIP3   OH211036   5.995   1.854   5.531
 3691TIP3    H111037   6.031   1.879   5.616
 3691TIP3    H211038   5.999   1.934   5.479
 3692TIP3   OH211039   2.509   3.446   4.859
 3692TIP3    H111040   2.500   3.536   4.827
 3692TIP3    H211041   2.488   3.451   4.952
 3693TIP3   OH211042   7.111   3.926   4.793
 3693TIP3    H111043   7.139   3.979   4.868
 3693TIP3    H211044   7.058   3.985   4.741
 3694TIP3   OH211045   0.608   5.394   5.411
 3694TIP3    H111046   0.703   5.409   5.406
 3694TIP3    H211047   0.592   5.323   5.349
 3695TIP3   OH211048   3.909   1.030   4.607
 3695TIP3    H111049   3.901   0.993   4.519
 3695TIP3    H211050   3.980   0.980   4.647
 3696TIP3   OH211051   4.597   1.275   3.494
 3696TIP3    H111052   4.527   1.273   3.429
 3696TIP3    H211053   4.644   1.193   3.482
 3697TIP3   OH211054   1.476   6.225   2.415
 3697TIP3    H111055   1.440   6.136   2.419
 3697TIP3    H211056   1.539   6.229   2.488
 3698TIP3   OH211057   6.771   3.864   4.686
 3698TIP3    H111058   6.768   3.948   4.733
 3698TIP3    H211059   6.697   3.867   4.626
 3699TIP3   OH211060   5.657   5.515   4.722
 3699TIP3    H111061   5.673   5.458   4.797
 3699TIP3    H211062   5.609   5.460   4.660
 3700TIP3   OH211063   6.727   2.567   0.855
 3700TIP3    H111064   6.790   2.634   0.828
 3700TIP3    H211065   6.770   2.521   0.927
 3701TIP3   OH211066   0.622   5.056   2.952
 3701TIP3    H111067   0.624   5.080   2.859
 3701TIP3    H211068   0.694   4.994   2.962
 3702TIP3   OH211069   6.192   4.647   3.243
 3702TIP3    H111070   6.253   4.721   3.242
 3702TIP3    H211071   6.182   4.625   3.335
 3703TIP3   OH211072   6.002   2.867   1.094
 3703TIP3    H111073   6.067   2.798   1.107
 3703TIP3    H211074   5.922   2.834   1.135
 3704TIP3   OH211075   2.106   1.856   4.022
 3704TIP3    H111076   2.190   1.902   4.030
 3704TIP3    H211077   2.105   1.795   4.096
 3705TIP3   OH211078   4.058   5.300   3.899
 3705TIP3    H111079   4.083   5.360   3.829
 3705TIP3    H211080   3.998   5.238   3.856
 3706TIP3   OH211081   1.830   2.935   0.309
 3706TIP3    H111082   1.913   2.984   0.309
 3706TIP3    H211083   1.849   2.857   0.360
 3707TIP3   OH211084   3.654   2.317   0.662
 3707TIP3    H111085   3.667   2.270   0.745
 3707TIP3    H211086   3.617   2.252   0.603
 3708TIP3   OH211087   2.518   5.563   1.327
 3708TIP3    H111088   2.572   5.604   1.395
 3708TIP3    H211089   2.486   5.637   1.275
 3709TIP3   OH211090   0.172   3.949   4.175
 3709TIP3    H111091   0.084   3.976   4.202
 3709TIP3    H211092   0.157   3.867   4.127
 3710TIP3   OH211093   2.428   1.828   0.890
 3710TIP3    H111094   2.422   1.807   0.796
 3710TIP3    H211095   2.362   1.895   0.903
 3711TIP3   OH211096   5.927   6.248   4.604
 3711TIP3    H111097   5.885   6.279   4.684
 3711TIP3    H211098   5.870   6.179   4.571
 3712TIP3   OH211099   4.774   4.261   5.332
 3712TIP3    H111100   4.776   4.317   5.409
 3712TIP3    H211101   4.864   4.229   5.323
 3713TIP3   OH211102   5.308   3.378   3.719
 3713TIP3    H111103   5.327   3.467   3.747
 3713TIP3    H211104   5.394   3.337   3.710
 3714TIP3   OH211105   4.993   3.419   1.588
 3714TIP3    H111106   4.959   3.412   1.498
 3714TIP3    H211107   4.958   3.501   1.621
 3715TIP3   OH211108   4.169   2.495   1.775
 3715TIP3    H111109   4.126   2.504   1.860
 3715TIP3    H211110   4.215   2.578   1.762
 3716TIP3   OH211111   3.274   2.433   1.757
 3716TIP3    H111112   3.240   2.355   1.712
 3716TIP3    H211113   3.366   2.413   1.773
 3717TIP3   OH211114   1.621   3.105   4.439
 3717TIP3    H111115   1.613   3.071   4.529
 3717TIP3    H211116   1.683   3.047   4.396
 3718TIP3   OH211117   1.314   5.291   3.806
 3718TIP3    H111118   1.281   5.276   3.717
 3718TIP3    H211119   1.235   5.304   3.859
 3719TIP3   OH211120   5.147   4.046   2.819
 3719TIP3    H111121   5.078   4.072   2.757
 3719TIP3    H211122   5.141   3.950   2.821
 3720TIP3   OH211123   1.329   3.376   5.469
 3720TIP3    H111124   1.321   3.295   5.419
 3720TIP3    H211125   1.245   3.385   5.514
 3721TIP3   OH211126   0.578   1.994   4.178
 3721TIP3    H111127   0.500   2.026   4.133
 3721TIP3    H211128   0.613   2.071   4.223
 3722TIP3   OH211129   3.752   6.686   2.132
 3722TIP3    H111130   3.815   6.728   2.073
 3722TIP3    H211131   3.795   6.687   2.218
 3723TIP3   OH211132   1.489   3.347   1.086
 3723TIP3    H111133   1.547   3.313   1.153
 3723TIP3    H211134   1.430   3.274   1.066
 3724TIP3   OH211135   0.336   0.074   5.085
 3724TIP3    H111136   0.325   0.131   5.009
 3724TIP3    H211137   0.430   0.073   5.101
 3725TIP3   OH211138   5.237   1.613   5.360
 3725TIP3    H111139   5.288   1.555   5.417
 3725TIP3    H211140   5.150   1.572   5.357
 3726TIP3   OH211141   1.105   3.421   2.105
 3726TIP3    H111142   1.190   3.465   2.111
 3726TIP3    H211143   1.069   3.428   2.194
 3727TIP3   OH211144   1.605   3.877   0.380
 3727TIP3    H111145   1.598   3.893   0.474
 3727TIP3    H211146   1.531   3.820   0.360
 3728TIP3   OH211147   4.205   5.110   4.563
 3728TIP3    H111148   4.246   5.110   4.477
 3728TIP3    H211149   4.182   5.019   4.579
 3729TIP3   OH211150   4.833   2.878   4.007
 3729TIP3    H111151   4.793   2.958   3.972
 3729TIP3    H211152   4.811   2.810   3.943
 3730TIP3   OH211153   5.897   2.232   1.720
 3730TIP3    H111154   5.882   2.221   1.626
 3730TIP3    H211155   5.893   2.143   1.755
 3731TIP3   OH211156   5.777   5.668   0.862
 3731TIP3    H111157   5.841   5.739   0.869
 3731TIP3    H211158   5.749   5.652   0.952
 3732TIP3   OH211159   3.950   6.203   4.762
 3732TIP3    H111160   3.862   6.228   4.790
 3732TIP3    H211161   3.959   6.242   4.675
 3733TIP3   OH211162   4.938   3.230   5.378
 3733TIP3    H111163   4.962   3.159   5.318
 3733TIP3    H211164   4.889   3.292   5.325
 3734TIP3   OH211165   5.476   5.436   4.445
 3734TIP3    H111166   5.471   5.341   4.460
 3734TIP3    H211167   5.425   5.474   4.516
 3735TIP3   OH211168   2.845   1.859   0.989
 3735TIP3    H111169   2.833   1.936   0.934
 3735TIP3    H211170   2.807   1.787   0.938
 3736TIP3   OH211171   1.297   5.480   4.824
 3736TIP3    H111172   1.348   5.439   4.753
 3736TIP3    H211173   1.208   5.485   4.789
 3737TIP3   OH211174   5.207   0.752   3.264
 3737TIP3    H111175   5.216   0.658   3.282
 3737TIP3    H211176   5.188   0.756   3.170
 3738TIP3   OH211177   3.078   3.566   3.820
 3738TIP3    H111178   3.043   3.655   3.811
 3738TIP3    H211179   3.013   3.510   3.778
 3739TIP3   OH211180   5.536   4.928   4.834
 3739TIP3    H111181   5.530   4.894   4.745
 3739TIP3    H211182   5.449   4.912   4.872
 3740TIP3   OH211183   5.472   4.647   1.626
 3740TIP3    H111184   5.496   4.555   1.635
 3740TIP3    H211185   5.552   4.695   1.648
 3741TIP3   OH211186   0.961   3.018   1.054
 3741TIP3    H111187   0.979   2.933   1.014
 3741TIP3    H211188   0.994   3.082   0.991
 3742TIP3   OH211189   5.265   6.227   3.404
 3742TIP3    H111190   5.183   6.250   3.360
 3742TIP3    H211191   5.314   6.177   3.338
 3743TIP3   OH211192   3.542   2.939   3.273
 3743TIP3    H111193   3.507   2.852   3.255
 3743TIP3    H211194   3.629   2.939   3.233
 3744TIP3   OH211195   3.425   6.614   1.563
 3744TIP3    H111196   3.332   6.602   1.582
 3744TIP3    H211197   3.467   6.538   1.603
 3745TIP3   OH211198   3.555   3.417   2.102
 3745TIP3    H111199   3.631   3.413   2.159
 3745TIP3    H211200   3.562   3.338   2.047
 3746TIP3   OH211201   1.012   6.299   3.504
 3746TIP3    H111202   0.943   6.244   3.467
 3746TIP3    H211203   0.988   6.388   3.478
 3747TIP3   OH211204   4.137   2.984   4.976
 3747TIP3    H111205   4.118   2.894   5.005
 3747TIP3    H211206   4.052   3.028   4.977
 3748TIP3   OH211207   6.919   5.843   5.456
 3748TIP3    H111208   6.976   5.919   5.470
 3748TIP3    H211209   6.895   5.813   5.543
 3749TIP3   OH211210   6.192   5.887   4.584
 3749TIP3    H111211   6.179   5.826   4.511
 3749TIP3    H211212   6.244   5.958   4.547
 3750TIP3   OH211213   5.990   2.548   0.755
 3750TIP3    H111214   6.016   2.469   0.709
 3750TIP3    H211215   5.956   2.516   0.839
 3751TIP3   OH211216   4.495   1.315   0.092
 3751TIP3    H111217   4.500   1.410   0.104
 3751TIP3    H211218   4.406   1.299   0.060
 3752TIP3   OH211219   6.870   0.550   2.444
 3752TIP3    H111220   6.889   0.463   2.480
 3752TIP3    H211221   6.789   0.538   2.394
 3753TIP3   OH211222   5.995   6.752   2.889
 3753TIP3    H111223   6.029   6.718   2.807
 3753TIP3    H211224   6.054   6.823   2.913
 3754TIP3   OH211225   2.824   3.193   1.125
 3754TIP3    H111226   2.758   3.136   1.164
 3754TIP3    H211227   2.822   3.272   1.180
 3755TIP3   OH211228   4.474   1.492   5.736
 3755TIP3    H111229   4.534   1.560   5.767
 3755TIP3    H211230   4.460   1.436   5.812
 3756TIP3   OH211231   5.010   4.616   0.174
 3756TIP3    H111232   4.940   4.631   0.110
 3756TIP3    H211233   4.982   4.539   0.223
 3757TIP3   OH211234   6.110   5.351   4.986
 3757TIP3    H111235   6.065   5.374   5.067
 3757TIP3    H211236   6.046   5.366   4.917
 3758TIP3   OH211237   1.921   5.778   4.335
 3758TIP3    H111238   1.900   5.801   4.425
 3758TIP3    H211239   1.980   5.847   4.305
 3759TIP3   OH211240   6.157   4.488   1.818
 3759TIP3    H111241   6.205   4.416   1.860
 3759TIP3    H211242   6.186   4.566   1.866
 3760TIP3   OH211243   1.538   2.995   3.772
 3760TIP3    H111244   1.531   3.059   3.702
 3760TIP3    H211245   1.549   3.047   3.852
 3761TIP3   OH211246   0.184   4.502   0.901
 3761TIP3    H111247   0.158   4.584   0.943
 3761TIP3    H211248   0.146   4.507   0.813
 3762TIP3   OH211249   0.213   3.832   2.699
 3762TIP3    H111250   0.249   3.744   2.702
 3762TIP3    H211251   0.169   3.837   2.614
 3763TIP3   OH211252   4.463   3.091   3.581
 3763TIP3    H111253   4.394   3.063   3.641
 3763TIP3    H211254   4.544   3.085   3.632
 3764TIP3   OH211255   0.526   4.358   0.842
 3764TIP3    H111256   0.483   4.401   0.768
 3764TIP3    H211257   0.616   4.347   0.813
 3765TIP3   OH211258   2.272   5.389   0.247
 3765TIP3    H111259   2.284   5.477   0.212
 3765TIP3    H211260   2.292   5.331   0.173
 3766TIP3   OH211261   3.581   1.939   1.515
 3766TIP3    H111262   3.654   2.002   1.518
 3766TIP3    H211263   3.620   1.859   1.479
 3767TIP3   OH211264   5.431   0.284   2.926
 3767TIP3    H111265   5.395   0.344   2.861
 3767TIP3    H211266   5.355   0.232   2.955
 3768TIP3   OH211267   2.489   4.303   1.194
 3768TIP3    H111268   2.469   4.216   1.230
 3768TIP3    H211269   2.405   4.348   1.192
 3769TIP3   OH211270   2.854   1.537   4.190
 3769TIP3    H111271   2.789   1.556   4.122
 3769TIP3    H211272   2.811   1.475   4.248
 3770TIP3   OH211273   2.279   5.088   4.726
 3770TIP3    H111274   2.236   5.003   4.731
 3770TIP3    H211275   2.369   5.071   4.752
 3771TIP3   OH211276   3.465   1.012   0.093
 3771TIP3    H111277   3.499   1.000   0.004
 3771TIP3    H211278   3.525   1.075   0.133
 3772TIP3   OH211279   4.228   3.498   0.081
 3772TIP3    H111280   4.287   3.569   0.107
 3772TIP3    H211281   4.160   3.541   0.031
 3773TIP3   OH211282   2.041   2.661   0.114
 3773TIP3    H111283   2.103   2.711   0.167
 3773TIP3    H211284   2.094   2.626   0.042
 3774TIP3   OH211285   4.252   6.021   2.203
 3774TIP3    H111286   4.315   5.995   2.270
 3774TIP3    H211287   4.268   5.960   2.131
 3775TIP3   OH211288   0.776   5.452   3.978
 3775TIP3    H111289   0.791   5.546   3.964
 3775TIP3    H211290   0.687   5.437   3.945
 3776TIP3   OH211291   4.127   0.413   5.634
 3776TIP3    H111292   4.192   0.459   5.581
 3776TIP3    H211293   4.045   0.460   5.617
 3777TIP3   OH211294   4.423   4.049   1.223
 3777TIP3    H111295   4.337   4.090   1.207
 3777TIP3    H211296   4.432   4.049   1.318
 3778TIP3   OH211297   6.788   5.646   5.261
 3778TIP3    H111298   6.804   5.558   5.295
 3778TIP3    H211299   6.850   5.702   5.308
 3779TIP3   OH211300   5.058   3.883   1.026
 3779TIP3    H111301   4.996   3.891   1.099
 3779TIP3    H211302   5.123   3.951   1.043
 3780TIP3   OH211303   5.335   0.488   4.136
 3780TIP3    H111304   5.299   0.574   4.115
 3780TIP3    H211305   5.373   0.499   4.223
 3781TIP3   OH211306   0.792   2.031   2.583
 3781TIP3    H111307   0.709   2.018   2.538
 3781TIP3    H211308   0.768   2.044   2.675
 3782TIP3   OH211309   6.929   6.361   4.758
 3782TIP3    H111310   7.024   6.360   4.745
 3782TIP3    H211311   6.894   6.392   4.675
 3783TIP3   OH211312   3.613   5.916   4.992
 3783TIP3    H111313   3.708   5.927   4.995
 3783TIP3    H211314   3.577   5.998   5.025
 3784TIP3   OH211315   3.426   4.650   1.881
 3784TIP3    H111316   3.433   4.678   1.790
 3784TIP3    H211317   3.383   4.564   1.876
 3785TIP3   OH211318   0.505   6.741   3.601
 3785TIP3    H111319   0.430   6.772   3.652
 3785TIP3    H211320   0.469   6.672   3.545
 3786TIP3   OH211321   4.388   5.241   0.682
 3786TIP3    H111322   4.344   5.212   0.763
 3786TIP3    H211323   4.324   5.299   0.640
 3787TIP3   OH211324   2.690   1.377   4.345
 3787TIP3    H111325   2.614   1.320   4.352
 3787TIP3    H211326   2.736   1.366   4.428
 3788TIP3   OH211327   3.313   1.932   0.052
 3788TIP3    H111328   3.355   1.849   0.031
 3788TIP3    H211329   3.382   1.985   0.092
 3789TIP3   OH211330   3.901   5.421   1.033
 3789TIP3    H111331   3.817   5.398   0.994
 3789TIP3    H211332   3.883   5.501   1.084
 3790TIP3   OH211333   6.763   2.695   0.444
 3790TIP3    H111334   6.708   2.762   0.486
 3790TIP3    H211335   6.712   2.614   0.452
 3791TIP3   OH211336   2.251   6.082   3.340
 3791TIP3    H111337   2.198   6.023   3.393
 3791TIP3    H211338   2.319   6.114   3.400
 3792TIP3   OH211339   2.882   6.386   4.537
 3792TIP3    H111340   2.808   6.390   4.477
 3792TIP3    H211341   2.951   6.435   4.495
 3793TIP3   OH211342   0.717   2.452   0.182
 3793TIP3    H111343   0.704   2.457   0.088
 3793TIP3    H211344   0.759   2.534   0.206
 3794TIP3   OH211345   5.235   1.749   0.142
 3794TIP3    H111346   5.216   1.716   0.230
 3794TIP3    H211347   5.327   1.727   0.128
 3795TIP3   OH211348   0.054   3.021   0.568
 3795TIP3    H111349  -0.020   2.966   0.596
 3795TIP3    H211350   0.020   3.111   0.575
 3796TIP3   OH211351   5.602   0.075   2.108
 3796TIP3    H111352   5.531   0.121   2.153
 3796TIP3    H211353   5.682   0.103   2.154
 3797TIP3   OH211354   4.270   6.584   0.873
 3797TIP3    H111355   4.273   6.656   0.936
 3797TIP3    H211356   4.270   6.628   0.787
 3798TIP3   OH211357   1.756   4.664   0.918
 3798TIP3    H111358   1.672   4.647   0.961
 3798TIP3    H211359   1.795   4.734   0.971
 3799TIP3   OH211360   2.742   2.916   2.625
 3799TIP3    H111361   2.782   2.847   2.572
 3799TIP3    H211362   2.806   2.988   2.621
 3800TIP3   OH211363   1.872   0.395   2.653
 3800TIP3    H111364   1.934   0.468   2.655
 3800TIP3    H211365   1.796   0.430   2.607
 3801TIP3   OH211366   5.268   5.751   2.913
 3801TIP3    H111367   5.277   5.671   2.966
 3801TIP3    H211368   5.208   5.726   2.843
 3802TIP3   OH211369   6.951   5.302   2.961
 3802TIP3    H111370   6.870   5.323   2.914
 3802TIP3    H211371   6.931   5.321   3.053
 3803TIP3   OH211372   2.028   4.612   1.371
 3803TIP3    H111373   2.004   4.625   1.463
 3803TIP3    H211374   1.968   4.545   1.339
 3804TIP3   OH211375   4.712   2.076   4.632
 3804TIP3    H111376   4.768   2.094   4.707
 3804TIP3    H211377   4.753   2.001   4.588
 3805TIP3   OH211378   3.897   6.642   2.696
 3805TIP3    H111379   3.802   6.650   2.694
 3805TIP3    H211380   3.929   6.728   2.667
 3806TIP3   OH211381   6.853   3.204   1.835
 3806TIP3    H111382   6.759   3.198   1.856
 3806TIP3    H211383   6.865   3.295   1.806
 3807TIP3   OH211384   4.144   6.348   5.105
 3807TIP3    H111385   4.147   6.407   5.030
 3807TIP3    H211386   4.136   6.405   5.181
 3808TIP3   OH211387   5.173   0.966   1.677
 3808TIP3    H111388   5.210   0.880   1.693
 3808TIP3    H211389   5.234   1.007   1.615
 3809TIP3   OH211390   3.317   2.544   5.548
 3809TIP3    H111391   3.356   2.526   5.633
 3809TIP3    H211392   3.382   2.596   5.502
 3810TIP3   OH211393   3.099   5.691   3.858
 3810TIP3    H111394   3.013   5.665   3.823
 3810TIP3    H211395   3.161   5.633   3.814
 3811TIP3   OH211396   3.358   5.774   2.741
 3811TIP3    H111397   3.449   5.779   2.711
 3811TIP3    H211398   3.312   5.839   2.689
 3812TIP3   OH211399   2.223   1.031   2.734
 3812TIP3    H111400   2.174   1.099   2.687
 3812TIP3    H211401   2.310   1.067   2.746
 3813TIP3   OH211402   0.996   1.184   2.644
 3813TIP3    H111403   1.062   1.235   2.597
 3813TIP3    H211404   1.025   1.187   2.735
 3814TIP3   OH211405   6.830   1.113   0.550
 3814TIP3    H111406   6.742   1.142   0.576
 3814TIP3    H211407   6.883   1.192   0.554
 3815TIP3   OH211408   5.523   0.282   2.462
 3815TIP3    H111409   5.589   0.331   2.511
 3815TIP3    H211410   5.501   0.208   2.519
 3816TIP3   OH211411   4.302   0.104   5.626
 3816TIP3    H111412   4.365   0.045   5.668
 3816TIP3    H211413   4.233   0.116   5.692
 3817TIP3   OH211414   0.277   4.505   4.160
 3817TIP3    H111415   0.187   4.535   4.174
 3817TIP3    H211416   0.315   4.570   4.101
 3818TIP3   OH211417   3.955   6.442   0.505
 3818TIP3    H111418   3.882   6.484   0.551
 3818TIP3    H211419   3.916   6.407   0.425
 3819TIP3   OH211420   2.704   5.687   0.963
 3819TIP3    H111421   2.634   5.621   0.964
 3819TIP3    H211422   2.780   5.640   0.929
 3820TIP3   OH211423   1.598   5.768   0.731
 3820TIP3    H111424   1.531   5.712   0.692
 3820TIP3    H211425   1.592   5.751   0.825
 3821TIP3   OH211426   2.745   0.045   2.349
 3821TIP3    H111427   2.837   0.058   2.323
 3821TIP3    H211428   2.748   0.038   2.444
 3822TIP3   OH211429   3.496   5.318   3.689
 3822TIP3    H111430   3.526   5.362   3.769
 3822TIP3    H211431   3.565   5.335   3.625
 3823TIP3   OH211432   3.031   4.687   2.085
 3823TIP3    H111433   3.035   4.653   2.174
 3823TIP3    H211434   2.986   4.618   2.036
 3824TIP3   OH211435   1.959   6.614   3.711
 3824TIP3    H111436   2.028   6.593   3.775
 3824TIP3    H211437   1.927   6.528   3.682
 3825TIP3   OH211438   4.748   2.653   2.352
 3825TIP3    H111439   4.661   2.613   2.340
 3825TIP3    H211440   4.793   2.593   2.412
 3826TIP3   OH211441   4.118   2.662   5.019
 3826TIP3    H111442   4.209   2.692   5.017
 3826TIP3    H211443   4.114   2.593   4.953
 3827TIP3   OH211444   0.372   6.692   0.590
 3827TIP3    H111445   0.463   6.712   0.569
 3827TIP3    H211446   0.330   6.681   0.505
 3828TIP3   OH211447   6.037   1.958   0.790
 3828TIP3    H111448   6.059   1.991   0.703
 3828TIP3    H211449   6.055   2.031   0.850
 3829TIP3   OH211450   7.093   2.709   0.346
 3829TIP3    H111451   7.024   2.733   0.284
 3829TIP3    H211452   7.060   2.737   0.431
 3830TIP3   OH211453   3.508   5.957   0.477
 3830TIP3    H111454   3.541   6.043   0.450
 3830TIP3    H211455   3.578   5.920   0.531
 3831TIP3   OH211456   2.497   1.868   0.464
 3831TIP3    H111457   2.433   1.938   0.468
 3831TIP3    H211458   2.581   1.912   0.477
 3832TIP3   OH211459   1.165   4.273   4.626
 3832TIP3    H111460   1.259   4.285   4.611
 3832TIP3    H211461   1.158   4.250   4.718
 3833TIP3   OH211462   5.778   5.890   5.260
 3833TIP3    H111463   5.781   5.806   5.305
 3833TIP3    H211464   5.691   5.925   5.277
 3834TIP3   OH211465   7.047   4.949   1.338
 3834TIP3    H111466   6.952   4.940   1.335
 3834TIP3    H211467   7.078   4.869   1.381
 3835TIP3   OH211468   6.851   1.404   1.670
 3835TIP3    H111469   6.914   1.476   1.666
 3835TIP3    H211470   6.788   1.431   1.737
 3836TIP3   OH211471   5.197   5.229   5.120
 3836TIP3    H111472   5.106   5.257   5.124
 3836TIP3    H211473   5.194   5.145   5.074
 3837TIP3   OH211474   0.049   4.934   5.548
 3837TIP3    H111475   0.135   4.955   5.511
 3837TIP3    H211476   0.027   4.849   5.510
 3838TIP3   OH211477   5.587   3.014   2.936
 3838TIP3    H111478   5.589   3.010   3.031
 3838TIP3    H211479   5.502   3.055   2.915
 3839TIP3   OH211480   6.710   4.101   4.086
 3839TIP3    H111481   6.624   4.108   4.044
 3839TIP3    H211482   6.691   4.098   4.180
 3840TIP3   OH211483   7.114   0.847   1.328
 3840TIP3    H111484   7.070   0.789   1.391
 3840TIP3    H211485   7.186   0.794   1.294
 3841TIP3   OH211486   1.901   0.618   5.614
 3841TIP3    H111487   1.880   0.525   5.612
 3841TIP3    H211488   1.824   0.660   5.576
 3842TIP3   OH211489   5.530   4.405   5.749
 3842TIP3    H111490   5.536   4.469   5.678
 3842TIP3    H211491   5.438   4.376   5.747
 3843TIP3   OH211492   4.134   2.931   3.090
 3843TIP3    H111493   4.120   3.025   3.079
 3843TIP3    H211494   4.123   2.916   3.184
 3844TIP3   OH211495   6.859   5.049   4.057
 3844TIP3    H111496   6.791   5.113   4.040
 3844TIP3    H211497   6.900   5.079   4.138
 3845TIP3   OH211498   5.442   1.803   5.475
 3845TIP3    H111499   5.377   1.739   5.447
 3845TIP3    H211500   5.527   1.763   5.454
 3846TIP3   OH211501   0.604   2.277   4.067
 3846TIP3    H111502   0.585   2.347   4.129
 3846TIP3    H211503   0.517   2.244   4.043
 3847TIP3   OH211504   2.733   6.756   4.444
 3847TIP3    H111505   2.801   6.728   4.383
 3847TIP3    H211506   2.698   6.674   4.480
 3848TIP3   OH211507   5.476   3.844   2.946
 3848TIP3    H111508   5.499   3.752   2.927
 3848TIP3    H211509   5.382   3.841   2.963
 3849TIP3   OH211510   4.486   6.044   3.596
 3849TIP3    H111511   4.497   5.966   3.650
 3849TIP3    H211512   4.576   6.076   3.583
 3850TIP3   OH211513   3.438   5.137   2.363
 3850TIP3    H111514   3.415   5.186   2.442
 3850TIP3    H211515   3.492   5.064   2.396
 3851TIP3   OH211516   0.637   0.147   4.376
 3851TIP3    H111517   0.704   0.117   4.438
 3851TIP3    H211518   0.614   0.069   4.325
 3852TIP3   OH211519   3.444   0.967   1.679
 3852TIP3    H111520   3.429   1.010   1.596
 3852TIP3    H211521   3.424   0.875   1.663
 3853TIP3   OH211522   1.027   4.529   1.513
 3853TIP3    H111523   0.948   4.532   1.459
 3853TIP3    H211524   1.057   4.619   1.517
 3854TIP3   OH211525   2.338   5.597   5.586
 3854TIP3    H111526   2.271   5.529   5.583
 3854TIP3    H211527   2.295   5.675   5.552
 3855TIP3   OH211528   4.586   3.269   5.318
 3855TIP3    H111529   4.521   3.252   5.386
 3855TIP3    H211530   4.576   3.197   5.256
 3856TIP3   OH211531   6.455   4.449   5.220
 3856TIP3    H111532   6.390   4.500   5.268
 3856TIP3    H211533   6.472   4.499   5.141
 3857TIP3   OH211534   6.340   6.736   3.558
 3857TIP3    H111535   6.413   6.683   3.527
 3857TIP3    H211536   6.327   6.709   3.649
 3858TIP3   OH211537   0.788   1.115   2.272
 3858TIP3    H111538   0.749   1.103   2.359
 3858TIP3    H211539   0.809   1.209   2.269
 3859TIP3   OH211540   6.192   3.919   5.575
 3859TIP3    H111541   6.161   3.992   5.629
 3859TIP3    H211542   6.150   3.933   5.490
 3860TIP3   OH211543   4.289   3.922   4.213
 3860TIP3    H111544   4.302   3.992   4.277
 3860TIP3    H211545   4.330   3.846   4.253
 3861TIP3   OH211546   1.372   2.154   3.895
 3861TIP3    H111547   1.421   2.187   3.969
 3861TIP3    H211548   1.287   2.197   3.900
 3862TIP3   OH211549   6.222   4.745   4.374
 3862TIP3    H111550   6.140   4.744   4.324
 3862TIP3    H211551   6.277   4.681   4.329
 3863TIP3   OH211552   0.263   0.210   5.669
 3863TIP3    H111553   0.181   0.260   5.669
 3863TIP3    H211554   0.329   0.271   5.703
 3864TIP3   OH211555   5.227   3.280   4.625
 3864TIP3    H111556   5.255   3.368   4.599
 3864TIP3    H211557   5.294   3.250   4.686
 3865TIP3   OH211558   0.407   3.788   3.167
 3865TIP3    H111559   0.477   3.774   3.231
 3865TIP3    H211560   0.394   3.883   3.167
 3866TIP3   OH211561   6.040   3.187   2.289
 3866TIP3    H111562   6.079   3.115   2.240
 3866TIP3    H211563   5.964   3.213   2.237
 3867TIP3   OH211564   4.473   3.903   4.581
 3867TIP3    H111565   4.383   3.930   4.599
 3867TIP3    H211566   4.508   3.970   4.523
 3868TIP3   OH211567   4.710   4.088   3.848
 3868TIP3    H111568   4.617   4.107   3.832
 3868TIP3    H211569   4.723   4.001   3.810
 3869TIP3   OH211570   3.306   6.453   0.364
 3869TIP3    H111571   3.378   6.448   0.428
 3869TIP3    H211572   3.240   6.508   0.408
 3870TIP3   OH211573   1.751   2.407   1.439
 3870TIP3    H111574   1.728   2.339   1.376
 3870TIP3    H211575   1.666   2.437   1.472
 3871TIP3   OH211576   4.772   2.220   0.184
 3871TIP3    H111577   4.708   2.166   0.138
 3871TIP3    H211578   4.815   2.159   0.245
 3872TIP3   OH211579   5.290   1.139   1.463
 3872TIP3    H111580   5.256   1.141   1.373
 3872TIP3    H211581   5.385   1.143   1.453
 3873TIP3   OH211582   5.959   1.261   4.895
 3873TIP3    H111583   5.964   1.209   4.814
 3873TIP3    H211584   5.901   1.333   4.873
 3874TIP3   OH211585   1.107   2.944   3.619
 3874TIP3    H111586   1.107   2.883   3.545
 3874TIP3    H211587   1.127   3.029   3.580
 3875TIP3   OH211588   1.474   6.334   3.580
 3875TIP3    H111589   1.404   6.292   3.530
 3875TIP3    H211590   1.452   6.314   3.672
 3876TIP3   OH211591   1.452   6.033   3.655
 3876TIP3    H111592   1.407   6.072   3.580
 3876TIP3    H211593   1.385   5.984   3.702
 3877TIP3   OH211594   2.019   6.230   2.162
 3877TIP3    H111595   2.068   6.270   2.234
 3877TIP3    H211596   2.027   6.136   2.177
 3878TIP3   OH211597   3.314   0.515   2.270
 3878TIP3    H111598   3.290   0.596   2.226
 3878TIP3    H211599   3.249   0.451   2.242
 3879TIP3   OH211600   1.317   4.514   5.614
 3879TIP3    H111601   1.278   4.492   5.529
 3879TIP3    H211602   1.318   4.431   5.661
 3880TIP3   OH211603   5.702   4.867   0.435
 3880TIP3    H111604   5.607   4.858   0.439
 3880TIP3    H211605   5.718   4.923   0.359
 3881TIP3   OH211606   2.225   0.792   4.350
 3881TIP3    H111607   2.214   0.741   4.431
 3881TIP3    H211608   2.314   0.826   4.356
 3882TIP3   OH211609   6.561   6.033   0.083
 3882TIP3    H111610   6.606   6.118   0.083
 3882TIP3    H211611   6.631   5.968   0.085
 3883TIP3   OH211612   2.811   0.239   0.610
 3883TIP3    H111613   2.723   0.214   0.638
 3883TIP3    H211614   2.797   0.281   0.525
 3884TIP3   OH211615   4.922   2.084   3.140
 3884TIP3    H111616   4.855   2.095   3.072
 3884TIP3    H211617   4.936   2.172   3.174
 3885TIP3   OH211618   3.118   6.536   4.500
 3885TIP3    H111619   3.169   6.582   4.433
 3885TIP3    H211620   3.181   6.477   4.542
 3886TIP3   OH211621   5.146   0.609   0.305
 3886TIP3    H111622   5.227   0.608   0.356
 3886TIP3    H211623   5.137   0.519   0.273
 3887TIP3   OH211624   3.002   3.372   4.250
 3887TIP3    H111625   3.086   3.367   4.205
 3887TIP3    H211626   3.008   3.307   4.320
 3888TIP3   OH211627   2.369   4.447   3.646
 3888TIP3    H111628   2.320   4.377   3.604
 3888TIP3    H211629   2.430   4.478   3.579
 3889TIP3   OH211630   1.978   2.083   3.341
 3889TIP3    H111631   1.995   2.103   3.249
 3889TIP3    H211632   2.064   2.082   3.382
 3890TIP3   OH211633   0.062   1.122   4.613
 3890TIP3    H111634   0.127   1.156   4.675
 3890TIP3    H211635   0.060   1.187   4.543
 3891TIP3   OH211636   3.988   5.810   3.789
 3891TIP3    H111637   4.078   5.782   3.808
 3891TIP3    H211638   3.995   5.859   3.707
 3892TIP3   OH211639   6.542   6.796   0.930
 3892TIP3    H111640   6.600   6.734   0.885
 3892TIP3    H211641   6.578   6.882   0.908
 3893TIP3   OH211642   7.217   6.299   1.580
 3893TIP3    H111643   7.267   6.366   1.626
 3893TIP3    H211644   7.143   6.346   1.542
 3894TIP3   OH211645   3.145   3.797   2.565
 3894TIP3    H111646   3.142   3.701   2.564
 3894TIP3    H211647   3.222   3.819   2.513
 3895TIP3   OH211648   5.484   1.143   4.334
 3895TIP3    H111649   5.559   1.099   4.374
 3895TIP3    H211650   5.413   1.133   4.397
 3896TIP3   OH211651   6.291   4.546   0.265
 3896TIP3    H111652   6.288   4.552   0.169
 3896TIP3    H211653   6.213   4.594   0.294
 3897TIP3   OH211654   0.668   5.911   4.712
 3897TIP3    H111655   0.696   5.923   4.802
 3897TIP3    H211656   0.630   5.823   4.710
 3898TIP3   OH211657   5.045   5.054   4.126
 3898TIP3    H111658   5.111   4.996   4.162
 3898TIP3    H211659   5.066   5.140   4.162
 3899TIP3   OH211660   5.945   0.575   0.969
 3899TIP3    H111661   5.974   0.515   1.038
 3899TIP3    H211662   5.944   0.661   1.011
 3900TIP3   OH211663   6.140   1.918   5.768
 3900TIP3    H111664   6.167   1.964   5.848
 3900TIP3    H211665   6.200   1.950   5.700
 3901TIP3   OH211666   0.767   2.760   1.554
 3901TIP3    H111667   0.826   2.764   1.629
 3901TIP3    H211668   0.797   2.684   1.504
 3902TIP3   OH211669   4.003   5.135   5.183
 3902TIP3    H111670   3.940   5.063   5.175
 3902TIP3    H211671   3.951   5.214   5.172
 3903TIP3   OH211672   2.380   4.050   2.352
 3903TIP3    H111673   2.471   4.058   2.379
 3903TIP3    H211674   2.333   4.021   2.430
 3904TIP3   OH211675   6.866   2.433   5.159
 3904TIP3    H111676   6.915   2.486   5.222
 3904TIP3    H211677   6.800   2.493   5.122
 3905TIP3   OH211678   2.238   2.398   4.690
 3905TIP3    H111679   2.183   2.383   4.613
 3905TIP3    H211680   2.219   2.489   4.715
 3906TIP3   OH211681   5.127   4.297   4.268
 3906TIP3    H111682   5.048   4.244   4.268
 3906TIP3    H211683   5.191   4.245   4.219
 3907TIP3   OH211684   7.162   1.111   3.888
 3907TIP3    H111685   7.125   1.124   3.975
 3907TIP3    H211686   7.249   1.151   3.893
 3908TIP3   OH211687   3.736   4.069   4.193
 3908TIP3    H111688   3.820   4.067   4.239
 3908TIP3    H211689   3.677   4.116   4.252
 3909TIP3   OH211690   2.658   4.595   2.023
 3909TIP3    H111691   2.660   4.660   2.093
 3909TIP3    H211692   2.702   4.639   1.949
 3910TIP3   OH211693   3.212   2.291   2.009
 3910TIP3    H111694   3.184   2.383   2.009
 3910TIP3    H211695   3.188   2.258   1.923
 3911TIP3   OH211696   6.281   3.156   3.446
 3911TIP3    H111697   6.352   3.220   3.458
 3911TIP3    H211698   6.326   3.073   3.433
 3912TIP3   OH211699   2.538   0.272   2.851
 3912TIP3    H111700   2.601   0.260   2.780
 3912TIP3    H211701   2.513   0.184   2.878
 3913TIP3   OH211702   1.645   5.654   0.998
 3913TIP3    H111703   1.739   5.666   0.998
 3913TIP3    H211704   1.614   5.702   1.075
 3914TIP3   OH211705   5.154   3.328   5.141
 3914TIP3    H111706   5.089   3.267   5.106
 3914TIP3    H211707   5.113   3.415   5.128
 3915TIP3   OH211708   1.759   3.197   1.544
 3915TIP3    H111709   1.756   3.272   1.602
 3915TIP3    H211710   1.773   3.122   1.603
 3916TIP3   OH211711   3.064   2.612   0.113
 3916TIP3    H111712   3.013   2.684   0.076
 3916TIP3    H211713   3.141   2.654   0.150
 3917TIP3   OH211714   3.328   1.041   4.034
 3917TIP3    H111715   3.242   1.002   4.051
 3917TIP3    H211716   3.350   1.012   3.945
 3918TIP3   OH211717   2.960   3.364   0.058
 3918TIP3    H111718   2.973   3.271   0.080
 3918TIP3    H211719   2.867   3.380   0.073
 3919TIP3   OH211720   4.110   1.681   3.414
 3919TIP3    H111721   4.035   1.687   3.354
 3919TIP3    H211722   4.122   1.770   3.446
 3920TIP3   OH211723   5.551   6.760   5.096
 3920TIP3    H111724   5.527   6.751   5.188
 3920TIP3    H211725   5.564   6.670   5.065
 3921TIP3   OH211726   3.559   3.981   0.947
 3921TIP3    H111727   3.523   3.921   1.012
 3921TIP3    H211728   3.563   4.065   0.992
 3922TIP3   OH211729   1.838   1.266   0.823
 3922TIP3    H111730   1.886   1.321   0.761
 3922TIP3    H211731   1.878   1.287   0.908
 3923TIP3   OH211732   3.542   1.443   1.648
 3923TIP3    H111733   3.498   1.528   1.654
 3923TIP3    H211734   3.516   1.409   1.563
 3924TIP3   OH211735   0.037   6.389   0.057
 3924TIP3    H111736   0.123   6.426   0.038
 3924TIP3    H211737   0.052   6.294   0.062
 3925TIP3   OH211738   6.659   6.752   1.466
 3925TIP3    H111739   6.719   6.718   1.400
 3925TIP3    H211740   6.574   6.755   1.423
 3926TIP3   OH211741   3.568   2.580   5.160
 3926TIP3    H111742   3.475   2.591   5.181
 3926TIP3    H211743   3.603   2.528   5.232
 3927TIP3   OH211744   3.892   3.192   0.574
 3927TIP3    H111745   3.892   3.101   0.543
 3927TIP3    H211746   3.852   3.242   0.503
 3928TIP3   OH211747   5.335   4.915   2.904
 3928TIP3    H111748   5.303   4.850   2.967
 3928TIP3    H211749   5.312   4.878   2.819
 3929TIP3   OH211750   3.261   3.872   2.075
 3929TIP3    H111751   3.312   3.876   1.994
 3929TIP3    H211752   3.275   3.782   2.107
 3930TIP3   OH211753   4.191   0.715   1.922
 3930TIP3    H111754   4.128   0.673   1.980
 3930TIP3    H211755   4.268   0.658   1.924
 3931TIP3   OH211756   1.535   4.219   1.346
 3931TIP3    H111757   1.612   4.165   1.328
 3931TIP3    H211758   1.511   4.197   1.436
 3932TIP3   OH211759   5.746   1.331   5.749
 3932TIP3    H111760   5.785   1.337   5.836
 3932TIP3    H211761   5.716   1.420   5.729
 3933TIP3   OH211762   5.638   5.079   3.078
 3933TIP3    H111763   5.663   5.079   2.986
 3933TIP3    H211764   5.671   4.996   3.112
 3934TIP3   OH211765   0.667   1.109   0.931
 3934TIP3    H111766   0.635   1.078   0.846
 3934TIP3    H211767   0.707   1.193   0.913
 3935TIP3   OH211768   5.325   0.971   2.998
 3935TIP3    H111769   5.266   0.896   3.012
 3935TIP3    H211770   5.311   0.996   2.906
 3936TIP3   OH211771   6.237   4.026   4.876
 3936TIP3    H111772   6.266   4.061   4.792
 3936TIP3    H211773   6.213   3.935   4.858
 3937TIP3   OH211774   6.651   3.022   1.531
 3937TIP3    H111775   6.658   3.045   1.438
 3937TIP3    H211776   6.739   3.035   1.566
 3938TIP3   OH211777   2.106   2.322   4.430
 3938TIP3    H111778   2.131   2.313   4.339
 3938TIP3    H211779   2.011   2.329   4.429
 3939TIP3   OH211780   0.980   6.099   2.043
 3939TIP3    H111781   0.979   6.013   2.086
 3939TIP3    H211782   0.920   6.152   2.096
 3940TIP3   OH211783   0.416   1.207   0.074
 3940TIP3    H111784   0.426   1.127   0.022
 3940TIP3    H211785   0.415   1.178   0.165
 3941TIP3   OH211786   5.450   3.506   5.557
 3941TIP3    H111787   5.463   3.508   5.462
 3941TIP3    H211788   5.524   3.456   5.591
 3942TIP3   OH211789   0.439   2.509   2.367
 3942TIP3    H111790   0.497   2.541   2.436
 3942TIP3    H211791   0.452   2.414   2.368
 3943TIP3   OH211792   5.292   2.227   4.422
 3943TIP3    H111793   5.362   2.197   4.364
 3943TIP3    H211794   5.281   2.155   4.485
 3944TIP3   OH211795   4.292   5.580   5.795
 3944TIP3    H111796   4.197   5.569   5.799
 3944TIP3    H211797   4.305   5.665   5.753
 3945TIP3   OH211798   4.615   0.600   5.492
 3945TIP3    H111799   4.542   0.628   5.438
 3945TIP3    H211800   4.693   0.627   5.444
 3946TIP3   OH211801   1.218   4.101   0.112
 3946TIP3    H111802   1.154   4.145   0.057
 3946TIP3    H211803   1.303   4.124   0.073
 3947TIP3   OH211804   0.164   5.958   0.276
 3947TIP3    H111805   0.120   5.874   0.291
 3947TIP3    H211806   0.224   5.966   0.350
 3948TIP3   OH211807   2.066   3.396   3.614
 3948TIP3    H111808   2.015   3.429   3.689
 3948TIP3    H211809   2.065   3.468   3.551
 3949TIP3   OH211810   0.347   6.760   1.295
 3949TIP3    H111811   0.408   6.821   1.335
 3949TIP3    H211812   0.390   6.675   1.302
 3950TIP3   OH211813   3.331   0.630   3.115
 3950TIP3    H111814   3.289   0.544   3.126
 3950TIP3    H211815   3.272   0.677   3.056
 3951TIP3   OH211816   4.984   1.783   0.335
 3951TIP3    H111817   4.893   1.809   0.350
 3951TIP3    H211818   5.010   1.831   0.256
 3952TIP3   OH211819   3.536   5.017   3.956
 3952TIP3    H111820   3.543   5.036   3.863
 3952TIP3    H211821   3.587   4.936   3.968
 3953TIP3   OH211822   5.101   0.100   2.079
 3953TIP3    H111823   5.151   0.173   2.041
 3953TIP3    H211824   5.110   0.113   2.174
 3954TIP3   OH211825   6.940   5.596   3.182
 3954TIP3    H111826   6.935   5.597   3.087
 3954TIP3    H211827   6.891   5.518   3.208
 3955TIP3   OH211828   2.680   6.427   4.374
 3955TIP3    H111829   2.600   6.471   4.402
 3955TIP3    H211830   2.661   6.396   4.286
 3956TIP3   OH211831   2.111   3.688   1.585
 3956TIP3    H111832   2.155   3.703   1.502
 3956TIP3    H211833   2.167   3.730   1.650
 3957TIP3   OH211834   5.643   1.758   3.137
 3957TIP3    H111835   5.627   1.735   3.228
 3957TIP3    H211836   5.677   1.847   3.140
 3958TIP3   OH211837   1.355   1.380   1.762
 3958TIP3    H111838   1.336   1.374   1.855
 3958TIP3    H211839   1.444   1.345   1.753
 3959TIP3   OH211840   0.191   0.838   3.853
 3959TIP3    H111841   0.104   0.836   3.812
 3959TIP3    H211842   0.235   0.913   3.814
 3960TIP3   OH211843   2.824   2.260   3.333
 3960TIP3    H111844   2.739   2.247   3.290
 3960TIP3    H211845   2.808   2.326   3.400
 3961TIP3   OH211846   1.603   4.226   2.989
 3961TIP3    H111847   1.586   4.262   3.076
 3961TIP3    H211848   1.516   4.201   2.956
 3962TIP3   OH211849   3.498   1.621   5.608
 3962TIP3    H111850   3.514   1.685   5.538
 3962TIP3    H211851   3.579   1.569   5.611
 3963TIP3   OH211852   2.850   3.953   5.222
 3963TIP3    H111853   2.836   3.909   5.139
 3963TIP3    H211854   2.917   3.901   5.267
 3964TIP3   OH211855   3.178   1.639   3.832
 3964TIP3    H111856   3.155   1.622   3.923
 3964TIP3    H211857   3.133   1.571   3.782
 3965TIP3   OH211858   6.382   1.683   3.235
 3965TIP3    H111859   6.333   1.605   3.209
 3965TIP3    H211860   6.434   1.705   3.158
 3966TIP3   OH211861   6.771   4.209   5.441
 3966TIP3    H111862   6.734   4.270   5.378
 3966TIP3    H211863   6.841   4.164   5.394
 3967TIP3   OH211864   4.882   0.909   0.753
 3967TIP3    H111865   4.910   0.972   0.686
 3967TIP3    H211866   4.810   0.953   0.798
 3968TIP3   OH211867   7.176   6.179   0.572
 3968TIP3    H111868   7.256   6.232   0.562
 3968TIP3    H211869   7.112   6.240   0.610
 3969TIP3   OH211870   1.640   1.367   1.706
 3969TIP3    H111871   1.705   1.434   1.729
 3969TIP3    H211872   1.606   1.395   1.622
 3970TIP3   OH211873   2.322   1.219   3.174
 3970TIP3    H111874   2.261   1.195   3.105
 3970TIP3    H211875   2.279   1.290   3.221
 3971TIP3   OH211876   4.073   6.508   2.183
 3971TIP3    H111877   4.033   6.510   2.270
 3971TIP3    H211878   4.105   6.418   2.174
 3972TIP3   OH211879   5.590   6.327   3.010
 3972TIP3    H111880   5.619   6.296   3.095
 3972TIP3    H211881   5.542   6.253   2.972
 3973TIP3   OH211882   1.078   1.214   1.677
 3973TIP3    H111883   1.091   1.150   1.747
 3973TIP3    H211884   0.992   1.252   1.696
 3974TIP3   OH211885   4.839   0.346   2.897
 3974TIP3    H111886   4.791   0.361   2.979
 3974TIP3    H211887   4.770   0.336   2.831
 3975TIP3   OH211888   5.952   5.265   2.941
 3975TIP3    H111889   5.869   5.312   2.955
 3975TIP3    H211890   6.014   5.334   2.918
 3976TIP3   OH211891   3.868   4.172   1.988
 3976TIP3    H111892   3.877   4.084   2.024
 3976TIP3    H211893   3.783   4.171   1.943
 3977TIP3   OH211894   2.011   1.513   0.033
 3977TIP3    H111895   1.961   1.479   0.107
 3977TIP3    H211896   1.954   1.497  -0.043
 3978TIP3   OH211897   6.465   1.724   4.671
 3978TIP3    H111898   6.427   1.638   4.657
 3978TIP3    H211899   6.543   1.726   4.614
 3979TIP3   OH211900   5.575   2.084   3.459
 3979TIP3    H111901   5.576   2.041   3.373
 3979TIP3    H211902   5.593   2.014   3.521
 3980TIP3   OH211903   1.696   1.499   2.029
 3980TIP3    H111904   1.771   1.445   2.004
 3980TIP3    H211905   1.619   1.444   2.009
 3981TIP3   OH211906   1.799   1.027   0.130
 3981TIP3    H111907   1.854   1.084   0.076
 3981TIP3    H211908   1.821   1.051   0.220
 3982TIP3   OH211909   0.175   4.341   4.647
 3982TIP3    H111910   0.243   4.287   4.607
 3982TIP3    H211911   0.197   4.342   4.740
 3983TIP3   OH211912   3.364   5.519   0.327
 3983TIP3    H111913   3.409   5.548   0.407
 3983TIP3    H211914   3.416   5.556   0.256
 3984TIP3   OH211915   0.793   2.633   2.748
 3984TIP3    H111916   0.777   2.550   2.702
 3984TIP3    H211917   0.741   2.626   2.828
 3985TIP3   OH211918   4.666   1.223   2.136
 3985TIP3    H111919   4.727   1.258   2.071
 3985TIP3    H211920   4.583   1.268   2.118
 3986TIP3   OH211921   6.746   3.519   4.029
 3986TIP3    H111922   6.808   3.484   3.964
 3986TIP3    H211923   6.802   3.560   4.095
 3987TIP3   OH211924   4.223   1.772   5.294
 3987TIP3    H111925   4.189   1.861   5.305
 3987TIP3    H211926   4.315   1.779   5.320
 3988TIP3   OH211927   5.421   0.648   5.732
 3988TIP3    H111928   5.380   0.564   5.713
 3988TIP3    H211929   5.485   0.660   5.661
 3989TIP3   OH211930   0.463   5.172   5.285
 3989TIP3    H111931   0.471   5.129   5.370
 3989TIP3    H211932   0.545   5.151   5.239
 3990TIP3   OH211933   5.698   2.901   4.053
 3990TIP3    H111934   5.754   2.832   4.086
 3990TIP3    H211935   5.755   2.977   4.045
 3991TIP3   OH211936   1.573   6.530   2.565
 3991TIP3    H111937   1.577   6.440   2.598
 3991TIP3    H211938   1.572   6.585   2.643
 3992TIP3   OH211939   5.394   0.210   5.227
 3992TIP3    H111940   5.364   0.285   5.174
 3992TIP3    H211941   5.433   0.150   5.163
 3993TIP3   OH211942   0.370   3.302   2.522
 3993TIP3    H111943   0.405   3.213   2.536
 3993TIP3    H211944   0.275   3.291   2.522
 3994TIP3   OH211945   5.541   3.053   4.666
 3994TIP3    H111946   5.459   3.006   4.653
 3994TIP3    H211947   5.602   2.986   4.698
 3995TIP3   OH211948   1.442   6.067   2.898
 3995TIP3    H111949   1.390   6.120   2.959
 3995TIP3    H211950   1.518   6.039   2.950
 3996TIP3   OH211951   6.621   5.333   1.041
 3996TIP3    H111952   6.528   5.319   1.061
 3996TIP3    H211953   6.622   5.406   0.979
 3997TIP3   OH211954   5.160   6.071   1.525
 3997TIP3    H111955   5.072   6.105   1.541
 3997TIP3    H211956   5.216   6.118   1.587
 3998TIP3   OH211957   4.935   1.164   4.951
 3998TIP3    H111958   4.842   1.143   4.964
 3998TIP3    H211959   4.977   1.078   4.947
 3999TIP3   OH211960   2.685   2.554   3.265
 3999TIP3    H111961   2.627   2.592   3.331
 3999TIP3    H211962   2.663   2.461   3.263
 4000TIP3   OH211963   6.119   6.510   5.778
 4000TIP3    H111964   6.068   6.437   5.814
 4000TIP3    H211965   6.129   6.490   5.685
 4001TIP3   OH211966   6.436   0.445   0.089
 4001TIP3    H111967   6.419   0.527   0.044
 4001TIP3    H211968   6.459   0.384   0.019
 4002TIP3   OH211969   3.361   0.595   0.042
 4002TIP3    H111970   3.440   0.648   0.034
 4002TIP3    H211971   3.393   0.508   0.068
 4003TIP3   OH211972   3.144   3.995   5.567
 4003TIP3    H111973   3.168   4.068   5.623
 4003TIP3    H211974   3.051   3.982   5.584
 4004TIP3   OH211975   1.299   6.165   2.712
 4004TIP3    H111976   1.286   6.254   2.744
 4004TIP3    H211977   1.375   6.133   2.760
 4005TIP3   OH211978   4.227   1.552   1.033
 4005TIP3    H111979   4.167   1.625   1.047
 4005TIP3    H211980   4.313   1.592   1.025
 4006TIP3   OH211981   3.751   2.788   4.988
 4006TIP3    H111982   3.707   2.740   5.058
 4006TIP3    H211983   3.684   2.848   4.955
 4007TIP3   OH211984   5.752   2.041   5.827
 4007TIP3    H111985   5.711   2.121   5.861
 4007TIP3    H211986   5.796   2.069   5.746
 4008TIP3   OH211987   4.556   6.343   4.485
 4008TIP3    H111988   4.506   6.311   4.410
 4008TIP3    H211989   4.544   6.438   4.484
 4009TIP3   OH211990   5.712   6.748   5.654
 4009TIP3    H111991   5.680   6.674   5.603
 4009TIP3    H211992   5.632   6.791   5.686
 4010TIP3   OH211993   7.201   3.761   4.559
 4010TIP3    H111994   7.119   3.712   4.551
 4010TIP3    H211995   7.188   3.816   4.636
 4011TIP3   OH211996   0.934   3.744   1.423
 4011TIP3    H111997   0.898   3.684   1.489
 4011TIP3    H211998   0.987   3.806   1.473
 4012TIP3   OH211999   6.142   1.208   3.107
 4012TIP3    H112000   6.047   1.217   3.100
 4012TIP3    H212001   6.156   1.166   3.192
 4013TIP3   OH212002   5.327   4.292   3.857
 4013TIP3    H112003   5.241   4.308   3.818
 4013TIP3    H212004   5.336   4.359   3.924
 4014TIP3   OH212005   5.199   0.689   2.056
 4014TIP3    H112006   5.258   0.718   1.987
 4014TIP3    H212007   5.202   0.759   2.121
 4015TIP3   OH212008   5.856   1.254   5.241
 4015TIP3    H112009   5.935   1.218   5.281
 4015TIP3    H212010   5.886   1.328   5.188
 4016TIP3   OH212011   1.070   5.133   1.129
 4016TIP3    H112012   1.163   5.146   1.151
 4016TIP3    H212013   1.032   5.221   1.132
 4017TIP3   OH212014   4.829   1.123   5.636
 4017TIP3    H112015   4.777   1.190   5.592
 4017TIP3    H212016   4.857   1.165   5.718
 4018TIP3   OH212017   2.503   0.230   3.513
 4018TIP3    H112018   2.581   0.278   3.541
 4018TIP3    H212019   2.446   0.229   3.590
 4019TIP3   OH212020   5.648   3.085   5.736
 4019TIP3    H112021   5.698   3.146   5.791
 4019TIP3    H212022   5.599   3.141   5.676
 4020TIP3   OH212023   1.078   1.987   1.586
 4020TIP3    H112024   1.135   1.922   1.627
 4020TIP3    H212025   1.080   1.965   1.493
 4021TIP3   OH212026   5.782   2.822   0.462
 4021TIP3    H112027   5.751   2.910   0.440
 4021TIP3    H212028   5.779   2.820   0.558
 4022TIP3   OH212029   0.292   6.667   0.843
 4022TIP3    H112030   0.333   6.669   0.756
 4022TIP3    H212031   0.298   6.757   0.874
 4023TIP3   OH212032   4.396   1.092   3.248
 4023TIP3    H112033   4.328   1.159   3.257
 4023TIP3    H212034   4.365   1.037   3.176
 4024TIP3   OH212035   5.918   4.431   5.439
 4024TIP3    H112036   5.945   4.502   5.497
 4024TIP3    H212037   5.985   4.364   5.450
 4025TIP3   OH212038   5.998   3.975   1.115
 4025TIP3    H112039   6.091   3.965   1.134
 4025TIP3    H212040   5.954   3.951   1.196
 4026TIP3   OH212041   3.903   6.284   4.507
 4026TIP3    H112042   3.831   6.237   4.464
 4026TIP3    H212043   3.881   6.376   4.497
 4027TIP3   OH212044   1.231   2.753   1.577
 4027TIP3    H112045   1.286   2.735   1.653
 4027TIP3    H212046   1.278   2.714   1.503
 4028TIP3   OH212047   1.995   2.528   1.182
 4028TIP3    H112048   1.967   2.452   1.232
 4028TIP3    H212049   2.087   2.511   1.160
 4029TIP3   OH212050   1.899   6.040   0.982
 4029TIP3    H112051   1.804   6.033   0.993
 4029TIP3    H212052   1.929   6.084   1.062
 4030TIP3   OH212053   2.501   1.166   4.429
 4030TIP3    H112054   2.508   1.170   4.524
 4030TIP3    H212055   2.547   1.086   4.404
 4031TIP3   OH212056   5.714   0.687   4.440
 4031TIP3    H112057   5.801   0.675   4.479
 4031TIP3    H212058   5.728   0.753   4.373
 4032TIP3   OH212059   3.343   2.596   5.866
 4032TIP3    H112060   3.399   2.536   5.914
 4032TIP3    H212061   3.257   2.553   5.866
 4033TIP3   OH212062   2.392   1.296   1.723
 4033TIP3    H112063   2.444   1.216   1.725
 4033TIP3    H212064   2.420   1.342   1.643
 4034TIP3   OH212065   2.624   0.366   4.063
 4034TIP3    H112066   2.620   0.436   3.999
 4034TIP3    H212067   2.716   0.364   4.091
 4035TIP3   OH212068   5.561   4.201   1.283
 4035TIP3    H112069   5.488   4.188   1.344
 4035TIP3    H212070   5.535   4.277   1.231
 4036TIP3   OH212071   5.036   4.390   0.320
 4036TIP3    H112072   5.015   4.303   0.287
 4036TIP3    H212073   4.988   4.397   0.402
 4037TIP3   OH212074   1.976   6.532   2.343
 4037TIP3    H112075   1.960   6.476   2.419
 4037TIP3    H212076   1.915   6.605   2.354
 4038TIP3   OH212077   4.104   1.014   2.854
 4038TIP3    H112078   4.192   0.994   2.888
 4038TIP3    H212079   4.116   1.092   2.800
 4039TIP3   OH212080   0.599   1.529   1.746
 4039TIP3    H112081   0.630   1.553   1.833
 4039TIP3    H212082   0.604   1.610   1.695
 4040TIP3   OH212083   4.262   0.936   1.782
 4040TIP3    H112084   4.234   0.855   1.825
 4040TIP3    H212085   4.324   0.909   1.716
 4041TIP3   OH212086   0.500   1.595   3.534
 4041TIP3    H112087   0.568   1.632   3.590
 4041TIP3    H212088   0.525   1.504   3.523
 4042TIP3   OH212089   1.567   1.835   4.204
 4042TIP3    H112090   1.572   1.758   4.260
 4042TIP3    H212091   1.634   1.820   4.137
 4043TIP3   OH212092   4.461   4.537   0.508
 4043TIP3    H112093   4.431   4.596   0.577
 4043TIP3    H212094   4.556   4.551   0.504
 4044TIP3   OH212095   4.187   3.073   1.900
 4044TIP3    H112096   4.184   3.044   1.991
 4044TIP3    H212097   4.279   3.095   1.885
 4045TIP3   OH212098   0.013   2.907   2.231
 4045TIP3    H112099  -0.016   2.994   2.205
 4045TIP3    H212100  -0.053   2.848   2.195
 4046TIP3   OH212101   2.143   4.277   1.770
 4046TIP3    H112102   2.068   4.265   1.712
 4046TIP3    H212103   2.217   4.244   1.719
 4047TIP3   OH212104   4.473   6.741   2.481
 4047TIP3    H112105   4.497   6.698   2.563
 4047TIP3    H212106   4.527   6.820   2.479
 4048TIP3   OH212107   3.098   2.465   5.891
 4048TIP3    H112108   3.130   2.399   5.953
 4048TIP3    H212109   3.031   2.419   5.840
 4049TIP3   OH212110   1.891   1.337   3.358
 4049TIP3    H112111   1.892   1.288   3.440
 4049TIP3    H212112   1.864   1.425   3.382
 4050TIP3   OH212113   4.324   6.653   4.605
 4050TIP3    H112114   4.384   6.692   4.542
 4050TIP3    H212115   4.275   6.727   4.641
 4051TIP3   OH212116   6.059   6.792   0.707
 4051TIP3    H112117   6.145   6.778   0.746
 4051TIP3    H212118   6.069   6.870   0.653
 4052TIP3   OH212119   5.250   5.078   3.313
 4052TIP3    H112120   5.166   5.035   3.302
 4052TIP3    H212121   5.286   5.084   3.224
 4053TIP3   OH212122   7.160   2.402   4.150
 4053TIP3    H112123   7.207   2.320   4.162
 4053TIP3    H212124   7.163   2.418   4.056
 4054TIP3   OH212125   2.727   3.467   0.438
 4054TIP3    H112126   2.727   3.559   0.411
 4054TIP3    H212127   2.768   3.467   0.524
 4055TIP3   OH212128   2.780   2.365   4.022
 4055TIP3    H112129   2.687   2.381   4.015
 4055TIP3    H212130   2.798   2.367   4.116
 4056TIP3   OH212131   4.497   4.896   0.929
 4056TIP3    H112132   4.526   4.837   0.998
 4056TIP3    H212133   4.402   4.896   0.936
 4057TIP3   OH212134   0.337   1.814   4.300
 4057TIP3    H112135   0.400   1.811   4.228
 4057TIP3    H212136   0.390   1.820   4.379
 4058TIP3   OH212137   0.520   6.152   2.553
 4058TIP3    H112138   0.597   6.178   2.603
 4058TIP3    H212139   0.462   6.228   2.556
 4059TIP3   OH212140   4.770   4.024   1.949
 4059TIP3    H112141   4.724   3.953   1.995
 4059TIP3    H212142   4.712   4.099   1.958
 4060TIP3   OH212143   0.323   4.043   3.121
 4060TIP3    H112144   0.359   4.013   3.037
 4060TIP3    H212145   0.248   4.097   3.096
 4061TIP3   OH212146   7.158   5.959   3.634
 4061TIP3    H112147   7.069   5.947   3.601
 4061TIP3    H212148   7.213   5.958   3.555
 4062TIP3   OH212149   2.885   1.433   1.256
 4062TIP3    H112150   2.838   1.500   1.206
 4062TIP3    H212151   2.816   1.382   1.298
 4063TIP3   OH212152   2.346   4.217   2.144
 4063TIP3    H112153   2.346   4.191   2.237
 4063TIP3    H212154   2.356   4.134   2.097
 4064TIP3   OH212155   2.516   0.562   0.363
 4064TIP3    H112156   2.592   0.536   0.311
 4064TIP3    H212157   2.503   0.490   0.424
 4065TIP3   OH212158   2.790   2.060   0.826
 4065TIP3    H112159   2.826   2.147   0.809
 4065TIP3    H212160   2.695   2.074   0.831
 4066TIP3   OH212161   0.722   0.436   3.052
 4066TIP3    H112162   0.763   0.499   3.111
 4066TIP3    H212163   0.758   0.351   3.079
 4067TIP3   OH212164   5.587   1.507   0.507
 4067TIP3    H112165   5.542   1.488   0.589
 4067TIP3    H212166   5.679   1.512   0.531
 4068TIP3   OH212167   0.766   3.209   5.536
 4068TIP3    H112168   0.723   3.208   5.621
 4068TIP3    H212169   0.731   3.132   5.491
 4069TIP3   OH212170   0.935   3.356   0.354
 4069TIP3    H112171   0.903   3.381   0.441
 4069TIP3    H212172   0.933   3.438   0.304
 4070TIP3   OH212173   1.345   0.100   3.252
 4070TIP3    H112174   1.410   0.095   3.181
 4070TIP3    H212175   1.313   0.011   3.262
 4071TIP3   OH212176   0.156   4.448   3.084
 4071TIP3    H112177   0.165   4.531   3.037
 4071TIP3    H212178   0.227   4.394   3.050
 4072TIP3   OH212179   3.249   1.730   0.701
 4072TIP3    H112180   3.330   1.753   0.656
 4072TIP3    H212181   3.276   1.670   0.771
 4073TIP3   OH212182   2.513   2.807   1.882
 4073TIP3    H112183   2.419   2.820   1.891
 4073TIP3    H212184   2.526   2.791   1.788
 4074TIP3   OH212185   4.885   2.934   0.464
 4074TIP3    H112186   4.926   2.936   0.550
 4074TIP3    H212187   4.956   2.955   0.403
 4075TIP3   OH212188   4.340   1.112   2.624
 4075TIP3    H112189   4.275   1.098   2.556
 4075TIP3    H212190   4.422   1.078   2.587
 4076TIP3   OH212191   0.136   3.045   3.138
 4076TIP3    H112192   0.125   2.950   3.147
 4076TIP3    H212193   0.074   3.082   3.200
 4077TIP3   OH212194   2.764   5.335   5.747
 4077TIP3    H112195   2.776   5.430   5.741
 4077TIP3    H212196   2.810   5.301   5.671
 4078TIP3   OH212197   4.017   3.215   1.394
 4078TIP3    H112198   4.035   3.307   1.373
 4078TIP3    H212199   4.102   3.181   1.425
 4079TIP3   OH212200   0.037   6.488   3.940
 4079TIP3    H112201   0.053   6.582   3.935
 4079TIP3    H212202  -0.040   6.473   3.886
 4080TIP3   OH212203   1.823   3.208   4.085
 4080TIP3    H112204   1.870   3.166   4.014
 4080TIP3    H212205   1.855   3.299   4.085
 4081TIP3   OH212206   0.709   6.325   4.084
 4081TIP3    H112207   0.665   6.385   4.143
 4081TIP3    H212208   0.719   6.244   4.135
 4082TIP3   OH212209   6.385   3.719   0.151
 4082TIP3    H112210   6.384   3.811   0.178
 4082TIP3    H212211   6.308   3.711   0.094
 4083TIP3   OH212212   2.583   3.276   2.017
 4083TIP3    H112213   2.588   3.183   1.997
 4083TIP3    H212214   2.653   3.316   1.965
 4084TIP3   OH212215   4.254   5.283   1.739
 4084TIP3    H112216   4.283   5.318   1.823
 4084TIP3    H212217   4.286   5.347   1.674
 4085TIP3   OH212218   4.563   4.593   2.009
 4085TIP3    H112219   4.498   4.639   1.956
 4085TIP3    H212220   4.623   4.554   1.946
 4086TIP3   OH212221   5.753   0.356   0.654
 4086TIP3    H112222   5.787   0.439   0.686
 4086TIP3    H212223   5.797   0.290   0.707
 4087TIP3   OH212224   2.901   6.220   1.869
 4087TIP3    H112225   2.955   6.143   1.848
 4087TIP3    H212226   2.934   6.250   1.954
 4088TIP3   OH212227   1.765   2.908   2.213
 4088TIP3    H112228   1.853   2.944   2.210
 4088TIP3    H212229   1.710   2.974   2.170
 4089TIP3   OH212230   0.052   4.994   2.915
 4089TIP3    H112231   0.108   5.017   2.989
 4089TIP3    H212232   0.076   5.057   2.847
 4090TIP3   OH212233   5.739   5.054   0.887
 4090TIP3    H112234   5.750   5.134   0.937
 4090TIP3    H212235   5.728   5.083   0.796
 4091TIP3   OH212236   6.676   1.240   0.195
 4091TIP3    H112237   6.680   1.336   0.189
 4091TIP3    H212238   6.766   1.212   0.179
 4092TIP3   OH212239   4.111   1.734   1.672
 4092TIP3    H112240   4.084   1.730   1.764
 4092TIP3    H212241   4.053   1.799   1.633
 4093TIP3   OH212242   3.816   3.665   2.092
 4093TIP3    H112243   3.796   3.605   2.164
 4093TIP3    H212244   3.911   3.661   2.082
 4094TIP3   OH212245   3.237   4.031   2.752
 4094TIP3    H112246   3.217   3.962   2.689
 4094TIP3    H212247   3.151   4.069   2.774
 4095TIP3   OH212248   1.377   2.385   5.211
 4095TIP3    H112249   1.376   2.479   5.195
 4095TIP3    H212250   1.287   2.365   5.238
 4096TIP3   OH212251   4.203   5.647   3.827
 4096TIP3    H112252   4.271   5.599   3.779
 4096TIP3    H212253   4.131   5.584   3.835
 4097TIP3   OH212254   0.766   5.793   3.006
 4097TIP3    H112255   0.687   5.785   2.952
 4097TIP3    H212256   0.762   5.718   3.066
 4098TIP3   OH212257   4.506   6.215   0.089
 4098TIP3    H112258   4.413   6.236   0.100
 4098TIP3    H212259   4.553   6.292   0.121
 4099TIP3   OH212260   5.183   6.243   0.051
 4099TIP3    H112261   5.201   6.238   0.145
 4099TIP3    H212262   5.183   6.337   0.032
 4100TIP3   OH212263   4.045   1.239   1.129
 4100TIP3    H112264   3.955   1.238   1.163
 4100TIP3    H212265   4.048   1.318   1.075
 4101TIP3   OH212266   6.899   2.781   2.752
 4101TIP3    H112267   6.804   2.779   2.738
 4101TIP3    H212268   6.937   2.763   2.666
 4102TIP3   OH212269   5.280   5.202   3.951
 4102TIP3    H112270   5.221   5.216   3.877
 4102TIP3    H212271   5.226   5.162   4.018
 4103TIP3   OH212272   5.275   4.462   0.190
 4103TIP3    H112273   5.252   4.511   0.111
 4103TIP3    H212274   5.192   4.446   0.234
 4104TIP3   OH212275   1.947   0.215   4.141
 4104TIP3    H112276   2.010   0.279   4.172
 4104TIP3    H212277   1.862   0.256   4.156
 4105TIP3   OH212278   2.431   4.621   4.444
 4105TIP3    H112279   2.503   4.681   4.426
 4105TIP3    H212280   2.461   4.568   4.517
 4106TIP3   OH212281   2.397   5.310   2.649
 4106TIP3    H112282   2.474   5.353   2.612
 4106TIP3    H212283   2.356   5.377   2.704
 4107TIP3   OH212284   2.227   5.394   3.484
 4107TIP3    H112285   2.309   5.393   3.534
 4107TIP3    H212286   2.199   5.302   3.483
 4108TIP3   OH212287   1.175   3.895   5.115
 4108TIP3    H112288   1.094   3.862   5.076
 4108TIP3    H212289   1.151   3.982   5.148
 4109TIP3   OH212290   5.507   5.819   3.753
 4109TIP3    H112291   5.485   5.885   3.688
 4109TIP3    H212292   5.515   5.738   3.703
 4110TIP3   OH212293   0.307   0.635   0.586
 4110TIP3    H112294   0.254   0.574   0.535
 4110TIP3    H212295   0.379   0.581   0.621
 4111TIP3   OH212296   6.249   1.558   1.959
 4111TIP3    H112297   6.191   1.601   1.896
 4111TIP3    H212298   6.202   1.479   1.985
 4112TIP3   OH212299   1.964   3.700   0.609
 4112TIP3    H112300   1.934   3.612   0.586
 4112TIP3    H212301   1.900   3.731   0.673
 4113TIP3   OH212302   7.120   3.172   1.968
 4113TIP3    H112303   7.041   3.136   1.930
 4113TIP3    H212304   7.097   3.262   1.990
 4114TIP3   OH212305   1.558   6.745   0.035
 4114TIP3    H112306   1.584   6.653   0.032
 4114TIP3    H212307   1.463   6.743   0.038
 4115TIP3   OH212308   5.469   6.108   2.913
 4115TIP3    H112309   5.381   6.084   2.941
 4115TIP3    H212310   5.462   6.123   2.819
 4116TIP3   OH212311   0.701   6.549   2.148
 4116TIP3    H112312   0.752   6.629   2.132
 4116TIP3    H212313   0.620   6.563   2.100
 4117TIP3   OH212314   6.359   5.452   4.142
 4117TIP3    H112315   6.308   5.443   4.062
 4117TIP3    H212316   6.403   5.537   4.133
 4118TIP3   OH212317   5.643   5.963   2.489
 4118TIP3    H112318   5.694   5.980   2.410
 4118TIP3    H212319   5.655   5.870   2.506
 4119TIP3   OH212320   0.521   3.616   2.855
 4119TIP3    H112321   0.487   3.581   2.938
 4119TIP3    H212322   0.557   3.702   2.878
 4120TIP3   OH212323   4.534   0.797   4.174
 4120TIP3    H112324   4.624   0.791   4.206
 4120TIP3    H212325   4.537   0.865   4.107
 4121TIP3   OH212326   6.966   0.943   2.889
 4121TIP3    H112327   7.006   0.940   2.803
 4121TIP3    H212328   7.003   1.021   2.931
 4122TIP3   OH212329   1.186   5.160   5.276
 4122TIP3    H112330   1.152   5.121   5.357
 4122TIP3    H212331   1.119   5.141   5.210
 4123TIP3   OH212332   5.947   5.626   5.326
 4123TIP3    H112333   5.961   5.653   5.236
 4123TIP3    H212334   5.854   5.603   5.330
 4124TIP3   OH212335   6.693   5.561   3.976
 4124TIP3    H112336   6.639   5.560   3.897
 4124TIP3    H212337   6.772   5.607   3.951
 4125TIP3   OH212338   3.987   5.054   2.787
 4125TIP3    H112339   3.910   5.053   2.844
 4125TIP3    H212340   4.029   5.138   2.805
 4126TIP3   OH212341   0.141   4.014   5.583
 4126TIP3    H112342   0.124   4.079   5.651
 4126TIP3    H212343   0.088   3.938   5.608
 4127TIP3   OH212344   3.308   3.050   1.779
 4127TIP3    H112345   3.281   3.071   1.690
 4127TIP3    H212346   3.263   3.114   1.834
 4128TIP3   OH212347   2.434   1.155   3.452
 4128TIP3    H112348   2.493   1.081   3.435
 4128TIP3    H212349   2.435   1.205   3.371
 4129TIP3   OH212350   0.650   5.776   0.080
 4129TIP3    H112351   0.724   5.793   0.022
 4129TIP3    H212352   0.674   5.696   0.126
 4130TIP3   OH212353   3.296   3.479   4.199
 4130TIP3    H112354   3.382   3.502   4.234
 4130TIP3    H212355   3.235   3.537   4.246
 4131TIP3   OH212356   5.396   2.543   3.238
 4131TIP3    H112357   5.455   2.584   3.174
 4131TIP3    H212358   5.374   2.458   3.199
 4132TIP3   OH212359   6.249   3.212   5.617
 4132TIP3    H112360   6.304   3.173   5.549
 4132TIP3    H212361   6.262   3.306   5.608
 4133TIP3   OH212362   5.588   0.873   4.948
 4133TIP3    H112363   5.613   0.953   4.995
 4133TIP3    H212364   5.543   0.905   4.870
 4134TIP3   OH212365   0.324   4.812   5.785
 4134TIP3    H112366   0.337   4.808   5.691
 4134TIP3    H212367   0.404   4.777   5.823
 4135TIP3   OH212368   3.924   1.670   0.874
 4135TIP3    H112369   3.895   1.729   0.944
 4135TIP3    H212370   3.968   1.728   0.811
 4136TIP3   OH212371   1.668   2.793   4.436
 4136TIP3    H112372   1.710   2.858   4.379
 4136TIP3    H212373   1.575   2.801   4.418
 4137TIP3   OH212374   5.466   6.311   2.629
 4137TIP3    H112375   5.447   6.217   2.629
 4137TIP3    H212376   5.560   6.317   2.648
 4138TIP3   OH212377   5.579   4.377   2.415
 4138TIP3    H112378   5.494   4.415   2.392
 4138TIP3    H212379   5.632   4.452   2.443
 4139TIP3   OH212380   6.121   0.026   0.205
 4139TIP3    H112381   6.047   0.039   0.146
 4139TIP3    H212382   6.085  -0.024   0.278
 4140TIP3   OH212383   1.863   4.926   4.768
 4140TIP3    H112384   1.855   4.876   4.686
 4140TIP3    H212385   1.836   5.015   4.745
 4141TIP3   OH212386   4.000   6.561   5.367
 4141TIP3    H112387   3.992   6.634   5.305
 4141TIP3    H212388   4.093   6.558   5.389
 4142TIP3   OH212389   6.994   0.723   3.988
 4142TIP3    H112390   6.980   0.778   3.912
 4142TIP3    H212391   7.056   0.772   4.042
 4143TIP3   OH212392   3.678   1.159   0.155
 4143TIP3    H112393   3.732   1.098   0.206
 4143TIP3    H212394   3.740   1.200   0.094
 4144TIP3   OH212395   0.714   0.290   5.687
 4144TIP3    H112396   0.651   0.345   5.639
 4144TIP3    H212397   0.705   0.317   5.778
 4145TIP3   OH212398   5.258   1.169   5.192
 4145TIP3    H112399   5.259   1.184   5.287
 4145TIP3    H212400   5.217   1.248   5.157
 4146TIP3   OH212401   0.120   4.336   2.306
 4146TIP3    H112402   0.078   4.396   2.367
 4146TIP3    H212403   0.207   4.321   2.344
 4147TIP3   OH212404   3.912   6.522   3.945
 4147TIP3    H112405   4.005   6.502   3.953
 4147TIP3    H212406   3.870   6.473   4.015
 4148TIP3   OH212407   7.060   5.847   5.225
 4148TIP3    H112408   6.992   5.865   5.291
 4148TIP3    H212409   7.075   5.932   5.183
 4149TIP3   OH212410   6.615   4.713   1.397
 4149TIP3    H112411   6.698   4.686   1.438
 4149TIP3    H212412   6.563   4.632   1.394
 4150TIP3   OH212413   4.995   2.864   5.591
 4150TIP3    H112414   4.912   2.912   5.589
 4150TIP3    H212415   5.059   2.925   5.555
 4151TIP3   OH212416   1.000   4.535   0.315
 4151TIP3    H112417   0.987   4.449   0.355
 4151TIP3    H212418   1.046   4.586   0.382
 4152TIP3   OH212419   4.403   3.059   4.413
 4152TIP3    H112420   4.445   2.985   4.368
 4152TIP3    H212421   4.387   3.027   4.502
 4153TIP3   OH212422   2.360   3.582   4.169
 4153TIP3    H112423   2.304   3.609   4.096
 4153TIP3    H212424   2.338   3.490   4.184
 4154TIP3   OH212425   6.763   2.394   3.078
 4154TIP3    H112426   6.804   2.317   3.037
 4154TIP3    H212427   6.786   2.467   3.020
 4155TIP3   OH212428   3.810   1.290   2.443
 4155TIP3    H112429   3.833   1.235   2.368
 4155TIP3    H212430   3.824   1.233   2.519
 4156TIP3   OH212431   6.414   0.564   2.785
 4156TIP3    H112432   6.424   0.660   2.785
 4156TIP3    H212433   6.344   0.548   2.722
 4157TIP3   OH212434   1.497   4.404   0.749
 4157TIP3    H112435   1.507   4.330   0.688
 4157TIP3    H212436   1.506   4.365   0.836
 4158TIP3   OH212437   5.220   6.779   3.975
 4158TIP3    H112438   5.137   6.826   3.967
 4158TIP3    H212439   5.286   6.841   3.943
 4159TIP3   OH212440   2.640   1.993   4.015
 4159TIP3    H112441   2.707   2.059   4.035
 4159TIP3    H212442   2.686   1.930   3.959
 4160TIP3   OH212443   1.775   2.137   5.147
 4160TIP3    H112444   1.737   2.205   5.203
 4160TIP3    H212445   1.788   2.179   5.062
 4161TIP3   OH212446   0.156   1.601   0.525
 4161TIP3    H112447   0.069   1.560   0.521
 4161TIP3    H212448   0.168   1.623   0.617
 4162TIP3   OH212449   5.795   2.739   0.735
 4162TIP3    H112450   5.829   2.806   0.794
 4162TIP3    H212451   5.861   2.670   0.737
 4163TIP3   OH212452   6.114   4.980   5.080
 4163TIP3    H112453   6.176   4.941   5.018
 4163TIP3    H212454   6.170   5.026   5.144
 4164TIP3   OH212455   0.721   4.368   2.854
 4164TIP3    H112456   0.661   4.430   2.811
 4164TIP3    H212457   0.698   4.283   2.817
 4165TIP3   OH212458   3.765   1.485   3.409
 4165TIP3    H112459   3.685   1.516   3.368
 4165TIP3    H212460   3.736   1.421   3.474
 4166TIP3   OH212461   0.642   5.534   2.436
 4166TIP3    H112462   0.631   5.458   2.378
 4166TIP3    H212463   0.736   5.539   2.451
 4167TIP3   OH212464   1.921   6.335   3.458
 4167TIP3    H112465   1.833   6.361   3.485
 4167TIP3    H212466   1.951   6.405   3.401
 4168TIP3   OH212467   4.997   4.696   3.533
 4168TIP3    H112468   5.029   4.606   3.547
 4168TIP3    H212469   5.055   4.732   3.466
 4169TIP3   OH212470   7.212   1.975   3.949
 4169TIP3    H112471   7.131   2.009   3.910
 4169TIP3    H212472   7.229   2.034   4.022
 4170TIP3   OH212473   2.421   0.990   3.042
 4170TIP3    H112474   2.460   1.033   2.966
 4170TIP3    H212475   2.392   1.062   3.098
 4171TIP3   OH212476   4.894   4.417   0.536
 4171TIP3    H112477   4.827   4.483   0.522
 4171TIP3    H212478   4.873   4.379   0.621
 4172TIP3   OH212479   4.312   0.687   2.968
 4172TIP3    H112480   4.342   0.617   3.026
 4172TIP3    H212481   4.227   0.657   2.936
 4173TIP3   OH212482   0.407   1.904   1.061
 4173TIP3    H112483   0.352   1.926   0.985
 4173TIP3    H212484   0.361   1.943   1.135
 4174TIP3   OH212485   0.006   4.297   5.250
 4174TIP3    H112486   0.025   4.272   5.341
 4174TIP3    H212487   0.092   4.310   5.210
 4175TIP3   OH212488   0.400   0.277   3.104
 4175TIP3    H112489   0.455   0.273   3.183
 4175TIP3    H212490   0.413   0.366   3.071
 4176TIP3   OH212491   0.505   4.773   3.414
 4176TIP3    H112492   0.446   4.847   3.397
 4176TIP3    H212493   0.541   4.790   3.501
 4177TIP3   OH212494   5.123   1.299   4.708
 4177TIP3    H112495   5.068   1.376   4.719
 4177TIP3    H212496   5.079   1.230   4.759
 4178TIP3   OH212497   5.661   5.709   1.342
 4178TIP3    H112498   5.612   5.655   1.404
 4178TIP3    H212499   5.687   5.786   1.392
 4179TIP3   OH212500   4.415   0.244   0.134
 4179TIP3    H112501   4.374   0.323   0.168
 4179TIP3    H212502   4.355   0.213   0.066
 4180TIP3   OH212503   0.910   2.071   4.769
 4180TIP3    H112504   1.002   2.075   4.793
 4180TIP3    H212505   0.888   1.978   4.771
 4181TIP3   OH212506   1.940   4.965   2.071
 4181TIP3    H112507   1.928   4.877   2.106
 4181TIP3    H212508   2.021   4.960   2.021
 4182TIP3   OH212509   5.534   4.447   0.347
 4182TIP3    H112510   5.452   4.473   0.305
 4182TIP3    H212511   5.566   4.374   0.293
 4183TIP3   OH212512   4.330   0.718   2.545
 4183TIP3    H112513   4.407   0.733   2.599
 4183TIP3    H212514   4.317   0.801   2.498
 4184TIP3   OH212515   5.686   1.336   4.421
 4184TIP3    H112516   5.738   1.271   4.468
 4184TIP3    H212517   5.617   1.285   4.379
 4185TIP3   OH212518   5.122   1.162   0.929
 4185TIP3    H112519   5.048   1.197   0.880
 4185TIP3    H212520   5.089   1.080   0.966
 4186TIP3   OH212521   3.403   0.232   1.453
 4186TIP3    H112522   3.350   0.157   1.483
 4186TIP3    H212523   3.437   0.204   1.368
 4187TIP3   OH212524   7.166   0.813   5.716
 4187TIP3    H112525   7.134   0.764   5.640
 4187TIP3    H212526   7.115   0.894   5.715
 4188TIP3   OH212527   6.047   4.274   0.373
 4188TIP3    H112528   6.055   4.336   0.446
 4188TIP3    H212529   6.135   4.270   0.336
 4189TIP3   OH212530   6.233   1.218   3.971
 4189TIP3    H112531   6.273   1.294   3.929
 4189TIP3    H212532   6.151   1.252   4.007
 4190TIP3   OH212533   5.306   3.372   5.772
 4190TIP3    H112534   5.354   3.401   5.694
 4190TIP3    H212535   5.314   3.277   5.771
 4191TIP3   OH212536   1.449   3.877   1.683
 4191TIP3    H112537   1.487   3.793   1.711
 4191TIP3    H212538   1.374   3.852   1.629
 4192TIP3   OH212539   1.017   3.139   0.239
 4192TIP3    H112540   0.985   3.217   0.282
 4192TIP3    H212541   1.111   3.154   0.227
 4193TIP3   OH212542   2.443   3.847   4.144
 4193TIP3    H112543   2.527   3.818   4.106
 4193TIP3    H212544   2.394   3.765   4.157
 4194TIP3   OH212545   5.315   2.325   1.825
 4194TIP3    H112546   5.409   2.329   1.807
 4194TIP3    H212547   5.290   2.415   1.846
 4195TIP3   OH212548   3.165   4.225   1.997
 4195TIP3    H112549   3.208   4.292   1.945
 4195TIP3    H212550   3.080   4.213   1.955
 4196TIP3   OH212551   3.888   0.984   0.935
 4196TIP3    H112552   3.966   0.963   0.883
 4196TIP3    H212553   3.844   0.900   0.946
 4197TIP3   OH212554   6.998   1.504   1.992
 4197TIP3    H112555   7.093   1.497   1.996
 4197TIP3    H212556   6.966   1.447   2.062
 4198TIP3   OH212557   4.694   3.713   0.153
 4198TIP3    H112558   4.784   3.710   0.120
 4198TIP3    H212559   4.678   3.806   0.168
 4199TIP3   OH212560   5.645   6.626   0.557
 4199TIP3    H112561   5.720   6.686   0.554
 4199TIP3    H212562   5.585   6.660   0.491
 4200TIP3   OH212563   1.473   0.319   2.562
 4200TIP3    H112564   1.392   0.268   2.560
 4200TIP3    H212565   1.541   0.255   2.587
 4201TIP3   OH212566   2.402   6.134   3.570
 4201TIP3    H112567   2.461   6.204   3.544
 4201TIP3    H212568   2.318   6.177   3.586
 4202TIP3   OH212569   0.466   4.602   3.828
 4202TIP3    H112570   0.448   4.625   3.920
 4202TIP3    H212571   0.381   4.573   3.794
 4203TIP3   OH212572   5.893   1.672   2.541
 4203TIP3    H112573   5.950   1.735   2.497
 4203TIP3    H212574   5.833   1.726   2.594
 4204TIP3   OH212575   0.751   2.213   4.603
 4204TIP3    H112576   0.802   2.167   4.670
 4204TIP3    H212577   0.743   2.303   4.637
 4205TIP3   OH212578   3.648   6.728   4.601
 4205TIP3    H112579   3.630   6.791   4.531
 4205TIP3    H212580   3.705   6.663   4.561
 4206TIP3   OH212581   4.214   2.266   5.352
 4206TIP3    H112582   4.165   2.336   5.310
 4206TIP3    H212583   4.301   2.303   5.368
 4207TIP3   OH212584   0.048   3.954   5.228
 4207TIP3    H112585   0.100   3.955   5.309
 4207TIP3    H212586   0.110   3.929   5.160
 4208TIP3   OH212587   5.013   5.033   1.966
 4208TIP3    H112588   5.104   5.053   1.992
 4208TIP3    H212589   4.964   5.112   1.988
 4209TIP3   OH212590   1.196   0.407   1.368
 4209TIP3    H112591   1.132   0.475   1.349
 4209TIP3    H212592   1.222   0.373   1.282
 4210TIP3   OH212593   6.950   4.433   5.292
 4210TIP3    H112594   6.938   4.470   5.380
 4210TIP3    H212595   7.038   4.395   5.294
 4211TIP3   OH212596   1.419   2.203   1.571
 4211TIP3    H112597   1.506   2.195   1.533
 4211TIP3    H212598   1.407   2.123   1.621
 4212TIP3   OH212599   0.076   6.224   3.022
 4212TIP3    H112600   0.157   6.259   2.984
 4212TIP3    H212601   0.065   6.138   2.981
 4213TIP3   OH212602   2.483   2.568   1.670
 4213TIP3    H112603   2.390   2.587   1.675
 4213TIP3    H212604   2.488   2.475   1.648
 4214TIP3   OH212605   2.018   4.474   1.010
 4214TIP3    H112606   2.038   4.412   0.940
 4214TIP3    H212607   1.936   4.515   0.984
 4215TIP3   OH212608   1.093   0.622   2.347
 4215TIP3    H112609   1.123   0.699   2.394
 4215TIP3    H212610   1.159   0.608   2.279
 4216TIP3   OH212611   4.933   6.325   3.757
 4216TIP3    H112612   4.910   6.282   3.839
 4216TIP3    H212613   4.904   6.266   3.688
 4217TIP3   OH212614   1.459   3.376   3.937
 4217TIP3    H112615   1.383   3.380   3.879
 4217TIP3    H212616   1.431   3.419   4.018
 4218TIP3   OH212617   6.908   5.645   2.396
 4218TIP3    H112618   6.957   5.591   2.334
 4218TIP3    H212619   6.891   5.726   2.349
 4219TIP3   OH212620   6.024   6.164   3.416
 4219TIP3    H112621   5.934   6.133   3.422
 4219TIP3    H212622   6.025   6.245   3.467
 4220TIP3   OH212623   2.419   0.439   5.719
 4220TIP3    H112624   2.373   0.520   5.741
 4220TIP3    H212625   2.350   0.373   5.716
 4221TIP3   OH212626   6.285   2.601   0.494
 4221TIP3    H112627   6.270   2.597   0.589
 4221TIP3    H212628   6.264   2.691   0.470
 4222TIP3   OH212629   4.268   6.152   3.436
 4222TIP3    H112630   4.284   6.245   3.454
 4222TIP3    H212631   4.341   6.107   3.478
 4223TIP3   OH212632   6.561   3.506   2.082
 4223TIP3    H112633   6.604   3.428   2.118
 4223TIP3    H212634   6.498   3.472   2.018
 4224TIP3   OH212635   4.704   5.287   1.875
 4224TIP3    H112636   4.786   5.332   1.856
 4224TIP3    H212637   4.669   5.265   1.789
 4225TIP3   OH212638   1.570   3.827   3.538
 4225TIP3    H112639   1.625   3.751   3.520
 4225TIP3    H212640   1.552   3.865   3.452
 4226TIP3   OH212641   1.200   3.742   4.036
 4226TIP3    H112642   1.204   3.687   4.114
 4226TIP3    H212643   1.195   3.681   3.963
 4227TIP3   OH212644   6.503   4.884   5.178
 4227TIP3    H112645   6.557   4.806   5.190
 4227TIP3    H212646   6.558   4.943   5.127
 4228TIP3   OH212647   3.945   3.640   4.979
 4228TIP3    H112648   4.033   3.617   5.011
 4228TIP3    H212649   3.907   3.692   5.050
 4229TIP3   OH212650   2.130   3.246   1.593
 4229TIP3    H112651   2.215   3.221   1.630
 4229TIP3    H212652   2.130   3.208   1.505
 4230TIP3   OH212653   0.198   2.876   0.030
 4230TIP3    H112654   0.288   2.906   0.040
 4230TIP3    H212655   0.175   2.839   0.115
 4231TIP3   OH212656   3.657   2.575   0.763
 4231TIP3    H112657   3.642   2.637   0.692
 4231TIP3    H212658   3.670   2.491   0.719
 4232TIP3   OH212659   3.636   2.298   0.957
 4232TIP3    H112660   3.721   2.343   0.960
 4232TIP3    H212661   3.623   2.268   1.047
 4233TIP3   OH212662   1.175   5.419   2.091
 4233TIP3    H112663   1.227   5.361   2.035
 4233TIP3    H212664   1.093   5.372   2.103
 4234TIP3   OH212665   4.130   0.717   0.493
 4234TIP3    H112666   4.096   0.784   0.553
 4234TIP3    H212667   4.219   0.701   0.523
 4235TIP3   OH212668   6.925   3.223   3.332
 4235TIP3    H112669   6.894   3.287   3.396
 4235TIP3    H212670   6.847   3.174   3.307
 4236TIP3   OH212671   3.964   5.955   5.382
 4236TIP3    H112672   3.965   5.988   5.292
 4236TIP3    H212673   3.874   5.967   5.411
 4237TIP3   OH212674   5.152   1.569   0.695
 4237TIP3    H112675   5.089   1.548   0.627
 4237TIP3    H212676   5.171   1.662   0.682
 4238TIP3   OH212677   7.059   0.191   4.409
 4238TIP3    H112678   7.065   0.254   4.480
 4238TIP3    H212679   7.150   0.174   4.384
 4239TIP3   OH212680   1.767   4.210   4.918
 4239TIP3    H112681   1.776   4.275   4.848
 4239TIP3    H212682   1.706   4.145   4.881
 4240TIP3   OH212683   5.339   2.815   2.813
 4240TIP3    H112684   5.284   2.832   2.890
 4240TIP3    H212685   5.367   2.901   2.783
 4241TIP3   OH212686   1.586   1.022   3.143
 4241TIP3    H112687   1.559   0.953   3.083
 4241TIP3    H212688   1.540   1.100   3.112
 4242TIP3   OH212689   5.558   4.187   3.396
 4242TIP3    H112690   5.569   4.244   3.320
 4242TIP3    H212691   5.547   4.100   3.360
 4243TIP3   OH212692   3.376   2.173   4.414
 4243TIP3    H112693   3.381   2.258   4.456
 4243TIP3    H212694   3.399   2.110   4.483
 4244TIP3   OH212695   7.067   0.047   5.714
 4244TIP3    H112696   7.082  -0.047   5.699
 4244TIP3    H212697   7.039   0.081   5.629
 4245TIP3   OH212698   0.858   5.495   5.461
 4245TIP3    H112699   0.796   5.552   5.508
 4245TIP3    H212700   0.935   5.492   5.518
 4246TIP3   OH212701   1.741   4.526   3.690
 4246TIP3    H112702   1.750   4.568   3.775
 4246TIP3    H212703   1.687   4.587   3.639
 4247TIP3   OH212704   0.145   6.118   0.075
 4247TIP3    H112705   0.208   6.067   0.023
 4247TIP3    H212706   0.136   6.069   0.157
 4248TIP3   OH212707   2.359   5.842   3.201
 4248TIP3    H112708   2.302   5.790   3.257
 4248TIP3    H212709   2.336   5.933   3.220
 4249TIP3   OH212710   1.581   4.471   5.254
 4249TIP3    H112711   1.639   4.533   5.209
 4249TIP3    H212712   1.630   4.389   5.255
 4250TIP3   OH212713   4.688   4.794   0.274
 4250TIP3    H112714   4.598   4.822   0.292
 4250TIP3    H212715   4.684   4.753   0.188
 4251TIP3   OH212716   0.767   0.957   4.926
 4251TIP3    H112717   0.691   0.900   4.912
 4251TIP3    H212718   0.801   0.931   5.012
 4252TIP3   OH212719   1.416   3.628   2.740
 4252TIP3    H112720   1.509   3.608   2.735
 4252TIP3    H212721   1.379   3.596   2.658
 4253TIP3   OH212722   6.997   1.519   2.662
 4253TIP3    H112723   6.934   1.485   2.598
 4253TIP3    H212724   7.031   1.599   2.621
 4254TIP3   OH212725   3.655   3.551   1.876
 4254TIP3    H112726   3.726   3.587   1.930
 4254TIP3    H212727   3.593   3.514   1.939
 4255TIP3   OH212728   6.278   0.288   3.602
 4255TIP3    H112729   6.302   0.350   3.671
 4255TIP3    H212730   6.282   0.202   3.645
 4256TIP3   OH212731   4.255   5.490   2.466
 4256TIP3    H112732   4.220   5.509   2.554
 4256TIP3    H212733   4.301   5.407   2.475
 4257TIP3   OH212734   2.419   6.257   1.011
 4257TIP3    H112735   2.472   6.301   0.944
 4257TIP3    H212736   2.380   6.328   1.061
 4258TIP3   OH212737   6.963   0.433   5.817
 4258TIP3    H112738   6.944   0.351   5.863
 4258TIP3    H212739   6.968   0.499   5.886
 4259TIP3   OH212740   1.663   2.461   0.440
 4259TIP3    H112741   1.725   2.409   0.491
 4259TIP3    H212742   1.585   2.467   0.495
 4260TIP3   OH212743   2.323   4.505   0.470
 4260TIP3    H112744   2.411   4.487   0.505
 4260TIP3    H212745   2.303   4.594   0.501
 4261TIP3   OH212746   5.662   5.803   1.900
 4261TIP3    H112747   5.626   5.749   1.829
 4261TIP3    H212748   5.630   5.891   1.882
 4262TIP3   OH212749   3.349   5.548   0.898
 4262TIP3    H112750   3.306   5.582   0.820
 4262TIP3    H212751   3.281   5.551   0.966
 4263TIP3   OH212752   6.185   6.547   1.323
 4263TIP3    H112753   6.133   6.555   1.403
 4263TIP3    H212754   6.121   6.559   1.252
 4264TIP3   OH212755   3.189   2.383   5.156
 4264TIP3    H112756   3.104   2.344   5.176
 4264TIP3    H212757   3.173   2.436   5.077
 4265TIP3   OH212758   6.089   2.643   4.010
 4265TIP3    H112759   6.088   2.718   3.951
 4265TIP3    H212760   6.181   2.617   4.016
 4266TIP3   OH212761   5.137   5.837   1.135
 4266TIP3    H112762   5.222   5.800   1.112
 4266TIP3    H212763   5.091   5.847   1.051
 4267TIP3   OH212764   0.363   1.452   1.900
 4267TIP3    H112765   0.446   1.405   1.886
 4267TIP3    H212766   0.389   1.543   1.916
 4268TIP3   OH212767   1.570   3.014   1.085
 4268TIP3    H112768   1.520   2.936   1.062
 4268TIP3    H212769   1.567   3.017   1.181
 4269TIP3   OH212770   0.272   2.312   0.944
 4269TIP3    H112771   0.355   2.271   0.921
 4269TIP3    H212772   0.292   2.363   1.023
 4270TIP3   OH212773   6.184   2.136   3.290
 4270TIP3    H112774   6.234   2.076   3.235
 4270TIP3    H212775   6.231   2.136   3.374
 4271TIP3   OH212776   3.823   2.204   0.082
 4271TIP3    H112777   3.747   2.239   0.129
 4271TIP3    H212778   3.796   2.205  -0.010
 4272TIP3   OH212779   1.564   3.893   2.584
 4272TIP3    H112780   1.495   3.851   2.533
 4272TIP3    H212781   1.585   3.830   2.653
 4273TIP3   OH212782   0.292   1.081   0.814
 4273TIP3    H112783   0.268   1.057   0.904
 4273TIP3    H212784   0.330   1.002   0.777
 4274TIP3   OH212785   1.652   3.400   4.651
 4274TIP3    H112786   1.686   3.313   4.630
 4274TIP3    H212787   1.565   3.384   4.687
 4275TIP3   OH212788   3.073   6.026   2.123
 4275TIP3    H112789   3.107   5.963   2.060
 4275TIP3    H212790   3.099   5.990   2.208
 4276TIP3   OH212791   5.224   3.973   4.637
 4276TIP3    H112792   5.281   4.050   4.634
 4276TIP3    H212793   5.283   3.900   4.616
 4277TIP3   OH212794   6.828   4.996   5.449
 4277TIP3    H112795   6.891   5.069   5.456
 4277TIP3    H212796   6.767   5.024   5.382
 4278TIP3   OH212797   4.130   2.165   4.810
 4278TIP3    H112798   4.174   2.214   4.741
 4278TIP3    H212799   4.120   2.076   4.774
 4279TIP3   OH212800   1.118   2.516   2.616
 4279TIP3    H112801   1.083   2.438   2.573
 4279TIP3    H212802   1.136   2.489   2.706
 4280TIP3   OH212803   1.871   2.949   2.958
 4280TIP3    H112804   1.841   2.942   2.868
 4280TIP3    H212805   1.814   3.016   2.998
 4281TIP3   OH212806   2.499   0.231   5.175
 4281TIP3    H112807   2.552   0.186   5.241
 4281TIP3    H212808   2.426   0.172   5.158
 4282TIP3   OH212809   3.794   1.720   3.848
 4282TIP3    H112810   3.759   1.636   3.819
 4282TIP3    H212811   3.756   1.733   3.935
 4283TIP3   OH212812   3.811   6.795   3.089
 4283TIP3    H112813   3.806   6.883   3.051
 4283TIP3    H212814   3.720   6.765   3.092
 4284TIP3   OH212815   1.769   4.431   4.728
 4284TIP3    H112816   1.751   4.426   4.634
 4284TIP3    H212817   1.750   4.522   4.751
 4285TIP3   OH212818   2.298   2.531   3.875
 4285TIP3    H112819   2.356   2.502   3.805
 4285TIP3    H212820   2.220   2.476   3.865
 4286TIP3   OH212821   4.925   4.106   0.593
 4286TIP3    H112822   5.017   4.103   0.617
 4286TIP3    H212823   4.879   4.120   0.676
 4287TIP3   OH212824   3.823   4.293   2.424
 4287TIP3    H112825   3.894   4.269   2.364
 4287TIP3    H212826   3.866   4.302   2.509
 4288TIP3   OH212827   0.290   3.160   0.528
 4288TIP3    H112828   0.279   3.232   0.467
 4288TIP3    H212829   0.204   3.119   0.532
 4289TIP3   OH212830   6.244   5.322   3.226
 4289TIP3    H112831   6.155   5.320   3.191
 4289TIP3    H212832   6.235   5.360   3.313
 4290TIP3   OH212833   1.540   3.019   4.693
 4290TIP3    H112834   1.595   2.942   4.703
 4290TIP3    H212835   1.500   3.032   4.779
 4291TIP3   OH212836   5.969   5.648   3.587
 4291TIP3    H112837   5.888   5.605   3.559
 4291TIP3    H212838   5.946   5.694   3.667
 4292TIP3   OH212839   4.115   2.511   4.776
 4292TIP3    H112840   4.063   2.552   4.707
 4292TIP3    H212841   4.185   2.465   4.729
 4293TIP3   OH212842   1.687   4.507   2.864
 4293TIP3    H112843   1.615   4.568   2.883
 4293TIP3    H212844   1.649   4.420   2.879
 4294TIP3   OH212845   3.567   2.401   1.943
 4294TIP3    H112846   3.630   2.471   1.924
 4294TIP3    H212847   3.516   2.434   2.017
 4295TIP3   OH212848   5.457   6.228   4.701
 4295TIP3    H112849   5.496   6.144   4.679
 4295TIP3    H212850   5.381   6.235   4.642
 4296TIP3   OH212851   4.579   4.652   4.804
 4296TIP3    H112852   4.491   4.624   4.782
 4296TIP3    H212853   4.616   4.578   4.852
 4297TIP3   OH212854   4.007   2.360   3.988
 4297TIP3    H112855   3.925   2.334   3.945
 4297TIP3    H212856   4.069   2.371   3.916
 4298TIP3   OH212857   1.418   0.565   5.260
 4298TIP3    H112858   1.344   0.504   5.260
 4298TIP3    H212859   1.391   0.636   5.317
 4299TIP3   OH212860   1.149   6.128   4.568
 4299TIP3    H112861   1.066   6.174   4.586
 4299TIP3    H212862   1.124   6.036   4.565
 4300TIP3   OH212863   0.560   2.052   5.737
 4300TIP3    H112864   0.534   1.997   5.663
 4300TIP3    H212865   0.573   2.139   5.699
 4301TIP3   OH212866   1.983   0.978   1.775
 4301TIP3    H112867   1.991   1.062   1.820
 4301TIP3    H212868   2.054   0.925   1.809
 4302TIP3   OH212869   6.819   6.554   3.025
 4302TIP3    H112870   6.890   6.495   3.050
 4302TIP3    H212871   6.852   6.601   2.948
 4303TIP3   OH212872   1.318   2.680   0.485
 4303TIP3    H112873   1.394   2.693   0.429
 4303TIP3    H212874   1.249   2.734   0.445
 4304TIP3   OH212875   3.152   4.977   4.341
 4304TIP3    H112876   3.224   4.980   4.279
 4304TIP3    H212877   3.126   5.069   4.352
 4305TIP3   OH212878   0.279   5.503   2.330
 4305TIP3    H112879   0.340   5.507   2.403
 4305TIP3    H212880   0.197   5.473   2.369
 4306TIP3   OH212881   2.285   6.122   2.482
 4306TIP3    H112882   2.249   6.183   2.419
 4306TIP3    H212883   2.278   6.166   2.567
 4307TIP3   OH212884   2.095   6.747   2.167
 4307TIP3    H112885   2.112   6.728   2.075
 4307TIP3    H212886   2.053   6.668   2.201
 4308TIP3   OH212887   3.882   5.890   4.232
 4308TIP3    H112888   3.800   5.849   4.260
 4308TIP3    H212889   3.856   5.977   4.202
 4309TIP3   OH212890   6.036   0.472   5.717
 4309TIP3    H112891   6.065   0.564   5.717
 4309TIP3    H212892   6.074   0.435   5.637
 4310TIP3   OH212893   6.432   4.297   3.270
 4310TIP3    H112894   6.474   4.222   3.229
 4310TIP3    H212895   6.503   4.360   3.285
 4311TIP3   OH212896   6.738   1.540   1.909
 4311TIP3    H112897   6.733   1.634   1.889
 4311TIP3    H212898   6.823   1.530   1.954
 4312TIP3   OH212899   4.116   4.723   0.586
 4312TIP3    H112900   4.207   4.711   0.614
 4312TIP3    H212901   4.066   4.721   0.668
 4313TIP3   OH212902   2.817   5.675   0.026
 4313TIP3    H112903   2.811   5.766   0.053
 4313TIP3    H212904   2.911   5.655   0.029
 4314TIP3   OH212905   1.239   3.621   5.338
 4314TIP3    H112906   1.153   3.597   5.304
 4314TIP3    H212907   1.277   3.538   5.368
 4315TIP3   OH212908   6.276   2.980   2.835
 4315TIP3    H112909   6.213   3.046   2.807
 4315TIP3    H212910   6.325   2.958   2.756
 4316TIP3   OH212911   0.758   5.782   3.715
 4316TIP3    H112912   0.784   5.765   3.624
 4316TIP3    H212913   0.688   5.718   3.732
 4317TIP3   OH212914   4.141   1.042   4.850
 4317TIP3    H112915   4.135   1.132   4.818
 4317TIP3    H212916   4.205   1.046   4.921
 4318TIP3   OH212917   6.942   4.027   2.923
 4318TIP3    H112918   7.031   3.997   2.909
 4318TIP3    H212919   6.888   3.947   2.915
 4319TIP3   OH212920   4.827   0.023   4.920
 4319TIP3    H112921   4.844   0.071   4.839
 4319TIP3    H212922   4.737  -0.009   4.910
 4320TIP3   OH212923   5.316   3.999   2.320
 4320TIP3    H112924   5.245   3.949   2.360
 4320TIP3    H212925   5.273   4.076   2.283
 4321TIP3   OH212926   2.674   3.535   1.141
 4321TIP3    H112927   2.759   3.552   1.182
 4321TIP3    H212928   2.695   3.503   1.054
 4322TIP3   OH212929   2.877   4.299   2.248
 4322TIP3    H112930   2.862   4.289   2.154
 4322TIP3    H212931   2.790   4.319   2.284
 4323TIP3   OH212932   1.028   0.860   0.096
 4323TIP3    H112933   0.952   0.875   0.153
 4323TIP3    H212934   0.995   0.874   0.007
 4324TIP3   OH212935   0.752   0.573   0.117
 4324TIP3    H112936   0.798   0.520   0.052
 4324TIP3    H212937   0.722   0.649   0.068
 4325TIP3   OH212938   5.477   2.877   4.273
 4325TIP3    H112939   5.507   2.787   4.265
 4325TIP3    H212940   5.526   2.925   4.205
 4326TIP3   OH212941   0.388   1.603   2.318
 4326TIP3    H112942   0.430   1.687   2.300
 4326TIP3    H212943   0.294   1.624   2.323
 4327TIP3   OH212944   2.998   0.545   0.507
 4327TIP3    H112945   3.069   0.482   0.521
 4327TIP3    H212946   3.041   0.621   0.468
 4328TIP3   OH212947   4.006   4.765   2.759
 4328TIP3    H112948   4.012   4.859   2.743
 4328TIP3    H212949   3.970   4.729   2.678
 4329TIP3   OH212950   4.619   5.577   2.030
 4329TIP3    H112951   4.712   5.559   2.016
 4329TIP3    H212952   4.593   5.513   2.097
 4330TIP3   OH212953   6.847   6.351   4.272
 4330TIP3    H112954   6.922   6.333   4.217
 4330TIP3    H212955   6.787   6.400   4.216
 4331TIP3   OH212956   3.741   6.196   3.816
 4331TIP3    H112957   3.697   6.127   3.767
 4331TIP3    H212958   3.670   6.245   3.858
 4332TIP3   OH212959   6.170   2.352   4.885
 4332TIP3    H112960   6.165   2.402   4.803
 4332TIP3    H212961   6.234   2.283   4.867
 4333TIP3   OH212962   5.663   6.360   4.431
 4333TIP3    H112963   5.737   6.420   4.448
 4333TIP3    H212964   5.591   6.398   4.481
 4334TIP3   OH212965   1.510   5.703   2.991
 4334TIP3    H112966   1.556   5.636   2.941
 4334TIP3    H212967   1.536   5.688   3.082
 4335TIP3   OH212968   1.075   6.273   1.852
 4335TIP3    H112969   0.998   6.329   1.865
 4335TIP3    H212970   1.064   6.203   1.916
 4336TIP3   OH212971   6.921   6.179   1.374
 4336TIP3    H112972   6.934   6.264   1.417
 4336TIP3    H212973   6.854   6.135   1.427
 4337TIP3   OH212974   3.203   2.813   5.787
 4337TIP3    H112975   3.162   2.873   5.848
 4337TIP3    H212976   3.240   2.744   5.842
 4338TIP3   OH212977   1.804   6.292   0.775
 4338TIP3    H112978   1.754   6.354   0.827
 4338TIP3    H212979   1.791   6.207   0.817
 4339TIP3   OH212980   6.001   3.987   4.025
 4339TIP3    H112981   6.032   3.968   3.936
 4339TIP3    H212982   5.924   4.043   4.012
 4340TIP3   OH212983   0.476   6.267   4.693
 4340TIP3    H112984   0.419   6.204   4.649
 4340TIP3    H212985   0.535   6.213   4.745
 4341TIP3   OH212986   1.237   1.463   3.031
 4341TIP3    H112987   1.278   1.474   3.117
 4341TIP3    H212988   1.170   1.532   3.027
 4342TIP3   OH212989   5.951   3.588   1.108
 4342TIP3    H112990   6.001   3.508   1.120
 4342TIP3    H212991   5.903   3.599   1.190
 4343TIP3   OH212992   1.250   1.516   0.277
 4343TIP3    H112993   1.229   1.574   0.204
 4343TIP3    H212994   1.223   1.429   0.247
 4344TIP3   OH212995   1.088   5.862   1.684
 4344TIP3    H112996   1.097   5.774   1.721
 4344TIP3    H212997   1.006   5.860   1.635
 4345TIP3   OH212998   6.996   2.130   3.083
 4345TIP3    H112999   6.947   2.068   3.138
 4345TIP3    H213000   7.069   2.159   3.138
 4346TIP3   OH213001   3.854   1.512   2.776
 4346TIP3    H113002   3.911   1.540   2.848
 4346TIP3    H213003   3.906   1.527   2.697
 4347TIP3   OH213004   0.111   2.858   1.815
 4347TIP3    H113005   0.205   2.839   1.822
 4347TIP3    H213006   0.069   2.784   1.858
 4348TIP3   OH213007   2.803   1.586   2.251
 4348TIP3    H113008   2.898   1.572   2.258
 4348TIP3    H213009   2.770   1.568   2.339
 4349TIP3   OH213010   6.334   0.332   1.667
 4349TIP3    H113011   6.286   0.289   1.596
 4349TIP3    H213012   6.424   0.302   1.656
 4350TIP3   OH213013   1.814   0.150   1.205
 4350TIP3    H113014   1.889   0.091   1.212
 4350TIP3    H213015   1.742   0.103   1.248
 4351TIP3   OH213016   2.667   1.625   0.071
 4351TIP3    H113017   2.581   1.664   0.058
 4351TIP3    H213018   2.659   1.537   0.034
 4352TIP3   OH213019   2.379   1.720   3.884
 4352TIP3    H113020   2.351   1.789   3.944
 4352TIP3    H213021   2.470   1.742   3.863
 4353TIP3   OH213022   3.543   4.403   3.052
 4353TIP3    H113023   3.460   4.360   3.070
 4353TIP3    H213024   3.593   4.395   3.133
 4354TIP3   OH213025   2.881   6.466   2.093
 4354TIP3    H113026   2.952   6.490   2.034
 4354TIP3    H213027   2.803   6.467   2.037
 4355TIP3   OH213028   2.839   6.806   5.656
 4355TIP3    H113029   2.927   6.803   5.695
 4355TIP3    H213030   2.815   6.714   5.645
 4356TIP3   OH213031   0.128   3.277   5.202
 4356TIP3    H113032   0.101   3.359   5.245
 4356TIP3    H213033   0.110   3.209   5.267
 4357TIP3   OH213034   3.732   1.747   5.255
 4357TIP3    H113035   3.772   1.686   5.316
 4357TIP3    H213036   3.798   1.758   5.186
 4358TIP3   OH213037   6.914   3.103   3.964
 4358TIP3    H113038   6.965   3.183   3.950
 4358TIP3    H213039   6.876   3.114   4.051
 4359TIP3   OH213040   1.079   3.137   3.132
 4359TIP3    H113041   1.110   3.069   3.192
 4359TIP3    H213042   1.008   3.181   3.179
 4360TIP3   OH213043   0.995   5.423   1.091
 4360TIP3    H113044   0.951   5.489   1.038
 4360TIP3    H213045   1.081   5.412   1.050
 4361TIP3   OH213046   3.104   1.319   1.953
 4361TIP3    H113047   3.138   1.387   2.012
 4361TIP3    H213048   3.094   1.363   1.869
 4362TIP3   OH213049   3.903   6.293   1.816
 4362TIP3    H113050   3.992   6.257   1.811
 4362TIP3    H213051   3.872   6.292   1.725
 4363TIP3   OH213052   4.453   4.145   5.780
 4363TIP3    H113053   4.504   4.225   5.762
 4363TIP3    H213054   4.500   4.077   5.733
 4364TIP3   OH213055   0.552   0.580   0.702
 4364TIP3    H113056   0.543   0.532   0.784
 4364TIP3    H213057   0.621   0.645   0.719
 4365TIP3   OH213058   0.203   4.914   4.184
 4365TIP3    H113059   0.147   4.986   4.155
 4365TIP3    H213060   0.251   4.949   4.259
 4366TIP3   OH213061   1.822   2.177   5.634
 4366TIP3    H113062   1.797   2.088   5.609
 4366TIP3    H213063   1.906   2.166   5.679
 4367TIP3   OH213064   0.765   2.528   1.267
 4367TIP3    H113065   0.740   2.615   1.236
 4367TIP3    H213066   0.806   2.487   1.190
 4368TIP3   OH213067  -0.003   2.655   5.004
 4368TIP3    H113068   0.059   2.669   5.076
 4368TIP3    H213069  -0.003   2.560   4.990
 4369TIP3   OH213070   1.755   3.890   1.765
 4369TIP3    H113071   1.748   3.984   1.783
 4369TIP3    H213072   1.741   3.848   1.851
 4370TIP3   OH213073   6.422   0.069   4.457
 4370TIP3    H113074   6.403   0.065   4.551
 4370TIP3    H213075   6.337   0.051   4.415
 4371TIP3   OH213076   2.709   2.028   3.462
 4371TIP3    H113077   2.743   2.113   3.436
 4371TIP3    H213078   2.782   1.986   3.508
 4372TIP3   OH213079   6.657   1.131   2.882
 4372TIP3    H113080   6.620   1.081   2.955
 4372TIP3    H213081   6.709   1.066   2.833
 4373TIP3   OH213082   6.007   2.696   4.471
 4373TIP3    H113083   6.056   2.685   4.390
 4373TIP3    H213084   6.061   2.753   4.525
 4374TIP3   OH213085   5.962   1.233   1.515
 4374TIP3    H113086   5.959   1.318   1.470
 4374TIP3    H213087   5.877   1.225   1.557
 4375TIP3   OH213088   0.586   4.732   5.454
 4375TIP3    H113089   0.662   4.738   5.511
 4375TIP3    H213090   0.533   4.661   5.491
 4376TIP3   OH213091   5.222   1.152   3.185
 4376TIP3    H113092   5.289   1.097   3.145
 4376TIP3    H213093   5.150   1.151   3.121
 4377TIP3   OH213094   7.205   6.599   4.815
 4377TIP3    H113095   7.235   6.690   4.810
 4377TIP3    H213096   7.130   6.595   4.756
 4378TIP3   OH213097   2.893   1.891   3.629
 4378TIP3    H113098   2.904   1.874   3.723
 4378TIP3    H213099   2.949   1.826   3.586
 4379TIP3   OH213100   0.720   5.793   1.449
 4379TIP3    H113101   0.778   5.753   1.514
 4379TIP3    H213102   0.779   5.832   1.385
 4380TIP3   OH213103   0.193   2.348   2.563
 4380TIP3    H113104   0.285   2.329   2.582
 4380TIP3    H213105   0.187   2.347   2.467
 4381TIP3   OH213106   5.031   1.383   5.490
 4381TIP3    H113107   4.962   1.450   5.491
 4381TIP3    H213108   5.000   1.319   5.426
 4382TIP3   OH213109   3.102   1.168   3.856
 4382TIP3    H113110   3.175   1.229   3.867
 4382TIP3    H213111   3.027   1.212   3.895
 4383TIP3   OH213112   4.767   5.199   2.588
 4383TIP3    H113113   4.833   5.251   2.633
 4383TIP3    H213114   4.806   5.112   2.580
 4384TIP3   OH213115   4.018   2.776   4.593
 4384TIP3    H113116   4.017   2.871   4.580
 4384TIP3    H213117   3.944   2.758   4.651
 4385TIP3   OH213118   4.374   3.220   4.672
 4385TIP3    H113119   4.323   3.285   4.624
 4385TIP3    H213120   4.465   3.245   4.657
 4386TIP3   OH213121   3.503   1.310   5.869
 4386TIP3    H113122   3.538   1.248   5.804
 4386TIP3    H213123   3.576   1.368   5.889
 4387TIP3   OH213124   0.177   2.652   3.694
 4387TIP3    H113125   0.104   2.713   3.683
 4387TIP3    H213126   0.242   2.682   3.630
 4388TIP3   OH213127   4.071   6.241   4.177
 4388TIP3    H113128   3.992   6.187   4.176
 4388TIP3    H213129   4.137   6.186   4.133
 4389TIP3   OH213130   6.546   3.174   0.717
 4389TIP3    H113131   6.472   3.203   0.663
 4389TIP3    H213132   6.510   3.101   0.769
 4390TIP3   OH213133   3.228   2.543   0.411
 4390TIP3    H113134   3.140   2.578   0.419
 4390TIP3    H213135   3.236   2.481   0.484
 4391TIP3   OH213136   5.348   5.784   5.386
 4391TIP3    H113137   5.334   5.777   5.480
 4391TIP3    H213138   5.271   5.741   5.347
 4392TIP3   OH213139   4.707   2.529   4.705
 4392TIP3    H113140   4.647   2.455   4.720
 4392TIP3    H213141   4.660   2.605   4.739
 4393TIP3   OH213142   5.457   5.403   1.214
 4393TIP3    H113143   5.529   5.348   1.245
 4393TIP3    H213144   5.398   5.410   1.289
 4394TIP3   OH213145   4.660   3.408   4.417
 4394TIP3    H113146   4.733   3.367   4.371
 4394TIP3    H213147   4.672   3.383   4.509
 4395TIP3   OH213148   6.189   5.842   2.788
 4395TIP3    H113149   6.188   5.904   2.861
 4395TIP3    H213150   6.173   5.896   2.711
 4396TIP3   OH213151   7.105   6.050   1.653
 4396TIP3    H113152   7.120   5.973   1.598
 4396TIP3    H213153   7.150   6.121   1.609
 4397TIP3   OH213154   2.399   5.269   1.359
 4397TIP3    H113155   2.409   5.364   1.358
 4397TIP3    H213156   2.352   5.250   1.277
 4398TIP3   OH213157   2.595   5.307   4.681
 4398TIP3    H113158   2.563   5.294   4.591
 4398TIP3    H213159   2.688   5.283   4.677
 4399TIP3   OH213160   6.502   2.405   3.190
 4399TIP3    H113161   6.583   2.403   3.140
 4399TIP3    H213162   6.526   2.440   3.275
 4400TIP3   OH213163   0.318   3.019   3.752
 4400TIP3    H113164   0.254   3.027   3.681
 4400TIP3    H213165   0.345   3.109   3.770
 4401TIP3   OH213166   6.202   3.918   3.314
 4401TIP3    H113167   6.280   3.886   3.359
 4401TIP3    H213168   6.230   3.998   3.270
 4402TIP3   OH213169   3.629   0.008   2.827
 4402TIP3    H113170   3.539   0.042   2.824
 4402TIP3    H213171   3.642  -0.030   2.740
 4403TIP3   OH213172   3.257   5.784   4.703
 4403TIP3    H113173   3.200   5.733   4.760
 4403TIP3    H213174   3.333   5.805   4.757
 4404TIP3   OH213175   5.464   0.992   5.476
 4404TIP3    H113176   5.414   1.072   5.459
 4404TIP3    H213177   5.553   1.023   5.494
 4405TIP3   OH213178   4.226   2.764   0.073
 4405TIP3    H113179   4.203   2.678   0.038
 4405TIP3    H213180   4.244   2.748   0.166
 4406TIP3   OH213181   1.928   0.644   1.135
 4406TIP3    H113182   1.961   0.574   1.192
 4406TIP3    H213183   1.968   0.626   1.050
 4407TIP3   OH213184   1.290   0.599   3.323
 4407TIP3    H113185   1.223   0.662   3.349
 4407TIP3    H213186   1.367   0.623   3.375
 4408TIP3   OH213187   4.701   5.907   5.030
 4408TIP3    H113188   4.641   5.887   5.102
 4408TIP3    H213189   4.644   5.934   4.958
 4409TIP3   OH213190   0.137   6.227   4.538
 4409TIP3    H113191   0.100   6.139   4.542
 4409TIP3    H213192   0.231   6.214   4.529
 4410TIP3   OH213193   6.785   0.940   4.213
 4410TIP3    H113194   6.796   0.845   4.215
 4410TIP3    H213195   6.851   0.973   4.274
 4411TIP3   OH213196   2.716   1.492   2.014
 4411TIP3    H113197   2.714   1.563   1.949
 4411TIP3    H213198   2.736   1.536   2.097
 4412TIP3   OH213199   1.173   4.179   4.894
 4412TIP3    H113200   1.198   4.091   4.868
 4412TIP3    H213201   1.125   4.167   4.976
 4413TIP3   OH213202   3.100   4.215   3.480
 4413TIP3    H113203   3.090   4.146   3.545
 4413TIP3    H213204   3.180   4.261   3.506
 4414TIP3   OH213205   6.155   4.841   2.600
 4414TIP3    H113206   6.126   4.828   2.691
 4414TIP3    H213207   6.220   4.772   2.586
 4415TIP3   OH213208   1.511   5.020   0.500
 4415TIP3    H113209   1.425   5.060   0.509
 4415TIP3    H213210   1.553   5.032   0.585
 4416TIP3   OH213211   4.730   5.117   1.282
 4416TIP3    H113212   4.758   5.208   1.295
 4416TIP3    H213213   4.812   5.068   1.274
 4417TIP3   OH213214   6.203   2.613   4.308
 4417TIP3    H113215   6.220   2.574   4.222
 4417TIP3    H213216   6.274   2.581   4.363
 4418TIP3   OH213217   2.226   6.417   1.568
 4418TIP3    H113218   2.180   6.386   1.646
 4418TIP3    H213219   2.176   6.494   1.540
 4419TIP3   OH213220   1.658   6.211   3.824
 4419TIP3    H113221   1.678   6.122   3.797
 4419TIP3    H213222   1.564   6.221   3.808
 4420TIP3   OH213223   3.874   5.502   2.831
 4420TIP3    H113224   3.836   5.414   2.827
 4420TIP3    H213225   3.819   5.550   2.893
 4421TIP3   OH213226   0.803   1.819   2.199
 4421TIP3    H113227   0.885   1.807   2.247
 4421TIP3    H213228   0.793   1.914   2.192
 4422TIP3   OH213229   2.058   1.860   0.958
 4422TIP3    H113230   2.068   1.923   0.886
 4422TIP3    H213231   2.002   1.791   0.923
 4423TIP3   OH213232   0.235   6.639   4.070
 4423TIP3    H113233   0.222   6.580   4.144
 4423TIP3    H213234   0.175   6.712   4.086
 4424TIP3   OH213235   6.433   0.771   2.011
 4424TIP3    H113236   6.465   0.687   2.044
 4424TIP3    H213237   6.404   0.818   2.090
 4425TIP3   OH213238   2.209   2.159   2.128
 4425TIP3    H113239   2.235   2.171   2.219
 4425TIP3    H213240   2.175   2.069   2.124
 4426TIP3   OH213241   5.906   2.355   4.171
 4426TIP3    H113242   5.958   2.384   4.246
 4426TIP3    H213243   5.868   2.272   4.200
 4427TIP3   OH213244   1.895   2.323   1.879
 4427TIP3    H113245   1.897   2.323   1.974
 4427TIP3    H213246   1.807   2.353   1.857
 4428TIP3   OH213247   3.052   6.221   1.440
 4428TIP3    H113248   2.957   6.219   1.423
 4428TIP3    H213249   3.084   6.290   1.382
 4429TIP3   OH213250   2.705   1.384   3.663
 4429TIP3    H113251   2.732   1.472   3.635
 4429TIP3    H213252   2.610   1.390   3.672
 4430TIP3   OH213253   0.298   0.239   4.831
 4430TIP3    H113254   0.223   0.219   4.775
 4430TIP3    H213255   0.268   0.311   4.886
 4431TIP3   OH213256   6.943   1.324   4.377
 4431TIP3    H113257   6.929   1.374   4.296
 4431TIP3    H213258   6.966   1.391   4.442
 4432TIP3   OH213259   0.392   1.721   1.964
 4432TIP3    H113260   0.458   1.782   1.929
 4432TIP3    H213261   0.326   1.777   2.004
 4433TIP3   OH213262   5.501   6.666   0.323
 4433TIP3    H113263   5.505   6.728   0.250
 4433TIP3    H213264   5.524   6.582   0.284
 4434TIP3   OH213265   0.402   2.572   4.878
 4434TIP3    H113266   0.358   2.646   4.836
 4434TIP3    H213267   0.340   2.500   4.871
 4435TIP3   OH213268   0.736   4.858   3.203
 4435TIP3    H113269   0.660   4.802   3.220
 4435TIP3    H213270   0.718   4.938   3.252
 4436TIP3   OH213271   3.605   0.662   1.338
 4436TIP3    H113272   3.652   0.584   1.368
 4436TIP3    H213273   3.661   0.735   1.363
 4437TIP3   OH213274   4.487   2.899   5.405
 4437TIP3    H113275   4.490   2.809   5.371
 4437TIP3    H213276   4.393   2.920   5.405
 4438TIP3   OH213277   3.406   6.509   2.548
 4438TIP3    H113278   3.473   6.450   2.583
 4438TIP3    H213279   3.333   6.503   2.610
 4439TIP3   OH213280   5.891   4.195   0.157
 4439TIP3    H113281   5.820   4.161   0.212
 4439TIP3    H213282   5.951   4.237   0.217
 4440TIP3   OH213283   5.104   4.396   5.247
 4440TIP3    H113284   5.075   4.338   5.176
 4440TIP3    H213285   5.165   4.457   5.205
 4441TIP3   OH213286   5.827   5.595   1.624
 4441TIP3    H113287   5.857   5.506   1.642
 4441TIP3    H213288   5.761   5.584   1.555
 4442TIP3   OH213289   6.657   1.620   4.415
 4442TIP3    H113290   6.641   1.525   4.414
 4442TIP3    H213291   6.752   1.628   4.415
 4443TIP3   OH213292   0.863   1.352   1.768
 4443TIP3    H113293   0.770   1.352   1.746
 4443TIP3    H213294   0.866   1.328   1.861
 4444TIP3   OH213295   6.686   2.600   2.881
 4444TIP3    H113296   6.673   2.621   2.789
 4444TIP3    H213297   6.621   2.653   2.928
 4445TIP3   OH213298   0.477   6.340   1.691
 4445TIP3    H113299   0.560   6.387   1.704
 4445TIP3    H213300   0.503   6.255   1.655
 4446TIP3   OH213301   6.673   5.724   3.107
 4446TIP3    H113302   6.726   5.675   3.043
 4446TIP3    H213303   6.594   5.747   3.059
 4447TIP3   OH213304   0.054   1.871   3.179
 4447TIP3    H113305  -0.010   1.939   3.157
 4447TIP3    H213306   0.086   1.896   3.266
 4448TIP3   OH213307   1.772   3.302   3.454
 4448TIP3    H113308   1.856   3.267   3.483
 4448TIP3    H213309   1.795   3.375   3.396
 4449TIP3   OH213310   5.804   1.592   4.636
 4449TIP3    H113311   5.769   1.522   4.692
 4449TIP3    H213312   5.892   1.560   4.612
 4450TIP3   OH213313   4.464   0.588   1.873
 4450TIP3    H113314   4.553   0.603   1.842
 4450TIP3    H213315   4.465   0.618   1.964
 4451TIP3   OH213316   4.437   1.948   5.358
 4451TIP3    H113317   4.515   1.892   5.356
 4451TIP3    H213318   4.472   2.037   5.361
 4452TIP3   OH213319   2.183   6.210   5.468
 4452TIP3    H113320   2.124   6.156   5.520
 4452TIP3    H213321   2.269   6.196   5.507
 4453TIP3   OH213322   3.640   4.621   2.878
 4453TIP3    H113323   3.565   4.563   2.888
 4453TIP3    H213324   3.648   4.635   2.784
 4454TIP3   OH213325   5.269   1.094   4.537
 4454TIP3    H113326   5.223   1.178   4.532
 4454TIP3    H213327   5.232   1.043   4.465
 4455TIP3   OH213328   6.662   5.902   1.783
 4455TIP3    H113329   6.662   5.859   1.869
 4455TIP3    H213330   6.599   5.973   1.792
 4456TIP3   OH213331   5.114   2.024   1.442
 4456TIP3    H113332   5.203   2.060   1.450
 4456TIP3    H213333   5.120   1.963   1.368
 4457TIP3   OH213334   5.069   6.619   2.826
 4457TIP3    H113335   5.110   6.546   2.780
 4457TIP3    H213336   5.131   6.641   2.896
 4458TIP3   OH213337   7.180   2.153   2.622
 4458TIP3    H113338   7.256   2.210   2.604
 4458TIP3    H213339   7.113   2.183   2.561
 4459TIP3   OH213340   2.727   6.417   1.746
 4459TIP3    H113341   2.786   6.475   1.794
 4459TIP3    H213342   2.751   6.329   1.773
 4460TIP3   OH213343   2.935   0.082   4.614
 4460TIP3    H113344   2.874   0.091   4.687
 4460TIP3    H213345   2.954   0.172   4.586
 4461TIP3   OH213346   2.015   0.287   1.835
 4461TIP3    H113347   1.996   0.377   1.809
 4461TIP3    H213348   1.953   0.269   1.905
 4462TIP3   OH213349   1.114   0.418   2.954
 4462TIP3    H113350   1.175   0.367   3.007
 4462TIP3    H213351   1.171   0.469   2.895
 4463TIP3   OH213352   4.559   2.558   2.708
 4463TIP3    H113353   4.472   2.589   2.682
 4463TIP3    H213354   4.562   2.467   2.678
 4464TIP3   OH213355   4.773   1.782   2.443
 4464TIP3    H113356   4.739   1.796   2.355
 4464TIP3    H213357   4.735   1.699   2.471
 4465TIP3   OH213358   1.625   5.331   4.309
 4465TIP3    H113359   1.696   5.393   4.320
 4465TIP3    H213360   1.558   5.379   4.259
 4466TIP3   OH213361   3.353   0.704   3.843
 4466TIP3    H113362   3.439   0.667   3.828
 4466TIP3    H213363   3.295   0.628   3.851
 4467TIP3   OH213364   1.216   1.143   3.140
 4467TIP3    H113365   1.142   1.201   3.123
 4467TIP3    H213366   1.205   1.072   3.076
 4468TIP3   OH213367   1.944   5.365   5.074
 4468TIP3    H113368   1.915   5.332   4.989
 4468TIP3    H213369   1.923   5.458   5.072
 4469TIP3   OH213370   2.222   1.325   3.512
 4469TIP3    H113371   2.278   1.250   3.493
 4469TIP3    H213372   2.200   1.362   3.427
 4470TIP3   OH213373   4.817   6.508   2.817
 4470TIP3    H113374   4.903   6.548   2.808
 4470TIP3    H213375   4.783   6.540   2.901
 4471TIP3   OH213376   1.952   1.281   3.624
 4471TIP3    H113377   2.040   1.288   3.588
 4471TIP3    H213378   1.955   1.333   3.705
 4472TIP3   OH213379   6.932   1.050   1.412
 4472TIP3    H113380   6.857   1.024   1.465
 4472TIP3    H213381   6.956   0.972   1.363
 4473TIP3   OH213382   3.682   1.527   0.346
 4473TIP3    H113383   3.687   1.551   0.438
 4473TIP3    H213384   3.758   1.569   0.305
 4474TIP3   OH213385   0.362   6.452   2.477
 4474TIP3    H113386   0.370   6.426   2.385
 4474TIP3    H213387   0.296   6.393   2.513
 4475TIP3   OH213388   2.388   5.368   2.121
 4475TIP3    H113389   2.393   5.274   2.139
 4475TIP3    H213390   2.370   5.407   2.207
 4476TIP3   OH213391   4.296   0.638   1.191
 4476TIP3    H113392   4.324   0.721   1.151
 4476TIP3    H213393   4.274   0.661   1.281
 4477TIP3   OH213394   3.905   4.504   4.587
 4477TIP3    H113395   3.864   4.588   4.568
 4477TIP3    H213396   3.942   4.514   4.675
 4478TIP3   OH213397   6.727   5.618   3.370
 4478TIP3    H113398   6.653   5.642   3.427
 4478TIP3    H213399   6.724   5.682   3.299
 4479TIP3   OH213400   4.270   4.241   5.463
 4479TIP3    H113401   4.212   4.235   5.539
 4479TIP3    H213402   4.217   4.282   5.395
 4480TIP3   OH213403   5.445   1.212   5.705
 4480TIP3    H113404   5.448   1.295   5.752
 4480TIP3    H213405   5.537   1.187   5.694
 4481TIP3   OH213406   1.231   5.381   0.975
 4481TIP3    H113407   1.283   5.458   0.952
 4481TIP3    H213408   1.237   5.324   0.898
 4482TIP3   OH213409   1.027   6.400   5.844
 4482TIP3    H113410   0.949   6.446   5.875
 4482TIP3    H213411   1.001   6.359   5.762
 4483TIP3   OH213412   6.595   2.516   4.207
 4483TIP3    H113413   6.612   2.607   4.233
 4483TIP3    H213414   6.664   2.496   4.144
 4484TIP3   OH213415   5.342   3.946   1.310
 4484TIP3    H113416   5.414   3.939   1.248
 4484TIP3    H213417   5.310   3.857   1.320
 4485TIP3   OH213418   4.226   2.965   5.241
 4485TIP3    H113419   4.231   2.950   5.147
 4485TIP3    H213420   4.161   3.035   5.251
 4486TIP3   OH213421   2.528   6.371   0.801
 4486TIP3    H113422   2.560   6.367   0.711
 4486TIP3    H213423   2.444   6.416   0.795
 4487TIP3   OH213424   0.480   6.320   2.230
 4487TIP3    H113425   0.425   6.242   2.222
 4487TIP3    H213426   0.566   6.293   2.200
 4488TIP3   OH213427   0.807   0.084   1.259
 4488TIP3    H113428   0.773  -0.004   1.242
 4488TIP3    H213429   0.874   0.097   1.193
 4489TIP3   OH213430   2.224   2.373   0.219
 4489TIP3    H113431   2.222   2.319   0.298
 4489TIP3    H213432   2.131   2.391   0.200
 4490TIP3   OH213433   3.611   6.804   1.382
 4490TIP3    H113434   3.645   6.718   1.406
 4490TIP3    H213435   3.525   6.787   1.344
 4491TIP3   OH213436   4.002   5.935   2.844
 4491TIP3    H113437   4.073   5.975   2.894
 4491TIP3    H213438   4.014   5.967   2.754
 4492TIP3   OH213439   4.471   0.007   3.492
 4492TIP3    H113440   4.557  -0.029   3.466
 4492TIP3    H213441   4.436  -0.058   3.554
 4493TIP3   OH213442   2.510   2.074   2.225
 4493TIP3    H113443   2.562   2.001   2.259
 4493TIP3    H213444   2.545   2.151   2.271
 4494TIP3   OH213445   3.104   2.322   5.486
 4494TIP3    H113446   3.161   2.389   5.523
 4494TIP3    H213447   3.161   2.246   5.471
 4495TIP3   OH213448   1.695   1.773   4.862
 4495TIP3    H113449   1.716   1.844   4.801
 4495TIP3    H213450   1.677   1.817   4.945
 4496TIP3   OH213451   6.158   0.255   2.693
 4496TIP3    H113452   6.214   0.201   2.637
 4496TIP3    H213453   6.182   0.345   2.670
 4497TIP3   OH213454   1.018   1.894   0.723
 4497TIP3    H113455   0.995   1.853   0.640
 4497TIP3    H213456   1.052   1.980   0.699
 4498TIP3   OH213457   4.384   4.810   3.901
 4498TIP3    H113458   4.411   4.809   3.993
 4498TIP3    H213459   4.332   4.731   3.889
 4499TIP3   OH213460   3.723   1.468   1.336
 4499TIP3    H113461   3.777   1.417   1.397
 4499TIP3    H213462   3.635   1.430   1.345
 4500TIP3   OH213463   2.172   5.120   3.496
 4500TIP3    H113464   2.102   5.061   3.467
 4500TIP3    H213465   2.222   5.069   3.560
 4501TIP3   OH213466   6.342   3.608   3.981
 4501TIP3    H113467   6.325   3.678   3.918
 4501TIP3    H213468   6.289   3.534   3.951
 4502TIP3   OH213469   1.158   3.619   2.578
 4502TIP3    H113470   1.127   3.579   2.660
 4502TIP3    H213471   1.157   3.713   2.596
 4503TIP3   OH213472   0.480   1.324   0.511
 4503TIP3    H113473   0.515   1.413   0.513
 4503TIP3    H213474   0.403   1.328   0.568
 4504TIP3   OH213475   6.877   5.207   1.680
 4504TIP3    H113476   6.809   5.233   1.743
 4504TIP3    H213477   6.911   5.290   1.646
 4505TIP3   OH213478   2.333   2.131   4.237
 4505TIP3    H113479   2.425   2.151   4.254
 4505TIP3    H213480   2.300   2.207   4.189
 4506TIP3   OH213481   4.497   3.124   1.617
 4506TIP3    H113482   4.580   3.076   1.617
 4506TIP3    H213483   4.469   3.124   1.709
 4507TIP3   OH213484   6.397   1.632   2.179
 4507TIP3    H113485   6.349   1.604   2.257
 4507TIP3    H213486   6.345   1.598   2.106
 4508TIP3   OH213487   6.391   2.149   3.493
 4508TIP3    H113488   6.394   2.237   3.455
 4508TIP3    H213489   6.473   2.108   3.467
 4509TIP3   OH213490   5.597   3.425   5.320
 4509TIP3    H113491   5.526   3.398   5.261
 4509TIP3    H213492   5.630   3.343   5.357
 4510TIP3   OH213493   1.904   1.572   2.684
 4510TIP3    H113494   1.979   1.559   2.626
 4510TIP3    H213495   1.869   1.658   2.660
 4511TIP3   OH213496   5.778   4.490   3.474
 4511TIP3    H113497   5.862   4.443   3.479
 4511TIP3    H213498   5.712   4.420   3.470
 4512TIP3   OH213499   1.844   2.880   1.569
 4512TIP3    H113500   1.909   2.923   1.624
 4512TIP3    H213501   1.878   2.791   1.557
 4513TIP3   OH213502   4.449   5.000   1.567
 4513TIP3    H113503   4.354   4.993   1.558
 4513TIP3    H213504   4.483   4.946   1.496
 4514TIP3   OH213505   0.257   5.262   0.597
 4514TIP3    H113506   0.324   5.325   0.623
 4514TIP3    H213507   0.306   5.185   0.567
 4515TIP3   OH213508   3.348   5.833   3.671
 4515TIP3    H113509   3.275   5.850   3.612
 4515TIP3    H213510   3.328   5.749   3.712
 4516TIP3   OH213511   0.151   2.828   1.290
 4516TIP3    H113512   0.193   2.863   1.368
 4516TIP3    H213513   0.068   2.874   1.284
 4517TIP3   OH213514   1.592   6.675   2.797
 4517TIP3    H113515   1.563   6.689   2.887
 4517TIP3    H213516   1.685   6.652   2.806
 4518TIP3   OH213517   1.512   2.471   1.552
 4518TIP3    H113518   1.463   2.390   1.538
 4518TIP3    H213519   1.460   2.521   1.614
 4519TIP3   OH213520   4.896   5.383   4.455
 4519TIP3    H113521   4.843   5.387   4.535
 4519TIP3    H213522   4.954   5.459   4.462
 4520TIP3   OH213523   3.655   6.586   0.022
 4520TIP3    H113524   3.629   6.529   0.094
 4520TIP3    H213525   3.707   6.530  -0.035
 4521TIP3   OH213526   1.286   3.104   0.423
 4521TIP3    H113527   1.302   3.129   0.332
 4521TIP3    H213528   1.361   3.049   0.447
 4522TIP3   OH213529   4.999   1.024   4.681
 4522TIP3    H113530   5.077   1.044   4.629
 4522TIP3    H213531   5.034   0.980   4.759
 4523TIP3   OH213532   0.923   2.994   4.476
 4523TIP3    H113533   0.974   3.049   4.416
 4523TIP3    H213534   0.933   2.905   4.441
 4524TIP3   OH213535   6.640   3.349   5.540
 4524TIP3    H113536   6.612   3.430   5.583
 4524TIP3    H213537   6.567   3.327   5.483
 4525TIP3   OH213538   4.402   1.450   4.446
 4525TIP3    H113539   4.379   1.362   4.417
 4525TIP3    H213540   4.475   1.475   4.390
 4526TIP3   OH213541   4.155   6.008   5.606
 4526TIP3    H113542   4.239   6.038   5.570
 4526TIP3    H213543   4.092   6.022   5.535
 4527TIP3   OH213544   3.570   0.558   2.977
 4527TIP3    H113545   3.531   0.492   2.920
 4527TIP3    H213546   3.499   0.586   3.035
 4528TIP3   OH213547   4.509   0.044   2.546
 4528TIP3    H113548   4.591   0.026   2.501
 4528TIP3    H213549   4.441   0.009   2.489
 4529TIP3   OH213550   2.996   5.038   2.645
 4529TIP3    H113551   3.004   5.004   2.735
 4529TIP3    H213552   2.908   5.077   2.643
 4530TIP3   OH213553   1.026   0.746   2.982
 4530TIP3    H113554   0.973   0.823   2.965
 4530TIP3    H213555   1.115   0.779   2.992
 4531TIP3   OH213556   0.430   2.430   5.680
 4531TIP3    H113557   0.447   2.461   5.769
 4531TIP3    H213558   0.470   2.496   5.623
 4532TIP3   OH213559   2.997   2.352   0.234
 4532TIP3    H113560   3.038   2.422   0.182
 4532TIP3    H213561   2.919   2.394   0.272
 4533TIP3   OH213562   6.430   6.197   1.660
 4533TIP3    H113563   6.447   6.175   1.568
 4533TIP3    H213564   6.349   6.151   1.681
 4534TIP3   OH213565   2.629   3.481   2.952
 4534TIP3    H113566   2.661   3.497   2.864
 4534TIP3    H213567   2.681   3.407   2.984
 4535TIP3   OH213568   5.793   3.504   2.333
 4535TIP3    H113569   5.840   3.545   2.260
 4535TIP3    H213570   5.702   3.503   2.305
 4536TIP3   OH213571   1.012   0.416   1.145
 4536TIP3    H113572   0.918   0.430   1.147
 4536TIP3    H213573   1.024   0.341   1.087
 4537TIP3   OH213574   1.893   5.398   0.918
 4537TIP3    H113575   1.912   5.479   0.964
 4537TIP3    H213576   1.881   5.333   0.987
 4538TIP3   OH213577   6.252   2.203   4.617
 4538TIP3    H113578   6.268   2.139   4.549
 4538TIP3    H213579   6.161   2.187   4.645
 4539TIP3   OH213580   1.228   0.467   4.688
 4539TIP3    H113581   1.283   0.506   4.620
 4539TIP3    H213582   1.284   0.463   4.765
 4540TIP3   OH213583   3.532   1.911   3.821
 4540TIP3    H113584   3.506   1.819   3.816
 4540TIP3    H213585   3.469   1.957   3.767
 4541TIP3   OH213586   2.509   0.430   0.614
 4541TIP3    H113587   2.457   0.478   0.678
 4541TIP3    H213588   2.593   0.474   0.613
 4542TIP3   OH213589   5.235   5.527   0.335
 4542TIP3    H113590   5.146   5.561   0.329
 4542TIP3    H213591   5.286   5.583   0.277
 4543TIP3   OH213592   0.588   1.457   0.848
 4543TIP3    H113593   0.508   1.495   0.885
 4543TIP3    H213594   0.658   1.487   0.907
 4544TIP3   OH213595   3.806   0.743   2.903
 4544TIP3    H113596   3.809   0.817   2.964
 4544TIP3    H213597   3.720   0.703   2.918
 4545TIP3   OH213598   3.627   4.926   5.406
 4545TIP3    H113599   3.706   4.907   5.458
 4545TIP3    H213600   3.554   4.906   5.465
 4546TIP3   OH213601   4.338   6.239   2.048
 4546TIP3    H113602   4.311   6.158   2.092
 4546TIP3    H213603   4.257   6.279   2.018
 4547TIP3   OH213604   6.761   4.092   4.838
 4547TIP3    H113605   6.829   4.157   4.858
 4547TIP3    H213606   6.688   4.115   4.894
 4548TIP3   OH213607   2.897   1.817   2.402
 4548TIP3    H113608   2.976   1.855   2.364
 4548TIP3    H213609   2.914   1.723   2.404
 4549TIP3   OH213610   2.927   5.213   0.969
 4549TIP3    H113611   3.020   5.235   0.969
 4549TIP3    H213612   2.916   5.157   0.892
 4550TIP3   OH213613   6.380   6.269   2.808
 4550TIP3    H113614   6.337   6.342   2.763
 4550TIP3    H213615   6.380   6.295   2.900
 4551TIP3   OH213616   4.041   5.114   3.408
 4551TIP3    H113617   4.016   5.095   3.317
 4551TIP3    H213618   4.089   5.036   3.436
 4552TIP3   OH213619   7.080   0.875   1.649
 4552TIP3    H113620   7.061   0.969   1.652
 4552TIP3    H213621   7.033   0.839   1.724
 4553TIP3   OH213622   5.956   1.783   1.267
 4553TIP3    H113623   6.041   1.814   1.234
 4553TIP3    H213624   5.951   1.692   1.238
 4554TIP3   OH213625   3.787   6.351   0.281
 4554TIP3    H113626   3.705   6.343   0.232
 4554TIP3    H213627   3.848   6.295   0.235
 4555TIP3   OH213628   0.606   5.652   5.522
 4555TIP3    H113629   0.616   5.569   5.476
 4555TIP3    H213630   0.513   5.657   5.543
 4556TIP3   OH213631   1.433   2.000   3.672
 4556TIP3    H113632   1.401   1.910   3.682
 4556TIP3    H213633   1.411   2.043   3.755
 4557TIP3   OH213634   5.976   0.142   5.196
 4557TIP3    H113635   5.901   0.141   5.256
 4557TIP3    H213636   5.976   0.231   5.160
 4558TIP3   OH213637   0.618   4.026   2.041
 4558TIP3    H113638   0.674   3.952   2.064
 4558TIP3    H213639   0.663   4.102   2.077
 4559TIP3   OH213640   0.997   1.824   1.840
 4559TIP3    H113641   1.077   1.797   1.884
 4559TIP3    H213642   0.975   1.751   1.782
 4560TIP3   OH213643   1.960   0.065   2.979
 4560TIP3    H113644   2.008   0.050   3.061
 4560TIP3    H213645   1.902  -0.011   2.971
 4561TIP3   OH213646   4.429   5.271   2.430
 4561TIP3    H113647   4.466   5.273   2.518
 4561TIP3    H213648   4.367   5.197   2.432
 4562TIP3   OH213649   4.025   2.170   2.859
 4562TIP3    H113650   4.018   2.254   2.814
 4562TIP3    H213651   4.105   2.177   2.911
 4563TIP3   OH213652   3.552   1.850   5.461
 4563TIP3    H113653   3.632   1.844   5.409
 4563TIP3    H213654   3.556   1.937   5.501
 4564TIP3   OH213655   2.608   0.067   1.050
 4564TIP3    H113656   2.611   0.025   1.136
 4564TIP3    H213657   2.665   0.144   1.060
 4565TIP3   OH213658   3.046   6.036   4.734
 4565TIP3    H113659   3.004   6.103   4.788
 4565TIP3    H213660   3.120   6.006   4.787
 4566TIP3   OH213661   0.451   2.994   0.113
 4566TIP3    H113662   0.459   3.033   0.200
 4566TIP3    H213663   0.534   2.948   0.099
 4567TIP3   OH213664   4.494   5.813   4.757
 4567TIP3    H113665   4.426   5.844   4.816
 4567TIP3    H213666   4.516   5.726   4.790
 4568TIP3   OH213667   5.470   0.018   1.420
 4568TIP3    H113668   5.524  -0.057   1.445
 4568TIP3    H213669   5.401  -0.020   1.366
 4569TIP3   OH213670   2.141   2.882   4.564
 4569TIP3    H113671   2.130   2.791   4.537
 4569TIP3    H213672   2.054   2.909   4.594
 4570TIP3   OH213673   5.028   5.760   0.599
 4570TIP3    H113674   5.104   5.814   0.618
 4570TIP3    H213675   5.033   5.745   0.505
 4571TIP3   OH213676   4.186   6.644   3.160
 4571TIP3    H113677   4.167   6.691   3.078
 4571TIP3    H213678   4.224   6.711   3.217
 4572TIP3   OH213679   0.188   4.057   0.939
 4572TIP3    H113680   0.115   4.040   0.999
 4572TIP3    H213681   0.244   4.118   0.987
 4573TIP3   OH213682   6.218   0.532   4.115
 4573TIP3    H113683   6.125   0.542   4.132
 4573TIP3    H213684   6.256   0.615   4.142
 4574TIP3   OH213685   2.709   3.392   4.638
 4574TIP3    H113686   2.681   3.314   4.591
 4574TIP3    H213687   2.653   3.395   4.716
 4575TIP3   OH213688   3.092   3.486   4.581
 4575TIP3    H113689   3.027   3.420   4.560
 4575TIP3    H213690   3.174   3.452   4.544
 4576TIP3   OH213691   0.572   1.549   0.314
 4576TIP3    H113692   0.481   1.566   0.290
 4576TIP3    H213693   0.577   1.571   0.407
 4577TIP3   OH213694   4.717   2.887   5.565
 4577TIP3    H113695   4.738   2.797   5.538
 4577TIP3    H213696   4.676   2.926   5.488
 4578TIP3   OH213697   4.311   5.860   0.513
 4578TIP3    H113698   4.345   5.908   0.589
 4578TIP3    H213699   4.322   5.920   0.440
 4579TIP3   OH213700   1.001   2.813   1.343
 4579TIP3    H113701   0.961   2.869   1.410
 4579TIP3    H213702   1.082   2.783   1.384
 4580TIP3   OH213703   5.487   2.956   1.234
 4580TIP3    H113704   5.414   3.001   1.192
 4580TIP3    H213705   5.477   2.864   1.209
 4581TIP3   OH213706   0.802   6.746   1.298
 4581TIP3    H113707   0.774   6.799   1.223
 4581TIP3    H213708   0.780   6.656   1.274
 4582TIP3   OH213709   5.815   6.724   0.830
 4582TIP3    H113710   5.819   6.628   0.828
 4582TIP3    H213711   5.876   6.752   0.761
 4583TIP3   OH213712   3.635   3.350   1.709
 4583TIP3    H113713   3.593   3.313   1.787
 4583TIP3    H213714   3.668   3.435   1.739
 4584TIP3   OH213715   1.404   1.773   5.878
 4584TIP3    H113716   1.393   1.754   5.971
 4584TIP3    H213717   1.419   1.687   5.838
 4585TIP3   OH213718   2.375   4.768   5.018
 4585TIP3    H113719   2.299   4.819   5.047
 4585TIP3    H213720   2.341   4.679   5.007
 4586TIP3   OH213721   6.772   2.368   4.336
 4586TIP3    H113722   6.765   2.387   4.430
 4586TIP3    H213723   6.694   2.409   4.297
 4587TIP3   OH213724   2.736   1.090   5.357
 4587TIP3    H113725   2.788   1.166   5.329
 4587TIP3    H213726   2.649   1.105   5.318
 4588TIP3   OH213727   5.222   6.616   2.083
 4588TIP3    H113728   5.128   6.626   2.067
 4588TIP3    H213729   5.235   6.521   2.090
 4589TIP3   OH213730   1.386   2.006   1.776
 4589TIP3    H113731   1.422   2.033   1.861
 4589TIP3    H213732   1.402   1.912   1.771
 4590TIP3   OH213733   2.283   0.804   5.204
 4590TIP3    H113734   2.374   0.821   5.180
 4590TIP3    H213735   2.280   0.709   5.219
 4591TIP3   OH213736   4.246   1.584   2.024
 4591TIP3    H113737   4.307   1.595   1.950
 4591TIP3    H213738   4.162   1.616   1.991
 4592TIP3   OH213739   6.589   3.319   0.247
 4592TIP3    H113740   6.580   3.228   0.220
 4592TIP3    H213741   6.654   3.317   0.318
 4593TIP3   OH213742   0.440   2.252   5.332
 4593TIP3    H113743   0.506   2.263   5.401
 4593TIP3    H213744   0.472   2.179   5.280
 4594TIP3   OH213745   5.410   4.808   0.463
 4594TIP3    H113746   5.333   4.753   0.449
 4594TIP3    H213747   5.416   4.818   0.558
 4595TIP3   OH213748   1.563   0.983   4.234
 4595TIP3    H113749   1.555   1.073   4.203
 4595TIP3    H213750   1.549   0.989   4.329
 4596TIP3   OH213751   6.593   6.601   3.543
 4596TIP3    H113752   6.577   6.525   3.486
 4596TIP3    H213753   6.688   6.610   3.545
 4597TIP3   OH213754   1.423   0.467   0.026
 4597TIP3    H113755   1.421   0.501  -0.064
 4597TIP3    H213756   1.463   0.538   0.077
 4598TIP3   OH213757   5.031   1.899   0.084
 4598TIP3    H113758   5.018   1.865  -0.005
 4598TIP3    H213759   5.125   1.890   0.099
 4599TIP3   OH213760   4.219   3.973   0.969
 4599TIP3    H113761   4.258   4.054   1.004
 4599TIP3    H213762   4.137   3.964   1.016
 4600TIP3   OH213763   4.863   5.960   0.796
 4600TIP3    H113764   4.883   5.868   0.814
 4600TIP3    H213765   4.948   6.003   0.795
 4601TIP3   OH213766   3.873   5.182   5.881
 4601TIP3    H113767   3.869   5.209   5.789
 4601TIP3    H213768   3.785   5.152   5.901
 4602TIP3   OH213769   2.003   0.529   0.878
 4602TIP3    H113770   2.089   0.510   0.841
 4602TIP3    H213771   1.941   0.511   0.807
 4603TIP3   OH213772   6.401   4.000   0.894
 4603TIP3    H113773   6.343   3.945   0.841
 4603TIP3    H213774   6.487   3.960   0.884
 4604TIP3   OH213775   6.929   5.523   4.581
 4604TIP3    H113776   6.990   5.577   4.632
 4604TIP3    H213777   6.843   5.561   4.599
 4605TIP3   OH213778   4.512   6.349   1.429
 4605TIP3    H113779   4.559   6.346   1.345
 4605TIP3    H213780   4.516   6.441   1.455
 4606TIP3   OH213781   6.285   3.180   2.112
 4606TIP3    H113782   6.379   3.179   2.128
 4606TIP3    H213783   6.248   3.227   2.187
 4607TIP3   OH213784   0.423   1.114   3.236
 4607TIP3    H113785   0.458   1.128   3.148
 4607TIP3    H213786   0.332   1.142   3.231
 4608TIP3   OH213787   7.141   3.948   4.304
 4608TIP3    H113788   7.052   3.959   4.336
 4608TIP3    H213789   7.192   3.919   4.380
 4609TIP3   OH213790   0.968   2.334   4.918
 4609TIP3    H113791   1.034   2.283   4.872
 4609TIP3    H213792   0.906   2.269   4.950
 4610TIP3   OH213793   2.736   3.781   5.007
 4610TIP3    H113794   2.713   3.858   4.954
 4610TIP3    H213795   2.782   3.723   4.948
 4611TIP3   OH213796   4.301   2.644   2.638
 4611TIP3    H113797   4.227   2.705   2.646
 4611TIP3    H213798   4.316   2.636   2.544
 4612TIP3   OH213799   6.804   2.499   4.033
 4612TIP3    H113800   6.897   2.514   4.016
 4612TIP3    H213801   6.796   2.403   4.040
 4613TIP3   OH213802   2.573   3.438   1.739
 4613TIP3    H113803   2.623   3.454   1.659
 4613TIP3    H213804   2.619   3.486   1.807
 4614TIP3   OH213805   6.159   5.829   5.091
 4614TIP3    H113806   6.083   5.770   5.089
 4614TIP3    H213807   6.210   5.805   5.014
 4615TIP3   OH213808   5.005   0.588   5.208
 4615TIP3    H113809   5.082   0.532   5.195
 4615TIP3    H213810   4.999   0.599   5.303
 4616TIP3   OH213811   2.872   4.363   2.767
 4616TIP3    H113812   2.827   4.348   2.850
 4616TIP3    H213813   2.832   4.441   2.730
 4617TIP3   OH213814   2.406   5.471   4.123
 4617TIP3    H113815   2.462   5.412   4.174
 4617TIP3    H213816   2.452   5.482   4.040
 4618TIP3   OH213817   1.971   1.949   0.089
 4618TIP3    H113818   1.952   2.016   0.024
 4618TIP3    H213819   2.036   1.989   0.147
 4619TIP3   OH213820   4.976   3.999   2.611
 4619TIP3    H113821   4.890   3.994   2.570
 4619TIP3    H213822   5.028   3.933   2.566
 4620TIP3   OH213823   0.124   2.759   4.013
 4620TIP3    H113824   0.108   2.848   3.981
 4620TIP3    H213825   0.045   2.737   4.063
 4621TIP3   OH213826   5.079   3.168   5.635
 4621TIP3    H113827   5.154   3.194   5.581
 4621TIP3    H213828   5.002   3.190   5.582
 4622TIP3   OH213829   5.800   0.707   3.745
 4622TIP3    H113830   5.824   0.691   3.654
 4622TIP3    H213831   5.884   0.711   3.791
 4623TIP3   OH213832   2.118   5.082   3.898
 4623TIP3    H113833   2.169   5.157   3.868
 4623TIP3    H213834   2.108   5.096   3.992
 4624TIP3   OH213835   7.183   4.204   0.793
 4624TIP3    H113836   7.199   4.140   0.724
 4624TIP3    H213837   7.245   4.181   0.862
 4625TIP3   OH213838   6.544   5.352   0.754
 4625TIP3    H113839   6.449   5.362   0.751
 4625TIP3    H213840   6.560   5.260   0.733
 4626TIP3   OH213841   0.037   5.630   2.803
 4626TIP3    H113842   0.100   5.587   2.745
 4626TIP3    H213843  -0.019   5.559   2.834
 4627TIP3   OH213844   6.911   4.820   4.588
 4627TIP3    H113845   6.915   4.726   4.603
 4627TIP3    H213846   7.003   4.849   4.591
 4628TIP3   OH213847   3.557   4.811   1.145
 4628TIP3    H113848   3.534   4.737   1.090
 4628TIP3    H213849   3.644   4.837   1.116
 4629TIP3   OH213850   1.010   0.911   2.654
 4629TIP3    H113851   1.014   1.003   2.628
 4629TIP3    H213852   1.006   0.913   2.750
 4630TIP3   OH213853   5.925   4.197   1.272
 4630TIP3    H113854   5.887   4.144   1.342
 4630TIP3    H213855   5.851   4.244   1.234
 4631TIP3   OH213856   2.866   6.714   1.193
 4631TIP3    H113857   2.778   6.684   1.217
 4631TIP3    H213858   2.853   6.804   1.164
 4632TIP3   OH213859   4.591   2.240   4.095
 4632TIP3    H113860   4.661   2.207   4.039
 4632TIP3    H213861   4.623   2.225   4.184
 4633TIP3   OH213862   1.166   2.539   3.776
 4633TIP3    H113863   1.166   2.635   3.777
 4633TIP3    H213864   1.244   2.515   3.726
 4634TIP3   OH213865   3.000   2.220   2.324
 4634TIP3    H113866   2.946   2.172   2.388
 4634TIP3    H213867   2.937   2.276   2.278
 4635TIP3   OH213868   6.079   1.531   4.590
 4635TIP3    H113869   6.103   1.518   4.681
 4635TIP3    H213870   6.107   1.621   4.570
 4636TIP3   OH213871   4.703   5.658   0.870
 4636TIP3    H113872   4.674   5.662   0.961
 4636TIP3    H213873   4.785   5.609   0.873
 4637TIP3   OH213874   0.038   3.030   3.941
 4637TIP3    H113875   0.126   3.036   3.977
 4637TIP3    H213876   0.013   3.120   3.922
 4638TIP3   OH213877   0.940   2.748   4.010
 4638TIP3    H113878   0.948   2.820   3.948
 4638TIP3    H213879   0.926   2.671   3.954
 4639TIP3   OH213880   7.162   0.141   0.688
 4639TIP3    H113881   7.129   0.057   0.658
 4639TIP3    H213882   7.256   0.126   0.701
 4640TIP3   OH213883   6.786   6.581   2.212
 4640TIP3    H113884   6.708   6.603   2.263
 4640TIP3    H213885   6.762   6.603   2.122
 4641TIP3   OH213886   0.495   0.485   3.426
 4641TIP3    H113887   0.583   0.450   3.418
 4641TIP3    H213888   0.482   0.498   3.520
 4642TIP3   OH213889   5.038   1.796   2.435
 4642TIP3    H113890   4.952   1.831   2.414
 4642TIP3    H213891   5.036   1.782   2.530
 4643TIP3   OH213892   1.905   6.634   5.087
 4643TIP3    H113893   1.915   6.539   5.089
 4643TIP3    H213894   1.891   6.655   4.995
 4644TIP3   OH213895   1.431   5.939   5.032
 4644TIP3    H113896   1.451   5.848   5.009
 4644TIP3    H213897   1.431   5.985   4.948
 4645TIP3   OH213898   4.170   1.236   5.160
 4645TIP3    H113899   4.213   1.282   5.088
 4645TIP3    H213900   4.169   1.144   5.133
 4646TIP3   OH213901   4.224   4.381   3.544
 4646TIP3    H113902   4.296   4.339   3.497
 4646TIP3    H213903   4.155   4.390   3.478
 4647TIP3   OH213904   2.469   1.590   0.692
 4647TIP3    H113905   2.419   1.522   0.738
 4647TIP3    H213906   2.405   1.656   0.669
 4648TIP3   OH213907   1.755   2.843   2.719
 4648TIP3    H113908   1.782   2.830   2.628
 4648TIP3    H213909   1.659   2.837   2.717
 4649TIP3   OH213910   7.138   1.821   4.392
 4649TIP3    H113911   7.203   1.789   4.330
 4649TIP3    H213912   7.054   1.811   4.347
 4650TIP3   OH213913   0.905   0.125   4.232
 4650TIP3    H113914   0.942   0.127   4.320
 4650TIP3    H213915   0.842   0.053   4.234
 4651TIP3   OH213916   3.791   4.463   2.003
 4651TIP3    H113917   3.820   4.372   1.994
 4651TIP3    H213918   3.855   4.513   1.952
 4652TIP3   OH213919   2.563   2.208   0.874
 4652TIP3    H113920   2.556   2.249   0.787
 4652TIP3    H213921   2.601   2.276   0.929
 4653TIP3   OH213922   2.815   5.644   3.885
 4653TIP3    H113923   2.769   5.715   3.930
 4653TIP3    H213924   2.816   5.572   3.948
 4654TIP3   OH213925   3.944   0.607   5.554
 4654TIP3    H113926   3.865   0.660   5.550
 4654TIP3    H213927   3.998   0.641   5.483
 4655TIP3   OH213928   1.419   4.534   3.578
 4655TIP3    H113929   1.337   4.568   3.544
 4655TIP3    H213930   1.470   4.612   3.600
 4656TIP3   OH213931   5.838   0.808   5.748
 4656TIP3    H113932   5.855   0.813   5.654
 4656TIP3    H213933   5.755   0.761   5.754
 4657TIP3   OH213934   2.620   6.044   3.822
 4657TIP3    H113935   2.657   5.976   3.879
 4657TIP3    H213936   2.532   6.013   3.802
 4658TIP3   OH213937   1.035   5.508   5.695
 4658TIP3    H113938   1.098   5.531   5.763
 4658TIP3    H213939   0.952   5.499   5.741
 4659TIP3   OH213940   7.065   4.710   0.121
 4659TIP3    H113941   7.010   4.784   0.148
 4659TIP3    H213942   7.004   4.637   0.114
 4660TIP3   OH213943   2.278   4.786   0.031
 4660TIP3    H113944   2.245   4.843   0.101
 4660TIP3    H213945   2.302   4.705   0.076
 4661TIP3   OH213946   4.823   6.551   5.266
 4661TIP3    H113947   4.737   6.594   5.269
 4661TIP3    H213948   4.823   6.506   5.181
 4662TIP3   OH213949   6.939   0.950   3.720
 4662TIP3    H113950   6.875   0.994   3.776
 4662TIP3    H213951   7.024   0.973   3.758
 4663TIP3   OH213952   2.542   3.992   3.592
 4663TIP3    H113953   2.601   4.066   3.605
 4663TIP3    H213954   2.584   3.939   3.525
 4664TIP3   OH213955   2.019   3.770   5.487
 4664TIP3    H113956   2.012   3.863   5.507
 4664TIP3    H213957   1.969   3.759   5.406
 4665TIP3   OH213958   4.616   5.883   3.197
 4665TIP3    H113959   4.541   5.943   3.204
 4665TIP3    H213960   4.576   5.796   3.202
 4666TIP3   OH213961   4.498   1.138   1.325
 4666TIP3    H113962   4.410   1.172   1.337
 4666TIP3    H213963   4.550   1.215   1.303
 4667TIP3   OH213964   3.212   6.303   0.718
 4667TIP3    H113965   3.250   6.385   0.752
 4667TIP3    H213966   3.288   6.247   0.703
 4668TIP3   OH213967   3.604   6.241   4.788
 4668TIP3    H113968   3.571   6.228   4.877
 4668TIP3    H213969   3.578   6.162   4.741
 4669TIP3   OH213970   6.947   2.371   0.194
 4669TIP3    H113971   6.908   2.294   0.153
 4669TIP3    H213972   7.040   2.363   0.174
 4670TIP3   OH213973   4.520   1.938   4.356
 4670TIP3    H113974   4.441   1.922   4.304
 4670TIP3    H213975   4.503   2.019   4.404
 4671TIP3   OH213976   3.235   6.476   3.909
 4671TIP3    H113977   3.142   6.494   3.894
 4671TIP3    H213978   3.280   6.523   3.839
 4672TIP3   OH213979   7.100   4.258   3.291
 4672TIP3    H113980   7.121   4.349   3.310
 4672TIP3    H213981   7.077   4.256   3.198
 4673TIP3   OH213982   0.981   3.520   5.288
 4673TIP3    H113983   0.902   3.537   5.236
 4673TIP3    H213984   0.948   3.505   5.377
 4674TIP3   OH213985   4.301   1.308   4.033
 4674TIP3    H113986   4.306   1.403   4.038
 4674TIP3    H213987   4.219   1.291   3.986
 4675TIP3   OH213988   3.861   5.902   1.838
 4675TIP3    H113989   3.898   5.814   1.840
 4675TIP3    H213990   3.806   5.908   1.916
 4676TIP3   OH213991   1.322   2.299   3.104
 4676TIP3    H113992   1.382   2.251   3.162
 4676TIP3    H213993   1.236   2.261   3.122
 4677TIP3   OH213994   3.552   0.865   2.597
 4677TIP3    H113995   3.513   0.925   2.533
 4677TIP3    H213996   3.485   0.855   2.664
 4678TIP3   OH213997   4.598   1.421   1.259
 4678TIP3    H113998   4.542   1.498   1.255
 4678TIP3    H213999   4.650   1.433   1.338
 4679TIP3   OH214000   6.465   4.226   5.619
 4679TIP3    H114001   6.426   4.235   5.532
 4679TIP3    H214002   6.400   4.177   5.670
 4680TIP3   OH214003   5.283   2.318   3.429
 4680TIP3    H114004   5.321   2.373   3.361
 4680TIP3    H214005   5.354   2.309   3.494
 4681TIP3   OH214006   5.989   1.701   0.054
 4681TIP3    H114007   5.901   1.677   0.083
 4681TIP3    H214008   6.047   1.650   0.111
 4682TIP3   OH214009   7.188   2.820   3.694
 4682TIP3    H114010   7.146   2.854   3.615
 4682TIP3    H214011   7.165   2.883   3.763
 4683TIP3   OH214012   0.622   3.744   5.160
 4683TIP3    H114013   0.661   3.671   5.111
 4683TIP3    H214014   0.561   3.702   5.220
 4684TIP3   OH214015   6.905   0.752   4.655
 4684TIP3    H114016   6.939   0.714   4.574
 4684TIP3    H214017   6.951   0.705   4.724
 4685TIP3   OH214018   2.187   3.994   1.503
 4685TIP3    H114019   2.101   4.005   1.543
 4685TIP3    H214020   2.225   4.082   1.503
 4686TIP3   OH214021   4.947   5.515   3.608
 4686TIP3    H114022   4.989   5.511   3.694
 4686TIP3    H214023   4.921   5.606   3.598
 4687TIP3   OH214024   5.209   5.257   3.672
 4687TIP3    H114025   5.160   5.221   3.598
 4687TIP3    H214026   5.290   5.207   3.674
 4688TIP3   OH214027   6.713   0.862   1.071
 4688TIP3    H114028   6.792   0.914   1.085
 4688TIP3    H214029   6.739   0.773   1.095
 4689TIP3   OH214030   0.825   3.828   0.746
 4689TIP3    H114031   0.894   3.775   0.786
 4689TIP3    H214032   0.776   3.863   0.821
 4690TIP3   OH214033   0.487   2.012   5.195
 4690TIP3    H114034   0.505   2.032   5.104
 4690TIP3    H214035   0.394   1.987   5.197
 4691TIP3   OH214036   5.734   4.626   0.320
 4691TIP3    H114037   5.731   4.716   0.355
 4691TIP3    H214038   5.663   4.581   0.366
 4692TIP3   OH214039   5.485   2.071   0.202
 4692TIP3    H114040   5.568   2.085   0.157
 4692TIP3    H214041   5.450   2.159   0.215
 4693TIP3   OH214042   2.285   1.598   5.474
 4693TIP3    H114043   2.330   1.534   5.420
 4693TIP3    H214044   2.249   1.661   5.412
 4694TIP3   OH214045   4.646   3.015   2.672
 4694TIP3    H114046   4.717   2.960   2.705
 4694TIP3    H214047   4.572   2.955   2.662
 4695TIP3   OH214048   1.155   6.785   2.055
 4695TIP3    H114049   1.202   6.848   2.000
 4695TIP3    H214050   1.188   6.700   2.026
 4696TIP3   OH214051   2.652   4.641   5.188
 4696TIP3    H114052   2.620   4.590   5.262
 4696TIP3    H214053   2.694   4.577   5.131
 4697TIP3   OH214054   0.872   5.876   4.134
 4697TIP3    H114055   0.846   5.967   4.124
 4697TIP3    H214056   0.890   5.866   4.227
 4698TIP3   OH214057   6.103   4.112   5.398
 4698TIP3    H114058   6.095   4.128   5.304
 4698TIP3    H214059   6.013   4.100   5.428
 4699TIP3   OH214060   1.187   2.090   4.744
 4699TIP3    H114061   1.245   2.135   4.681
 4699TIP3    H214062   1.247   2.056   4.810
 4700TIP3   OH214063   4.934   6.122   5.120
 4700TIP3    H114064   5.006   6.079   5.074
 4700TIP3    H214065   4.855   6.091   5.075
 4701TIP3   OH214066   6.240   2.399   3.172
 4701TIP3    H114067   6.210   2.340   3.241
 4701TIP3    H214068   6.334   2.406   3.186
 4702TIP3   OH214069   3.869   4.509   0.363
 4702TIP3    H114070   3.939   4.572   0.344
 4702TIP3    H214071   3.902   4.458   0.437
 4703TIP3   OH214072   1.923   2.612   1.562
 4703TIP3    H114073   1.877   2.542   1.515
 4703TIP3    H214074   2.016   2.589   1.555
 4704TIP3   OH214075   3.843   5.402   0.708
 4704TIP3    H114076   3.927   5.395   0.751
 4704TIP3    H214077   3.808   5.313   0.709
 4705TIP3   OH214078   7.182   3.575   4.353
 4705TIP3    H114079   7.243   3.501   4.344
 4705TIP3    H214080   7.236   3.646   4.388
 4706TIP3   OH214081   6.568   0.137   4.013
 4706TIP3    H114082   6.540   0.070   4.075
 4706TIP3    H214083   6.556   0.097   3.927
 4707TIP3   OH214084   0.435   5.802   5.157
 4707TIP3    H114085   0.423   5.717   5.115
 4707TIP3    H214086   0.480   5.855   5.091
 4708TIP3   OH214087   1.559   1.664   3.521
 4708TIP3    H114088   1.540   1.751   3.486
 4708TIP3    H214089   1.474   1.622   3.531
 4709TIP3   OH214090   6.449   0.340   3.836
 4709TIP3    H114091   6.445   0.431   3.863
 4709TIP3    H214092   6.419   0.291   3.912
 4710TIP3   OH214093   1.960   2.741   0.751
 4710TIP3    H114094   1.995   2.769   0.836
 4710TIP3    H214095   1.867   2.724   0.768
 4711TIP3   OH214096   7.178   2.074   1.031
 4711TIP3    H114097   7.213   2.006   1.088
 4711TIP3    H214098   7.203   2.156   1.074
 4712TIP3   OH214099   3.832   1.389   4.120
 4712TIP3    H114100   3.815   1.299   4.094
 4712TIP3    H214101   3.746   1.424   4.144
 4713TIP3   OH214102   5.360   6.782   5.345
 4713TIP3    H114103   5.334   6.871   5.320
 4713TIP3    H214104   5.279   6.732   5.339
 4714TIP3   OH214105   1.022   1.921   4.470
 4714TIP3    H114106   0.965   1.894   4.398
 4714TIP3    H214107   0.970   1.985   4.519
 4715TIP3   OH214108   2.990   6.530   1.820
 4715TIP3    H114109   3.037   6.558   1.899
 4715TIP3    H214110   3.036   6.451   1.792
 4716TIP3   OH214111   3.385   6.466   4.377
 4716TIP3    H114112   3.408   6.418   4.298
 4716TIP3    H214113   3.442   6.431   4.445
 4717TIP3   OH214114   4.651   4.989   3.033
 4717TIP3    H114115   4.650   4.941   3.116
 4717TIP3    H214116   4.714   5.060   3.047
 4718TIP3   OH214117   2.462   6.754   3.008
 4718TIP3    H114118   2.380   6.732   2.964
 4718TIP3    H214119   2.465   6.695   3.083
 4719TIP3   OH214120   1.019   2.708   2.947
 4719TIP3    H114121   0.947   2.696   2.885
 4719TIP3    H214122   0.989   2.778   3.004
 4720TIP3   OH214123   3.227   2.439   2.315
 4720TIP3    H114124   3.196   2.354   2.287
 4720TIP3    H214125   3.191   2.450   2.403
 4721TIP3   OH214126   3.067   6.132   4.168
 4721TIP3    H114127   3.067   6.130   4.263
 4721TIP3    H214128   2.983   6.093   4.143
 4722TIP3   OH214129   5.162   1.472   1.812
 4722TIP3    H114130   5.236   1.512   1.768
 4722TIP3    H214131   5.155   1.517   1.896
 4723TIP3   OH214132   2.177   5.796   5.491
 4723TIP3    H114133   2.104   5.754   5.445
 4723TIP3    H214134   2.136   5.843   5.564
 4724TIP3   OH214135   4.301   4.259   3.882
 4724TIP3    H114136   4.213   4.290   3.862
 4724TIP3    H214137   4.306   4.262   3.978
 4725TIP3   OH214138   5.731   5.411   2.973
 4725TIP3    H114139   5.737   5.472   3.047
 4725TIP3    H214140   5.686   5.460   2.905
 4726TIP3   OH214141   4.449   0.381   0.761
 4726TIP3    H114142   4.545   0.384   0.762
 4726TIP3    H214143   4.423   0.423   0.844
 4727TIP3   OH214144   4.572   0.742   3.734
 4727TIP3    H114145   4.490   0.697   3.754
 4727TIP3    H214146   4.556   0.785   3.651
 4728TIP3   OH214147   4.995   6.126   4.288
 4728TIP3    H114148   5.043   6.169   4.359
 4728TIP3    H214149   4.905   6.122   4.319
 4729TIP3   OH214150   1.775   5.114   1.830
 4729TIP3    H114151   1.808   5.195   1.792
 4729TIP3    H214152   1.807   5.115   1.921
 4730TIP3   OH214153   5.429   6.038   2.634
 4730TIP3    H114154   5.374   5.964   2.611
 4730TIP3    H214155   5.502   6.035   2.572
 4731TIP3   OH214156   2.204   6.568   5.011
 4731TIP3    H114157   2.276   6.555   5.073
 4731TIP3    H214158   2.172   6.480   4.993
 4732TIP3   OH214159   3.703   0.740   4.903
 4732TIP3    H114160   3.630   0.696   4.945
 4732TIP3    H214161   3.663   0.790   4.831
 4733TIP3   OH214162   6.557   4.955   3.943
 4733TIP3    H114163   6.552   5.016   4.016
 4733TIP3    H214164   6.519   4.874   3.976
 4734TIP3   OH214165   5.060   5.433   0.625
 4734TIP3    H114166   5.111   5.507   0.658
 4734TIP3    H214167   5.115   5.356   0.642
 4735TIP3   OH214168   5.700   1.960   0.525
 4735TIP3    H114169   5.659   2.046   0.512
 4735TIP3    H214170   5.769   1.957   0.459
 4736TIP3   OH214171   0.162   6.412   1.141
 4736TIP3    H114172   0.141   6.344   1.205
 4736TIP3    H214173   0.151   6.494   1.188
 4737TIP3   OH214174   6.126   5.988   0.279
 4737TIP3    H114175   6.205   5.936   0.263
 4737TIP3    H214176   6.058   5.923   0.294
 4738TIP3   OH214177   1.950   4.547   5.600
 4738TIP3    H114178   1.949   4.618   5.535
 4738TIP3    H214179   1.928   4.468   5.551
 4739TIP3   OH214180   4.890   5.027   3.884
 4739TIP3    H114181   4.933   5.038   3.969
 4739TIP3    H214182   4.885   5.116   3.848
 4740TIP3   OH214183   1.869   4.969   3.149
 4740TIP3    H114184   1.963   4.982   3.165
 4740TIP3    H214185   1.864   4.883   3.106
 4741TIP3   OH214186   5.937   1.366   1.113
 4741TIP3    H114187   6.026   1.357   1.078
 4741TIP3    H214188   5.881   1.329   1.045
 4742TIP3   OH214189   3.933   1.319   0.239
 4742TIP3    H114190   4.001   1.358   0.294
 4742TIP3    H214191   3.867   1.286   0.300
 4743TIP3   OH214192   1.810   2.952   4.268
 4743TIP3    H114193   1.869   3.023   4.295
 4743TIP3    H214194   1.859   2.904   4.202
 4744TIP3   OH214195   6.770   1.812   4.997
 4744TIP3    H114196   6.773   1.799   4.903
 4744TIP3    H214197   6.840   1.874   5.015
 4745TIP3   OH214198   5.595   1.243   2.200
 4745TIP3    H114199   5.602   1.149   2.187
 4745TIP3    H214200   5.534   1.253   2.273
 4746TIP3   OH214201   6.291   2.134   0.360
 4746TIP3    H114202   6.333   2.075   0.297
 4746TIP3    H214203   6.257   2.206   0.307
 4747TIP3   OH214204   6.938   1.409   5.665
 4747TIP3    H114205   6.968   1.339   5.723
 4747TIP3    H214206   6.881   1.463   5.720
 4748TIP3   OH214207   0.489   5.757   1.076
 4748TIP3    H114208   0.500   5.713   0.992
 4748TIP3    H214209   0.520   5.846   1.061
 4749TIP3   OH214210   4.860   3.306   0.757
 4749TIP3    H114211   4.812   3.352   0.826
 4749TIP3    H214212   4.792   3.262   0.706
 4750TIP3   OH214213   0.240   5.321   5.227
 4750TIP3    H114214   0.231   5.364   5.312
 4750TIP3    H214215   0.323   5.275   5.232
 4751TIP3   OH214216   3.288   2.612   4.448
 4751TIP3    H114217   3.309   2.620   4.355
 4751TIP3    H214218   3.323   2.692   4.487
 4752TIP3   OH214219   2.758   4.690   0.994
 4752TIP3    H114220   2.720   4.761   0.942
 4752TIP3    H214221   2.852   4.692   0.973
 4753TIP3   OH214222   6.081   5.455   4.200
 4753TIP3    H114223   6.051   5.545   4.190
 4753TIP3    H214224   6.168   5.462   4.241
 4754TIP3   OH214225   2.096   2.215   3.128
 4754TIP3    H114226   2.110   2.304   3.096
 4754TIP3    H214227   2.088   2.162   3.049
 4755TIP3   OH214228   2.810   5.029   0.227
 4755TIP3    H114229   2.743   5.086   0.188
 4755TIP3    H214230   2.869   5.089   0.272
 4756TIP3   OH214231   4.724   0.582   0.993
 4756TIP3    H114232   4.661   0.615   0.928
 4756TIP3    H214233   4.747   0.659   1.045
 4757TIP3   OH214234   5.637   1.432   5.290
 4757TIP3    H114235   5.729   1.409   5.284
 4757TIP3    H214236   5.597   1.391   5.213
 4758TIP3   OH214237   2.344   3.695   2.326
 4758TIP3    H114238   2.427   3.674   2.368
 4758TIP3    H214239   2.361   3.685   2.233
 4759TIP3   OH214240   2.423   2.897   1.465
 4759TIP3    H114241   2.511   2.904   1.426
 4759TIP3    H214242   2.367   2.871   1.392
 4760TIP3   OH214243   0.907   1.071   5.857
 4760TIP3    H114244   0.829   1.107   5.815
 4760TIP3    H214245   0.876   0.993   5.904
 4761TIP3   OH214246   0.018   3.976   1.538
 4761TIP3    H114247   0.035   3.933   1.621
 4761TIP3    H214248   0.105   3.997   1.503
 4762TIP3   OH214249   6.609   3.339   1.564
 4762TIP3    H114250   6.629   3.292   1.645
 4762TIP3    H214251   6.692   3.345   1.518
 4763TIP3   OH214252   2.183   0.972   3.435
 4763TIP3    H114253   2.154   1.012   3.518
 4763TIP3    H214254   2.252   1.031   3.403
 4764TIP3   OH214255   4.931   6.279   3.006
 4764TIP3    H114256   4.906   6.355   2.954
 4764TIP3    H214257   4.921   6.204   2.947
 4765TIP3   OH214258   4.385   6.645   4.020
 4765TIP3    H114259   4.402   6.740   4.018
 4765TIP3    H214260   4.297   6.637   4.056
 4766TIP3   OH214261   3.455   4.821   2.241
 4766TIP3    H114262   3.400   4.830   2.164
 4766TIP3    H214263   3.528   4.766   2.213
 4767TIP3   OH214264   2.272   3.157   0.015
 4767TIP3    H114265   2.254   3.240   0.059
 4767TIP3    H214266   2.251   3.174  -0.077
 4768TIP3   OH214267   6.469   1.452   1.800
 4768TIP3    H114268   6.415   1.474   1.876
 4768TIP3    H214269   6.552   1.498   1.816
 4769TIP3   OH214270   0.883   0.102   4.538
 4769TIP3    H114271   0.928   0.181   4.566
 4769TIP3    H214272   0.837   0.070   4.616
 4770TIP3   OH214273   4.784   1.453   0.652
 4770TIP3    H114274   4.699   1.436   0.610
 4770TIP3    H214275   4.847   1.454   0.580
 4771TIP3   OH214276   5.944   3.365   5.223
 4771TIP3    H114277   6.009   3.381   5.155
 4771TIP3    H214278   5.860   3.382   5.180
 4772TIP3   OH214279   3.310   4.232   5.282
 4772TIP3    H114280   3.344   4.211   5.368
 4772TIP3    H214281   3.224   4.269   5.298
 4773TIP3   OH214282   6.443   5.007   5.667
 4773TIP3    H114283   6.434   4.958   5.749
 4773TIP3    H214284   6.500   4.953   5.612
 4774TIP3   OH214285   0.510   0.455   5.540
 4774TIP3    H114286   0.503   0.541   5.498
 4774TIP3    H214287   0.473   0.469   5.628
 4775TIP3   OH214288   2.612   6.748   5.103
 4775TIP3    H114289   2.584   6.673   5.155
 4775TIP3    H214290   2.549   6.753   5.031
 4776TIP3   OH214291   5.549   2.787   1.450
 4776TIP3    H114292   5.622   2.830   1.407
 4776TIP3    H214293   5.472   2.813   1.399
 4777TIP3   OH214294   1.873   4.206   2.541
 4777TIP3    H114295   1.856   4.299   2.530
 4777TIP3    H214296   1.857   4.190   2.634
 4778TIP3   OH214297   0.572   5.579   4.793
 4778TIP3    H114298   0.665   5.564   4.810
 4778TIP3    H214299   0.559   5.547   4.703
 4779TIP3   OH214300   6.142   6.569   2.435
 4779TIP3    H114301   6.109   6.566   2.345
 4779TIP3    H214302   6.208   6.500   2.439
 4780TIP3   OH214303   2.444   1.040   4.067
 4780TIP3    H114304   2.479   0.963   4.022
 4780TIP3    H214305   2.411   1.095   3.997
 4781TIP3   OH214306   6.567   0.392   0.319
 4781TIP3    H114307   6.647   0.342   0.305
 4781TIP3    H214308   6.528   0.400   0.232
 4782TIP3   OH214309   5.557   5.933   4.939
 4782TIP3    H114310   5.525   5.943   5.029
 4782TIP3    H214311   5.652   5.945   4.946
 4783TIP3   OH214312   7.126   3.652   1.271
 4783TIP3    H114313   7.060   3.606   1.218
 4783TIP3    H214314   7.083   3.734   1.296
 4784TIP3   OH214315   3.898   1.457   4.501
 4784TIP3    H114316   3.977   1.433   4.453
 4784TIP3    H214317   3.877   1.380   4.554
 4785TIP3   OH214318   4.915   5.355   1.117
 4785TIP3    H114319   4.973   5.283   1.090
 4785TIP3    H214320   4.919   5.417   1.045
 4786TIP3   OH214321   1.691   5.483   1.315
 4786TIP3    H114322   1.713   5.391   1.328
 4786TIP3    H214323   1.602   5.482   1.280
 4787TIP3   OH214324   4.014   6.378   3.488
 4787TIP3    H114325   4.060   6.462   3.481
 4787TIP3    H214326   4.029   6.350   3.579
 4788TIP3   OH214327   0.055   4.997   1.064
 4788TIP3    H114328  -0.004   5.028   0.995
 4788TIP3    H214329   0.019   5.033   1.145
 4789TIP3   OH214330   2.025   4.013   4.175
 4789TIP3    H114331   1.981   3.930   4.154
 4789TIP3    H214332   1.966   4.080   4.141
 4790TIP3   OH214333   5.788   5.370   0.194
 4790TIP3    H114334   5.850   5.367   0.121
 4790TIP3    H214335   5.774   5.278   0.217
 4791TIP3   OH214336   0.050   5.920   1.452
 4791TIP3    H114337   0.119   5.891   1.393
 4791TIP3    H214338   0.096   5.964   1.524
 4792TIP3   OH214339   6.549   2.137   4.172
 4792TIP3    H114340   6.576   2.087   4.249
 4792TIP3    H214341   6.524   2.071   4.108
 4793TIP3   OH214342   5.564   1.451   1.995
 4793TIP3    H114343   5.607   1.395   2.060
 4793TIP3    H214344   5.488   1.486   2.041
 4794TIP3   OH214345   1.835   6.435   2.103
 4794TIP3    H114346   1.850   6.342   2.117
 4794TIP3    H214347   1.862   6.476   2.186
 4795TIP3   OH214348   4.680   2.400   4.951
 4795TIP3    H114349   4.765   2.374   4.916
 4795TIP3    H214350   4.700   2.470   5.013
 4796TIP3   OH214351   2.879   6.101   3.453
 4796TIP3    H114352   2.907   6.049   3.377
 4796TIP3    H214353   2.961   6.129   3.494
 4797TIP3   OH214354   4.000   2.407   2.767
 4797TIP3    H114355   4.012   2.438   2.677
 4797TIP3    H214356   3.953   2.479   2.810
 4798TIP3   OH214357   1.605   0.260   1.035
 4798TIP3    H114358   1.672   0.196   1.059
 4798TIP3    H214359   1.597   0.252   0.940
 4799TIP3   OH214360   7.144   2.752   4.206
 4799TIP3    H114361   7.098   2.704   4.275
 4799TIP3    H214362   7.109   2.841   4.213
 4800TIP3   OH214363   2.475   6.216   0.530
 4800TIP3    H114364   2.515   6.189   0.448
 4800TIP3    H214365   2.423   6.141   0.557
 4801TIP3   OH214366   4.519   5.273   3.770
 4801TIP3    H114367   4.585   5.205   3.750
 4801TIP3    H214368   4.569   5.343   3.810
 4802TIP3   OH214369   4.372   0.269   1.500
 4802TIP3    H114370   4.403   0.296   1.413
 4802TIP3    H214371   4.451   0.254   1.551
 4803TIP3   OH214372   5.980   3.496   2.050
 4803TIP3    H114373   5.951   3.416   2.094
 4803TIP3    H214374   6.030   3.543   2.117
 4804TIP3   OH214375   6.328   6.227   3.939
 4804TIP3    H114376   6.383   6.253   4.014
 4804TIP3    H214377   6.346   6.134   3.927
 4805TIP3   OH214378   5.277   1.099   5.880
 4805TIP3    H114379   5.214   1.050   5.826
 4805TIP3    H214380   5.336   1.140   5.818
 4806TIP3   OH214381   6.591   6.735   1.763
 4806TIP3    H114382   6.633   6.721   1.678
 4806TIP3    H214383   6.522   6.799   1.745
 4807TIP3   OH214384   4.262   3.731   0.842
 4807TIP3    H114385   4.260   3.817   0.884
 4807TIP3    H214386   4.188   3.731   0.782
 4808TIP3   OH214387   0.711   2.058   3.497
 4808TIP3    H114388   0.681   2.034   3.585
 4808TIP3    H214389   0.696   2.152   3.491
 4809TIP3   OH214390   3.761   3.186   0.841
 4809TIP3    H114391   3.777   3.098   0.876
 4809TIP3    H214392   3.785   3.180   0.749
 4810TIP3   OH214393   3.299   6.785   4.913
 4810TIP3    H114394   3.361   6.850   4.946
 4810TIP3    H214395   3.354   6.713   4.881
 4811TIP3   OH214396   4.966   2.042   1.705
 4811TIP3    H114397   4.922   1.964   1.671
 4811TIP3    H214398   5.038   2.057   1.644
 4812TIP3   OH214399   3.808   2.679   4.749
 4812TIP3    H114400   3.797   2.713   4.838
 4812TIP3    H214401   3.774   2.747   4.692
 4813TIP3   OH214402   4.899   3.914   0.134
 4813TIP3    H114403   4.952   3.994   0.135
 4813TIP3    H214404   4.809   3.945   0.136
 4814TIP3   OH214405   0.160   5.624   0.710
 4814TIP3    H114406   0.219   5.550   0.696
 4814TIP3    H214407   0.206   5.679   0.774
 4815TIP3   OH214408   2.530   2.676   1.164
 4815TIP3    H114409   2.455   2.735   1.171
 4815TIP3    H214410   2.533   2.652   1.071
 4816TIP3   OH214411   4.813   0.189   5.167
 4816TIP3    H114412   4.823   0.139   5.085
 4816TIP3    H214413   4.774   0.126   5.228
 4817TIP3   OH214414   3.741   6.535   5.508
 4817TIP3    H114415   3.815   6.594   5.494
 4817TIP3    H214416   3.665   6.584   5.476
 4818TIP3   OH214417   1.750   4.078   1.061
 4818TIP3    H114418   1.662   4.069   1.024
 4818TIP3    H214419   1.795   3.998   1.036
 4819TIP3   OH214420   0.175   6.502   4.565
 4819TIP3    H114421   0.093   6.526   4.608
 4819TIP3    H214422   0.185   6.409   4.582
 4820TIP3   OH214423   4.307   3.573   3.598
 4820TIP3    H114424   4.226   3.586   3.647
 4820TIP3    H214425   4.279   3.537   3.514
 4821TIP3   OH214426   2.417   0.792   0.453
 4821TIP3    H114427   2.418   0.698   0.432
 4821TIP3    H214428   2.342   0.802   0.511
 4822TIP3   OH214429   1.210   6.524   3.059
 4822TIP3    H114430   1.208   6.556   3.149
 4822TIP3    H214431   1.131   6.470   3.051
 4823TIP3   OH214432   5.632   0.778   5.548
 4823TIP3    H114433   5.693   0.821   5.489
 4823TIP3    H214434   5.559   0.839   5.556
 4824TIP3   OH214435   4.988   5.483   0.108
 4824TIP3    H114436   4.938   5.403   0.088
 4824TIP3    H214437   5.056   5.486   0.041
 4825TIP3   OH214438   4.545   0.689   0.816
 4825TIP3    H114439   4.458   0.697   0.777
 4825TIP3    H214440   4.587   0.773   0.798
 4826TIP3   OH214441   1.956   2.440   0.295
 4826TIP3    H114442   1.960   2.498   0.219
 4826TIP3    H214443   1.871   2.396   0.288
 4827TIP3   OH214444   5.309   1.694   1.782
 4827TIP3    H114445   5.261   1.676   1.862
 4827TIP3    H214446   5.325   1.788   1.784
 4828TIP3   OH214447   0.540   0.319   0.109
 4828TIP3    H114448   0.582   0.405   0.116
 4828TIP3    H214449   0.537   0.302   0.015
 4829TIP3   OH214450   4.275   2.090   3.755
 4829TIP3    H114451   4.293   2.172   3.801
 4829TIP3    H214452   4.180   2.090   3.742
 4830TIP3   OH214453   1.278   3.637   4.860
 4830TIP3    H114454   1.352   3.585   4.827
 4830TIP3    H214455   1.301   3.655   4.951
 4831TIP3   OH214456   5.991   4.819   3.405
 4831TIP3    H114457   5.952   4.752   3.349
 4831TIP3    H214458   6.046   4.870   3.347
 4832TIP3   OH214459   3.025   2.618   1.574
 4832TIP3    H114460   3.071   2.619   1.658
 4832TIP3    H214461   2.947   2.671   1.589
 4833TIP3   OH214462   2.910   2.042   4.387
 4833TIP3    H114463   2.996   2.063   4.424
 4833TIP3    H214464   2.861   2.124   4.391
 4834TIP3   OH214465   1.464   4.653   0.633
 4834TIP3    H114466   1.511   4.716   0.687
 4834TIP3    H214467   1.473   4.570   0.679
 4835TIP3   OH214468   3.602   4.669   3.520
 4835TIP3    H114469   3.624   4.760   3.539
 4835TIP3    H214470   3.660   4.644   3.448
 4836TIP3   OH214471   0.991   2.992   4.742
 4836TIP3    H114472   0.922   2.928   4.760
 4836TIP3    H214473   0.974   3.020   4.652
 4837TIP3   OH214474   0.545   5.152   4.785
 4837TIP3    H114475   0.475   5.194   4.735
 4837TIP3    H214476   0.502   5.080   4.831
 4838TIP3   OH214477   6.418   4.639   1.659
 4838TIP3    H114478   6.419   4.552   1.618
 4838TIP3    H214479   6.455   4.625   1.746
 4839TIP3   OH214480   5.616   1.420   0.250
 4839TIP3    H114481   5.648   1.330   0.251
 4839TIP3    H214482   5.591   1.437   0.341
 4840TIP3   OH214483   3.082   5.225   2.018
 4840TIP3    H114484   3.010   5.288   2.021
 4840TIP3    H214485   3.044   5.143   2.050
 4841TIP3   OH214486   4.122   6.535   0.085
 4841TIP3    H114487   4.097   6.561  -0.004
 4841TIP3    H214488   4.059   6.578   0.142
 4842TIP3   OH214489   6.508   5.459   4.818
 4842TIP3    H114490   6.501   5.382   4.761
 4842TIP3    H214491   6.562   5.520   4.768
 4843TIP3   OH214492   3.841   5.136   3.126
 4843TIP3    H114493   3.788   5.126   3.046
 4843TIP3    H214494   3.927   5.165   3.094
 4844TIP3   OH214495   1.150   2.771   4.840
 4844TIP3    H114496   1.160   2.689   4.791
 4844TIP3    H214497   1.089   2.823   4.788
 4845TIP3   OH214498   5.537   0.899   4.624
 4845TIP3    H114499   5.451   0.911   4.583
 4845TIP3    H214500   5.577   0.827   4.576
 4846TIP3   OH214501   2.347   3.532   0.765
 4846TIP3    H114502   2.284   3.582   0.816
 4846TIP3    H214503   2.306   3.524   0.678
 4847TIP3   OH214504   5.218   0.737   1.271
 4847TIP3    H114505   5.287   0.776   1.325
 4847TIP3    H214506   5.206   0.649   1.308
 4848TIP3   OH214507   2.999   5.014   1.200
 4848TIP3    H114508   3.051   4.980   1.274
 4848TIP3    H214509   3.058   5.008   1.125
 4849TIP3   OH214510   1.672   1.817   3.737
 4849TIP3    H114511   1.732   1.819   3.662
 4849TIP3    H214512   1.586   1.805   3.698
 4850TIP3   OH214513   7.208   5.382   2.916
 4850TIP3    H114514   7.122   5.349   2.941
 4850TIP3    H214515   7.235   5.328   2.842
 4851TIP3   OH214516   0.301   0.685   2.060
 4851TIP3    H114517   0.334   0.641   2.138
 4851TIP3    H214518   0.313   0.778   2.077
 4852TIP3   OH214519   3.531   5.671   0.497
 4852TIP3    H114520   3.583   5.644   0.572
 4852TIP3    H214521   3.503   5.760   0.517
 4853TIP3   OH214522   3.677   3.170   5.543
 4853TIP3    H114523   3.730   3.098   5.506
 4853TIP3    H214524   3.715   3.249   5.504
 4854TIP3   OH214525   4.974   3.194   2.782
 4854TIP3    H114526   4.935   3.242   2.709
 4854TIP3    H214527   4.963   3.101   2.759
 4855TIP3   OH214528   4.281   0.663   0.740
 4855TIP3    H114529   4.263   0.610   0.817
 4855TIP3    H214530   4.222   0.738   0.747
 4856TIP3   OH214531   6.018   5.377   3.673
 4856TIP3    H114532   6.038   5.459   3.628
 4856TIP3    H214533   5.942   5.342   3.626
 4857TIP3   OH214534   7.090   2.474   5.513
 4857TIP3    H114535   7.110   2.381   5.524
 4857TIP3    H214536   7.149   2.519   5.574
 4858TIP3   OH214537   3.243   5.346   5.535
 4858TIP3    H114538   3.211   5.264   5.496
 4858TIP3    H214539   3.185   5.362   5.609
 4859TIP3   OH214540   6.883   4.049   1.166
 4859TIP3    H114541   6.912   3.967   1.206
 4859TIP3    H214542   6.826   4.088   1.232
 4860TIP3   OH214543   1.423   6.216   2.057
 4860TIP3    H114544   1.423   6.221   1.961
 4860TIP3    H214545   1.417   6.122   2.075
 4861TIP3   OH214546   5.795   3.864   1.809
 4861TIP3    H114547   5.875   3.884   1.858
 4861TIP3    H214548   5.757   3.950   1.790
 4862TIP3   OH214549   5.994   0.986   2.361
 4862TIP3    H114550   5.915   1.026   2.399
 4862TIP3    H214551   5.963   0.904   2.322
 4863TIP3   OH214552   3.520   5.724   3.235
 4863TIP3    H114553   3.540   5.631   3.233
 4863TIP3    H214554   3.462   5.738   3.160
 4864TIP3   OH214555   6.328   4.880   4.929
 4864TIP3    H114556   6.397   4.874   4.863
 4864TIP3    H214557   6.375   4.881   5.013
 4865TIP3   OH214558   7.084   5.406   4.365
 4865TIP3    H114559   7.127   5.474   4.315
 4865TIP3    H214560   7.060   5.448   4.448
 4866TIP3   OH214561   5.640   4.983   4.066
 4866TIP3    H114562   5.705   5.011   4.131
 4866TIP3    H214563   5.617   5.063   4.019
 4867TIP3   OH214564   3.429   6.451   3.048
 4867TIP3    H114565   3.380   6.371   3.066
 4867TIP3    H214566   3.376   6.521   3.085
 4868TIP3   OH214567   1.468   2.258   0.220
 4868TIP3    H114568   1.414   2.189   0.181
 4868TIP3    H214569   1.406   2.325   0.248
 4869TIP3   OH214570   3.750   5.761   0.066
 4869TIP3    H114571   3.843   5.772   0.086
 4869TIP3    H214572   3.736   5.666   0.066
 4870TIP3   OH214573   2.643   5.824   0.541
 4870TIP3    H114574   2.737   5.807   0.534
 4870TIP3    H214575   2.602   5.757   0.486
 4871TIP3   OH214576   2.935   0.524   2.354
 4871TIP3    H114577   2.973   0.487   2.434
 4871TIP3    H214578   2.973   0.471   2.284
 4872TIP3   OH214579   0.567   1.947   2.484
 4872TIP3    H114580   0.484   1.951   2.532
 4872TIP3    H214581   0.547   1.899   2.404
 4873TIP3   OH214582   1.864   2.669   1.829
 4873TIP3    H114583   1.893   2.638   1.743
 4873TIP3    H214584   1.779   2.628   1.842
 4874TIP3   OH214585   1.446   3.445   5.825
 4874TIP3    H114586   1.392   3.504   5.773
 4874TIP3    H214587   1.385   3.405   5.887
 4875TIP3   OH214588   3.802   2.897   5.499
 4875TIP3    H114589   3.896   2.915   5.500
 4875TIP3    H214590   3.795   2.807   5.469
 4876TIP3   OH214591   4.587   2.791   1.647
 4876TIP3    H114592   4.621   2.730   1.581
 4876TIP3    H214593   4.659   2.800   1.710
 4877TIP3   OH214594   5.651   0.102   3.284
 4877TIP3    H114595   5.577   0.115   3.225
 4877TIP3    H214596   5.703   0.181   3.276
 4878TIP3   OH214597   6.098   4.159   5.116
 4878TIP3    H114598   6.163   4.163   5.046
 4878TIP3    H214599   6.033   4.096   5.085
 4879TIP3   OH214600   6.978   5.211   3.414
 4879TIP3    H114601   6.898   5.158   3.417
 4879TIP3    H214602   6.956   5.285   3.357
 4880TIP3   OH214603   6.001   5.857   5.477
 4880TIP3    H114604   5.988   5.774   5.432
 4880TIP3    H214605   6.047   5.834   5.558
 4881TIP3   OH214606   0.849   3.545   0.005
 4881TIP3    H114607   0.792   3.622   0.004
 4881TIP3    H214608   0.895   3.551   0.089
 4882TIP3   OH214609   3.600   3.583   5.066
 4882TIP3    H114610   3.591   3.579   5.161
 4882TIP3    H214611   3.654   3.660   5.050
 4883TIP3   OH214612   0.771   0.559   1.797
 4883TIP3    H114613   0.748   0.512   1.877
 4883TIP3    H214614   0.750   0.651   1.816
 4884TIP3   OH214615   5.348   5.776   0.978
 4884TIP3    H114616   5.380   5.807   0.894
 4884TIP3    H214617   5.378   5.685   0.983
 4885TIP3   OH214618   4.677   4.228   1.574
 4885TIP3    H114619   4.754   4.216   1.630
 4885TIP3    H214620   4.605   4.189   1.623
 4886TIP3   OH214621   0.766   1.741   4.980
 4886TIP3    H114622   0.796   1.820   5.025
 4886TIP3    H214623   0.846   1.693   4.960
 4887TIP3   OH214624   2.304   3.589   3.220
 4887TIP3    H114625   2.284   3.509   3.268
 4887TIP3    H214626   2.397   3.605   3.236
 4888TIP3   OH214627   6.060   3.164   0.689
 4888TIP3    H114628   5.991   3.103   0.717
 4888TIP3    H214629   6.141   3.124   0.720
 4889TIP3   OH214630   1.441   1.131   5.003
 4889TIP3    H114631   1.484   1.052   4.971
 4889TIP3    H214632   1.501   1.166   5.069
 4890TIP3   OH214633   4.620   1.166   2.940
 4890TIP3    H114634   4.612   1.135   3.030
 4890TIP3    H214635   4.560   1.240   2.934
 4891TIP3   OH214636   4.755   3.723   5.375
 4891TIP3    H114637   4.813   3.769   5.435
 4891TIP3    H214638   4.722   3.792   5.316
 4892TIP3   OH214639   2.547   5.543   5.740
 4892TIP3    H114640   2.479   5.578   5.682
 4892TIP3    H214641   2.629   5.581   5.708
 4893TIP3   OH214642   2.393   6.715   5.736
 4893TIP3    H114643   2.394   6.798   5.784
 4893TIP3    H214644   2.455   6.659   5.782
 4894TIP3   OH214645   1.745   5.046   0.004
 4894TIP3    H114646   1.706   5.122  -0.039
 4894TIP3    H214647   1.698   5.039   0.087
 4895TIP3   OH214648   4.205   6.467   1.934
 4895TIP3    H114649   4.120   6.449   1.973
 4895TIP3    H214650   4.188   6.470   1.840
 4896TIP3   OH214651   1.570   3.315   4.296
 4896TIP3    H114652   1.641   3.379   4.303
 4896TIP3    H214653   1.599   3.242   4.351
 4897TIP3   OH214654   5.380   1.816   0.978
 4897TIP3    H114655   5.422   1.815   0.892
 4897TIP3    H214656   5.364   1.909   0.997
 4898TIP3   OH214657   4.781   6.233   0.824
 4898TIP3    H114658   4.793   6.139   0.816
 4898TIP3    H214659   4.839   6.259   0.895
 4899TIP3   OH214660   5.599   5.618   1.100
 4899TIP3    H114661   5.540   5.551   1.134
 4899TIP3    H214662   5.648   5.648   1.177
 4900TIP3   OH214663   2.377   5.119   0.835
 4900TIP3    H114664   2.314   5.112   0.906
 4900TIP3    H214665   2.428   5.198   0.855
 4901TIP3   OH214666   4.138   0.572   3.690
 4901TIP3    H114667   4.067   0.627   3.724
 4901TIP3    H214668   4.093   0.507   3.636
 4902TIP3   OH214669   6.048   6.395   4.910
 4902TIP3    H114670   6.043   6.299   4.911
 4902TIP3    H214671   6.137   6.414   4.882
 4903TIP3   OH214672   1.518   0.741   1.409
 4903TIP3    H114673   1.613   0.738   1.419
 4903TIP3    H214674   1.490   0.651   1.428
 4904TIP3   OH214675   6.428   3.149   3.719
 4904TIP3    H114676   6.490   3.170   3.650
 4904TIP3    H214677   6.473   3.174   3.800
 4905TIP3   OH214678   3.956   1.511   2.523
 4905TIP3    H114679   3.893   1.440   2.510
 4905TIP3    H214680   3.924   1.582   2.468
 4906TIP3   OH214681   6.271   3.718   2.977
 4906TIP3    H114682   6.300   3.695   3.065
 4906TIP3    H214683   6.278   3.637   2.927
 4907TIP3   OH214684   5.530   3.497   1.555
 4907TIP3    H114685   5.553   3.588   1.573
 4907TIP3    H214686   5.452   3.502   1.500
 4908TIP3   OH214687   4.770   4.021   3.352
 4908TIP3    H114688   4.844   3.986   3.302
 4908TIP3    H214689   4.713   4.062   3.287
 4909TIP3   OH214690   3.164   4.951   1.433
 4909TIP3    H114691   3.201   5.036   1.455
 4909TIP3    H214692   3.238   4.891   1.433
 4910TIP3   OH214693   0.132   1.305   1.017
 4910TIP3    H114694   0.197   1.291   1.087
 4910TIP3    H214695   0.147   1.395   0.989
 4911TIP3   OH214696   5.961   5.356   3.243
 4911TIP3    H114697   5.909   5.284   3.207
 4911TIP3    H214698   5.930   5.366   3.333
 4912TIP3   OH214699   7.048   3.326   4.587
 4912TIP3    H114700   7.004   3.386   4.648
 4912TIP3    H214701   7.141   3.343   4.600
 4913TIP3   OH214702   6.728   4.248   3.264
 4913TIP3    H114703   6.795   4.272   3.200
 4913TIP3    H214704   6.680   4.176   3.223
 4914TIP3   OH214705   1.093   6.090   3.010
 4914TIP3    H114706   1.046   6.056   3.086
 4914TIP3    H214707   1.183   6.100   3.039
 4915TIP3   OH214708   4.531   2.209   4.482
 4915TIP3    H114709   4.603   2.175   4.535
 4915TIP3    H214710   4.570   2.277   4.428
 4916TIP3   OH214711   0.336   0.067   2.933
 4916TIP3    H114712   0.393   0.055   2.856
 4916TIP3    H214713   0.392   0.111   2.997
 4917TIP3   OH214714   2.387   5.453   2.389
 4917TIP3    H114715   2.467   5.420   2.429
 4917TIP3    H214716   2.317   5.402   2.430
 4918TIP3   OH214717   4.481   2.078   4.846
 4918TIP3    H114718   4.489   2.052   4.754
 4918TIP3    H214719   4.438   2.004   4.889
 4919TIP3   OH214720   1.087   1.060   0.959
 4919TIP3    H114721   1.148   1.077   1.031
 4919TIP3    H214722   1.119   0.979   0.920
 4920TIP3   OH214723   6.685   4.040   1.502
 4920TIP3    H114724   6.669   4.114   1.561
 4920TIP3    H214725   6.779   4.025   1.508
 4921TIP3   OH214726   3.661   0.814   5.732
 4921TIP3    H114727   3.707   0.781   5.810
 4921TIP3    H214728   3.577   0.846   5.766
 4922TIP3   OH214729   1.483   6.655   2.356
 4922TIP3    H114730   1.512   6.598   2.285
 4922TIP3    H214731   1.510   6.610   2.435
 4923TIP3   OH214732   3.246   2.768   3.158
 4923TIP3    H114733   3.309   2.737   3.223
 4923TIP3    H214734   3.208   2.846   3.197
 4924TIP3   OH214735   4.454   3.610   4.627
 4924TIP3    H114736   4.529   3.562   4.594
 4924TIP3    H214737   4.464   3.699   4.592
 4925TIP3   OH214738   2.819   1.042   1.439
 4925TIP3    H114739   2.912   1.031   1.457
 4925TIP3    H214740   2.799   1.131   1.470
 4926TIP3   OH214741   1.016   2.802   4.258
 4926TIP3    H114742   1.053   2.887   4.235
 4926TIP3    H214743   0.981   2.768   4.176
 4927TIP3   OH214744   6.191   3.663   2.469
 4927TIP3    H114745   6.173   3.570   2.459
 4927TIP3    H214746   6.214   3.692   2.380
 4928TIP3   OH214747   0.225   2.365   4.902
 4928TIP3    H114748   0.167   2.295   4.871
 4928TIP3    H214749   0.212   2.367   4.997
 4929TIP3   OH214750   5.202   0.019   2.336
 4929TIP3    H114751   5.258   0.087   2.300
 4929TIP3    H214752   5.249  -0.063   2.319
 4930TIP3   OH214753   2.091   0.149   2.152
 4930TIP3    H114754   2.072   0.167   2.245
 4930TIP3    H214755   2.005   0.147   2.110
 4931TIP3   OH214756   6.152   4.611   2.958
 4931TIP3    H114757   6.145   4.618   3.054
 4931TIP3    H214758   6.094   4.538   2.935
 4932TIP3   OH214759   3.837   0.746   2.611
 4932TIP3    H114760   3.762   0.801   2.589
 4932TIP3    H214761   3.832   0.737   2.706
 4933TIP3   OH214762   4.385   5.493   0.195
 4933TIP3    H114763   4.298   5.523   0.167
 4933TIP3    H214764   4.438   5.572   0.198
 4934TIP3   OH214765   7.195   5.820   2.077
 4934TIP3    H114766   7.128   5.874   2.034
 4934TIP3    H214767   7.239   5.774   2.005
 4935TIP3   OH214768   3.842   1.879   1.028
 4935TIP3    H114769   3.855   1.954   0.969
 4935TIP3    H214770   3.766   1.903   1.081
 4936TIP3   OH214771   4.729   6.685   4.700
 4936TIP3    H114772   4.738   6.600   4.657
 4936TIP3    H214773   4.792   6.683   4.772
 4937TIP3   OH214774   2.738   2.159   3.006
 4937TIP3    H114775   2.830   2.152   3.029
 4937TIP3    H214776   2.702   2.223   3.067
 4938TIP3   OH214777   5.973   1.427   3.551
 4938TIP3    H114778   5.901   1.408   3.611
 4938TIP3    H214779   5.955   1.373   3.474
 4939TIP3   OH214780   6.261   4.555   5.385
 4939TIP3    H114781   6.301   4.565   5.471
 4939TIP3    H214782   6.221   4.640   5.367
 4940TIP3   OH214783   4.896   6.677   4.922
 4940TIP3    H114784   4.863   6.630   4.999
 4940TIP3    H214785   4.955   6.743   4.957
 4941TIP3   OH214786   1.976   1.057   0.657
 4941TIP3    H114787   2.003   0.986   0.715
 4941TIP3    H214788   1.929   1.118   0.714
 4942TIP3   OH214789   0.717   6.264   4.884
 4942TIP3    H114790   0.767   6.338   4.916
 4942TIP3    H214791   0.630   6.275   4.923
 4943TIP3   OH214792   3.425   5.668   5.058
 4943TIP3    H114793   3.419   5.693   5.150
 4943TIP3    H214794   3.489   5.729   5.021
 4944TIP3   OH214795   5.294   1.825   5.193
 4944TIP3    H114796   5.207   1.864   5.185
 4944TIP3    H214797   5.281   1.750   5.250
 4945TIP3   OH214798   2.421   4.766   3.490
 4945TIP3    H114799   2.358   4.693   3.488
 4945TIP3    H214800   2.490   4.737   3.550
 4946TIP3   OH214801   3.379   4.293   3.544
 4946TIP3    H114802   3.348   4.365   3.489
 4946TIP3    H214803   3.428   4.236   3.485
 4947TIP3   OH214804   7.024   2.950   2.919
 4947TIP3    H114805   6.985   2.887   2.858
 4947TIP3    H214806   6.966   3.026   2.915
 4948TIP3   OH214807   3.447   3.418   5.319
 4948TIP3    H114808   3.426   3.389   5.230
 4948TIP3    H214809   3.417   3.347   5.375
 4949TIP3   OH214810   5.662   1.399   3.432
 4949TIP3    H114811   5.655   1.313   3.391
 4949TIP3    H214812   5.687   1.381   3.522
 4950TIP3   OH214813   5.923   3.576   0.536
 4950TIP3    H114814   6.015   3.598   0.553
 4950TIP3    H214815   5.925   3.483   0.513
 4951TIP3   OH214816   5.121   0.466   1.841
 4951TIP3    H114817   5.132   0.520   1.919
 4951TIP3    H214818   5.156   0.380   1.866
 4952TIP3   OH214819   3.230   0.337   4.169
 4952TIP3    H114820   3.286   0.259   4.174
 4952TIP3    H214821   3.153   0.314   4.222
 4953TIP3   OH214822   4.054   4.541   4.819
 4953TIP3    H114823   3.979   4.531   4.877
 4953TIP3    H214824   4.115   4.596   4.867
 4954TIP3   OH214825   1.838   5.404   5.544
 4954TIP3    H114826   1.747   5.412   5.515
 4954TIP3    H214827   1.844   5.316   5.582
 4955TIP3   OH214828   2.964   6.099   2.515
 4955TIP3    H114829   2.991   6.144   2.434
 4955TIP3    H214830   2.889   6.046   2.489
 4956TIP3   OH214831   1.590   1.974   1.080
 4956TIP3    H114832   1.621   2.039   1.017
 4956TIP3    H214833   1.579   1.894   1.029
 4957TIP3   OH214834   6.571   5.525   2.606
 4957TIP3    H114835   6.484   5.566   2.610
 4957TIP3    H214836   6.575   5.486   2.519
 4958TIP3   OH214837   0.637   3.780   0.050
 4958TIP3    H114838   0.611   3.862   0.091
 4958TIP3    H214839   0.593   3.781  -0.036
 4959TIP3   OH214840   3.767   6.186   1.373
 4959TIP3    H114841   3.839   6.130   1.343
 4959TIP3    H214842   3.771   6.181   1.468
 4960TIP3   OH214843   5.785   3.639   5.349
 4960TIP3    H114844   5.729   3.562   5.360
 4960TIP3    H214845   5.873   3.607   5.367
 4961TIP3   OH214846   6.807   2.714   5.872
 4961TIP3    H114847   6.750   2.778   5.914
 4961TIP3    H214848   6.853   2.763   5.804
 4962TIP3   OH214849   4.577   3.596   3.976
 4962TIP3    H114850   4.550   3.686   3.992
 4962TIP3    H214851   4.572   3.554   4.062
 4963TIP3   OH214852   6.135   4.579   5.035
 4963TIP3    H114853   6.064   4.642   5.044
 4963TIP3    H214854   6.142   4.537   5.121
 4964TIP3   OH214855   5.915   2.992   0.841
 4964TIP3    H114856   5.831   3.031   0.863
 4964TIP3    H214857   5.940   2.943   0.919
 4965TIP3   OH214858   5.686   0.554   1.753
 4965TIP3    H114859   5.778   0.565   1.776
 4965TIP3    H214860   5.676   0.459   1.744
 4966TIP3   OH214861   4.649   6.161   5.490
 4966TIP3    H114862   4.681   6.170   5.580
 4966TIP3    H214863   4.725   6.131   5.440
 4967TIP3   OH214864   5.796   1.347   3.779
 4967TIP3    H114865   5.708   1.373   3.807
 4967TIP3    H214866   5.840   1.322   3.860
 4968TIP3   OH214867   0.248   4.762   0.582
 4968TIP3    H114868   0.192   4.791   0.510
 4968TIP3    H214869   0.324   4.724   0.539
 4969TIP3   OH214870   2.104   0.147   3.911
 4969TIP3    H114871   2.028   0.183   3.956
 4969TIP3    H214872   2.178   0.200   3.943
 4970TIP3   OH214873   1.187   4.267   3.140
 4970TIP3    H114874   1.189   4.236   3.050
 4970TIP3    H214875   1.133   4.204   3.186
 4971TIP3   OH214876   6.770   5.861   2.630
 4971TIP3    H114877   6.825   5.832   2.703
 4971TIP3    H214878   6.682   5.866   2.666
 4972TIP3   OH214879   3.979   4.273   5.497
 4972TIP3    H114880   3.993   4.332   5.571
 4972TIP3    H214881   3.891   4.293   5.465
 4973TIP3   OH214882   3.368   2.385   4.574
 4973TIP3    H114883   3.338   2.470   4.541
 4973TIP3    H214884   3.389   2.400   4.666
 4974TIP3   OH214885   6.952   0.282   3.755
 4974TIP3    H114886   6.858   0.283   3.738
 4974TIP3    H214887   6.961   0.316   3.844
 4975TIP3   OH214888   4.435   4.905   0.367
 4975TIP3    H114889   4.354   4.863   0.339
 4975TIP3    H214890   4.411   4.955   0.444
 4976TIP3   OH214891   6.381   3.355   4.494
 4976TIP3    H114892   6.329   3.321   4.421
 4976TIP3    H214893   6.328   3.340   4.571
 4977TIP3   OH214894   5.655   1.686   1.902
 4977TIP3    H114895   5.607   1.714   1.824
 4977TIP3    H214896   5.621   1.599   1.921
 4978TIP3   OH214897   5.537   3.186   4.033
 4978TIP3    H114898   5.450   3.189   4.074
 4978TIP3    H214899   5.519   3.198   3.939
 4979TIP3   OH214900   2.643   2.839   2.860
 4979TIP3    H114901   2.667   2.820   2.769
 4979TIP3    H214902   2.673   2.928   2.875
 4980TIP3   OH214903   6.927   6.713   5.063
 4980TIP3    H114904   6.841   6.674   5.080
 4980TIP3    H214905   6.987   6.638   5.063
 4981TIP3   OH214906   4.297   1.692   3.172
 4981TIP3    H114907   4.382   1.711   3.211
 4981TIP3    H214908   4.278   1.602   3.200
 4982TIP3   OH214909   4.218   0.266   4.432
 4982TIP3    H114910   4.254   0.338   4.381
 4982TIP3    H214911   4.272   0.191   4.410
 4983TIP3   OH214912   5.542   6.390   1.780
 4983TIP3    H114913   5.601   6.456   1.743
 4983TIP3    H214914   5.524   6.420   1.869
 4984TIP3   OH214915   5.070   4.152   3.793
 4984TIP3    H114916   5.081   4.085   3.861
 4984TIP3    H214917   5.029   4.106   3.720
 4985TIP3   OH214918   0.714   0.525   4.372
 4985TIP3    H114919   0.691   0.605   4.324
 4985TIP3    H214920   0.802   0.542   4.406
 4986TIP3   OH214921   5.937   3.762   4.680
 4986TIP3    H114922   5.901   3.758   4.592
 4986TIP3    H214923   5.869   3.806   4.732
 4987TIP3   OH214924   0.669   4.753   1.187
 4987TIP3    H114925   0.590   4.804   1.207
 4987TIP3    H214926   0.636   4.674   1.144
 4988TIP3   OH214927   1.673   2.397   5.244
 4988TIP3    H114928   1.745   2.405   5.307
 4988TIP3    H214929   1.594   2.417   5.296
 4989TIP3   OH214930   7.207   5.263   0.660
 4989TIP3    H114931   7.302   5.272   0.648
 4989TIP3    H214932   7.181   5.343   0.706
 4990TIP3   OH214933   4.078   6.004   4.905
 4990TIP3    H114934   4.018   5.929   4.904
 4990TIP3    H214935   4.032   6.072   4.857
 4991TIP3   OH214936   0.181   6.338   0.436
 4991TIP3    H114937   0.147   6.420   0.471
 4991TIP3    H214938   0.153   6.338   0.344
 4992TIP3   OH214939   6.481   5.816   5.098
 4992TIP3    H114940   6.425   5.875   5.048
 4992TIP3    H214941   6.450   5.824   5.188
 4993TIP3   OH214942   2.155   2.028   0.285
 4993TIP3    H114943   2.244   2.027   0.251
 4993TIP3    H214944   2.149   1.950   0.340
 4994TIP3   OH214945   4.829   0.196   5.804
 4994TIP3    H114946   4.760   0.248   5.846
 4994TIP3    H214947   4.910   0.226   5.845
 4995TIP3   OH214948   1.293   3.762   1.199
 4995TIP3    H114949   1.242   3.683   1.182
 4995TIP3    H214950   1.384   3.733   1.197
 4996TIP3   OH214951   7.157   0.378   5.615
 4996TIP3    H114952   7.203   0.455   5.648
 4996TIP3    H214953   7.098   0.353   5.686
 4997TIP3   OH214954   4.635   5.335   0.358
 4997TIP3    H114955   4.695   5.333   0.432
 4997TIP3    H214956   4.684   5.296   0.286
 4998TIP3   OH214957   6.941   1.721   4.192
 4998TIP3    H114958   6.849   1.736   4.214
 4998TIP3    H214959   6.950   1.626   4.191
 4999TIP3   OH214960   3.185   2.191   1.626
 4999TIP3    H114961   3.141   2.128   1.570
 4999TIP3    H214962   3.254   2.228   1.571
 5000TIP3   OH214963   0.550   3.333   3.619
 5000TIP3    H114964   0.584   3.283   3.544
 5000TIP3    H214965   0.455   3.322   3.613
 5001TIP3   OH214966   6.658   5.531   0.360
 5001TIP3    H114967   6.587   5.535   0.295
 5001TIP3    H214968   6.711   5.456   0.332
 5002TIP3   OH214969   0.295   4.633   4.848
 5002TIP3    H114970   0.204   4.664   4.840
 5002TIP3    H214971   0.286   4.547   4.890
 5003TIP3   OH214972   5.472   3.913   4.081
 5003TIP3    H114973   5.520   3.913   3.998
 5003TIP3    H214974   5.527   3.860   4.139
 5004TIP3   OH214975   1.215   6.567   3.927
 5004TIP3    H114976   1.293   6.591   3.878
 5004TIP3    H214977   1.186   6.649   3.968
 5005TIP3   OH214978   6.331   4.234   0.315
 5005TIP3    H114979   6.426   4.236   0.318
 5005TIP3    H214980   6.309   4.238   0.222
 5006TIP3   OH214981   5.599   0.274   3.750
 5006TIP3    H114982   5.512   0.239   3.768
 5006TIP3    H214983   5.603   0.355   3.801
 5007TIP3   OH214984   5.578   4.225   0.974
 5007TIP3    H114985   5.657   4.171   0.976
 5007TIP3    H214986   5.556   4.232   0.881
 5008TIP3   OH214987   4.140   5.030   1.930
 5008TIP3    H114988   4.049   5.056   1.917
 5008TIP3    H214989   4.168   5.077   2.009
 5009TIP3   OH214990   7.068   1.702   3.973
 5009TIP3    H114991   7.103   1.787   3.945
 5009TIP3    H214992   7.009   1.722   4.045
 5010TIP3   OH214993   2.070   0.767   3.286
 5010TIP3    H114994   2.105   0.832   3.347
 5010TIP3    H214995   2.089   0.803   3.200
 5011TIP3   OH214996   2.290   5.718   1.546
 5011TIP3    H114997   2.381   5.735   1.519
 5011TIP3    H214998   2.237   5.770   1.485
 5012TIP3   OH214999   3.421   3.766   1.894
 5012TIP3    H115000   3.376   3.824   1.833
 5012TIP3    H215001   3.387   3.679   1.874
 5013TIP3   OH215002   1.365   4.531   2.374
 5013TIP3    H115003   1.328   4.479   2.302
 5013TIP3    H215004   1.448   4.488   2.394
 5014TIP3   OH215005   6.514   1.032   1.297
 5014TIP3    H115006   6.521   1.127   1.289
 5014TIP3    H215007   6.506   1.001   1.206
 5015TIP3   OH215008   2.256   3.203   1.980
 5015TIP3    H115009   2.207   3.121   1.969
 5015TIP3    H215010   2.299   3.216   1.895
 5016TIP3   OH215011   2.894   6.696   5.112
 5016TIP3    H115012   2.802   6.688   5.090
 5016TIP3    H215013   2.914   6.789   5.103
 5017TIP3   OH215014   6.821   2.297   1.259
 5017TIP3    H115015   6.801   2.387   1.282
 5017TIP3    H215016   6.847   2.301   1.167
 5018TIP3   OH215017   1.519   0.484   3.016
 5018TIP3    H115018   1.450   0.445   3.070
 5018TIP3    H215019   1.482   0.487   2.928
 5019TIP3   OH215020   2.417   1.933   0.201
 5019TIP3    H115021   2.496   1.973   0.163
 5019TIP3    H215022   2.447   1.895   0.283
 5020TIP3   OH215023   6.585   2.186   5.153
 5020TIP3    H115024   6.564   2.098   5.122
 5020TIP3    H215025   6.581   2.180   5.248
 5021TIP3   OH215026   2.897   3.952   5.776
 5021TIP3    H115027   2.885   3.858   5.765
 5021TIP3    H215028   2.835   3.991   5.714
 5022TIP3   OH215029   3.260   0.940   5.343
 5022TIP3    H115030   3.181   0.991   5.326
 5022TIP3    H215031   3.284   0.961   5.433
 5023TIP3   OH215032   1.687   5.747   1.466
 5023TIP3    H115033   1.670   5.658   1.437
 5023TIP3    H215034   1.783   5.755   1.465
 5024TIP3   OH215035   5.083   1.897   3.016
 5024TIP3    H115036   4.996   1.858   3.026
 5024TIP3    H215037   5.067   1.991   3.009
 5025TIP3   OH215038   6.973   6.247   3.930
 5025TIP3    H115039   6.898   6.207   3.886
 5025TIP3    H215040   7.041   6.251   3.863
 5026TIP3   OH215041   0.215   0.326   0.820
 5026TIP3    H115042   0.159   0.387   0.868
 5026TIP3    H215043   0.211   0.245   0.871
 5027TIP3   OH215044   1.887   3.031   5.666
 5027TIP3    H115045   1.954   3.091   5.701
 5027TIP3    H215046   1.807   3.084   5.664
 5028TIP3   OH215047   5.363   0.119   3.844
 5028TIP3    H115048   5.313   0.100   3.923
 5028TIP3    H215049   5.306   0.176   3.792
 5029TIP3   OH215050   3.911   1.493   2.104
 5029TIP3    H115051   3.821   1.504   2.134
 5029TIP3    H215052   3.964   1.528   2.175
 5030TIP3   OH215053   2.701   6.108   1.735
 5030TIP3    H115054   2.780   6.148   1.769
 5030TIP3    H215055   2.726   6.017   1.715
 5031TIP3   OH215056   0.919   0.596   0.840
 5031TIP3    H115057   0.877   0.556   0.763
 5031TIP3    H215058   0.991   0.537   0.861
 5032TIP3   OH215059   3.106   4.552   3.460
 5032TIP3    H115060   3.189   4.508   3.442
 5032TIP3    H215061   3.096   4.614   3.388
 5033TIP3   OH215062   3.443   3.792   5.325
 5033TIP3    H115063   3.387   3.853   5.276
 5033TIP3    H215064   3.385   3.754   5.391
 5034TIP3   OH215065   0.736   6.489   0.658
 5034TIP3    H115066   0.669   6.423   0.672
 5034TIP3    H215067   0.819   6.444   0.677
 5035TIP3   OH215068   6.244   0.418   1.924
 5035TIP3    H115069   6.246   0.396   1.831
 5035TIP3    H215070   6.234   0.513   1.926
 5036TIP3   OH215071   1.433   2.703   4.993
 5036TIP3    H115072   1.435   2.748   5.078
 5036TIP3    H215073   1.371   2.753   4.941
 5037TIP3   OH215074   0.078   3.339   3.850
 5037TIP3    H115075   0.161   3.320   3.807
 5037TIP3    H215076   0.102   3.385   3.931
 5038TIP3   OH215077   6.501   4.567   0.444
 5038TIP3    H115078   6.450   4.618   0.507
 5038TIP3    H215079   6.436   4.537   0.380
 5039TIP3   OH215080   5.036   3.728   1.705
 5039TIP3    H115081   5.071   3.793   1.766
 5039TIP3    H215082   5.047   3.645   1.751
 5040TIP3   OH215083   4.643   3.648   0.437
 5040TIP3    H115084   4.569   3.680   0.489
 5040TIP3    H215085   4.631   3.688   0.351
 5041TIP3   OH215086   5.507   3.248   1.353
 5041TIP3    H115087   5.482   3.238   1.445
 5041TIP3    H215088   5.464   3.175   1.309
 5042TIP3   OH215089   1.543   1.943   3.443
 5042TIP3    H115090   1.636   1.963   3.431
 5042TIP3    H215091   1.513   2.005   3.511
 5043TIP3   OH215092   6.414   6.040   3.119
 5043TIP3    H115093   6.441   5.948   3.113
 5043TIP3    H215094   6.495   6.088   3.133
 5044TIP3   OH215095   5.974   5.968   4.773
 5044TIP3    H115096   5.930   5.883   4.773
 5044TIP3    H215097   6.026   5.968   4.692
 5045TIP3   OH215098   1.513   0.946   2.321
 5045TIP3    H115099   1.538   1.024   2.271
 5045TIP3    H215100   1.419   0.954   2.331
 5046TIP3   OH215101   1.579   1.076   3.732
 5046TIP3    H115102   1.503   1.078   3.790
 5046TIP3    H215103   1.652   1.104   3.788
 5047TIP3   OH215104   6.093   4.920   5.631
 5047TIP3    H115105   6.052   5.007   5.622
 5047TIP3    H215106   6.121   4.916   5.722
 5048TIP3   OH215107   0.276   4.177   0.010
 5048TIP3    H115108   0.290   4.224  -0.072
 5048TIP3    H215109   0.187   4.140   0.002
 5049TIP3   OH215110   1.353   4.187   2.883
 5049TIP3    H115111   1.310   4.210   2.801
 5049TIP3    H215112   1.346   4.092   2.889
 5050TIP3   OH215113   3.195   1.932   2.928
 5050TIP3    H115114   3.230   1.940   3.016
 5050TIP3    H215115   3.258   1.878   2.881
 5051TIP3   OH215116   3.651   1.501   0.951
 5051TIP3    H115117   3.569   1.493   1.000
 5051TIP3    H215118   3.684   1.411   0.946
 5052TIP3   OH215119   2.294   4.095   2.993
 5052TIP3    H115120   2.317   4.176   2.946
 5052TIP3    H215121   2.253   4.040   2.926
 5053TIP3   OH215122   3.085   0.134   0.674
 5053TIP3    H115123   3.010   0.143   0.617
 5053TIP3    H215124   3.136   0.214   0.661
 5054TIP3   OH215125   2.808   3.811   2.044
 5054TIP3    H115126   2.762   3.894   2.054
 5054TIP3    H215127   2.823   3.781   2.134
 5055TIP3   OH215128   1.336   5.148   1.237
 5055TIP3    H115129   1.384   5.080   1.283
 5055TIP3    H215130   1.399   5.220   1.228
 5056TIP3   OH215131   6.416   6.076   2.618
 5056TIP3    H115132   6.395   6.142   2.684
 5056TIP3    H215133   6.460   6.006   2.666
 5057TIP3   OH215134   3.457   3.105   2.920
 5057TIP3    H115135   3.398   3.137   2.988
 5057TIP3    H215136   3.435   3.012   2.911
 5058TIP3   OH215137   2.249   5.204   1.092
 5058TIP3    H115138   2.244   5.299   1.100
 5058TIP3    H215139   2.174   5.172   1.141
 5059TIP3   OH215140   2.564   3.108   3.281
 5059TIP3    H115141   2.620   3.182   3.307
 5059TIP3    H215142   2.564   3.111   3.185
 5060TIP3   OH215143   0.853   0.030   3.745
 5060TIP3    H115144   0.849   0.096   3.814
 5060TIP3    H215145   0.781   0.051   3.687
 5061TIP3   OH215146   5.864   6.765   0.423
 5061TIP3    H115147   5.840   6.838   0.367
 5061TIP3    H215148   5.958   6.753   0.410
 5062TIP3   OH215149   6.616   3.502   1.137
 5062TIP3    H115150   6.612   3.443   1.062
 5062TIP3    H215151   6.526   3.504   1.170
 5063TIP3   OH215152   0.869   2.618   0.731
 5063TIP3    H115153   0.810   2.558   0.778
 5063TIP3    H215154   0.850   2.704   0.768
 5064TIP3   OH215155   3.068   0.156   3.613
 5064TIP3    H115156   3.147   0.137   3.664
 5064TIP3    H215157   3.019   0.074   3.613
 5065TIP3   OH215158   3.685   3.656   5.371
 5065TIP3    H115159   3.592   3.676   5.357
 5065TIP3    H215160   3.687   3.561   5.382
 5066TIP3   OH215161   3.755   5.205   1.932
 5066TIP3    H115162   3.777   5.209   2.025
 5066TIP3    H215163   3.833   5.239   1.888
 5067TIP3   OH215164   6.712   2.372   4.603
 5067TIP3    H115165   6.774   2.397   4.671
 5067TIP3    H215166   6.629   2.360   4.649
 5068TIP3   OH215167   2.757   1.566   2.523
 5068TIP3    H115168   2.751   1.627   2.597
 5068TIP3    H215169   2.718   1.485   2.555
 5069TIP3   OH215170   6.632   2.619   3.861
 5069TIP3    H115171   6.680   2.599   3.781
 5069TIP3    H215172   6.683   2.579   3.931
 5070TIP3   OH215173   0.466   1.333   3.434
 5070TIP3    H115174   0.525   1.266   3.470
 5070TIP3    H215175   0.499   1.349   3.346
 5071TIP3   OH215176   6.452   3.080   5.871
 5071TIP3    H115177   6.447   3.028   5.792
 5071TIP3    H215178   6.509   3.154   5.849
 5072TIP3   OH215179   6.616   1.521   2.532
 5072TIP3    H115180   6.602   1.437   2.575
 5072TIP3    H215181   6.679   1.501   2.462
 5073TIP3   OH215182   2.486   3.078   5.457
 5073TIP3    H115183   2.545   3.090   5.383
 5073TIP3    H215184   2.505   3.152   5.515
 5074TIP3   OH215185   2.392   3.230   2.510
 5074TIP3    H115186   2.344   3.265   2.435
 5074TIP3    H215187   2.484   3.238   2.485
 5075TIP3   OH215188   5.717   5.632   3.154
 5075TIP3    H115189   5.659   5.707   3.140
 5075TIP3    H215190   5.801   5.660   3.117
 5076TIP3   OH215191   2.158   0.653   2.300
 5076TIP3    H115192   2.206   0.720   2.348
 5076TIP3    H215193   2.224   0.611   2.245
 5077TIP3   OH215194   4.023   5.478   3.695
 5077TIP3    H115195   3.932   5.506   3.708
 5077TIP3    H215196   4.035   5.479   3.600
 5078TIP3   OH215197   2.825   3.121   1.929
 5078TIP3    H115198   2.921   3.127   1.932
 5078TIP3    H215199   2.800   3.085   2.014
 5079TIP3   OH215200   5.084   6.382   4.773
 5079TIP3    H115201   5.028   6.443   4.725
 5079TIP3    H215202   5.117   6.322   4.706
 5080TIP3   OH215203   5.387   5.906   1.875
 5080TIP3    H115204   5.315   5.936   1.931
 5080TIP3    H215205   5.438   5.985   1.857
 5081TIP3   OH215206   6.605   0.022   1.868
 5081TIP3    H115207   6.545  -0.034   1.820
 5081TIP3    H215208   6.669   0.051   1.803
 5082TIP3   OH215209   4.446   1.756   4.703
 5082TIP3    H115210   4.379   1.688   4.711
 5082TIP3    H215211   4.508   1.722   4.638
 5083TIP3   OH215212   4.665   3.453   0.218
 5083TIP3    H115213   4.691   3.397   0.144
 5083TIP3    H215214   4.680   3.542   0.187
 5084TIP3   OH215215   5.209   6.456   2.654
 5084TIP3    H115216   5.275   6.386   2.648
 5084TIP3    H215217   5.194   6.482   2.563
 5085TIP3   OH215218   4.865   4.489   4.872
 5085TIP3    H115219   4.809   4.412   4.860
 5085TIP3    H215220   4.943   4.456   4.916
 5086TIP3   OH215221   5.376   4.518   4.007
 5086TIP3    H115222   5.456   4.569   3.995
 5086TIP3    H215223   5.306   4.578   3.983
 5087TIP3   OH215224   1.870   5.736   2.112
 5087TIP3    H115225   1.879   5.704   2.022
 5087TIP3    H215226   1.784   5.778   2.115
 5088TIP3   OH215227   3.221   1.179   4.921
 5088TIP3    H115228   3.211   1.127   4.842
 5088TIP3    H215229   3.280   1.250   4.895
 5089TIP3   OH215230   3.702   0.136   4.568
 5089TIP3    H115231   3.726   0.163   4.657
 5089TIP3    H215232   3.678   0.043   4.576
 5090TIP3   OH215233   0.140   4.059   4.523
 5090TIP3    H115234   0.209   4.069   4.457
 5090TIP3    H215235   0.138   4.143   4.569
 5091TIP3   OH215236   6.359   5.717   0.449
 5091TIP3    H115237   6.364   5.730   0.354
 5091TIP3    H215238   6.448   5.729   0.480
 5092TIP3   OH215239   1.409   3.965   1.947
 5092TIP3    H115240   1.467   3.904   1.993
 5092TIP3    H215241   1.422   3.945   1.854
 5093TIP3   OH215242   0.032   2.521   2.719
 5093TIP3    H115243   0.024   2.604   2.671
 5093TIP3    H215244   0.094   2.469   2.669
 5094TIP3   OH215245   7.200   6.598   5.335
 5094TIP3    H115246   7.171   6.526   5.391
 5094TIP3    H215247   7.266   6.644   5.386
 5095TIP3   OH215248   4.625   6.445   0.201
 5095TIP3    H115249   4.543   6.487   0.175
 5095TIP3    H215250   4.655   6.497   0.276
 5096TIP3   OH215251   2.708   2.819   4.769
 5096TIP3    H115252   2.777   2.885   4.772
 5096TIP3    H215253   2.743   2.745   4.819
 5097TIP3   OH215254   3.819   5.052   4.530
 5097TIP3    H115255   3.842   5.123   4.471
 5097TIP3    H215256   3.756   5.091   4.591
 5098TIP3   OH215257   0.927   1.549   2.279
 5098TIP3    H115258   0.978   1.505   2.347
 5098TIP3    H215259   0.973   1.631   2.264
 5099TIP3   OH215260   4.377   6.807   1.682
 5099TIP3    H115261   4.379   6.714   1.662
 5099TIP3    H215262   4.467   6.837   1.669
 5100TIP3   OH215263   4.021   5.260   4.711
 5100TIP3    H115264   4.091   5.222   4.657
 5100TIP3    H215265   3.972   5.184   4.743
 5101TIP3   OH215266   3.045   6.421   4.243
 5101TIP3    H115267   3.121   6.410   4.301
 5101TIP3    H215268   3.036   6.335   4.201
 5102TIP3   OH215269   4.269   2.289   4.594
 5102TIP3    H115270   4.322   2.224   4.547
 5102TIP3    H215271   4.332   2.349   4.633
 5103TIP3   OH215272   2.302   0.452   2.616
 5103TIP3    H115273   2.243   0.525   2.634
 5103TIP3    H215274   2.256   0.374   2.647
 5104TIP3   OH215275   3.291   3.435   0.728
 5104TIP3    H115276   3.266   3.371   0.795
 5104TIP3    H215277   3.221   3.500   0.730
 5105TIP3   OH215278   1.072   6.317   1.019
 5105TIP3    H115279   1.088   6.227   0.992
 5105TIP3    H215280   0.980   6.332   0.999
 5106TIP3   OH215281   3.698   4.884   0.850
 5106TIP3    H115282   3.757   4.908   0.921
 5106TIP3    H215283   3.755   4.843   0.784
 5107TIP3   OH215284   2.966   2.598   4.657
 5107TIP3    H115285   2.962   2.506   4.684
 5107TIP3    H215286   2.893   2.608   4.596
 5108TIP3   OH215287   4.782   5.382   1.347
 5108TIP3    H115288   4.867   5.362   1.385
 5108TIP3    H215289   4.797   5.383   1.252
 5109TIP3   OH215290   4.278   4.672   2.847
 5109TIP3    H115291   4.197   4.721   2.833
 5109TIP3    H215292   4.322   4.719   2.918
 5110TIP3   OH215293   2.969   0.685   3.285
 5110TIP3    H115294   2.984   0.722   3.198
 5110TIP3    H215295   3.040   0.720   3.338
 5111TIP3   OH215296   2.097   3.437   5.148
 5111TIP3    H115297   2.096   3.388   5.230
 5111TIP3    H215298   2.094   3.370   5.080
 5112TIP3   OH215299   5.035   2.471   1.071
 5112TIP3    H115300   5.040   2.378   1.051
 5112TIP3    H215301   5.058   2.515   0.989
 5113TIP3   OH215302   3.788   2.986   4.693
 5113TIP3    H115303   3.709   2.987   4.747
 5113TIP3    H215304   3.759   3.018   4.608
 5114TIP3   OH215305   0.892   1.854   3.397
 5114TIP3    H115306   0.838   1.844   3.319
 5114TIP3    H215307   0.849   1.923   3.448
 5115TIP3   OH215308   0.271   5.584   1.747
 5115TIP3    H115309   0.216   5.511   1.716
 5115TIP3    H215310   0.283   5.639   1.670
 5116TIP3   OH215311   1.711   4.495   0.514
 5116TIP3    H115312   1.655   4.425   0.548
 5116TIP3    H215313   1.700   4.567   0.577
 5117TIP3   OH215314   5.526   0.478   3.900
 5117TIP3    H115315   5.503   0.567   3.875
 5117TIP3    H215316   5.469   0.458   3.974
 5118TIP3   OH215317   0.232   0.925   1.051
 5118TIP3    H115318   0.305   0.984   1.071
 5118TIP3    H215319   0.271   0.838   1.048
 5119TIP3   OH215320   6.467   2.941   2.305
 5119TIP3    H115321   6.508   3.014   2.259
 5119TIP3    H215322   6.450   2.974   2.393
 5120TIP3   OH215323   7.096   6.621   4.542
 5120TIP3    H115324   7.120   6.592   4.454
 5120TIP3    H215325   7.010   6.661   4.531
 5121TIP3   OH215326   5.806   6.462   5.376
 5121TIP3    H115327   5.859   6.434   5.301
 5121TIP3    H215328   5.716   6.441   5.351
 5122TIP3   OH215329   1.162   3.677   3.172
 5122TIP3    H115330   1.072   3.708   3.176
 5122TIP3    H215331   1.162   3.598   3.226
 5123TIP3   OH215332   1.010   1.429   5.421
 5123TIP3    H115333   1.056   1.382   5.351
 5123TIP3    H215334   1.044   1.391   5.502
 5124TIP3   OH215335   0.430   4.930   4.926
 5124TIP3    H115336   0.408   4.837   4.934
 5124TIP3    H215337   0.452   4.957   5.015
 5125TIP3   OH215338   0.797   0.210   3.200
 5125TIP3    H115339   0.891   0.196   3.192
 5125TIP3    H215340   0.757   0.133   3.159
 5126TIP3   OH215341   2.513   5.856   5.827
 5126TIP3    H115342   2.451   5.860   5.754
 5126TIP3    H215343   2.466   5.895   5.901
 5127TIP3   OH215344   6.911   3.092   4.546
 5127TIP3    H115345   6.934   3.179   4.578
 5127TIP3    H215346   6.995   3.052   4.523
 5128TIP3   OH215347   6.808   4.054   0.294
 5128TIP3    H115348   6.838   3.971   0.331
 5128TIP3    H215349   6.856   4.063   0.212
 5129TIP3   OH215350   3.293   1.048   0.731
 5129TIP3    H115351   3.366   1.025   0.674
 5129TIP3    H215352   3.264   1.134   0.700
 5130TIP3   OH215353   2.127   0.053   5.734
 5130TIP3    H115354   2.089   0.101   5.660
 5130TIP3    H215355   2.065  -0.018   5.751
 5131TIP3   OH215356   4.558   5.948   1.220
 5131TIP3    H115357   4.611   6.013   1.266
 5131TIP3    H215358   4.502   5.999   1.162
 5132TIP3   OH215359   4.799   6.185   4.460
 5132TIP3    H115360   4.745   6.264   4.452
 5132TIP3    H215361   4.757   6.134   4.530
 5133TIP3   OH215362   2.540   0.305   0.882
 5133TIP3    H115363   2.619   0.344   0.921
 5133TIP3    H215364   2.572   0.259   0.805
 5134TIP3   OH215365   5.267   2.600   1.885
 5134TIP3    H115366   5.354   2.618   1.919
 5134TIP3    H215367   5.249   2.674   1.826
 5135TIP3   OH215368   5.330   0.504   2.502
 5135TIP3    H115369   5.406   0.513   2.561
 5135TIP3    H215370   5.356   0.437   2.440
 5136TIP3   OH215371   6.461   4.278   0.925
 5136TIP3    H115372   6.445   4.185   0.912
 5136TIP3    H215373   6.432   4.319   0.843
 5137TIP3   OH215374   3.875   3.319   3.604
 5137TIP3    H115375   3.827   3.324   3.687
 5137TIP3    H215376   3.941   3.389   3.612
 5138TIP3   OH215377   0.665   0.418   1.581
 5138TIP3    H115378   0.598   0.482   1.605
 5138TIP3    H215379   0.733   0.428   1.648
 5139TIP3   OH215380   3.014   1.208   5.690
 5139TIP3    H115381   2.990   1.144   5.624
 5139TIP3    H215382   3.021   1.291   5.643
 5140TIP3   OH215383   4.879   3.192   2.468
 5140TIP3    H115384   4.802   3.236   2.504
 5140TIP3    H215385   4.857   3.099   2.473
 5141TIP3   OH215386   2.391   0.257   4.166
 5141TIP3    H115387   2.411   0.165   4.184
 5141TIP3    H215388   2.477   0.297   4.151
 5142TIP3   OH215389   0.746   4.157   2.686
 5142TIP3    H115390   0.831   4.130   2.721
 5142TIP3    H215391   0.697   4.076   2.675
 5143TIP3   OH215392   5.206   1.413   4.220
 5143TIP3    H115393   5.178   1.410   4.128
 5143TIP3    H215394   5.156   1.343   4.262
 5144TIP3   OH215395   1.175   3.944   0.588
 5144TIP3    H115396   1.238   3.948   0.516
 5144TIP3    H215397   1.184   3.856   0.624
 5145TIP3   OH215398   4.640   6.219   3.023
 5145TIP3    H115399   4.726   6.181   3.009
 5145TIP3    H215400   4.601   6.166   3.092
 5146TIP3   OH215401   3.532   1.463   4.168
 5146TIP3    H115402   3.544   1.425   4.081
 5146TIP3    H215403   3.566   1.552   4.161
 5147TIP3   OH215404   3.707   3.130   5.827
 5147TIP3    H115405   3.693   3.158   5.736
 5147TIP3    H215406   3.738   3.040   5.819
 5148TIP3   OH215407   1.344   4.205   2.328
 5148TIP3    H115408   1.322   4.162   2.245
 5148TIP3    H215409   1.422   4.158   2.358
 5149TIP3   OH215410   0.054   2.461   0.413
 5149TIP3    H115411  -0.005   2.516   0.465
 5149TIP3    H215412   0.023   2.371   0.429
 5150TIP3   OH215413   6.402   4.758   1.098
 5150TIP3    H115414   6.373   4.774   1.187
 5150TIP3    H215415   6.412   4.663   1.092
 5151TIP3   OH215416   1.541   3.245   0.024
 5151TIP3    H115417   1.615   3.210   0.073
 5151TIP3    H215418   1.553   3.211  -0.065
 5152TIP3   OH215419   3.343   4.136   0.429
 5152TIP3    H115420   3.253   4.121   0.455
 5152TIP3    H215421   3.394   4.122   0.509
 5153TIP3   OH215422   0.560   1.102   4.331
 5153TIP3    H115423   0.499   1.028   4.336
 5153TIP3    H215424   0.614   1.083   4.254
 5154TIP3   OH215425   3.795   5.631   3.715
 5154TIP3    H115426   3.862   5.698   3.724
 5154TIP3    H215427   3.733   5.667   3.652
 5155TIP3   OH215428   5.726   4.879   0.131
 5155TIP3    H115429   5.644   4.849   0.092
 5155TIP3    H215430   5.792   4.818   0.096
 5156TIP3   OH215431   6.717   5.777   0.773
 5156TIP3    H115432   6.784   5.709   0.767
 5156TIP3    H215433   6.698   5.800   0.682
 5157TIP3   OH215434   0.139   3.325   4.336
 5157TIP3    H115435   0.154   3.313   4.429
 5157TIP3    H215436   0.142   3.237   4.299
 5158TIP3   OH215437   4.377   6.791   5.533
 5158TIP3    H115438   4.337   6.806   5.448
 5158TIP3    H215439   4.451   6.852   5.536
 5159TIP3   OH215440   2.333   4.427   4.148
 5159TIP3    H115441   2.303   4.437   4.057
 5159TIP3    H215442   2.351   4.334   4.157
 5160TIP3   OH215443   3.681   6.354   3.448
 5160TIP3    H115444   3.729   6.274   3.467
 5160TIP3    H215445   3.708   6.378   3.359
 5161TIP3   OH215446   6.920   1.453   1.125
 5161TIP3    H115447   6.868   1.436   1.204
 5161TIP3    H215448   6.984   1.382   1.122
 5162TIP3   OH215449   3.764   4.909   2.944
 5162TIP3    H115450   3.687   4.912   3.001
 5162TIP3    H215451   3.745   4.839   2.882
 5163TIP3   OH215452   5.316   4.129   4.127
 5163TIP3    H115453   5.308   4.152   4.034
 5163TIP3    H215454   5.334   4.035   4.127
 5164TIP3   OH215455   2.174   1.459   0.995
 5164TIP3    H115456   2.263   1.434   1.018
 5164TIP3    H215457   2.168   1.443   0.901
 5165TIP3   OH215458   4.680   5.117   0.179
 5165TIP3    H115459   4.596   5.080   0.154
 5165TIP3    H215460   4.723   5.048   0.230
 5166TIP3   OH215461   0.659   2.556   0.506
 5166TIP3    H115462   0.714   2.524   0.434
 5166TIP3    H215463   0.685   2.504   0.581
 5167TIP3   OH215464   5.259   2.474   4.138
 5167TIP3    H115465   5.303   2.516   4.212
 5167TIP3    H215466   5.190   2.421   4.177
 5168TIP3   OH215467   6.311   6.749   4.339
 5168TIP3    H115468   6.302   6.663   4.297
 5168TIP3    H215469   6.346   6.806   4.271
 5169TIP3   OH215470   5.181   5.562   1.181
 5169TIP3    H115471   5.162   5.492   1.243
 5169TIP3    H215472   5.117   5.631   1.202
 5170TIP3   OH215473   5.498   4.349   4.210
 5170TIP3    H115474   5.474   4.399   4.132
 5170TIP3    H215475   5.476   4.259   4.188
 5171TIP3   OH215476   3.542   1.099   5.386
 5171TIP3    H115477   3.490   1.120   5.308
 5171TIP3    H215478   3.478   1.067   5.450
 5172TIP3   OH215479   2.486   0.073   4.905
 5172TIP3    H115480   2.499   0.022   4.986
 5172TIP3    H215481   2.394   0.099   4.907
 5173TIP3   OH215482   5.733   3.087   0.447
 5173TIP3    H115483   5.792   3.162   0.452
 5173TIP3    H215484   5.646   3.126   0.437
 5174TIP3   OH215485   6.124   5.117   0.146
 5174TIP3    H115486   6.142   5.182   0.077
 5174TIP3    H215487   6.176   5.146   0.220
 5175TIP3   OH215488   5.841   4.075   3.180
 5175TIP3    H115489   5.750   4.048   3.164
 5175TIP3    H215490   5.893   3.997   3.159
 5176TIP3   OH215491   3.700   6.297   2.290
 5176TIP3    H115492   3.683   6.328   2.201
 5176TIP3    H215493   3.732   6.375   2.337
 5177TIP3   OH215494   3.464   1.397   1.358
 5177TIP3    H115495   3.394   1.462   1.350
 5177TIP3    H215496   3.483   1.372   1.268
 5178TIP3   OH215497   0.647   1.983   0.667
 5178TIP3    H115498   0.669   1.920   0.736
 5178TIP3    H215499   0.732   2.020   0.640
 5179TIP3   OH215500   1.069   3.585   3.611
 5179TIP3    H115501   1.035   3.673   3.627
 5179TIP3    H215502   1.163   3.592   3.627
 5180TIP3   OH215503   5.673   6.287   2.384
 5180TIP3    H115504   5.758   6.260   2.419
 5180TIP3    H215505   5.675   6.262   2.292
 5181TIP3   OH215506   5.704   3.760   3.808
 5181TIP3    H115507   5.799   3.762   3.795
 5181TIP3    H215508   5.669   3.814   3.737
 5182TIP3   OH215509   2.076   0.622   2.655
 5182TIP3    H115510   2.054   0.695   2.713
 5182TIP3    H215511   2.122   0.664   2.582
 5183TIP3   OH215512   6.196   2.847   4.589
 5183TIP3    H115513   6.271   2.797   4.556
 5183TIP3    H215514   6.232   2.932   4.614
 5184TIP3   OH215515   5.155   2.782   0.311
 5184TIP3    H115516   5.162   2.717   0.381
 5184TIP3    H215517   5.237   2.831   0.315
 5185TIP3   OH215518   0.995   1.908   1.302
 5185TIP3    H115519   1.065   1.963   1.266
 5185TIP3    H215520   0.915   1.940   1.261
 5186TIP3   OH215521   2.964   3.077   2.932
 5186TIP3    H115522   3.026   3.036   2.872
 5186TIP3    H215523   2.988   3.044   3.018
 5187TIP3   OH215524   0.182   4.982   5.221
 5187TIP3    H115525   0.171   5.056   5.162
 5187TIP3    H215526   0.125   4.914   5.186
 5188TIP3   OH215527   6.165   0.761   5.342
 5188TIP3    H115528   6.181   0.694   5.408
 5188TIP3    H215529   6.253   0.786   5.312
 5189TIP3   OH215530   3.513   5.193   5.354
 5189TIP3    H115531   3.546   5.105   5.374
 5189TIP3    H215532   3.424   5.194   5.388
 5190TIP3   OH215533   2.389   5.232   0.444
 5190TIP3    H115534   2.361   5.303   0.387
 5190TIP3    H215535   2.326   5.234   0.517
 5191TIP3   OH215536   6.585   6.181   2.090
 5191TIP3    H115537   6.670   6.141   2.108
 5191TIP3    H215538   6.594   6.217   2.002
 5192TIP3   OH215539   0.175   0.127   5.318
 5192TIP3    H115540   0.219   0.077   5.249
 5192TIP3    H215541   0.207   0.089   5.400
 5193TIP3   OH215542   2.405   5.715   2.529
 5193TIP3    H115543   2.398   5.630   2.486
 5193TIP3    H215544   2.483   5.755   2.490
 5194TIP3   OH215545   0.595   4.416   2.558
 5194TIP3    H115546   0.515   4.409   2.505
 5194TIP3    H215547   0.607   4.328   2.594
 5195TIP3   OH215548   1.651   4.845   0.702
 5195TIP3    H115549   1.716   4.823   0.769
 5195TIP3    H215550   1.702   4.879   0.629
 5196TIP3   OH215551   3.302   3.150   3.658
 5196TIP3    H115552   3.244   3.084   3.697
 5196TIP3    H215553   3.341   3.194   3.733
 5197TIP3   OH215554   3.125   5.566   4.862
 5197TIP3    H115555   3.135   5.518   4.945
 5197TIP3    H215556   3.045   5.616   4.873
 5198TIP3   OH215557   6.170   1.646   3.729
 5198TIP3    H115558   6.216   1.730   3.728
 5198TIP3    H215559   6.164   1.622   3.637
 5199TIP3   OH215560   7.173   2.088   3.555
 5199TIP3    H115561   7.166   2.129   3.469
 5199TIP3    H215562   7.164   2.161   3.617
 5200TIP3   OH215563   5.946   2.480   4.994
 5200TIP3    H115564   5.985   2.540   5.057
 5200TIP3    H215565   6.015   2.415   4.978
 5201TIP3   OH215566   0.460   5.084   4.051
 5201TIP3    H115567   0.464   5.021   3.979
 5201TIP3    H215568   0.371   5.119   4.046
 5202TIP3   OH215569   2.483   2.834   4.214
 5202TIP3    H115570   2.553   2.770   4.221
 5202TIP3    H215571   2.527   2.917   4.199
 5203TIP3   OH215572   5.315   0.895   5.020
 5203TIP3    H115573   5.301   0.948   5.099
 5203TIP3    H215574   5.351   0.957   4.957
 5204TIP3   OH215575   3.379   3.190   3.399
 5204TIP3    H115576   3.371   3.158   3.489
 5204TIP3    H215577   3.470   3.220   3.393
 5205TIP3   OH215578   3.065   5.616   5.473
 5205TIP3    H115579   3.023   5.534   5.448
 5205TIP3    H215580   3.154   5.608   5.439
 5206TIP3   OH215581   6.563   4.361   1.517
 5206TIP3    H115582   6.492   4.296   1.525
 5206TIP3    H215583   6.571   4.376   1.423
 5207TIP3   OH215584   1.563   1.542   4.241
 5207TIP3    H115585   1.472   1.514   4.248
 5207TIP3    H215586   1.598   1.530   4.329
 5208TIP3   OH215587   3.178   1.693   2.532
 5208TIP3    H115588   3.266   1.705   2.495
 5208TIP3    H215589   3.137   1.779   2.523
 5209TIP3   OH215590   4.718   0.657   1.811
 5209TIP3    H115591   4.703   0.716   1.738
 5209TIP3    H215592   4.774   0.706   1.871
 5210TIP3   OH215593   5.802   6.052   4.955
 5210TIP3    H115594   5.861   6.005   4.896
 5210TIP3    H215595   5.848   6.055   5.038
 5211TIP3   OH215596   4.231   4.071   0.165
 5211TIP3    H115597   4.145   4.037   0.193
 5211TIP3    H215598   4.292   3.999   0.184
 5212TIP3   OH215599   2.335   6.778   1.193
 5212TIP3    H115600   2.346   6.839   1.120
 5212TIP3    H215601   2.301   6.832   1.264
 5213TIP3   OH215602   1.061   1.125   0.464
 5213TIP3    H115603   1.148   1.123   0.424
 5213TIP3    H215604   1.002   1.149   0.393
 5214TIP3   OH215605   0.174   1.511   3.316
 5214TIP3    H115606   0.265   1.532   3.295
 5214TIP3    H215607   0.147   1.580   3.377
 5215TIP3   OH215608   6.266   5.168   3.634
 5215TIP3    H115609   6.329   5.225   3.678
 5215TIP3    H215610   6.304   5.081   3.640
 5216TIP3   OH215611   5.342   5.751   4.400
 5216TIP3    H115612   5.344   5.769   4.494
 5216TIP3    H215613   5.318   5.835   4.360
 5217TIP3   OH215614   0.363   2.805   1.797
 5217TIP3    H115615   0.430   2.842   1.740
 5217TIP3    H215616   0.411   2.740   1.849
 5218TIP3   OH215617   3.069   0.319   4.569
 5218TIP3    H115618   3.160   0.300   4.591
 5218TIP3    H215619   3.075   0.373   4.490
 5219TIP3   OH215620   5.763   0.782   2.618
 5219TIP3    H115621   5.853   0.774   2.647
 5219TIP3    H215622   5.753   0.874   2.594
 5220TIP3   OH215623   2.840   5.973   0.321
 5220TIP3    H115624   2.847   5.896   0.377
 5220TIP3    H215625   2.912   6.029   0.348
 5221TIP3   OH215626   1.931   5.018   4.390
 5221TIP3    H115627   1.990   4.991   4.460
 5221TIP3    H215628   1.875   4.942   4.374
 5222TIP3   OH215629   6.104   1.356   2.061
 5222TIP3    H115630   6.035   1.305   2.018
 5222TIP3    H215631   6.167   1.290   2.090
 5223TIP3   OH215632   1.196   2.691   0.104
 5223TIP3    H115633   1.249   2.769   0.120
 5223TIP3    H215634   1.154   2.707   0.020
 5224TIP3   OH215635   6.980   1.831   2.863
 5224TIP3    H115636   7.049   1.830   2.929
 5224TIP3    H215637   7.020   1.795   2.785
 5225TIP3   OH215638   4.752   3.168   2.972
 5225TIP3    H115639   4.676   3.120   2.939
 5225TIP3    H215640   4.798   3.196   2.893
 5226TIP3   OH215641   0.648   5.527   3.103
 5226TIP3    H115642   0.556   5.525   3.129
 5226TIP3    H215643   0.655   5.462   3.033
 5227TIP3   OH215644   6.213   6.742   5.619
 5227TIP3    H115645   6.123   6.755   5.648
 5227TIP3    H215646   6.209   6.666   5.562
 5228TIP3   OH215647   3.959   2.211   5.009
 5228TIP3    H115648   4.027   2.200   4.942
 5228TIP3    H215649   3.931   2.302   5.000
 5229TIP3   OH215650   1.309   0.476   5.886
 5229TIP3    H115651   1.388   0.498   5.836
 5229TIP3    H215652   1.329   0.392   5.926
 5230TIP3   OH215653   4.959   3.015   3.638
 5230TIP3    H115654   4.894   2.956   3.598
 5230TIP3    H215655   4.914   3.100   3.642
 5231TIP3   OH215656   0.361   4.976   0.209
 5231TIP3    H115657   0.299   5.029   0.159
 5231TIP3    H215658   0.439   5.030   0.216
 5232TIP3   OH215659   1.920   4.467   5.014
 5232TIP3    H115660   1.850   4.532   5.003
 5232TIP3    H215661   1.874   4.383   5.016
 5233TIP3   OH215662   6.675   4.158   2.363
 5233TIP3    H115663   6.668   4.239   2.414
 5233TIP3    H215664   6.726   4.183   2.286
 5234TIP3   OH215665   2.524   1.990   1.961
 5234TIP3    H115666   2.584   2.057   1.928
 5234TIP3    H215667   2.484   2.031   2.038
 5235TIP3   OH215668   0.533   1.810   2.228
 5235TIP3    H115669   0.629   1.814   2.237
 5235TIP3    H215670   0.515   1.855   2.146
 5236TIP3   OH215671   5.031   2.587   4.461
 5236TIP3    H115672   5.006   2.657   4.400
 5236TIP3    H215673   5.126   2.578   4.448
 5237TIP3   OH215674   2.320   6.219   5.823
 5237TIP3    H115675   2.264   6.293   5.800
 5237TIP3    H215676   2.381   6.255   5.888
 5238TIP3   OH215677   0.991   0.939   4.162
 5238TIP3    H115678   1.053   0.987   4.107
 5238TIP3    H215679   1.009   0.847   4.144
 5239TIP3   OH215680   4.092   0.289   1.517
 5239TIP3    H115681   4.181   0.253   1.522
 5239TIP3    H215682   4.084   0.320   1.427
 5240TIP3   OH215683   6.120   0.344   4.633
 5240TIP3    H115684   6.114   0.438   4.614
 5240TIP3    H215685   6.200   0.335   4.684
 5241TIP3   OH215686   5.600   2.586   4.596
 5241TIP3    H115687   5.660   2.582   4.670
 5241TIP3    H215688   5.630   2.660   4.544
 5242TIP3   OH215689   6.550   2.917   4.066
 5242TIP3    H115690   6.641   2.891   4.048
 5242TIP3    H215691   6.542   2.913   4.161
 5243TIP3   OH215692   5.268   2.465   1.237
 5243TIP3    H115693   5.262   2.418   1.321
 5243TIP3    H215694   5.180   2.459   1.200
 5244TIP3   OH215695   2.224   3.819   0.812
 5244TIP3    H115696   2.231   3.903   0.858
 5244TIP3    H215697   2.304   3.772   0.835
 5245TIP3   OH215698   5.276   0.953   2.441
 5245TIP3    H115699   5.272   0.862   2.471
 5245TIP3    H215700   5.257   1.005   2.518
 5246TIP3   OH215701   2.422   6.105   1.638
 5246TIP3    H115702   2.514   6.099   1.663
 5246TIP3    H215703   2.376   6.051   1.703
 5247TIP3   OH215704   5.622   0.271   4.585
 5247TIP3    H115705   5.638   0.307   4.498
 5247TIP3    H215706   5.682   0.319   4.642
 5248TIP3   OH215707   0.341   2.211   3.425
 5248TIP3    H115708   0.319   2.187   3.515
 5248TIP3    H215709   0.293   2.292   3.409
 5249TIP3   OH215710   6.869   5.535   4.995
 5249TIP3    H115711   6.926   5.588   5.051
 5249TIP3    H215712   6.810   5.598   4.954
 5250TIP3   OH215713   0.336   1.789   3.060
 5250TIP3    H115714   0.382   1.746   3.132
 5250TIP3    H215715   0.261   1.832   3.101
 5251TIP3   OH215716   0.486   2.951   4.559
 5251TIP3    H115717   0.541   2.892   4.610
 5251TIP3    H215718   0.456   3.017   4.622
 5252TIP3   OH215719   0.766   4.972   5.431
 5252TIP3    H115720   0.733   4.897   5.382
 5252TIP3    H215721   0.690   5.003   5.481
 5253TIP3   OH215722   1.821   4.218   3.568
 5253TIP3    H115723   1.728   4.235   3.582
 5253TIP3    H215724   1.862   4.229   3.653
 5254TIP3   OH215725   6.318   3.948   0.320
 5254TIP3    H115726   6.396   3.936   0.374
 5254TIP3    H215727   6.310   4.043   0.311
 5255TIP3   OH215728   3.505   1.616   4.558
 5255TIP3    H115729   3.435   1.652   4.503
 5255TIP3    H215730   3.586   1.648   4.517
 5256TIP3   OH215731   5.950   4.133   2.753
 5256TIP3    H115732   5.989   4.105   2.836
 5256TIP3    H215733   5.968   4.060   2.693
 5257TIP3   OH215734   1.968   6.512   4.528
 5257TIP3    H115735   1.917   6.509   4.608
 5257TIP3    H215736   2.018   6.430   4.529
 5258TIP3   OH215737   3.777   2.531   0.242
 5258TIP3    H115738   3.859   2.571   0.273
 5258TIP3    H215739   3.760   2.460   0.304
 5259TIP3   OH215740   6.711   6.729   5.603
 5259TIP3    H115741   6.743   6.656   5.551
 5259TIP3    H215742   6.710   6.696   5.693
 5260TIP3   OH215743   5.038   0.910   4.937
 5260TIP3    H115744   4.982   0.842   4.976
 5260TIP3    H215745   5.121   0.903   4.985
 5261TIP3   OH215746   5.831   3.154   4.071
 5261TIP3    H115747   5.812   3.174   4.163
 5261TIP3    H215748   5.746   3.164   4.027
 5262TIP3   OH215749   2.514   2.876   5.656
 5262TIP3    H115750   2.528   2.946   5.592
 5262TIP3    H215751   2.487   2.922   5.735
 5263TIP3   OH215752   5.080   5.597   4.749
 5263TIP3    H115753   5.073   5.565   4.839
 5263TIP3    H215754   4.990   5.604   4.718
 5264TIP3   OH215755   1.220   4.138   2.050
 5264TIP3    H115756   1.139   4.114   2.005
 5264TIP3    H215757   1.289   4.117   1.988
 5265TIP3   OH215758   3.887   1.825   5.029
 5265TIP3    H115759   3.976   1.858   5.035
 5265TIP3    H215760   3.832   1.899   5.054
 5266TIP3   OH215761   5.254   5.196   0.351
 5266TIP3    H115762   5.310   5.176   0.276
 5266TIP3    H215763   5.209   5.277   0.328
 5267TIP3   OH215764   6.535   4.191   4.967
 5267TIP3    H115765   6.590   4.222   5.039
 5267TIP3    H215766   6.543   4.259   4.900
 5268TIP3   OH215767   4.867   2.567   2.906
 5268TIP3    H115768   4.875   2.650   2.859
 5268TIP3    H215769   4.804   2.517   2.854
 5269TIP3   OH215770   1.805   6.456   4.748
 5269TIP3    H115771   1.799   6.376   4.695
 5269TIP3    H215772   1.827   6.424   4.836
 5270TIP3   OH215773   4.010   5.655   1.857
 5270TIP3    H115774   3.958   5.604   1.918
 5270TIP3    H215775   4.095   5.610   1.856
 5271TIP3   OH215776   4.549   1.667   4.044
 5271TIP3    H115777   4.472   1.712   4.078
 5271TIP3    H215778   4.530   1.654   3.951
 5272TIP3   OH215779   5.244   2.752   5.435
 5272TIP3    H115780   5.265   2.809   5.360
 5272TIP3    H215781   5.175   2.694   5.402
 5273TIP3   OH215782   0.943   5.857   2.177
 5273TIP3    H115783   0.992   5.830   2.254
 5273TIP3    H215784   0.859   5.812   2.185
 5274TIP3   OH215785   7.169   2.252   0.106
 5274TIP3    H115786   7.253   2.292   0.085
 5274TIP3    H215787   7.139   2.214   0.023
 5275TIP3   OH215788   0.296   6.220   0.645
 5275TIP3    H115789   0.237   6.270   0.702
 5275TIP3    H215790   0.277   6.253   0.557
 5276TIP3   OH215791   0.426   2.291   4.709
 5276TIP3    H115792   0.391   2.315   4.623
 5276TIP3    H215793   0.356   2.314   4.771
 5277TIP3   OH215794   3.409   5.513   4.851
 5277TIP3    H115795   3.425   5.572   4.924
 5277TIP3    H215796   3.314   5.509   4.843
 5278TIP3   OH215797   4.236   0.094   3.024
 5278TIP3    H115798   4.257   0.132   3.110
 5278TIP3    H215799   4.247   0.167   2.963
 5279TIP3   OH215800   4.257   1.253   1.367
 5279TIP3    H115801   4.195   1.229   1.298
 5279TIP3    H215802   4.230   1.340   1.395
 5280TIP3   OH215803   3.646   5.744   4.279
 5280TIP3    H115804   3.667   5.693   4.357
 5280TIP3    H215805   3.688   5.697   4.207
 5281TIP3   OH215806   6.707   5.305   5.112
 5281TIP3    H115807   6.773   5.374   5.110
 5281TIP3    H215808   6.625   5.352   5.127
 5282TIP3   OH215809   5.046   3.508   2.266
 5282TIP3    H115810   4.985   3.527   2.194
 5282TIP3    H215811   5.059   3.414   2.262
 5283TIP3   OH215812   3.122   5.032   1.752
 5283TIP3    H115813   3.070   5.065   1.825
 5283TIP3    H215814   3.212   5.055   1.774
 5284TIP3   OH215815   4.872   4.339   4.434
 5284TIP3    H115816   4.826   4.419   4.407
 5284TIP3    H215817   4.962   4.368   4.452
 5285TIP3   OH215818   4.521   1.116   0.438
 5285TIP3    H115819   4.615   1.110   0.422
 5285TIP3    H215820   4.481   1.100   0.353
 5286TIP3   OH215821   2.495   0.896   4.342
 5286TIP3    H115822   2.522   0.805   4.332
 5286TIP3    H215823   2.507   0.935   4.256
 5287TIP3   OH215824   0.793   6.176   3.455
 5287TIP3    H115825   0.783   6.117   3.381
 5287TIP3    H215826   0.730   6.145   3.520
 5288TIP3   OH215827   6.896   5.416   5.338
 5288TIP3    H115828   6.932   5.463   5.413
 5288TIP3    H215829   6.973   5.388   5.288
 5289TIP3   OH215830   2.182   3.325   2.670
 5289TIP3    H115831   2.249   3.284   2.616
 5289TIP3    H215832   2.110   3.342   2.609
 5290TIP3   OH215833   2.228   1.768   2.775
 5290TIP3    H115834   2.145   1.760   2.728
 5290TIP3    H215835   2.282   1.696   2.740
 5291TIP3   OH215836   3.544   0.809   4.669
 5291TIP3    H115837   3.455   0.835   4.644
 5291TIP3    H215838   3.594   0.815   4.588
 5292TIP3   OH215839   4.109   3.592   4.359
 5292TIP3    H115840   4.044   3.654   4.392
 5292TIP3    H215841   4.061   3.539   4.295
 5293TIP3   OH215842   2.263   3.677   1.319
 5293TIP3    H115843   2.193   3.737   1.295
 5293TIP3    H215844   2.335   3.700   1.260
 5294TIP3   OH215845   2.018   2.846   1.250
 5294TIP3    H115846   1.977   2.759   1.253
 5294TIP3    H215847   1.946   2.906   1.270
 5295TIP3   OH215848   4.867   6.069   0.122
 5295TIP3    H115849   4.932   6.022   0.069
 5295TIP3    H215850   4.797   6.005   0.137
 5296TIP3   OH215851   5.013   1.088   2.421
 5296TIP3    H115852   4.943   1.050   2.369
 5296TIP3    H215853   5.019   1.032   2.499
 5297TIP3   OH215854   1.366   0.847   3.713
 5297TIP3    H115855   1.420   0.926   3.716
 5297TIP3    H215856   1.430   0.776   3.703
 5298TIP3   OH215857   1.360   1.848   0.458
 5298TIP3    H115858   1.320   1.923   0.415
 5298TIP3    H215859   1.436   1.827   0.404
 5299TIP3   OH215860   6.287   2.603   5.083
 5299TIP3    H115861   6.198   2.639   5.082
 5299TIP3    H215862   6.276   2.511   5.060
 5300TIP3   OH215863   3.596   3.097   3.779
 5300TIP3    H115864   3.564   3.038   3.711
 5300TIP3    H215865   3.529   3.165   3.787
 5301TIP3   OH215866   6.794   4.979   4.786
 5301TIP3    H115867   6.840   4.936   4.714
 5301TIP3    H215868   6.829   5.068   4.786
 5302TIP3   OH215869   1.202   2.872   3.892
 5302TIP3    H115870   1.194   2.958   3.933
 5302TIP3    H215871   1.177   2.885   3.801
 5303TIP3   OH215872   4.382   2.235   1.214
 5303TIP3    H115873   4.335   2.277   1.286
 5303TIP3    H215874   4.444   2.176   1.256
 5304TIP3   OH215875   0.710   5.183   4.128
 5304TIP3    H115876   0.616   5.169   4.113
 5304TIP3    H215877   0.728   5.269   4.090
 5305TIP3   OH215878   2.677   5.901   3.527
 5305TIP3    H115879   2.755   5.943   3.563
 5305TIP3    H215880   2.605   5.959   3.551
 5306TIP3   OH215881   0.167   0.105   3.979
 5306TIP3    H115882   0.118   0.181   4.011
 5306TIP3    H215883   0.109   0.031   3.995
 5307TIP3   OH215884   0.745   6.442   0.242
 5307TIP3    H115885   0.743   6.506   0.312
 5307TIP3    H215886   0.834   6.408   0.242
 5308TIP3   OH215887   1.563   4.311   0.151
 5308TIP3    H115888   1.480   4.353   0.174
 5308TIP3    H215889   1.590   4.267   0.232
 5309TIP3   OH215890   1.670   4.849   1.943
 5309TIP3    H115891   1.719   4.767   1.929
 5309TIP3    H215892   1.738   4.914   1.958
 5310TIP3   OH215893   2.480   6.610   4.026
 5310TIP3    H115894   2.454   6.669   4.097
 5310TIP3    H215895   2.399   6.594   3.977
 5311TIP3   OH215896   0.623   3.962   4.024
 5311TIP3    H115897   0.672   3.928   3.949
 5311TIP3    H215898   0.543   3.999   3.986
 5312TIP3   OH215899   7.223   4.078   1.164
 5312TIP3    H115900   7.151   4.129   1.202
 5312TIP3    H215901   7.180   4.017   1.104
 5313TIP3   OH215902   6.386   1.470   0.526
 5313TIP3    H115903   6.374   1.542   0.589
 5313TIP3    H215904   6.474   1.437   0.543
 5314TIP3   OH215905   4.298   5.778   2.731
 5314TIP3    H115906   4.251   5.858   2.706
 5314TIP3    H215907   4.386   5.789   2.693
 5315TIP3   OH215908   7.157   5.453   1.371
 5315TIP3    H115909   7.206   5.389   1.320
 5315TIP3    H215910   7.158   5.532   1.317
 5316TIP3   OH215911   5.691   4.796   0.866
 5316TIP3    H115912   5.762   4.748   0.823
 5316TIP3    H215913   5.721   4.887   0.864
 5317TIP3   OH215914   0.417   2.121   0.772
 5317TIP3    H115915   0.402   2.203   0.727
 5317TIP3    H215916   0.479   2.074   0.716
 5318TIP3   OH215917   4.024   3.346   4.653
 5318TIP3    H115918   3.993   3.390   4.733
 5318TIP3    H215919   4.117   3.368   4.648
 5319TIP3   OH215920   1.037   3.705   4.461
 5319TIP3    H115921   1.035   3.612   4.483
 5319TIP3    H215922   1.098   3.710   4.387
 5320TIP3   OH215923   1.812   0.925   4.404
 5320TIP3    H115924   1.852   1.005   4.439
 5320TIP3    H215925   1.720   0.931   4.428
 5321TIP3   OH215926   7.070   6.447   3.058
 5321TIP3    H115927   7.086   6.536   3.088
 5321TIP3    H215928   7.147   6.398   3.087
 5322TIP3   OH215929   1.592   3.492   2.088
 5322TIP3    H115930   1.572   3.423   2.024
 5322TIP3    H215931   1.667   3.459   2.137
 5323TIP3   OH215932   1.161   5.883   3.656
 5323TIP3    H115933   1.136   5.893   3.748
 5323TIP3    H215934   1.187   5.791   3.649
 5324TIP3   OH215935   5.764   3.868   0.651
 5324TIP3    H115936   5.828   3.908   0.592
 5324TIP3    H215937   5.751   3.780   0.616
 5325TIP3   OH215938   4.520   4.344   3.416
 5325TIP3    H115939   4.489   4.260   3.382
 5325TIP3    H215940   4.614   4.332   3.430
 5326TIP3   OH215941   0.696   2.985   1.171
 5326TIP3    H115942   0.688   2.897   1.132
 5326TIP3    H215943   0.780   3.017   1.138
 5327TIP3   OH215944   2.576   6.254   4.176
 5327TIP3    H115945   2.627   6.184   4.135
 5327TIP3    H215946   2.543   6.305   4.102
 5328TIP3   OH215947   0.448   3.331   4.103
 5328TIP3    H115948   0.472   3.350   4.193
 5328TIP3    H215949   0.492   3.249   4.082
 5329TIP3   OH215950   3.797   4.419   3.754
 5329TIP3    H115951   3.802   4.504   3.711
 5329TIP3    H215952   3.707   4.390   3.739
 5330TIP3   OH215953   5.791   6.623   4.447
 5330TIP3    H115954   5.750   6.673   4.518
 5330TIP3    H215955   5.725   6.620   4.378
 5331TIP3   OH215956   2.866   2.380   5.114
 5331TIP3    H115957   2.904   2.451   5.168
 5331TIP3    H215958   2.800   2.341   5.170
 5332TIP3   OH215959   2.089   1.186   1.968
 5332TIP3    H115960   2.147   1.111   1.972
 5332TIP3    H215961   2.141   1.255   1.926
 5333TIP3   OH215962   3.322   6.795   4.624
 5333TIP3    H115963   3.280   6.877   4.649
 5333TIP3    H215964   3.317   6.794   4.528
 5334TIP3   OH215965   1.994   3.080   1.058
 5334TIP3    H115966   2.063   3.146   1.045
 5334TIP3    H215967   1.954   3.103   1.142
 5335TIP3   OH215968   2.586   1.407   0.273
 5335TIP3    H115969   2.554   1.330   0.319
 5335TIP3    H215970   2.616   1.466   0.342
 5336TIP3   OH215971   6.018   1.772   4.062
 5336TIP3    H115972   6.104   1.808   4.039
 5336TIP3    H215973   6.019   1.768   4.157
 5337TIP3   OH215974   2.049   0.124   1.590
 5337TIP3    H115975   1.970   0.072   1.579
 5337TIP3    H215976   2.037   0.169   1.674
 5338TIP3   OH215977   0.838   0.428   0.373
 5338TIP3    H115978   0.901   0.480   0.422
 5338TIP3    H215979   0.840   0.465   0.285
 5339TIP3   OH215980   0.174   5.163   3.664
 5339TIP3    H115981   0.123   5.237   3.696
 5339TIP3    H215982   0.113   5.089   3.667
 5340TIP3   OH215983   2.531   4.890   5.402
 5340TIP3    H115984   2.572   4.920   5.321
 5340TIP3    H215985   2.554   4.797   5.407
 5341TIP3   OH215986   6.068   3.151   2.795
 5341TIP3    H115987   6.023   3.100   2.862
 5341TIP3    H215988   6.015   3.139   2.716
 5342TIP3   OH215989   5.614   6.410   4.147
 5342TIP3    H115990   5.640   6.393   4.237
 5342TIP3    H215991   5.691   6.451   4.107
 5343TIP3   OH215992   1.674   0.542   3.225
 5343TIP3    H115993   1.743   0.561   3.161
 5343TIP3    H215994   1.606   0.498   3.174
 5344TIP3   OH215995   2.604   2.186   4.264
 5344TIP3    H115996   2.676   2.123   4.260
 5344TIP3    H215997   2.636   2.254   4.323
 5345TIP3   OH215998   2.135   0.607   4.137
 5345TIP3    H115999   2.217   0.617   4.090
 5345TIP3    H216000   2.136   0.677   4.203
 5346TIP3   OH216001   2.852   5.301   3.592
 5346TIP3    H116002   2.943   5.325   3.575
 5346TIP3    H216003   2.812   5.380   3.628
 5347TIP3   OH216004   0.157   0.809   1.852
 5347TIP3    H116005   0.196   0.750   1.916
 5347TIP3    H216006   0.149   0.757   1.772
 5348TIP3   OH216007   3.304   3.972   5.177
 5348TIP3    H116008   3.309   4.065   5.197
 5348TIP3    H216009   3.221   3.944   5.213
 5349TIP3   OH216010   0.654   5.756   2.654
 5349TIP3    H116011   0.742   5.786   2.631
 5349TIP3    H216012   0.651   5.666   2.621
 5350TIP3   OH216013   6.635   1.832   3.787
 5350TIP3    H116014   6.696   1.764   3.762
 5350TIP3    H216015   6.669   1.912   3.745
 5351TIP3   OH216016   3.710   2.271   1.412
 5351TIP3    H116017   3.714   2.208   1.483
 5351TIP3    H216018   3.761   2.346   1.443
 5352TIP3   OH216019   1.531   0.835   2.961
 5352TIP3    H116020   1.511   0.748   2.995
 5352TIP3    H216021   1.600   0.820   2.896
 5353TIP3   OH216022   2.635   0.560   1.973
 5353TIP3    H116023   2.624   0.468   1.947
 5353TIP3    H216024   2.694   0.557   2.048
 5354TIP3   OH216025   0.488   3.716   1.234
 5354TIP3    H116026   0.563   3.664   1.206
 5354TIP3    H216027   0.431   3.655   1.280
 5355TIP3   OH216028   6.370   2.323   0.578
 5355TIP3    H116029   6.380   2.259   0.508
 5355TIP3    H216030   6.377   2.408   0.534
 5356TIP3   OH216031   6.124   2.860   2.295
 5356TIP3    H116032   6.130   2.765   2.287
 5356TIP3    H216033   6.204   2.892   2.254
 5357TIP3   OH216034   5.769   0.504   4.742
 5357TIP3    H116035   5.859   0.527   4.717
 5357TIP3    H216036   5.746   0.568   4.809
 5358TIP3   OH216037   6.096   1.411   5.597
 5358TIP3    H116038   6.128   1.421   5.687
 5358TIP3    H216039   6.011   1.455   5.597
 5359TIP3   OH216040   6.069   3.829   1.381
 5359TIP3    H116041   6.135   3.761   1.392
 5359TIP3    H216042   5.986   3.786   1.405
 5360TIP3   OH216043   6.602   2.886   0.578
 5360TIP3    H116044   6.547   2.831   0.633
 5360TIP3    H216045   6.542   2.950   0.540
 5361TIP3   OH216046   4.890   6.062   4.755
 5361TIP3    H116047   4.805   6.027   4.731
 5361TIP3    H216048   4.878   6.157   4.756
 5362TIP3   OH216049   2.668   4.865   4.033
 5362TIP3    H116050   2.635   4.906   3.953
 5362TIP3    H216051   2.592   4.822   4.071
 5363TIP3   OH216052   2.340   2.045   4.713
 5363TIP3    H116053   2.279   2.036   4.640
 5363TIP3    H216054   2.392   1.964   4.711
 5364TIP3   OH216055   4.039   5.695   4.103
 5364TIP3    H116056   4.076   5.748   4.032
 5364TIP3    H216057   3.970   5.751   4.141
 5365TIP3   OH216058   5.345   4.028   0.975
 5365TIP3    H116059   5.394   4.093   1.025
 5365TIP3    H216060   5.411   3.964   0.948
 5366TIP3   OH216061   3.802   1.125   0.654
 5366TIP3    H116062   3.736   1.099   0.590
 5366TIP3    H216063   3.834   1.042   0.690
 5367TIP3   OH216064   0.972   6.617   5.543
 5367TIP3    H116065   0.998   6.538   5.495
 5367TIP3    H216066   1.009   6.689   5.492
 5368TIP3   OH216067   6.010   6.623   4.303
 5368TIP3    H116068   6.029   6.715   4.284
 5368TIP3    H216069   5.930   6.624   4.355
 5369TIP3   OH216070   0.747   5.145   0.786
 5369TIP3    H116071   0.816   5.082   0.808
 5369TIP3    H216072   0.689   5.144   0.862
 5370TIP3   OH216073   0.912   1.295   0.930
 5370TIP3    H116074   0.976   1.229   0.901
 5370TIP3    H216075   0.925   1.368   0.870
 5371TIP3   OH216076   1.639   1.454   0.905
 5371TIP3    H116077   1.568   1.442   0.841
 5371TIP3    H216078   1.699   1.381   0.887
 5372TIP3   OH216079   3.798   3.989   2.708
 5372TIP3    H116080   3.721   3.934   2.693
 5372TIP3    H216081   3.802   3.999   2.803
 5373TIP3   OH216082   5.162   1.665   3.145
 5373TIP3    H116083   5.150   1.741   3.088
 5373TIP3    H216084   5.127   1.592   3.095
 5374TIP3   OH216085   1.352   1.979   5.602
 5374TIP3    H116086   1.276   1.930   5.637
 5374TIP3    H216087   1.316   2.064   5.576
 5375TIP3   OH216088   2.306   5.288   3.766
 5375TIP3    H116089   2.392   5.276   3.806
 5375TIP3    H216090   2.312   5.243   3.682
 5376TIP3   OH216091   6.847   4.795   0.399
 5376TIP3    H116092   6.914   4.729   0.381
 5376TIP3    H216093   6.810   4.769   0.484
 5377TIP3   OH216094   6.068   0.322   5.486
 5377TIP3    H116095   5.991   0.281   5.527
 5377TIP3    H216096   6.132   0.251   5.479
 5378TIP3   OH216097   0.129   3.808   3.108
 5378TIP3    H116098   0.119   3.891   3.154
 5378TIP3    H216099   0.218   3.780   3.128
 5379TIP3   OH216100   4.473   0.399   1.296
 5379TIP3    H116101   4.499   0.452   1.221
 5379TIP3    H216102   4.554   0.360   1.327
 5380TIP3   OH216103   7.194   0.692   3.686
 5380TIP3    H116104   7.196   0.600   3.713
 5380TIP3    H216105   7.236   0.693   3.600
 5381TIP3   OH216106   1.253   5.144   4.531
 5381TIP3    H116107   1.229   5.150   4.439
 5381TIP3    H216108   1.235   5.053   4.555
 5382TIP3   OH216109   6.826   5.576   2.917
 5382TIP3    H116110   6.872   5.612   2.842
 5382TIP3    H216111   6.783   5.498   2.883
 5383TIP3   OH216112   7.124   1.456   0.418
 5383TIP3    H116113   7.086   1.543   0.412
 5383TIP3    H216114   7.062   1.399   0.373
 5384TIP3   OH216115   5.753   1.171   0.014
 5384TIP3    H116116   5.676   1.182  -0.043
 5384TIP3    H216117   5.719   1.131   0.094
 5385TIP3   OH216118   1.424   2.223   0.785
 5385TIP3    H116119   1.465   2.218   0.871
 5385TIP3    H216120   1.498   2.237   0.725
 5386TIP3   OH216121   5.248   3.169   3.423
 5386TIP3    H116122   5.278   3.224   3.350
 5386TIP3    H216123   5.287   3.083   3.405
 5387TIP3   OH216124   6.356   1.492   4.726
 5387TIP3    H116125   6.398   1.406   4.717
 5387TIP3    H216126   6.265   1.471   4.748
 5388TIP3   OH216127   0.200   3.054   4.449
 5388TIP3    H116128   0.276   3.085   4.498
 5388TIP3    H216129   0.224   2.965   4.422
 5389TIP3   OH216130   0.671   6.546   3.335
 5389TIP3    H116131   0.658   6.490   3.258
 5389TIP3    H216132   0.753   6.515   3.373
 5390TIP3   OH216133   2.059   2.070   4.608
 5390TIP3    H116134   1.975   2.059   4.564
 5390TIP3    H216135   2.091   2.156   4.580
 5391TIP3   OH216136   0.610   6.278   1.365
 5391TIP3    H116137   0.531   6.227   1.345
 5391TIP3    H216138   0.641   6.243   1.448
 5392TIP3   OH216139   5.242   2.335   3.125
 5392TIP3    H116140   5.154   2.314   3.154
 5392TIP3    H216141   5.233   2.354   3.032
 5393TIP3   OH216142   3.657   6.160   4.414
 5393TIP3    H116143   3.628   6.247   4.442
 5393TIP3    H216144   3.577   6.114   4.390
 5394TIP3   OH216145   6.184   4.818   5.388
 5394TIP3    H116146   6.240   4.886   5.351
 5394TIP3    H216147   6.144   4.860   5.465
 5395TIP3   OH216148   2.139   2.747   5.728
 5395TIP3    H116149   2.121   2.841   5.717
 5395TIP3    H216150   2.196   2.743   5.805
 5396TIP3   OH216151   1.597   5.914   3.360
 5396TIP3    H116152   1.531   5.886   3.423
 5396TIP3    H216153   1.628   5.998   3.393
 5397TIP3   OH216154   4.039   2.780   3.829
 5397TIP3    H116155   4.045   2.767   3.924
 5397TIP3    H216156   3.954   2.821   3.815
 5398TIP3   OH216157   6.571   6.499   3.802
 5398TIP3    H116158   6.515   6.573   3.827
 5398TIP3    H216159   6.595   6.517   3.711
 5399TIP3   OH216160   2.342   0.127   5.565
 5399TIP3    H116161   2.263   0.127   5.511
 5399TIP3    H216162   2.310   0.105   5.653
 5400TIP3   OH216163   0.330   6.556   3.082
 5400TIP3    H116164   0.407   6.600   3.046
 5400TIP3    H216165   0.340   6.464   3.056
 5401TIP3   OH216166   1.777   2.708   0.146
 5401TIP3    H116167   1.870   2.688   0.159
 5401TIP3    H216168   1.773   2.804   0.150
 5402TIP3   OH216169   5.764   0.402   4.103
 5402TIP3    H116170   5.718   0.321   4.124
 5402TIP3    H216171   5.707   0.448   4.042
 5403TIP3   OH216172   2.851   3.325   5.113
 5403TIP3    H116173   2.817   3.272   5.041
 5403TIP3    H216174   2.906   3.265   5.162
 5404TIP3   OH216175   0.023   4.175   3.585
 5404TIP3    H116176   0.041   4.146   3.674
 5404TIP3    H216177  -0.051   4.236   3.594
 5405TIP3   OH216178   6.085   0.559   1.544
 5405TIP3    H116179   6.033   0.480   1.527
 5405TIP3    H216180   6.100   0.597   1.457
 5406TIP3   OH216181   2.633   1.847   2.682
 5406TIP3    H116182   2.591   1.804   2.758
 5406TIP3    H216183   2.720   1.807   2.678
 5407TIP3   OH216184   0.202   6.579   2.268
 5407TIP3    H116185   0.264   6.593   2.339
 5407TIP3    H216186   0.233   6.637   2.197
 5408TIP3   OH216187   5.641   5.529   3.905
 5408TIP3    H116188   5.714   5.486   3.860
 5408TIP3    H216189   5.584   5.560   3.835
 5409TIP3   OH216190   2.386   6.275   3.924
 5409TIP3    H116191   2.343   6.359   3.911
 5409TIP3    H216192   2.409   6.245   3.836
 5410TIP3   OH216193   1.468   6.189   1.147
 5410TIP3    H116194   1.453   6.236   1.065
 5410TIP3    H216195   1.396   6.217   1.204
 5411TIP3   OH216196   5.270   2.388   1.511
 5411TIP3    H116197   5.319   2.306   1.520
 5411TIP3    H216198   5.334   2.456   1.530
 5412TIP3   OH216199   1.887   0.729   3.529
 5412TIP3    H116200   1.936   0.810   3.522
 5412TIP3    H216201   1.848   0.731   3.616
 5413TIP3   OH216202   3.538   0.427   0.560
 5413TIP3    H116203   3.479   0.449   0.488
 5413TIP3    H216204   3.516   0.490   0.629
 5414TIP3   OH216205   5.726   1.651   3.662
 5414TIP3    H116206   5.658   1.590   3.689
 5414TIP3    H216207   5.777   1.667   3.742
 5415TIP3   OH216208   2.255   4.428   1.135
 5415TIP3    H116209   2.166   4.447   1.105
 5415TIP3    H216210   2.312   4.469   1.070
 5416TIP3   OH216211   6.199   6.204   1.369
 5416TIP3    H116212   6.280   6.178   1.413
 5416TIP3    H216213   6.196   6.299   1.377
 5417TIP3   OH216214   3.622   3.947   0.526
 5417TIP3    H116215   3.571   3.874   0.490
 5417TIP3    H216216   3.560   3.995   0.580
 5418TIP3   OH216217   7.135   2.947   4.541
 5418TIP3    H116218   7.162   2.878   4.601
 5418TIP3    H216219   7.207   3.010   4.542
 5419TIP3   OH216220   6.209   3.727   2.196
 5419TIP3    H116221   6.290   3.688   2.230
 5419TIP3    H216222   6.239   3.793   2.133
 5420TIP3   OH216223   5.311   5.466   4.671
 5420TIP3    H116224   5.246   5.531   4.696
 5420TIP3    H216225   5.296   5.392   4.731
 5421TIP3   OH216226   0.665   3.652   4.714
 5421TIP3    H116227   0.698   3.714   4.650
 5421TIP3    H216228   0.610   3.592   4.663
 5422TIP3   OH216229   6.756   5.044   3.466
 5422TIP3    H116230   6.775   4.951   3.464
 5422TIP3    H216231   6.755   5.067   3.558
 5423TIP3   OH216232   6.377   6.511   0.949
 5423TIP3    H116233   6.398   6.417   0.952
 5423TIP3    H216234   6.282   6.514   0.948
 5424TIP3   OH216235   4.806   1.277   2.678
 5424TIP3    H116236   4.844   1.317   2.600
 5424TIP3    H216237   4.833   1.185   2.673
 5425TIP3   OH216238   4.183   3.560   5.074
 5425TIP3    H116239   4.207   3.622   5.143
 5425TIP3    H216240   4.264   3.548   5.024
 5426TIP3   OH216241   6.366   1.303   5.527
 5426TIP3    H116242   6.402   1.352   5.601
 5426TIP3    H216243   6.296   1.358   5.493
 5427TIP3   OH216244   3.808   0.390   1.035
 5427TIP3    H116245   3.723   0.425   1.061
 5427TIP3    H216246   3.789   0.301   1.003
 5428TIP3   OH216247   3.035   6.010   1.738
 5428TIP3    H116248   3.091   5.935   1.761
 5428TIP3    H216249   3.006   5.992   1.649
 5429TIP3   OH216250   1.681   1.334   0.443
 5429TIP3    H116251   1.596   1.372   0.419
 5429TIP3    H216252   1.661   1.276   0.516
 5430TIP3   OH216253   5.062   3.309   3.566
 5430TIP3    H116254   5.095   3.276   3.482
 5430TIP3    H216255   5.137   3.304   3.625
 5431TIP3   OH216256   5.246   3.041   3.954
 5431TIP3    H116257   5.312   3.017   3.888
 5431TIP3    H216258   5.181   3.091   3.905
 5432TIP3   OH216259   0.230   5.252   1.591
 5432TIP3    H116260   0.250   5.291   1.506
 5432TIP3    H216261   0.305   5.275   1.647
 5433TIP3   OH216262   5.186   1.193   1.178
 5433TIP3    H116263   5.176   1.145   1.096
 5433TIP3    H216264   5.110   1.251   1.181
 5434TIP3   OH216265   2.387   5.734   2.963
 5434TIP3    H116266   2.299   5.752   2.929
 5434TIP3    H216267   2.378   5.746   3.058
 5435TIP3   OH216268   5.819   6.227   0.976
 5435TIP3    H116269   5.765   6.161   0.932
 5435TIP3    H216270   5.829   6.193   1.065
 5436TIP3   OH216271   4.043   5.383   3.419
 5436TIP3    H116272   4.062   5.289   3.423
 5436TIP3    H216273   3.995   5.394   3.338
 5437TIP3   OH216274   4.914   6.275   1.116
 5437TIP3    H116275   4.901   6.204   1.178
 5437TIP3    H216276   5.010   6.285   1.110
 5438TIP3   OH216277   3.701   5.977   5.440
 5438TIP3    H116278   3.630   5.921   5.471
 5438TIP3    H216279   3.686   6.061   5.483
 5439TIP3   OH216280   5.707   0.455   2.245
 5439TIP3    H116281   5.733   0.364   2.249
 5439TIP3    H216282   5.768   0.495   2.183
 5440TIP3   OH216283   4.971   6.049   1.900
 5440TIP3    H116284   4.935   5.960   1.895
 5440TIP3    H216285   5.006   6.065   1.812
 5441TIP3   OH216286   1.748   0.188   3.149
 5441TIP3    H116287   1.829   0.137   3.158
 5441TIP3    H216288   1.730   0.220   3.237
 5442TIP3   OH216289   3.509   1.731   0.568
 5442TIP3    H116290   3.511   1.792   0.494
 5442TIP3    H216291   3.594   1.741   0.610
 5443TIP3   OH216292   0.671   1.130   3.093
 5443TIP3    H116293   0.604   1.100   3.031
 5443TIP3    H216294   0.625   1.193   3.149
 5444TIP3   OH216295   4.074   5.983   3.580
 5444TIP3    H116296   4.057   5.920   3.510
 5444TIP3    H216297   4.154   6.028   3.554
 5445TIP3   OH216298   3.605   5.522   3.864
 5445TIP3    H116299   3.681   5.542   3.809
 5445TIP3    H216300   3.632   5.548   3.952
 5446TIP3   OH216301   6.116   6.756   0.302
 5446TIP3    H116302   6.072   6.792   0.225
 5446TIP3    H216303   6.181   6.696   0.266
 5447TIP3   OH216304   0.320   1.287   4.496
 5447TIP3    H116305   0.349   1.249   4.413
 5447TIP3    H216306   0.227   1.308   4.481
 5448TIP3   OH216307   6.358   4.966   4.431
 5448TIP3    H116308   6.294   5.032   4.456
 5448TIP3    H216309   6.309   4.883   4.429
 5449TIP3   OH216310   0.517   5.268   1.495
 5449TIP3    H116311   0.561   5.345   1.531
 5449TIP3    H216312   0.507   5.287   1.401
 5450TIP3   OH216313   4.667   2.824   1.253
 5450TIP3    H116314   4.590   2.793   1.300
 5450TIP3    H216315   4.704   2.892   1.309
 5451TIP3   OH216316   0.306   2.605   1.557
 5451TIP3    H116317   0.363   2.538   1.594
 5451TIP3    H216318   0.253   2.635   1.631
 5452TIP3   OH216319   1.162   2.545   4.671
 5452TIP3    H116320   1.130   2.552   4.581
 5452TIP3    H216321   1.252   2.516   4.662
 5453TIP3   OH216322   2.751   1.160   0.720
 5453TIP3    H116323   2.673   1.116   0.752
 5453TIP3    H216324   2.774   1.112   0.640
 5454TIP3   OH216325   6.106   2.085   1.463
 5454TIP3    H116326   6.154   2.142   1.523
 5454TIP3    H216327   6.166   2.069   1.391
 5455TIP3   OH216328   0.862   0.972   2.904
 5455TIP3    H116329   0.832   1.062   2.913
 5455TIP3    H216330   0.781   0.921   2.890
 5456TIP3   OH216331   5.319   6.726   4.249
 5456TIP3    H116332   5.260   6.657   4.279
 5456TIP3    H216333   5.287   6.747   4.161
 5457TIP3   OH216334   6.770   6.323   0.906
 5457TIP3    H116335   6.831   6.394   0.884
 5457TIP3    H216336   6.753   6.334   1.000
 5458TIP3   OH216337   1.649   3.404   3.183
 5458TIP3    H116338   1.740   3.428   3.202
 5458TIP3    H216339   1.602   3.488   3.185
 5459TIP3   OH216340   0.294   2.819   4.269
 5459TIP3    H116341   0.383   2.786   4.268
 5459TIP3    H216342   0.254   2.784   4.189
 5460TIP3   OH216343   1.985   3.501   5.708
 5460TIP3    H116344   1.958   3.480   5.798
 5460TIP3    H216345   1.904   3.523   5.663
 5461TIP3   OH216346   6.388   2.672   3.946
 5461TIP3    H116347   6.446   2.618   3.893
 5461TIP3    H216348   6.430   2.759   3.945
 5462TIP3   OH216349   5.022   2.599   3.367
 5462TIP3    H116350   5.036   2.593   3.461
 5462TIP3    H216351   5.035   2.692   3.347
 5463TIP3   OH216352   6.768   2.503   1.850
 5463TIP3    H116353   6.729   2.572   1.796
 5463TIP3    H216354   6.851   2.483   1.807
 5464TIP3   OH216355   6.776   5.223   2.553
 5464TIP3    H116356   6.706   5.269   2.506
 5464TIP3    H216357   6.736   5.141   2.581
 5465TIP3   OH216358   1.073   5.043   3.734
 5465TIP3    H116359   1.058   4.997   3.817
 5465TIP3    H216360   1.052   4.978   3.666
 5466TIP3   OH216361   6.609   5.774   3.584
 5466TIP3    H116362   6.653   5.848   3.624
 5466TIP3    H216363   6.526   5.810   3.553
 5467TIP3   OH216364   0.705   0.475   4.847
 5467TIP3    H116365   0.659   0.454   4.765
 5467TIP3    H216366   0.700   0.395   4.898
 5468TIP3   OH216367   2.309   2.909   5.282
 5468TIP3    H116368   2.229   2.949   5.248
 5468TIP3    H216369   2.335   2.966   5.355
 5469TIP3   OH216370   5.242   4.047   3.334
 5469TIP3    H116371   5.328   4.015   3.362
 5469TIP3    H216372   5.246   4.044   3.238
 5470TIP3   OH216373   3.833   0.167   1.565
 5470TIP3    H116374   3.845   0.228   1.492
 5470TIP3    H216375   3.904   0.104   1.556
 5471TIP3   OH216376   3.845   6.541   1.269
 5471TIP3    H116377   3.834   6.459   1.222
 5471TIP3    H216378   3.860   6.606   1.200
 5472TIP3   OH216379   6.881   4.750   3.999
 5472TIP3    H116380   6.831   4.716   4.073
 5472TIP3    H216381   6.880   4.845   4.011
 5473TIP3   OH216382   1.805   6.672   2.495
 5473TIP3    H116383   1.800   6.767   2.506
 5473TIP3    H216384   1.720   6.640   2.525
 5474TIP3   OH216385   2.937   4.370   5.606
 5474TIP3    H116386   2.921   4.463   5.592
 5474TIP3    H216387   2.909   4.354   5.696
 5475TIP3   OH216388   6.215   5.510   4.471
 5475TIP3    H116389   6.155   5.463   4.528
 5475TIP3    H216390   6.164   5.585   4.439
 5476TIP3   OH216391   4.854   1.411   2.435
 5476TIP3    H116392   4.780   1.466   2.461
 5476TIP3    H216393   4.872   1.437   2.345
 5477TIP3   OH216394   6.627   3.593   3.751
 5477TIP3    H116395   6.721   3.601   3.765
 5477TIP3    H216396   6.597   3.538   3.824
 5478TIP3   OH216397   6.985   4.810   3.720
 5478TIP3    H116398   6.910   4.776   3.672
 5478TIP3    H216399   6.954   4.817   3.810
 5479TIP3   OH216400   2.209   5.650   3.379
 5479TIP3    H116401   2.195   5.571   3.433
 5479TIP3    H216402   2.121   5.678   3.354
 5480TIP3   OH216403   1.178   1.719   2.059
 5480TIP3    H116404   1.223   1.646   2.100
 5480TIP3    H216405   1.173   1.787   2.127
 5481TIP3   OH216406   0.536   3.607   0.380
 5481TIP3    H116407   0.556   3.529   0.328
 5481TIP3    H216408   0.459   3.645   0.337
 5482TIP3   OH216409   4.565   4.677   3.302
 5482TIP3    H116410   4.471   4.665   3.291
 5482TIP3    H216411   4.585   4.636   3.386
 5483TIP3   OH216412   4.392   1.694   3.477
 5483TIP3    H116413   4.322   1.672   3.415
 5483TIP3    H216414   4.350   1.751   3.541
 5484TIP3   OH216415   6.934   1.628   4.478
 5484TIP3    H116416   7.017   1.589   4.507
 5484TIP3    H216417   6.929   1.711   4.527
 5485TIP3   OH216418   6.298   4.631   4.803
 5485TIP3    H116419   6.380   4.633   4.851
 5485TIP3    H216420   6.231   4.654   4.868
 5486TIP3   OH216421   1.676   4.130   0.343
 5486TIP3    H116422   1.764   4.144   0.307
 5486TIP3    H216423   1.673   4.037   0.365
 5487TIP3   OH216424   0.460   6.002   4.960
 5487TIP3    H116425   0.462   6.097   4.945
 5487TIP3    H216426   0.552   5.976   4.955
 5488TIP3   OH216427   0.106   5.331   2.437
 5488TIP3    H116428   0.100   5.244   2.399
 5488TIP3    H216429   0.038   5.333   2.504
 5489TIP3   OH216430   1.524   4.700   4.080
 5489TIP3    H116431   1.466   4.770   4.052
 5489TIP3    H216432   1.587   4.690   4.009
 5490TIP3   OH216433   6.842   5.372   0.216
 5490TIP3    H116434   6.918   5.420   0.182
 5490TIP3    H216435   6.840   5.291   0.165
 5491TIP3   OH216436   1.914   0.402   0.180
 5491TIP3    H116437   1.988   0.346   0.205
 5491TIP3    H216438   1.886   0.367   0.095
 5492TIP3   OH216439   0.564   2.038   0.167
 5492TIP3    H116440   0.492   2.070   0.222
 5492TIP3    H216441   0.534   1.953   0.136
 5493TIP3   OH216442   6.428   1.492   5.691
 5493TIP3    H116443   6.468   1.531   5.614
 5493TIP3    H216444   6.470   1.536   5.765
 5494TIP3   OH216445   1.638   1.877   5.111
 5494TIP3    H116446   1.674   1.803   5.160
 5494TIP3    H216447   1.684   1.953   5.145
 5495TIP3   OH216448   5.310   3.336   2.791
 5495TIP3    H116449   5.241   3.366   2.733
 5495TIP3    H216450   5.265   3.310   2.871
 5496TIP3   OH216451   0.903   4.988   2.670
 5496TIP3    H116452   0.997   4.971   2.661
 5496TIP3    H216453   0.879   5.032   2.588
 5497TIP3   OH216454   0.536   0.222   3.886
 5497TIP3    H116455   0.588   0.245   3.809
 5497TIP3    H216456   0.596   0.234   3.959
 5498TIP3   OH216457   1.227   2.830   0.720
 5498TIP3    H116458   1.307   2.791   0.686
 5498TIP3    H216459   1.157   2.782   0.676
 5499TIP3   OH216460   7.146   5.190   1.227
 5499TIP3    H116461   7.071   5.247   1.210
 5499TIP3    H216462   7.114   5.128   1.293
 5500TIP3   OH216463   3.629   2.996   1.032
 5500TIP3    H116464   3.631   2.910   0.989
 5500TIP3    H216465   3.645   2.977   1.124
 5501TIP3   OH216466   6.935   2.910   1.119
 5501TIP3    H116467   7.000   2.857   1.074
 5501TIP3    H216468   6.979   2.942   1.197
 5502TIP3   OH216469   4.642   1.725   4.497
 5502TIP3    H116470   4.627   1.813   4.463
 5502TIP3    H216471   4.612   1.667   4.428
 5503TIP3   OH216472   5.406   3.792   5.562
 5503TIP3    H116473   5.382   3.700   5.568
 5503TIP3    H216474   5.483   3.793   5.505
 5504TIP3   OH216475   6.859   6.747   4.524
 5504TIP3    H116476   6.777   6.787   4.551
 5504TIP3    H216477   6.847   6.728   4.431
 5505TIP3   OH216478   3.063   3.739   0.344
 5505TIP3    H116479   3.027   3.652   0.362
 5505TIP3    H216480   3.158   3.728   0.355
 5506TIP3   OH216481   7.037   5.954   1.912
 5506TIP3    H116482   7.050   5.968   1.819
 5506TIP3    H216483   7.064   6.036   1.953
 5507TIP3   OH216484   5.895   6.061   3.124
 5507TIP3    H116485   5.957   6.055   3.051
 5507TIP3    H216486   5.889   5.972   3.158
 5508TIP3   OH216487   7.081   3.072   2.520
 5508TIP3    H116488   7.024   3.122   2.578
 5508TIP3    H216489   7.170   3.101   2.543
 5509TIP3   OH216490   4.665   3.813   2.085
 5509TIP3    H116491   4.756   3.787   2.098
 5509TIP3    H216492   4.623   3.795   2.170
 5510TIP3   OH216493   2.968   6.320   0.264
 5510TIP3    H116494   2.996   6.300   0.175
 5510TIP3    H216495   2.874   6.301   0.265
 5511TIP3   OH216496   5.270   3.611   2.652
 5511TIP3    H116497   5.360   3.613   2.684
 5511TIP3    H216498   5.217   3.592   2.729
 5512TIP3   OH216499   4.025   2.268   1.696
 5512TIP3    H116500   4.056   2.349   1.736
 5512TIP3    H216501   3.987   2.218   1.769
 5513TIP3   OH216502   3.314   5.367   2.536
 5513TIP3    H116503   3.230   5.360   2.491
 5513TIP3    H216504   3.306   5.448   2.588
 5514TIP3   OH216505   1.986   4.425   0.505
 5514TIP3    H116506   1.893   4.450   0.507
 5514TIP3    H216507   1.988   4.345   0.453
 5515TIP3   OH216508   6.667   3.831   5.795
 5515TIP3    H116509   6.726   3.881   5.739
 5515TIP3    H216510   6.617   3.896   5.843
 5516TIP3   OH216511   1.666   2.228   1.215
 5516TIP3    H116512   1.721   2.241   1.138
 5516TIP3    H216513   1.623   2.144   1.200
 5517TIP3   OH216514   3.163   4.411   5.026
 5517TIP3    H116515   3.108   4.401   5.104
 5517TIP3    H216516   3.106   4.384   4.954
 5518TIP3   OH216517   5.784   4.156   4.007
 5518TIP3    H116518   5.808   4.248   4.021
 5518TIP3    H216519   5.717   4.158   3.940
 5519TIP3   OH216520   4.661   5.495   5.455
 5519TIP3    H116521   4.757   5.494   5.457
 5519TIP3    H216522   4.635   5.412   5.495
 5520TIP3   OH216523   6.396   6.129   5.120
 5520TIP3    H116524   6.305   6.159   5.117
 5520TIP3    H216525   6.443   6.202   5.160
 5521TIP3   OH216526   6.316   6.404   4.798
 5521TIP3    H116527   6.273   6.335   4.747
 5521TIP3    H216528   6.409   6.385   4.791
 5522TIP3   OH216529   0.098   3.953   3.439
 5522TIP3    H116530   0.027   3.940   3.375
 5522TIP3    H216531   0.061   4.014   3.503
 5523TIP3   OH216532   1.843   2.381   4.390
 5523TIP3    H116533   1.859   2.455   4.332
 5523TIP3    H216534   1.767   2.407   4.442
 5524TIP3   OH216535   6.688   0.133   4.736
 5524TIP3    H116536   6.597   0.108   4.721
 5524TIP3    H216537   6.684   0.203   4.801
 5525TIP3   OH216538   0.176   1.613   3.784
 5525TIP3    H116539   0.195   1.626   3.691
 5525TIP3    H216540   0.083   1.594   3.788
 5526TIP3   OH216541   1.916   3.959   5.857
 5526TIP3    H116542   1.822   3.967   5.846
 5526TIP3    H216543   1.954   4.016   5.790
 5527TIP3   OH216544   4.888   2.881   1.870
 5527TIP3    H116545   4.798   2.889   1.901
 5527TIP3    H216546   4.895   2.791   1.839
 5528TIP3   OH216547   6.398   5.770   1.400
 5528TIP3    H116548   6.429   5.750   1.488
 5528TIP3    H216549   6.472   5.749   1.343
 5529TIP3   OH216550   0.233   3.512   2.814
 5529TIP3    H116551   0.327   3.528   2.817
 5529TIP3    H216552   0.199   3.556   2.892
 5530TIP3   OH216553   3.777   6.083   1.654
 5530TIP3    H116554   3.802   6.029   1.729
 5530TIP3    H216555   3.696   6.126   1.682
 5531TIP3   OH216556   2.966   4.719   4.714
 5531TIP3    H116557   2.961   4.647   4.651
 5531TIP3    H216558   2.951   4.798   4.662
 5532TIP3   OH216559   4.791   6.490   2.169
 5532TIP3    H116560   4.855   6.426   2.137
 5532TIP3    H216561   4.753   6.449   2.247
 5533TIP3   OH216562   3.621   6.495   2.840
 5533TIP3    H116563   3.562   6.503   2.915
 5533TIP3    H216564   3.691   6.437   2.870
 5534TIP3   OH216565   2.998   6.618   2.304
 5534TIP3    H116566   3.034   6.561   2.371
 5534TIP3    H216567   2.995   6.564   2.225
 5535TIP3   OH216568   4.850   2.258   2.196
 5535TIP3    H116569   4.920   2.233   2.256
 5535TIP3    H216570   4.881   2.340   2.155
 5536TIP3   OH216571   0.274   3.273   3.557
 5536TIP3    H116572   0.217   3.324   3.499
 5536TIP3    H216573   0.247   3.182   3.544
 5537TIP3   OH216574   1.371   0.235   3.965
 5537TIP3    H116575   1.330   0.313   4.001
 5537TIP3    H216576   1.302   0.169   3.964
 5538TIP3   OH216577   4.664   5.936   0.307
 5538TIP3    H116578   4.647   5.867   0.370
 5538TIP3    H216579   4.688   6.012   0.360
 5539TIP3   OH216580   4.307   5.320   1.313
 5539TIP3    H116581   4.370   5.262   1.271
 5539TIP3    H216582   4.227   5.268   1.322
 5540TIP3   OH216583   7.178   4.471   0.252
 5540TIP3    H116584   7.163   4.382   0.219
 5540TIP3    H216585   7.160   4.527   0.177
 5541TIP3   OH216586   3.799   3.806   2.460
 5541TIP3    H116587   3.774   3.898   2.454
 5541TIP3    H216588   3.717   3.758   2.444
 5542TIP3   OH216589   0.382   5.578   4.994
 5542TIP3    H116590   0.308   5.560   4.936
 5542TIP3    H216591   0.455   5.529   4.955
 5543TIP3   OH216592   5.744   3.872   3.523
 5543TIP3    H116593   5.839   3.867   3.516
 5543TIP3    H216594   5.711   3.822   3.448
 5544TIP3   OH216595   0.880   3.338   1.998
 5544TIP3    H116596   0.951   3.386   2.040
 5544TIP3    H216597   0.837   3.291   2.069
 5545TIP3   OH216598   6.426   4.763   4.107
 5545TIP3    H116599   6.398   4.849   4.139
 5545TIP3    H216600   6.503   4.742   4.159
 5546TIP3   OH216601   3.348   3.747   0.112
 5546TIP3    H116602   3.378   3.785   0.030
 5546TIP3    H216603   3.273   3.692   0.088
 5547TIP3   OH216604   0.138   5.002   1.699
 5547TIP3    H116605   0.155   5.088   1.663
 5547TIP3    H216606   0.160   4.941   1.629
 5548TIP3   OH216607   3.900   3.166   2.022
 5548TIP3    H116608   3.971   3.125   1.971
 5548TIP3    H216609   3.820   3.139   1.978
 5549TIP3   OH216610   3.015   6.181   2.787
 5549TIP3    H116611   3.015   6.153   2.695
 5549TIP3    H216612   3.003   6.276   2.783
 5550TIP3   OH216613   1.835   0.349   5.652
 5550TIP3    H116614   1.811   0.269   5.605
 5550TIP3    H216615   1.898   0.320   5.718
 5551TIP3   OH216616   1.310   2.652   4.080
 5551TIP3    H116617   1.388   2.693   4.117
 5551TIP3    H216618   1.283   2.711   4.010
 5552TIP3   OH216619   0.152   6.356   3.374
 5552TIP3    H116620   0.082   6.413   3.345
 5552TIP3    H216621   0.117   6.267   3.366
 5553TIP3   OH216622   1.572   2.557   5.555
 5553TIP3    H116623   1.639   2.568   5.487
 5553TIP3    H216624   1.620   2.571   5.637
 5554TIP3   OH216625   2.451   6.273   4.752
 5554TIP3    H116626   2.524   6.315   4.799
 5554TIP3    H216627   2.389   6.344   4.737
 5555TIP3   OH216628   0.989   5.277   3.987
 5555TIP3    H116629   0.911   5.333   3.989
 5555TIP3    H216630   0.970   5.212   3.920
 5556TIP3   OH216631   4.969   1.514   0.461
 5556TIP3    H116632   4.955   1.456   0.386
 5556TIP3    H216633   5.001   1.595   0.422
 5557TIP3   OH216634   2.966   4.109   1.847
 5557TIP3    H116635   2.966   4.014   1.831
 5557TIP3    H216636   2.961   4.148   1.760
 5558TIP3   OH216637   4.642   4.000   0.145
 5558TIP3    H116638   4.580   4.047   0.089
 5558TIP3    H216639   4.619   4.027   0.234
 5559TIP3   OH216640   6.503   5.173   1.928
 5559TIP3    H116641   6.408   5.182   1.920
 5559TIP3    H216642   6.521   5.085   1.894
 5560TIP3   OH216643   2.221   4.629   5.404
 5560TIP3    H116644   2.187   4.580   5.329
 5560TIP3    H216645   2.179   4.715   5.398
 5561TIP3   OH216646   5.788   4.988   1.172
 5561TIP3    H116647   5.836   4.977   1.090
 5561TIP3    H216648   5.719   4.922   1.169
 5562TIP3   OH216649   6.104   1.987   2.734
 5562TIP3    H116650   6.024   2.011   2.686
 5562TIP3    H216651   6.164   2.060   2.717
 5563TIP3   OH216652   4.694   4.363   0.140
 5563TIP3    H116653   4.712   4.439   0.084
 5563TIP3    H216654   4.612   4.327   0.107
 5564TIP3   OH216655   2.870   5.404   0.525
 5564TIP3    H116656   2.795   5.344   0.525
 5564TIP3    H216657   2.877   5.434   0.435
 5565TIP3   OH216658   4.709   5.756   4.202
 5565TIP3    H116659   4.724   5.662   4.207
 5565TIP3    H216660   4.737   5.790   4.287
 5566TIP3   OH216661   3.833   6.419   4.968
 5566TIP3    H116662   3.739   6.404   4.957
 5566TIP3    H216663   3.847   6.413   5.063
 5567TIP3   OH216664   1.576   4.345   3.897
 5567TIP3    H116665   1.524   4.424   3.884
 5567TIP3    H216666   1.616   4.328   3.811
 5568TIP3   OH216667   4.973   4.602   2.186
 5568TIP3    H116668   4.961   4.652   2.105
 5568TIP3    H216669   4.963   4.511   2.160
 5569TIP3   OH216670   6.103   2.048   0.529
 5569TIP3    H116671   6.041   2.017   0.463
 5569TIP3    H216672   6.168   2.098   0.480
 5570TIP3   OH216673   0.660   1.772   1.618
 5570TIP3    H116674   0.696   1.848   1.572
 5570TIP3    H216675   0.672   1.699   1.558
 5571TIP3   OH216676   0.552   3.537   1.535
 5571TIP3    H116677   0.528   3.499   1.450
 5571TIP3    H216678   0.621   3.479   1.568
 5572TIP3   OH216679   2.924   5.258   5.092
 5572TIP3    H116680   2.837   5.295   5.082
 5572TIP3    H216681   2.948   5.227   5.005
 5573TIP3   OH216682   5.509   5.717   2.269
 5573TIP3    H116683   5.416   5.696   2.259
 5573TIP3    H216684   5.525   5.713   2.363
 5574TIP3   OH216685   2.208   1.886   2.047
 5574TIP3    H116686   2.154   1.808   2.038
 5574TIP3    H216687   2.287   1.856   2.091
 5575TIP3   OH216688   5.477   2.532   0.531
 5575TIP3    H116689   5.487   2.609   0.586
 5575TIP3    H216690   5.565   2.516   0.496
 5576TIP3   OH216691   0.830   2.011   0.233
 5576TIP3    H116692   0.839   1.918   0.212
 5576TIP3    H216693   0.738   2.029   0.219
 5577TIP3   OH216694   6.701   4.398   2.465
 5577TIP3    H116695   6.666   4.460   2.529
 5577TIP3    H216696   6.781   4.439   2.433
 5578TIP3   OH216697   5.256   0.814   5.479
 5578TIP3    H116698   5.316   0.885   5.454
 5578TIP3    H216699   5.280   0.741   5.422
 5579TIP3   OH216700   2.293   2.984   2.375
 5579TIP3    H116701   2.373   3.029   2.349
 5579TIP3    H216702   2.266   3.028   2.455
 5580TIP3   OH216703   2.343   2.189   3.826
 5580TIP3    H116704   2.391   2.266   3.857
 5580TIP3    H216705   2.410   2.135   3.783
 5581TIP3   OH216706   5.421   3.151   5.566
 5581TIP3    H116707   5.358   3.194   5.507
 5581TIP3    H216708   5.376   3.071   5.594
 5582TIP3   OH216709   5.626   4.776   1.142
 5582TIP3    H116710   5.614   4.689   1.182
 5582TIP3    H216711   5.650   4.758   1.052
 5583TIP3   OH216712   3.748   1.160   1.879
 5583TIP3    H116713   3.658   1.190   1.887
 5583TIP3    H216714   3.758   1.137   1.787
 5584TIP3   OH216715   4.539   2.359   3.825
 5584TIP3    H116716   4.563   2.334   3.915
 5584TIP3    H216717   4.463   2.415   3.835
 5585TIP3   OH216718   2.041   6.663   5.424
 5585TIP3    H116719   1.950   6.645   5.447
 5585TIP3    H216720   2.043   6.656   5.328
 5586TIP3   OH216721   6.667   6.149   4.971
 5586TIP3    H116722   6.696   6.081   5.032
 5586TIP3    H216723   6.579   6.121   4.944
 5587TIP3   OH216724   3.014   2.024   3.363
 5587TIP3    H116725   2.955   2.088   3.324
 5587TIP3    H216726   3.050   2.069   3.440
 5588TIP3   OH216727   3.647   4.485   0.664
 5588TIP3    H116728   3.655   4.433   0.583
 5588TIP3    H216729   3.589   4.433   0.720
 5589TIP3   OH216730   0.358   4.336   2.839
 5589TIP3    H116731   0.409   4.417   2.836
 5589TIP3    H216732   0.424   4.267   2.829
 5590TIP3   OH216733   0.811   2.231   0.631
 5590TIP3    H116734   0.747   2.274   0.688
 5590TIP3    H216735   0.891   2.282   0.641
 5591TIP3   OH216736   2.065   4.340   2.728
 5591TIP3    H116737   1.994   4.369   2.670
 5591TIP3    H216738   2.138   4.321   2.669
 5592TIP3   OH216739   2.637   5.409   2.967
 5592TIP3    H116740   2.598   5.471   2.905
 5592TIP3    H216741   2.635   5.325   2.921
 5593TIP3   OH216742   2.537   1.050   0.974
 5593TIP3    H116743   2.483   0.973   0.994
 5593TIP3    H216744   2.627   1.018   0.981
 5594TIP3   OH216745   4.390   6.536   5.169
 5594TIP3    H116746   4.480   6.557   5.144
 5594TIP3    H216747   4.356   6.484   5.095
 5595TIP3   OH216748   1.630   6.034   3.107
 5595TIP3    H116749   1.615   5.979   3.185
 5595TIP3    H216750   1.657   6.119   3.142
 5596TIP3   OH216751   4.731   2.400   5.322
 5596TIP3    H116752   4.747   2.482   5.273
 5596TIP3    H216753   4.810   2.348   5.308
 5597TIP3   OH216754   0.314   5.283   4.749
 5597TIP3    H116755   0.299   5.294   4.843
 5597TIP3    H216756   0.228   5.260   4.713
 5598TIP3   OH216757   4.741   3.570   2.778
 5598TIP3    H116758   4.667   3.614   2.735
 5598TIP3    H216759   4.802   3.550   2.707
 5599TIP3   OH216760   4.385   6.611   0.148
 5599TIP3    H116761   4.373   6.699   0.112
 5599TIP3    H216762   4.300   6.569   0.137
 5600TIP3   OH216763   3.422   1.873   2.779
 5600TIP3    H116764   3.452   1.784   2.762
 5600TIP3    H216765   3.436   1.920   2.696
 5601TIP3   OH216766   2.731   6.120   2.947
 5601TIP3    H116767   2.722   6.173   3.027
 5601TIP3    H216768   2.818   6.143   2.913
 5602TIP3   OH216769   2.705   4.376   0.997
 5602TIP3    H116770   2.637   4.347   1.057
 5602TIP3    H216771   2.698   4.472   0.998
 5603TIP3   OH216772   4.152   4.765   4.333
 5603TIP3    H116773   4.088   4.833   4.310
 5603TIP3    H216774   4.133   4.694   4.271
 5604TIP3   OH216775   1.080   4.871   1.587
 5604TIP3    H116776   1.037   4.858   1.502
 5604TIP3    H216777   1.166   4.908   1.565
 5605TIP3   OH216778   6.524   5.452   5.849
 5605TIP3    H116779   6.463   5.430   5.779
 5605TIP3    H216780   6.522   5.376   5.907
 5606TIP3   OH216781   6.806   6.781   3.522
 5606TIP3    H116782   6.739   6.838   3.561
 5606TIP3    H216783   6.882   6.791   3.580
 5607TIP3   OH216784   5.524   4.245   2.068
 5607TIP3    H116785   5.497   4.334   2.093
 5607TIP3    H216786   5.606   4.231   2.115
 5608TIP3   OH216787   4.640   5.484   3.888
 5608TIP3    H116788   4.636   5.579   3.893
 5608TIP3    H216789   4.654   5.456   3.978
 5609TIP3   OH216790   0.208   6.710   5.418
 5609TIP3    H116791   0.227   6.802   5.401
 5609TIP3    H216792   0.268   6.662   5.360
 5610TIP3   OH216793   1.050   6.765   2.415
 5610TIP3    H116794   1.004   6.711   2.351
 5610TIP3    H216795   1.003   6.848   2.414
 5611TIP3   OH216796   1.947   1.092   0.395
 5611TIP3    H116797   1.995   1.012   0.373
 5611TIP3    H216798   1.914   1.076   0.483
 5612TIP3   OH216799   0.612   2.298   3.454
 5612TIP3    H116800   0.593   2.349   3.533
 5612TIP3    H216801   0.533   2.246   3.439
 5613TIP3   OH216802   4.256   4.876   5.705
 5613TIP3    H116803   4.232   4.830   5.624
 5613TIP3    H216804   4.208   4.958   5.701
 5614TIP3   OH216805   2.322   0.841   0.762
 5614TIP3    H116806   2.233   0.865   0.787
 5614TIP3    H216807   2.371   0.841   0.844
 5615TIP3   OH216808   0.217   0.846   5.788
 5615TIP3    H116809   0.121   0.851   5.790
 5615TIP3    H216810   0.240   0.866   5.697
 5616TIP3   OH216811   2.153   1.727   4.267
 5616TIP3    H116812   2.190   1.653   4.315
 5616TIP3    H216813   2.197   1.804   4.304
 5617TIP3   OH216814   4.366   5.480   3.692
 5617TIP3    H116815   4.388   5.387   3.689
 5617TIP3    H216816   4.376   5.511   3.602
 5618TIP3   OH216817   4.977   3.605   1.198
 5618TIP3    H116818   5.039   3.551   1.149
 5618TIP3    H216819   4.910   3.629   1.135
 5619TIP3   OH216820   3.247   4.393   2.677
 5619TIP3    H116821   3.340   4.386   2.658
 5619TIP3    H216822   3.237   4.347   2.761
 5620TIP3   OH216823   3.853   3.325   4.423
 5620TIP3    H116824   3.901   3.328   4.506
 5620TIP3    H216825   3.788   3.257   4.436
 5621TIP3   OH216826   7.157   2.196   0.380
 5621TIP3    H116827   7.159   2.203   0.284
 5621TIP3    H216828   7.074   2.152   0.399
 5622TIP3   OH216829   6.470   3.630   2.314
 5622TIP3    H116830   6.494   3.607   2.224
 5622TIP3    H216831   6.493   3.722   2.322
 5623TIP3   OH216832   5.070   4.362   1.261
 5623TIP3    H116833   5.010   4.362   1.187
 5623TIP3    H216834   5.114   4.277   1.256
 5624TIP3   OH216835   7.082   2.596   5.275
 5624TIP3    H116836   7.131   2.586   5.357
 5624TIP3    H216837   7.123   2.534   5.215
 5625TIP3   OH216838   5.010   1.649   3.400
 5625TIP3    H116839   5.073   1.638   3.329
 5625TIP3    H216840   4.980   1.740   3.392
 5626TIP3   OH216841   5.566   6.407   5.255
 5626TIP3    H116842   5.620   6.387   5.178
 5626TIP3    H216843   5.479   6.426   5.218
 5627TIP3   OH216844   5.588   5.382   2.415
 5627TIP3    H116845   5.564   5.401   2.506
 5627TIP3    H216846   5.681   5.400   2.410
 5628TIP3   OH216847   4.609   5.575   1.484
 5628TIP3    H116848   4.574   5.522   1.556
 5628TIP3    H216849   4.668   5.516   1.437
 5629TIP3   OH216850   4.300   2.764   1.655
 5629TIP3    H116851   4.395   2.769   1.662
 5629TIP3    H216852   4.284   2.746   1.562
 5630TIP3   OH216853   1.162   1.089   5.734
 5630TIP3    H116854   1.082   1.073   5.784
 5630TIP3    H216855   1.220   1.016   5.758
 5631TIP3   OH216856   0.759   0.496   2.563
 5631TIP3    H116857   0.734   0.570   2.507
 5631TIP3    H216858   0.778   0.536   2.648
 5632TIP3   OH216859   4.739   3.186   3.637
 5632TIP3    H116860   4.745   3.275   3.671
 5632TIP3    H216861   4.764   3.194   3.545
 5633TIP3   OH216862   3.684   3.848   1.800
 5633TIP3    H116863   3.767   3.810   1.829
 5633TIP3    H216864   3.618   3.806   1.855
 5634TIP3   OH216865   0.781   6.306   2.595
 5634TIP3    H116866   0.851   6.244   2.574
 5634TIP3    H216867   0.783   6.369   2.523
 5635TIP3   OH216868   6.759   0.993   3.920
 5635TIP3    H116869   6.760   0.970   4.012
 5635TIP3    H216870   6.715   1.078   3.917
 5636TIP3   OH216871   2.595   0.455   5.080
 5636TIP3    H116872   2.623   0.432   4.992
 5636TIP3    H216873   2.543   0.380   5.110
 5637TIP3   OH216874   1.623   4.801   2.491
 5637TIP3    H116875   1.688   4.869   2.503
 5637TIP3    H216876   1.666   4.737   2.434
 5638TIP3   OH216877   3.476   0.564   4.369
 5638TIP3    H116878   3.386   0.558   4.400
 5638TIP3    H216879   3.501   0.474   4.349
 5639TIP3   OH216880   1.512   1.928   1.341
 5639TIP3    H116881   1.561   1.986   1.400
 5639TIP3    H216882   1.526   1.965   1.254
 5640TIP3   OH216883   1.886   1.167   5.032
 5640TIP3    H116884   1.874   1.163   4.937
 5640TIP3    H216885   1.939   1.090   5.053
 5641TIP3   OH216886   0.693   6.518   1.562
 5641TIP3    H116887   0.783   6.516   1.531
 5641TIP3    H216888   0.644   6.560   1.491
 5642TIP3   OH216889   3.354   0.162   3.324
 5642TIP3    H116890   3.262   0.177   3.346
 5642TIP3    H216891   3.401   0.233   3.368
 5643TIP3   OH216892   1.522   1.244   0.189
 5643TIP3    H116893   1.527   1.149   0.176
 5643TIP3    H216894   1.606   1.267   0.228
 5644TIP3   OH216895   2.564   4.215   5.569
 5644TIP3    H116896   2.651   4.181   5.589
 5644TIP3    H216897   2.580   4.282   5.502
 5645TIP3   OH216898   4.027   0.058   2.227
 5645TIP3    H116899   3.992  -0.007   2.288
 5645TIP3    H216900   4.080   0.008   2.165
 5646TIP3   OH216901   6.687   3.800   1.165
 5646TIP3    H116902   6.633   3.722   1.153
 5646TIP3    H216903   6.635   3.856   1.223
 5647TIP3   OH216904   2.839   4.564   4.925
 5647TIP3    H116905   2.888   4.627   4.872
 5647TIP3    H216906   2.755   4.605   4.941
 5648TIP3   OH216907   1.985   4.657   0.722
 5648TIP3    H116908   1.923   4.666   0.795
 5648TIP3    H216909   2.017   4.567   0.728
 5649TIP3   OH216910   0.557   2.834   4.094
 5649TIP3    H116911   0.519   2.762   4.045
 5649TIP3    H216912   0.619   2.792   4.154
 5650TIP3   OH216913   4.912   1.435   4.861
 5650TIP3    H116914   4.825   1.431   4.822
 5650TIP3    H216915   4.912   1.368   4.929
 5651TIP3   OH216916   4.447   4.544   2.653
 5651TIP3    H116917   4.372   4.570   2.707
 5651TIP3    H216918   4.519   4.533   2.716
 5652TIP3   OH216919   4.033   1.233   0.550
 5652TIP3    H116920   3.945   1.197   0.557
 5652TIP3    H216921   4.088   1.158   0.527
 5653TIP3   OH216922   5.694   6.022   2.212
 5653TIP3    H116923   5.697   6.096   2.153
 5653TIP3    H216924   5.771   5.969   2.190
 5654TIP3   OH216925   1.603   3.318   5.460
 5654TIP3    H116926   1.597   3.285   5.550
 5654TIP3    H216927   1.521   3.366   5.447
 5655TIP3   OH216928   1.330   0.859   4.127
 5655TIP3    H116929   1.401   0.915   4.156
 5655TIP3    H216930   1.338   0.780   4.180
 5656TIP3   OH216931   2.407   2.274   4.868
 5656TIP3    H116932   2.333   2.325   4.834
 5656TIP3    H216933   2.404   2.192   4.819
 5657TIP3   OH216934   4.279   1.932   4.954
 5657TIP3    H116935   4.219   1.940   5.029
 5657TIP3    H216936   4.232   1.974   4.882
 5658TIP3   OH216937   1.608   1.110   1.732
 5658TIP3    H116938   1.618   1.204   1.746
 5658TIP3    H216939   1.668   1.089   1.660
 5659TIP3   OH216940   3.488   6.403   0.161
 5659TIP3    H116941   3.450   6.430   0.244
 5659TIP3    H216942   3.422   6.345   0.122
 5660TIP3   OH216943   2.191   1.396   0.449
 5660TIP3    H116944   2.194   1.442   0.365
 5660TIP3    H216945   2.281   1.366   0.463
 5661TIP3   OH216946   6.839   2.589   5.529
 5661TIP3    H116947   6.908   2.523   5.522
 5661TIP3    H216948   6.880   2.662   5.576
 5662TIP3   OH216949   4.606   3.410   1.051
 5662TIP3    H116950   4.649   3.492   1.027
 5662TIP3    H216951   4.584   3.422   1.144
 5663TIP3   OH216952   3.615   2.116   5.560
 5663TIP3    H116953   3.684   2.078   5.506
 5663TIP3    H216954   3.661   2.153   5.635
 5664TIP3   OH216955   1.147   1.326   2.232
 5664TIP3    H116956   1.222   1.319   2.174
 5664TIP3    H216957   1.076   1.357   2.176
 5665TIP3   OH216958   6.822   6.113   5.733
 5665TIP3    H116959   6.770   6.060   5.794
 5665TIP3    H216960   6.882   6.162   5.789
 5666TIP3   OH216961   0.998   3.685   4.790
 5666TIP3    H116962   1.093   3.697   4.795
 5666TIP3    H216963   0.972   3.730   4.710
 5667TIP3   OH216964   6.942   1.922   3.269
 5667TIP3    H116965   6.946   1.839   3.222
 5667TIP3    H216966   6.929   1.898   3.360
 5668TIP3   OH216967   2.621   0.661   4.231
 5668TIP3    H116968   2.626   0.622   4.144
 5668TIP3    H216969   2.611   0.586   4.290
 5669TIP3   OH216970   0.419   1.109   1.102
 5669TIP3    H116971   0.402   1.191   1.149
 5669TIP3    H216972   0.493   1.129   1.045
 5670TIP3   OH216973   6.939   1.869   5.450
 5670TIP3    H116974   6.872   1.821   5.498
 5670TIP3    H216975   6.985   1.920   5.517
 5671TIP3   OH216976   0.796   1.588   1.020
 5671TIP3    H116977   0.749   1.658   1.065
 5671TIP3    H216978   0.885   1.622   1.009
 5672TIP3   OH216979   1.031   3.150   0.811
 5672TIP3    H116980   0.987   3.073   0.775
 5672TIP3    H216981   1.096   3.173   0.745
 5673TIP3   OH216982   4.318   2.242   1.863
 5673TIP3    H116983   4.295   2.294   1.786
 5673TIP3    H216984   4.278   2.156   1.847
 5674TIP3   OH216985   0.906   1.534   3.844
 5674TIP3    H116986   0.961   1.471   3.797
 5674TIP3    H216987   0.968   1.596   3.882
 5675TIP3   OH216988   7.018   2.540   2.358
 5675TIP3    H116989   7.112   2.553   2.374
 5675TIP3    H216990   6.975   2.583   2.431
 5676TIP3   OH216991   3.257   1.221   2.983
 5676TIP3    H116992   3.237   1.215   2.890
 5676TIP3    H216993   3.171   1.224   3.026
 5677TIP3   OH216994   0.205   6.496   5.621
 5677TIP3    H116995   0.125   6.512   5.671
 5677TIP3    H216996   0.203   6.559   5.550
 5678TIP3   OH216997   2.878   3.111   5.412
 5678TIP3    H116998   2.958   3.115   5.359
 5678TIP3    H216999   2.845   3.022   5.400
 5679TIP3   OH217000   2.205   1.499   4.912
 5679TIP3    H117001   2.152   1.561   4.862
 5679TIP3    H217002   2.150   1.473   4.986
 5680TIP3   OH217003   0.576   2.581   4.567
 5680TIP3    H117004   0.612   2.499   4.534
 5680TIP3    H217005   0.539   2.558   4.653
 5681TIP3   OH217006   1.514   0.952   0.090
 5681TIP3    H117007   1.528   0.922   0.180
 5681TIP3    H217008   1.439   0.900   0.059
 5682TIP3   OH217009   0.020   1.909   0.300
 5682TIP3    H117010   0.068   1.973   0.247
 5682TIP3    H217011   0.013   1.832   0.244
 5683TIP3   OH217012   1.893   1.734   2.337
 5683TIP3    H117013   1.891   1.823   2.373
 5683TIP3    H217014   1.828   1.686   2.389
 5684TIP3   OH217015   4.724   1.432   4.016
 5684TIP3    H117016   4.702   1.402   3.928
 5684TIP3    H217017   4.685   1.520   4.021
 5685TIP3   OH217018   6.766   3.084   0.983
 5685TIP3    H117019   6.803   3.121   0.903
 5685TIP3    H217020   6.839   3.041   1.025
 5686TIP3   OH217021   6.456   5.715   4.436
 5686TIP3    H117022   6.389   5.654   4.469
 5686TIP3    H217023   6.493   5.670   4.360
 5687TIP3   OH217024   4.826   0.118   3.622
 5687TIP3    H117025   4.805   0.190   3.682
 5687TIP3    H217026   4.915   0.091   3.646
 5688TIP3   OH217027   0.668   2.404   2.540
 5688TIP3    H117028   0.699   2.452   2.463
 5688TIP3    H217029   0.748   2.377   2.585
 5689TIP3   OH217030   5.484   0.540   3.460
 5689TIP3    H117031   5.451   0.592   3.533
 5689TIP3    H217032   5.406   0.505   3.418
 5690TIP3   OH217033   0.454   3.605   5.356
 5690TIP3    H117034   0.530   3.547   5.366
 5690TIP3    H217035   0.401   3.588   5.434
 5691TIP3   OH217036   6.935   3.640   4.223
 5691TIP3    H117037   6.954   3.713   4.164
 5691TIP3    H217038   7.016   3.627   4.273
 5692TIP3   OH217039   0.721   1.405   3.686
 5692TIP3    H117040   0.693   1.340   3.750
 5692TIP3    H217041   0.784   1.460   3.733
 5693TIP3   OH217042   4.371   3.696   4.342
 5693TIP3    H117043   4.424   3.642   4.284
 5693TIP3    H217044   4.288   3.649   4.350
 5694TIP3   OH217045   2.848   3.995   4.450
 5694TIP3    H117046   2.848   4.088   4.469
 5694TIP3    H217047   2.755   3.972   4.442
 5695TIP3   OH217048   6.368   4.500   5.633
 5695TIP3    H117049   6.273   4.487   5.641
 5695TIP3    H217050   6.403   4.412   5.621
 5696TIP3   OH217051   1.372   4.960   4.279
 5696TIP3    H117052   1.337   5.049   4.284
 5696TIP3    H217053   1.397   4.949   4.188
 5697TIP3   OH217054   5.648   3.208   2.461
 5697TIP3    H117055   5.601   3.137   2.418
 5697TIP3    H217056   5.612   3.288   2.422
 5698TIP3   OH217057   2.963   6.314   4.789
 5698TIP3    H117058   3.057   6.304   4.770
 5698TIP3    H217059   2.920   6.306   4.705
 5699TIP3   OH217060   6.700   1.283   2.656
 5699TIP3    H117061   6.779   1.234   2.633
 5699TIP3    H217062   6.675   1.249   2.742
 5700TIP3   OH217063   4.440   5.792   1.414
 5700TIP3    H117064   4.469   5.841   1.337
 5700TIP3    H217065   4.507   5.725   1.427
 5701TIP3   OH217066   3.440   4.124   0.701
 5701TIP3    H117067   3.492   4.097   0.777
 5701TIP3    H217068   3.353   4.142   0.737
 5702TIP3   OH217069   1.988   2.163   2.810
 5702TIP3    H117070   2.053   2.233   2.801
 5702TIP3    H217071   1.909   2.199   2.770
 5703TIP3   OH217072   3.594   4.607   2.084
 5703TIP3    H117073   3.634   4.524   2.058
 5703TIP3    H217074   3.536   4.629   2.011
 5704TIP3   OH217075   6.685   2.792   1.262
 5704TIP3    H117076   6.652   2.881   1.273
 5704TIP3    H217077   6.762   2.802   1.205
 5705TIP3   OH217078   6.907   3.557   3.136
 5705TIP3    H117079   6.812   3.560   3.128
 5705TIP3    H217080   6.935   3.494   3.070
 5706TIP3   OH217081   6.491   2.967   4.351
 5706TIP3    H117082   6.426   2.899   4.367
 5706TIP3    H217083   6.572   2.933   4.389
 5707TIP3   OH217084   1.534   5.895   2.692
 5707TIP3    H117085   1.545   5.966   2.755
 5707TIP3    H217086   1.456   5.848   2.720
 5708TIP3   OH217087   0.792   6.670   3.616
 5708TIP3    H117088   0.768   6.697   3.704
 5708TIP3    H217089   0.709   6.645   3.575
 5709TIP3   OH217090   5.944   2.813   3.233
 5709TIP3    H117091   6.006   2.835   3.303
 5709TIP3    H217092   5.983   2.850   3.154
 5710TIP3   OH217093   3.653   3.606   4.520
 5710TIP3    H117094   3.582   3.576   4.576
 5710TIP3    H217095   3.727   3.618   4.580
 5711TIP3   OH217096   4.542   0.352   2.552
 5711TIP3    H117097   4.553   0.258   2.541
 5711TIP3    H217098   4.515   0.383   2.465
 5712TIP3   OH217099   6.178   5.832   1.845
 5712TIP3    H117100   6.091   5.794   1.857
 5712TIP3    H217101   6.187   5.839   1.750
 5713TIP3   OH217102   3.982   6.763   1.681
 5713TIP3    H117103   3.889   6.755   1.700
 5713TIP3    H217104   4.010   6.676   1.654
 5714TIP3   OH217105   1.713   5.613   2.732
 5714TIP3    H117106   1.725   5.706   2.750
 5714TIP3    H217107   1.695   5.574   2.818
 5715TIP3   OH217108   4.528   5.583   0.443
 5715TIP3    H117109   4.515   5.647   0.374
 5715TIP3    H217110   4.551   5.502   0.396
 5716TIP3   OH217111   4.786   0.338   1.781
 5716TIP3    H117112   4.760   0.430   1.779
 5716TIP3    H217113   4.810   0.321   1.872
 5717TIP3   OH217114   2.807   0.253   1.136
 5717TIP3    H117115   2.838   0.178   1.086
 5717TIP3    H217116   2.863   0.325   1.108
 5718TIP3   OH217117   2.193   4.435   4.512
 5718TIP3    H117118   2.257   4.488   4.465
 5718TIP3    H217119   2.125   4.417   4.447
 5719TIP3   OH217120   2.928   3.965   0.256
 5719TIP3    H117121   2.982   3.890   0.280
 5719TIP3    H217122   2.839   3.929   0.252
 5720TIP3   OH217123   3.941   4.368   1.220
 5720TIP3    H117124   3.896   4.394   1.140
 5720TIP3    H217125   3.916   4.433   1.285
 5721TIP3   OH217126   7.201   0.434   2.989
 5721TIP3    H117127   7.215   0.367   3.056
 5721TIP3    H217128   7.265   0.415   2.921
 5722TIP3   OH217129   3.882   1.690   3.255
 5722TIP3    H117130   3.847   1.615   3.303
 5722TIP3    H217131   3.804   1.743   3.235
 5723TIP3   OH217132   6.792   5.987   3.757
 5723TIP3    H117133   6.713   6.041   3.755
 5723TIP3    H217134   6.824   5.986   3.667
 5724TIP3   OH217135   0.749   1.544   5.206
 5724TIP3    H117136   0.819   1.577   5.262
 5724TIP3    H217137   0.735   1.614   5.142
 5725TIP3   OH217138   2.135   6.773   3.072
 5725TIP3    H117139   2.095   6.808   2.992
 5725TIP3    H217140   2.113   6.836   3.140
 5726TIP3   OH217141   3.043   5.016   3.159
 5726TIP3    H117142   3.103   5.044   3.090
 5726TIP3    H217143   2.961   5.061   3.140
 5727TIP3   OH217144   3.675   0.762   0.833
 5727TIP3    H117145   3.617   0.798   0.900
 5727TIP3    H217146   3.744   0.719   0.882
 5728TIP3   OH217147   4.971   3.128   1.934
 5728TIP3    H117148   4.895   3.154   1.986
 5728TIP3    H217149   4.952   3.039   1.907
 5729TIP3   OH217150   2.385   1.880   2.571
 5729TIP3    H117151   2.352   1.854   2.657
 5729TIP3    H217152   2.480   1.887   2.583
 5730TIP3   OH217153   4.636   5.633   2.320
 5730TIP3    H117154   4.669   5.581   2.393
 5730TIP3    H217155   4.643   5.576   2.244
 5731TIP3   OH217156   0.339   0.100   4.490
 5731TIP3    H117157   0.432   0.124   4.495
 5731TIP3    H217158   0.333   0.020   4.541
 5732TIP3   OH217159   7.078   1.169   4.161
 5732TIP3    H117160   7.006   1.146   4.220
 5732TIP3    H217161   7.071   1.264   4.150
 5733TIP3   OH217162   5.068   3.119   0.861
 5733TIP3    H117163   4.998   3.181   0.839
 5733TIP3    H217164   5.046   3.087   0.948
 5734TIP3   OH217165   6.948   2.770   0.130
 5734TIP3    H117166   6.853   2.765   0.127
 5734TIP3    H217167   6.973   2.809   0.046
 5735TIP3   OH217168   1.720   1.071   3.973
 5735TIP3    H117169   1.666   1.131   4.025
 5735TIP3    H217170   1.686   0.984   3.994
 5736TIP3   OH217171   2.120   5.570   4.250
 5736TIP3    H117172   2.091   5.524   4.172
 5736TIP3    H217173   2.048   5.630   4.271
 5737TIP3   OH217174   0.711   3.218   2.175
 5737TIP3    H117175   0.629   3.169   2.169
 5737TIP3    H217176   0.685   3.301   2.216
 5738TIP3   OH217177   3.427   3.611   0.973
 5738TIP3    H117178   3.331   3.611   0.979
 5738TIP3    H217179   3.449   3.520   0.952
 5739TIP3   OH217180   2.465   5.927   2.711
 5739TIP3    H117181   2.523   5.893   2.779
 5739TIP3    H217182   2.469   5.862   2.641
 5740TIP3   OH217183   2.917   6.619   3.713
 5740TIP3    H117184   2.943   6.530   3.688
 5740TIP3    H217185   2.962   6.635   3.796
 5741TIP3   OH217186   5.163   1.849   1.210
 5741TIP3    H117187   5.206   1.764   1.201
 5741TIP3    H217188   5.222   1.910   1.165
 5742TIP3   OH217189   1.028   0.446   4.378
 5742TIP3    H117190   0.985   0.473   4.459
 5742TIP3    H217191   1.030   0.525   4.324
 5743TIP3   OH217192   2.343   0.073   2.212
 5743TIP3    H117193   2.269   0.124   2.180
 5743TIP3    H217194   2.317  -0.018   2.198
 5744TIP3   OH217195   6.161   1.673   1.739
 5744TIP3    H117196   6.244   1.647   1.699
 5744TIP3    H217197   6.094   1.633   1.684
 5745TIP3   OH217198   3.328   6.426   5.009
 5745TIP3    H117199   3.353   6.487   4.939
 5745TIP3    H217200   3.245   6.459   5.042
 5746TIP3   OH217201   4.912   1.211   0.783
 5746TIP3    H117202   4.850   1.201   0.856
 5746TIP3    H217203   4.861   1.256   0.715
 5747TIP3   OH217204   3.503   6.713   4.169
 5747TIP3    H117205   3.579   6.736   4.222
 5747TIP3    H217206   3.508   6.770   4.093
 5748TIP3   OH217207   0.164   5.712   5.273
 5748TIP3    H117208   0.140   5.731   5.182
 5748TIP3    H217209   0.241   5.766   5.289
 5749TIP3   OH217210   5.586   2.072   1.475
 5749TIP3    H117211   5.525   2.105   1.409
 5749TIP3    H217212   5.530   2.030   1.540
 5750TIP3   OH217213   4.549   6.586   2.771
 5750TIP3    H117214   4.643   6.569   2.777
 5750TIP3    H217215   4.539   6.678   2.798
 5751TIP3   OH217216   0.355   1.502   4.172
 5751TIP3    H117217   0.444   1.496   4.137
 5751TIP3    H217218   0.324   1.588   4.144
 5752TIP3   OH217219   2.450   1.680   5.691
 5752TIP3    H117220   2.515   1.610   5.699
 5752TIP3    H217221   2.391   1.650   5.621
 5753TIP3   OH217222   4.809   3.563   1.399
 5753TIP3    H117223   4.738   3.522   1.349
 5753TIP3    H217224   4.861   3.609   1.333
 5754TIP3   OH217225   4.515   3.878   5.193
 5754TIP3    H117226   4.505   3.945   5.261
 5754TIP3    H217227   4.444   3.898   5.131
 5755TIP3   OH217228   6.925   4.462   2.874
 5755TIP3    H117229   6.967   4.547   2.885
 5755TIP3    H217230   6.948   4.436   2.785
 5756TIP3   OH217231   5.935   2.147   4.618
 5756TIP3    H117232   5.887   2.201   4.680
 5756TIP3    H217233   5.899   2.059   4.630
 5757TIP3   OH217234   5.897   3.728   2.168
 5757TIP3    H117235   5.880   3.786   2.242
 5757TIP3    H217236   5.981   3.758   2.134
 5758TIP3   OH217237   3.648   0.402   1.483
 5758TIP3    H117238   3.652   0.423   1.576
 5758TIP3    H217239   3.590   0.326   1.478
 5759TIP3   OH217240   1.926   2.161   0.411
 5759TIP3    H117241   1.870   2.202   0.346
 5759TIP3    H217242   1.997   2.121   0.360
 5760TIP3   OH217243   5.459   3.661   2.119
 5760TIP3    H117244   5.443   3.755   2.110
 5760TIP3    H217245   5.527   3.642   2.053
 5761TIP3   OH217246   0.673   5.305   4.986
 5761TIP3    H117247   0.623   5.254   4.922
 5761TIP3    H217248   0.717   5.372   4.933
 5762TIP3   OH217249   5.413   6.119   3.196
 5762TIP3    H117250   5.424   6.024   3.189
 5762TIP3    H217251   5.500   6.153   3.216
 5763TIP3   OH217252   4.157   0.228   5.837
 5763TIP3    H117253   4.165   0.297   5.772
 5763TIP3    H217254   4.111   0.269   5.911
 5764TIP3   OH217255   5.319   5.508   4.230
 5764TIP3    H117256   5.386   5.470   4.286
 5764TIP3    H217257   5.305   5.596   4.265
 5765TIP3   OH217258   4.838   2.995   3.187
 5765TIP3    H117259   4.820   3.039   3.104
 5765TIP3    H217260   4.842   2.902   3.164
 5766TIP3   OH217261   1.721   2.676   5.789
 5766TIP3    H117262   1.776   2.597   5.786
 5766TIP3    H217263   1.764   2.732   5.854
 5767TIP3   OH217264   4.645   1.978   5.804
 5767TIP3    H117265   4.648   2.027   5.886
 5767TIP3    H217266   4.708   2.022   5.747
 5768TIP3   OH217267   3.738   1.843   0.677
 5768TIP3    H117268   3.791   1.896   0.618
 5768TIP3    H217269   3.721   1.900   0.752
 5769TIP3   OH217270   3.350   3.659   5.075
 5769TIP3    H117271   3.436   3.615   5.073
 5769TIP3    H217272   3.323   3.653   5.167
 5770TIP3   OH217273   3.091   0.069   5.004
 5770TIP3    H117274   3.145   0.136   4.962
 5770TIP3    H217275   3.078   0.003   4.937
 5771TIP3   OH217276   2.197   1.290   4.727
 5771TIP3    H117277   2.200   1.357   4.796
 5771TIP3    H217278   2.257   1.222   4.757
 5772TIP3   OH217279   0.926   3.261   2.587
 5772TIP3    H117280   0.973   3.193   2.540
 5772TIP3    H217281   0.866   3.214   2.646
 5773TIP3   OH217282   3.784   4.748   4.538
 5773TIP3    H117283   3.691   4.764   4.524
 5773TIP3    H217284   3.824   4.835   4.535
 5774TIP3   OH217285   2.479   0.806   2.390
 5774TIP3    H117286   2.559   0.850   2.421
 5774TIP3    H217287   2.510   0.721   2.357
 5775TIP3   OH217288   0.251   6.497   1.435
 5775TIP3    H117289   0.254   6.573   1.493
 5775TIP3    H217290   0.171   6.451   1.461
 5776TIP3   OH217291   4.820   4.286   0.768
 5776TIP3    H117292   4.815   4.197   0.803
 5776TIP3    H217293   4.734   4.301   0.728
 5777TIP3   OH217294   0.682   4.288   3.974
 5777TIP3    H117295   0.750   4.241   4.024
 5777TIP3    H217296   0.600   4.266   4.019
 5778TIP3   OH217297   4.285   5.927   3.823
 5778TIP3    H117298   4.285   5.978   3.742
 5778TIP3    H217299   4.277   5.836   3.793
 5779TIP3   OH217300   6.068   0.232   3.421
 5779TIP3    H117301   6.114   0.229   3.504
 5779TIP3    H217302   6.000   0.164   3.428
 5780TIP3   OH217303   4.967   3.028   1.427
 5780TIP3    H117304   5.033   2.963   1.449
 5780TIP3    H217305   5.014   3.111   1.424
 5781TIP3   OH217306   5.950   3.787   0.923
 5781TIP3    H117307   5.986   3.855   0.980
 5781TIP3    H217308   5.929   3.716   0.983
 5782TIP3   OH217309   2.573   5.255   3.878
 5782TIP3    H117310   2.663   5.222   3.880
 5782TIP3    H217311   2.521   5.187   3.920
 5783TIP3   OH217312   3.592   3.525   5.714
 5783TIP3    H117313   3.673   3.557   5.755
 5783TIP3    H217314   3.550   3.472   5.781
 5784TIP3   OH217315   6.027   1.654   0.351
 5784TIP3    H117316   6.083   1.679   0.424
 5784TIP3    H217317   5.962   1.595   0.390
 5785TIP3   OH217318   4.531   4.542   5.405
 5785TIP3    H117319   4.455   4.535   5.462
 5785TIP3    H217320   4.522   4.468   5.344
 5786TIP3   OH217321   2.953   3.825   3.896
 5786TIP3    H117322   3.008   3.895   3.933
 5786TIP3    H217323   2.866   3.864   3.892
 5787TIP3   OH217324   4.126   1.915   4.416
 5787TIP3    H117325   4.197   1.958   4.369
 5787TIP3    H217326   4.145   1.821   4.408
 5788TIP3   OH217327   0.059   1.487   2.041
 5788TIP3    H117328   0.100   1.496   1.955
 5788TIP3    H217329   0.098   1.409   2.079
 5789TIP3   OH217330   0.455   1.074   2.938
 5789TIP3    H117331   0.375   1.104   2.895
 5789TIP3    H217332   0.451   0.978   2.932
 5790TIP3   OH217333   4.238   5.701   5.033
 5790TIP3    H117334   4.283   5.778   4.997
 5790TIP3    H217335   4.170   5.681   4.968
 5791TIP3   OH217336   6.989   4.476   1.168
 5791TIP3    H117337   6.988   4.426   1.087
 5791TIP3    H217338   6.980   4.567   1.140
 5792TIP3   OH217339   2.187   4.643   3.844
 5792TIP3    H117340   2.148   4.575   3.900
 5792TIP3    H217341   2.281   4.630   3.853
 5793TIP3   OH217342   2.091   1.452   4.520
 5793TIP3    H117343   2.032   1.508   4.570
 5793TIP3    H217344   2.133   1.397   4.587
 5794TIP3   OH217345   2.838   4.468   4.608
 5794TIP3    H117346   2.899   4.427   4.669
 5794TIP3    H217347   2.819   4.400   4.544
 5795TIP3   OH217348   3.597   6.614   4.909
 5795TIP3    H117349   3.537   6.566   4.851
 5795TIP3    H217350   3.637   6.680   4.851
 5796TIP3   OH217351   0.759   4.685   0.252
 5796TIP3    H117352   0.851   4.677   0.276
 5796TIP3    H217353   0.734   4.599   0.220
 5797TIP3   OH217354   1.894   3.687   5.262
 5797TIP3    H117355   1.935   3.688   5.176
 5797TIP3    H217356   1.811   3.642   5.249
 5798TIP3   OH217357   3.109   5.731   3.130
 5798TIP3    H117358   3.199   5.734   3.096
 5798TIP3    H217359   3.071   5.654   3.088
 5799TIP3   OH217360   5.917   2.319   5.247
 5799TIP3    H117361   5.907   2.312   5.152
 5799TIP3    H217362   5.885   2.406   5.268
 5800TIP3   OH217363   4.193   3.124   0.598
 5800TIP3    H117364   4.263   3.189   0.602
 5800TIP3    H217365   4.114   3.171   0.625
 5801TIP3   OH217366   5.067   6.401   5.351
 5801TIP3    H117367   5.051   6.371   5.262
 5801TIP3    H217368   5.093   6.493   5.342
 5802TIP3   OH217369   4.670   4.252   4.578
 5802TIP3    H117370   4.679   4.288   4.666
 5802TIP3    H217371   4.738   4.297   4.527
 5803TIP3   OH217372   2.689   6.135   2.656
 5803TIP3    H117373   2.662   6.100   2.741
 5803TIP3    H217374   2.755   6.073   2.624
 5804TIP3   OH217375   0.232   4.814   1.527
 5804TIP3    H117376   0.191   4.767   1.599
 5804TIP3    H217377   0.264   4.746   1.469
 5805TIP3   OH217378   3.153   6.160   3.520
 5805TIP3    H117379   3.223   6.224   3.511
 5805TIP3    H217380   3.198   6.077   3.537
 5806TIP3   OH217381   3.097   1.384   0.629
 5806TIP3    H117382   3.044   1.413   0.555
 5806TIP3    H217383   3.170   1.337   0.590
 5807TIP3   OH217384   0.230   4.787   3.813
 5807TIP3    H117385   0.229   4.696   3.782
 5807TIP3    H217386   0.289   4.786   3.887
 5808TIP3   OH217387   1.168   3.257   1.893
 5808TIP3    H117388   1.089   3.238   1.842
 5808TIP3    H217389   1.135   3.280   1.980
 5809TIP3   OH217390   1.062   4.563   1.084
 5809TIP3    H117391   1.075   4.607   1.168
 5809TIP3    H217392   0.969   4.573   1.065
 5810TIP3   OH217393   4.824   2.046   1.937
 5810TIP3    H117394   4.851   2.113   2.000
 5810TIP3    H217395   4.857   2.078   1.853
 5811TIP3   OH217396   3.941   4.410   3.425
 5811TIP3    H117397   3.958   4.447   3.339
 5811TIP3    H217398   3.928   4.486   3.482
 5812TIP3   OH217399   4.368   5.231   0.247
 5812TIP3    H117400   4.382   5.325   0.261
 5812TIP3    H217401   4.434   5.188   0.301
 5813TIP3   OH217402   2.376   3.105   0.748
 5813TIP3    H117403   2.447   3.044   0.729
 5813TIP3    H217404   2.419   3.179   0.791
 5814TIP3   OH217405   7.150   0.604   2.223
 5814TIP3    H117406   7.183   0.641   2.305
 5814TIP3    H217407   7.056   0.596   2.237
 5815TIP3   OH217408   0.447   5.243   0.856
 5815TIP3    H117409   0.490   5.193   0.926
 5815TIP3    H217410   0.392   5.178   0.811
 5816TIP3   OH217411   4.142   6.226   0.724
 5816TIP3    H117412   4.232   6.195   0.733
 5816TIP3    H217413   4.137   6.258   0.634
 5817TIP3   OH217414   0.888   5.271   3.602
 5817TIP3    H117415   0.972   5.226   3.589
 5817TIP3    H217416   0.853   5.234   3.682
 5818TIP3   OH217417   6.771   4.972   4.402
 5818TIP3    H117418   6.757   4.906   4.333
 5818TIP3    H217419   6.822   4.927   4.468
 5819TIP3   OH217420   1.143   2.895   5.115
 5819TIP3    H117421   1.158   2.850   5.032
 5819TIP3    H217422   1.141   2.988   5.093
 5820TIP3   OH217423   6.424   1.063   3.744
 5820TIP3    H117424   6.462   1.057   3.656
 5820TIP3    H217425   6.435   1.155   3.769
 5821TIP3   OH217426   2.619   1.553   5.139
 5821TIP3    H117427   2.695   1.608   5.121
 5821TIP3    H217428   2.629   1.526   5.230
 5822TIP3   OH217429   1.986   5.135   0.356
 5822TIP3    H117430   1.951   5.172   0.437
 5822TIP3    H217431   1.982   5.206   0.293
 5823TIP3   OH217432   4.090   6.484   4.291
 5823TIP3    H117433   4.137   6.450   4.368
 5823TIP3    H217434   4.070   6.406   4.239
 5824TIP3   OH217435   1.430   4.290   4.675
 5824TIP3    H117436   1.500   4.278   4.610
 5824TIP3    H217437   1.458   4.237   4.750
 5825TIP3   OH217438   2.712   4.530   0.757
 5825TIP3    H117439   2.795   4.557   0.718
 5825TIP3    H217440   2.711   4.571   0.843
 5826TIP3   OH217441   0.393   2.665   3.987
 5826TIP3    H117442   0.385   2.577   4.023
 5826TIP3    H217443   0.303   2.697   3.981
 5827TIP3   OH217444   6.154   4.589   2.116
 5827TIP3    H117445   6.064   4.568   2.140
 5827TIP3    H217446   6.158   4.685   2.120
 5828TIP3   OH217447   0.824   0.645   3.736
 5828TIP3    H117448   0.773   0.645   3.655
 5828TIP3    H217449   0.915   0.645   3.707
 5829TIP3   OH217450   0.137   3.123   2.577
 5829TIP3    H117451   0.099   3.205   2.609
 5829TIP3    H217452   0.174   3.082   2.655
 5830TIP3   OH217453   7.118   1.839   4.908
 5830TIP3    H117454   7.173   1.814   4.982
 5830TIP3    H217455   7.093   1.930   4.926
 5831TIP3   OH217456   3.533   2.873   4.299
 5831TIP3    H117457   3.505   2.844   4.212
 5831TIP3    H217458   3.454   2.908   4.340
 5832TIP3   OH217459   3.731   3.848   0.759
 5832TIP3    H117460   3.667   3.871   0.826
 5832TIP3    H217461   3.684   3.861   0.676
 5833TIP3   OH217462   5.636   2.363   4.120
 5833TIP3    H117463   5.729   2.386   4.110
 5833TIP3    H217464   5.609   2.338   4.032
 5834TIP3   OH217465   3.124   5.899   2.644
 5834TIP3    H117466   3.051   5.869   2.698
 5834TIP3    H217467   3.107   5.992   2.630
 5835TIP3   OH217468   3.440   4.511   5.569
 5835TIP3    H117469   3.375   4.465   5.517
 5835TIP3    H217470   3.523   4.493   5.526
 5836TIP3   OH217471   6.171   2.646   1.183
 5836TIP3    H117472   6.264   2.636   1.163
 5836TIP3    H217473   6.164   2.627   1.277
 5837TIP3   OH217474   5.756   5.669   2.140
 5837TIP3    H117475   5.739   5.739   2.077
 5837TIP3    H217476   5.684   5.676   2.203
 5838TIP3   OH217477   0.237   1.289   3.816
 5838TIP3    H117478   0.209   1.301   3.725
 5838TIP3    H217479   0.290   1.366   3.836
 5839TIP3   OH217480   3.338   2.660   4.981
 5839TIP3    H117481   3.339   2.663   5.077
 5839TIP3    H217482   3.401   2.727   4.955
 5840TIP3   OH217483   0.475   4.941   1.291
 5840TIP3    H117484   0.398   4.992   1.268
 5840TIP3    H217485   0.446   4.850   1.284
 5841TIP3   OH217486   3.397   1.388   3.304
 5841TIP3    H117487   3.444   1.461   3.345
 5841TIP3    H217488   3.312   1.425   3.280
 5842TIP3   OH217489   4.932   1.927   3.400
 5842TIP3    H117490   4.896   1.962   3.318
 5842TIP3    H217491   4.984   1.999   3.436
 5843TIP3   OH217492   6.400   2.694   3.413
 5843TIP3    H117493   6.452   2.773   3.399
 5843TIP3    H217494   6.310   2.724   3.415
 5844TIP3   OH217495   4.578   1.164   1.048
 5844TIP3    H117496   4.562   1.123   1.133
 5844TIP3    H217497   4.506   1.226   1.038
 5845TIP3   OH217498   0.995   0.012   3.363
 5845TIP3    H117499   1.020  -0.056   3.300
 5845TIP3    H217500   0.976  -0.036   3.443
 5846TIP3   OH217501   2.836   3.698   3.427
 5846TIP3    H117502   2.852   3.603   3.426
 5846TIP3    H217503   2.910   3.733   3.476
 5847TIP3   OH217504   1.932   3.188   2.556
 5847TIP3    H117505   1.886   3.233   2.628
 5847TIP3    H217506   1.965   3.259   2.501
 5848TIP3   OH217507   2.450   5.959   0.064
 5848TIP3    H117508   2.483   6.017   0.133
 5848TIP3    H217509   2.355   5.958   0.078
 5849TIP3   OH217510   2.061   3.875   1.304
 5849TIP3    H117511   2.122   3.913   1.367
 5849TIP3    H217512   2.031   3.949   1.251
 5850TIP3   OH217513   2.447   5.164   5.424
 5850TIP3    H117514   2.464   5.075   5.394
 5850TIP3    H217515   2.356   5.181   5.399
 5851TIP3   OH217516   1.825   3.900   2.448
 5851TIP3    H117517   1.860   3.988   2.435
 5851TIP3    H217518   1.759   3.911   2.517
 5852TIP3   OH217519   1.580   4.394   2.472
 5852TIP3    H117520   1.664   4.424   2.507
 5852TIP3    H217521   1.569   4.306   2.508
 5853TIP3   OH217522   2.136   0.402   1.421
 5853TIP3    H117523   2.211   0.342   1.418
 5853TIP3    H217524   2.086   0.381   1.342
 5854TIP3   OH217525   3.099   3.203   4.972
 5854TIP3    H117526   3.147   3.282   4.947
 5854TIP3    H217527   3.092   3.153   4.891
 5855TIP3   OH217528   1.949   1.114   4.774
 5855TIP3    H117529   2.042   1.134   4.757
 5855TIP3    H217530   1.902   1.172   4.713
 5856TIP3   OH217531   1.908   2.010   4.176
 5856TIP3    H117532   1.885   2.086   4.123
 5856TIP3    H217533   1.960   1.955   4.118
 5857TIP3   OH217534   7.199   0.150   0.010
 5857TIP3    H117535   7.184   0.143  -0.085
 5857TIP3    H217536   7.278   0.203   0.018
 5858TIP3   OH217537   1.815   2.792   2.447
 5858TIP3    H117538   1.806   2.815   2.355
 5858TIP3    H217539   1.903   2.822   2.471
 5859TIP3   OH217540   5.540   0.501   1.366
 5859TIP3    H117541   5.552   0.547   1.283
 5859TIP3    H217542   5.596   0.424   1.359
 5860TIP3   OH217543   3.533   3.863   4.479
 5860TIP3    H117544   3.539   3.911   4.561
 5860TIP3    H217545   3.579   3.781   4.496
 5861TIP3   OH217546   2.912   1.512   0.322
 5861TIP3    H117547   2.916   1.560   0.239
 5861TIP3    H217548   2.932   1.577   0.389
 5862TIP3   OH217549   2.105   2.951   3.438
 5862TIP3    H117550   2.188   2.998   3.437
 5862TIP3    H217551   2.047   3.004   3.382
 5863TIP3   OH217552   3.770   6.471   3.669
 5863TIP3    H117553   3.800   6.406   3.732
 5863TIP3    H217554   3.742   6.420   3.593
 5864TIP3   OH217555   5.666   1.923   4.352
 5864TIP3    H117556   5.689   1.964   4.436
 5864TIP3    H217557   5.688   1.831   4.364
 5865TIP3   OH217558   5.297   2.221   5.550
 5865TIP3    H117559   5.292   2.316   5.563
 5865TIP3    H217560   5.255   2.185   5.628
 5866TIP3   OH217561   0.555   6.232   0.293
 5866TIP3    H117562   0.485   6.286   0.331
 5866TIP3    H217563   0.631   6.291   0.291
 5867TIP3   OH217564   4.571   2.200   5.075
 5867TIP3    H117565   4.616   2.277   5.038
 5867TIP3    H217566   4.535   2.155   4.998
 5868TIP3   OH217567   3.748   1.191   3.941
 5868TIP3    H117568   3.742   1.105   3.985
 5868TIP3    H217569   3.800   1.174   3.863
 5869TIP3   OH217570   4.460   3.728   5.416
 5869TIP3    H117571   4.542   3.775   5.400
 5869TIP3    H217572   4.405   3.750   5.342
 5870TIP3   OH217573   4.792   3.331   0.452
 5870TIP3    H117574   4.844   3.392   0.504
 5870TIP3    H217575   4.726   3.387   0.410
 5871TIP3   OH217576   7.124   6.773   3.583
 5871TIP3    H117577   7.148   6.795   3.493
 5871TIP3    H217578   7.131   6.855   3.631
 5872TIP3   OH217579   1.569   5.435   5.481
 5872TIP3    H117580   1.555   5.522   5.518
 5872TIP3    H217581   1.481   5.405   5.458
 5873TIP3   OH217582   1.297   3.448   1.314
 5873TIP3    H117583   1.299   3.396   1.394
 5873TIP3    H217584   1.360   3.404   1.256
 5874TIP3   OH217585   5.534   5.940   1.142
 5874TIP3    H117586   5.484   5.927   1.222
 5874TIP3    H217587   5.510   5.866   1.086
 5875TIP3   OH217588   2.688   1.191   4.081
 5875TIP3    H117589   2.602   1.150   4.084
 5875TIP3    H217590   2.709   1.211   4.172
 5876TIP3   OH217591   5.832   5.701   4.443
 5876TIP3    H117592   5.753   5.746   4.413
 5876TIP3    H217593   5.849   5.736   4.530
 5877TIP3   OH217594   1.234   3.689   0.636
 5877TIP3    H117595   1.268   3.604   0.608
 5877TIP3    H217596   1.257   3.695   0.729
 5878TIP3   OH217597   5.445   1.823   0.424
 5878TIP3    H117598   5.449   1.883   0.349
 5878TIP3    H217599   5.516   1.852   0.481
 5879TIP3   OH217600   5.234   1.068   2.708
 5879TIP3    H117601   5.145   1.041   2.727
 5879TIP3    H217602   5.231   1.164   2.707
 5880TIP3   OH217603   5.813   0.835   4.215
 5880TIP3    H117604   5.853   0.920   4.234
 5880TIP3    H217605   5.778   0.845   4.127
 5881TIP3   OH217606   1.887   4.394   2.300
 5881TIP3    H117607   1.856   4.338   2.229
 5881TIP3    H217608   1.980   4.375   2.307
 5882TIP3   OH217609   0.061   3.356   0.630
 5882TIP3    H117610   0.062   3.396   0.717
 5882TIP3    H217611   0.135   3.396   0.584
 5883TIP3   OH217612   4.310   2.406   0.321
 5883TIP3    H117613   4.302   2.371   0.232
 5883TIP3    H217614   4.396   2.377   0.351
 5884TIP3   OH217615   5.895   5.470   2.020
 5884TIP3    H117616   5.962   5.509   1.964
 5884TIP3    H217617   5.845   5.544   2.053
 5885TIP3   OH217618   3.138   6.411   1.237
 5885TIP3    H117619   3.204   6.354   1.198
 5885TIP3    H217620   3.088   6.445   1.164
 5886TIP3   OH217621   1.493   1.187   2.518
 5886TIP3    H117622   1.577   1.178   2.474
 5886TIP3    H217623   1.478   1.282   2.522
 5887TIP3   OH217624   0.473   6.282   3.544
 5887TIP3    H117625   0.551   6.331   3.519
 5887TIP3    H217626   0.507   6.203   3.587
 5888TIP3   OH217627   3.651   4.968   2.118
 5888TIP3    H117628   3.665   5.060   2.096
 5888TIP3    H217629   3.557   4.954   2.105
 5889TIP3   OH217630   0.227   1.917   3.828
 5889TIP3    H117631   0.208   1.844   3.769
 5889TIP3    H217632   0.142   1.939   3.866
 5890TIP3   OH217633   3.280   3.080   0.575
 5890TIP3    H117634   3.353   3.132   0.543
 5890TIP3    H217635   3.293   2.993   0.536
 5891TIP3   OH217636   5.611   2.618   3.066
 5891TIP3    H117637   5.587   2.608   2.974
 5891TIP3    H217638   5.684   2.558   3.079
 5892TIP3   OH217639   1.851   1.742   1.275
 5892TIP3    H117640   1.943   1.722   1.259
 5892TIP3    H217641   1.804   1.665   1.242
 5893TIP3   OH217642   0.568   3.415   2.322
 5893TIP3    H117643   0.504   3.360   2.367
 5893TIP3    H217644   0.518   3.487   2.285
 5894TIP3   OH217645   1.019   1.716   5.752
 5894TIP3    H117646   0.948   1.677   5.702
 5894TIP3    H217647   1.080   1.748   5.685
 5895TIP3   OH217648   1.624   0.070   2.573
 5895TIP3    H117649   1.621  -0.007   2.516
 5895TIP3    H217650   1.689   0.049   2.639
 5896TIP3   OH217651   1.375   0.160   1.180
 5896TIP3    H117652   1.396   0.069   1.162
 5896TIP3    H217653   1.438   0.210   1.128
 5897TIP3   OH217654   0.724   4.631   4.471
 5897TIP3    H117655   0.788   4.574   4.428
 5897TIP3    H217656   0.760   4.646   4.558
 5898TIP3   OH217657   0.923   1.090   1.966
 5898TIP3    H117658   0.881   1.140   2.036
 5898TIP3    H217659   1.016   1.088   1.991
 5899TIP3   OH217660   3.842   0.859   1.412
 5899TIP3    H117661   3.932   0.839   1.387
 5899TIP3    H217662   3.828   0.810   1.493
 5900TIP3   OH217663   0.255   5.663   3.839
 5900TIP3    H117664   0.255   5.656   3.744
 5900TIP3    H217665   0.165   5.647   3.865
 5901TIP3   OH217666   1.384   2.371   4.611
 5901TIP3    H117667   1.372   2.355   4.518
 5901TIP3    H217668   1.424   2.291   4.645
 5902TIP3   OH217669   1.859   0.116   0.542
 5902TIP3    H117670   1.795   0.129   0.472
 5902TIP3    H217671   1.847   0.025   0.569
 5903TIP3   OH217672   0.971   3.101   1.707
 5903TIP3    H117673   0.991   3.010   1.729
 5903TIP3    H217674   1.023   3.119   1.629
 5904TIP3   OH217675   0.872   3.073   5.028
 5904TIP3    H117676   0.858   2.980   5.047
 5904TIP3    H217677   0.923   3.073   4.947
 5905TIP3   OH217678   3.144   6.289   2.056
 5905TIP3    H117679   3.101   6.213   2.095
 5905TIP3    H217680   3.188   6.332   2.129
 5906TIP3   OH217681   4.595   4.444   3.785
 5906TIP3    H117682   4.658   4.381   3.751
 5906TIP3    H217683   4.631   4.471   3.870
 5907TIP3   OH217684   5.393   2.303   3.954
 5907TIP3    H117685   5.394   2.340   3.866
 5907TIP3    H217686   5.342   2.364   4.006
 5908TIP3   OH217687   1.687   2.161   0.895
 5908TIP3    H117688   1.763   2.218   0.903
 5908TIP3    H217689   1.693   2.126   0.806
 5909TIP3   OH217690   2.784   4.268   4.426
 5909TIP3    H117691   2.823   4.244   4.342
 5909TIP3    H217692   2.707   4.320   4.403
 5910TIP3   OH217693   4.602   0.310   4.587
 5910TIP3    H117694   4.657   0.385   4.565
 5910TIP3    H217695   4.555   0.290   4.506
 5911TIP3   OH217696   5.749   5.999   0.614
 5911TIP3    H117697   5.792   6.061   0.555
 5911TIP3    H217698   5.815   5.980   0.681
 5912TIP3   OH217699   5.321   3.859   0.073
 5912TIP3    H117700   5.411   3.828   0.062
 5912TIP3    H217701   5.322   3.908   0.155
 5913TIP3   OH217702   5.603   3.259   2.054
 5913TIP3    H117703   5.576   3.315   2.127
 5913TIP3    H217704   5.535   3.274   1.987
 5914TIP3   OH217705   1.496   5.124   5.470
 5914TIP3    H117706   1.431   5.059   5.499
 5914TIP3    H217707   1.533   5.159   5.551
 5915TIP3   OH217708   0.976   2.247   1.527
 5915TIP3    H117709   1.005   2.183   1.591
 5915TIP3    H217710   1.055   2.270   1.478
 5916TIP3   OH217711   0.569   0.446   0.430
 5916TIP3    H117712   0.664   0.446   0.418
 5916TIP3    H217713   0.556   0.470   0.521
 5917TIP3   OH217714   6.245   3.244   4.280
 5917TIP3    H117715   6.264   3.186   4.207
 5917TIP3    H217716   6.163   3.287   4.257
 5918TIP3   OH217717   5.037   2.881   3.353
 5918TIP3    H117718   5.112   2.932   3.321
 5918TIP3    H217719   4.962   2.916   3.305
 5919TIP3   OH217720   2.690   6.253   0.297
 5919TIP3    H117721   2.711   6.160   0.303
 5919TIP3    H217722   2.635   6.260   0.219
 5920TIP3   OH217723   5.625   2.835   5.285
 5920TIP3    H117724   5.714   2.870   5.282
 5920TIP3    H217725   5.601   2.839   5.377
 5921TIP3   OH217726   1.786   6.767   0.472
 5921TIP3    H117727   1.815   6.701   0.535
 5921TIP3    H217728   1.693   6.750   0.460
 5922TIP3   OH217729   3.283   2.018   0.459
 5922TIP3    H117730   3.212   2.075   0.432
 5922TIP3    H217731   3.316   1.979   0.378
 5923TIP3   OH217732   2.660   5.953   0.819
 5923TIP3    H117733   2.689   5.866   0.793
 5923TIP3    H217734   2.632   5.994   0.738
 5924TIP3   OH217735   5.098   2.537   5.346
 5924TIP3    H117736   5.051   2.453   5.350
 5924TIP3    H217737   5.087   2.565   5.255
 5925TIP3   OH217738   5.556   3.888   1.130
 5925TIP3    H117739   5.621   3.851   1.190
 5925TIP3    H217740   5.585   3.860   1.043
 5926TIP3   OH217741   0.394   5.322   2.675
 5926TIP3    H117742   0.400   5.410   2.713
 5926TIP3    H217743   0.327   5.329   2.607
 5927TIP3   OH217744   7.045   0.863   0.766
 5927TIP3    H117745   7.083   0.860   0.854
 5927TIP3    H217746   6.976   0.797   0.768
 5928TIP3   OH217747   6.347   4.138   1.760
 5928TIP3    H117748   6.369   4.048   1.783
 5928TIP3    H217749   6.295   4.170   1.834
 5929TIP3   OH217750   3.803   2.282   3.806
 5929TIP3    H117751   3.757   2.345   3.862
 5929TIP3    H217752   3.733   2.242   3.754
 5930TIP3   OH217753   6.951   3.722   2.316
 5930TIP3    H117754   7.012   3.788   2.346
 5930TIP3    H217755   6.873   3.735   2.370
 5931TIP3   OH217756   4.191   4.333   0.200
 5931TIP3    H117757   4.227   4.245   0.207
 5931TIP3    H217758   4.180   4.362   0.290
 5932TIP3   OH217759   4.488   6.742   4.396
 5932TIP3    H117760   4.439   6.782   4.324
 5932TIP3    H217761   4.556   6.806   4.417
 5933TIP3   OH217762   1.975   1.149   3.963
 5933TIP3    H117763   1.950   1.204   3.888
 5933TIP3    H217764   1.900   1.090   3.975
 5934TIP3   OH217765   5.958   1.919   0.357
 5934TIP3    H117766   5.965   1.937   0.263
 5934TIP3    H217767   5.977   1.825   0.364
 5935TIP3   OH217768   1.354   3.798   2.430
 5935TIP3    H117769   1.329   3.790   2.338
 5935TIP3    H217770   1.280   3.842   2.471
 5936TIP3   OH217771   2.068   3.791   4.767
 5936TIP3    H117772   2.120   3.868   4.790
 5936TIP3    H217773   2.044   3.753   4.851
 5937TIP3   OH217774   6.860   0.651   0.739
 5937TIP3    H117775   6.906   0.609   0.667
 5937TIP3    H217776   6.804   0.583   0.775
 5938TIP3   OH217777   4.864   0.607   5.793
 5938TIP3    H117778   4.903   0.588   5.708
 5938TIP3    H217779   4.809   0.684   5.777
 5939TIP3   OH217780   7.057   5.959   0.437
 5939TIP3    H117781   7.109   6.035   0.464
 5939TIP3    H217782   6.983   5.996   0.390
 5940TIP3   OH217783   3.292   3.125   3.136
 5940TIP3    H117784   3.221   3.190   3.135
 5940TIP3    H217785   3.323   3.126   3.226
 5941TIP3   OH217786   6.631   2.828   3.606
 5941TIP3    H117787   6.672   2.745   3.632
 5941TIP3    H217788   6.680   2.895   3.654
 5942TIP3   OH217789   3.254   1.790   2.161
 5942TIP3    H117790   3.296   1.790   2.247
 5942TIP3    H217791   3.196   1.867   2.163
 5943TIP3   OH217792   1.252   6.485   0.398
 5943TIP3    H117793   1.235   6.391   0.387
 5943TIP3    H217794   1.333   6.501   0.349
 5944TIP3   OH217795   0.226   0.069   0.376
 5944TIP3    H117796   0.200  -0.010   0.330
 5944TIP3    H217797   0.260   0.127   0.307
 5945TIP3   OH217798   5.349   3.698   4.245
 5945TIP3    H117799   5.318   3.610   4.223
 5945TIP3    H217800   5.360   3.741   4.160
 5946TIP3   OH217801   6.561   4.346   4.698
 5946TIP3    H117802   6.644   4.337   4.650
 5946TIP3    H217803   6.512   4.412   4.648
 5947TIP3   OH217804   5.443   1.930   1.828
 5947TIP3    H117805   5.407   1.956   1.913
 5947TIP3    H217806   5.532   1.964   1.829
 5948TIP3   OH217807   4.287   4.683   0.206
 5948TIP3    H117808   4.296   4.666   0.112
 5948TIP3    H217809   4.375   4.672   0.241
 5949TIP3   OH217810   2.475   5.689   3.624
 5949TIP3    H117811   2.434   5.672   3.539
 5949TIP3    H217812   2.563   5.720   3.603
 5950TIP3   OH217813   2.075   3.473   4.819
 5950TIP3    H117814   2.007   3.445   4.880
 5950TIP3    H217815   2.027   3.503   4.742
 5951TIP3   OH217816   3.574   2.755   0.256
 5951TIP3    H117817   3.566   2.796   0.170
 5951TIP3    H217818   3.623   2.674   0.240
 5952TIP3   OH217819   4.879   3.862   4.856
 5952TIP3    H117820   4.876   3.866   4.760
 5952TIP3    H217821   4.787   3.853   4.882
 5953TIP3   OH217822   3.538   1.006   4.863
 5953TIP3    H117823   3.501   0.974   4.780
 5953TIP3    H217824   3.497   0.951   4.930
 5954TIP3   OH217825   4.064   4.469   2.458
 5954TIP3    H117826   4.020   4.390   2.428
 5954TIP3    H217827   4.145   4.437   2.499
 5955TIP3   OH217828   5.260   1.311   2.882
 5955TIP3    H117829   5.191   1.250   2.909
 5955TIP3    H217830   5.309   1.329   2.962
 5956TIP3   OH217831   1.657   4.975   5.111
 5956TIP3    H117832   1.624   5.065   5.107
 5956TIP3    H217833   1.752   4.985   5.120
 5957TIP3   OH217834   2.380   6.639   3.633
 5957TIP3    H117835   2.382   6.733   3.652
 5957TIP3    H217836   2.313   6.603   3.690
 5958TIP3   OH217837   4.138   0.271   5.197
 5958TIP3    H117838   4.124   0.177   5.201
 5958TIP3    H217839   4.101   0.297   5.112
 5959TIP3   OH217840   5.523   0.981   1.208
 5959TIP3    H117841   5.490   0.925   1.277
 5959TIP3    H217842   5.590   1.035   1.250
 5960TIP3   OH217843   2.068   3.458   1.773
 5960TIP3    H117844   2.041   3.514   1.699
 5960TIP3    H217845   2.052   3.369   1.743
 5961TIP3   OH217846   5.052   4.167   5.784
 5961TIP3    H117847   5.106   4.120   5.848
 5961TIP3    H217848   5.109   4.180   5.709
 5962TIP3   OH217849   3.762   0.061   4.218
 5962TIP3    H117850   3.845   0.098   4.188
 5962TIP3    H217851   3.788  -0.015   4.271
 5963TIP3   OH217852   5.244   0.633   4.940
 5963TIP3    H117853   5.266   0.722   4.968
 5963TIP3    H217854   5.204   0.645   4.853
 5964TIP3   OH217855   4.877   1.258   5.858
 5964TIP3    H117856   4.941   1.264   5.930
 5964TIP3    H217857   4.793   1.280   5.899
 5965TIP3   OH217858   3.526   4.604   1.402
 5965TIP3    H117859   3.482   4.681   1.367
 5965TIP3    H217860   3.608   4.599   1.354
 5966TIP3   OH217861   0.404   4.270   4.096
 5966TIP3    H117862   0.364   4.353   4.124
 5966TIP3    H217863   0.339   4.231   4.038
 5967TIP3   OH217864   1.387   4.740   2.199
 5967TIP3    H117865   1.443   4.720   2.124
 5967TIP3    H217866   1.388   4.660   2.251
 5968TIP3   OH217867   5.823   3.803   4.407
 5968TIP3    H117868   5.824   3.733   4.342
 5968TIP3    H217869   5.802   3.882   4.357
 5969TIP3   OH217870   1.035   6.707   1.762
 5969TIP3    H117871   1.097   6.649   1.807
 5969TIP3    H217872   1.088   6.782   1.735
 5970TIP3   OH217873   3.363   2.234   5.709
 5970TIP3    H117874   3.388   2.218   5.618
 5970TIP3    H217875   3.281   2.187   5.720
 5971TIP3   OH217876   0.356   3.605   1.715
 5971TIP3    H117877   0.431   3.630   1.768
 5971TIP3    H217878   0.391   3.592   1.627
 5972TIP3   OH217879   0.626   2.489   2.032
 5972TIP3    H117880   0.625   2.424   1.961
 5972TIP3    H217881   0.606   2.572   1.988
 5973TIP3   OH217882   6.710   2.319   2.054
 5973TIP3    H117883   6.778   2.331   2.120
 5973TIP3    H217884   6.725   2.390   1.991
 5974TIP3   OH217885   4.464   3.793   1.919
 5974TIP3    H117886   4.525   3.798   1.993
 5974TIP3    H217887   4.511   3.835   1.847
 5975TIP3   OH217888   6.380   1.685   1.570
 5975TIP3    H117889   6.403   1.778   1.560
 5975TIP3    H217890   6.462   1.639   1.551
 5976TIP3   OH217891   1.676   3.501   5.262
 5976TIP3    H117892   1.655   3.453   5.341
 5976TIP3    H217893   1.682   3.435   5.193
 5977TIP3   OH217894   3.386   1.253   3.685
 5977TIP3    H117895   3.302   1.265   3.640
 5977TIP3    H217896   3.389   1.160   3.705
 5978TIP3   OH217897   6.900   3.507   1.138
 5978TIP3    H117898   6.813   3.531   1.170
 5978TIP3    H217899   6.897   3.527   1.044
 5979TIP3   OH217900   4.695   5.686   1.144
 5979TIP3    H117901   4.626   5.749   1.167
 5979TIP3    H217902   4.758   5.693   1.216
 5980TIP3   OH217903   6.253   2.611   0.828
 5980TIP3    H117904   6.166   2.569   0.834
 5980TIP3    H217905   6.276   2.629   0.919
 5981TIP3   OH217906   2.556   3.462   5.401
 5981TIP3    H117907   2.470   3.504   5.394
 5981TIP3    H217908   2.607   3.499   5.329
 5982TIP3   OH217909   2.313   6.045   2.897
 5982TIP3    H117910   2.223   6.019   2.878
 5982TIP3    H217911   2.366   5.994   2.835
 5983TIP3   OH217912   1.278   1.987   2.984
 5983TIP3    H117913   1.206   2.046   3.007
 5983TIP3    H217914   1.305   1.948   3.067
 5984TIP3   OH217915   2.869   3.882   3.223
 5984TIP3    H117916   2.860   3.806   3.281
 5984TIP3    H217917   2.943   3.930   3.259
 5985TIP3   OH217918   7.111   0.296   3.531
 5985TIP3    H117919   7.064   0.346   3.464
 5985TIP3    H217920   7.064   0.315   3.612
 5986TIP3   OH217921   3.160   6.579   5.581
 5986TIP3    H117922   3.186   6.500   5.630
 5986TIP3    H217923   3.116   6.545   5.503
 5987TIP3   OH217924   1.456   6.175   0.681
 5987TIP3    H117925   1.373   6.127   0.687
 5987TIP3    H217926   1.477   6.197   0.772
 5988TIP3   OH217927   3.488   4.918   0.398
 5988TIP3    H117928   3.441   5.000   0.417
 5988TIP3    H217929   3.572   4.929   0.442
 5989TIP3   OH217930   3.431   5.311   1.634
 5989TIP3    H117931   3.451   5.242   1.697
 5989TIP3    H217932   3.344   5.343   1.660
 5990TIP3   OH217933   2.940   4.157   4.234
 5990TIP3    H117934   3.006   4.210   4.279
 5990TIP3    H217935   2.941   4.074   4.282
 5991TIP3   OH217936   1.775   6.810   4.271
 5991TIP3    H117937   1.735   6.725   4.291
 5991TIP3    H217938   1.853   6.788   4.221
 5992TIP3   OH217939   0.059   0.040   2.290
 5992TIP3    H117940   0.069  -0.051   2.317
 5992TIP3    H217941   0.000   0.078   2.356
 5993TIP3   OH217942   7.159   2.382   2.020
 5993TIP3    H117943   7.123   2.338   1.943
 5993TIP3    H217944   7.209   2.455   1.984
 5994TIP3   OH217945   4.590   2.150   5.524
 5994TIP3    H117946   4.674   2.154   5.478
 5994TIP3    H217947   4.553   2.237   5.514
 5995TIP3   OH217948   4.316   1.758   4.128
 5995TIP3    H117949   4.249   1.814   4.088
 5995TIP3    H217950   4.271   1.714   4.200
 5996TIP3   OH217951   0.803   3.746   1.997
 5996TIP3    H117952   0.812   3.729   2.091
 5996TIP3    H217953   0.892   3.740   1.963
 5997TIP3   OH217954   3.687   4.739   5.076
 5997TIP3    H117955   3.662   4.794   5.002
 5997TIP3    H217956   3.608   4.732   5.129
 5998TIP3   OH217957   5.937   6.165   0.467
 5998TIP3    H117958   6.011   6.141   0.522
 5998TIP3    H217959   5.969   6.236   0.412
 5999TIP3   OH217960   4.075   5.077   0.116
 5999TIP3    H117961   4.147   5.105   0.059
 5999TIP3    H217962   4.025   5.015   0.063
 6000TIP3   OH217963   0.757   3.582   4.970
 6000TIP3    H117964   0.732   3.627   4.889
 6000TIP3    H217965   0.815   3.511   4.941
 6001TIP3   OH217966   5.181   6.090   3.044
 6001TIP3    H117967   5.228   6.090   3.127
 6001TIP3    H217968   5.142   6.002   3.039
 6002TIP3   OH217969   6.315   0.319   2.199
 6002TIP3    H117970   6.244   0.293   2.140
 6002TIP3    H217971   6.346   0.236   2.237
 6003TIP3   OH217972   1.587   2.511   4.251
 6003TIP3    H117973   1.529   2.572   4.296
 6003TIP3    H217974   1.667   2.561   4.236
 6004TIP3   OH217975   0.108   0.266   3.167
 6004TIP3    H117976   0.177   0.242   3.106
 6004TIP3    H217977   0.150   0.326   3.229
 6005TIP3   OH217978   1.756   4.074   1.377
 6005TIP3    H117979   1.787   4.057   1.288
 6005TIP3    H217980   1.751   3.987   1.417
 6006TIP3   OH217981   5.182   4.873   0.864
 6006TIP3    H117982   5.110   4.936   0.870
 6006TIP3    H217983   5.258   4.927   0.839
 6007TIP3   OH217984   1.130   5.816   5.546
 6007TIP3    H117985   1.176   5.899   5.531
 6007TIP3    H217986   1.043   5.830   5.511
 6008TIP3   OH217987   2.542   5.487   1.011
 6008TIP3    H117988   2.525   5.511   1.102
 6008TIP3    H217989   2.577   5.398   1.017
 6009TIP3   OH217990   1.290   0.564   2.154
 6009TIP3    H117991   1.379   0.598   2.154
 6009TIP3    H217992   1.255   0.590   2.068
 6010TIP3   OH217993   5.650   0.246   1.326
 6010TIP3    H117994   5.731   0.211   1.363
 6010TIP3    H217995   5.584   0.181   1.348
 6011TIP3   OH217996   3.236   5.399   4.063
 6011TIP3    H117997   3.210   5.367   4.149
 6011TIP3    H217998   3.239   5.495   4.073
 6012TIP3   OH217999   4.462   4.163   1.730
 6012TIP3    H118000   4.421   4.187   1.813
 6012TIP3    H218001   4.427   4.226   1.667
 6013TIP3   OH218002   4.617   3.349   4.982
 6013TIP3    H118003   4.664   3.415   5.032
 6013TIP3    H218004   4.582   3.289   5.049
 6014TIP3   OH218005   0.312   2.953   5.888
 6014TIP3    H118006   0.387   2.897   5.867
 6014TIP3    H218007   0.346   3.042   5.883
 6015TIP3   OH218008   5.545   4.743   3.962
 6015TIP3    H118009   5.618   4.790   4.000
 6015TIP3    H218010   5.494   4.810   3.916
 6016TIP3   OH218011   0.391   6.678   1.706
 6016TIP3    H118012   0.430   6.595   1.734
 6016TIP3    H218013   0.465   6.737   1.694
 6017TIP3   OH218014   5.886   6.273   1.480
 6017TIP3    H118015   5.873   6.247   1.389
 6017TIP3    H218016   5.980   6.267   1.493
 6018TIP3   OH218017   6.910   4.676   2.123
 6018TIP3    H118018   6.841   4.730   2.084
 6018TIP3    H218019   6.948   4.628   2.049
 6019TIP3   OH218020   4.793   2.100   4.011
 6019TIP3    H118021   4.760   2.038   4.076
 6019TIP3    H218022   4.806   2.047   3.932
 6020TIP3   OH218023   5.121   4.451   3.545
 6020TIP3    H118024   5.095   4.384   3.481
 6020TIP3    H218025   5.216   4.441   3.552
 6021TIP3   OH218026   3.412   2.457   0.873
 6021TIP3    H118027   3.491   2.489   0.831
 6021TIP3    H218028   3.431   2.365   0.894
 6022TIP3   OH218029   6.161   5.464   2.876
 6022TIP3    H118030   6.253   5.468   2.904
 6022TIP3    H218031   6.162   5.407   2.799
 6023TIP3   OH218032   3.507   5.168   1.852
 6023TIP3    H118033   3.459   5.152   1.933
 6023TIP3    H218034   3.576   5.230   1.877
 6024TIP3   OH218035   0.993   2.537   5.526
 6024TIP3    H118036   1.075   2.525   5.574
 6024TIP3    H218037   0.927   2.550   5.594
 6025TIP3   OH218038   0.250   6.493   4.319
 6025TIP3    H118039   0.272   6.401   4.302
 6025TIP3    H218040   0.204   6.490   4.404
 6026TIP3   OH218041   0.472   2.438   1.096
 6026TIP3    H118042   0.509   2.480   1.018
 6026TIP3    H218043   0.493   2.497   1.168
 6027TIP3   OH218044   0.806   6.492   2.385
 6027TIP3    H118045   0.764   6.502   2.300
 6027TIP3    H218046   0.889   6.448   2.366
 6028TIP3   OH218047   4.145   1.257   0.834
 6028TIP3    H118048   4.155   1.186   0.772
 6028TIP3    H218049   4.055   1.248   0.866
 6029TIP3   OH218050   6.499   6.352   3.409
 6029TIP3    H118051   6.556   6.276   3.424
 6029TIP3    H218052   6.421   6.333   3.462
 6030TIP3   OH218053   6.467   2.464   3.547
 6030TIP3    H118054   6.527   2.486   3.618
 6030TIP3    H218055   6.443   2.548   3.508
 6031TIP3   OH218056   5.761   2.896   4.775
 6031TIP3    H118057   5.772   2.805   4.802
 6031TIP3    H218058   5.741   2.943   4.856
 6032TIP3   OH218059   3.831   2.629   5.470
 6032TIP3    H118060   3.876   2.638   5.386
 6032TIP3    H218061   3.775   2.552   5.458
 6033TIP3   OH218062   2.495   2.505   3.685
 6033TIP3    H118063   2.544   2.574   3.730
 6033TIP3    H218064   2.481   2.539   3.597
 6034TIP3   OH218065   1.107   1.722   3.219
 6034TIP3    H118066   1.168   1.670   3.273
 6034TIP3    H218067   1.060   1.777   3.282
 6035TIP3   OH218068   5.659   1.670   3.392
 6035TIP3    H118069   5.652   1.575   3.400
 6035TIP3    H218070   5.685   1.700   3.479
 6036TIP3   OH218071   1.736   5.463   4.867
 6036TIP3    H118072   1.711   5.552   4.840
 6036TIP3    H218073   1.656   5.425   4.903
 6037TIP3   OH218074   5.662   4.535   0.080
 6037TIP3    H118075   5.716   4.545   0.158
 6037TIP3    H218076   5.625   4.622   0.065
 6038TIP3   OH218077   3.141   0.912   3.751
 6038TIP3    H118078   3.236   0.920   3.748
 6038TIP3    H218079   3.110   0.996   3.784
 6039TIP3   OH218080   1.493   2.913   2.889
 6039TIP3    H118081   1.463   2.996   2.851
 6039TIP3    H218082   1.499   2.931   2.983
 6040TIP3   OH218083   3.042   2.625   5.513
 6040TIP3    H118084   3.011   2.658   5.597
 6040TIP3    H218085   3.132   2.597   5.530
 6041TIP3   OH218086   5.402   0.204   2.232
 6041TIP3    H118087   5.426   0.248   2.313
 6041TIP3    H218088   5.365   0.273   2.178
 6042TIP3   OH218089   0.624   4.040   4.449
 6042TIP3    H118090   0.614   3.961   4.502
 6042TIP3    H218091   0.567   4.026   4.374
 6043TIP3   OH218092   3.274   1.163   2.698
 6043TIP3    H118093   3.301   1.254   2.684
 6043TIP3    H218094   3.325   1.112   2.634
 6044TIP3   OH218095   3.326   1.058   5.573
 6044TIP3    H118096   3.376   1.024   5.647
 6044TIP3    H218097   3.339   1.152   5.576
 6045TIP3   OH218098   5.227   0.423   5.127
 6045TIP3    H118099   5.179   0.343   5.104
 6045TIP3    H218100   5.214   0.481   5.052
 6046TIP3   OH218101   5.004   3.086   0.094
 6046TIP3    H118102   5.015   3.089   0.189
 6046TIP3    H218103   4.951   3.163   0.073
 6047TIP3   OH218104   6.887   5.257   2.270
 6047TIP3    H118105   6.874   5.250   2.365
 6047TIP3    H218106   6.835   5.185   2.233
 6048TIP3   OH218107   6.056   4.048   4.298
 6048TIP3    H118108   6.054   4.033   4.204
 6048TIP3    H218109   6.073   4.142   4.308
 6049TIP3   OH218110   3.277   2.005   3.704
 6049TIP3    H118111   3.209   2.048   3.652
 6049TIP3    H218112   3.230   1.970   3.780
 6050TIP3   OH218113   0.188   5.220   2.064
 6050TIP3    H118114   0.235   5.300   2.039
 6050TIP3    H218115   0.105   5.225   2.017
 6051TIP3   OH218116   3.495   2.117   3.045
 6051TIP3    H118117   3.438   2.076   2.980
 6051TIP3    H218118   3.437   2.138   3.118
 6052TIP3   OH218119   2.419   1.697   3.181
 6052TIP3    H118120   2.459   1.769   3.132
 6052TIP3    H218121   2.327   1.698   3.155
 6053TIP3   OH218122   4.298   5.753   3.581
 6053TIP3    H118123   4.253   5.777   3.500
 6053TIP3    H218124   4.259   5.669   3.607
 6054TIP3   OH218125   5.789   1.904   1.989
 6054TIP3    H118126   5.844   1.853   2.048
 6054TIP3    H218127   5.718   1.843   1.964
 6055TIP3   OH218128   0.854   2.688   0.234
 6055TIP3    H118129   0.919   2.711   0.169
 6055TIP3    H218130   0.850   2.763   0.293
 6056TIP3   OH218131   3.452   2.957   3.988
 6056TIP3    H118132   3.364   2.992   4.001
 6056TIP3    H218133   3.499   3.026   3.942
 6057TIP3   OH218134   5.419   6.750   1.100
 6057TIP3    H118135   5.454   6.708   1.022
 6057TIP3    H218136   5.341   6.699   1.123
 6058TIP3   OH218137   3.735   3.048   1.768
 6058TIP3    H118138   3.703   3.134   1.740
 6058TIP3    H218139   3.817   3.036   1.720
 6059TIP3   OH218140   5.574   3.735   1.700
 6059TIP3    H118141   5.544   3.684   1.775
 6059TIP3    H218142   5.666   3.753   1.718
 6060TIP3   OH218143   4.336   1.388   5.000
 6060TIP3    H118144   4.281   1.467   4.993
 6060TIP3    H218145   4.415   1.418   5.044
 6061TIP3   OH218146   4.322   3.584   2.006
 6061TIP3    H118147   4.329   3.677   1.983
 6061TIP3    H218148   4.347   3.537   1.927
 6062TIP3   OH218149   7.070   6.083   5.074
 6062TIP3    H118150   7.011   6.158   5.064
 6062TIP3    H218151   7.098   6.062   4.985
 6063TIP3   OH218152   1.184   2.833   5.563
 6063TIP3    H118153   1.109   2.850   5.619
 6063TIP3    H218154   1.251   2.798   5.622
 6064TIP3   OH218155   3.770   4.124   1.229
 6064TIP3    H118156   3.810   4.066   1.165
 6064TIP3    H218157   3.832   4.196   1.238
 6065TIP3   OH218158   6.256   5.767   3.779
 6065TIP3    H118159   6.265   5.683   3.734
 6065TIP3    H218160   6.216   5.825   3.714
 6066TIP3   OH218161   0.697   5.132   3.313
 6066TIP3    H118162   0.693   5.141   3.408
 6066TIP3    H218163   0.790   5.141   3.292
 6067TIP3   OH218164   5.130   5.844   3.633
 6067TIP3    H118165   5.040   5.813   3.633
 6067TIP3    H218166   5.161   5.827   3.722
 6068TIP3   OH218167   2.797   2.514   3.759
 6068TIP3    H118168   2.770   2.449   3.825
 6068TIP3    H218169   2.890   2.526   3.775
 6069TIP3   OH218170   2.851   1.768   4.412
 6069TIP3    H118171   2.852   1.846   4.355
 6069TIP3    H218172   2.919   1.711   4.376
 6070TIP3   OH218173   6.259   2.186   2.954
 6070TIP3    H118174   6.277   2.231   2.872
 6070TIP3    H218175   6.250   2.256   3.019
 6071TIP3   OH218176   6.333   5.090   3.338
 6071TIP3    H118177   6.387   5.127   3.407
 6071TIP3    H218178   6.304   5.165   3.287
 6072TIP3   OH218179   3.232   5.970   0.673
 6072TIP3    H118180   3.174   5.949   0.747
 6072TIP3    H218181   3.173   5.987   0.600
 6073TIP3   OH218182   2.689   4.670   4.466
 6073TIP3    H118183   2.771   4.660   4.417
 6073TIP3    H218184   2.699   4.754   4.511
 6074TIP3   OH218185   6.632   3.063   2.499
 6074TIP3    H118186   6.553   3.033   2.544
 6074TIP3    H218187   6.637   3.157   2.519
 6075TIP3   OH218188   5.101   2.420   2.173
 6075TIP3    H118189   5.102   2.403   2.267
 6075TIP3    H218190   5.130   2.338   2.133
 6076TIP3   OH218191   1.512   0.781   2.578
 6076TIP3    H118192   1.564   0.838   2.634
 6076TIP3    H218193   1.487   0.837   2.504
 6077TIP3   OH218194   4.960   5.604   3.204
 6077TIP3    H118195   5.017   5.617   3.279
 6077TIP3    H218196   4.967   5.684   3.153
 6078TIP3   OH218197   4.690   2.454   3.370
 6078TIP3    H118198   4.717   2.370   3.408
 6078TIP3    H218199   4.667   2.508   3.446
 6079TIP3   OH218200   1.632   0.770   0.727
 6079TIP3    H118201   1.677   0.820   0.795
 6079TIP3    H218202   1.582   0.704   0.774
 6080TIP3   OH218203   6.137   6.117   4.985
 6080TIP3    H118204   6.138   6.029   5.024
 6080TIP3    H218205   6.091   6.106   4.902
 6081TIP3   OH218206   7.097   1.649   5.660
 6081TIP3    H118207   7.147   1.670   5.581
 6081TIP3    H218208   7.044   1.573   5.635
 6082TIP3   OH218209   6.891   0.710   0.394
 6082TIP3    H118210   6.905   0.679   0.305
 6082TIP3    H218211   6.796   0.714   0.404
 6083TIP3   OH218212   5.317   2.985   5.261
 6083TIP3    H118213   5.347   3.017   5.346
 6083TIP3    H218214   5.391   3.001   5.202
 6084TIP3   OH218215   3.122   6.031   5.020
 6084TIP3    H118216   3.074   6.065   5.095
 6084TIP3    H218217   3.137   5.939   5.042
 6085TIP3   OH218218   5.267   5.924   0.618
 6085TIP3    H118219   5.287   5.934   0.525
 6085TIP3    H218220   5.352   5.909   0.660
 6086TIP3   OH218221   6.609   6.368   4.807
 6086TIP3    H118222   6.676   6.435   4.824
 6086TIP3    H218223   6.628   6.298   4.869
 6087TIP3   OH218224   1.757   6.383   3.076
 6087TIP3    H118225   1.821   6.316   3.049
 6087TIP3    H218226   1.770   6.454   3.014
 6088TIP3   OH218227   6.351   1.824   0.454
 6088TIP3    H118228   6.264   1.846   0.487
 6088TIP3    H218229   6.357   1.868   0.369
 6089TIP3   OH218230   6.629   6.171   0.663
 6089TIP3    H118231   6.618   6.181   0.757
 6089TIP3    H218232   6.556   6.220   0.624
 6090TIP3   OH218233   4.702   6.095   1.740
 6090TIP3    H118234   4.682   6.172   1.793
 6090TIP3    H218235   4.653   6.024   1.781
 6091TIP3   OH218236   3.233   0.467   5.093
 6091TIP3    H118237   3.289   0.433   5.163
 6091TIP3    H218238   3.152   0.490   5.137
 6092TIP3   OH218239   2.665   2.069   5.007
 6092TIP3    H118240   2.667   2.069   5.102
 6092TIP3    H218241   2.622   1.987   4.984
 6093TIP3   OH218242   2.694   1.480   5.418
 6093TIP3    H118243   2.642   1.422   5.474
 6093TIP3    H218244   2.773   1.431   5.400
 6094TIP3   OH218245   5.957   3.010   4.604
 6094TIP3    H118246   6.027   2.945   4.594
 6094TIP3    H218247   5.903   2.977   4.676
 6095TIP3   OH218248   3.635   6.679   2.556
 6095TIP3    H118249   3.599   6.591   2.555
 6095TIP3    H218250   3.592   6.722   2.630
 6096TIP3   OH218251   1.880   0.676   2.314
 6096TIP3    H118252   1.878   0.685   2.219
 6096TIP3    H218253   1.972   0.662   2.335
 6097TIP3   OH218254   2.885   0.305   4.032
 6097TIP3    H118255   2.936   0.355   3.968
 6097TIP3    H218256   2.894   0.214   4.005
 6098TIP3   OH218257   4.615   1.030   2.632
 6098TIP3    H118258   4.557   0.971   2.680
 6098TIP3    H218259   4.702   1.014   2.669
 6099TIP3   OH218260   2.578   5.577   1.667
 6099TIP3    H118261   2.533   5.560   1.749
 6099TIP3    H218262   2.625   5.496   1.648
 6100TIP3   OH218263   1.657   3.794   2.023
 6100TIP3    H118264   1.652   3.700   2.006
 6100TIP3    H218265   1.685   3.800   2.114
 6101TIP3   OH218266   3.485   2.420   0.359
 6101TIP3    H118267   3.391   2.405   0.353
 6101TIP3    H218268   3.496   2.471   0.439
 6102TIP3   OH218269   2.634   5.842   2.888
 6102TIP3    H118270   2.661   5.898   2.961
 6102TIP3    H218271   2.560   5.792   2.922
 6103TIP3   OH218272   0.928   2.292   2.611
 6103TIP3    H118273   0.896   2.202   2.612
 6103TIP3    H218274   0.942   2.311   2.518
 6104TIP3   OH218275   3.716   0.066   2.269
 6104TIP3    H118276   3.775  -0.003   2.300
 6104TIP3    H218277   3.679   0.031   2.188
 6105TIP3   OH218278   3.432   6.123   2.281
 6105TIP3    H118279   3.508   6.161   2.324
 6105TIP3    H218280   3.367   6.193   2.280
 6106TIP3   OH218281   1.469   3.551   4.157
 6106TIP3    H118282   1.421   3.627   4.191
 6106TIP3    H218283   1.456   3.483   4.223
 6107TIP3   OH218284   5.689   5.622   2.789
 6107TIP3    H118285   5.632   5.697   2.804
 6107TIP3    H218286   5.777   5.655   2.806
 6108TIP3   OH218287   2.747   5.539   3.643
 6108TIP3    H118288   2.831   5.568   3.607
 6108TIP3    H218289   2.738   5.588   3.725
 6109TIP3   OH218290   2.584   0.185   3.855
 6109TIP3    H118291   2.604   0.241   3.930
 6109TIP3    H218292   2.662   0.189   3.801
 6110TIP3   OH218293   4.030   4.624   3.955
 6110TIP3    H118294   3.977   4.580   3.888
 6110TIP3    H218295   4.009   4.717   3.944
 6111TIP3   OH218296   3.770   6.402   4.183
 6111TIP3    H118297   3.802   6.315   4.207
 6111TIP3    H218298   3.676   6.389   4.167
 6112TIP3   OH218299   2.117   0.888   5.543
 6112TIP3    H118300   2.085   0.874   5.632
 6112TIP3    H218301   2.209   0.911   5.554
 6113TIP3   OH218302   1.604   5.967   0.526
 6113TIP3    H118303   1.575   6.044   0.576
 6113TIP3    H218304   1.578   5.893   0.580
 6114TIP3   OH218305   5.919   5.722   1.857
 6114TIP3    H118306   5.841   5.754   1.903
 6114TIP3    H218307   5.883   5.675   1.781
 6115TIP3   OH218308   4.828   3.078   4.691
 6115TIP3    H118309   4.812   3.064   4.597
 6115TIP3    H218310   4.908   3.030   4.709
 6116TIP3   OH218311   0.717   3.407   3.964
 6116TIP3    H118312   0.749   3.346   4.030
 6116TIP3    H218313   0.631   3.435   3.998
 6117TIP3   OH218314   5.363   4.024   5.423
 6117TIP3    H118315   5.350   3.988   5.336
 6117TIP3    H218316   5.370   3.947   5.480
 6118TIP3   OH218317   2.210   1.975   4.950
 6118TIP3    H118318   2.215   2.017   4.864
 6118TIP3    H218319   2.297   1.987   4.987
 6119TIP3   OH218320   1.694   3.777   2.817
 6119TIP3    H118321   1.695   3.689   2.779
 6119TIP3    H218322   1.759   3.773   2.888
 6120TIP3   OH218323   5.530   4.406   2.772
 6120TIP3    H118324   5.588   4.356   2.716
 6120TIP3    H218325   5.465   4.343   2.803
 6121TIP3   OH218326   4.233   1.526   2.563
 6121TIP3    H118327   4.273   1.457   2.511
 6121TIP3    H218328   4.139   1.518   2.546
 6122TIP3   OH218329   4.458   4.101   3.749
 6122TIP3    H118330   4.406   4.070   3.675
 6122TIP3    H218331   4.402   4.167   3.791
 6123TIP3   OH218332   1.238   6.254   1.398
 6123TIP3    H118333   1.145   6.273   1.384
 6123TIP3    H218334   1.281   6.339   1.385
 6124TIP3   OH218335   1.492   5.214   2.932
 6124TIP3    H118336   1.419   5.216   2.994
 6124TIP3    H218337   1.463   5.156   2.861
 6125TIP3   OH218338   0.409   0.795   2.943
 6125TIP3    H118339   0.315   0.806   2.932
 6125TIP3    H218340   0.417   0.714   2.993
 6126TIP3   OH218341   3.288   2.919   0.804
 6126TIP3    H118342   3.278   2.993   0.743
 6126TIP3    H218343   3.331   2.957   0.880
 6127TIP3   OH218344   2.964   0.567   2.061
 6127TIP3    H118345   2.904   0.492   2.053
 6127TIP3    H218346   3.039   0.543   2.006
 6128TIP3   OH218347   4.054   0.885   3.298
 6128TIP3    H118348   4.134   0.908   3.346
 6128TIP3    H218349   3.984   0.927   3.348
 6129TIP3   OH218350   5.681   6.111   3.703
 6129TIP3    H118351   5.589   6.110   3.677
 6129TIP3    H218352   5.680   6.091   3.797
 6130TIP3   OH218353   1.253   4.499   0.907
 6130TIP3    H118354   1.317   4.569   0.919
 6130TIP3    H218355   1.173   4.531   0.950
 6131TIP3   OH218356   1.709   3.042   0.089
 6131TIP3    H118357   1.763   3.022   0.165
 6131TIP3    H218358   1.769   3.036   0.014
 6132TIP3   OH218359   4.187   6.434   4.546
 6132TIP3    H118360   4.110   6.449   4.601
 6132TIP3    H218361   4.239   6.513   4.557
 6133TIP3   OH218362   4.927   2.379   3.226
 6133TIP3    H118363   4.843   2.387   3.271
 6133TIP3    H218364   4.983   2.445   3.268
 6134TIP3   OH218365   0.129   0.487   1.747
 6134TIP3    H118366   0.112   0.555   1.681
 6134TIP3    H218367   0.166   0.415   1.697
 6135TIP3   OH218368   5.092   1.842   2.725
 6135TIP3    H118369   5.165   1.791   2.690
 6135TIP3    H218370   5.115   1.856   2.817
 6136TIP3   OH218371   5.084   5.585   4.472
 6136TIP3    H118372   5.094   5.575   4.566
 6136TIP3    H218373   5.155   5.643   4.445
 6137TIP3   OH218374   3.514   0.191   5.621
 6137TIP3    H118375   3.425   0.225   5.610
 6137TIP3    H218376   3.569   0.269   5.624
 6138TIP3   OH218377   0.375   2.072   1.922
 6138TIP3    H118378   0.432   2.005   1.884
 6138TIP3    H218379   0.422   2.155   1.909
 6139TIP3   OH218380   2.686   5.066   4.428
 6139TIP3    H118381   2.719   5.099   4.344
 6139TIP3    H218382   2.625   4.996   4.403
 6140TIP3   OH218383   3.791   2.276   3.364
 6140TIP3    H118384   3.880   2.266   3.331
 6140TIP3    H218385   3.793   2.357   3.415
 6141TIP3   OH218386   1.953   4.068   1.613
 6141TIP3    H118387   1.892   4.054   1.685
 6141TIP3    H218388   1.901   4.110   1.544
 6142TIP3   OH218389   3.945   4.592   5.549
 6142TIP3    H118390   3.909   4.657   5.610
 6142TIP3    H218391   3.999   4.535   5.604
 6143TIP3   OH218392   3.698   2.676   1.230
 6143TIP3    H118393   3.779   2.647   1.271
 6143TIP3    H218394   3.721   2.688   1.138
 6144TIP3   OH218395   1.959   3.882   0.373
 6144TIP3    H118396   1.957   3.793   0.408
 6144TIP3    H218397   1.892   3.882   0.305
 6145TIP3   OH218398   0.508   6.737   2.969
 6145TIP3    H118399   0.546   6.765   3.053
 6145TIP3    H218400   0.554   6.790   2.904
 6146TIP3   OH218401   3.976   3.716   0.355
 6146TIP3    H118402   4.014   3.673   0.279
 6146TIP3    H218403   3.974   3.809   0.332
 6147TIP3   OH218404   2.614   1.352   2.642
 6147TIP3    H118405   2.633   1.265   2.608
 6147TIP3    H218406   2.614   1.341   2.737
 6148TIP3   OH218407   0.265   3.400   0.402
 6148TIP3    H118408   0.271   3.486   0.359
 6148TIP3    H218409   0.294   3.338   0.335
 6149TIP3   OH218410   5.512   3.571   2.866
 6149TIP3    H118411   5.437   3.514   2.881
 6149TIP3    H218412   5.574   3.516   2.818
 6150TIP3   OH218413   5.008   2.466   3.848
 6150TIP3    H118414   4.948   2.403   3.807
 6150TIP3    H218415   5.090   2.456   3.801
 6151TIP3   OH218416   6.964   4.037   5.360
 6151TIP3    H118417   6.999   4.049   5.449
 6151TIP3    H218418   7.041   4.029   5.305
 6152TIP3   OH218419   6.241   6.423   0.356
 6152TIP3    H118420   6.171   6.451   0.415
 6152TIP3    H218421   6.228   6.476   0.277
 6153TIP3   OH218422   0.108   6.327   2.267
 6153TIP3    H118423   0.130   6.417   2.291
 6153TIP3    H218424   0.077   6.287   2.348
 6154TIP3   OH218425   0.142   1.126   2.989
 6154TIP3    H118426   0.152   1.160   3.078
 6154TIP3    H218427   0.048   1.128   2.973
 6155TIP3   OH218428   7.019   1.282   4.737
 6155TIP3    H118429   7.098   1.277   4.682
 6155TIP3    H218430   7.007   1.192   4.768
 6156TIP3   OH218431   5.586   1.740   4.720
 6156TIP3    H118432   5.493   1.757   4.729
 6156TIP3    H218433   5.593   1.679   4.646
 6157TIP3   OH218434   5.558   4.586   2.984
 6157TIP3    H118435   5.492   4.601   3.052
 6157TIP3    H218436   5.522   4.517   2.929
 6158TIP3   OH218437   0.875   5.168   2.452
 6158TIP3    H118438   0.933   5.216   2.393
 6158TIP3    H218439   0.788   5.175   2.412
 6159TIP3   OH218440   0.953   2.452   3.077
 6159TIP3    H118441   0.862   2.433   3.054
 6159TIP3    H218442   0.977   2.526   3.020
 6160TIP3   OH218443   5.153   4.128   0.783
 6160TIP3    H118444   5.182   4.215   0.758
 6160TIP3    H218445   5.218   4.099   0.848
 6161TIP3   OH218446   4.604   5.457   4.174
 6161TIP3    H118447   4.593   5.398   4.249
 6161TIP3    H218448   4.526   5.514   4.177
 6162TIP3   OH218449   7.028   1.146   1.647
 6162TIP3    H118450   6.967   1.214   1.675
 6162TIP3    H218451   7.002   1.126   1.558
 6163TIP3   OH218452   6.034   0.179   1.796
 6163TIP3    H118453   5.950   0.137   1.780
 6163TIP3    H218454   6.095   0.134   1.738
 6164TIP3   OH218455   5.668   1.145   4.636
 6164TIP3    H118456   5.617   1.065   4.649
 6164TIP3    H218457   5.755   1.123   4.668
 6165TIP3   OH218458   2.363   3.285   4.372
 6165TIP3    H118459   2.409   3.367   4.390
 6165TIP3    H218460   2.430   3.218   4.384
 6166TIP3   OH218461   0.574   5.856   0.624
 6166TIP3    H118462   0.596   5.948   0.612
 6166TIP3    H218463   0.480   5.850   0.604
 6167TIP3   OH218464   5.023   0.690   0.066
 6167TIP3    H118465   5.073   0.678   0.146
 6167TIP3    H218466   4.932   0.684   0.093
 6168TIP3   OH218467   2.111   3.684   2.497
 6168TIP3    H118468   2.193   3.669   2.449
 6168TIP3    H218469   2.071   3.760   2.454
 6169TIP3   OH218470   5.871   4.756   0.634
 6169TIP3    H118471   5.825   4.822   0.582
 6169TIP3    H218472   5.835   4.672   0.605
 6170TIP3   OH218473   4.939   3.602   4.529
 6170TIP3    H118474   4.897   3.523   4.565
 6170TIP3    H218475   4.872   3.670   4.536
 6171TIP3   OH218476   6.256   6.094   4.416
 6171TIP3    H118477   6.308   6.163   4.374
 6171TIP3    H218478   6.182   6.080   4.356
 6172TIP3   OH218479   4.306   6.801   1.014
 6172TIP3    H118480   4.399   6.790   0.995
 6172TIP3    H218481   4.303   6.836   1.103
 6173TIP3   OH218482   0.006   3.812   5.702
 6173TIP3    H118483  -0.027   3.738   5.754
 6173TIP3    H218484  -0.046   3.809   5.622
 6174TIP3   OH218485   6.969   0.599   3.160
 6174TIP3    H118486   7.049   0.639   3.127
 6174TIP3    H218487   6.900   0.662   3.140
 6175TIP3   OH218488   2.524   5.421   3.524
 6175TIP3    H118489   2.567   5.441   3.441
 6175TIP3    H218490   2.584   5.453   3.591
 6176TIP3   OH218491   5.031   1.334   4.011
 6176TIP3    H118492   4.936   1.347   4.009
 6176TIP3    H218493   5.042   1.239   4.013
 6177TIP3   OH218494   7.004   3.839   4.054
 6177TIP3    H118495   7.068   3.905   4.079
 6177TIP3    H218496   6.944   3.885   3.995
 6178TIP3   OH218497   2.685   3.765   4.088
 6178TIP3    H118498   2.744   3.693   4.113
 6178TIP3    H218499   2.731   3.810   4.018
 6179TIP3   OH218500   3.575   4.004   0.200
 6179TIP3    H118501   3.652   3.990   0.145
 6179TIP3    H218502   3.555   3.917   0.236
 6180TIP3   OH218503   2.067   1.436   3.869
 6180TIP3    H118504   2.027   1.461   3.953
 6180TIP3    H218505   2.127   1.365   3.892
 6181TIP3   OH218506   6.047   5.525   5.697
 6181TIP3    H118507   6.021   5.477   5.618
 6181TIP3    H218508   6.089   5.604   5.664
 6182TIP3   OH218509   3.737   1.798   5.721
 6182TIP3    H118510   3.667   1.750   5.677
 6182TIP3    H218511   3.814   1.783   5.666
 6183TIP3   OH218512   4.892   1.772   1.249
 6183TIP3    H118513   4.898   1.805   1.339
 6183TIP3    H218514   4.978   1.791   1.210
 6184TIP3   OH218515   2.078   5.719   2.942
 6184TIP3    H118516   2.010   5.773   2.983
 6184TIP3    H218517   2.082   5.751   2.852
 6185TIP3   OH218518   4.179   0.847   0.248
 6185TIP3    H118519   4.246   0.915   0.251
 6185TIP3    H218520   4.149   0.838   0.338
 6186TIP3   OH218521   1.321   4.352   0.307
 6186TIP3    H118522   1.251   4.325   0.248
 6186TIP3    H218523   1.298   4.442   0.331
 6187TIP3   OH218524   1.330   6.199   3.143
 6187TIP3    H118525   1.345   6.284   3.184
 6187TIP3    H218526   1.366   6.136   3.206
 6188TIP3   OH218527   0.420   6.465   0.388
 6188TIP3    H118528   0.387   6.532   0.328
 6188TIP3    H218529   0.342   6.437   0.437
 6189TIP3   OH218530   4.347   4.563   2.149
 6189TIP3    H118531   4.415   4.569   2.081
 6189TIP3    H218532   4.365   4.480   2.194
 6190TIP3   OH218533   4.408   6.131   0.983
 6190TIP3    H118534   4.439   6.221   0.973
 6190TIP3    H218535   4.337   6.137   1.047
 6191TIP3   OH218536   4.643   3.112   0.695
 6191TIP3    H118537   4.628   3.088   0.604
 6191TIP3    H218538   4.575   3.066   0.744
 6192TIP3   OH218539   6.992   5.922   4.527
 6192TIP3    H118540   6.921   5.860   4.547
 6192TIP3    H218541   6.952   5.986   4.468
 6193TIP3   OH218542   5.166   5.641   1.830
 6193TIP3    H118543   5.174   5.630   1.735
 6193TIP3    H218544   5.080   5.682   1.843
 6194TIP3   OH218545   1.632   0.928   0.500
 6194TIP3    H118546   1.677   1.006   0.532
 6194TIP3    H218547   1.656   0.859   0.561
 6195TIP3   OH218548   5.615   0.979   3.022
 6195TIP3    H118549   5.676   0.941   3.085
 6195TIP3    H218550   5.532   0.935   3.039
 6196TIP3   OH218551   2.668   6.344   2.441
 6196TIP3    H118552   2.640   6.252   2.438
 6196TIP3    H218553   2.762   6.341   2.426
 6197TIP3   OH218554   4.556   5.759   3.953
 6197TIP3    H118555   4.540   5.852   3.935
 6197TIP3    H218556   4.601   5.759   4.038
 6198TIP3   OH218557   5.004   2.622   1.320
 6198TIP3    H118558   4.976   2.553   1.381
 6198TIP3    H218559   5.002   2.580   1.234
 6199TIP3   OH218560   5.586   3.174   4.428
 6199TIP3    H118561   5.559   3.141   4.514
 6199TIP3    H218562   5.676   3.144   4.418
 6200TIP3   OH218563   5.422   3.938   1.593
 6200TIP3    H118564   5.472   3.939   1.511
 6200TIP3    H218565   5.464   3.870   1.646
 6201TIP3   OH218566   5.896   2.451   5.620
 6201TIP3    H118567   5.868   2.540   5.599
 6201TIP3    H218568   5.966   2.433   5.557
 6202TIP3   OH218569   1.173   4.916   2.669
 6202TIP3    H118570   1.237   4.900   2.599
 6202TIP3    H218571   1.165   4.831   2.713
 6203TIP3   OH218572   6.922   6.345   5.044
 6203TIP3    H118573   6.991   6.411   5.052
 6203TIP3    H218574   6.910   6.335   4.949
 6204TIP3   OH218575   4.507   4.460   4.158
 6204TIP3    H118576   4.426   4.411   4.142
 6204TIP3    H218577   4.514   4.465   4.253
 6205TIP3   OH218578   2.990   2.995   3.198
 6205TIP3    H118579   2.900   2.962   3.191
 6205TIP3    H218580   3.018   2.971   3.286
 6206TIP3   OH218581   5.715   6.661   2.862
 6206TIP3    H118582   5.796   6.639   2.908
 6206TIP3    H218583   5.736   6.650   2.770
 6207TIP3   OH218584   3.350   2.740   5.247
 6207TIP3    H118585   3.266   2.755   5.291
 6207TIP3    H218586   3.414   2.787   5.300
 6208TIP3   OH218587   5.551   3.493   3.516
 6208TIP3    H118588   5.485   3.549   3.558
 6208TIP3    H218589   5.570   3.537   3.433
 6209TIP3   OH218590   2.322   5.442   5.197
 6209TIP3    H118591   2.266   5.515   5.169
 6209TIP3    H218592   2.261   5.380   5.237
 6210TIP3   OH218593   0.707   3.178   1.711
 6210TIP3    H118594   0.797   3.159   1.683
 6210TIP3    H218595   0.711   3.267   1.746
 6211TIP3   OH218596   4.522   6.788   4.856
 6211TIP3    H118597   4.592   6.745   4.806
 6211TIP3    H218598   4.479   6.844   4.792
 6212TIP3   OH218599   5.925   1.239   3.339
 6212TIP3    H118600   5.903   1.235   3.246
 6212TIP3    H218601   5.978   1.160   3.354
 6213TIP3   OH218602   6.364   5.798   0.186
 6213TIP3    H118603   6.433   5.860   0.162
 6213TIP3    H218604   6.303   5.800   0.111
 6214TIP3   OH218605   1.571   2.666   2.387
 6214TIP3    H118606   1.648   2.680   2.442
 6214TIP3    H218607   1.508   2.622   2.445
 6215TIP3   OH218608   0.478   1.005   1.347
 6215TIP3    H118609   0.471   1.039   1.258
 6215TIP3    H218610   0.545   0.937   1.341
 6216TIP3   OH218611   1.099   4.155   2.434
 6216TIP3    H118612   1.183   4.197   2.415
 6216TIP3    H218613   1.081   4.100   2.357
 6217TIP3   OH218614   1.725   0.274   2.892
 6217TIP3    H118615   1.684   0.360   2.903
 6217TIP3    H218616   1.736   0.241   2.981
 6218TIP3   OH218617   4.032   5.507   4.560
 6218TIP3    H118618   4.011   5.420   4.593
 6218TIP3    H218619   4.072   5.492   4.475
 6219TIP3   OH218620   5.970   3.700   0.174
 6219TIP3    H118621   6.033   3.712   0.245
 6219TIP3    H218622   5.966   3.786   0.132
 6220TIP3   OH218623   3.439   6.714   2.800
 6220TIP3    H118624   3.454   6.778   2.870
 6220TIP3    H218625   3.507   6.648   2.812
 6221TIP3   OH218626   6.736   4.410   3.496
 6221TIP3    H118627   6.753   4.352   3.421
 6221TIP3    H218628   6.683   4.480   3.459
 6222TIP3   OH218629   4.037   0.019   4.587
 6222TIP3    H118630   3.959  -0.033   4.568
 6222TIP3    H218631   4.071   0.044   4.501
 6223TIP3   OH218632   2.442   1.273   0.493
 6223TIP3    H118633   2.516   1.213   0.476
 6223TIP3    H218634   2.419   1.257   0.584
 6224TIP3   OH218635   4.472   5.990   2.376
 6224TIP3    H118636   4.493   5.899   2.398
 6224TIP3    H218637   4.468   6.035   2.460
 6225TIP3   OH218638   4.932   5.895   2.461
 6225TIP3    H118639   4.887   5.851   2.389
 6225TIP3    H218640   4.942   5.986   2.431
 6226TIP3   OH218641   4.498   1.633   1.445
 6226TIP3    H118642   4.423   1.692   1.443
 6226TIP3    H218643   4.465   1.554   1.489
 6227TIP3   OH218644   1.314   0.353   3.145
 6227TIP3    H118645   1.339   0.282   3.204
 6227TIP3    H218646   1.298   0.427   3.203
 6228TIP3   OH218647   4.811   1.821   1.621
 6228TIP3    H118648   4.866   1.743   1.627
 6228TIP3    H218649   4.749   1.812   1.693
 6229TIP3   OH218650   4.606   5.538   2.765
 6229TIP3    H118651   4.626   5.573   2.852
 6229TIP3    H218652   4.569   5.451   2.782
 6230TIP3   OH218653   4.762   1.543   5.587
 6230TIP3    H118654   4.737   1.585   5.669
 6230TIP3    H218655   4.752   1.611   5.520
 6231TIP3   OH218656   2.290   0.554   0.750
 6231TIP3    H118657   2.234   0.543   0.674
 6231TIP3    H218658   2.292   0.648   0.766
 6232TIP3   OH218659   7.030   4.787   0.689
 6232TIP3    H118660   7.080   4.766   0.610
 6232TIP3    H218661   6.939   4.773   0.665
 6233TIP3   OH218662   2.417   4.095   0.224
 6233TIP3    H118663   2.394   4.044   0.302
 6233TIP3    H218664   2.342   4.085   0.166
 6234TIP3   OH218665   5.703   2.470   5.861
 6234TIP3    H118666   5.763   2.436   5.794
 6234TIP3    H218667   5.760   2.504   5.930
 6235TIP3   OH218668   6.137   6.545   4.064
 6235TIP3    H118669   6.217   6.534   4.115
 6235TIP3    H218670   6.082   6.603   4.117
 6236TIP3   OH218671   1.776   3.312   2.830
 6236TIP3    H118672   1.840   3.309   2.901
 6236TIP3    H218673   1.694   3.284   2.871
 6237TIP3   OH218674   4.009   4.718   1.181
 6237TIP3    H118675   4.042   4.711   1.091
 6237TIP3    H218676   4.034   4.807   1.208
 6238TIP3   OH218677   6.416   2.664   5.322
 6238TIP3    H118678   6.512   2.661   5.318
 6238TIP3    H218679   6.388   2.653   5.232
 6239TIP3   OH218680   2.179   3.349   4.554
 6239TIP3    H118681   2.090   3.314   4.546
 6239TIP3    H218682   2.231   3.297   4.494
 6240TIP3   OH218683   6.861   6.157   0.483
 6240TIP3    H118684   6.897   6.156   0.571
 6240TIP3    H218685   6.780   6.106   0.490
 6241TIP3   OH218686   6.371   3.965   5.177
 6241TIP3    H118687   6.403   4.043   5.224
 6241TIP3    H218688   6.288   3.993   5.139
 6242TIP3   OH218689   6.750   6.104   4.665
 6242TIP3    H118690   6.719   6.031   4.718
 6242TIP3    H218691   6.803   6.157   4.725
 6243TIP3   OH218692   6.490   2.994   3.385
 6243TIP3    H118693   6.548   3.026   3.316
 6243TIP3    H218694   6.548   2.972   3.457
 6244TIP3   OH218695   4.105   1.514   4.091
 6244TIP3    H118696   4.095   1.551   4.003
 6244TIP3    H218697   4.034   1.450   4.099
 6245TIP3   OH218698   2.344   4.385   5.768
 6245TIP3    H118699   2.361   4.348   5.855
 6245TIP3    H218700   2.427   4.376   5.722
 6246TIP3   OH218701   3.041   2.260   2.742
 6246TIP3    H118702   2.979   2.322   2.702
 6246TIP3    H218703   2.990   2.218   2.811
 6247TIP3   OH218704   2.274   2.523   1.222
 6247TIP3    H118705   2.332   2.486   1.289
 6247TIP3    H218706   2.332   2.575   1.166
 6248TIP3   OH218707   1.863   1.780   4.324
 6248TIP3    H118708   1.801   1.833   4.274
 6248TIP3    H218709   1.949   1.809   4.294
 6249TIP3   OH218710   6.056   2.611   5.384
 6249TIP3    H118711   6.070   2.686   5.442
 6249TIP3    H218712   6.094   2.537   5.431
 6250TIP3   OH218713   5.015   6.516   0.060
 6250TIP3    H118714   4.973   6.596   0.028
 6250TIP3    H218715   4.942   6.458   0.083
 6251TIP3   OH218716   6.909   3.241   0.163
 6251TIP3    H118717   6.994   3.202   0.139
 6251TIP3    H218718   6.878   3.189   0.237
 6252TIP3   OH218719   5.950   5.050   5.312
 6252TIP3    H118720   5.992   5.048   5.226
 6252TIP3    H218721   5.878   4.988   5.305
 6253TIP3   OH218722   2.696   4.411   3.903
 6253TIP3    H118723   2.712   4.414   3.809
 6253TIP3    H218724   2.752   4.480   3.939
 6254TIP3   OH218725   3.925   4.146   4.956
 6254TIP3    H118726   3.864   4.135   5.028
 6254TIP3    H218727   3.870   4.146   4.877
 6255TIP3   OH218728   5.655   5.177   2.251
 6255TIP3    H118729   5.629   5.261   2.289
 6255TIP3    H218730   5.626   5.182   2.160
 6256TIP3   OH218731   4.713   4.832   4.346
 6256TIP3    H118732   4.655   4.883   4.401
 6256TIP3    H218733   4.800   4.870   4.361
 6257TIP3   OH218734   4.967   6.660   0.718
 6257TIP3    H118735   4.999   6.749   0.712
 6257TIP3    H218736   4.960   6.630   0.627
 6258TIP3   OH218737   0.910   0.182   0.795
 6258TIP3    H118738   0.847   0.171   0.724
 6258TIP3    H218739   0.932   0.092   0.821
 6259TIP3   OH218740   5.646   0.614   5.882
 6259TIP3    H118741   5.668   0.536   5.831
 6259TIP3    H218742   5.561   0.643   5.848
 6260TIP3   OH218743   6.333   0.051   5.306
 6260TIP3    H118744   6.293   0.068   5.221
 6260TIP3    H218745   6.260   0.052   5.368
 6261TIP3   OH218746   2.790   0.759   1.842
 6261TIP3    H118747   2.762   0.749   1.750
 6261TIP3    H218748   2.743   0.690   1.888
 6262TIP3   OH218749   5.982   6.365   3.603
 6262TIP3    H118750   5.992   6.354   3.697
 6262TIP3    H218751   5.985   6.460   3.589
 6263TIP3   OH218752   0.121   1.778   1.784
 6263TIP3    H118753   0.133   1.683   1.790
 6263TIP3    H218754   0.181   1.806   1.716
 6264TIP3   OH218755   1.002   2.053   0.477
 6264TIP3    H118756   0.935   2.101   0.527
 6264TIP3    H218757   0.960   2.036   0.393
 6265TIP3   OH218758   6.403   2.838   4.939
 6265TIP3    H118759   6.496   2.854   4.953
 6265TIP3    H218760   6.390   2.748   4.966
 6266TIP3   OH218761   1.867   5.635   5.677
 6266TIP3    H118762   1.959   5.661   5.675
 6266TIP3    H218763   1.869   5.540   5.676
 6267TIP3   OH218764   0.556   0.026   5.675
 6267TIP3    H118765   0.569   0.121   5.671
 6267TIP3    H218766   0.564   0.005   5.768
 6268TIP3   OH218767   0.937   3.902   1.165
 6268TIP3    H118768   0.972   3.840   1.230
 6268TIP3    H218769   0.994   3.892   1.089
 6269TIP3   OH218770   6.331   5.494   2.326
 6269TIP3    H118771   6.385   5.426   2.366
 6269TIP3    H218772   6.246   5.452   2.312
 6270TIP3   OH218773   5.714   0.888   5.278
 6270TIP3    H118774   5.727   0.980   5.255
 6270TIP3    H218775   5.799   0.847   5.263
 6271TIP3   OH218776   0.042   3.260   4.939
 6271TIP3    H118777   0.001   3.174   4.929
 6271TIP3    H218778   0.081   3.258   5.026
 6272TIP3   OH218779   5.527   0.490   4.980
 6272TIP3    H118780   5.509   0.578   4.945
 6272TIP3    H218781   5.485   0.431   4.918
 6273TIP3   OH218782   6.739   5.067   3.751
 6273TIP3    H118783   6.777   5.057   3.838
 6273TIP3    H218784   6.647   5.042   3.762
 6274TIP3   OH218785   1.484   4.129   1.595
 6274TIP3    H118786   1.422   4.172   1.654
 6274TIP3    H218787   1.481   4.037   1.620
 6275TIP3   OH218788   6.370   2.858   3.717
 6275TIP3    H118789   6.351   2.946   3.750
 6275TIP3    H218790   6.458   2.864   3.681
 6276TIP3   OH218791   4.465   6.265   2.299
 6276TIP3    H118792   4.457   6.170   2.312
 6276TIP3    H218793   4.456   6.276   2.204
 6277TIP3   OH218794   0.924   2.217   5.267
 6277TIP3    H118795   0.975   2.138   5.286
 6277TIP3    H218796   0.987   2.288   5.271
 6278TIP3   OH218797   7.101   1.339   2.826
 6278TIP3    H118798   7.119   1.280   2.753
 6278TIP3    H218799   7.060   1.415   2.786
 6279TIP3   OH218800   6.669   6.180   3.172
 6279TIP3    H118801   6.665   6.228   3.090
 6279TIP3    H218802   6.715   6.239   3.232
 6280TIP3   OH218803   5.328   6.130   3.939
 6280TIP3    H118804   5.333   6.162   3.849
 6280TIP3    H218805   5.282   6.200   3.986
 6281TIP3   OH218806   6.871   0.246   2.649
 6281TIP3    H118807   6.781   0.280   2.653
 6281TIP3    H218808   6.924   0.312   2.694
 6282TIP3   OH218809   5.891   6.609   0.104
 6282TIP3    H118810   5.856   6.535   0.153
 6282TIP3    H218811   5.964   6.572   0.054
 6283TIP3   OH218812   5.006   4.497   5.822
 6283TIP3    H118813   4.991   4.590   5.840
 6283TIP3    H218814   5.052   4.465   5.899
 6284TIP3   OH218815   5.312   1.776   4.823
 6284TIP3    H118816   5.254   1.749   4.895
 6284TIP3    H218817   5.310   1.872   4.826
 6285TIP3   OH218818   5.895   1.916   5.206
 6285TIP3    H118819   5.929   1.995   5.248
 6285TIP3    H218820   5.843   1.948   5.133
 6286TIP3   OH218821   5.542   4.633   1.912
 6286TIP3    H118822   5.633   4.659   1.895
 6286TIP3    H218823   5.506   4.617   1.824
 6287TIP3   OH218824   4.035   6.390   2.733
 6287TIP3    H118825   3.992   6.462   2.687
 6287TIP3    H218826   4.123   6.421   2.750
 6288TIP3   OH218827   2.065   1.183   3.017
 6288TIP3    H118828   2.033   1.093   3.019
 6288TIP3    H218829   1.998   1.233   3.064
 6289TIP3   OH218830   3.473   1.464   5.338
 6289TIP3    H118831   3.444   1.380   5.304
 6289TIP3    H218832   3.561   1.476   5.302
 6290TIP3   OH218833   3.978   2.638   4.336
 6290TIP3    H118834   4.024   2.636   4.421
 6290TIP3    H218835   3.934   2.553   4.331
 6291TIP3   OH218836   5.089   5.680   5.300
 6291TIP3    H118837   5.008   5.718   5.266
 6291TIP3    H218838   5.073   5.586   5.301
 6292TIP3   OH218839   6.442   6.552   4.518
 6292TIP3    H118840   6.413   6.517   4.601
 6292TIP3    H218841   6.462   6.644   4.536
 6293TIP3   OH218842   5.257   2.687   5.883
 6293TIP3    H118843   5.348   2.669   5.860
 6293TIP3    H218844   5.262   2.732   5.968
 6294TIP3   OH218845   2.030   3.452   1.327
 6294TIP3    H118846   2.020   3.547   1.327
 6294TIP3    H218847   2.124   3.438   1.343
 6295TIP3   OH218848   6.397   0.386   5.011
 6295TIP3    H118849   6.392   0.385   5.107
 6295TIP3    H218850   6.336   0.454   4.984
 6296TIP3   OH218851   0.689   4.641   2.434
 6296TIP3    H118852   0.630   4.639   2.359
 6296TIP3    H218853   0.682   4.554   2.473
 6297TIP3   OH218854   2.789   5.094   3.082
 6297TIP3    H118855   2.751   5.012   3.051
 6297TIP3    H218856   2.743   5.111   3.165
 6298TIP3   OH218857   5.620   4.264   3.780
 6298TIP3    H118858   5.525   4.256   3.792
 6298TIP3    H218859   5.635   4.358   3.769
 6299TIP3   OH218860   3.531   5.788   5.565
 6299TIP3    H118861   3.596   5.722   5.543
 6299TIP3    H218862   3.552   5.815   5.654
 6300TIP3   OH218863   2.335   1.220   2.355
 6300TIP3    H118864   2.319   1.290   2.292
 6300TIP3    H218865   2.262   1.226   2.417
 6301TIP3   OH218866   5.466   4.732   3.440
 6301TIP3    H118867   5.540   4.749   3.500
 6301TIP3    H218868   5.497   4.763   3.355
 6302TIP3   OH218869   6.541   3.495   5.121
 6302TIP3    H118870   6.492   3.571   5.153
 6302TIP3    H218871   6.496   3.469   5.041
 6303TIP3   OH218872   4.206   0.256   0.726
 6303TIP3    H118873   4.301   0.271   0.724
 6303TIP3    H218874   4.195   0.180   0.783
 6304TIP3   OH218875   1.212   1.052   4.419
 6304TIP3    H118876   1.264   0.980   4.456
 6304TIP3    H218877   1.138   1.061   4.479
 6305TIP3   OH218878   6.007   5.335   4.582
 6305TIP3    H118879   5.920   5.311   4.615
 6305TIP3    H218880   6.052   5.251   4.568
 6306TIP3   OH218881   6.707   1.052   5.259
 6306TIP3    H118882   6.747   1.078   5.176
 6306TIP3    H218883   6.752   1.104   5.325
 6307TIP3   OH218884   6.646   4.238   1.775
 6307TIP3    H118885   6.691   4.321   1.760
 6307TIP3    H218886   6.556   4.263   1.795
 6308TIP3   OH218887   2.575   1.973   1.062
 6308TIP3    H118888   2.567   2.059   1.020
 6308TIP3    H218889   2.538   1.913   0.998
 6309TIP3   OH218890   4.142   1.887   4.705
 6309TIP3    H118891   4.100   1.803   4.727
 6309TIP3    H218892   4.187   1.870   4.623
 6310TIP3   OH218893   5.278   5.508   3.664
 6310TIP3    H118894   5.282   5.552   3.748
 6310TIP3    H218895   5.280   5.415   3.686
 6311TIP3   OH218896   5.271   5.954   5.765
 6311TIP3    H118897   5.268   5.871   5.812
 6311TIP3    H218898   5.189   5.997   5.787
 6312TIP3   OH218899   6.291   6.370   3.627
 6312TIP3    H118900   6.297   6.352   3.721
 6312TIP3    H218901   6.203   6.341   3.603
 6313TIP3   OH218902   3.854   1.985   4.421
 6313TIP3    H118903   3.949   1.974   4.420
 6313TIP3    H218904   3.836   2.032   4.503
 6314TIP3   OH218905   0.125   1.238   5.646
 6314TIP3    H118906   0.109   1.293   5.722
 6314TIP3    H218907   0.219   1.218   5.650
 6315TIP3   OH218908   4.924   1.006   5.317
 6315TIP3    H118909   5.019   1.007   5.330
 6315TIP3    H218910   4.905   1.086   5.268
 6316TIP3   OH218911   4.523   3.010   2.991
 6316TIP3    H118912   4.546   2.934   2.937
 6316TIP3    H218913   4.560   2.991   3.077
 6317TIP3   OH218914   2.578   0.323   1.278
 6317TIP3    H118915   2.652   0.299   1.222
 6317TIP3    H218916   2.598   0.412   1.308
 6318TIP3   OH218917   2.872   4.291   1.642
 6318TIP3    H118918   2.815   4.352   1.689
 6318TIP3    H218919   2.943   4.347   1.608
 6319TIP3   OH218920   2.132   0.483   3.564
 6319TIP3    H118921   2.217   0.500   3.525
 6319TIP3    H218922   2.126   0.545   3.637
 6320TIP3   OH218923   5.082   6.128   2.633
 6320TIP3    H118924   5.048   6.153   2.547
 6320TIP3    H218925   5.125   6.044   2.618
 6321TIP3   OH218926   2.062   6.478   0.376
 6321TIP3    H118927   2.081   6.413   0.444
 6321TIP3    H218928   2.148   6.505   0.343
 6322TIP3   OH218929   3.446   3.988   3.882
 6322TIP3    H118930   3.381   3.935   3.930
 6322TIP3    H218931   3.419   3.979   3.790
 6323TIP3   OH218932   6.492   5.480   5.159
 6323TIP3    H118933   6.507   5.530   5.240
 6323TIP3    H218934   6.515   5.540   5.089
 6324TIP3   OH218935   2.380   1.735   2.259
 6324TIP3    H118936   2.329   1.780   2.327
 6324TIP3    H218937   2.471   1.745   2.287
 6325TIP3   OH218938   6.935   0.462   1.634
 6325TIP3    H118939   6.852   0.414   1.628
 6325TIP3    H218940   6.983   0.419   1.705
 6326TIP3   OH218941   2.881   3.382   0.651
 6326TIP3    H118942   2.938   3.328   0.596
 6326TIP3    H218943   2.918   3.373   0.739
 6327TIP3   OH218944   3.271   1.656   0.297
 6327TIP3    H118945   3.361   1.687   0.302
 6327TIP3    H218946   3.248   1.661   0.204
 6328TIP3   OH218947   0.932   6.191   5.187
 6328TIP3    H118948   0.996   6.213   5.255
 6328TIP3    H218949   0.851   6.174   5.235
 6329TIP3   OH218950   6.254   6.436   2.232
 6329TIP3    H118951   6.317   6.507   2.221
 6329TIP3    H218952   6.295   6.361   2.190
 6330TIP3   OH218953   6.381   5.950   3.946
 6330TIP3    H118954   6.327   5.878   3.912
 6330TIP3    H218955   6.386   5.933   4.040
 6331TIP3   OH218956   4.241   5.835   4.623
 6331TIP3    H118957   4.231   5.837   4.528
 6331TIP3    H218958   4.275   5.921   4.646
 6332TIP3   OH218959   5.416   0.047   3.146
 6332TIP3    H118960   5.417  -0.045   3.121
 6332TIP3    H218961   5.358   0.089   3.082
 6333TIP3   OH218962   6.288   6.673   4.789
 6333TIP3    H118963   6.325   6.590   4.820
 6333TIP3    H218964   6.299   6.733   4.863
 6334TIP3   OH218965   6.720   2.186   2.714
 6334TIP3    H118966   6.790   2.239   2.752
 6334TIP3    H218967   6.762   2.103   2.693
 6335TIP3   OH218968   2.711   2.689   5.513
 6335TIP3    H118969   2.645   2.750   5.544
 6335TIP3    H218970   2.784   2.698   5.574
 6336TIP3   OH218971   0.908   1.049   3.817
 6336TIP3    H118972   0.853   0.975   3.843
 6336TIP3    H218973   0.972   1.011   3.757
 6337TIP3   OH218974   3.132   3.634   0.942
 6337TIP3    H118975   3.148   3.720   0.903
 6337TIP3    H218976   3.105   3.579   0.869
 6338TIP3   OH218977   5.908   1.067   3.919
 6338TIP3    H118978   5.953   1.062   3.835
 6338TIP3    H218979   5.826   1.021   3.905
 6339TIP3   OH218980   4.484   5.365   4.408
 6339TIP3    H118981   4.404   5.410   4.380
 6339TIP3    H218982   4.523   5.424   4.473
 6340TIP3   OH218983   3.728   3.259   1.449
 6340TIP3    H118984   3.822   3.272   1.454
 6340TIP3    H218985   3.691   3.333   1.497
 6341TIP3   OH218986   0.348   4.985   2.039
 6341TIP3    H118987   0.275   5.045   2.053
 6341TIP3    H218988   0.424   5.042   2.028
 6342TIP3   OH218989   5.386   3.245   4.882
 6342TIP3    H118990   5.412   3.335   4.904
 6342TIP3    H218991   5.455   3.191   4.920
 6343TIP3   OH218992   3.323   0.131   0.021
 6343TIP3    H118993   3.275   0.094   0.096
 6343TIP3    H218994   3.264   0.198  -0.014
 6344TIP3   OH218995   5.923   3.622   3.793
 6344TIP3    H118996   5.974   3.616   3.873
 6344TIP3    H218997   5.987   3.616   3.722
 6345TIP3   OH218998   3.377   2.150   4.157
 6345TIP3    H118999   3.327   2.070   4.140
 6345TIP3    H219000   3.373   2.161   4.252
 6346TIP3   OH219001   1.292   4.501   3.054
 6346TIP3    H119002   1.276   4.421   3.104
 6346TIP3    H219003   1.339   4.558   3.115
 6347TIP3   OH219004   0.393   0.584   3.664
 6347TIP3    H119005   0.404   0.568   3.758
 6347TIP3    H219006   0.310   0.632   3.658
 6348TIP3   OH219007   2.746   3.119   0.651
 6348TIP3    H119008   2.823   3.162   0.613
 6348TIP3    H219009   2.728   3.167   0.732
 6349TIP3   OH219010   2.599   6.256   5.656
 6349TIP3    H119011   2.587   6.261   5.751
 6349TIP3    H219012   2.591   6.163   5.636
 6350TIP3   OH219013   5.385   0.739   2.671
 6350TIP3    H119014   5.443   0.814   2.682
 6350TIP3    H219015   5.444   0.664   2.661
 6351TIP3   OH219016   0.978   5.435   1.849
 6351TIP3    H119017   0.931   5.468   1.925
 6351TIP3    H219018   1.067   5.468   1.859
 6352TIP3   OH219019   4.564   0.879   0.109
 6352TIP3    H119020   4.578   0.949   0.046
 6352TIP3    H219021   4.497   0.913   0.169
 6353TIP3   OH219022   1.239   2.662   3.453
 6353TIP3    H119023   1.168   2.598   3.452
 6353TIP3    H219024   1.307   2.623   3.398
 6354TIP3   OH219025   1.465   5.673   5.208
 6354TIP3    H119026   1.403   5.670   5.281
 6354TIP3    H219027   1.533   5.734   5.237
 6355TIP3   OH219028   5.722   1.149   5.548
 6355TIP3    H119029   5.739   1.228   5.599
 6355TIP3    H219030   5.808   1.110   5.534
 6356TIP3   OH219031   5.382   1.087   4.841
 6356TIP3    H119032   5.389   1.091   4.746
 6356TIP3    H219033   5.417   1.171   4.872
 6357TIP3   OH219034   4.108   1.934   4.028
 6357TIP3    H119035   4.017   1.932   4.059
 6357TIP3    H219036   4.106   1.993   3.952
 6358TIP3   OH219037   4.740   4.464   4.016
 6358TIP3    H119038   4.776   4.378   4.039
 6358TIP3    H219039   4.666   4.476   4.075
 6359TIP3   OH219040   5.132   0.712   2.554
 6359TIP3    H119041   5.212   0.734   2.601
 6359TIP3    H219042   5.150   0.627   2.514
 6360TIP3   OH219043   7.203   2.147   4.519
 6360TIP3    H119044   7.185   2.053   4.515
 6360TIP3    H219045   7.294   2.155   4.491
 6361TIP3   OH219046   3.964   3.005   4.044
 6361TIP3    H119047   3.950   3.010   3.950
 6361TIP3    H219048   4.053   3.039   4.057
 6362TIP3   OH219049   3.254   4.801   4.542
 6362TIP3    H119050   3.262   4.830   4.632
 6362TIP3    H219051   3.201   4.868   4.499
 6363TIP3   OH219052   3.448   1.600   2.695
 6363TIP3    H119053   3.410   1.558   2.771
 6363TIP3    H219054   3.497   1.531   2.650
 6364TIP3   OH219055   2.495   2.670   3.002
 6364TIP3    H119056   2.543   2.725   2.939
 6364TIP3    H219057   2.433   2.730   3.043
 6365TIP3   OH219058   6.570   3.414   4.220
 6365TIP3    H119059   6.496   3.377   4.172
 6365TIP3    H219060   6.617   3.467   4.155
 6366TIP3   OH219061   0.685   4.570   4.051
 6366TIP3    H119062   0.663   4.483   4.018
 6366TIP3    H219063   0.778   4.581   4.030
 6367TIP3   OH219064   6.210   0.554   4.943
 6367TIP3    H119065   6.171   0.631   4.902
 6367TIP3    H219066   6.136   0.501   4.971
 6368TIP3   OH219067   6.218   1.112   3.348
 6368TIP3    H119068   6.222   1.157   3.432
 6368TIP3    H219069   6.206   1.020   3.372
 6369TIP3   OH219070   7.077   0.113   2.493
 6369TIP3    H119071   7.071   0.207   2.477
 6369TIP3    H219072   7.126   0.106   2.575
 6370TIP3   OH219073   2.922   0.552   2.902
 6370TIP3    H119074   2.845   0.536   2.957
 6370TIP3    H219075   2.886   0.589   2.821
 6371TIP3   OH219076   6.606   3.838   4.488
 6371TIP3    H119077   6.548   3.762   4.494
 6371TIP3    H219078   6.628   3.844   4.395
 6372TIP3   OH219079   6.653   3.213   4.456
 6372TIP3    H119080   6.596   3.136   4.452
 6372TIP3    H219081   6.740   3.181   4.431
 6373TIP3   OH219082   4.897   3.907   1.517
 6373TIP3    H119083   4.917   3.836   1.578
 6373TIP3    H219084   4.877   3.982   1.572
 6374TIP3   OH219085   3.140   0.346   1.420
 6374TIP3    H119086   3.169   0.432   1.449
 6374TIP3    H219087   3.221   0.297   1.407
 6375TIP3   OH219088   3.793   5.615   1.708
 6375TIP3    H119089   3.888   5.614   1.719
 6375TIP3    H219090   3.779   5.661   1.625
 6376TIP3   OH219091   1.936   5.751   3.312
 6376TIP3    H119092   1.923   5.834   3.358
 6376TIP3    H219093   1.916   5.683   3.377
 6377TIP3   OH219094   0.392   6.119   4.475
 6377TIP3    H119095   0.413   6.026   4.484
 6377TIP3    H219096   0.380   6.131   4.380
 6378TIP3   OH219097   2.944   6.610   4.719
 6378TIP3    H119098   2.992   6.585   4.640
 6378TIP3    H219099   2.971   6.547   4.785
 6379TIP3   OH219100   4.141   1.250   2.731
 6379TIP3    H119101   4.145   1.345   2.744
 6379TIP3    H219102   4.230   1.226   2.704
 6380TIP3   OH219103   5.774   4.230   0.576
 6380TIP3    H119104   5.865   4.220   0.604
 6380TIP3    H219105   5.769   4.186   0.492
 6381TIP3   OH219106   3.361   5.457   3.002
 6381TIP3    H119107   3.352   5.529   2.940
 6381TIP3    H219108   3.382   5.381   2.948
 6382TIP3   OH219109   7.154   5.725   3.838
 6382TIP3    H119110   7.064   5.699   3.855
 6382TIP3    H219111   7.150   5.780   3.760
 6383TIP3   OH219112   5.892   6.446   0.822
 6383TIP3    H119113   5.855   6.422   0.737
 6383TIP3    H219114   5.852   6.384   0.884
 6384TIP3   OH219115   3.518   2.662   4.675
 6384TIP3    H119116   3.512   2.746   4.721
 6384TIP3    H219117   3.589   2.674   4.612
 6385TIP3   OH219118   3.353   6.372   5.419
 6385TIP3    H119119   3.313   6.375   5.506
 6385TIP3    H219120   3.316   6.447   5.373
 6386TIP3   OH219121   6.937   2.081   0.662
 6386TIP3    H119122   6.996   2.015   0.698
 6386TIP3    H219123   6.886   2.034   0.596
 6387TIP3   OH219124   5.994   3.549   5.012
 6387TIP3    H119125   5.997   3.620   5.076
 6387TIP3    H219126   5.950   3.587   4.936
 6388TIP3   OH219127   5.328   0.142   4.257
 6388TIP3    H119128   5.377   0.126   4.338
 6388TIP3    H219129   5.303   0.054   4.227
 6389TIP3   OH219130   3.332   5.572   3.766
 6389TIP3    H119131   3.349   5.490   3.719
 6389TIP3    H219132   3.357   5.554   3.856
 6390TIP3   OH219133   6.209   2.319   2.346
 6390TIP3    H119134   6.137   2.326   2.284
 6390TIP3    H219135   6.269   2.389   2.321
 6391TIP3   OH219136   5.842   0.150   3.732
 6391TIP3    H119137   5.760   0.200   3.739
 6391TIP3    H219138   5.849   0.130   3.639
 6392TIP3   OH219139   0.860   5.602   4.308
 6392TIP3    H119140   0.873   5.693   4.334
 6392TIP3    H219141   0.776   5.603   4.263
 6393TIP3   OH219142   5.842   5.485   1.225
 6393TIP3    H119143   5.887   5.452   1.302
 6393TIP3    H219144   5.792   5.561   1.257
 6394TIP3   OH219145   4.433   4.017   4.862
 6394TIP3    H119146   4.386   4.080   4.916
 6394TIP3    H219147   4.381   4.010   4.782
 6395TIP3   OH219148   2.129   5.679   2.679
 6395TIP3    H119149   2.053   5.634   2.643
 6395TIP3    H219150   2.167   5.728   2.606
 6396TIP3   OH219151   1.298   2.392   2.026
 6396TIP3    H119152   1.336   2.461   2.080
 6396TIP3    H219153   1.218   2.367   2.072
 6397TIP3   OH219154   3.054   2.594   4.934
 6397TIP3    H119155   3.002   2.644   4.870
 6397TIP3    H219156   3.092   2.660   4.991
 6398TIP3   OH219157   6.513   1.908   1.443
 6398TIP3    H119158   6.579   1.972   1.470
 6398TIP3    H219159   6.562   1.826   1.433
 6399TIP3   OH219160   5.912   0.423   1.889
 6399TIP3    H119161   5.983   0.359   1.884
 6399TIP3    H219162   5.837   0.380   1.850
 6400TIP3   OH219163   0.284   4.650   5.334
 6400TIP3    H119164   0.318   4.577   5.386
 6400TIP3    H219165   0.189   4.643   5.342
 6401TIP3   OH219166   5.548   4.040   3.131
 6401TIP3    H119167   5.476   3.985   3.164
 6401TIP3    H219168   5.560   4.012   3.041
 6402TIP3   OH219169   5.489   4.941   4.295
 6402TIP3    H119170   5.528   4.959   4.210
 6402TIP3    H219171   5.403   4.904   4.275
 6403TIP3   OH219172   0.758   4.939   4.234
 6403TIP3    H119173   0.764   4.971   4.324
 6403TIP3    H219174   0.744   5.018   4.181
 6404TIP3   OH219175   4.183   3.773   5.239
 6404TIP3    H119176   4.116   3.774   5.307
 6404TIP3    H219177   4.209   3.864   5.228
 6405TIP3   OH219178   1.287   5.663   5.391
 6405TIP3    H119179   1.234   5.693   5.464
 6405TIP3    H219180   1.303   5.571   5.409
 6406TIP3   OH219181   0.402   2.226   3.163
 6406TIP3    H119182   0.400   2.233   3.259
 6406TIP3    H219183   0.316   2.191   3.140
 6407TIP3   OH219184   3.343   5.776   3.029
 6407TIP3    H119185   3.315   5.866   3.047
 6407TIP3    H219186   3.348   5.772   2.933
 6408TIP3   OH219187   1.489   5.565   3.565
 6408TIP3    H119188   1.549   5.495   3.539
 6408TIP3    H219189   1.510   5.581   3.658
 6409TIP3   OH219190   6.973   3.729   5.793
 6409TIP3    H119191   6.988   3.822   5.812
 6409TIP3    H219192   6.897   3.706   5.846
 6410TIP3   OH219193   2.855   1.739   4.974
 6410TIP3    H119194   2.933   1.687   4.953
 6410TIP3    H219195   2.884   1.830   4.966
 6411TIP3   OH219196   6.584   5.079   0.726
 6411TIP3    H119197   6.673   5.072   0.760
 6411TIP3    H219198   6.540   5.000   0.758
 6412TIP3   OH219199   5.861   1.339   2.726
 6412TIP3    H119200   5.805   1.298   2.792
 6412TIP3    H219201   5.836   1.431   2.727
 6413TIP3   OH219202   1.746   0.173   2.292
 6413TIP3    H119203   1.690   0.251   2.293
 6413TIP3    H219204   1.690   0.102   2.324
 6414TIP3   OH219205   4.062   2.774   2.685
 6414TIP3    H119206   4.026   2.774   2.596
 6414TIP3    H219207   4.000   2.825   2.737
 6415TIP3   OH219208   6.331   2.676   2.651
 6415TIP3    H119209   6.254   2.669   2.595
 6415TIP3    H219210   6.304   2.636   2.734
 6416TIP3   OH219211   5.498   4.841   3.170
 6416TIP3    H119212   5.444   4.830   3.092
 6416TIP3    H219213   5.539   4.927   3.159
 6417TIP3   OH219214   3.783   0.402   5.111
 6417TIP3    H119215   3.830   0.486   5.105
 6417TIP3    H219216   3.781   0.383   5.205
 6418TIP3   OH219217   2.125   2.303   0.766
 6418TIP3    H119218   2.134   2.345   0.680
 6418TIP3    H219219   2.195   2.341   0.819
 6419TIP3   OH219220   6.326   1.253   1.673
 6419TIP3    H119221   6.276   1.196   1.731
 6419TIP3    H219222   6.353   1.326   1.728
 6420TIP3   OH219223   2.808   6.537   5.642
 6420TIP3    H119224   2.778   6.480   5.571
 6420TIP3    H219225   2.881   6.490   5.681
 6421TIP3   OH219226   4.804   3.976   2.412
 6421TIP3    H119227   4.844   4.062   2.394
 6421TIP3    H219228   4.844   3.917   2.348
 6422TIP3   OH219229   6.323   1.592   1.009
 6422TIP3    H119230   6.342   1.684   1.030
 6422TIP3    H219231   6.406   1.547   1.026
 6423TIP3   OH219232   6.282   3.128   0.866
 6423TIP3    H119233   6.334   3.049   0.878
 6423TIP3    H219234   6.223   3.129   0.941
 6424TIP3   OH219235   0.628   1.119   0.370
 6424TIP3    H119236   0.564   1.176   0.412
 6424TIP3    H219237   0.683   1.177   0.318
 6425TIP3   OH219238   3.070   0.269   1.920
 6425TIP3    H119239   3.056   0.177   1.940
 6425TIP3    H219240   3.030   0.282   1.834
 6426TIP3   OH219241   3.990   3.414   0.709
 6426TIP3    H119242   3.944   3.339   0.672
 6426TIP3    H219243   4.054   3.438   0.641
 6427TIP3   OH219244   6.342   6.311   5.606
 6427TIP3    H119245   6.421   6.343   5.649
 6427TIP3    H219246   6.371   6.232   5.560
 6428TIP3   OH219247   6.025   2.534   0.092
 6428TIP3    H119248   6.024   2.474   0.017
 6428TIP3    H219249   6.015   2.621   0.054
 6429TIP3   OH219250   5.943   5.227   1.877
 6429TIP3    H119251   5.939   5.291   1.948
 6429TIP3    H219252   5.872   5.254   1.818
 6430TIP3   OH219253   6.207   5.371   3.926
 6430TIP3    H119254   6.150   5.296   3.944
 6430TIP3    H219255   6.151   5.434   3.880
 6431TIP3   OH219256   5.584   6.641   4.270
 6431TIP3    H119257   5.503   6.656   4.320
 6431TIP3    H219258   5.557   6.584   4.198
 6432TIP3   OH219259   3.730   2.739   0.954
 6432TIP3    H119260   3.700   2.684   0.882
 6432TIP3    H219261   3.826   2.741   0.944
 6433TIP3   OH219262   2.792   6.195   1.442
 6433TIP3    H119263   2.764   6.212   1.352
 6433TIP3    H219264   2.711   6.199   1.493
 6434TIP3   OH219265   6.310   3.722   1.473
 6434TIP3    H119266   6.361   3.650   1.512
 6434TIP3    H219267   6.245   3.743   1.539
 6435TIP3   OH219268   4.005   3.399   0.210
 6435TIP3    H119269   3.958   3.328   0.166
 6435TIP3    H219270   4.083   3.412   0.157
 6436TIP3   OH219271   3.872   4.885   2.007
 6436TIP3    H119272   3.777   4.895   2.018
 6436TIP3    H219273   3.899   4.836   2.085
 6437TIP3   OH219274   4.909   1.764   4.835
 6437TIP3    H119275   4.894   1.742   4.743
 6437TIP3    H219276   4.902   1.681   4.881
 6438TIP3   OH219277   2.537   1.186   4.694
 6438TIP3    H119278   2.589   1.265   4.707
 6438TIP3    H219279   2.473   1.188   4.765
 6439TIP3   OH219280   2.503   6.692   0.914
 6439TIP3    H119281   2.563   6.670   0.843
 6439TIP3    H219282   2.550   6.756   0.967
 6440TIP3   OH219283   7.009   2.780   3.421
 6440TIP3    H119284   6.998   2.872   3.447
 6440TIP3    H219285   7.018   2.783   3.326
 6441TIP3   OH219286   3.586   2.344   3.210
 6441TIP3    H119287   3.661   2.301   3.251
 6441TIP3    H219288   3.547   2.277   3.154
 6442TIP3   OH219289   3.599   4.454   2.476
 6442TIP3    H119290   3.645   4.375   2.448
 6442TIP3    H219291   3.587   4.443   2.570
 6443TIP3   OH219292   6.574   6.489   3.172
 6443TIP3    H119293   6.514   6.493   3.246
 6443TIP3    H219294   6.660   6.505   3.211
 6444TIP3   OH219295   5.968   6.481   2.702
 6444TIP3    H119296   6.038   6.546   2.710
 6444TIP3    H219297   5.927   6.500   2.618
 6445TIP3   OH219298   0.329   4.895   2.820
 6445TIP3    H119299   0.271   4.886   2.744
 6445TIP3    H219300   0.416   4.907   2.782
 6446TIP3   OH219301   5.103   5.837   1.397
 6446TIP3    H119302   5.104   5.851   1.302
 6446TIP3    H219303   5.107   5.924   1.434
 6447TIP3   OH219304   1.054   0.691   3.609
 6447TIP3    H119305   1.115   0.636   3.659
 6447TIP3    H219306   1.108   0.764   3.579
 6448TIP3   OH219307   0.039   2.890   5.850
 6448TIP3    H119308   0.133   2.886   5.835
 6448TIP3    H219309   0.024   2.838   5.929
 6449TIP3   OH219310   0.124   5.810   1.838
 6449TIP3    H119311   0.181   5.739   1.810
 6449TIP3    H219312   0.183   5.881   1.863
 6450TIP3   OH219313   2.301   5.246   2.995
 6450TIP3    H119314   2.329   5.314   3.056
 6450TIP3    H219315   2.241   5.291   2.936
 6451TIP3   OH219316   3.403   5.155   0.489
 6451TIP3    H119317   3.324   5.208   0.495
 6451TIP3    H219318   3.451   5.174   0.570
 6452TIP3   OH219319   0.061   6.278   1.894
 6452TIP3    H119320   0.014   6.344   1.843
 6452TIP3    H219321  -0.004   6.245   1.956
 6453TIP3   OH219322   6.877   5.997   0.069
 6453TIP3    H119323   6.863   6.047  -0.010
 6453TIP3    H219324   6.969   6.012   0.091
 6454TIP3   OH219325   6.782   5.066   0.900
 6454TIP3    H119326   6.871   5.094   0.925
 6454TIP3    H219327   6.724   5.125   0.947
 6455TIP3   OH219328   2.674   3.971   0.492
 6455TIP3    H119329   2.580   3.969   0.513
 6455TIP3    H219330   2.701   4.061   0.512
 6456TIP3   OH219331   0.000   3.900   2.891
 6456TIP3    H119332   0.081   3.903   2.839
 6456TIP3    H219333   0.030   3.880   2.980
 6457TIP3   OH219334   2.671   2.710   1.385
 6457TIP3    H119335   2.739   2.736   1.322
 6457TIP3    H219336   2.604   2.668   1.331
 6458TIP3   OH219337   6.027   3.957   0.069
 6458TIP3    H119338   5.988   3.981  -0.015
 6458TIP3    H219339   6.018   4.037   0.123
 6459TIP3   OH219340   6.107   3.332   3.523
 6459TIP3    H119341   6.028   3.282   3.504
 6459TIP3    H219342   6.179   3.272   3.504
 6460TIP3   OH219343   4.277   1.269   5.430
 6460TIP3    H119344   4.223   1.249   5.354
 6460TIP3    H219345   4.217   1.313   5.490
 6461TIP3   OH219346   6.511   0.802   2.876
 6461TIP3    H119347   6.565   0.851   2.814
 6461TIP3    H219348   6.465   0.870   2.926
 6462TIP3   OH219349   0.512   4.038   0.109
 6462TIP3    H119350   0.512   4.088   0.027
 6462TIP3    H219351   0.430   4.063   0.152
 6463TIP3   OH219352   6.831   0.517   2.118
 6463TIP3    H119353   6.848   0.588   2.056
 6463TIP3    H219354   6.738   0.527   2.140
 6464TIP3   OH219355   3.914   1.468   1.073
 6464TIP3    H119356   3.914   1.519   0.991
 6464TIP3    H219357   3.827   1.482   1.110
 6465TIP3   OH219358   0.308   5.598   2.710
 6465TIP3    H119359   0.288   5.630   2.798
 6465TIP3    H219360   0.340   5.675   2.663
 6466TIP3   OH219361   4.763   6.655   0.383
 6466TIP3    H119362   4.750   6.648   0.477
 6466TIP3    H219363   4.850   6.618   0.368
 6467TIP3   OH219364   2.944   4.789   4.365
 6467TIP3    H119365   2.933   4.792   4.270
 6467TIP3    H219366   3.000   4.864   4.385
 6468TIP3   OH219367   1.165   0.770   0.467
 6468TIP3    H119368   1.078   0.783   0.503
 6468TIP3    H219369   1.223   0.772   0.543
 6469TIP3   OH219370   6.956   2.987   1.548
 6469TIP3    H119371   6.971   2.893   1.560
 6469TIP3    H219372   7.019   3.029   1.607
 6470TIP3   OH219373   0.852   1.989   3.901
 6470TIP3    H119374   0.825   2.068   3.948
 6470TIP3    H219375   0.855   1.920   3.968
 6471TIP3   OH219376   3.168   0.661   0.728
 6471TIP3    H119377   3.156   0.570   0.700
 6471TIP3    H219378   3.261   0.668   0.749
 6472TIP3   OH219379   5.908   6.647   4.788
 6472TIP3    H119380   5.945   6.559   4.798
 6472TIP3    H219381   5.972   6.694   4.735
 6473TIP3   OH219382   5.724   4.724   3.594
 6473TIP3    H119383   5.797   4.756   3.646
 6473TIP3    H219384   5.762   4.654   3.541
 6474TIP3   OH219385   4.164   3.381   0.429
 6474TIP3    H119386   4.087   3.397   0.374
 6474TIP3    H219387   4.199   3.297   0.399
 6475TIP3   OH219388   3.147   4.401   3.149
 6475TIP3    H119389   3.059   4.385   3.183
 6475TIP3    H219390   3.136   4.467   3.082
 6476TIP3   OH219391   4.709   4.645   0.514
 6476TIP3    H119392   4.686   4.704   0.586
 6476TIP3    H219393   4.721   4.702   0.438
 6477TIP3   OH219394   7.153   2.688   1.030
 6477TIP3    H119395   7.243   2.675   1.060
 6477TIP3    H219396   7.159   2.687   0.934
 6478TIP3   OH219397   6.956   3.291   5.164
 6478TIP3    H119398   6.972   3.236   5.241
 6478TIP3    H219399   7.041   3.329   5.143
 6479TIP3   OH219400   1.944   2.827   5.481
 6479TIP3    H119401   1.955   2.908   5.530
 6479TIP3    H219402   1.981   2.760   5.538
 6480TIP3   OH219403   1.336   4.007   3.950
 6480TIP3    H119404   1.336   3.924   3.998
 6480TIP3    H219405   1.357   3.982   3.860
 6481TIP3   OH219406   3.238   0.388   0.637
 6481TIP3    H119407   3.285   0.405   0.555
 6481TIP3    H219408   3.307   0.388   0.704
 6482TIP3   OH219409   6.790   1.553   5.829
 6482TIP3    H119410   6.704   1.588   5.854
 6482TIP3    H219411   6.814   1.495   5.901
 6483TIP3   OH219412   5.749   6.649   3.583
 6483TIP3    H119413   5.711   6.568   3.617
 6483TIP3    H219414   5.732   6.715   3.651
 6484TIP3   OH219415   2.736   6.751   3.999
 6484TIP3    H119416   2.645   6.755   4.027
 6484TIP3    H219417   2.731   6.751   3.903
 6485TIP3   OH219418   3.696   6.338   2.011
 6485TIP3    H119419   3.780   6.329   1.967
 6485TIP3    H219420   3.646   6.397   1.955
 6486TIP3   OH219421   7.078   3.511   4.892
 6486TIP3    H119422   7.143   3.578   4.869
 6486TIP3    H219423   7.130   3.432   4.908
 6487TIP3   OH219424   2.353   2.589   5.093
 6487TIP3    H119425   2.374   2.496   5.108
 6487TIP3    H219426   2.324   2.592   5.002
 6488TIP3   OH219427   2.070   4.297   4.039
 6488TIP3    H119428   2.012   4.269   3.969
 6488TIP3    H219429   2.148   4.242   4.030
 6489TIP3   OH219430   0.748   1.050   1.768
 6489TIP3    H119431   0.799   1.072   1.690
 6489TIP3    H219432   0.807   1.069   1.841
 6490TIP3   OH219433   4.960   4.873   2.722
 6490TIP3    H119434   4.954   4.795   2.667
 6490TIP3    H219435   4.932   4.843   2.809
 6491TIP3   OH219436   6.093   3.503   1.397
 6491TIP3    H119437   6.051   3.460   1.470
 6491TIP3    H219438   6.069   3.451   1.320
 6492TIP3   OH219439   4.895   3.550   3.589
 6492TIP3    H119440   4.940   3.618   3.539
 6492TIP3    H219441   4.957   3.477   3.591
 6493TIP3   OH219442   5.387   0.140   2.649
 6493TIP3    H119443   5.313   0.162   2.706
 6493TIP3    H219444   5.453   0.105   2.709
 6494TIP3   OH219445   2.784   0.723   4.979
 6494TIP3    H119446   2.812   0.640   5.019
 6494TIP3    H219447   2.789   0.707   4.885
 6495TIP3   OH219448   0.543   0.251   4.982
 6495TIP3    H119449   0.630   0.215   4.993
 6495TIP3    H219450   0.517   0.225   4.893
 6496TIP3   OH219451   3.734   0.311   4.844
 6496TIP3    H119452   3.684   0.378   4.797
 6496TIP3    H219453   3.770   0.356   4.920
 6497TIP3   OH219454   3.900   3.552   3.374
 6497TIP3    H119455   3.860   3.529   3.458
 6497TIP3    H219456   3.830   3.537   3.310
 6498TIP3   OH219457   6.071   2.499   4.647
 6498TIP3    H119458   6.053   2.581   4.601
 6498TIP3    H219459   6.020   2.434   4.600
 6499TIP3   OH219460   1.643   0.511   4.641
 6499TIP3    H119461   1.726   0.545   4.606
 6499TIP3    H219462   1.615   0.446   4.578
 6500TIP3   OH219463   2.447   3.484   0.003
 6500TIP3    H119464   2.385   3.477  -0.070
 6500TIP3    H219465   2.444   3.576   0.028
 6501TIP3   OH219466   2.783   5.367   2.248
 6501TIP3    H119467   2.808   5.365   2.155
 6501TIP3    H219468   2.731   5.447   2.257
 6502TIP3   OH219469   6.060   3.702   4.032
 6502TIP3    H119470   6.015   3.785   4.045
 6502TIP3    H219471   6.153   3.724   4.034
 6503TIP3   OH219472   6.177   2.243   2.614
 6503TIP3    H119473   6.146   2.277   2.529
 6503TIP3    H219474   6.272   2.250   2.609
 6504TIP3   OH219475   6.921   4.553   4.643
 6504TIP3    H119476   6.862   4.489   4.602
 6504TIP3    H219477   6.993   4.501   4.677
 6505TIP3   OH219478   0.010   0.664   0.215
 6505TIP3    H119479   0.047   0.616   0.289
 6505TIP3    H219480  -0.040   0.599   0.166
 6506TIP3   OH219481   0.929   0.587   3.188
 6506TIP3    H119482   0.990   0.542   3.245
 6506TIP3    H219483   0.980   0.611   3.111
 6507TIP3   OH219484   6.787   1.577   3.832
 6507TIP3    H119485   6.844   1.562   3.757
 6507TIP3    H219486   6.698   1.571   3.797
 6508TIP3   OH219487   6.113   5.970   5.873
 6508TIP3    H119488   6.150   5.988   5.959
 6508TIP3    H219489   6.121   6.053   5.826
 6509TIP3   OH219490   7.170   0.894   4.157
 6509TIP3    H119491   7.132   0.982   4.157
 6509TIP3    H219492   7.253   0.904   4.204
 6510TIP3   OH219493   3.555   6.201   1.757
 6510TIP3    H119494   3.488   6.266   1.778
 6510TIP3    H219495   3.514   6.144   1.691
 6511TIP3   OH219496   5.021   5.721   4.099
 6511TIP3    H119497   4.968   5.652   4.139
 6511TIP3    H219498   5.044   5.685   4.013
 6512TIP3   OH219499   5.338   2.128   1.644
 6512TIP3    H119500   5.378   2.063   1.701
 6512TIP3    H219501   5.298   2.191   1.704
 6513TIP3   OH219502   1.287   5.933   0.674
 6513TIP3    H119503   1.203   5.914   0.717
 6513TIP3    H219504   1.301   5.858   0.617
 6514TIP3   OH219505   6.672   6.014   5.350
 6514TIP3    H119506   6.750   6.050   5.391
 6514TIP3    H219507   6.704   5.938   5.300
 6515TIP3   OH219508   0.334   6.344   2.899
 6515TIP3    H119509   0.300   6.329   2.810
 6515TIP3    H219510   0.421   6.304   2.898
 6516TIP3   OH219511   4.278   4.674   4.932
 6516TIP3    H119512   4.234   4.758   4.917
 6516TIP3    H219513   4.346   4.694   4.995
 6517TIP3   OH219514   5.997   5.107   1.569
 6517TIP3    H119515   5.989   5.104   1.664
 6517TIP3    H219516   6.091   5.116   1.553
 6518TIP3   OH219517   0.280   2.695   0.868
 6518TIP3    H119518   0.257   2.603   0.858
 6518TIP3    H219519   0.302   2.725   0.780
 6519TIP3   OH219520   3.556   0.747   1.917
 6519TIP3    H119521   3.524   0.748   1.826
 6519TIP3    H219522   3.641   0.789   1.912
 6520TIP3   OH219523   5.239   6.245   4.195
 6520TIP3    H119524   5.143   6.252   4.195
 6520TIP3    H219525   5.262   6.235   4.287
 6521TIP3   OH219526   5.619   1.549   2.481
 6521TIP3    H119527   5.623   1.624   2.422
 6521TIP3    H219528   5.689   1.565   2.544
 6522TIP3   OH219529   6.926   4.528   5.029
 6522TIP3    H119530   6.942   4.484   5.112
 6522TIP3    H219531   6.927   4.457   4.964
 6523TIP3   OH219532   7.005   3.357   4.014
 6523TIP3    H119533   7.070   3.426   3.996
 6523TIP3    H219534   7.009   3.345   4.109
 6524TIP3   OH219535   7.118   0.665   2.922
 6524TIP3    H119536   7.177   0.604   2.965
 6524TIP3    H219537   7.121   0.744   2.975
 6525TIP3   OH219538   5.563   1.191   1.884
 6525TIP3    H119539   5.565   1.286   1.895
 6525TIP3    H219540   5.569   1.156   1.973
 6526TIP3   OH219541   3.746   5.118   0.706
 6526TIP3    H119542   3.765   5.060   0.632
 6526TIP3    H219543   3.729   5.060   0.779
 6527TIP3   OH219544   5.232   3.988   5.166
 6527TIP3    H119545   5.190   3.992   5.079
 6527TIP3    H219546   5.159   3.976   5.227
 6528TIP3   OH219547   2.505   3.647   4.388
 6528TIP3    H119548   2.440   3.685   4.447
 6528TIP3    H219549   2.459   3.635   4.305
 6529TIP3   OH219550   0.378   3.237   3.253
 6529TIP3    H119551   0.324   3.311   3.281
 6529TIP3    H219552   0.318   3.181   3.204
 6530TIP3   OH219553   3.006   3.900   4.761
 6530TIP3    H119554   3.045   3.859   4.683
 6530TIP3    H219555   3.042   3.850   4.834
 6531TIP3   OH219556   6.867   5.488   2.616
 6531TIP3    H119557   6.771   5.494   2.612
 6531TIP3    H219558   6.897   5.556   2.555
 6532TIP3   OH219559   0.008   4.498   2.124
 6532TIP3    H119560   0.061   4.430   2.167
 6532TIP3    H219561   0.046   4.580   2.155
 6533TIP3   OH219562   1.981   2.781   3.235
 6533TIP3    H119563   1.974   2.864   3.282
 6533TIP3    H219564   1.909   2.728   3.268
 6534TIP3   OH219565   0.352   0.985   2.148
 6534TIP3    H119566   0.446   0.975   2.168
 6534TIP3    H219567   0.350   0.999   2.053
 6535TIP3   OH219568   3.961   0.083   4.034
 6535TIP3    H119569   4.046   0.042   4.021
 6535TIP3    H219570   3.926   0.094   3.945
 6536TIP3   OH219571   2.286   6.630   3.387
 6536TIP3    H119572   2.321   6.612   3.474
 6536TIP3    H219573   2.356   6.603   3.327
 6537TIP3   OH219574   5.126   3.312   2.541
 6537TIP3    H119575   5.203   3.295   2.488
 6537TIP3    H219576   5.061   3.249   2.511
 6538TIP3   OH219577   4.517   5.718   0.146
 6538TIP3    H119578   4.486   5.800   0.185
 6538TIP3    H219579   4.602   5.742   0.107
 6539TIP3   OH219580   5.774   4.770   1.951
 6539TIP3    H119581   5.861   4.735   1.969
 6539TIP3    H219582   5.749   4.814   2.033
 6540TIP3   OH219583   6.061   2.449   1.651
 6540TIP3    H119584   5.985   2.423   1.703
 6540TIP3    H219585   6.114   2.369   1.645
 6541TIP3   OH219586   1.920   2.806   3.605
 6541TIP3    H119587   1.998   2.844   3.564
 6541TIP3    H219588   1.895   2.734   3.547
 6542TIP3   OH219589   0.687   1.119   3.385
 6542TIP3    H119590   0.629   1.085   3.316
 6542TIP3    H219591   0.771   1.075   3.369
 6543TIP3   OH219592   5.453   4.753   0.744
 6543TIP3    H119593   5.443   4.659   0.726
 6543TIP3    H219594   5.531   4.758   0.799
 6544TIP3   OH219595   0.437   3.024   2.969
 6544TIP3    H119596   0.485   3.098   3.006
 6544TIP3    H219597   0.504   2.970   2.929
 6545TIP3   OH219598   6.849   2.138   0.104
 6545TIP3    H119599   6.859   2.081   0.028
 6545TIP3    H219600   6.767   2.110   0.145
 6546TIP3   OH219601   0.112   1.724   5.114
 6546TIP3    H119602   0.031   1.728   5.165
 6546TIP3    H219603   0.182   1.731   5.178
 6547TIP3   OH219604   1.260   6.070   5.533
 6547TIP3    H119605   1.295   6.082   5.444
 6547TIP3    H219606   1.225   6.155   5.557
 6548TIP3   OH219607   4.355   0.148   3.881
 6548TIP3    H119608   4.427   0.189   3.832
 6548TIP3    H219609   4.398   0.107   3.956
 6549TIP3   OH219610   5.533   5.622   0.517
 6549TIP3    H119611   5.541   5.702   0.569
 6549TIP3    H219612   5.517   5.553   0.581
 6550TIP3   OH219613   3.805   2.011   5.397
 6550TIP3    H119614   3.870   2.082   5.394
 6550TIP3    H219615   3.782   1.996   5.306
 6551TIP3   OH219616   6.120   1.833   4.588
 6551TIP3    H119617   6.071   1.847   4.507
 6551TIP3    H219618   6.189   1.899   4.586
 6552TIP3   OH219619   1.277   1.810   2.761
 6552TIP3    H119620   1.355   1.826   2.707
 6552TIP3    H219621   1.284   1.872   2.833
 6553TIP3   OH219622   0.354   3.467   3.838
 6553TIP3    H119623   0.431   3.425   3.875
 6553TIP3    H219624   0.323   3.527   3.907
 6554TIP3   OH219625   1.051   0.166   2.225
 6554TIP3    H119626   1.024   0.226   2.294
 6554TIP3    H219627   1.122   0.211   2.179
 6555TIP3   OH219628   4.786   0.168   2.603
 6555TIP3    H119629   4.854   0.176   2.536
 6555TIP3    H219630   4.751   0.257   2.612
 6556TIP3   OH219631   3.130   2.424   1.395
 6556TIP3    H119632   3.121   2.498   1.455
 6556TIP3    H219633   3.209   2.380   1.422
 6557TIP3   OH219634   1.791   5.114   2.938
 6557TIP3    H119635   1.816   5.083   3.025
 6557TIP3    H219636   1.713   5.167   2.952
 6558TIP3   OH219637   3.304   5.510   5.317
 6558TIP3    H119638   3.352   5.580   5.361
 6558TIP3    H219639   3.300   5.439   5.380
 6559TIP3   OH219640   4.639   4.541   2.414
 6559TIP3    H119641   4.671   4.452   2.427
 6559TIP3    H219642   4.557   4.545   2.465
 6560TIP3   OH219643   7.058   1.743   0.499
 6560TIP3    H119644   7.121   1.815   0.498
 6560TIP3    H219645   7.077   1.697   0.580
 6561TIP3   OH219646   7.210   3.945   0.655
 6561TIP3    H119647   7.163   3.879   0.605
 6561TIP3    H219648   7.297   3.909   0.667
 6562TIP3   OH219649   6.214   0.990   2.624
 6562TIP3    H119650   6.190   1.045   2.550
 6562TIP3    H219651   6.309   1.000   2.633
 6563TIP3   OH219652   2.721   4.670   5.627
 6563TIP3    H119653   2.674   4.682   5.710
 6563TIP3    H219654   2.658   4.626   5.570
 6564TIP3   OH219655   0.067   4.789   3.197
 6564TIP3    H119656   0.060   4.872   3.245
 6564TIP3    H219657   0.093   4.725   3.263
 6565TIP3   OH219658   5.449   0.970   2.045
 6565TIP3    H119659   5.524   0.932   1.999
 6565TIP3    H219660   5.476   0.972   2.137
 6566TIP3   OH219661   2.290   0.244   3.676
 6566TIP3    H119662   2.233   0.301   3.625
 6566TIP3    H219663   2.299   0.289   3.760
 6567TIP3   OH219664   0.221   1.973   0.897
 6567TIP3    H119665   0.153   2.027   0.936
 6567TIP3    H219666   0.260   2.028   0.828
 6568TIP3   OH219667   7.124   5.217   3.938
 6568TIP3    H119668   7.150   5.140   3.987
 6568TIP3    H219669   7.088   5.277   4.004
 6569TIP3   OH219670   6.468   4.941   1.514
 6569TIP3    H119671   6.523   5.018   1.504
 6569TIP3    H219672   6.523   4.869   1.482
 6570TIP3   OH219673   2.782   3.657   4.574
 6570TIP3    H119674   2.770   3.565   4.597
 6570TIP3    H219675   2.781   3.658   4.478
 6571TIP3   OH219676   3.923   2.235   5.365
 6571TIP3    H119677   3.960   2.297   5.303
 6571TIP3    H219678   3.851   2.283   5.407
 6572TIP3   OH219679   3.551   1.813   4.823
 6572TIP3    H119680   3.535   1.732   4.872
 6572TIP3    H219681   3.633   1.796   4.776
 6573TIP3   OH219682   3.499   4.077   2.773
 6573TIP3    H119683   3.539   4.002   2.731
 6573TIP3    H219684   3.409   4.079   2.740
 6574TIP3   OH219685   3.864   2.345   0.430
 6574TIP3    H119686   3.823   2.348   0.516
 6574TIP3    H219687   3.947   2.299   0.444
 6575TIP3   OH219688   4.375   2.750   5.060
 6575TIP3    H119689   4.427   2.684   5.015
 6575TIP3    H219690   4.392   2.735   5.153
 6576TIP3   OH219691   1.986   0.384   1.181
 6576TIP3    H119692   1.993   0.372   1.086
 6576TIP3    H219693   1.921   0.320   1.209
 6577TIP3   OH219694   0.201   6.783   4.488
 6577TIP3    H119695   0.112   6.791   4.521
 6577TIP3    H219696   0.235   6.703   4.528
 6578TIP3   OH219697   4.289   3.935   2.395
 6578TIP3    H119698   4.383   3.952   2.390
 6578TIP3    H219699   4.275   3.908   2.486
 6579TIP3   OH219700   2.528   4.011   1.811
 6579TIP3    H119701   2.463   3.976   1.872
 6579TIP3    H219702   2.522   4.106   1.822
 6580TIP3   OH219703   6.457   3.234   5.373
 6580TIP3    H119704   6.535   3.247   5.318
 6580TIP3    H219705   6.386   3.276   5.324
 6581TIP3   OH219706   5.688   0.506   3.111
 6581TIP3    H119707   5.597   0.512   3.083
 6581TIP3    H219708   5.737   0.482   3.032
 6582TIP3   OH219709   5.817   3.107   5.022
 6582TIP3    H119710   5.908   3.104   4.992
 6582TIP3    H219711   5.784   3.191   4.988
 6583TIP3   OH219712   0.456   1.463   3.847
 6583TIP3    H119713   0.439   1.557   3.851
 6583TIP3    H219714   0.516   1.452   3.774
 6584TIP3   OH219715   2.384   2.199   3.041
 6584TIP3    H119716   2.323   2.272   3.051
 6584TIP3    H219717   2.371   2.168   2.951
 6585TIP3   OH219718   5.501   3.300   3.032
 6585TIP3    H119719   5.542   3.307   2.946
 6585TIP3    H219720   5.490   3.206   3.046
 6586TIP3   OH219721   5.939   3.967   0.467
 6586TIP3    H119722   6.003   3.906   0.431
 6586TIP3    H219723   5.988   4.048   0.480
 6587TIP3   OH219724   1.536   4.004   3.725
 6587TIP3    H119725   1.535   4.081   3.669
 6587TIP3    H219726   1.556   3.931   3.666
 6588TIP3   OH219727   1.269   3.929   4.866
 6588TIP3    H119728   1.257   3.916   4.960
 6588TIP3    H219729   1.286   3.841   4.832
 6589TIP3   OH219730   3.244   0.081   0.295
 6589TIP3    H119731   3.193   0.154   0.329
 6589TIP3    H219732   3.200   0.003   0.328
 6590TIP3   OH219733   1.647   4.668   1.599
 6590TIP3    H119734   1.686   4.751   1.626
 6590TIP3    H219735   1.690   4.603   1.654
 6591TIP3   OH219736   1.215   4.840   4.491
 6591TIP3    H119737   1.243   4.866   4.403
 6591TIP3    H219738   1.283   4.780   4.520
 6592TIP3   OH219739   4.497   0.146   4.379
 6592TIP3    H119740   4.520   0.080   4.444
 6592TIP3    H219741   4.562   0.134   4.309
 6593TIP3   OH219742   2.200   2.575   1.555
 6593TIP3    H119743   2.259   2.541   1.487
 6593TIP3    H219744   2.199   2.506   1.621
 6594TIP3   OH219745   1.291   3.137   0.995
 6594TIP3    H119746   1.323   3.154   0.906
 6594TIP3    H219747   1.315   3.046   1.012
 6595TIP3   OH219748   6.948   2.298   2.848
 6595TIP3    H119749   6.965   2.391   2.866
 6595TIP3    H219750   6.962   2.255   2.933
 6596TIP3   OH219751   5.028   5.095   0.485
 6596TIP3    H119752   5.005   5.008   0.452
 6596TIP3    H219753   5.087   5.131   0.420
 6597TIP3   OH219754   3.890   2.417   0.978
 6597TIP3    H119755   3.948   2.474   1.029
 6597TIP3    H219756   3.949   2.363   0.926
 6598TIP3   OH219757   1.827   2.430   5.472
 6598TIP3    H119758   1.828   2.337   5.497
 6598TIP3    H219759   1.886   2.473   5.533
 6599TIP3   OH219760   2.139   0.198   2.668
 6599TIP3    H119761   2.119   0.216   2.576
 6599TIP3    H219762   2.209   0.132   2.664
 6600TIP3   OH219763   4.413   4.867   2.990
 6600TIP3    H119764   4.504   4.896   2.984
 6600TIP3    H219765   4.385   4.893   3.078
 6601TIP3   OH219766   3.396   4.911   0.795
 6601TIP3    H119767   3.491   4.920   0.786
 6601TIP3    H219768   3.372   4.842   0.732
 6602TIP3   OH219769   3.315   4.512   1.561
 6602TIP3    H119770   3.374   4.515   1.486
 6602TIP3    H219771   3.271   4.597   1.561
 6603TIP3   OH219772   1.207   0.044   1.372
 6603TIP3    H119773   1.269   0.089   1.315
 6603TIP3    H219774   1.179   0.110   1.435
 6604TIP3   OH219775   6.941   3.204   2.748
 6604TIP3    H119776   6.859   3.164   2.777
 6604TIP3    H219777   6.941   3.291   2.788
 6605TIP3   OH219778   6.161   1.149   5.841
 6605TIP3    H119779   6.096   1.092   5.881
 6605TIP3    H219780   6.184   1.107   5.759
 6606TIP3   OH219781   5.859   5.701   4.759
 6606TIP3    H119782   5.894   5.612   4.754
 6606TIP3    H219783   5.765   5.690   4.745
 6607TIP3   OH219784   3.261   0.869   4.672
 6607TIP3    H119785   3.231   0.959   4.657
 6607TIP3    H219786   3.220   0.844   4.755
 6608TIP3   OH219787   5.626   2.207   3.008
 6608TIP3    H119788   5.638   2.232   2.916
 6608TIP3    H219789   5.673   2.274   3.057
 6609TIP3   OH219790   5.944   6.112   5.204
 6609TIP3    H119791   6.026   6.094   5.251
 6609TIP3    H219792   5.889   6.036   5.222
 6610TIP3   OH219793   1.338   3.115   0.739
 6610TIP3    H119794   1.321   3.027   0.705
 6610TIP3    H219795   1.411   3.147   0.687
 6611TIP3   OH219796   1.424   5.319   2.220
 6611TIP3    H119797   1.428   5.232   2.180
 6611TIP3    H219798   1.439   5.380   2.147
 6612TIP3   OH219799   4.864   1.534   2.174
 6612TIP3    H119800   4.840   1.478   2.100
 6612TIP3    H219801   4.878   1.620   2.135
 6613TIP3   OH219802   1.364   4.812   0.015
 6613TIP3    H119803   1.374   4.717   0.007
 6613TIP3    H219804   1.445   4.841   0.057
 6614TIP3   OH219805   4.884   0.760   4.144
 6614TIP3    H119806   4.911   0.840   4.100
 6614TIP3    H219807   4.963   0.726   4.185
 6615TIP3   OH219808   2.896   2.077   5.880
 6615TIP3    H119809   2.814   2.101   5.839
 6615TIP3    H219810   2.892   1.982   5.888
 6616TIP3   OH219811   6.900   1.071   0.137
 6616TIP3    H119812   6.989   1.035   0.139
 6616TIP3    H219813   6.850   1.009   0.084
 6617TIP3   OH219814   2.404   3.977   0.491
 6617TIP3    H119815   2.350   3.903   0.519
 6617TIP3    H219816   2.355   4.054   0.519
 6618TIP3   OH219817   0.329   2.093   3.665
 6618TIP3    H119818   0.296   2.049   3.743
 6618TIP3    H219819   0.424   2.082   3.670
 6619TIP3   OH219820   1.951   0.436   3.325
 6619TIP3    H119821   1.910   0.355   3.356
 6619TIP3    H219822   2.044   0.424   3.345
 6620TIP3   OH219823   4.723   5.416   5.820
 6620TIP3    H119824   4.754   5.384   5.904
 6620TIP3    H219825   4.656   5.353   5.793
 6621TIP3   OH219826   1.273   6.095   4.004
 6621TIP3    H119827   1.345   6.067   4.061
 6621TIP3    H219828   1.221   6.016   3.990
 6622TIP3   OH219829   4.324   2.417   4.356
 6622TIP3    H119830   4.327   2.384   4.446
 6622TIP3    H219831   4.264   2.358   4.311
 6623TIP3   OH219832   4.313   4.060   1.461
 6623TIP3    H119833   4.322   4.152   1.484
 6623TIP3    H219834   4.294   4.017   1.545
 6624TIP3   OH219835   6.008   2.639   1.945
 6624TIP3    H119836   6.025   2.698   1.871
 6624TIP3    H219837   5.935   2.584   1.915
 6625TIP3   OH219838   1.472   0.608   0.897
 6625TIP3    H119839   1.393   0.557   0.913
 6625TIP3    H219840   1.536   0.572   0.959
 6626TIP3   OH219841   2.202   1.757   5.231
 6626TIP3    H119842   2.186   1.845   5.267
 6626TIP3    H219843   2.281   1.768   5.178
 6627TIP3   OH219844   6.092   3.911   2.640
 6627TIP3    H119845   6.065   3.856   2.566
 6627TIP3    H219846   6.056   3.866   2.717
 6628TIP3   OH219847   0.954   6.732   3.012
 6628TIP3    H119848   0.931   6.642   3.035
 6628TIP3    H219849   1.036   6.749   3.058
 6629TIP3   OH219850   3.336   6.631   0.025
 6629TIP3    H119851   3.412   6.590   0.065
 6629TIP3    H219852   3.354   6.725   0.029
 6630TIP3   OH219853   5.259   3.407   0.182
 6630TIP3    H119854   5.196   3.477   0.197
 6630TIP3    H219855   5.335   3.431   0.236
 6631TIP3   OH219856   5.074   2.169   4.727
 6631TIP3    H119857   5.064   2.075   4.712
 6631TIP3    H219858   5.023   2.186   4.806
 6632TIP3   OH219859   3.792   3.775   5.134
 6632TIP3    H119860   3.799   3.868   5.154
 6632TIP3    H219861   3.758   3.735   5.214
 6633TIP3   OH219862   0.182   1.328   4.814
 6633TIP3    H119863   0.122   1.392   4.852
 6633TIP3    H219864   0.269   1.364   4.829
 6634TIP3   OH219865   5.306   4.022   0.299
 6634TIP3    H119866   5.332   4.044   0.388
 6634TIP3    H219867   5.328   4.101   0.248
 6635TIP3   OH219868   6.550   1.207   0.437
 6635TIP3    H119869   6.595   1.205   0.353
 6635TIP3    H219870   6.576   1.291   0.476
 6636TIP3   OH219871   7.019   6.632   2.440
 6636TIP3    H119872   7.081   6.605   2.372
 6636TIP3    H219873   6.944   6.665   2.392
 6637TIP3   OH219874   1.609   1.171   5.619
 6637TIP3    H119875   1.642   1.260   5.623
 6637TIP3    H219876   1.589   1.156   5.527
 6638TIP3   OH219877   1.784   4.434   3.370
 6638TIP3    H119878   1.834   4.368   3.321
 6638TIP3    H219879   1.746   4.385   3.443
 6639TIP3   OH219880   1.064   5.442   4.244
 6639TIP3    H119881   0.982   5.493   4.244
 6639TIP3    H219882   1.057   5.385   4.168
 6640TIP3   OH219883   4.994   5.749   5.816
 6640TIP3    H119884   4.918   5.713   5.859
 6640TIP3    H219885   4.966   5.764   5.726
 6641TIP3   OH219886   6.155   4.849   5.890
 6641TIP3    H119887   6.194   4.765   5.865
 6641TIP3    H219888   6.207   4.879   5.964
 6642TIP3   OH219889   1.948   5.103   1.568
 6642TIP3    H119890   2.012   5.053   1.618
 6642TIP3    H219891   1.952   5.191   1.607
 6643TIP3   OH219892   6.103   2.860   1.784
 6643TIP3    H119893   6.079   2.857   1.691
 6643TIP3    H219894   6.188   2.903   1.785
 6644TIP3   OH219895   1.608   0.088   4.122
 6644TIP3    H119896   1.649   0.159   4.171
 6644TIP3    H219897   1.541   0.131   4.069
 6645TIP3   OH219898   3.837   0.633   5.258
 6645TIP3    H119899   3.928   0.627   5.287
 6645TIP3    H219900   3.787   0.648   5.338
 6646TIP3   OH219901   2.358   4.068   2.665
 6646TIP3    H119902   2.323   4.147   2.624
 6646TIP3    H219903   2.442   4.096   2.703
 6647TIP3   OH219904   4.727   2.577   1.084
 6647TIP3    H119905   4.709   2.664   1.121
 6647TIP3    H219906   4.642   2.533   1.084
 6648TIP3   OH219907   1.940   1.982   4.849
 6648TIP3    H119908   1.985   1.968   4.766
 6648TIP3    H219909   1.988   1.928   4.912
 6649TIP3   OH219910   6.161   1.328   0.577
 6649TIP3    H119911   6.239   1.383   0.573
 6649TIP3    H219912   6.140   1.310   0.485
 6650TIP3   OH219913   0.888   2.551   4.748
 6650TIP3    H119914   0.840   2.473   4.776
 6650TIP3    H219915   0.978   2.521   4.736
 6651TIP3   OH219916   5.750   2.486   1.136
 6651TIP3    H119917   5.668   2.445   1.108
 6651TIP3    H219918   5.783   2.429   1.205
 6652TIP3   OH219919   6.586   1.160   1.703
 6652TIP3    H119920   6.637   1.235   1.736
 6652TIP3    H219921   6.516   1.200   1.652
 6653TIP3   OH219922   4.585   3.169   1.345
 6653TIP3    H119923   4.553   3.162   1.435
 6653TIP3    H219924   4.512   3.137   1.291
 6654TIP3   OH219925   3.815   2.099   1.888
 6654TIP3    H119926   3.730   2.090   1.845
 6654TIP3    H219927   3.876   2.055   1.829
 6655TIP3   OH219928   4.312   5.082   4.321
 6655TIP3    H119929   4.346   4.999   4.286
 6655TIP3    H219930   4.246   5.110   4.257
 6656TIP3   OH219931   1.690   3.912   4.414
 6656TIP3    H119932   1.776   3.922   4.454
 6656TIP3    H219933   1.682   3.817   4.399
 6657TIP3   OH219934   0.605   1.484   2.873
 6657TIP3    H119935   0.587   1.426   2.799
 6657TIP3    H219936   0.553   1.562   2.857
 6658TIP3   OH219937   2.145   1.881   2.409
 6658TIP3    H119938   2.087   1.829   2.352
 6658TIP3    H219939   2.125   1.851   2.497
 6659TIP3   OH219940   4.747   2.181   3.445
 6659TIP3    H119941   4.820   2.144   3.495
 6659TIP3    H219942   4.668   2.145   3.487
 6660TIP3   OH219943   1.412   5.277   0.141
 6660TIP3    H119944   1.421   5.346   0.207
 6660TIP3    H219945   1.356   5.211   0.183
 6661TIP3   OH219946   6.106   0.418   3.221
 6661TIP3    H119947   6.136   0.471   3.294
 6661TIP3    H219948   6.046   0.354   3.260
 6662TIP3   OH219949   1.688   2.584   3.624
 6662TIP3    H119950   1.690   2.499   3.668
 6662TIP3    H219951   1.683   2.648   3.696
 6663TIP3   OH219952   6.810   1.405   5.163
 6663TIP3    H119953   6.814   1.404   5.259
 6663TIP3    H219954   6.880   1.465   5.138
 6664TIP3   OH219955   4.027   5.984   5.833
 6664TIP3    H119956   4.085   5.996   5.759
 6664TIP3    H219957   4.073   6.024   5.907
 6665TIP3   OH219958   5.036   0.434   5.426
 6665TIP3    H119959   4.957   0.407   5.472
 6665TIP3    H219960   5.100   0.365   5.443
 6666TIP3   OH219961   4.958   2.406   5.637
 6666TIP3    H119962   4.992   2.489   5.669
 6666TIP3    H219963   4.865   2.408   5.659
 6667TIP3   OH219964   3.644   0.233   3.807
 6667TIP3    H119965   3.596   0.310   3.839
 6667TIP3    H219966   3.736   0.260   3.811
 6668TIP3   OH219967   5.663   2.356   0.803
 6668TIP3    H119968   5.673   2.292   0.873
 6668TIP3    H219969   5.598   2.418   0.837
 6669TIP3   OH219970   5.022   1.863   5.106
 6669TIP3    H119971   4.958   1.798   5.078
 6669TIP3    H219972   5.021   1.929   5.037
 6670TIP3   OH219973   5.298   2.262   0.847
 6670TIP3    H119974   5.334   2.261   0.759
 6670TIP3    H219975   5.250   2.345   0.853
 6671TIP3   OH219976   5.834   0.767   2.317
 6671TIP3    H119977   5.805   0.687   2.273
 6671TIP3    H219978   5.811   0.753   2.409
 6672TIP3   OH219979   4.166   5.079   2.551
 6672TIP3    H119980   4.240   5.022   2.573
 6672TIP3    H219981   4.154   5.133   2.629
 6673TIP3   OH219982   1.101   6.366   3.803
 6673TIP3    H119983   1.097   6.434   3.870
 6673TIP3    H219984   1.141   6.409   3.727
 6674TIP3   OH219985   0.291   0.802   0.193
 6674TIP3    H119986   0.223   0.735   0.190
 6674TIP3    H219987   0.372   0.754   0.213
 6675TIP3   OH219988   0.703   4.777   2.677
 6675TIP3    H119989   0.718   4.742   2.590
 6675TIP3    H219990   0.778   4.835   2.692
 6676TIP3   OH219991   4.904   2.232   4.935
 6676TIP3    H119992   4.949   2.229   5.019
 6676TIP3    H219993   4.832   2.169   4.943
 6677TIP3   OH219994   7.036   0.505   5.168
 6677TIP3    H119995   7.024   0.581   5.226
 6677TIP3    H219996   7.104   0.453   5.212
 6678TIP3   OH219997   3.274   4.824   2.026
 6678TIP3    H119998   3.190   4.778   2.030
 6678TIP3    H219999   3.332   4.763   1.979
 6679TIP3   OH220000   1.857   5.876   3.031
 6679TIP3    H120001   1.853   5.845   3.121
 6679TIP3    H220002   1.776   5.925   3.018
 6680TIP3   OH220003   0.721   1.318   4.427
 6680TIP3    H120004   0.670   1.379   4.479
 6680TIP3    H220005   0.659   1.248   4.404
 6681TIP3   OH220006   4.595   5.593   4.884
 6681TIP3    H120007   4.516   5.540   4.887
 6681TIP3    H220008   4.646   5.564   4.961
 6682TIP3   OH220009   4.015   6.110   5.153
 6682TIP3    H120010   4.040   6.068   5.070
 6682TIP3    H220011   4.050   6.199   5.146
 6683TIP3   OH220012   2.224   1.390   2.902
 6683TIP3    H120013   2.181   1.309   2.931
 6683TIP3    H220014   2.160   1.459   2.919
 6684TIP3   OH220015   3.184   4.545   4.453
 6684TIP3    H120016   3.266   4.516   4.493
 6684TIP3    H220017   3.171   4.634   4.485
 6685TIP3   OH220018   6.430   1.158   5.082
 6685TIP3    H120019   6.397   1.070   5.066
 6685TIP3    H220020   6.352   1.214   5.081
 6686TIP3   OH220021   0.928   1.013   5.496
 6686TIP3    H120022   0.978   0.934   5.474
 6686TIP3    H220023   0.969   1.046   5.576
 6687TIP3   OH220024   3.148   6.747   4.094
 6687TIP3    H120025   3.086   6.677   4.113
 6687TIP3    H220026   3.173   6.733   4.003
 6688TIP3   OH220027   6.804   2.217   4.935
 6688TIP3    H120028   6.762   2.247   5.015
 6688TIP3    H220029   6.846   2.295   4.899
 6689TIP3   OH220030   4.215   4.822   4.585
 6689TIP3    H120031   4.206   4.777   4.501
 6689TIP3    H220032   4.178   4.762   4.649
 6690TIP3   OH220033   2.872   5.541   3.010
 6690TIP3    H120034   2.793   5.489   2.996
 6690TIP3    H220035   2.929   5.485   3.062
 6691TIP3   OH220036   5.394   6.487   0.619
 6691TIP3    H120037   5.342   6.567   0.619
 6691TIP3    H220038   5.485   6.517   0.608
 6692TIP3   OH220039   4.601   6.285   5.787
 6692TIP3    H120040   4.609   6.191   5.804
 6692TIP3    H220041   4.676   6.323   5.832
 6693TIP3   OH220042   3.711   2.403   2.574
 6693TIP3    H120043   3.755   2.333   2.623
 6693TIP3    H220044   3.719   2.480   2.630
 6694TIP3   OH220045   1.588   6.776   0.964
 6694TIP3    H120046   1.673   6.820   0.964
 6694TIP3    H220047   1.531   6.833   0.914
 6695TIP3   OH220048   6.110   4.890   0.338
 6695TIP3    H120049   6.072   4.806   0.314
 6695TIP3    H220050   6.116   4.938   0.256
 6696TIP3   OH220051   4.487   6.678   3.151
 6696TIP3    H120052   4.547   6.605   3.164
 6696TIP3    H220053   4.509   6.713   3.065
 6697TIP3   OH220054   0.479   0.277   5.352
 6697TIP3    H120055   0.477   0.339   5.425
 6697TIP3    H220056   0.393   0.285   5.310
 6698TIP3   OH220057   2.726   1.603   3.031
 6698TIP3    H120058   2.660   1.626   3.097
 6698TIP3    H220059   2.776   1.684   3.019
 6699TIP3   OH220060   2.596   2.423   1.042
 6699TIP3    H120061   2.676   2.475   1.036
 6699TIP3    H220062   2.584   2.408   1.136
 6700TIP3   OH220063   1.988   2.739   4.924
 6700TIP3    H120064   1.902   2.703   4.946
 6700TIP3    H220065   1.979   2.833   4.937
 6701TIP3   OH220066   4.155   1.527   1.475
 6701TIP3    H120067   4.065   1.495   1.470
 6701TIP3    H220068   4.152   1.598   1.538
 6702TIP3   OH220069   3.620   6.220   0.471
 6702TIP3    H120070   3.587   6.310   0.480
 6702TIP3    H220071   3.679   6.223   0.396
 6703TIP3   OH220072   4.714   1.816   3.798
 6703TIP3    H120073   4.786   1.757   3.821
 6703TIP3    H220074   4.634   1.765   3.817
 6704TIP3   OH220075   1.552   5.025   1.023
 6704TIP3    H120076   1.477   5.018   0.963
 6704TIP3    H220077   1.532   5.100   1.078
 6705TIP3   OH220078   1.837   0.333   3.889
 6705TIP3    H120079   1.742   0.320   3.889
 6705TIP3    H220080   1.852   0.405   3.951
 6706TIP3   OH220081   6.601   2.057   4.753
 6706TIP3    H120082   6.555   2.139   4.738
 6706TIP3    H220083   6.621   2.057   4.847
 6707TIP3   OH220084   2.161   0.776   4.612
 6707TIP3    H120085   2.103   0.792   4.686
 6707TIP3    H220086   2.249   0.793   4.647
 6708TIP3   OH220087   1.891   5.297   0.161
 6708TIP3    H120088   1.853   5.384   0.175
 6708TIP3    H220089   1.823   5.248   0.114
 6709TIP3   OH220090   5.181   4.016   1.703
 6709TIP3    H120091   5.221   3.952   1.645
 6709TIP3    H220092   5.254   4.051   1.754
 6710TIP3   OH220093   2.263   2.132   2.406
 6710TIP3    H120094   2.357   2.119   2.390
 6710TIP3    H220095   2.233   2.050   2.446
 6711TIP3   OH220096   0.349   3.545   3.068
 6711TIP3    H120097   0.284   3.508   3.128
 6711TIP3    H220098   0.369   3.631   3.106
 6712TIP3   OH220099   5.310   2.697   3.452
 6712TIP3    H120100   5.324   2.627   3.388
 6712TIP3    H220101   5.225   2.676   3.492
 6713TIP3   OH220102   1.915   5.461   2.599
 6713TIP3    H120103   1.870   5.521   2.659
 6713TIP3    H220104   1.878   5.375   2.620
 6714TIP3   OH220105   3.354   2.397   2.999
 6714TIP3    H120106   3.440   2.439   3.010
 6714TIP3    H220107   3.333   2.409   2.907
 6715TIP3   OH220108   4.975   4.737   1.954
 6715TIP3    H120109   5.009   4.825   1.968
 6715TIP3    H220110   4.915   4.745   1.880
 6716TIP3   OH220111   5.199   0.208   5.479
 6716TIP3    H120112   5.211   0.131   5.534
 6716TIP3    H220113   5.206   0.175   5.389
 6717TIP3   OH220114   3.414   4.820   5.545
 6717TIP3    H120115   3.440   4.728   5.555
 6717TIP3    H220116   3.372   4.824   5.459
 6718TIP3   OH220117   7.052   0.210   3.109
 6718TIP3    H120118   7.045   0.288   3.163
 6718TIP3    H220119   7.140   0.176   3.128
 6719TIP3   OH220120   1.438   0.521   2.729
 6719TIP3    H120121   1.461   0.443   2.680
 6719TIP3    H220122   1.464   0.594   2.673
 6720TIP3   OH220123   4.827   5.588   0.577
 6720TIP3    H120124   4.830   5.577   0.482
 6720TIP3    H220125   4.892   5.656   0.596
 6721TIP3   OH220126   0.247   1.141   2.380
 6721TIP3    H120127   0.289   1.148   2.295
 6721TIP3    H220128   0.252   1.229   2.417
 6722TIP3   OH220129   2.378   2.331   5.146
 6722TIP3    H120130   2.290   2.295   5.145
 6722TIP3    H220131   2.418   2.300   5.065
 6723TIP3   OH220132   0.479   5.945   2.965
 6723TIP3    H120133   0.404   5.978   2.916
 6723TIP3    H220134   0.555   5.968   2.910
 6724TIP3   OH220135   5.854   2.483   1.445
 6724TIP3    H120136   5.820   2.402   1.483
 6724TIP3    H220137   5.905   2.524   1.515
 6725TIP3   OH220138   3.689   2.979   1.306
 6725TIP3    H120139   3.647   2.928   1.375
 6725TIP3    H220140   3.751   3.035   1.352
 6726TIP3   OH220141   2.926   2.320   4.701
 6726TIP3    H120142   2.879   2.330   4.784
 6726TIP3    H220143   2.985   2.246   4.716
 6727TIP3   OH220144   2.994   0.324   0.137
 6727TIP3    H120145   3.073   0.337   0.085
 6727TIP3    H220146   2.924   0.364   0.085
 6728TIP3   OH220147   3.116   5.479   4.614
 6728TIP3    H120148   3.122   5.514   4.703
 6728TIP3    H220149   3.025   5.451   4.606
 6729TIP3   OH220150   6.601   0.414   3.441
 6729TIP3    H120151   6.609   0.506   3.417
 6729TIP3    H220152   6.681   0.373   3.409
 6730TIP3   OH220153   5.121   3.724   1.386
 6730TIP3    H120154   5.077   3.769   1.458
 6730TIP3    H220155   5.050   3.698   1.327
 6731TIP3   OH220156   6.530   6.520   0.023
 6731TIP3    H120157   6.569   6.443   0.065
 6731TIP3    H220158   6.578   6.530  -0.059
 6732TIP3   OH220159   4.300   5.778   5.631
 6732TIP3    H120160   4.338   5.837   5.566
 6732TIP3    H220161   4.206   5.788   5.620
 6733TIP3   OH220162   2.740   2.519   0.325
 6733TIP3    H120163   2.693   2.594   0.288
 6733TIP3    H220164   2.671   2.463   0.362
 6734TIP3   OH220165   5.223   6.595   3.309
 6734TIP3    H120166   5.158   6.528   3.291
 6734TIP3    H220167   5.282   6.592   3.233
 6735TIP3   OH220168   3.710   6.385   3.182
 6735TIP3    H120169   3.693   6.314   3.120
 6735TIP3    H220170   3.804   6.401   3.174
 6736TIP3   OH220171   6.795   6.761   4.224
 6736TIP3    H120172   6.818   6.736   4.134
 6736TIP3    H220173   6.795   6.857   4.222
 6737TIP3   OH220174   2.383   0.031   3.327
 6737TIP3    H120175   2.463  -0.022   3.320
 6737TIP3    H220176   2.414   0.117   3.355
 6738TIP3   OH220177   2.536   6.085   2.429
 6738TIP3    H120178   2.568   6.092   2.519
 6738TIP3    H220179   2.446   6.116   2.433
 6739TIP3   OH220180   5.164   2.480   2.461
 6739TIP3    H120181   5.239   2.421   2.473
 6739TIP3    H220182   5.173   2.544   2.532
 6740TIP3   OH220183   3.399   2.931   2.657
 6740TIP3    H120184   3.390   2.860   2.593
 6740TIP3    H220185   3.347   2.903   2.732
 6741TIP3   OH220186   6.046   2.126   5.403
 6741TIP3    H120187   5.982   2.138   5.474
 6741TIP3    H220188   6.028   2.197   5.342
 6742TIP3   OH220189   3.879   2.036   3.155
 6742TIP3    H120190   3.917   2.017   3.241
 6742TIP3    H220191   3.898   2.129   3.140
 6743TIP3   OH220192   6.834   6.474   5.530
 6743TIP3    H120193   6.927   6.479   5.553
 6743TIP3    H220194   6.832   6.486   5.435
 6744TIP3   OH220195   1.997   1.509   2.943
 6744TIP3    H120196   1.995   1.534   2.850
 6744TIP3    H220197   1.907   1.487   2.964
 6745TIP3   OH220198   4.764   0.354   1.143
 6745TIP3    H120199   4.732   0.434   1.101
 6745TIP3    H220200   4.791   0.298   1.070
 6746TIP3   OH220201   4.111   3.372   5.698
 6746TIP3    H120202   4.118   3.277   5.687
 6746TIP3    H220203   4.196   3.398   5.735
 6747TIP3   OH220204   6.742   2.909   4.429
 6747TIP3    H120205   6.731   2.848   4.502
 6747TIP3    H220206   6.815   2.965   4.455
 6748TIP3   OH220207   0.816   0.258   5.001
 6748TIP3    H120208   0.808   0.266   5.096
 6748TIP3    H220209   0.838   0.166   4.985
 6749TIP3   OH220210   2.244   2.654   5.344
 6749TIP3    H120211   2.241   2.749   5.329
 6749TIP3    H220212   2.293   2.619   5.269
 6750TIP3   OH220213   2.966   4.547   1.840
 6750TIP3    H120214   2.972   4.556   1.745
 6750TIP3    H220215   2.908   4.472   1.854
 6751TIP3   OH220216   5.997   4.760   3.774
 6751TIP3    H120217   6.016   4.797   3.687
 6751TIP3    H220218   5.994   4.836   3.832
 6752TIP3   OH220219   6.533   6.058   3.734
 6752TIP3    H120220   6.458   6.058   3.675
 6752TIP3    H220221   6.503   6.011   3.812
 6753TIP3   OH220222   6.776   3.574   2.746
 6753TIP3    H120223   6.708   3.561   2.812
 6753TIP3    H220224   6.851   3.608   2.794
 6754TIP3   OH220225   0.619   1.687   4.719
 6754TIP3    H120226   0.699   1.728   4.753
 6754TIP3    H220227   0.560   1.684   4.795
 6755TIP3   OH220228   1.486   0.460   1.405
 6755TIP3    H120229   1.514   0.472   1.314
 6755TIP3    H220230   1.399   0.422   1.399
 6756TIP3   OH220231   3.521   0.774   0.352
 6756TIP3    H120232   3.577   0.699   0.332
 6756TIP3    H220233   3.435   0.736   0.367
 6757TIP3   OH220234   4.291   2.124   2.506
 6757TIP3    H120235   4.222   2.180   2.471
 6757TIP3    H220236   4.246   2.068   2.569
 6758TIP3   OH220237   2.036   2.736   2.960
 6758TIP3    H120238   1.970   2.789   2.916
 6758TIP3    H220239   2.031   2.762   3.052
 6759TIP3   OH220240   4.949   4.642   4.676
 6759TIP3    H120241   4.899   4.723   4.674
 6759TIP3    H220242   4.912   4.592   4.749
 6760TIP3   OH220243   4.904   2.391   0.007
 6760TIP3    H120244   4.843   2.436  -0.051
 6760TIP3    H220245   4.848   2.353   0.075
 6761TIP3   OH220246   2.214   1.041   3.709
 6761TIP3    H120247   2.173   0.989   3.778
 6761TIP3    H220248   2.249   1.118   3.753
 6762TIP3   OH220249   5.858   6.752   5.157
 6762TIP3    H120250   5.766   6.765   5.132
 6762TIP3    H220251   5.860   6.772   5.251
 6763TIP3   OH220252   2.117   1.219   2.521
 6763TIP3    H120253   2.083   1.164   2.451
 6763TIP3    H220254   2.042   1.272   2.548
 6764TIP3   OH220255   0.121   2.218   5.822
 6764TIP3    H120256   0.200   2.241   5.870
 6764TIP3    H220257   0.149   2.212   5.731
 6765TIP3   OH220258   5.608   3.152   0.018
 6765TIP3    H120259   5.516   3.157   0.045
 6765TIP3    H220260   5.655   3.201   0.086
 6766TIP3   OH220261   0.124   6.525   1.690
 6766TIP3    H120262   0.191   6.511   1.756
 6766TIP3    H220263   0.080   6.605   1.717
 6767TIP3   OH220264   1.600   3.023   5.380
 6767TIP3    H120265   1.577   2.967   5.455
 6767TIP3    H220266   1.695   3.012   5.371
 6768TIP3   OH220267   5.038   2.281   5.395
 6768TIP3    H120268   5.016   2.335   5.470
 6768TIP3    H220269   5.124   2.243   5.417
 6769TIP3   OH220270   6.647   1.780   2.643
 6769TIP3    H120271   6.553   1.790   2.662
 6769TIP3    H220272   6.652   1.702   2.588
 6770TIP3   OH220273   2.004   0.686   5.867
 6770TIP3    H120274   1.972   0.638   5.791
 6770TIP3    H220275   1.951   0.653   5.940
 6771TIP3   OH220276   4.147   1.861   1.033
 6771TIP3    H120277   4.196   1.877   0.952
 6771TIP3    H220278   4.055   1.874   1.009
 6772TIP3   OH220279   4.565   0.066   1.377
 6772TIP3    H120280   4.590   0.106   1.461
 6772TIP3    H220281   4.486   0.015   1.397
 6773TIP3   OH220282   1.217   2.662   5.336
 6773TIP3    H120283   1.282   2.711   5.286
 6773TIP3    H220284   1.224   2.695   5.425
 6774TIP3   OH220285   6.375   0.981   5.467
 6774TIP3    H120286   6.387   1.075   5.472
 6774TIP3    H220287   6.299   0.963   5.523
 6775TIP3   OH220288   5.254   0.478   1.400
 6775TIP3    H120289   5.340   0.514   1.378
 6775TIP3    H220290   5.269   0.385   1.412
 6776TIP3   OH220291   6.071   5.415   2.216
 6776TIP3    H120292   6.006   5.448   2.155
 6776TIP3    H220293   6.032   5.334   2.251
 6777TIP3   OH220294   4.084   4.120   1.711
 6777TIP3    H120295   4.150   4.137   1.777
 6777TIP3    H220296   4.025   4.196   1.715
 6778TIP3   OH220297   0.737   1.363   0.211
 6778TIP3    H120298   0.680   1.429   0.250
 6778TIP3    H220299   0.809   1.413   0.173
 6779TIP3   OH220300   4.187   2.758   5.530
 6779TIP3    H120301   4.135   2.836   5.547
 6779TIP3    H220302   4.167   2.735   5.440
 6780TIP3   OH220303   1.972   5.453   0.665
 6780TIP3    H120304   2.058   5.421   0.640
 6780TIP3    H220305   1.960   5.423   0.755
 6781TIP3   OH220306   6.120   3.597   3.605
 6781TIP3    H120307   6.209   3.623   3.630
 6781TIP3    H220308   6.128   3.505   3.580
 6782TIP3   OH220309   3.973   4.001   0.323
 6782TIP3    H120310   3.888   4.045   0.334
 6782TIP3    H220311   4.034   4.054   0.375
 6783TIP3   OH220312   4.679   0.605   2.817
 6783TIP3    H120313   4.673   0.509   2.818
 6783TIP3    H220314   4.773   0.624   2.818
 6784TIP3   OH220315   6.955   4.104   1.903
 6784TIP3    H120316   6.960   4.131   1.811
 6784TIP3    H220317   7.046   4.094   1.930
 6785TIP3   OH220318   1.104   1.996   5.349
 6785TIP3    H120319   1.195   2.022   5.338
 6785TIP3    H220320   1.107   1.902   5.365
 6786TIP3   OH220321   3.149   3.400   1.379
 6786TIP3    H120322   3.198   3.380   1.300
 6786TIP3    H220323   3.133   3.314   1.420
 6787TIP3   OH220324   4.274   1.232   3.567
 6787TIP3    H120325   4.354   1.273   3.602
 6787TIP3    H220326   4.220   1.306   3.540
 6788TIP3   OH220327   0.624   4.360   3.125
 6788TIP3    H120328   0.567   4.437   3.129
 6788TIP3    H220329   0.664   4.365   3.038
 6789TIP3   OH220330   1.820   3.565   1.004
 6789TIP3    H120331   1.790   3.517   0.926
 6789TIP3    H220332   1.834   3.496   1.069
 6790TIP3   OH220333   2.237   6.528   3.007
 6790TIP3    H120334   2.210   6.612   3.045
 6790TIP3    H220335   2.216   6.464   3.075
 6791TIP3   OH220336   5.697   0.280   5.017
 6791TIP3    H120337   5.631   0.210   5.016
 6791TIP3    H220338   5.649   0.358   4.989
 6792TIP3   OH220339   5.472   3.623   3.797
 6792TIP3    H120340   5.423   3.695   3.837
 6792TIP3    H220341   5.562   3.653   3.793
 6793TIP3   OH220342   0.158   1.246   2.127
 6793TIP3    H120343   0.083   1.189   2.144
 6793TIP3    H220344   0.217   1.193   2.073
 6794TIP3   OH220345   3.753   2.415   4.653
 6794TIP3    H120346   3.728   2.374   4.736
 6794TIP3    H220347   3.756   2.508   4.673
 6795TIP3   OH220348   0.309   5.622   3.563
 6795TIP3    H120349   0.263   5.541   3.541
 6795TIP3    H220350   0.286   5.683   3.493
 6796TIP3   OH220351   7.134   0.927   0.153
 6796TIP3    H120352   7.153   0.839   0.186
 6796TIP3    H220353   7.178   0.986   0.214
 6797TIP3   OH220354   2.879   0.137   5.545
 6797TIP3    H120355   2.926   0.187   5.612
 6797TIP3    H220356   2.942   0.071   5.515
 6798TIP3   OH220357   6.011   3.550   3.162
 6798TIP3    H120358   6.058   3.499   3.095
 6798TIP3    H220359   5.956   3.485   3.206
 6799TIP3   OH220360   1.486   3.819   5.721
 6799TIP3    H120361   1.426   3.864   5.780
 6799TIP3    H220362   1.433   3.799   5.644
 6800TIP3   OH220363   7.034   6.531   3.799
 6800TIP3    H120364   7.030   6.620   3.766
 6800TIP3    H220365   6.953   6.521   3.850
 6801TIP3   OH220366   4.322   4.489   5.569
 6801TIP3    H120367   4.338   4.472   5.661
 6801TIP3    H220368   4.306   4.402   5.531
 6802TIP3   OH220369   2.758   0.199   4.333
 6802TIP3    H120370   2.712   0.137   4.390
 6802TIP3    H220371   2.819   0.144   4.283
 6803TIP3   OH220372   0.302   1.535   5.545
 6803TIP3    H120373   0.370   1.508   5.483
 6803TIP3    H220374   0.347   1.537   5.630
 6804TIP3   OH220375   1.714   3.205   0.924
 6804TIP3    H120376   1.640   3.204   0.985
 6804TIP3    H220377   1.737   3.113   0.912
 6805TIP3   OH220378   2.899   1.288   4.758
 6805TIP3    H120379   2.822   1.343   4.772
 6805TIP3    H220380   2.921   1.301   4.666
 6806TIP3   OH220381   0.288   4.413   2.093
 6806TIP3    H120382   0.376   4.445   2.076
 6806TIP3    H220383   0.234   4.456   2.026
 6807TIP3   OH220384   3.773   3.381   2.272
 6807TIP3    H120385   3.725   3.322   2.330
 6807TIP3    H220386   3.858   3.340   2.261
 6808TIP3   OH220387   3.701   3.900   5.520
 6808TIP3    H120388   3.680   3.819   5.473
 6808TIP3    H220389   3.794   3.892   5.541
 6809TIP3   OH220390   0.934   5.233   5.596
 6809TIP3    H120391   0.939   5.165   5.528
 6809TIP3    H220392   1.025   5.259   5.609
 6810TIP3   OH220393   7.062   1.841   1.804
 6810TIP3    H120394   7.029   1.924   1.838
 6810TIP3    H220395   7.156   1.856   1.791
 6811TIP3   OH220396   6.436   4.478   2.080
 6811TIP3    H120397   6.441   4.390   2.119
 6811TIP3    H220398   6.344   4.503   2.091
 6812TIP3   OH220399   6.819   3.666   5.395
 6812TIP3    H120400   6.786   3.749   5.361
 6812TIP3    H220401   6.750   3.635   5.454
 6813TIP3   OH220402   2.530   2.534   0.521
 6813TIP3    H120403   2.539   2.585   0.441
 6813TIP3    H220404   2.572   2.587   0.589
 6814TIP3   OH220405   6.318   4.796   0.506
 6814TIP3    H120406   6.225   4.811   0.487
 6814TIP3    H220407   6.364   4.830   0.429
 6815TIP3   OH220408   1.237   0.988   0.276
 6815TIP3    H120409   1.208   0.922   0.339
 6815TIP3    H220410   1.219   0.950   0.191
 6816TIP3   OH220411   3.081   2.180   3.591
 6816TIP3    H120412   3.067   2.261   3.543
 6816TIP3    H220413   3.013   2.180   3.659
 6817TIP3   OH220414   0.985   1.585   1.668
 6817TIP3    H120415   0.941   1.517   1.719
 6817TIP3    H220416   0.962   1.565   1.577
 6818TIP3   OH220417   4.892   4.562   5.287
 6818TIP3    H120418   4.969   4.506   5.280
 6818TIP3    H220419   4.919   4.633   5.346
 6819TIP3   OH220420   0.725   1.334   1.192
 6819TIP3    H120421   0.747   1.405   1.132
 6819TIP3    H220422   0.752   1.255   1.147
 6820TIP3   OH220423   1.309   3.843   5.510
 6820TIP3    H120424   1.233   3.892   5.541
 6820TIP3    H220425   1.272   3.777   5.450
 6821TIP3   OH220426   6.443   5.320   3.816
 6821TIP3    H120427   6.361   5.333   3.863
 6821TIP3    H220428   6.462   5.405   3.776
 6822TIP3   OH220429   3.424   2.251   5.170
 6822TIP3    H120430   3.334   2.280   5.161
 6822TIP3    H220431   3.440   2.198   5.092
 6823TIP3   OH220432   3.045   5.248   5.743
 6823TIP3    H120433   2.986   5.244   5.818
 6823TIP3    H220434   3.067   5.157   5.725
 6824TIP3   OH220435   3.972   0.566   0.064
 6824TIP3    H120436   3.981   0.661   0.063
 6824TIP3    H220437   3.979   0.542   0.157
 6825TIP3   OH220438   1.068   1.293   3.738
 6825TIP3    H120439   1.042   1.253   3.821
 6825TIP3    H220440   1.021   1.242   3.672
 6826TIP3   OH220441   5.033   4.066   2.001
 6826TIP3    H120442   5.036   4.159   1.979
 6826TIP3    H220443   4.950   4.035   1.965
 6827TIP3   OH220444   2.669   0.679   1.034
 6827TIP3    H120445   2.660   0.608   1.097
 6827TIP3    H220446   2.743   0.731   1.066
 6828TIP3   OH220447   1.745   6.724   1.742
 6828TIP3    H120448   1.839   6.731   1.728
 6828TIP3    H220449   1.723   6.635   1.712
 6829TIP3   OH220450   3.440   2.465   4.817
 6829TIP3    H120451   3.423   2.501   4.904
 6829TIP3    H220452   3.458   2.542   4.763
 6830TIP3   OH220453   5.218   4.761   3.943
 6830TIP3    H120454   5.139   4.749   3.890
 6830TIP3    H220455   5.287   4.782   3.880
 6831TIP3   OH220456   1.744   4.620   5.804
 6831TIP3    H120457   1.802   4.622   5.727
 6831TIP3    H220458   1.801   4.597   5.877
 6832TIP3   OH220459   6.264   5.354   0.752
 6832TIP3    H120460   6.248   5.413   0.679
 6832TIP3    H220461   6.191   5.292   0.749
 6833TIP3   OH220462   6.104   0.499   2.206
 6833TIP3    H120463   6.113   0.591   2.229
 6833TIP3    H220464   6.194   0.466   2.200
 6834TIP3   OH220465   3.930   3.719   4.514
 6834TIP3    H120466   3.908   3.812   4.515
 6834TIP3    H220467   3.925   3.691   4.605
 6835TIP3   OH220468   2.212   0.114   4.872
 6835TIP3    H120469   2.152   0.062   4.927
 6835TIP3    H220470   2.173   0.201   4.869
 6836TIP3   OH220471   2.858   3.186   2.675
 6836TIP3    H120472   2.881   3.165   2.765
 6836TIP3    H220473   2.763   3.174   2.670
 6837TIP3   OH220474   3.045   0.875   0.394
 6837TIP3    H120475   3.055   0.970   0.391
 6837TIP3    H220476   2.980   0.860   0.463
 6838TIP3   OH220477   3.069   1.570   2.300
 6838TIP3    H120478   3.131   1.586   2.371
 6838TIP3    H220479   3.123   1.539   2.227
 6839TIP3   OH220480   2.125   4.894   5.414
 6839TIP3    H120481   2.054   4.863   5.470
 6839TIP3    H220482   2.195   4.917   5.474
 6840TIP3   OH220483   3.647   5.799   2.022
 6840TIP3    H120484   3.565   5.825   2.063
 6840TIP3    H220485   3.642   5.704   2.016
 6841TIP3   OH220486   6.475   0.955   2.554
 6841TIP3    H120487   6.489   1.022   2.488
 6841TIP3    H220488   6.553   0.958   2.609
 6842TIP3   OH220489   7.062   2.497   3.161
 6842TIP3    H120490   7.051   2.501   3.066
 6842TIP3    H220491   7.152   2.526   3.176
 6843TIP3   OH220492   2.292   1.155   4.246
 6843TIP3    H120493   2.347   1.146   4.324
 6843TIP3    H220494   2.341   1.114   4.176
 6844TIP3   OH220495   2.798   0.329   2.001
 6844TIP3    H120496   2.796   0.357   1.909
 6844TIP3    H220497   2.822   0.237   1.997
 6845TIP3   OH220498   2.012   0.305   4.843
 6845TIP3    H120499   1.960   0.383   4.861
 6845TIP3    H220500   1.955   0.250   4.789
 6846TIP3   OH220501   0.060   0.144   2.676
 6846TIP3    H120502   0.094   0.201   2.745
 6846TIP3    H220503   0.112   0.064   2.683
 6847TIP3   OH220504   6.913   4.946   0.173
 6847TIP3    H120505   6.877   4.915   0.257
 6847TIP3    H220506   6.995   4.989   0.197
 6848TIP3   OH220507   6.030   2.426   1.028
 6848TIP3    H120508   6.082   2.459   1.101
 6848TIP3    H220509   5.947   2.401   1.068
 6849TIP3   OH220510   0.730   0.251   2.702
 6849TIP3    H120511   0.812   0.249   2.751
 6849TIP3    H220512   0.731   0.335   2.657
 6850TIP3   OH220513   0.905   0.035   1.547
 6850TIP3    H120514   0.932   0.109   1.602
 6850TIP3    H220515   0.915   0.067   1.457
 6851TIP3   OH220516   0.418   4.050   5.573
 6851TIP3    H120517   0.379   4.001   5.646
 6851TIP3    H220518   0.382   4.008   5.494
 6852TIP3   OH220519   3.623   1.989   5.883
 6852TIP3    H120520   3.630   1.946   5.798
 6852TIP3    H220521   3.714   2.001   5.911
 6853TIP3   OH220522   5.884   3.150   2.576
 6853TIP3    H120523   5.794   3.139   2.545
 6853TIP3    H220524   5.905   3.241   2.554
 6854TIP3   OH220525   3.239   6.266   4.739
 6854TIP3    H120526   3.293   6.311   4.804
 6854TIP3    H220527   3.297   6.251   4.665
 6855TIP3   OH220528   0.986   5.764   1.266
 6855TIP3    H120529   0.980   5.860   1.266
 6855TIP3    H220530   0.915   5.736   1.208
 6856TIP3   OH220531   0.732   5.944   4.983
 6856TIP3    H120532   0.817   5.987   4.975
 6856TIP3    H220533   0.749   5.867   5.037
 6857TIP3   OH220534   6.483   0.251   2.821
 6857TIP3    H120535   6.484   0.295   2.906
 6857TIP3    H220536   6.558   0.288   2.774
 6858TIP3   OH220537   3.752   1.053   1.634
 6858TIP3    H120538   3.803   0.989   1.584
 6858TIP3    H220539   3.661   1.028   1.618
 6859TIP3   OH220540   5.133   3.646   5.604
 6859TIP3    H120541   5.098   3.592   5.675
 6859TIP3    H220542   5.089   3.612   5.526
 6860TIP3   OH220543   6.709   4.204   5.699
 6860TIP3    H120544   6.615   4.214   5.685
 6860TIP3    H220545   6.747   4.210   5.611
 6861TIP3   OH220546   4.857   4.728   2.936
 6861TIP3    H120547   4.845   4.687   3.021
 6861TIP3    H220548   4.780   4.703   2.886
 6862TIP3   OH220549   3.230   4.295   2.299
 6862TIP3    H120550   3.276   4.377   2.280
 6862TIP3    H220551   3.224   4.292   2.395
 6863TIP3   OH220552   4.354   0.163   3.271
 6863TIP3    H120553   4.290   0.226   3.304
 6863TIP3    H220554   4.408   0.142   3.346
 6864TIP3   OH220555   4.574   2.238   0.972
 6864TIP3    H120556   4.602   2.184   1.046
 6864TIP3    H220557   4.631   2.213   0.900
 6865TIP3   OH220558   6.519   0.613   5.126
 6865TIP3    H120559   6.483   0.690   5.170
 6865TIP3    H220560   6.497   0.540   5.184
 6866TIP3   OH220561   1.554   1.770   0.239
 6866TIP3    H120562   1.648   1.779   0.221
 6866TIP3    H220563   1.512   1.777   0.153
 6867TIP3   OH220564   0.602   2.758   2.495
 6867TIP3    H120565   0.654   2.716   2.427
 6867TIP3    H220566   0.664   2.814   2.542
 6868TIP3   OH220567   6.670   5.125   3.221
 6868TIP3    H120568   6.656   5.047   3.168
 6868TIP3    H220569   6.721   5.094   3.296
 6869TIP3   OH220570   6.035   3.993   1.885
 6869TIP3    H120571   6.102   3.991   1.953
 6869TIP3    H220572   6.043   4.080   1.846
 6870TIP3   OH220573   3.814   5.628   0.351
 6870TIP3    H120574   3.810   5.532   0.344
 6870TIP3    H220575   3.742   5.650   0.409
 6871TIP3   OH220576   2.153   5.116   5.687
 6871TIP3    H120577   2.116   5.037   5.646
 6871TIP3    H220578   2.247   5.108   5.672
 6872TIP3   OH220579   4.542   3.728   2.634
 6872TIP3    H120580   4.508   3.780   2.707
 6872TIP3    H220581   4.481   3.654   2.627
 6873TIP3   OH220582   0.462   5.254   1.210
 6873TIP3    H120583   0.433   5.177   1.162
 6873TIP3    H220584   0.545   5.278   1.169
 6874TIP3   OH220585   3.610   2.305   1.687
 6874TIP3    H120586   3.601   2.325   1.780
 6874TIP3    H220587   3.619   2.391   1.646
 6875TIP3   OH220588   4.465   2.930   2.094
 6875TIP3    H120589   4.495   2.934   2.185
 6875TIP3    H220590   4.407   2.854   2.091
 6876TIP3   OH220591   6.245   3.369   3.890
 6876TIP3    H120592   6.154   3.350   3.868
 6876TIP3    H220593   6.295   3.297   3.852
 6877TIP3   OH220594   3.511   4.031   1.223
 6877TIP3    H120595   3.556   4.114   1.239
 6877TIP3    H220596   3.561   3.966   1.273
 6878TIP3   OH220597   0.993   4.671   2.488
 6878TIP3    H120598   0.952   4.590   2.458
 6878TIP3    H220599   0.997   4.726   2.410
 6879TIP3   OH220600   3.164   2.738   1.215
 6879TIP3    H120601   3.079   2.733   1.259
 6879TIP3    H220602   3.146   2.712   1.125
 6880TIP3   OH220603   4.687   3.640   3.397
 6880TIP3    H120604   4.635   3.702   3.449
 6880TIP3    H220605   4.753   3.607   3.458
 6881TIP3   OH220606   3.207   3.430   4.860
 6881TIP3    H120607   3.184   3.480   4.781
 6881TIP3    H220608   3.282   3.476   4.896
 6882TIP3   OH220609   3.082   4.774   2.605
 6882TIP3    H120610   3.114   4.750   2.518
 6882TIP3    H220611   3.046   4.862   2.594
 6883TIP3   OH220612   2.527   1.655   1.086
 6883TIP3    H120613   2.490   1.567   1.079
 6883TIP3    H220614   2.496   1.701   1.009
 6884TIP3   OH220615   5.375   4.920   0.201
 6884TIP3    H120616   5.382   4.834   0.159
 6884TIP3    H220617   5.368   4.900   0.294
 6885TIP3   OH220618   2.094   3.113   0.731
 6885TIP3    H120619   2.180   3.126   0.771
 6885TIP3    H220620   2.037   3.173   0.779
 6886TIP3   OH220621   4.794   5.148   4.279
 6886TIP3    H120622   4.862   5.107   4.224
 6886TIP3    H220623   4.834   5.230   4.308
 6887TIP3   OH220624   5.048   0.712   4.405
 6887TIP3    H120625   5.064   0.618   4.411
 6887TIP3    H220626   4.961   0.725   4.443
 6888TIP3   OH220627   3.792   1.988   3.428
 6888TIP3    H120628   3.706   1.948   3.441
 6888TIP3    H220629   3.774   2.078   3.401
 6889TIP3   OH220630   5.825   4.834   2.544
 6889TIP3    H120631   5.771   4.914   2.550
 6889TIP3    H220632   5.914   4.866   2.530
 6890TIP3   OH220633   4.661   1.055   3.199
 6890TIP3    H120634   4.577   1.062   3.245
 6890TIP3    H220635   4.723   1.027   3.266
 6891TIP3   OH220636   6.984   4.309   3.595
 6891TIP3    H120637   6.924   4.249   3.551
 6891TIP3    H220638   6.950   4.396   3.576
 6892TIP3   OH220639   1.094   5.389   0.366
 6892TIP3    H120640   1.070   5.304   0.402
 6892TIP3    H220641   1.126   5.369   0.278
 6893TIP3   OH220642   6.955   2.116   4.297
 6893TIP3    H120643   6.881   2.174   4.316
 6893TIP3    H220644   6.924   2.029   4.320
 6894TIP3   OH220645   7.071   4.085   5.606
 6894TIP3    H120646   7.027   4.049   5.683
 6894TIP3    H220647   7.145   4.134   5.642
 6895TIP3   OH220648   0.087   5.939   0.652
 6895TIP3    H120649   0.050   6.022   0.622
 6895TIP3    H220650   0.013   5.879   0.656
 6896TIP3   OH220651   2.248   4.099   4.000
 6896TIP3    H120652   2.299   4.074   4.077
 6896TIP3    H220653   2.314   4.111   3.931
 6897TIP3   OH220654   5.497   5.414   0.722
 6897TIP3    H120655   5.486   5.381   0.811
 6897TIP3    H220656   5.503   5.336   0.667
 6898TIP3   OH220657   0.672   5.969   2.387
 6898TIP3    H120658   0.616   6.028   2.437
 6898TIP3    H220659   0.757   5.974   2.431
 6899TIP3   OH220660   3.209   5.828   4.412
 6899TIP3    H120661   3.233   5.809   4.503
 6899TIP3    H220662   3.288   5.866   4.374
 6900TIP3   OH220663   6.340   5.500   0.252
 6900TIP3    H120664   6.416   5.519   0.197
 6900TIP3    H220665   6.287   5.579   0.249
 6901TIP3   OH220666   0.371   0.945   2.509
 6901TIP3    H120667   0.328   1.028   2.484
 6901TIP3    H220668   0.445   0.937   2.449
 6902TIP3   OH220669   6.731   5.836   4.421
 6902TIP3    H120670   6.766   5.919   4.388
 6902TIP3    H220671   6.643   5.831   4.384
 6903TIP3   OH220672   4.274   3.413   1.746
 6903TIP3    H120673   4.179   3.412   1.762
 6903TIP3    H220674   4.290   3.336   1.692
 6904TIP3   OH220675   6.536   5.385   1.447
 6904TIP3    H120676   6.593   5.458   1.421
 6904TIP3    H220677   6.479   5.371   1.371
 6905TIP3   OH220678   4.805   1.671   0.836
 6905TIP3    H120679   4.799   1.629   0.922
 6905TIP3    H220680   4.820   1.598   0.775
 6906TIP3   OH220681   1.958   4.642   1.631
 6906TIP3    H120682   1.913   4.725   1.651
 6906TIP3    H220683   2.048   4.656   1.660
 6907TIP3   OH220684   5.676   2.342   3.441
 6907TIP3    H120685   5.643   2.252   3.430
 6907TIP3    H220686   5.768   2.337   3.414
 6908TIP3   OH220687   0.136   5.583   4.867
 6908TIP3    H120688   0.117   5.497   4.906
 6908TIP3    H220689   0.127   5.644   4.939
 6909TIP3   OH220690   2.427   5.044   3.999
 6909TIP3    H120691   2.364   5.084   4.059
 6909TIP3    H220692   2.410   4.950   4.006
 6910TIP3   OH220693   7.127   6.532   5.076
 6910TIP3    H120694   7.192   6.549   5.009
 6910TIP3    H220695   7.168   6.562   5.157
 6911TIP3   OH220696   6.530   2.183   1.292
 6911TIP3    H120697   6.611   2.140   1.320
 6911TIP3    H220698   6.462   2.117   1.306
 6912TIP3   OH220699   3.566   5.157   1.438
 6912TIP3    H120700   3.551   5.245   1.472
 6912TIP3    H220701   3.590   5.105   1.515
 6913TIP3   OH220702   5.065   4.253   3.361
 6913TIP3    H120703   5.130   4.193   3.326
 6913TIP3    H220704   4.989   4.242   3.304
 6914TIP3   OH220705   0.548   4.799   1.541
 6914TIP3    H120706   0.454   4.793   1.524
 6914TIP3    H220707   0.576   4.876   1.492
 6915TIP3   OH220708   2.405   3.338   3.077
 6915TIP3    H120709   2.474   3.405   3.073
 6915TIP3    H220710   2.374   3.342   3.168
 6916TIP3   OH220711   2.765   3.333   3.279
 6916TIP3    H120712   2.847   3.378   3.300
 6916TIP3    H220713   2.781   3.294   3.193
 6917TIP3   OH220714   5.960   5.544   0.428
 6917TIP3    H120715   5.904   5.506   0.361
 6917TIP3    H220716   5.921   5.516   0.511
 6918TIP3   OH220717   5.272   0.406   5.696
 6918TIP3    H120718   5.197   0.465   5.695
 6918TIP3    H220719   5.279   0.376   5.605
 6919TIP3   OH220720   5.103   3.090   0.357
 6919TIP3    H120721   5.197   3.073   0.357
 6919TIP3    H220722   5.090   3.155   0.426
 6920TIP3   OH220723   2.564   1.115   2.261
 6920TIP3    H120724   2.631   1.183   2.256
 6920TIP3    H220725   2.491   1.156   2.308
 6921TIP3   OH220726   6.287   2.151   5.823
 6921TIP3    H120727   6.362   2.189   5.868
 6921TIP3    H220728   6.292   2.187   5.734
 6922TIP3   OH220729   3.018   2.133   3.008
 6922TIP3    H120730   3.094   2.108   2.957
 6922TIP3    H220731   3.050   2.199   3.069
 6923TIP3   OH220732   5.723   2.093   0.086
 6923TIP3    H120733   5.753   2.181   0.109
 6923TIP3    H220734   5.801   2.039   0.093
 6924TIP3   OH220735   5.018   0.162   2.449
 6924TIP3    H120736   5.053   0.208   2.525
 6924TIP3    H220737   5.085   0.097   2.428
 6925TIP3   OH220738   2.293   6.782   2.365
 6925TIP3    H120739   2.381   6.793   2.329
 6925TIP3    H220740   2.239   6.762   2.289
 6926TIP3   OH220741   6.539   4.542   4.958
 6926TIP3    H120742   6.611   4.599   4.983
 6926TIP3    H220743   6.573   4.490   4.885
 6927TIP3   OH220744   3.386   4.012   4.654
 6927TIP3    H120745   3.385   3.976   4.743
 6927TIP3    H220746   3.305   4.063   4.649
 6928TIP3   OH220747   6.577   4.762   0.284
 6928TIP3    H120748   6.662   4.779   0.325
 6928TIP3    H220749   6.541   4.688   0.332
 6929TIP3   OH220750   1.648   3.917   3.963
 6929TIP3    H120751   1.614   3.956   3.883
 6929TIP3    H220752   1.571   3.900   4.017
 6930TIP3   OH220753   2.932   4.543   1.567
 6930TIP3    H120754   2.987   4.620   1.554
 6930TIP3    H220755   2.897   4.524   1.480
 6931TIP3   OH220756   5.473   1.413   4.246
 6931TIP3    H120757   5.482   1.320   4.266
 6931TIP3    H220758   5.378   1.428   4.243
 6932TIP3   OH220759   6.707   3.223   3.619
 6932TIP3    H120760   6.755   3.155   3.667
 6932TIP3    H220761   6.769   3.296   3.614
 6933TIP3   OH220762   3.346   0.329   3.603
 6933TIP3    H120763   3.328   0.399   3.541
 6933TIP3    H220764   3.299   0.355   3.683
 6934TIP3   OH220765   4.603   6.546   3.549
 6934TIP3    H120766   4.623   6.618   3.489
 6934TIP3    H220767   4.552   6.586   3.619
 6935TIP3   OH220768   6.937   6.156   0.749
 6935TIP3    H120769   7.017   6.176   0.798
 6935TIP3    H220770   6.867   6.193   0.803
 6936TIP3   OH220771   6.998   6.550   0.912
 6936TIP3    H120772   6.984   6.550   1.007
 6936TIP3    H220773   7.086   6.586   0.901
 6937TIP3   OH220774   1.343   4.950   5.603
 6937TIP3    H120775   1.288   4.886   5.557
 6937TIP3    H220776   1.390   4.898   5.668
 6938TIP3   OH220777   0.404   5.046   0.498
 6938TIP3    H120778   0.484   5.003   0.528
 6938TIP3    H220779   0.373   4.991   0.426
 6939TIP3   OH220780   1.148   4.237   2.698
 6939TIP3    H120781   1.165   4.248   2.605
 6939TIP3    H220782   1.084   4.305   2.720
 6940TIP3   OH220783   4.968   4.166   1.686
 6940TIP3    H120784   5.049   4.115   1.686
 6940TIP3    H220785   4.978   4.227   1.759
 6941TIP3   OH220786   3.137   1.208   1.293
 6941TIP3    H120787   3.167   1.171   1.211
 6941TIP3    H220788   3.129   1.133   1.352
 6942TIP3   OH220789   7.217   5.028   3.332
 6942TIP3    H120790   7.143   5.070   3.376
 6942TIP3    H220791   7.239   5.086   3.260
 6943TIP3   OH220792   6.915   1.793   4.715
 6943TIP3    H120793   6.898   1.711   4.761
 6943TIP3    H220794   6.988   1.833   4.763
 6944TIP3   OH220795   6.409   1.425   4.384
 6944TIP3    H120796   6.391   1.451   4.474
 6944TIP3    H220797   6.456   1.342   4.392
 6945TIP3   OH220798   4.382   1.347   2.934
 6945TIP3    H120799   4.332   1.429   2.927
 6945TIP3    H220800   4.443   1.350   2.859
 6946TIP3   OH220801   6.943   1.687   0.940
 6946TIP3    H120802   6.867   1.679   0.882
 6946TIP3    H220803   6.938   1.610   0.997
 6947TIP3   OH220804   2.953   2.549   1.974
 6947TIP3    H120805   2.930   2.506   2.057
 6947TIP3    H220806   2.876   2.536   1.919
 6948TIP3   OH220807   4.174   5.135   5.717
 6948TIP3    H120808   4.100   5.155   5.659
 6948TIP3    H220809   4.238   5.204   5.699
 6949TIP3   OH220810   3.206   2.958   2.057
 6949TIP3    H120811   3.188   3.022   2.126
 6949TIP3    H220812   3.184   3.003   1.975
 6950TIP3   OH220813   4.085   1.998   5.131
 6950TIP3    H120814   4.090   2.026   5.223
 6950TIP3    H220815   4.074   2.079   5.082
 6951TIP3   OH220816   3.952   0.550   0.674
 6951TIP3    H120817   4.012   0.496   0.623
 6951TIP3    H220818   3.954   0.636   0.632
 6952TIP3   OH220819   2.579   2.290   0.615
 6952TIP3    H120820   2.551   2.363   0.561
 6952TIP3    H220821   2.627   2.232   0.555
 6953TIP3   OH220822   1.585   4.363   1.737
 6953TIP3    H120823   1.628   4.307   1.673
 6953TIP3    H220824   1.500   4.320   1.753
 6954TIP3   OH220825   2.318   5.944   3.779
 6954TIP3    H120826   2.286   5.932   3.689
 6954TIP3    H220827   2.270   6.021   3.810
 6955TIP3   OH220828   1.271   1.731   5.085
 6955TIP3    H120829   1.348   1.674   5.087
 6955TIP3    H220830   1.268   1.771   5.173
 6956TIP3   OH220831   6.129   4.123   2.310
 6956TIP3    H120832   6.086   4.150   2.229
 6956TIP3    H220833   6.059   4.123   2.376
 6957TIP3   OH220834   5.970   0.923   2.916
 6957TIP3    H120835   5.972   1.012   2.883
 6957TIP3    H220836   5.925   0.929   3.000
 6958TIP3   OH220837   1.814   2.376   0.709
 6958TIP3    H120838   1.848   2.311   0.646
 6958TIP3    H220839   1.892   2.424   0.737
 6959TIP3   OH220840   0.623   5.087   1.012
 6959TIP3    H120841   0.584   5.000   1.008
 6959TIP3    H220842   0.710   5.073   1.051
 6960TIP3   OH220843   1.415   3.303   4.768
 6960TIP3    H120844   1.397   3.335   4.857
 6960TIP3    H220845   1.452   3.215   4.781
 6961TIP3   OH220846   3.932   3.962   2.966
 6961TIP3    H120847   3.898   3.932   3.050
 6961TIP3    H220848   3.983   3.888   2.933
 6962TIP3   OH220849   4.231   4.442   2.995
 6962TIP3    H120850   4.235   4.509   2.927
 6962TIP3    H220851   4.274   4.366   2.957
 6963TIP3   OH220852   1.801   1.724   0.115
 6963TIP3    H120853   1.870   1.790   0.113
 6963TIP3    H220854   1.788   1.701   0.023
 6964TIP3   OH220855   4.601   2.966   4.119
 6964TIP3    H120856   4.612   3.029   4.191
 6964TIP3    H220857   4.682   2.914   4.121
 6965TIP3   OH220858   5.719   1.188   1.208
 6965TIP3    H120859   5.772   1.262   1.238
 6965TIP3    H220860   5.677   1.220   1.128
 6966TIP3   OH220861   2.390   1.182   0.780
 6966TIP3    H120862   2.459   1.145   0.834
 6966TIP3    H220863   2.317   1.121   0.790
 6967TIP3   OH220864   1.574   3.125   4.014
 6967TIP3    H120865   1.646   3.142   4.073
 6967TIP3    H220866   1.530   3.209   4.004
 6968TIP3   OH220867   0.822   2.092   2.120
 6968TIP3    H120868   0.827   2.086   2.024
 6968TIP3    H220869   0.836   2.185   2.138
 6969TIP3   OH220870   5.207   1.004   0.642
 6969TIP3    H120871   5.163   0.919   0.648
 6969TIP3    H220872   5.293   0.983   0.605
 6970TIP3   OH220873   5.735   6.248   2.075
 6970TIP3    H120874   5.742   6.338   2.043
 6970TIP3    H220875   5.757   6.194   1.999
 6971TIP3   OH220876   2.360   3.445   5.093
 6971TIP3    H120877   2.417   3.468   5.166
 6971TIP3    H220878   2.275   3.431   5.133
 6972TIP3   OH220879   3.855   5.067   4.857
 6972TIP3    H120880   3.771   5.024   4.842
 6972TIP3    H220881   3.842   5.120   4.935
 6973TIP3   OH220882   3.761   0.919   0.385
 6973TIP3    H120883   3.782   0.884   0.472
 6973TIP3    H220884   3.686   0.868   0.356
 6974TIP3   OH220885   3.614   5.411   2.305
 6974TIP3    H120886   3.520   5.403   2.322
 6974TIP3    H220887   3.625   5.499   2.271
 6975TIP3   OH220888   0.893   3.411   1.746
 6975TIP3    H120889   0.911   3.397   1.839
 6975TIP3    H220890   0.846   3.494   1.742
 6976TIP3   OH220891   3.682   2.979   2.654
 6976TIP3    H120892   3.587   2.979   2.661
 6976TIP3    H220893   3.700   3.021   2.570
 6977TIP3   OH220894   5.401   6.787   2.245
 6977TIP3    H120895   5.360   6.853   2.301
 6977TIP3    H220896   5.327   6.735   2.212
 6978TIP3   OH220897   1.623   5.178   1.470
 6978TIP3    H120898   1.574   5.243   1.520
 6978TIP3    H220899   1.698   5.157   1.526
 6979TIP3   OH220900   1.455   4.047   0.971
 6979TIP3    H120901   1.439   4.119   1.032
 6979TIP3    H220902   1.395   4.064   0.898
 6980TIP3   OH220903   1.357   5.956   0.137
 6980TIP3    H120904   1.358   5.917   0.050
 6980TIP3    H220905   1.432   6.015   0.137
 6981TIP3   OH220906   5.282   2.095   5.097
 6981TIP3    H120907   5.326   2.016   5.130
 6981TIP3    H220908   5.295   2.092   5.002
 6982TIP3   OH220909   5.103   1.308   2.567
 6982TIP3    H120910   5.035   1.365   2.530
 6982TIP3    H220911   5.117   1.241   2.501
 6983TIP3   OH220912   0.315   4.975   3.418
 6983TIP3    H120913   0.354   5.061   3.433
 6983TIP3    H220914   0.247   4.967   3.485
 6984TIP3   OH220915   0.909   0.276   5.456
 6984TIP3    H120916   0.998   0.249   5.480
 6984TIP3    H220917   0.853   0.227   5.516
 6985TIP3   OH220918   0.356   4.183   4.800
 6985TIP3    H120919   0.365   4.091   4.825
 6985TIP3    H220920   0.411   4.193   4.723
 6986TIP3   OH220921   0.902   5.976   2.519
 6986TIP3    H120922   0.976   5.918   2.531
 6986TIP3    H220923   0.937   6.064   2.533
 6987TIP3   OH220924   2.338   1.436   4.017
 6987TIP3    H120925   2.301   1.437   4.105
 6987TIP3    H220926   2.336   1.528   3.990
 6988TIP3   OH220927   0.329   1.052   0.279
 6988TIP3    H120928   0.371   1.050   0.365
 6988TIP3    H220929   0.314   0.960   0.257
 6989TIP3   OH220930   5.450   2.574   1.592
 6989TIP3    H120931   5.390   2.636   1.632
 6989TIP3    H220932   5.487   2.621   1.518
 6990TIP3   OH220933   2.652   2.108   5.735
 6990TIP3    H120934   2.589   2.180   5.725
 6990TIP3    H220935   2.697   2.104   5.651
 6991TIP3   OH220936   0.324   0.178   2.477
 6991TIP3    H120937   0.375   0.169   2.558
 6991TIP3    H220938   0.264   0.104   2.477
 6992TIP3   OH220939   4.577   5.406   1.011
 6992TIP3    H120940   4.630   5.433   0.936
 6992TIP3    H220941   4.601   5.466   1.081
 6993TIP3   OH220942   3.140   5.641   0.392
 6993TIP3    H120943   3.109   5.636   0.302
 6993TIP3    H220944   3.232   5.614   0.387
 6994TIP3   OH220945   2.737   5.857   1.675
 6994TIP3    H120946   2.774   5.769   1.669
 6994TIP3    H220947   2.696   5.871   1.590
 6995TIP3   OH220948   2.733   6.054   4.398
 6995TIP3    H120949   2.809   6.001   4.423
 6995TIP3    H220950   2.701   6.090   4.480
 6996TIP3   OH220951   5.029   1.236   1.798
 6996TIP3    H120952   5.063   1.162   1.748
 6996TIP3    H220953   5.094   1.305   1.784
 6997TIP3   OH220954   3.932   1.815   1.277
 6997TIP3    H120955   3.927   1.835   1.184
 6997TIP3    H220956   4.025   1.818   1.298
 6998TIP3   OH220957   1.820   2.740   0.488
 6998TIP3    H120958   1.777   2.769   0.569
 6998TIP3    H220959   1.790   2.650   0.476
 6999TIP3   OH220960   5.436   0.066   4.509
 6999TIP3    H120961   5.499   0.135   4.528
 6999TIP3    H220962   5.475  -0.013   4.547
 7000TIP3   OH220963   1.324   3.884   3.235
 7000TIP3    H120964   1.273   3.888   3.316
 7000TIP3    H220965   1.296   3.803   3.193
 7001TIP3   OH220966   6.726   6.569   1.944
 7001TIP3    H120967   6.673   6.491   1.926
 7001TIP3    H220968   6.683   6.640   1.896
 7002TIP3   OH220969   4.911   5.624   1.613
 7002TIP3    H120970   4.852   5.674   1.556
 7002TIP3    H220971   4.993   5.674   1.612
 7003TIP3   OH220972   0.713   3.124   4.432
 7003TIP3    H120973   0.632   3.077   4.451
 7003TIP3    H220974   0.782   3.066   4.465
 7004TIP3   OH220975   5.394   4.359   4.923
 7004TIP3    H120976   5.488   4.375   4.919
 7004TIP3    H220977   5.359   4.409   4.849
 7005TIP3   OH220978   5.261   1.567   1.320
 7005TIP3    H120979   5.242   1.522   1.238
 7005TIP3    H220980   5.345   1.532   1.348
 7006TIP3   OH220981   7.085   3.884   3.577
 7006TIP3    H120982   7.122   3.796   3.579
 7006TIP3    H220983   7.022   3.885   3.649
 7007TIP3   OH220984   0.096   3.779   1.704
 7007TIP3    H120985   0.146   3.851   1.742
 7007TIP3    H220986   0.158   3.706   1.700
 7008TIP3   OH220987   6.339   2.122   4.942
 7008TIP3    H120988   6.399   2.074   4.999
 7008TIP3    H220989   6.263   2.065   4.934
 7009TIP3   OH220990   1.590   1.248   4.398
 7009TIP3    H120991   1.521   1.270   4.460
 7009TIP3    H220992   1.670   1.244   4.451
 7010TIP3   OH220993   3.129   1.376   5.866
 7010TIP3    H120994   3.109   1.453   5.815
 7010TIP3    H220995   3.091   1.303   5.817
 7011TIP3   OH220996   2.621   6.350   4.954
 7011TIP3    H120997   2.681   6.292   5.002
 7011TIP3    H220998   2.566   6.388   5.022
 7012TIP3   OH220999   1.405   2.524   2.731
 7012TIP3    H121000   1.391   2.477   2.649
 7012TIP3    H221001   1.345   2.482   2.793
 7013TIP3   OH221002   3.309   2.853   2.896
 7013TIP3    H121003   3.224   2.864   2.852
 7013TIP3    H221004   3.287   2.811   2.980
 7014TIP3   OH221005   5.484   2.315   3.656
 7014TIP3    H121006   5.552   2.382   3.663
 7014TIP3    H221007   5.532   2.232   3.657
 7015TIP3   OH221008   4.297   0.753   1.451
 7015TIP3    H121009   4.330   0.835   1.487
 7015TIP3    H221010   4.327   0.686   1.512
 7016TIP3   OH221011   0.507   2.698   5.593
 7016TIP3    H121012   0.504   2.773   5.534
 7016TIP3    H221013   0.537   2.734   5.676
 7017TIP3   OH221014   6.634   6.250   1.241
 7017TIP3    H121015   6.560   6.296   1.281
 7017TIP3    H221016   6.710   6.281   1.289
 7018TIP3   OH221017   4.573   1.790   3.194
 7018TIP3    H121018   4.600   1.817   3.281
 7018TIP3    H221019   4.627   1.842   3.134
 7019TIP3   OH221020   0.779   6.273   0.014
 7019TIP3    H121021   0.802   6.347  -0.042
 7019TIP3    H221022   0.728   6.311   0.085
 7020TIP3   OH221023   6.103   6.536   3.081
 7020TIP3    H121024   6.180   6.485   3.053
 7020TIP3    H221025   6.096   6.606   3.016
 7021TIP3   OH221026   5.636   0.714   0.231
 7021TIP3    H121027   5.622   0.724   0.137
 7021TIP3    H221028   5.549   0.690   0.265
 7022TIP3   OH221029   5.191   3.720   2.285
 7022TIP3    H121030   5.282   3.701   2.261
 7022TIP3    H221031   5.149   3.634   2.290
 7023TIP3   OH221032   1.251   2.169   2.559
 7023TIP3    H121033   1.308   2.173   2.635
 7023TIP3    H221034   1.175   2.119   2.588
 7024TIP3   OH221035   6.737   1.987   2.397
 7024TIP3    H121036   6.669   1.949   2.453
 7024TIP3    H221037   6.785   2.047   2.454
 7025TIP3   OH221038   0.519   5.879   2.058
 7025TIP3    H121039   0.507   5.814   2.127
 7025TIP3    H221040   0.534   5.828   1.979
 7026TIP3   OH221041   6.667   1.775   0.861
 7026TIP3    H121042   6.666   1.825   0.943
 7026TIP3    H221043   6.608   1.822   0.803
 7027TIP3   OH221044   3.346   0.101   3.775
 7027TIP3    H121045   3.424   0.085   3.828
 7027TIP3    H221046   3.363   0.185   3.732
 7028TIP3   OH221047   5.529   3.070   5.050
 7028TIP3    H121048   5.611   3.041   5.090
 7028TIP3    H221049   5.508   3.002   4.985
 7029TIP3   OH221050   3.823   6.563   1.774
 7029TIP3    H121051   3.733   6.538   1.796
 7029TIP3    H221052   3.875   6.486   1.799
 7030TIP3   OH221053   5.413   6.011   2.277
 7030TIP3    H121054   5.369   5.956   2.341
 7030TIP3    H221055   5.500   5.974   2.268
 7031TIP3   OH221056   3.042   1.915   2.692
 7031TIP3    H121057   3.066   1.923   2.784
 7031TIP3    H221058   3.114   1.956   2.645
 7032TIP3   OH221059   0.568   5.821   5.833
 7032TIP3    H121060   0.490   5.772   5.857
 7032TIP3    H221061   0.629   5.807   5.906
 7033TIP3   OH221062   2.280   6.395   2.630
 7033TIP3    H121063   2.331   6.383   2.711
 7033TIP3    H221064   2.324   6.467   2.585
 7034TIP3   OH221065   2.398   5.287   5.680
 7034TIP3    H121066   2.409   5.270   5.587
 7034TIP3    H221067   2.437   5.373   5.694
 7035TIP3   OH221068   0.026   1.138   0.343
 7035TIP3    H121069   0.112   1.147   0.302
 7035TIP3    H221070   0.044   1.111   0.433
 7036TIP3   OH221071   1.198   0.229   1.573
 7036TIP3    H121072   1.217   0.308   1.523
 7036TIP3    H221073   1.118   0.250   1.622
 7037TIP3   OH221074   0.254   1.251   4.223
 7037TIP3    H121075   0.292   1.338   4.212
 7037TIP3    H221076   0.264   1.209   4.137
 7038TIP3   OH221077   1.676   6.504   0.896
 7038TIP3    H121078   1.696   6.580   0.951
 7038TIP3    H221079   1.630   6.540   0.820
 7039TIP3   OH221080   1.761   0.507   5.321
 7039TIP3    H121081   1.827   0.448   5.285
 7039TIP3    H221082   1.730   0.557   5.246
 7040TIP3   OH221083   2.735   6.578   0.321
 7040TIP3    H121084   2.814   6.630   0.308
 7040TIP3    H221085   2.695   6.572   0.234
 7041TIP3   OH221086   1.775   4.945   1.325
 7041TIP3    H121087   1.828   4.949   1.405
 7041TIP3    H221088   1.738   5.033   1.317
 7042TIP3   OH221089   2.150   5.363   1.950
 7042TIP3    H121090   2.077   5.317   1.992
 7042TIP3    H221091   2.221   5.361   2.014
 7043TIP3   OH221092   6.581   0.982   4.769
 7043TIP3    H121093   6.615   0.931   4.695
 7043TIP3    H221094   6.597   0.927   4.846
 7044TIP3   OH221095   4.223   1.945   5.824
 7044TIP3    H121096   4.290   1.884   5.854
 7044TIP3    H221097   4.250   1.969   5.735
 7045TIP3   OH221098   6.526   4.551   2.340
 7045TIP3    H121099   6.573   4.473   2.368
 7045TIP3    H221100   6.513   4.539   2.246
 7046TIP3   OH221101   2.899   0.191   1.395
 7046TIP3    H121102   2.895   0.230   1.308
 7046TIP3    H221103   2.968   0.239   1.440
 7047TIP3   OH221104   1.658   2.488   1.845
 7047TIP3    H121105   1.613   2.483   1.930
 7047TIP3    H221106   1.592   2.523   1.786
 7048TIP3   OH221107   3.552   2.432   4.294
 7048TIP3    H121108   3.582   2.479   4.371
 7048TIP3    H221109   3.465   2.468   4.277
 7049TIP3   OH221110   4.560   3.023   2.338
 7049TIP3    H121111   4.592   2.990   2.422
 7049TIP3    H221112   4.473   3.058   2.358
 7050TIP3   OH221113   0.023   4.729   4.798
 7050TIP3    H121114   0.001   4.688   4.714
 7050TIP3    H221115  -0.062   4.748   4.837
 7051TIP3   OH221116   4.228   6.213   0.412
 7051TIP3    H121117   4.270   6.297   0.434
 7051TIP3    H221118   4.259   6.153   0.479
 7052TIP3   OH221119   1.358   2.570   2.206
 7052TIP3    H121120   1.299   2.633   2.246
 7052TIP3    H221121   1.431   2.564   2.268
 7053TIP3   OH221122   1.022   3.423   4.436
 7053TIP3    H121123   0.928   3.411   4.447
 7053TIP3    H221124   1.061   3.358   4.494
 7054TIP3   OH221125   0.301   6.135   2.190
 7054TIP3    H121126   0.292   6.047   2.228
 7054TIP3    H221127   0.228   6.185   2.226
 7055TIP3   OH221128   6.639   0.999   3.110
 7055TIP3    H121129   6.669   1.077   3.155
 7055TIP3    H221130   6.574   0.960   3.169
 7056TIP3   OH221131   3.407   0.313   0.848
 7056TIP3    H121132   3.355   0.326   0.927
 7056TIP3    H221133   3.434   0.221   0.852
 7057TIP3   OH221134   2.262   2.789   2.800
 7057TIP3    H121135   2.189   2.763   2.857
 7057TIP3    H221136   2.315   2.710   2.792
 7058TIP3   OH221137   6.890   6.690   0.520
 7058TIP3    H121138   6.800   6.722   0.509
 7058TIP3    H221139   6.880   6.597   0.539
 7059TIP3   OH221140   5.793   3.444   4.289
 7059TIP3    H121141   5.885   3.425   4.272
 7059TIP3    H221142   5.755   3.461   4.203
 7060TIP3   OH221143   5.597   4.179   2.599
 7060TIP3    H121144   5.590   4.240   2.525
 7060TIP3    H221145   5.510   4.139   2.604
 7061TIP3   OH221146   0.179   5.195   2.781
 7061TIP3    H121147   0.172   5.145   2.699
 7061TIP3    H221148   0.251   5.256   2.765
 7062TIP3   OH221149   4.479   2.551   1.839
 7062TIP3    H121150   4.461   2.530   1.748
 7062TIP3    H221151   4.519   2.472   1.875
 7063TIP3   OH221152   2.560   2.295   3.267
 7063TIP3    H121153   2.506   2.338   3.333
 7063TIP3    H221154   2.498   2.253   3.208
 7064TIP3   OH221155   3.677   1.743   1.335
 7064TIP3    H121156   3.659   1.649   1.330
 7064TIP3    H221157   3.771   1.749   1.317
 7065TIP3   OH221158   4.471   2.429   2.973
 7065TIP3    H121159   4.444   2.512   3.010
 7065TIP3    H221160   4.424   2.423   2.890
 7066TIP3   OH221161   6.114   3.070   5.251
 7066TIP3    H121162   6.182   3.132   5.278
 7066TIP3    H221163   6.104   3.086   5.157
 7067TIP3   OH221164   4.442   1.394   3.310
 7067TIP3    H121165   4.348   1.380   3.322
 7067TIP3    H221166   4.452   1.413   3.217
 7068TIP3   OH221167   6.605   3.989   0.478
 7068TIP3    H121168   6.608   4.042   0.558
 7068TIP3    H221169   6.674   4.026   0.423
 7069TIP3   OH221170   5.885   2.245   3.874
 7069TIP3    H121171   5.875   2.221   3.782
 7069TIP3    H221172   5.810   2.204   3.918
 7070TIP3   OH221173   0.252   1.897   5.556
 7070TIP3    H121174   0.231   1.896   5.650
 7070TIP3    H221175   0.305   1.976   5.544
 7071TIP3   OH221176   2.840   1.319   1.783
 7071TIP3    H121177   2.896   1.281   1.851
 7071TIP3    H221178   2.778   1.374   1.831
 7072TIP3   OH221179   2.218   5.881   4.242
 7072TIP3    H121180   2.272   5.934   4.301
 7072TIP3    H221181   2.229   5.923   4.156
 7073TIP3   OH221182   3.968   5.277   1.781
 7073TIP3    H121183   4.063   5.270   1.767
 7073TIP3    H221184   3.936   5.325   1.705
 7074TIP3   OH221185   4.044   2.419   5.657
 7074TIP3    H121186   3.982   2.492   5.660
 7074TIP3    H221187   4.103   2.440   5.585
 7075TIP3   OH221188   2.978   4.368   4.813
 7075TIP3    H121189   2.939   4.443   4.858
 7075TIP3    H221190   2.939   4.292   4.857
 7076TIP3   OH221191   0.583   5.110   2.687
 7076TIP3    H121192   0.513   5.174   2.676
 7076TIP3    H221193   0.556   5.035   2.634
 7077TIP3   OH221194   6.706   5.149   5.737
 7077TIP3    H121195   6.715   5.229   5.684
 7077TIP3    H221196   6.639   5.097   5.692
 7078TIP3   OH221197   2.263   1.546   0.224
 7078TIP3    H121198   2.355   1.520   0.210
 7078TIP3    H221199   2.227   1.554   0.136
 7079TIP3   OH221200   3.496   5.300   0.717
 7079TIP3    H121201   3.419   5.294   0.775
 7079TIP3    H221202   3.559   5.240   0.755
 7080TIP3   OH221203   1.028   2.406   0.642
 7080TIP3    H121204   1.013   2.491   0.684
 7080TIP3    H221205   1.029   2.426   0.548
 7081TIP3   OH221206   2.797   0.252   3.672
 7081TIP3    H121207   2.868   0.206   3.626
 7081TIP3    H221208   2.837   0.334   3.701
 7082TIP3   OH221209   2.883   1.750   1.446
 7082TIP3    H121210   2.860   1.710   1.362
 7082TIP3    H221211   2.848   1.839   1.440
 7083TIP3   OH221212   1.037   6.597   0.523
 7083TIP3    H121213   1.065   6.585   0.614
 7083TIP3    H221214   1.094   6.540   0.472
 7084TIP3   OH221215   1.608   3.645   4.515
 7084TIP3    H121216   1.620   3.550   4.526
 7084TIP3    H221217   1.527   3.652   4.465
 7085TIP3   OH221218   7.158   5.729   4.201
 7085TIP3    H121219   7.154   5.818   4.235
 7085TIP3    H221220   7.067   5.708   4.179
 7086TIP3   OH221221   3.979   1.982   5.735
 7086TIP3    H121222   4.052   1.961   5.794
 7086TIP3    H221223   3.974   1.908   5.675
 7087TIP3   OH221224   1.974   4.194   3.779
 7087TIP3    H121225   2.030   4.239   3.714
 7087TIP3    H221226   2.012   4.106   3.785
 7088TIP3   OH221227   1.809   6.297   1.400
 7088TIP3    H121228   1.756   6.223   1.429
 7088TIP3    H221229   1.799   6.299   1.305
 7089TIP3   OH221230   5.744   1.012   2.109
 7089TIP3    H121231   5.832   1.045   2.128
 7089TIP3    H221232   5.743   0.998   2.015
 7090TIP3   OH221233   5.605   6.179   5.428
 7090TIP3    H121234   5.603   6.104   5.369
 7090TIP3    H221235   5.582   6.254   5.373
 7091TIP3   OH221236   1.240   2.858   1.021
 7091TIP3    H121237   1.163   2.806   1.044
 7091TIP3    H221238   1.247   2.851   0.926
 7092TIP3   OH221239   5.312   6.190   1.865
 7092TIP3    H121240   5.257   6.169   1.940
 7092TIP3    H221241   5.373   6.256   1.898
 7093TIP3   OH221242   6.445   2.644   1.129
 7093TIP3    H121243   6.510   2.701   1.171
 7093TIP3    H221244   6.489   2.560   1.121
 7094TIP3   OH221245   3.662   1.785   2.556
 7094TIP3    H121246   3.590   1.724   2.543
 7094TIP3    H221247   3.620   1.866   2.586
 7095TIP3   OH221248   3.755   5.327   4.645
 7095TIP3    H121249   3.833   5.289   4.683
 7095TIP3    H221250   3.683   5.292   4.696
 7096TIP3   OH221251   1.978   4.861   5.681
 7096TIP3    H121252   1.887   4.831   5.687
 7096TIP3    H221253   2.019   4.828   5.762
 7097TIP3   OH221254   2.622   5.519   0.659
 7097TIP3    H121255   2.709   5.555   0.644
 7097TIP3    H221256   2.627   5.429   0.629
 7098TIP3   OH221257   3.196   2.240   3.977
 7098TIP3    H121258   3.259   2.209   4.042
 7098TIP3    H221259   3.238   2.225   3.893
 7099TIP3   OH221260   4.165   4.450   1.046
 7099TIP3    H121261   4.097   4.457   1.113
 7099TIP3    H221262   4.132   4.500   0.972
 7100TIP3   OH221263   7.116   5.343   2.632
 7100TIP3    H121264   7.092   5.252   2.652
 7100TIP3    H221265   7.032   5.388   2.624
 7101TIP3   OH221266   4.898   3.697   2.998
 7101TIP3    H121267   4.850   3.643   2.936
 7101TIP3    H221268   4.853   3.683   3.082
 7102TIP3   OH221269   0.248   3.693   4.312
 7102TIP3    H121270   0.245   3.788   4.309
 7102TIP3    H221271   0.337   3.670   4.287
 7103TIP3   OH221272   3.781   5.567   4.093
 7103TIP3    H121273   3.875   5.590   4.093
 7103TIP3    H221274   3.772   5.504   4.165
 7104TIP3   OH221275   1.014   1.588   4.939
 7104TIP3    H121276   1.068   1.650   4.987
 7104TIP3    H221277   1.073   1.552   4.872
 7105TIP3   OH221278   3.855   4.686   2.202
 7105TIP3    H121279   3.933   4.639   2.170
 7105TIP3    H221280   3.783   4.647   2.153
 7106TIP3   OH221281   6.679   0.991   1.521
 7106TIP3    H121282   6.630   1.008   1.441
 7106TIP3    H221283   6.641   1.050   1.586
 7107TIP3   OH221284   1.594   1.395   5.340
 7107TIP3    H121285   1.518   1.431   5.294
 7107TIP3    H221286   1.619   1.319   5.288
 7108TIP3   OH221287   4.170   5.152   4.081
 7108TIP3    H121288   4.140   5.206   4.008
 7108TIP3    H221289   4.266   5.160   4.079
 7109TIP3   OH221290   5.129   2.839   1.028
 7109TIP3    H121291   5.156   2.929   1.048
 7109TIP3    H221292   5.036   2.846   1.006
 7110TIP3   OH221293   0.029   6.620   0.962
 7110TIP3    H121294   0.115   6.601   0.924
 7110TIP3    H221295   0.041   6.605   1.055
 7111TIP3   OH221296   2.070   0.669   0.202
 7111TIP3    H121297   1.976   0.653   0.197
 7111TIP3    H221298   2.102   0.604   0.266
 7112TIP3   OH221299   6.176   6.207   5.782
 7112TIP3    H121300   6.237   6.222   5.855
 7112TIP3    H221301   6.222   6.238   5.705
 7113TIP3   OH221302   2.620   4.812   2.222
 7113TIP3    H121303   2.639   4.904   2.238
 7113TIP3    H221304   2.665   4.765   2.292
 7114TIP3   OH221305   4.216   2.869   0.552
 7114TIP3    H121306   4.195   2.958   0.582
 7114TIP3    H221307   4.181   2.865   0.463
 7115TIP3   OH221308   4.866   6.790   3.212
 7115TIP3    H121309   4.882   6.885   3.212
 7115TIP3    H221310   4.798   6.778   3.279
 7116TIP3   OH221311   2.069   5.913   5.712
 7116TIP3    H121312   2.038   5.904   5.802
 7116TIP3    H221313   1.996   5.954   5.665
 7117TIP3   OH221314   5.955   1.091   4.202
 7117TIP3    H121315   5.945   1.072   4.109
 7117TIP3    H221316   5.932   1.184   4.210
 7118TIP3   OH221317   3.943   2.011   0.260
 7118TIP3    H121318   3.894   2.074   0.207
 7118TIP3    H221319   3.974   1.945   0.198
 7119TIP3   OH221320   0.455   0.569   2.250
 7119TIP3    H121321   0.463   0.474   2.255
 7119TIP3    H221322   0.506   0.602   2.324
 7120TIP3   OH221323   6.191   5.901   0.693
 7120TIP3    H121324   6.186   5.816   0.649
 7120TIP3    H221325   6.278   5.902   0.734
 7121TIP3   OH221326   6.327   6.383   3.051
 7121TIP3    H121327   6.283   6.325   3.114
 7121TIP3    H221328   6.399   6.422   3.100
 7122TIP3   OH221329   3.664   4.812   4.798
 7122TIP3    H121330   3.576   4.780   4.778
 7122TIP3    H221331   3.709   4.809   4.713
 7123TIP3   OH221332   0.375   4.656   1.305
 7123TIP3    H121333   0.386   4.561   1.302
 7123TIP3    H221334   0.300   4.673   1.248
 7124TIP3   OH221335   4.821   4.232   1.348
 7124TIP3    H121336   4.906   4.269   1.372
 7124TIP3    H221337   4.771   4.234   1.429
 7125TIP3   OH221338   6.499   5.033   4.214
 7125TIP3    H121339   6.574   5.085   4.242
 7125TIP3    H221340   6.456   5.006   4.296
 7126TIP3   OH221341   5.658   0.477   0.417
 7126TIP3    H121342   5.740   0.510   0.382
 7126TIP3    H221343   5.684   0.422   0.492
 7127TIP3   OH221344   4.002   1.090   4.285
 7127TIP3    H121345   4.061   1.031   4.332
 7127TIP3    H221346   3.920   1.043   4.279
 7128TIP3   OH221347   2.221   1.933   3.215
 7128TIP3    H121348   2.174   1.964   3.138
 7128TIP3    H221349   2.310   1.968   3.205
 7129TIP3   OH221350   2.601   3.583   2.374
 7129TIP3    H121351   2.629   3.492   2.369
 7129TIP3    H221352   2.665   3.630   2.320
 7130TIP3   OH221353   5.296   2.507   4.422
 7130TIP3    H121354   5.392   2.501   4.424
 7130TIP3    H221355   5.266   2.418   4.444
 7131TIP3   OH221356   4.993   5.117   3.532
 7131TIP3    H121357   4.928   5.146   3.596
 7131TIP3    H221358   4.943   5.075   3.462
 7132TIP3   OH221359   4.424   0.166   5.239
 7132TIP3    H121360   4.338   0.152   5.200
 7132TIP3    H221361   4.474   0.088   5.214
 7133TIP3   OH221362   7.092   5.356   4.877
 7133TIP3    H121363   7.182   5.352   4.907
 7133TIP3    H221364   7.068   5.448   4.883
 7134TIP3   OH221365   0.577   5.153   0.182
 7134TIP3    H121366   0.591   5.171   0.089
 7134TIP3    H221367   0.643   5.205   0.227
 7135TIP3   OH221368   1.535   0.454   5.727
 7135TIP3    H121369   1.519   0.413   5.642
 7135TIP3    H221370   1.627   0.434   5.746
 7136TIP3   OH221371   2.927   5.875   4.523
 7136TIP3    H121372   2.964   5.917   4.600
 7136TIP3    H221373   3.003   5.845   4.473
 7137TIP3   OH221374   6.244   1.701   5.419
 7137TIP3    H121375   6.337   1.680   5.414
 7137TIP3    H221376   6.217   1.669   5.505
 7138TIP3   OH221377   6.696   5.923   2.372
 7138TIP3    H121378   6.622   5.871   2.342
 7138TIP3    H221379   6.726   5.879   2.451
 7139TIP3   OH221380   4.004   0.214   5.505
 7139TIP3    H121381   4.033   0.253   5.423
 7139TIP3    H221382   4.044   0.268   5.573
 7140TIP3   OH221383   3.262   2.108   4.938
 7140TIP3    H121384   3.187   2.163   4.914
 7140TIP3    H221385   3.226   2.044   4.999
 7141TIP3   OH221386   7.093   3.360   5.823
 7141TIP3    H121387   7.030   3.332   5.889
 7141TIP3    H221388   7.142   3.281   5.802
 7142TIP3   OH221389   6.104   4.060   3.737
 7142TIP3    H121390   6.038   4.129   3.740
 7142TIP3    H221391   6.069   3.996   3.676
 7143TIP3   OH221392   3.435   4.378   5.060
 7143TIP3    H121393   3.416   4.339   5.145
 7143TIP3    H221394   3.350   4.384   5.017
 7144TIP3   OH221395   2.480   0.201   0.339
 7144TIP3    H121396   2.425   0.196   0.416
 7144TIP3    H221397   2.559   0.247   0.368
 7145TIP3   OH221398   6.971   2.359   0.974
 7145TIP3    H121399   7.061   2.355   1.008
 7145TIP3    H221400   6.983   2.353   0.879
 7146TIP3   OH221401   3.866   2.061   2.401
 7146TIP3    H121402   3.920   2.029   2.328
 7146TIP3    H221403   3.790   2.102   2.358
 7147TIP3   OH221404   1.222   5.956   3.308
 7147TIP3    H121405   1.129   5.974   3.294
 7147TIP3    H221406   1.227   5.861   3.314
 7148TIP3   OH221407   5.750   0.125   0.404
 7148TIP3    H121408   5.728   0.081   0.487
 7148TIP3    H221409   5.845   0.136   0.408
 7149TIP3   OH221410   6.593   6.689   0.226
 7149TIP3    H121411   6.558   6.620   0.171
 7149TIP3    H221412   6.540   6.766   0.206
 7150TIP3   OH221413   2.775   0.582   5.249
 7150TIP3    H121414   2.734   0.571   5.335
 7150TIP3    H221415   2.706   0.557   5.187
 7151TIP3   OH221416   4.109   0.682   5.341
 7151TIP3    H121417   4.129   0.710   5.252
 7151TIP3    H221418   4.189   0.639   5.371
 7152TIP3   OH221419   1.337   4.021   1.286
 7152TIP3    H121420   1.321   3.927   1.276
 7152TIP3    H221421   1.433   4.028   1.291
 7153TIP3   OH221422   0.634   5.928   5.575
 7153TIP3    H121423   0.610   5.909   5.665
 7153TIP3    H221424   0.640   5.842   5.533
 7154TIP3   OH221425   5.686   0.680   3.335
 7154TIP3    H121426   5.628   0.631   3.394
 7154TIP3    H221427   5.675   0.637   3.250
 7155TIP3   OH221428   3.097   4.209   5.866
 7155TIP3    H121429   3.108   4.269   5.940
 7155TIP3    H221430   3.168   4.233   5.806
 7156TIP3   OH221431   0.803   3.928   3.041
 7156TIP3    H121432   0.741   3.974   3.097
 7156TIP3    H221433   0.874   3.990   3.027
 7157TIP3   OH221434   6.073   4.479   0.545
 7157TIP3    H121435   6.140   4.495   0.611
 7157TIP3    H221436   5.990   4.496   0.590
 7158TIP3   OH221437   6.952   4.068   3.421
 7158TIP3    H121438   7.007   4.001   3.460
 7158TIP3    H221439   7.011   4.142   3.405
 7159TIP3   OH221440   1.533   2.929   0.494
 7159TIP3    H121441   1.587   2.897   0.566
 7159TIP3    H221442   1.536   2.860   0.428
 7160TIP3   OH221443   5.511   1.817   0.081
 7160TIP3    H121444   5.517   1.909   0.107
 7160TIP3    H221445   5.483   1.819  -0.010
 7161TIP3   OH221446   4.018   6.031   0.340
 7161TIP3    H121447   3.943   6.020   0.398
 7161TIP3    H221448   4.065   6.107   0.375
 7162TIP3   OH221449   0.539   1.804   5.892
 7162TIP3    H121450   0.463   1.823   5.946
 7162TIP3    H221451   0.542   1.875   5.828
 7163TIP3   OH221452   3.727   5.354   5.375
 7163TIP3    H121453   3.639   5.317   5.368
 7163TIP3    H221454   3.754   5.371   5.285
 7164TIP3   OH221455   4.818   1.892   0.685
 7164TIP3    H121456   4.816   1.809   0.732
 7164TIP3    H221457   4.781   1.871   0.599
 7165TIP3   OH221458   6.545   1.468   1.431
 7165TIP3    H121459   6.616   1.532   1.429
 7165TIP3    H221460   6.584   1.387   1.398
 7166TIP3   OH221461   6.578   5.357   2.360
 7166TIP3    H121462   6.567   5.266   2.332
 7166TIP3    H221463   6.629   5.398   2.291
 7167TIP3   OH221464   2.815   1.358   3.266
 7167TIP3    H121465   2.727   1.391   3.247
 7167TIP3    H221466   2.871   1.435   3.260
 7168TIP3   OH221467   1.560   1.407   3.326
 7168TIP3    H121468   1.550   1.360   3.409
 7168TIP3    H221469   1.651   1.438   3.328
 7169TIP3   OH221470   3.433   1.464   2.329
 7169TIP3    H121471   3.350   1.438   2.367
 7169TIP3    H221472   3.499   1.436   2.393
 7170TIP3   OH221473   2.505   2.530   4.216
 7170TIP3    H121474   2.584   2.571   4.253
 7170TIP3    H221475   2.433   2.565   4.268
 7171TIP3   OH221476   1.592   6.614   5.662
 7171TIP3    H121477   1.499   6.619   5.686
 7171TIP3    H221478   1.638   6.657   5.734
 7172TIP3   OH221479   1.230   6.793   4.946
 7172TIP3    H121480   1.318   6.809   4.980
 7172TIP3    H221481   1.229   6.699   4.926
 7173TIP3   OH221482   5.026   0.071   2.764
 7173TIP3    H121483   5.022  -0.020   2.735
 7173TIP3    H221484   4.936   0.101   2.762
 7174TIP3   OH221485   6.661   1.364   4.874
 7174TIP3    H121486   6.596   1.427   4.845
 7174TIP3    H221487   6.745   1.402   4.848
 7175TIP3   OH221488   6.077   1.236   0.313
 7175TIP3    H121489   6.158   1.222   0.265
 7175TIP3    H221490   6.016   1.271   0.249
 7176TIP3   OH221491   5.660   5.653   0.259
 7176TIP3    H121492   5.662   5.562   0.230
 7176TIP3    H221493   5.633   5.650   0.350
 7177TIP3   OH221494   6.778   0.639   4.244
 7177TIP3    H121495   6.812   0.550   4.244
 7177TIP3    H221496   6.712   0.640   4.175
 7178TIP3   OH221497   6.028   6.331   4.333
 7178TIP3    H121498   6.061   6.413   4.296
 7178TIP3    H221499   6.032   6.344   4.428
 7179TIP3   OH221500   5.804   1.874   4.610
 7179TIP3    H121501   5.738   1.836   4.668
 7179TIP3    H221502   5.883   1.822   4.626
 7180TIP3   OH221503   0.051   5.895   2.643
 7180TIP3    H121504   0.033   5.818   2.590
 7180TIP3    H221505   0.065   5.965   2.579
 7181TIP3   OH221506   4.201   1.518   0.754
 7181TIP3    H121507   4.200   1.505   0.849
 7181TIP3    H221508   4.154   1.443   0.719
 7182TIP3   OH221509   3.548   5.781   1.138
 7182TIP3    H121510   3.552   5.850   1.203
 7182TIP3    H221511   3.476   5.806   1.081
 7183TIP3   OH221512   5.047   3.634   4.847
 7183TIP3    H121513   5.033   3.618   4.754
 7183TIP3    H221514   5.008   3.720   4.863
 7184TIP3   OH221515   3.981   6.694   4.934
 7184TIP3    H121516   4.055   6.680   4.992
 7184TIP3    H221517   3.915   6.737   4.988
 7185TIP3   OH221518   0.772   2.821   3.532
 7185TIP3    H121519   0.711   2.790   3.464
 7185TIP3    H221520   0.810   2.901   3.495
 7186TIP3   OH221521   2.690   3.847   2.670
 7186TIP3    H121522   2.606   3.890   2.655
 7186TIP3    H221523   2.710   3.865   2.762
 7187TIP3   OH221524   3.025   1.190   4.148
 7187TIP3    H121525   3.084   1.119   4.121
 7187TIP3    H221526   2.949   1.145   4.183
 7188TIP3   OH221527   3.027   3.151   3.911
 7188TIP3    H121528   2.936   3.180   3.903
 7188TIP3    H221529   3.077   3.232   3.924
 7189TIP3   OH221530   3.195   5.390   4.356
 7189TIP3    H121531   3.255   5.464   4.346
 7189TIP3    H221532   3.159   5.400   4.444
 7190TIP3   OH221533   0.442   5.949   3.225
 7190TIP3    H121534   0.458   5.941   3.131
 7190TIP3    H221535   0.395   6.031   3.234
 7191TIP3   OH221536   1.754   5.351   5.867
 7191TIP3    H121537   1.693   5.296   5.818
 7191TIP3    H221538   1.834   5.352   5.813
 7192TIP3   OH221539   2.110   5.631   1.922
 7192TIP3    H121540   2.088   5.624   1.830
 7192TIP3    H221541   2.117   5.540   1.952
 7193TIP3   OH221542   4.538   5.077   5.243
 7193TIP3    H121543   4.481   5.035   5.179
 7193TIP3    H221544   4.619   5.092   5.196
 7194TIP3   OH221545   0.494   3.458   4.611
 7194TIP3    H121546   0.407   3.498   4.605
 7194TIP3    H221547   0.481   3.382   4.666
 7195TIP3   OH221548   5.373   4.856   3.754
 7195TIP3    H121549   5.339   4.794   3.690
 7195TIP3    H221550   5.396   4.934   3.703
 7196TIP3   OH221551   0.119   0.774   0.789
 7196TIP3    H121552   0.132   0.802   0.879
 7196TIP3    H221553   0.158   0.687   0.784
 7197TIP3   OH221554   4.776   2.569   2.055
 7197TIP3    H121555   4.795   2.594   2.145
 7197TIP3    H221556   4.709   2.631   2.026
 7198TIP3   OH221557   4.557   5.205   5.796
 7198TIP3    H121558   4.485   5.202   5.860
 7198TIP3    H221559   4.513   5.207   5.711
 7199TIP3   OH221560   1.016   4.797   4.224
 7199TIP3    H121561   0.949   4.850   4.267
 7199TIP3    H221562   1.021   4.718   4.278
 7200TIP3   OH221563   0.632   1.598   4.326
 7200TIP3    H121564   0.646   1.518   4.275
 7200TIP3    H221565   0.612   1.567   4.414
 7201TIP3   OH221566   1.705   5.137   4.478
 7201TIP3    H121567   1.799   5.134   4.459
 7201TIP3    H221568   1.670   5.200   4.415
 7202TIP3   OH221569   2.046   6.575   2.783
 7202TIP3    H121570   2.044   6.639   2.712
 7202TIP3    H221571   2.132   6.589   2.824
 7203TIP3   OH221572   3.210   5.357   1.816
 7203TIP3    H121573   3.179   5.302   1.889
 7203TIP3    H221574   3.140   5.422   1.804
 7204TIP3   OH221575   2.615   0.745   2.861
 7204TIP3    H121576   2.706   0.752   2.834
 7204TIP3    H221577   2.611   0.663   2.910
 7205TIP3   OH221578   3.058   5.534   2.321
 7205TIP3    H121579   3.036   5.441   2.332
 7205TIP3    H221580   2.998   5.580   2.379
 7206TIP3   OH221581   2.468   1.280   1.264
 7206TIP3    H121582   2.502   1.311   1.348
 7206TIP3    H221583   2.463   1.185   1.274
 7207TIP3   OH221584   1.264   1.292   1.002
 7207TIP3    H121585   1.256   1.357   0.932
 7207TIP3    H221586   1.244   1.208   0.959
 7208TIP3   OH221587   3.680   3.501   3.210
 7208TIP3    H121588   3.609   3.548   3.254
 7208TIP3    H221589   3.638   3.462   3.133
 7209TIP3   OH221590   5.752   6.069   4.490
 7209TIP3    H121591   5.711   6.148   4.453
 7209TIP3    H221592   5.679   6.021   4.530
 7210TIP3   OH221593   6.162   1.320   2.381
 7210TIP3    H121594   6.068   1.330   2.368
 7210TIP3    H221595   6.192   1.407   2.409
 7211TIP3   OH221596   3.867   1.272   4.695
 7211TIP3    H121597   3.879   1.184   4.660
 7211TIP3    H221598   3.808   1.260   4.769
 7212TIP3   OH221599   2.413   5.439   4.828
 7212TIP3    H121600   2.490   5.408   4.781
 7212TIP3    H221601   2.411   5.534   4.811
 7213TIP3   OH221602   0.175   2.944   1.537
 7213TIP3    H121603   0.109   2.996   1.583
 7213TIP3    H221604   0.236   2.917   1.605
 7214TIP3   OH221605   0.979   0.781   1.764
 7214TIP3    H121606   1.012   0.866   1.792
 7214TIP3    H221607   0.905   0.764   1.823
 7215TIP3   OH221608   5.877   2.072   1.234
 7215TIP3    H121609   5.965   2.089   1.200
 7215TIP3    H221610   5.822   2.063   1.156
 7216TIP3   OH221611   5.566   4.547   1.291
 7216TIP3    H121612   5.500   4.605   1.330
 7216TIP3    H221613   5.516   4.492   1.230
 7217TIP3   OH221614   4.354   1.761   2.212
 7217TIP3    H121615   4.312   1.716   2.138
 7217TIP3    H221616   4.318   1.850   2.209
 7218TIP3   OH221617   5.889   0.851   1.541
 7218TIP3    H121618   5.819   0.817   1.486
 7218TIP3    H221619   5.896   0.789   1.613
 7219TIP3   OH221620   1.781   0.747   0.155
 7219TIP3    H121621   1.705   0.739   0.213
 7219TIP3    H221622   1.770   0.833   0.113
 7220TIP3   OH221623   7.101   5.674   0.391
 7220TIP3    H121624   7.104   5.769   0.408
 7220TIP3    H221625   7.057   5.638   0.468
 7221TIP3   OH221626   0.410   0.074   3.383
 7221TIP3    H121627   0.315   0.084   3.380
 7221TIP3    H221628   0.425  -0.017   3.357
 7222TIP3   OH221629   0.640   5.255   0.567
 7222TIP3    H121630   0.585   5.198   0.514
 7222TIP3    H221631   0.682   5.196   0.630
 7223TIP3   OH221632   3.794   0.326   0.589
 7223TIP3    H121633   3.825   0.403   0.636
 7223TIP3    H221634   3.700   0.341   0.577
 7224TIP3   OH221635   2.470   6.366   2.188
 7224TIP3    H121636   2.505   6.332   2.270
 7224TIP3    H221637   2.440   6.288   2.141
 7225TIP3   OH221638   5.169   0.186   4.578
 7225TIP3    H121639   5.078   0.175   4.549
 7225TIP3    H221640   5.219   0.129   4.520
 7226TIP3   OH221641   5.406   5.065   3.535
 7226TIP3    H121642   5.325   5.073   3.485
 7226TIP3    H221643   5.470   5.033   3.472
 7227TIP3   OH221644   3.808   3.591   5.849
 7227TIP3    H121645   3.787   3.582   5.942
 7227TIP3    H221646   3.825   3.685   5.838
 7228TIP3   OH221647   3.536   3.546   4.242
 7228TIP3    H121648   3.588   3.621   4.212
 7228TIP3    H221649   3.553   3.541   4.336
 7229TIP3   OH221650   6.971   0.568   1.371
 7229TIP3    H121651   6.995   0.521   1.451
 7229TIP3    H221652   6.878   0.586   1.382
 7230TIP3   OH221653   6.449   0.511   0.615
 7230TIP3    H121654   6.414   0.492   0.528
 7230TIP3    H221655   6.479   0.602   0.609
 7231TIP3   OH221656   4.655   6.424   1.184
 7231TIP3    H121657   4.731   6.368   1.200
 7231TIP3    H221658   4.646   6.426   1.089
 7232TIP3   OH221659   2.211   6.513   4.184
 7232TIP3    H121660   2.231   6.525   4.091
 7232TIP3    H221661   2.115   6.514   4.188
 7233TIP3   OH221662   5.764   0.145   2.698
 7233TIP3    H121663   5.815   0.064   2.706
 7233TIP3    H221664   5.683   0.127   2.746
 7234TIP3   OH221665   6.333   5.665   2.630
 7234TIP3    H121666   6.263   5.619   2.583
 7234TIP3    H221667   6.287   5.728   2.686
 7235TIP3   OH221668   6.881   5.743   3.877
 7235TIP3    H121669   6.913   5.765   3.964
 7235TIP3    H221670   6.865   5.828   3.835
 7236TIP3   OH221671   5.791   4.557   2.493
 7236TIP3    H121672   5.814   4.649   2.504
 7236TIP3    H221673   5.862   4.509   2.537
 7237TIP3   OH221674   0.280   5.862   4.122
 7237TIP3    H121675   0.203   5.885   4.071
 7237TIP3    H221676   0.352   5.863   4.059
 7238TIP3   OH221677   1.602   6.244   3.268
 7238TIP3    H121678   1.638   6.307   3.206
 7238TIP3    H221679   1.653   6.258   3.348
 7239TIP3   OH221680   5.464   2.385   4.793
 7239TIP3    H121681   5.471   2.310   4.852
 7239TIP3    H221682   5.380   2.426   4.815
 7240TIP3   OH221683   3.580   0.421   2.217
 7240TIP3    H121684   3.652   0.474   2.252
 7240TIP3    H221685   3.501   0.457   2.258
 7241TIP3   OH221686   5.756   5.019   3.697
 7241TIP3    H121687   5.844   5.039   3.727
 7241TIP3    H221688   5.700   5.083   3.739
 7242TIP3   OH221689   6.160   3.401   0.776
 7242TIP3    H121690   6.065   3.387   0.784
 7242TIP3    H221691   6.195   3.315   0.755
 7243TIP3   OH221692   5.107   5.326   4.215
 7243TIP3    H121693   5.182   5.386   4.213
 7243TIP3    H221694   5.031   5.383   4.201
 7244TIP3   OH221695   2.615   1.352   0.005
 7244TIP3    H121696   2.523   1.362  -0.022
 7244TIP3    H221697   2.613   1.364   0.100
 7245TIP3   OH221698   6.690   3.790   4.240
 7245TIP3    H121699   6.650   3.842   4.171
 7245TIP3    H221700   6.737   3.721   4.194
 7246TIP3   OH221701   3.537   6.620   3.752
 7246TIP3    H121702   3.582   6.693   3.797
 7246TIP3    H221703   3.601   6.588   3.689
 7247TIP3   OH221704   6.770   2.938   1.876
 7247TIP3    H121705   6.750   2.933   1.969
 7247TIP3    H221706   6.812   3.024   1.864
 7248TIP3   OH221707   5.104   0.800   3.005
 7248TIP3    H121708   5.039   0.864   2.975
 7248TIP3    H221709   5.069   0.715   2.980
 7249TIP3   OH221710   1.752   6.388   1.840
 7249TIP3    H121711   1.777   6.401   1.931
 7249TIP3    H221712   1.702   6.306   1.841
 7250TIP3   OH221713   2.275   6.701   0.783
 7250TIP3    H121714   2.265   6.607   0.774
 7250TIP3    H221715   2.358   6.713   0.829
 7251TIP3   OH221716   1.587   3.220   0.680
 7251TIP3    H121717   1.648   3.173   0.623
 7251TIP3    H221718   1.633   3.226   0.764
 7252TIP3   OH221719   6.697   2.709   5.318
 7252TIP3    H121720   6.725   2.799   5.335
 7252TIP3    H221721   6.734   2.659   5.391
 7253TIP3   OH221722   0.923   3.840   5.048
 7253TIP3    H121723   0.889   3.789   4.974
 7253TIP3    H221724   0.847   3.890   5.079
 7254TIP3   OH221725   5.997   6.508   0.481
 7254TIP3    H121726   5.929   6.567   0.448
 7254TIP3    H221727   5.999   6.524   0.576
 7255TIP3   OH221728   0.388   5.051   4.356
 7255TIP3    H121729   0.406   5.115   4.425
 7255TIP3    H221730   0.472   5.038   4.313
 7256TIP3   OH221731   0.819   4.200   0.187
 7256TIP3    H121732   0.789   4.130   0.245
 7256TIP3    H221733   0.832   4.157   0.102
 7257TIP3   OH221734   7.055   1.795   2.573
 7257TIP3    H121735   7.058   1.891   2.570
 7257TIP3    H221736   7.015   1.770   2.490
 7258TIP3   OH221737   0.728   0.828   3.945
 7258TIP3    H121738   0.636   0.846   3.927
 7258TIP3    H221739   0.745   0.745   3.901
 7259TIP3   OH221740   4.317   6.755   0.627
 7259TIP3    H121741   4.241   6.761   0.569
 7259TIP3    H221742   4.345   6.846   0.640
 7260TIP3   OH221743   5.829   1.675   5.636
 7260TIP3    H121744   5.877   1.741   5.586
 7260TIP3    H221745   5.883   1.660   5.714
 7261TIP3   OH221746   4.805   0.975   2.269
 7261TIP3    H121747   4.725   1.028   2.265
 7261TIP3    H221748   4.862   1.014   2.203
 7262TIP3   OH221749   2.758   1.832   5.667
 7262TIP3    H121750   2.767   1.913   5.616
 7262TIP3    H221751   2.678   1.845   5.718
 7263TIP3   OH221752   2.925   5.781   0.542
 7263TIP3    H121753   2.968   5.800   0.625
 7263TIP3    H221754   2.981   5.715   0.501
 7264TIP3   OH221755   1.525   4.930   4.503
 7264TIP3    H121756   1.597   4.991   4.521
 7264TIP3    H221757   1.484   4.965   4.423
 7265TIP3   OH221758   0.828   5.811   0.554
 7265TIP3    H121759   0.850   5.725   0.518
 7265TIP3    H221760   0.735   5.803   0.577
 7266TIP3   OH221761   5.407   4.832   5.719
 7266TIP3    H121762   5.371   4.915   5.751
 7266TIP3    H221763   5.411   4.776   5.797
 7267TIP3   OH221764   5.411   4.745   5.459
 7267TIP3    H121765   5.398   4.761   5.552
 7267TIP3    H221766   5.422   4.650   5.452
 7268TIP3   OH221767   3.341   2.791   0.550
 7268TIP3    H121768   3.309   2.786   0.640
 7268TIP3    H221769   3.295   2.721   0.504
 7269TIP3   OH221770   3.833   2.913   0.512
 7269TIP3    H121771   3.738   2.928   0.505
 7269TIP3    H221772   3.852   2.923   0.605
 7270TIP3   OH221773   4.290   2.044   4.239
 7270TIP3    H121774   4.252   2.006   4.160
 7270TIP3    H221775   4.234   2.118   4.259
 7271TIP3   OH221776   5.482   2.391   1.036
 7271TIP3    H121777   5.413   2.443   1.079
 7271TIP3    H221778   5.434   2.325   0.986
 7272TIP3   OH221779   7.173   1.624   0.731
 7272TIP3    H121780   7.189   1.715   0.754
 7272TIP3    H221781   7.119   1.590   0.802
 7273TIP3   OH221782   6.489   3.746   5.260
 7273TIP3    H121783   6.446   3.828   5.237
 7273TIP3    H221784   6.575   3.771   5.292
 7274TIP3   OH221785   0.684   1.252   1.456
 7274TIP3    H121786   0.697   1.265   1.362
 7274TIP3    H221787   0.755   1.194   1.482
 7275TIP3   OH221788   0.108   5.460   4.134
 7275TIP3    H121789   0.116   5.439   4.041
 7275TIP3    H221790   0.149   5.546   4.143
 7276TIP3   OH221791   5.912   4.269   3.713
 7276TIP3    H121792   5.817   4.252   3.709
 7276TIP3    H221793   5.921   4.336   3.781
 7277TIP3   OH221794   6.312   4.530   0.721
 7277TIP3    H121795   6.349   4.474   0.653
 7277TIP3    H221796   6.386   4.549   0.780
 7278TIP3   OH221797   5.695   1.537   4.094
 7278TIP3    H121798   5.653   1.485   4.025
 7278TIP3    H221799   5.656   1.504   4.175
 7279TIP3   OH221800   0.715   0.830   1.353
 7279TIP3    H121801   0.773   0.822   1.278
 7279TIP3    H221802   0.773   0.823   1.429
 7280TIP3   OH221803   1.190   1.947   3.434
 7280TIP3    H121804   1.133   1.878   3.469
 7280TIP3    H221805   1.217   1.996   3.511
 7281TIP3   OH221806   3.751   1.213   3.130
 7281TIP3    H121807   3.796   1.147   3.076
 7281TIP3    H221808   3.815   1.283   3.140
 7282TIP3   OH221809   3.293   3.618   0.455
 7282TIP3    H121810   3.341   3.553   0.405
 7282TIP3    H221811   3.339   3.623   0.539
 7283TIP3   OH221812   7.104   3.978   2.216
 7283TIP3    H121813   7.185   3.949   2.259
 7283TIP3    H221814   7.111   4.074   2.213
 7284TIP3   OH221815   1.665   4.476   1.138
 7284TIP3    H121816   1.720   4.410   1.181
 7284TIP3    H221817   1.686   4.558   1.183
 7285TIP3   OH221818   0.233   2.963   2.354
 7285TIP3    H121819   0.186   2.941   2.274
 7285TIP3    H221820   0.168   3.007   2.408
 7286TIP3   OH221821   6.736   5.991   1.502
 7286TIP3    H121822   6.718   5.966   1.592
 7286TIP3    H221823   6.817   5.946   1.479
 7287TIP3   OH221824   0.460   3.948   2.341
 7287TIP3    H121825   0.427   3.918   2.256
 7287TIP3    H221826   0.416   3.892   2.405
 7288TIP3   OH221827   5.431   0.346   4.765
 7288TIP3    H121828   5.383   0.265   4.784
 7288TIP3    H221829   5.489   0.323   4.692
 7289TIP3   OH221830   3.424   5.604   0.034
 7289TIP3    H121831   3.357   5.551  -0.010
 7289TIP3    H221832   3.390   5.694   0.029
 7290TIP3   OH221833   6.647   3.892   2.315
 7290TIP3    H121834   6.623   3.982   2.340
 7290TIP3    H221835   6.670   3.850   2.398
 7291TIP3   OH221836   1.240   4.090   0.804
 7291TIP3    H121837   1.217   4.040   0.726
 7291TIP3    H221838   1.225   4.181   0.779
 7292TIP3   OH221839   5.242   1.189   5.486
 7292TIP3    H121840   5.190   1.269   5.494
 7292TIP3    H221841   5.326   1.211   5.525
 7293TIP3   OH221842   6.519   2.099   2.549
 7293TIP3    H121843   6.544   2.179   2.502
 7293TIP3    H221844   6.549   2.113   2.639
 7294TIP3   OH221845   0.233   2.361   1.915
 7294TIP3    H121846   0.326   2.339   1.922
 7294TIP3    H221847   0.190   2.308   1.983
 7295TIP3   OH221848   4.068   5.437   4.201
 7295TIP3    H121849   4.041   5.372   4.137
 7295TIP3    H221850   4.087   5.515   4.150
 7296TIP3   OH221851   5.370   6.244   1.609
 7296TIP3    H121852   5.459   6.265   1.580
 7296TIP3    H221853   5.380   6.221   1.702
 7297TIP3   OH221854   3.219   3.581   1.573
 7297TIP3    H121855   3.213   3.521   1.498
 7297TIP3    H221856   3.253   3.662   1.536
 7298TIP3   OH221857   4.917   6.570   3.521
 7298TIP3    H121858   4.866   6.490   3.507
 7298TIP3    H221859   5.000   6.553   3.476
 7299TIP3   OH221860   1.273   2.468   0.245
 7299TIP3    H121861   1.181   2.451   0.226
 7299TIP3    H221862   1.293   2.549   0.197
 7300TIP3   OH221863   1.922   2.171   1.634
 7300TIP3    H121864   1.918   2.231   1.708
 7300TIP3    H221865   2.013   2.142   1.631
 7301TIP3   OH221866   1.936   3.478   4.051
 7301TIP3    H121867   2.020   3.479   4.097
 7301TIP3    H221868   1.953   3.529   3.971
 7302TIP3   OH221869   5.194   0.978   2.148
 7302TIP3    H121870   5.273   0.980   2.095
 7302TIP3    H221871   5.225   0.984   2.238
 7303TIP3   OH221872   5.314   5.357   4.928
 7303TIP3    H121873   5.376   5.401   4.987
 7303TIP3    H221874   5.260   5.304   4.986
 7304TIP3   OH221875   1.821   6.415   5.361
 7304TIP3    H121876   1.786   6.501   5.339
 7304TIP3    H221877   1.780   6.392   5.444
 7305TIP3   OH221878   0.644   5.563   0.236
 7305TIP3    H121879   0.551   5.562   0.258
 7305TIP3    H221880   0.689   5.559   0.320
 7306TIP3   OH221881   5.619   2.636   5.100
 7306TIP3    H121882   5.589   2.688   5.174
 7306TIP3    H221883   5.636   2.549   5.138
 7307TIP3   OH221884   5.995   3.300   1.199
 7307TIP3    H121885   6.059   3.243   1.158
 7307TIP3    H221886   5.915   3.248   1.204
 7308TIP3   OH221887   4.538   6.422   5.443
 7308TIP3    H121888   4.562   6.334   5.471
 7308TIP3    H221889   4.565   6.425   5.351
 7309TIP3   OH221890   3.542   1.041   4.245
 7309TIP3    H121891   3.613   1.027   4.182
 7309TIP3    H221892   3.463   1.044   4.192
 7310TIP3   OH221893   1.308   6.474   1.271
 7310TIP3    H121894   1.265   6.534   1.210
 7310TIP3    H221895   1.385   6.523   1.301
 7311TIP3   OH221896   5.882   1.467   0.521
 7311TIP3    H121897   5.857   1.378   0.547
 7311TIP3    H221898   5.962   1.485   0.571
 7312TIP3   OH221899   1.249   6.671   4.599
 7312TIP3    H121900   1.324   6.613   4.614
 7312TIP3    H221901   1.184   6.643   4.664
 7313TIP3   OH221902   4.432   0.912   0.585
 7313TIP3    H121903   4.453   0.992   0.537
 7313TIP3    H221904   4.338   0.917   0.601
 7314TIP3   OH221905   4.131   0.946   5.164
 7314TIP3    H121906   4.064   0.946   5.095
 7314TIP3    H221907   4.190   0.874   5.140
 7315TIP3   OH221908   2.705   4.168   4.028
 7315TIP3    H121909   2.795   4.159   4.059
 7315TIP3    H221910   2.697   4.260   4.001
 7316TIP3   OH221911   6.395   2.010   5.316
 7316TIP3    H121912   6.434   1.966   5.391
 7316TIP3    H221913   6.339   1.943   5.276
 7317TIP3   OH221914   2.608   4.008   2.129
 7317TIP3    H121915   2.609   4.018   2.224
 7317TIP3    H221916   2.516   3.997   2.107
 7318TIP3   OH221917   3.481   5.934   4.413
 7318TIP3    H121918   3.538   5.900   4.344
 7318TIP3    H221919   3.517   5.896   4.494
 7319TIP3   OH221920   6.048   5.049   4.776
 7319TIP3    H121921   6.119   4.995   4.742
 7319TIP3    H221922   6.087   5.097   4.849
 7320TIP3   OH221923   4.939   0.895   3.260
 7320TIP3    H121924   4.910   0.878   3.170
 7320TIP3    H221925   5.017   0.949   3.249
 7321TIP3   OH221926   3.501   3.561   2.511
 7321TIP3    H121927   3.423   3.507   2.528
 7321TIP3    H221928   3.574   3.504   2.533
 7322TIP3   OH221929   1.495   1.417   2.898
 7322TIP3    H121930   1.420   1.425   2.957
 7322TIP3    H221931   1.554   1.356   2.943
 7323TIP3   OH221932   1.140   3.204   4.605
 7323TIP3    H121933   1.182   3.255   4.674
 7323TIP3    H221934   1.136   3.115   4.639
 7324TIP3   OH221935   3.329   1.289   0.562
 7324TIP3    H121936   3.376   1.357   0.609
 7324TIP3    H221937   3.318   1.323   0.474
 7325TIP3   OH221938   1.130   5.542   0.619
 7325TIP3    H121939   1.058   5.549   0.681
 7325TIP3    H221940   1.097   5.485   0.550
 7326TIP3   OH221941   0.924   2.964   3.826
 7326TIP3    H121942   0.838   2.962   3.784
 7326TIP3    H221943   0.983   2.992   3.757
 7327TIP3   OH221944   5.275   0.210   1.447
 7327TIP3    H121945   5.326   0.138   1.484
 7327TIP3    H221946   5.185   0.193   1.476
 7328TIP3   OH221947   1.204   0.939   5.335
 7328TIP3    H121948   1.161   0.897   5.409
 7328TIP3    H221949   1.170   0.892   5.258
 7329TIP3   OH221950   3.294   2.095   1.160
 7329TIP3    H121951   3.328   2.017   1.115
 7329TIP3    H221952   3.369   2.154   1.164
 7330TIP3   OH221953   0.710   3.824   0.987
 7330TIP3    H121954   0.735   3.732   0.991
 7330TIP3    H221955   0.745   3.862   1.068
 7331TIP3   OH221956   7.068   5.463   5.544
 7331TIP3    H121957   7.133   5.533   5.538
 7331TIP3    H221958   7.118   5.386   5.569
 7332TIP3   OH221959   4.174   3.044   2.197
 7332TIP3    H121960   4.220   3.127   2.197
 7332TIP3    H221961   4.081   3.068   2.195
 7333TIP3   OH221962   2.162   2.473   2.493
 7333TIP3    H121963   2.225   2.403   2.477
 7333TIP3    H221964   2.078   2.428   2.503
 7334TIP3   OH221965   4.088   6.536   2.456
 7334TIP3    H121966   4.173   6.490   2.456
 7334TIP3    H221967   4.109   6.625   2.485
 7335TIP3   OH221968   1.733   0.619   2.535
 7335TIP3    H121969   1.661   0.683   2.534
 7335TIP3    H221970   1.781   0.636   2.454
 7336TIP3   OH221971   3.003   5.167   4.833
 7336TIP3    H121972   3.012   5.073   4.849
 7336TIP3    H221973   2.940   5.174   4.761
 7337TIP3   OH221974   4.183   3.231   2.989
 7337TIP3    H121975   4.207   3.235   3.081
 7337TIP3    H221976   4.114   3.297   2.980
 7338TIP3   OH221977   2.423   6.336   2.868
 7338TIP3    H121978   2.341   6.377   2.896
 7338TIP3    H221979   2.422   6.250   2.910
 7339TIP3   OH221980   6.420   3.615   4.855
 7339TIP3    H121981   6.473   3.690   4.879
 7339TIP3    H221982   6.369   3.644   4.779
 7340TIP3   OH221983   6.713   6.554   5.067
 7340TIP3    H121984   6.758   6.471   5.081
 7340TIP3    H221985   6.717   6.568   4.973
 7341TIP3   OH221986   5.739   6.515   2.017
 7341TIP3    H121987   5.785   6.574   1.957
 7341TIP3    H221988   5.656   6.559   2.035
 7342TIP3   OH221989   2.677   5.530   0.272
 7342TIP3    H121990   2.592   5.560   0.305
 7342TIP3    H221991   2.688   5.575   0.189
 7343TIP3   OH221992   6.024   4.986   1.000
 7343TIP3    H121993   6.099   5.015   1.053
 7343TIP3    H221994   6.049   5.006   0.910
 7344TIP3   OH221995   0.851   4.262   1.858
 7344TIP3    H121996   0.758   4.269   1.876
 7344TIP3    H221997   0.885   4.351   1.869
 7345TIP3   OH221998   6.614   3.149   4.731
 7345TIP3    H121999   6.667   3.180   4.804
 7345TIP3    H222000   6.675   3.147   4.657
 7346TIP3   OH222001   2.496   2.966   5.110
 7346TIP3    H122002   2.547   3.033   5.155
 7346TIP3    H222003   2.434   2.935   5.175
 7347TIP3   OH222004   5.145   3.431   1.045
 7347TIP3    H122005   5.236   3.428   1.074
 7347TIP3    H222006   5.111   3.343   1.063
 7348TIP3   OH222007   6.382   1.652   0.035
 7348TIP3    H122008   6.386   1.600  -0.045
 7348TIP3    H222009   6.378   1.587   0.106
 7349TIP3   OH222010   3.265   4.908   4.808
 7349TIP3    H122011   3.196   4.930   4.871
 7349TIP3    H222012   3.330   4.977   4.820
 7350TIP3   OH222013   0.255   3.860   4.684
 7350TIP3    H122014   0.216   3.921   4.621
 7350TIP3    H222015   0.337   3.901   4.710
 7351TIP3   OH222016   2.526   5.783   4.246
 7351TIP3    H122017   2.519   5.870   4.287
 7351TIP3    H222018   2.612   5.751   4.272
 7352TIP3   OH222019   0.593   3.089   4.036
 7352TIP3    H122020   0.629   3.102   3.948
 7352TIP3    H222021   0.591   2.994   4.048
 7353TIP3   OH222022   4.184   6.357   0.959
 7353TIP3    H122023   4.159   6.329   0.871
 7353TIP3    H222024   4.197   6.451   0.951
 7354TIP3   OH222025   4.729   3.891   3.637
 7354TIP3    H122026   4.756   3.907   3.547
 7354TIP3    H222027   4.694   3.802   3.637
 7355TIP3   OH222028   1.514   3.626   1.092
 7355TIP3    H122029   1.498   3.532   1.083
 7355TIP3    H222030   1.581   3.646   1.026
 7356TIP3   OH222031   2.173   5.432   2.796
 7356TIP3    H122032   2.134   5.518   2.810
 7356TIP3    H222033   2.115   5.372   2.843
 7357TIP3   OH222034   5.041   0.420   4.805
 7357TIP3    H122035   5.117   0.376   4.844
 7357TIP3    H222036   4.977   0.425   4.876
 7358TIP3   OH222037   5.898   4.616   3.204
 7358TIP3    H122038   5.913   4.580   3.117
 7358TIP3    H222039   5.870   4.541   3.257
 7359TIP3   OH222040   3.654   1.277   2.806
 7359TIP3    H122041   3.747   1.287   2.823
 7359TIP3    H222042   3.614   1.268   2.892
 7360TIP3   OH222043   2.642   5.588   2.233
 7360TIP3    H122044   2.671   5.605   2.144
 7360TIP3    H222045   2.561   5.637   2.242
 7361TIP3   OH222046   6.954   4.525   2.352
 7361TIP3    H122047   7.021   4.480   2.301
 7361TIP3    H222048   6.924   4.596   2.294
 7362TIP3   OH222049   0.750   6.009   1.833
 7362TIP3    H122050   0.802   6.046   1.761
 7362TIP3    H222051   0.773   6.061   1.909
 7363TIP3   OH222052   0.298   2.628   2.164
 7363TIP3    H122053   0.339   2.568   2.227
 7363TIP3    H222054   0.359   2.702   2.159
 7364TIP3   OH222055   1.976   0.896   2.768
 7364TIP3    H122056   2.066   0.922   2.751
 7364TIP3    H222057   1.930   0.916   2.686
 7365TIP3   OH222058   1.611   3.707   0.727
 7365TIP3    H122059   1.522   3.714   0.760
 7365TIP3    H222060   1.649   3.793   0.741
 7366TIP3   OH222061   4.278   4.599   3.218
 7366TIP3    H122062   4.192   4.613   3.256
 7366TIP3    H222063   4.261   4.553   3.136
 7367TIP3   OH222064   4.243   5.877   5.261
 7367TIP3    H122065   4.226   5.810   5.195
 7367TIP3    H222066   4.156   5.902   5.292
 7368TIP3   OH222067   6.225   1.023   1.998
 7368TIP3    H122068   6.226   1.065   2.084
 7368TIP3    H222069   6.317   1.011   1.976
 7369TIP3   OH222070   1.589   4.405   5.872
 7369TIP3    H122071   1.562   4.354   5.796
 7369TIP3    H222072   1.658   4.463   5.840
 7370TIP3   OH222073   3.984   6.228   5.484
 7370TIP3    H122074   3.955   6.309   5.443
 7370TIP3    H222075   3.929   6.160   5.444
 7371TIP3   OH222076   4.118   4.334   1.484
 7371TIP3    H122077   4.055   4.343   1.555
 7371TIP3    H222078   4.074   4.281   1.418
 7372TIP3   OH222079   3.981   1.597   5.330
 7372TIP3    H122080   4.062   1.642   5.306
 7372TIP3    H222081   3.992   1.508   5.298
 7373TIP3   OH222082   2.562   2.847   0.811
 7373TIP3    H122083   2.607   2.771   0.775
 7373TIP3    H222084   2.485   2.811   0.854
 7374TIP3   OH222085   4.679   1.284   3.781
 7374TIP3    H122086   4.594   1.300   3.739
 7374TIP3    H222087   4.692   1.189   3.774
 7375TIP3   OH222088   4.753   5.858   2.230
 7375TIP3    H122089   4.693   5.927   2.258
 7375TIP3    H222090   4.702   5.777   2.238
 7376TIP3   OH222091   0.527   1.962   3.088
 7376TIP3    H122092   0.454   1.912   3.053
 7376TIP3    H222093   0.493   2.052   3.095
 7377TIP3   OH222094   4.495   2.089   0.119
 7377TIP3    H122095   4.466   2.017   0.175
 7377TIP3    H222096   4.501   2.050   0.032
 7378TIP3   OH222097   2.572   5.641   5.423
 7378TIP3    H122098   2.501   5.603   5.475
 7378TIP3    H222099   2.532   5.717   5.380
 7379TIP3   OH222100   6.554   4.619   1.900
 7379TIP3    H122101   6.613   4.565   1.847
 7379TIP3    H222102   6.527   4.561   1.971
 7380TIP3   OH222103   2.992   0.449   3.796
 7380TIP3    H122104   2.968   0.534   3.761
 7380TIP3    H222105   3.086   0.456   3.814
 7381TIP3   OH222106   0.054   3.547   3.040
 7381TIP3    H122107   0.062   3.494   3.119
 7381TIP3    H222108   0.068   3.637   3.070
 7382TIP3   OH222109   5.012   0.091   1.060
 7382TIP3    H122110   5.033   0.146   0.984
 7382TIP3    H222111   5.066   0.126   1.130
 7383TIP3   OH222112   7.128   2.993   1.309
 7383TIP3    H122113   7.090   3.081   1.305
 7383TIP3    H222114   7.105   2.960   1.396
 7384TIP3   OH222115   1.362   2.564   1.791
 7384TIP3    H122116   1.368   2.647   1.839
 7384TIP3    H222117   1.355   2.497   1.858
 7385TIP3   OH222118   6.878   6.768   0.126
 7385TIP3    H122119   6.792   6.728   0.136
 7385TIP3    H222120   6.937   6.694   0.113
 7386TIP3   OH222121   0.146   2.455   0.759
 7386TIP3    H122122   0.216   2.403   0.798
 7386TIP3    H222123   0.113   2.400   0.688
 7387TIP3   OH222124   6.021   5.091   2.551
 7387TIP3    H122125   6.078   5.016   2.567
 7387TIP3    H222126   6.078   5.157   2.513
 7388TIP3   OH222127   5.299   3.165   0.053
 7388TIP3    H122128   5.287   3.247   0.101
 7388TIP3    H222129   5.213   3.123   0.056
 7389TIP3   OH222130   4.747   6.403   0.600
 7389TIP3    H122131   4.746   6.359   0.685
 7389TIP3    H222132   4.834   6.386   0.564
 7390TIP3   OH222133   2.975   3.651   1.662
 7390TIP3    H122134   3.061   3.610   1.651
 7390TIP3    H222135   2.913   3.587   1.626
 7391TIP3   OH222136   5.394   4.476   5.504
 7391TIP3    H122137   5.348   4.417   5.563
 7391TIP3    H222138   5.366   4.449   5.417
 7392TIP3   OH222139   3.879   3.034   3.768
 7392TIP3    H122140   3.877   3.029   3.673
 7392TIP3    H222141   3.797   3.078   3.791
 7393TIP3   OH222142   1.915   4.365   1.253
 7393TIP3    H122143   1.917   4.269   1.254
 7393TIP3    H222144   1.944   4.389   1.165
 7394TIP3   OH222145   5.950   0.876   5.139
 7394TIP3    H122146   5.998   0.927   5.074
 7394TIP3    H222147   6.017   0.824   5.183
 7395TIP3   OH222148   5.974   5.844   1.057
 7395TIP3    H122149   6.036   5.799   1.115
 7395TIP3    H222150   5.923   5.900   1.116
 7396TIP3   OH222151   3.474   2.946   1.967
 7396TIP3    H122152   3.417   2.985   1.901
 7396TIP3    H222153   3.417   2.931   2.042
 7397TIP3   OH222154   3.518   4.838   4.521
 7397TIP3    H122155   3.490   4.928   4.539
 7397TIP3    H222156   3.437   4.792   4.498
 7398TIP3   OH222157   2.431   4.105   4.194
 7398TIP3    H122158   2.511   4.149   4.166
 7398TIP3    H222159   2.448   4.012   4.182
 7399TIP3   OH222160   1.744   2.675   2.086
 7399TIP3    H122161   1.736   2.761   2.126
 7399TIP3    H222162   1.801   2.688   2.011
 7400TIP3   OH222163   1.457   1.269   3.124
 7400TIP3    H122164   1.481   1.337   3.187
 7400TIP3    H222165   1.371   1.239   3.152
 7401TIP3   OH222166   3.778   0.899   1.895
 7401TIP3    H122167   3.858   0.890   1.844
 7401TIP3    H222168   3.760   0.993   1.894
 7402TIP3   OH222169   4.867   0.219   4.716
 7402TIP3    H122170   4.820   0.239   4.635
 7402TIP3    H222171   4.929   0.292   4.726
 7403TIP3   OH222172   5.482   0.108   4.987
 7403TIP3    H122173   5.413   0.102   4.920
 7403TIP3    H222174   5.556   0.061   4.950
 7404TIP3   OH222175   5.563   0.674   1.972
 7404TIP3    H122176   5.550   0.636   1.886
 7404TIP3    H222177   5.658   0.674   1.984
 7405TIP3   OH222178   3.930   1.314   1.524
 7405TIP3    H122179   3.943   1.259   1.602
 7405TIP3    H222180   3.909   1.252   1.454
 7406TIP3   OH222181   1.924   6.344   3.773
 7406TIP3    H122182   1.982   6.322   3.845
 7406TIP3    H222183   1.851   6.282   3.780
 7407TIP3   OH222184   4.751   0.019   4.146
 7407TIP3    H122185   4.812   0.075   4.098
 7407TIP3    H222186   4.764   0.045   4.238
 7408TIP3   OH222187   5.179   6.292   1.125
 7408TIP3    H122188   5.225   6.330   1.199
 7408TIP3    H222189   5.245   6.239   1.079
 7409TIP3   OH222190   1.738   2.253   2.494
 7409TIP3    H122191   1.791   2.332   2.491
 7409TIP3    H222192   1.700   2.253   2.581
 7410TIP3   OH222193   3.235   0.484   1.910
 7410TIP3    H122194   3.299   0.484   1.839
 7410TIP3    H222195   3.178   0.409   1.891
 7411TIP3   OH222196   1.967   5.233   2.092
 7411TIP3    H122197   1.955   5.138   2.084
 7411TIP3    H222198   1.894   5.262   2.147
 7412TIP3   OH222199   2.662   4.349   2.426
 7412TIP3    H122200   2.668   4.408   2.502
 7412TIP3    H222201   2.586   4.382   2.377
 7413TIP3   OH222202   5.938   3.305   0.442
 7413TIP3    H122203   6.009   3.327   0.382
 7413TIP3    H222204   5.981   3.259   0.514
 7414TIP3   OH222205   0.198   2.910   4.899
 7414TIP3    H122206   0.203   2.872   4.987
 7414TIP3    H222207   0.113   2.954   4.897
 7415TIP3   OH222208   1.662   4.036   5.756
 7415TIP3    H122209   1.610   4.105   5.715
 7415TIP3    H222210   1.619   3.954   5.729
 7416TIP3   OH222211   3.010   1.708   1.698
 7416TIP3    H122212   3.057   1.627   1.720
 7416TIP3    H222213   2.982   1.696   1.608
 7417TIP3   OH222214   6.085   5.986   2.579
 7417TIP3    H122215   6.116   6.072   2.605
 7417TIP3    H222216   6.008   6.003   2.525
 7418TIP3   OH222217   1.701   3.130   3.119
 7418TIP3    H122218   1.645   3.153   3.045
 7418TIP3    H222219   1.743   3.212   3.144
 7419TIP3   OH222220   6.681   0.071   0.058
 7419TIP3    H122221   6.609   0.117   0.017
 7419TIP3    H222222   6.653   0.058   0.149
 7420TIP3   OH222223   0.906   6.275   0.717
 7420TIP3    H122224   0.967   6.278   0.642
 7420TIP3    H222225   0.882   6.183   0.724
 7421TIP3   OH222226   7.088   3.760   2.026
 7421TIP3    H122227   7.091   3.855   2.029
 7421TIP3    H222228   7.039   3.735   2.105
 7422TIP3   OH222229   4.699   1.900   4.168
 7422TIP3    H122230   4.637   1.917   4.238
 7422TIP3    H222231   4.665   1.823   4.122
 7423TIP3   OH222232   0.748   0.339   1.056
 7423TIP3    H122233   0.703   0.283   0.992
 7423TIP3    H222234   0.699   0.327   1.137
 7424TIP3   OH222235   3.733   1.222   4.938
 7424TIP3    H122236   3.791   1.162   4.985
 7424TIP3    H222237   3.656   1.169   4.916
 7425TIP3   OH222238   1.529   3.445   0.369
 7425TIP3    H122239   1.490   3.467   0.285
 7425TIP3    H222240   1.552   3.353   0.362
 7426TIP3   OH222241   0.256   1.178   2.756
 7426TIP3    H122242   0.210   1.167   2.839
 7426TIP3    H222243   0.268   1.273   2.747
 7427TIP3   OH222244   2.991   6.514   3.964
 7427TIP3    H122245   2.896   6.510   3.952
 7427TIP3    H222246   3.004   6.498   4.057
 7428TIP3   OH222247   2.606   4.890   3.745
 7428TIP3    H122248   2.672   4.823   3.758
 7428TIP3    H222249   2.655   4.967   3.716
 7429TIP3   OH222250   5.215   0.202   0.800
 7429TIP3    H122251   5.258   0.231   0.719
 7429TIP3    H222252   5.283   0.153   0.846
 7430TIP3   OH222253   4.107   0.358   2.079
 7430TIP3    H122254   4.185   0.304   2.088
 7430TIP3    H222255   4.086   0.356   1.986
 7431TIP3   OH222256   0.402   0.057   1.754
 7431TIP3    H122257   0.471   0.023   1.697
 7431TIP3    H222258   0.441   0.136   1.793
 7432TIP3   OH222259   4.678   0.128   0.418
 7432TIP3    H122260   4.588   0.159   0.402
 7432TIP3    H222261   4.669   0.033   0.422
 7433TIP3   OH222262   6.699   6.795   2.712
 7433TIP3    H122263   6.776   6.744   2.688
 7433TIP3    H222264   6.656   6.744   2.780
 7434TIP3   OH222265   1.433   3.284   1.967
 7434TIP3    H122266   1.426   3.281   2.062
 7434TIP3    H222267   1.343   3.297   1.936
 7435TIP3   OH222268   6.155   5.730   1.229
 7435TIP3    H122269   6.098   5.730   1.306
 7435TIP3    H222270   6.239   5.764   1.262
 7436TIP3   OH222271   5.203   5.601   1.560
 7436TIP3    H122272   5.211   5.527   1.500
 7436TIP3    H222273   5.255   5.671   1.519
 7437TIP3   OH222274   3.923   2.944   0.766
 7437TIP3    H122275   3.984   3.016   0.777
 7437TIP3    H222276   3.975   2.865   0.783
 7438TIP3   OH222277   4.216   3.262   3.641
 7438TIP3    H122278   4.268   3.220   3.574
 7438TIP3    H222279   4.210   3.354   3.614
 7439TIP3   OH222280   2.967   6.689   0.578
 7439TIP3    H122281   2.887   6.742   0.578
 7439TIP3    H222282   3.031   6.741   0.626
 7440TIP3   OH222283   1.235   0.859   1.461
 7440TIP3    H122284   1.267   0.908   1.537
 7440TIP3    H222285   1.294   0.784   1.455
 7441TIP3   OH222286   2.254   2.438   3.124
 7441TIP3    H122287   2.194   2.476   3.188
 7441TIP3    H222288   2.332   2.495   3.128
 7442TIP3   OH222289   5.553   6.490   0.006
 7442TIP3    H122290   5.466   6.517  -0.023
 7442TIP3    H222291   5.595   6.571   0.034
 7443TIP3   OH222292   4.111   3.614   1.108
 7443TIP3    H122293   4.131   3.546   1.172
 7443TIP3    H222294   4.194   3.629   1.063
 7444TIP3   OH222295   6.808   4.625   3.137
 7444TIP3    H122296   6.758   4.558   3.091
 7444TIP3    H222297   6.900   4.598   3.127
 7445TIP3   OH222298   1.754   1.776   4.015
 7445TIP3    H122299   1.815   1.706   3.991
 7445TIP3    H222300   1.721   1.810   3.932
 7446TIP3   OH222301   4.847   0.653   1.345
 7446TIP3    H122302   4.873   0.721   1.408
 7446TIP3    H222303   4.804   0.701   1.274
 7447TIP3   OH222304   3.282   1.713   3.513
 7447TIP3    H122305   3.203   1.709   3.568
 7447TIP3    H222306   3.340   1.773   3.559
 7448TIP3   OH222307   1.140   1.379   4.572
 7448TIP3    H122308   1.092   1.302   4.602
 7448TIP3    H222309   1.147   1.367   4.477
 7449TIP3   OH222310   6.162   2.793   3.002
 7449TIP3    H122311   6.185   2.883   2.978
 7449TIP3    H222312   6.239   2.741   2.976
 7450TIP3   OH222313   5.599   5.859   3.430
 7450TIP3    H122314   5.594   5.825   3.340
 7450TIP3    H222315   5.507   5.864   3.458
 7451TIP3   OH222316   1.930   1.463   5.111
 7451TIP3    H122317   1.893   1.374   5.114
 7451TIP3    H222318   1.938   1.489   5.202
 7452TIP3   OH222319   6.043   1.928   2.415
 7452TIP3    H122320   6.132   1.963   2.420
 7452TIP3    H222321   6.033   1.902   2.323
 7453TIP3   OH222322   0.930   6.644   2.749
 7453TIP3    H122323   0.884   6.724   2.724
 7453TIP3    H222324   0.962   6.661   2.838
 7454TIP3   OH222325   4.066   1.576   2.983
 7454TIP3    H122326   4.013   1.651   3.010
 7454TIP3    H222327   4.145   1.614   2.947
 7455TIP3   OH222328   0.462   0.828   3.978
 7455TIP3    H122329   0.397   0.898   3.970
 7455TIP3    H222330   0.410   0.748   3.988
 7456TIP3   OH222331   3.504   0.291   4.370
 7456TIP3    H122332   3.469   0.224   4.312
 7456TIP3    H222333   3.463   0.275   4.454
 7457TIP3   OH222334   4.226   4.004   4.680
 7457TIP3    H122335   4.215   4.096   4.704
 7457TIP3    H222336   4.176   3.955   4.747
 7458TIP3   OH222337   0.352   0.702   4.532
 7458TIP3    H122338   0.434   0.739   4.565
 7458TIP3    H222339   0.371   0.608   4.521
 7459TIP3   OH222340   3.273   5.846   0.059
 7459TIP3    H122341   3.224   5.871   0.137
 7459TIP3    H222342   3.252   5.913  -0.006
 7460TIP3   OH222343   6.734   1.775   5.627
 7460TIP3    H122344   6.744   1.680   5.637
 7460TIP3    H222345   6.734   1.809   5.717
 7461TIP3   OH222346   3.459   2.324   2.693
 7461TIP3    H122347   3.498   2.393   2.640
 7461TIP3    H222348   3.515   2.319   2.770
 7462TIP3   OH222349   6.322   1.269   0.807
 7462TIP3    H122350   6.399   1.221   0.775
 7462TIP3    H222351   6.251   1.243   0.748
 7463TIP3   OH222352   2.338   5.759   3.980
 7463TIP3    H122353   2.381   5.705   3.914
 7463TIP3    H222354   2.313   5.838   3.934
 7464TIP3   OH222355   6.398   1.966   0.189
 7464TIP3    H122356   6.329   1.922   0.139
 7464TIP3    H222357   6.469   1.979   0.127
 7465TIP3   OH222358   7.111   3.684   0.509
 7465TIP3    H122359   7.202   3.669   0.534
 7465TIP3    H222360   7.066   3.604   0.536
 7466TIP3   OH222361   0.676   4.892   1.932
 7466TIP3    H122362   0.693   4.961   1.996
 7466TIP3    H222363   0.732   4.915   1.857
 7467TIP3   OH222364   4.206   1.992   2.234
 7467TIP3    H122365   4.191   1.959   2.322
 7467TIP3    H222366   4.124   1.976   2.187
 7468TIP3   OH222367   6.325   2.516   2.907
 7468TIP3    H122368   6.395   2.454   2.888
 7468TIP3    H222369   6.301   2.498   2.998
 7469TIP3   OH222370   6.697   1.650   5.236
 7469TIP3    H122371   6.703   1.557   5.218
 7469TIP3    H222372   6.718   1.692   5.153
 7470TIP3   OH222373   3.507   6.006   4.753
 7470TIP3    H122374   3.571   5.958   4.700
 7470TIP3    H222375   3.502   5.956   4.834
 7471TIP3   OH222376   2.191   6.291   1.326
 7471TIP3    H122377   2.206   6.320   1.416
 7471TIP3    H222378   2.225   6.364   1.272
 7472TIP3   OH222379   2.222   3.682   0.273
 7472TIP3    H122380   2.239   3.611   0.212
 7472TIP3    H222381   2.240   3.644   0.359
 7473TIP3   OH222382   2.724   3.873   4.718
 7473TIP3    H122383   2.726   3.782   4.687
 7473TIP3    H222384   2.810   3.908   4.696
 7474TIP3   OH222385   2.497   4.824   2.646
 7474TIP3    H122386   2.411   4.802   2.682
 7474TIP3    H222387   2.549   4.745   2.660
 7475TIP3   OH222388   2.319   5.896   1.781
 7475TIP3    H122389   2.377   5.861   1.848
 7475TIP3    H222390   2.301   5.822   1.724
 7476TIP3   OH222391   1.301   4.634   0.305
 7476TIP3    H122392   1.384   4.675   0.284
 7476TIP3    H222393   1.287   4.654   0.398
 7477TIP3   OH222394   4.790   1.981   4.960
 7477TIP3    H122395   4.837   1.915   4.910
 7477TIP3    H222396   4.698   1.953   4.957
 7478TIP3   OH222397   1.409   5.023   2.171
 7478TIP3    H122398   1.399   4.931   2.193
 7478TIP3    H222399   1.368   5.032   2.085
 7479TIP3   OH222400   1.587   5.196   0.695
 7479TIP3    H122401   1.499   5.207   0.660
 7479TIP3    H222402   1.592   5.257   0.768
 7480TIP3   OH222403   4.161   5.632   0.440
 7480TIP3    H122404   4.131   5.639   0.350
 7480TIP3    H222405   4.205   5.716   0.457
 7481TIP3   OH222406   5.557   0.926   2.289
 7481TIP3    H122407   5.632   0.906   2.233
 7481TIP3    H222408   5.513   0.842   2.300
 7482TIP3   OH222409   2.515   4.417   2.906
 7482TIP3    H122410   2.589   4.383   2.956
 7482TIP3    H222411   2.554   4.471   2.838
 7483TIP3   OH222412   1.992   3.653   2.210
 7483TIP3    H122413   2.076   3.698   2.196
 7483TIP3    H222414   1.971   3.614   2.125
 7484TIP3   OH222415   1.505   2.251   2.294
 7484TIP3    H122416   1.581   2.229   2.348
 7484TIP3    H222417   1.543   2.291   2.215
 7485TIP3   OH222418   5.402   4.397   1.138
 7485TIP3    H122419   5.314   4.414   1.105
 7485TIP3    H222420   5.447   4.351   1.067
 7486TIP3   OH222421   4.174   5.269   2.784
 7486TIP3    H122422   4.148   5.361   2.780
 7486TIP3    H222423   4.269   5.270   2.777
 7487TIP3   OH222424   5.771   2.361   4.763
 7487TIP3    H122425   5.835   2.422   4.801
 7487TIP3    H222426   5.691   2.413   4.756
 7488TIP3   OH222427   0.518   5.210   1.962
 7488TIP3    H122428   0.576   5.211   2.037
 7488TIP3    H222429   0.487   5.300   1.953
 7489TIP3   OH222430   4.316   2.029   5.605
 7489TIP3    H122431   4.326   1.993   5.516
 7489TIP3    H222432   4.399   2.073   5.622
 7490TIP3   OH222433   4.073   3.924   4.921
 7490TIP3    H122434   3.994   3.978   4.927
 7490TIP3    H222435   4.044   3.836   4.946
 7491TIP3   OH222436   7.123   4.168   0.425
 7491TIP3    H122437   7.214   4.184   0.398
 7491TIP3    H222438   7.126   4.084   0.472
 7492TIP3   OH222439   6.474   6.480   1.854
 7492TIP3    H122440   6.471   6.516   1.766
 7492TIP3    H222441   6.505   6.390   1.842
 7493TIP3   OH222442   5.145   0.379   0.169
 7493TIP3    H122443   5.059   0.339   0.180
 7493TIP3    H222444   5.206   0.306   0.169
 7494TIP3   OH222445   3.756   0.314   5.368
 7494TIP3    H122446   3.778   0.283   5.456
 7494TIP3    H222447   3.668   0.351   5.376
 7495TIP3   OH222448   4.638   4.793   5.381
 7495TIP3    H122449   4.565   4.837   5.424
 7495TIP3    H222450   4.619   4.700   5.391
 7496TIP3   OH222451   0.114   4.691   1.175
 7496TIP3    H122452   0.032   4.644   1.158
 7496TIP3    H222453   0.087   4.783   1.184
 7497TIP3   OH222454   4.620   5.021   4.124
 7497TIP3    H122455   4.585   4.949   4.177
 7497TIP3    H222456   4.672   5.073   4.186
 7498TIP3   OH222457   3.770   2.040   5.139
 7498TIP3    H122458   3.830   2.109   5.112
 7498TIP3    H222459   3.683   2.073   5.116
 7499TIP3   OH222460   3.462   0.046   0.840
 7499TIP3    H122461   3.512  -0.028   0.874
 7499TIP3    H222462   3.389   0.006   0.794
 7500TIP3   OH222463   1.141   3.316   5.697
 7500TIP3    H122464   1.148   3.275   5.784
 7500TIP3    H222465   1.088   3.254   5.647
 7501TIP3   OH222466   3.771   1.518   5.569
 7501TIP3    H122467   3.754   1.524   5.663
 7501TIP3    H222468   3.849   1.571   5.555
 7502TIP3   OH222469   6.352   3.011   1.643
 7502TIP3    H122470   6.350   2.982   1.734
 7502TIP3    H222471   6.426   2.965   1.605
 7503TIP3   OH222472   1.540   2.198   5.751
 7503TIP3    H122473   1.463   2.248   5.722
 7503TIP3    H222474   1.604   2.212   5.681
 7504TIP3   OH222475   3.305   6.191   0.095
 7504TIP3    H122476   3.304   6.168   0.188
 7504TIP3    H222477   3.214   6.209   0.074
 7505TIP3   OH222478   6.259   3.884   1.969
 7505TIP3    H122479   6.296   3.839   1.893
 7505TIP3    H222480   6.334   3.906   2.023
 7506TIP3   OH222481   2.543   1.830   4.894
 7506TIP3    H122482   2.622   1.777   4.900
 7506TIP3    H222483   2.500   1.801   4.814
 7507TIP3   OH222484   4.666   5.252   4.977
 7507TIP3    H122485   4.578   5.289   4.967
 7507TIP3    H222486   4.681   5.202   4.897
 7508TIP3   OH222487   3.497   6.550   1.077
 7508TIP3    H122488   3.526   6.479   1.135
 7508TIP3    H222489   3.577   6.593   1.050
 7509TIP3   OH222490   5.730   1.672   0.172
 7509TIP3    H122491   5.663   1.716   0.120
 7509TIP3    H222492   5.684   1.598   0.212
 7510TIP3   OH222493   0.937   4.902   4.493
 7510TIP3    H122494   0.911   4.919   4.583
 7510TIP3    H222495   1.020   4.854   4.500
 7511TIP3   OH222496   1.358   2.903   1.278
 7511TIP3    H122497   1.356   2.807   1.280
 7511TIP3    H222498   1.304   2.927   1.202
 7512TIP3   OH222499   3.982   0.113   1.831
 7512TIP3    H122500   4.045   0.182   1.811
 7512TIP3    H222501   4.013   0.037   1.782
 7513TIP3   OH222502   2.095   3.256   5.647
 7513TIP3    H122503   2.052   3.339   5.664
 7513TIP3    H222504   2.061   3.228   5.562
 7514TIP3   OH222505   2.465   1.436   1.505
 7514TIP3    H122506   2.381   1.482   1.496
 7514TIP3    H222507   2.531   1.505   1.494
 7515TIP3   OH222508   6.159   4.855   0.747
 7515TIP3    H122509   6.078   4.805   0.740
 7515TIP3    H222510   6.204   4.838   0.664
 7516TIP3   OH222511   5.188   6.635   0.300
 7516TIP3    H122512   5.189   6.694   0.225
 7516TIP3    H222513   5.251   6.566   0.276
 7517TIP3   OH222514   5.874   2.933   5.242
 7517TIP3    H122515   5.952   2.973   5.279
 7517TIP3    H222516   5.857   2.984   5.162
 7518TIP3   OH222517   1.320   0.300   0.693
 7518TIP3    H122518   1.293   0.250   0.616
 7518TIP3    H222519   1.395   0.253   0.727
 7519TIP3   OH222520   1.242   3.940   0.310
 7519TIP3    H122521   1.259   4.000   0.238
 7519TIP3    H222522   1.147   3.936   0.316
 7520TIP3   OH222523   0.893   2.528   2.023
 7520TIP3    H122524   0.914   2.621   2.032
 7520TIP3    H222525   0.799   2.523   2.042
 7521TIP3   OH222526   5.217   4.714   1.094
 7521TIP3    H122527   5.198   4.770   1.020
 7521TIP3    H222528   5.231   4.627   1.056
 7522TIP3   OH222529   5.386   1.366   0.087
 7522TIP3    H122530   5.332   1.428   0.135
 7522TIP3    H222531   5.467   1.359   0.138
 7523TIP3   OH222532   2.605   1.616   0.454
 7523TIP3    H122533   2.546   1.691   0.450
 7523TIP3    H222534   2.584   1.573   0.537
 7524TIP3   OH222535   1.319   3.281   5.050
 7524TIP3    H122536   1.277   3.290   5.135
 7524TIP3    H222537   1.250   3.247   4.993
 7525TIP3   OH222538   6.920   1.535   3.426
 7525TIP3    H122539   6.942   1.577   3.343
 7525TIP3    H222540   6.960   1.591   3.493
 7526TIP3   OH222541   7.072   5.854   3.114
 7526TIP3    H122542   6.990   5.895   3.142
 7526TIP3    H222543   7.072   5.769   3.158
 7527TIP3   OH222544   0.451   0.437   0.919
 7527TIP3    H122545   0.385   0.386   0.873
 7527TIP3    H222546   0.508   0.372   0.959
 7528TIP3   OH222547   2.160   3.278   0.996
 7528TIP3    H122548   2.214   3.357   1.006
 7528TIP3    H222549   2.092   3.304   0.935
 7529TIP3   OH222550   6.817   1.634   0.422
 7529TIP3    H122551   6.765   1.714   0.423
 7529TIP3    H222552   6.906   1.663   0.442
 7530TIP3   OH222553   0.480   2.397   1.599
 7530TIP3    H122554   0.444   2.350   1.524
 7530TIP3    H222555   0.573   2.404   1.580
 7531TIP3   OH222556   2.261   2.693   3.325
 7531TIP3    H122557   2.313   2.754   3.272
 7531TIP3    H222558   2.170   2.717   3.305
 7532TIP3   OH222559   0.151   0.168   3.508
 7532TIP3    H122560   0.166   0.101   3.574
 7532TIP3    H222561   0.065   0.204   3.530
 7533TIP3   OH222562   4.193   0.852   3.744
 7533TIP3    H122563   4.192   0.761   3.713
 7533TIP3    H222564   4.198   0.844   3.840
 7534TIP3   OH222565   5.330   0.621   3.667
 7534TIP3    H122566   5.248   0.663   3.641
 7534TIP3    H222567   5.307   0.529   3.678
 7535TIP3   OH222568   0.684   5.098   4.467
 7535TIP3    H122569   0.743   5.063   4.534
 7535TIP3    H222570   0.665   5.187   4.496
 7536TIP3   OH222571   2.585   0.080   0.663
 7536TIP3    H122572   2.493   0.069   0.637
 7536TIP3    H222573   2.626  -0.004   0.643
 7537TIP3   OH222574   1.620   0.766   4.869
 7537TIP3    H122575   1.530   0.746   4.843
 7537TIP3    H222576   1.674   0.723   4.803
 7538TIP3   OH222577   1.995   0.917   5.088
 7538TIP3    H122578   2.075   0.864   5.096
 7538TIP3    H222579   1.959   0.920   5.176
 7539TIP3   OH222580   0.364   3.469   1.327
 7539TIP3    H122581   0.388   3.378   1.346
 7539TIP3    H222582   0.283   3.462   1.277
 7540TIP3   OH222583   6.468   1.697   3.496
 7540TIP3    H122584   6.455   1.709   3.402
 7540TIP3    H222585   6.420   1.770   3.536
 7541TIP3   OH222586   5.965   1.996   1.807
 7541TIP3    H122587   6.060   1.988   1.818
 7541TIP3    H222588   5.930   1.974   1.894
 7542TIP3   OH222589   6.747   0.132   1.338
 7542TIP3    H122590   6.768   0.225   1.326
 7542TIP3    H222591   6.807   0.102   1.406
 7543TIP3   OH222592   2.015   5.269   2.924
 7543TIP3    H122593   2.012   5.336   2.992
 7543TIP3    H222594   1.933   5.221   2.935
 7544TIP3   OH222595   3.688   5.291   2.897
 7544TIP3    H122596   3.665   5.235   2.823
 7544TIP3    H222597   3.645   5.375   2.878
 7545TIP3   OH222598   1.823   5.882   4.559
 7545TIP3    H122599   1.796   5.903   4.649
 7545TIP3    H222600   1.786   5.953   4.506
 7546TIP3   OH222601   3.037   2.114   1.102
 7546TIP3    H122602   3.039   2.111   1.006
 7546TIP3    H222603   3.129   2.111   1.128
 7547TIP3   OH222604   6.087   3.120   4.952
 7547TIP3    H122605   6.101   3.043   4.897
 7547TIP3    H222606   6.153   3.183   4.923
 7548TIP3   OH222607   4.206   4.423   0.456
 7548TIP3    H122608   4.288   4.454   0.494
 7548TIP3    H222609   4.149   4.500   0.457
 7549TIP3   OH222610   0.971   1.596   1.366
 7549TIP3    H122611   0.974   1.687   1.335
 7549TIP3    H222612   1.009   1.545   1.294
 7550TIP3   OH222613   0.052   3.155   5.781
 7550TIP3    H122614   0.050   3.129   5.689
 7550TIP3    H222615   0.071   3.074   5.828
 7551TIP3   OH222616   0.496   3.623   4.278
 7551TIP3    H122617   0.528   3.533   4.276
 7551TIP3    H222618   0.575   3.676   4.262
 7552TIP3   OH222619   6.286   2.049   2.411
 7552TIP3    H122620   6.374   2.072   2.439
 7552TIP3    H222621   6.257   2.124   2.358
 7553TIP3   OH222622   0.521   4.554   4.690
 7553TIP3    H122623   0.556   4.482   4.742
 7553TIP3    H222624   0.439   4.578   4.733
 7554TIP3   OH222625   3.688   1.287   3.605
 7554TIP3    H122626   3.594   1.291   3.618
 7554TIP3    H222627   3.710   1.194   3.614
 7555TIP3   OH222628   3.487   5.299   4.408
 7555TIP3    H122629   3.476   5.301   4.313
 7555TIP3    H222630   3.480   5.391   4.434
 7556TIP3   OH222631   3.139   6.739   1.100
 7556TIP3    H122632   3.062   6.701   1.143
 7556TIP3    H222633   3.204   6.745   1.170
 7557TIP3   OH222634   1.113   5.736   4.828
 7557TIP3    H122635   1.070   5.669   4.881
 7557TIP3    H222636   1.129   5.808   4.890
 7558TIP3   OH222637   6.673   3.249   5.866
 7558TIP3    H122638   6.683   3.343   5.852
 7558TIP3    H222639   6.679   3.238   5.960
 7559TIP3   OH222640   4.233   4.891   5.221
 7559TIP3    H122641   4.196   4.905   5.134
 7559TIP3    H222642   4.306   4.831   5.206
 7560TIP3   OH222643   6.997   2.441   1.666
 7560TIP3    H122644   7.079   2.460   1.622
 7560TIP3    H222645   7.006   2.351   1.696
 7561TIP3   OH222646   1.353   5.009   0.834
 7561TIP3    H122647   1.341   4.956   0.755
 7561TIP3    H222648   1.305   5.090   0.815
 7562TIP3   OH222649   2.680   0.266   1.584
 7562TIP3    H122650   2.718   0.232   1.503
 7562TIP3    H222651   2.591   0.230   1.586
 7563TIP3   OH222652   3.924   5.079   1.497
 7563TIP3    H122653   3.959   5.167   1.487
 7563TIP3    H222654   3.997   5.028   1.532
 7564TIP3   OH222655   2.511   4.402   1.533
 7564TIP3    H122656   2.575   4.461   1.573
 7564TIP3    H222657   2.479   4.449   1.456
 7565TIP3   OH222658   4.824   1.244   1.069
 7565TIP3    H122659   4.846   1.178   1.134
 7565TIP3    H222660   4.729   1.235   1.057
 7566TIP3   OH222661   3.237   0.015   5.288
 7566TIP3    H122662   3.177   0.074   5.243
 7566TIP3    H222663   3.319   0.023   5.240
 7567TIP3   OH222664   4.515   3.611   3.180
 7567TIP3    H122665   4.589   3.631   3.237
 7567TIP3    H222666   4.552   3.555   3.112
 7568TIP3   OH222667   4.056   3.789   3.356
 7568TIP3    H122668   4.019   3.703   3.377
 7568TIP3    H222669   3.979   3.844   3.341
 7569TIP3   OH222670   1.523   1.965   4.460
 7569TIP3    H122671   1.439   1.920   4.475
 7569TIP3    H222672   1.537   1.958   4.366
 7570TIP3   OH222673   2.767   3.248   3.019
 7570TIP3    H122674   2.682   3.206   3.016
 7570TIP3    H222675   2.829   3.180   2.993
 7571TIP3   OH222676   3.755   4.254   4.630
 7571TIP3    H122677   3.689   4.303   4.678
 7571TIP3    H222678   3.807   4.321   4.585
 7572TIP3   OH222679   3.435   5.948   0.913
 7572TIP3    H122680   3.515   5.935   0.862
 7572TIP3    H222681   3.367   5.964   0.848
 7573TIP3   OH222682   4.095   0.289   4.685
 7573TIP3    H122683   4.072   0.202   4.651
 7573TIP3    H222684   4.146   0.330   4.615
 7574TIP3   OH222685   2.965   4.248   3.782
 7574TIP3    H122686   3.026   4.175   3.770
 7574TIP3    H222687   3.015   4.313   3.831
 7575TIP3   OH222688   2.755   5.911   2.438
 7575TIP3    H122689   2.779   5.889   2.348
 7575TIP3    H222690   2.666   5.946   2.432
 7576TIP3   OH222691   7.152   6.290   4.143
 7576TIP3    H122692   7.082   6.271   4.081
 7576TIP3    H222693   7.218   6.338   4.092
 7577TIP3   OH222694   1.353   4.404   4.927
 7577TIP3    H122695   1.295   4.332   4.904
 7577TIP3    H222696   1.440   4.375   4.899
 7578TIP3   OH222697   2.110   5.566   1.659
 7578TIP3    H122698   2.142   5.477   1.675
 7578TIP3    H222699   2.178   5.606   1.605
 7579TIP3   OH222700   0.079   2.734   3.120
 7579TIP3    H122701   0.132   2.720   3.042
 7579TIP3    H222702   0.111   2.669   3.182
 7580TIP3   OH222703   6.554   1.901   0.618
 7580TIP3    H122704   6.610   1.969   0.582
 7580TIP3    H222705   6.523   1.852   0.542
 7581TIP3   OH222706   2.520   6.148   1.978
 7581TIP3    H122707   2.588   6.124   1.914
 7581TIP3    H222708   2.507   6.069   2.030
 7582TIP3   OH222709   5.675   3.076   0.937
 7582TIP3    H122710   5.614   3.089   0.864
 7582TIP3    H222711   5.707   3.164   0.957
 7583TIP3   OH222712   5.633   6.545   4.902
 7583TIP3    H122713   5.599   6.575   4.817
 7583TIP3    H222714   5.720   6.585   4.909
 7584TIP3   OH222715   5.331   5.568   3.948
 7584TIP3    H122716   5.334   5.661   3.971
 7584TIP3    H222717   5.338   5.522   4.032
 7585TIP3   OH222718   2.950   2.672   2.775
 7585TIP3    H122719   2.977   2.644   2.862
 7585TIP3    H222720   2.871   2.621   2.757
 7586TIP3   OH222721   4.789   2.885   0.042
 7586TIP3    H122722   4.799   2.847   0.130
 7586TIP3    H222723   4.845   2.962   0.042
 7587TIP3   OH222724   4.022   4.741   0.222
 7587TIP3    H122725   4.118   4.734   0.215
 7587TIP3    H222726   3.989   4.684   0.153
 7588TIP3   OH222727   3.527   2.850   5.441
 7588TIP3    H122728   3.609   2.896   5.423
 7588TIP3    H222729   3.532   2.827   5.534
 7589TIP3   OH222730   0.288   4.310   5.522
 7589TIP3    H122731   0.221   4.335   5.586
 7589TIP3    H222732   0.325   4.229   5.557
 7590TIP3   OH222733   3.971   2.716   0.366
 7590TIP3    H122734   4.060   2.704   0.399
 7590TIP3    H222735   3.935   2.786   0.422
 7591TIP3   OH222736   6.105   2.797   3.789
 7591TIP3    H122737   6.070   2.880   3.755
 7591TIP3    H222738   6.194   2.793   3.756
 7592TIP3   OH222739   0.468   4.619   3.164
 7592TIP3    H122740   0.497   4.680   3.232
 7592TIP3    H222741   0.382   4.652   3.137
 7593TIP3   OH222742   2.482   2.950   0.032
 7593TIP3    H122743   2.447   2.881   0.089
 7593TIP3    H222744   2.433   3.028   0.056
 7594TIP3   OH222745   5.999   2.281   5.876
 7594TIP3    H122746   6.000   2.344   5.804
 7594TIP3    H222747   6.047   2.206   5.842
 7595TIP3   OH222748   6.850   2.496   3.316
 7595TIP3    H122749   6.814   2.480   3.229
 7595TIP3    H222750   6.945   2.491   3.305
 7596TIP3   OH222751   0.774   6.445   1.220
 7596TIP3    H122752   0.700   6.405   1.266
 7596TIP3    H222753   0.740   6.463   1.132
 7597TIP3   OH222754   0.278   6.219   4.230
 7597TIP3    H122755   0.213   6.151   4.248
 7597TIP3    H222756   0.270   6.235   4.136
 7598TIP3   OH222757   6.821   6.681   1.239
 7598TIP3    H122758   6.757   6.647   1.177
 7598TIP3    H222759   6.895   6.621   1.232
 7599TIP3   OH222760   5.181   3.830   2.529
 7599TIP3    H122761   5.156   3.788   2.447
 7599TIP3    H222762   5.229   3.762   2.577
 7600TIP3   OH222763   0.832   5.471   2.082
 7600TIP3    H122764   0.777   5.412   2.135
 7600TIP3    H222765   0.827   5.554   2.129
 7601TIP3   OH222766   3.423   3.313   0.537
 7601TIP3    H122767   3.408   3.385   0.598
 7601TIP3    H222768   3.341   3.303   0.490
 7602TIP3   OH222769   5.189   1.608   0.995
 7602TIP3    H122770   5.218   1.699   0.983
 7602TIP3    H222771   5.155   1.582   0.909
 7603TIP3   OH222772   2.281   1.791   0.668
 7603TIP3    H122773   2.254   1.883   0.667
 7603TIP3    H222774   2.206   1.745   0.707
 7604TIP3   OH222775   2.326   2.419   2.096
 7604TIP3    H122776   2.279   2.336   2.105
 7604TIP3    H222777   2.258   2.486   2.103
 7605TIP3   OH222778   0.801   3.316   4.605
 7605TIP3    H122779   0.761   3.269   4.531
 7605TIP3    H222780   0.749   3.289   4.681
 7606TIP3   OH222781   3.105   0.976   1.457
 7606TIP3    H122782   3.172   0.929   1.407
 7606TIP3    H222783   3.072   0.912   1.520
 7607TIP3   OH222784   5.021   3.751   3.454
 7607TIP3    H122785   5.073   3.797   3.520
 7607TIP3    H222786   5.011   3.814   3.383
 7608TIP3   OH222787   6.251   2.261   1.636
 7608TIP3    H122788   6.298   2.216   1.706
 7608TIP3    H222789   6.316   2.319   1.596
 7609TIP3   OH222790   5.959   0.590   4.213
 7609TIP3    H122791   5.904   0.514   4.192
 7609TIP3    H222792   5.899   0.664   4.213
 7610TIP3   OH222793   3.976   1.305   5.363
 7610TIP3    H122794   4.024   1.262   5.292
 7610TIP3    H222795   3.900   1.249   5.377
 7611TIP3   OH222796   2.724   5.886   1.185
 7611TIP3    H122797   2.741   5.805   1.137
 7611TIP3    H222798   2.661   5.934   1.131
 7612TIP3   OH222799   3.090   3.595   0.664
 7612TIP3    H122800   3.026   3.559   0.603
 7612TIP3    H222801   3.151   3.643   0.608
 7613TIP3   OH222802   4.669   6.351   2.660
 7613TIP3    H122803   4.744   6.364   2.719
 7613TIP3    H222804   4.606   6.418   2.688
 7614TIP3   OH222805   2.636   5.825   3.969
 7614TIP3    H122806   2.546   5.809   3.941
 7614TIP3    H222807   2.631   5.832   4.064
 7615TIP3   OH222808   5.101   0.772   3.652
 7615TIP3    H122809   5.014   0.734   3.641
 7615TIP3    H222810   5.084   0.863   3.677
 7616TIP3   OH222811   1.273   5.195   1.957
 7616TIP3    H122812   1.183   5.165   1.947
 7616TIP3    H222813   1.325   5.136   1.902
 7617TIP3   OH222814   6.460   4.271   2.557
 7617TIP3    H122815   6.546   4.312   2.556
 7617TIP3    H222816   6.473   4.187   2.512
 7618TIP3   OH222817   0.614   6.054   3.607
 7618TIP3    H122818   0.595   6.023   3.696
 7618TIP3    H222819   0.642   5.976   3.560
 7619TIP3   OH222820   5.590   1.941   3.718
 7619TIP3    H122821   5.662   1.878   3.723
 7619TIP3    H222822   5.513   1.888   3.697
 7620TIP3   OH222823   0.777   2.599   5.682
 7620TIP3    H122824   0.743   2.581   5.594
 7620TIP3    H222825   0.745   2.686   5.703
 7621TIP3   OH222826   1.315   5.644   2.067
 7621TIP3    H122827   1.259   5.568   2.083
 7621TIP3    H222828   1.385   5.637   2.132
 7622TIP3   OH222829   0.909   0.790   5.166
 7622TIP3    H122830   0.852   0.838   5.225
 7622TIP3    H222831   0.863   0.708   5.149
 7623TIP3   OH222832   3.951   3.836   5.618
 7623TIP3    H122833   3.981   3.760   5.568
 7623TIP3    H222834   3.993   3.911   5.576
 7624TIP3   OH222835   5.835   1.456   1.828
 7624TIP3    H122836   5.801   1.528   1.882
 7624TIP3    H222837   5.869   1.499   1.749
 7625TIP3   OH222838   4.985   5.969   4.001
 7625TIP3    H122839   5.076   5.974   3.973
 7625TIP3    H222840   4.974   5.880   4.034
 7626TIP3   OH222841   0.942   0.222   2.858
 7626TIP3    H122842   0.967   0.150   2.916
 7626TIP3    H222843   0.991   0.297   2.890
 7627TIP3   OH222844   2.508   2.322   4.034
 7627TIP3    H122845   2.525   2.244   4.087
 7627TIP3    H222846   2.512   2.395   4.096
 7628TIP3   OH222847   3.180   4.453   0.300
 7628TIP3    H122848   3.141   4.406   0.374
 7628TIP3    H222849   3.218   4.385   0.246
 7629TIP3   OH222850   6.368   4.048   2.400
 7629TIP3    H122851   6.366   3.974   2.460
 7629TIP3    H222852   6.280   4.049   2.361
 7630TIP3   OH222853   1.632   3.250   5.176
 7630TIP3    H122854   1.611   3.231   5.268
 7630TIP3    H222855   1.624   3.166   5.132
 7631TIP3   OH222856   6.431   0.079   2.301
 7631TIP3    H122857   6.494   0.047   2.236
 7631TIP3    H222858   6.401   0.001   2.346
 7632TIP3   OH222859   1.848   3.055   1.312
 7632TIP3    H122860   1.759   3.022   1.324
 7632TIP3    H222861   1.857   3.124   1.378
 7633TIP3   OH222862   0.411   2.871   3.189
 7633TIP3    H122863   0.413   2.790   3.138
 7633TIP3    H222864   0.411   2.940   3.123
 7634TIP3   OH222865   1.697   0.373   4.960
 7634TIP3    H122866   1.733   0.414   4.881
 7634TIP3    H222867   1.667   0.446   5.014
 7635TIP3   OH222868   3.923   0.979   3.065
 7635TIP3    H122869   3.992   0.973   3.131
 7635TIP3    H222870   3.967   0.963   2.982
 7636TIP3   OH222871   1.102   2.123   3.655
 7636TIP3    H122872   1.040   2.193   3.675
 7636TIP3    H222873   1.176   2.139   3.714
 7637TIP3   OH222874   5.843   5.205   2.688
 7637TIP3    H122875   5.925   5.176   2.649
 7637TIP3    H222876   5.862   5.213   2.781
 7638TIP3   OH222877   6.171   6.403   1.604
 7638TIP3    H122878   6.121   6.475   1.643
 7638TIP3    H222879   6.161   6.331   1.666
 7639TIP3   OH222880   1.255   2.724   2.455
 7639TIP3    H122881   1.233   2.647   2.508
 7639TIP3    H222882   1.308   2.779   2.512
 7640TIP3   OH222883   5.326   0.635   4.602
 7640TIP3    H122884   5.253   0.580   4.574
 7640TIP3    H222885   5.382   0.578   4.654
 7641TIP3   OH222886   5.010   5.291   3.314
 7641TIP3    H122887   5.068   5.280   3.389
 7641TIP3    H222888   5.016   5.384   3.293
 7642TIP3   OH222889   6.468   3.856   1.726
 7642TIP3    H122890   6.554   3.889   1.752
 7642TIP3    H222891   6.480   3.761   1.720
 7643TIP3   OH222892   5.268   6.304   0.302
 7643TIP3    H122893   5.352   6.345   0.325
 7643TIP3    H222894   5.217   6.307   0.383
 7644TIP3   OH222895   3.977   6.112   0.903
 7644TIP3    H122896   3.992   6.198   0.944
 7644TIP3    H222897   4.039   6.109   0.831
 7645TIP3   OH222898   1.027   3.962   1.951
 7645TIP3    H122899   0.966   4.003   1.891
 7645TIP3    H222900   1.069   3.893   1.899
 7646TIP3   OH222901   1.904   6.548   0.671
 7646TIP3    H122902   1.849   6.474   0.695
 7646TIP3    H222903   1.993   6.514   0.675
 7647TIP3   OH222904   3.224   4.729   2.378
 7647TIP3    H122905   3.314   4.751   2.356
 7647TIP3    H222906   3.204   4.652   2.324
 7648TIP3   OH222907   6.791   4.815   1.008
 7648TIP3    H122908   6.776   4.901   0.968
 7648TIP3    H222909   6.772   4.829   1.101
 7649TIP3   OH222910   4.201   6.267   0.115
 7649TIP3    H122911   4.201   6.361   0.094
 7649TIP3    H222912   4.162   6.262   0.202
 7650TIP3   OH222913   3.581   6.367   1.261
 7650TIP3    H122914   3.637   6.290   1.249
 7650TIP3    H222915   3.639   6.432   1.300
 7651TIP3   OH222916   5.636   0.506   5.243
 7651TIP3    H122917   5.579   0.578   5.270
 7651TIP3    H222918   5.607   0.484   5.155
 7652TIP3   OH222919   3.535   6.215   0.961
 7652TIP3    H122920   3.486   6.135   0.976
 7652TIP3    H222921   3.514   6.240   0.871
 7653TIP3   OH222922   2.584   5.079   4.819
 7653TIP3    H122923   2.560   5.093   4.910
 7653TIP3    H222924   2.580   5.166   4.779
 7654TIP3   OH222925   1.701   1.489   1.182
 7654TIP3    H122926   1.764   1.421   1.205
 7654TIP3    H222927   1.688   1.480   1.088
 7655TIP3   OH222928   5.126   2.554   0.789
 7655TIP3    H122929   5.155   2.537   0.699
 7655TIP3    H222930   5.043   2.600   0.779
 7656TIP3   OH222931   1.968   6.715   5.811
 7656TIP3    H122932   1.876   6.734   5.827
 7656TIP3    H222933   1.999   6.674   5.892
 7657TIP3   OH222934   6.958   6.198   2.449
 7657TIP3    H122935   6.872   6.179   2.486
 7657TIP3    H222936   6.944   6.277   2.396
 7658TIP3   OH222937   2.610   6.520   2.015
 7658TIP3    H122938   2.551   6.513   1.940
 7658TIP3    H222939   2.582   6.450   2.074
 7659TIP3   OH222940   0.252   3.830   5.046
 7659TIP3    H122941   0.195   3.768   5.000
 7659TIP3    H222942   0.336   3.825   5.001
 7660TIP3   OH222943   2.594   6.564   5.806
 7660TIP3    H122944   2.654   6.541   5.734
 7660TIP3    H222945   2.562   6.479   5.837
 7661TIP3   OH222946   5.222   5.135   2.113
 7661TIP3    H122947   5.267   5.092   2.186
 7661TIP3    H222948   5.239   5.228   2.125
 7662TIP3   OH222949   5.485   1.007   0.609
 7662TIP3    H122950   5.563   1.048   0.573
 7662TIP3    H222951   5.515   0.922   0.640
 7663TIP3   OH222952   5.032   5.834   2.154
 7663TIP3    H122953   5.053   5.741   2.141
 7663TIP3    H222954   4.936   5.836   2.162
 7664TIP3   OH222955   6.555   3.167   2.161
 7664TIP3    H122956   6.602   3.237   2.208
 7664TIP3    H222957   6.624   3.104   2.138
 7665TIP3   OH222958   4.056   2.389   3.425
 7665TIP3    H122959   4.081   2.409   3.335
 7665TIP3    H222960   4.034   2.473   3.464
 7666TIP3   OH222961   7.101   0.419   4.565
 7666TIP3    H122962   7.085   0.479   4.492
 7666TIP3    H222963   7.079   0.469   4.643
 7667TIP3   OH222964   5.909   3.851   4.959
 7667TIP3    H122965   5.973   3.910   4.919
 7667TIP3    H222966   5.826   3.872   4.917
 7668TIP3   OH222967   5.398   5.636   5.634
 7668TIP3    H122968   5.485   5.596   5.623
 7668TIP3    H222969   5.355   5.580   5.699
 7669TIP3   OH222970   0.406   5.922   3.781
 7669TIP3    H122971   0.458   5.917   3.861
 7669TIP3    H222972   0.316   5.937   3.813
 7670TIP3   OH222973   0.878   1.248   4.169
 7670TIP3    H122974   0.831   1.167   4.149
 7670TIP3    H222975   0.809   1.312   4.186
 7671TIP3   OH222976   1.540   1.511   5.816
 7671TIP3    H122977   1.510   1.427   5.850
 7671TIP3    H222978   1.593   1.487   5.739
 7672TIP3   OH222979   0.254   6.060   1.622
 7672TIP3    H122980   0.345   6.031   1.622
 7672TIP3    H222981   0.229   6.062   1.714
 7673TIP3   OH222982   1.861   6.324   0.113
 7673TIP3    H122983   1.896   6.413   0.123
 7673TIP3    H222984   1.774   6.337   0.076
 7674TIP3   OH222985   4.083   0.623   3.291
 7674TIP3    H122986   4.090   0.716   3.310
 7674TIP3    H222987   4.057   0.619   3.199
 7675TIP3   OH222988   1.863   1.510   1.753
 7675TIP3    H122989   1.851   1.598   1.715
 7675TIP3    H222990   1.959   1.501   1.759
 7676TIP3   OH222991   6.941   1.363   0.715
 7676TIP3    H122992   6.957   1.307   0.791
 7676TIP3    H222993   6.906   1.444   0.753
 7677TIP3   OH222994   4.473   6.707   3.719
 7677TIP3    H122995   4.412   6.764   3.673
 7677TIP3    H222996   4.425   6.679   3.797
 7678TIP3   OH222997   3.217   1.861   1.554
 7678TIP3    H122998   3.180   1.934   1.504
 7678TIP3    H222999   3.142   1.823   1.599
 7679TIP3   OH223000   5.694   3.760   3.279
 7679TIP3    H123001   5.783   3.789   3.258
 7679TIP3    H223002   5.683   3.678   3.232
 7680TIP3   OH223003   5.667   4.161   4.830
 7680TIP3    H123004   5.664   4.233   4.893
 7680TIP3    H223005   5.576   4.148   4.804
 7681TIP3   OH223006   6.872   6.220   1.678
 7681TIP3    H123007   6.926   6.142   1.696
 7681TIP3    H223008   6.927   6.294   1.703
 7682TIP3   OH223009   1.675   2.792   4.779
 7682TIP3    H123010   1.632   2.710   4.756
 7682TIP3    H223011   1.672   2.795   4.875
 7683TIP3   OH223012   6.372   3.494   5.659
 7683TIP3    H123013   6.301   3.555   5.677
 7683TIP3    H223014   6.400   3.463   5.745
 7684TIP3   OH223015   3.732   2.270   2.909
 7684TIP3    H123016   3.807   2.212   2.899
 7684TIP3    H223017   3.656   2.212   2.911
 7685TIP3   OH223018   3.131   4.033   3.944
 7685TIP3    H123019   3.118   4.115   3.992
 7685TIP3    H223020   3.206   3.992   3.987
 7686TIP3   OH223021   6.256   4.523   3.503
 7686TIP3    H123022   6.329   4.512   3.442
 7686TIP3    H223023   6.296   4.548   3.586
 7687TIP3   OH223024   1.105   0.336   5.047
 7687TIP3    H123025   1.199   0.324   5.033
 7687TIP3    H223026   1.064   0.273   4.987
 7688TIP3   OH223027   1.156   6.579   0.873
 7688TIP3    H123028   1.135   6.503   0.927
 7688TIP3    H223029   1.201   6.543   0.797
 7689TIP3   OH223030   0.449   3.591   3.379
 7689TIP3    H123031   0.356   3.587   3.356
 7689TIP3    H223032   0.450   3.595   3.475
 7690TIP3   OH223033   3.087   1.154   0.316
 7690TIP3    H123034   3.147   1.227   0.330
 7690TIP3    H223035   3.132   1.096   0.255
 7691TIP3   OH223036   0.738   6.303   3.792
 7691TIP3    H123037   0.781   6.231   3.746
 7691TIP3    H223038   0.737   6.275   3.884
 7692TIP3   OH223039   6.155   5.790   5.689
 7692TIP3    H123040   6.119   5.848   5.756
 7692TIP3    H223041   6.250   5.797   5.700
 7693TIP3   OH223042   5.429   4.146   4.668
 7693TIP3    H123043   5.505   4.115   4.618
 7693TIP3    H223044   5.388   4.211   4.611
 7694TIP3   OH223045   4.652   4.392   1.124
 7694TIP3    H123046   4.578   4.440   1.161
 7694TIP3    H223047   4.702   4.362   1.200
 7695TIP3   OH223048   1.380   5.490   4.197
 7695TIP3    H123049   1.384   5.574   4.150
 7695TIP3    H223050   1.328   5.509   4.275
 7696TIP3   OH223051   0.583   0.726   3.267
 7696TIP3    H123052   0.505   0.781   3.262
 7696TIP3    H223053   0.549   0.638   3.285
 7697TIP3   OH223054   0.615   3.817   1.489
 7697TIP3    H123055   0.584   3.837   1.401
 7697TIP3    H223056   0.588   3.727   1.505
 7698TIP3   OH223057   4.643   5.212   1.617
 7698TIP3    H123058   4.662   5.214   1.523
 7698TIP3    H223059   4.562   5.162   1.623
 7699TIP3   OH223060   0.792   1.601   3.208
 7699TIP3    H123061   0.783   1.686   3.165
 7699TIP3    H223062   0.873   1.565   3.173
 7700TIP3   OH223063   3.439   2.013   4.635
 7700TIP3    H123064   3.383   2.054   4.701
 7700TIP3    H223065   3.483   1.942   4.682
 7701TIP3   OH223066   5.973   4.689   1.086
 7701TIP3    H123067   5.979   4.783   1.069
 7701TIP3    H223068   6.017   4.648   1.012
 7702TIP3   OH223069   1.517   4.034   5.430
 7702TIP3    H123070   1.468   3.975   5.488
 7702TIP3    H223071   1.556   3.977   5.364
 7703TIP3   OH223072   0.082   3.799   2.456
 7703TIP3    H123073   0.084   3.710   2.421
 7703TIP3    H223074   0.123   3.853   2.388
 7704TIP3   OH223075   1.952   4.599   4.253
 7704TIP3    H123076   2.048   4.593   4.258
 7704TIP3    H223077   1.922   4.510   4.266
 7705TIP3   OH223078   3.584   3.850   4.205
 7705TIP3    H123079   3.650   3.916   4.184
 7705TIP3    H223080   3.580   3.850   4.300
 7706TIP3   OH223081   3.941   2.867   1.125
 7706TIP3    H123082   3.864   2.865   1.183
 7706TIP3    H223083   3.981   2.952   1.142
 7707TIP3   OH223084   0.547   4.836   3.694
 7707TIP3    H123085   0.513   4.766   3.750
 7707TIP3    H223086   0.515   4.916   3.734
 7708TIP3   OH223087   5.756   4.060   4.287
 7708TIP3    H123088   5.848   4.078   4.306
 7708TIP3    H223089   5.753   4.050   4.192
 7709TIP3   OH223090   6.262   5.050   4.036
 7709TIP3    H123091   6.220   5.090   4.112
 7709TIP3    H223092   6.356   5.067   4.048
 7710TIP3   OH223093   1.820   3.430   4.355
 7710TIP3    H123094   1.843   3.362   4.419
 7710TIP3    H223095   1.900   3.443   4.304
 7711TIP3   OH223096   2.311   0.280   1.243
 7711TIP3    H123097   2.399   0.318   1.245
 7711TIP3    H223098   2.268   0.324   1.169
 7712TIP3   OH223099   3.250   1.493   2.113
 7712TIP3    H123100   3.253   1.587   2.127
 7712TIP3    H223101   3.304   1.478   2.035
 7713TIP3   OH223102   3.849   6.725   3.733
 7713TIP3    H123103   3.830   6.632   3.728
 7713TIP3    H223104   3.776   6.762   3.783
 7714TIP3   OH223105   4.748   3.165   3.364
 7714TIP3    H123106   4.654   3.168   3.345
 7714TIP3    H223107   4.785   3.115   3.291
 7715TIP3   OH223108   2.160   5.049   3.157
 7715TIP3    H123109   2.221   4.998   3.211
 7715TIP3    H223110   2.213   5.121   3.122
 7716TIP3   OH223111   4.364   0.586   0.491
 7716TIP3    H123112   4.361   0.594   0.586
 7716TIP3    H223113   4.456   0.600   0.468
 7717TIP3   OH223114   1.586   0.401   1.976
 7717TIP3    H123115   1.649   0.472   1.968
 7717TIP3    H223116   1.575   0.389   2.071
 7718TIP3   OH223117   0.777   5.162   3.825
 7718TIP3    H123118   0.751   5.080   3.865
 7718TIP3    H223119   0.695   5.204   3.800
 7719TIP3   OH223120   6.560   3.884   4.940
 7719TIP3    H123121   6.592   3.951   4.879
 7719TIP3    H223122   6.511   3.934   5.006
 7720TIP3   OH223123   6.987   5.212   4.590
 7720TIP3    H123124   7.019   5.286   4.537
 7720TIP3    H223125   6.922   5.250   4.649
 7721TIP3   OH223126   5.825   1.206   0.559
 7721TIP3    H123127   5.829   1.146   0.484
 7721TIP3    H223128   5.816   1.149   0.635
 7722TIP3   OH223129   2.709   4.998   2.605
 7722TIP3    H123130   2.623   4.957   2.606
 7722TIP3    H223131   2.740   4.989   2.515
 7723TIP3   OH223132   0.340   5.716   4.734
 7723TIP3    H123133   0.269   5.677   4.785
 7723TIP3    H223134   0.419   5.674   4.769
 7724TIP3   OH223135   0.801   3.673   1.669
 7724TIP3    H123136   0.784   3.764   1.695
 7724TIP3    H223137   0.730   3.652   1.609
 7725TIP3   OH223138   4.604   6.006   5.778
 7725TIP3    H123139   4.669   5.936   5.776
 7725TIP3    H223140   4.544   5.985   5.706
 7726TIP3   OH223141   1.488   4.756   2.732
 7726TIP3    H123142   1.463   4.816   2.662
 7726TIP3    H223143   1.578   4.781   2.754
 7727TIP3   OH223144   1.745   5.170   4.751
 7727TIP3    H123145   1.721   5.180   4.659
 7727TIP3    H223146   1.714   5.251   4.792
 7728TIP3   OH223147   6.899   5.508   3.719
 7728TIP3    H123148   6.938   5.538   3.636
 7728TIP3    H223149   6.888   5.588   3.770
 7729TIP3   OH223150   3.479   6.021   5.253
 7729TIP3    H123151   3.447   6.062   5.172
 7729TIP3    H223152   3.552   6.076   5.280
 7730TIP3   OH223153   0.078   4.488   5.627
 7730TIP3    H123154   0.131   4.568   5.634
 7730TIP3    H223155  -0.006   4.518   5.594
 7731TIP3   OH223156   1.260   1.510   1.414
 7731TIP3    H123157   1.334   1.530   1.357
 7731TIP3    H223158   1.209   1.591   1.416
 7732TIP3   OH223159   1.858   1.933   5.519
 7732TIP3    H123160   1.949   1.961   5.509
 7732TIP3    H223161   1.831   1.907   5.431
 7733TIP3   OH223162   2.166   3.016   2.609
 7733TIP3    H123163   2.139   2.937   2.655
 7733TIP3    H223164   2.091   3.075   2.616
 7734TIP3   OH223165   6.971   5.629   0.663
 7734TIP3    H123166   6.889   5.579   0.657
 7734TIP3    H223167   7.036   5.564   0.689
 7735TIP3   OH223168   1.107   5.666   1.877
 7735TIP3    H123169   1.163   5.691   1.951
 7735TIP3    H223170   1.020   5.659   1.916
 7736TIP3   OH223171   1.197   4.136   4.397
 7736TIP3    H123172   1.284   4.169   4.376
 7736TIP3    H223173   1.172   4.183   4.477
 7737TIP3   OH223174   3.245   3.834   5.789
 7737TIP3    H123175   3.169   3.824   5.733
 7737TIP3    H223176   3.319   3.837   5.729
 7738TIP3   OH223177   3.156   3.895   0.822
 7738TIP3    H123178   3.143   3.941   0.905
 7738TIP3    H223179   3.088   3.931   0.765
 7739TIP3   OH223180   2.659   3.160   5.229
 7739TIP3    H123181   2.722   3.183   5.297
 7739TIP3    H223182   2.704   3.178   5.146
 7740TIP3   OH223183   1.734   5.531   2.349
 7740TIP3    H123184   1.772   5.500   2.431
 7740TIP3    H223185   1.782   5.611   2.329
 7741TIP3   OH223186   1.410   2.653   4.407
 7741TIP3    H123187   1.344   2.583   4.402
 7741TIP3    H223188   1.364   2.726   4.448
 7742TIP3   OH223189   0.597   6.054   0.953
 7742TIP3    H123190   0.538   6.129   0.948
 7742TIP3    H223191   0.608   6.027   0.862
 7743TIP3   OH223192   2.470   6.211   5.209
 7743TIP3    H123193   2.403   6.144   5.201
 7743TIP3    H223194   2.511   6.195   5.294
 7744TIP3   OH223195   2.192   5.985   0.114
 7744TIP3    H123196   2.144   6.011   0.036
 7744TIP3    H223197   2.165   6.047   0.182
 7745TIP3   OH223198   0.831   2.392   1.807
 7745TIP3    H123199   0.856   2.425   1.894
 7745TIP3    H223200   0.913   2.360   1.769
 7746TIP3   OH223201   4.925   4.340   1.022
 7746TIP3    H123202   4.907   4.334   0.928
 7746TIP3    H223203   4.842   4.368   1.060
 7747TIP3   OH223204   0.510   1.534   5.351
 7747TIP3    H123205   0.466   1.467   5.298
 7747TIP3    H223206   0.599   1.536   5.317
 7748TIP3   OH223207   2.341   5.684   4.763
 7748TIP3    H123208   2.367   5.746   4.694
 7748TIP3    H223209   2.246   5.683   4.759
 7749TIP3   OH223210   3.887   3.621   0.943
 7749TIP3    H123211   3.898   3.619   0.848
 7749TIP3    H223212   3.973   3.643   0.977
 7750TIP3   OH223213   1.521   0.652   3.473
 7750TIP3    H123214   1.585   0.681   3.408
 7750TIP3    H223215   1.534   0.558   3.481
 7751TIP3   OH223216   1.518   5.549   3.852
 7751TIP3    H123217   1.447   5.510   3.903
 7751TIP3    H223218   1.586   5.481   3.850
 7752TIP3   OH223219   0.660   5.144   1.705
 7752TIP3    H123220   0.595   5.119   1.771
 7752TIP3    H223221   0.608   5.176   1.631
 7753TIP3   OH223222   2.463   5.253   5.042
 7753TIP3    H123223   2.408   5.278   5.116
 7753TIP3    H223224   2.453   5.324   4.979
 7754TIP3   OH223225   6.278   5.118   5.244
 7754TIP3    H123226   6.277   5.184   5.313
 7754TIP3    H223227   6.323   5.161   5.171
 7755TIP3   OH223228   4.491   6.780   2.169
 7755TIP3    H123229   4.396   6.791   2.169
 7755TIP3    H223230   4.518   6.806   2.257
 7756TIP3   OH223231   0.207   5.866   2.237
 7756TIP3    H123232   0.140   5.838   2.300
 7756TIP3    H223233   0.157   5.887   2.158
 7757TIP3   OH223234   4.974   4.118   4.651
 7757TIP3    H123235   4.960   4.179   4.579
 7757TIP3    H223236   5.046   4.063   4.622
 7758TIP3   OH223237   3.776   0.424   4.160
 7758TIP3    H123238   3.700   0.466   4.119
 7758TIP3    H223239   3.831   0.399   4.086
 7759TIP3   OH223240   5.760   2.563   3.969
 7759TIP3    H123241   5.697   2.569   3.898
 7759TIP3    H223242   5.727   2.624   4.035
 7760TIP3   OH223243   3.476   0.031   5.182
 7760TIP3    H123244   3.555   0.030   5.236
 7760TIP3    H223245   3.507   0.016   5.093
 7761TIP3   OH223246   3.320   2.972   5.093
 7761TIP3    H123247   3.381   2.974   5.019
 7761TIP3    H223248   3.324   2.882   5.124
 7762TIP3   OH223249   0.554   0.611   1.296
 7762TIP3    H123250   0.589   0.535   1.343
 7762TIP3    H223251   0.602   0.686   1.333
 7763TIP3   OH223252   0.665   2.375   5.404
 7763TIP3    H123253   0.633   2.345   5.319
 7763TIP3    H223254   0.752   2.411   5.384
 7764TIP3   OH223255   6.510   1.930   5.037
 7764TIP3    H123256   6.474   1.848   5.006
 7764TIP3    H223257   6.605   1.916   5.040
 7765TIP3   OH223258   3.492   1.350   3.038
 7765TIP3    H123259   3.413   1.297   3.032
 7765TIP3    H223260   3.503   1.368   3.131
 7766TIP3   OH223261   2.653   0.949   4.650
 7766TIP3    H123262   2.584   0.885   4.633
 7766TIP3    H223263   2.606   1.031   4.666
 7767TIP3   OH223264   3.548   2.757   1.759
 7767TIP3    H123265   3.556   2.793   1.671
 7767TIP3    H223266   3.576   2.828   1.817
 7768TIP3   OH223267   5.169   3.242   1.419
 7768TIP3    H123268   5.165   3.326   1.466
 7768TIP3    H223269   5.245   3.198   1.455
 7769TIP3   OH223270   0.816   2.006   1.559
 7769TIP3    H123271   0.904   1.979   1.584
 7769TIP3    H223272   0.829   2.067   1.486
 7770TIP3   OH223273   2.744   5.231   5.459
 7770TIP3    H123274   2.751   5.170   5.386
 7770TIP3    H223275   2.650   5.243   5.471
 7771TIP3   OH223276   3.909   0.127   3.441
 7771TIP3    H123277   3.916   0.100   3.349
 7771TIP3    H223278   3.819   0.104   3.465
 7772TIP3   OH223279   1.467   2.385   1.119
 7772TIP3    H123280   1.499   2.456   1.063
 7772TIP3    H223281   1.543   2.359   1.171
 7773TIP3   OH223282   1.474   5.213   5.194
 7773TIP3    H123283   1.508   5.201   5.282
 7773TIP3    H223284   1.383   5.185   5.199
 7774TIP3   OH223285   6.784   6.404   4.547
 7774TIP3    H123286   6.808   6.373   4.460
 7774TIP3    H223287   6.694   6.373   4.560
 7775TIP3   OH223288   5.506   0.742   3.836
 7775TIP3    H123289   5.592   0.728   3.796
 7775TIP3    H223290   5.444   0.711   3.770
 7776TIP3   OH223291   6.990   4.071   1.600
 7776TIP3    H123292   6.991   4.148   1.543
 7776TIP3    H223293   7.068   4.022   1.575
 7777TIP3   OH223294   0.223   1.656   4.729
 7777TIP3    H123295   0.296   1.617   4.777
 7777TIP3    H223296   0.242   1.638   4.637
 7778TIP3   OH223297   1.509   5.440   0.362
 7778TIP3    H123298   1.491   5.523   0.319
 7778TIP3    H223299   1.596   5.452   0.402
 7779TIP3   OH223300   0.111   1.483   5.795
 7779TIP3    H123301   0.025   1.446   5.816
 7779TIP3    H223302   0.094   1.543   5.722
 7780TIP3   OH223303   1.176   6.123   0.288
 7780TIP3    H123304   1.093   6.075   0.286
 7780TIP3    H223305   1.240   6.064   0.249
 7781TIP3   OH223306   0.958   5.976   3.247
 7781TIP3    H123307   0.893   6.041   3.220
 7781TIP3    H223308   0.917   5.892   3.226
 7782TIP3   OH223309   4.667   0.437   3.466
 7782TIP3    H123310   4.653   0.343   3.450
 7782TIP3    H223311   4.646   0.448   3.558
 7783TIP3   OH223312   6.908   1.513   4.815
 7783TIP3    H123313   6.947   1.528   4.902
 7783TIP3    H223314   6.966   1.448   4.775
 7784TIP3   OH223315   5.388   3.079   2.738
 7784TIP3    H123316   5.385   3.066   2.643
 7784TIP3    H223317   5.372   3.172   2.750
 7785TIP3   OH223318   0.947   6.556   3.410
 7785TIP3    H123319   1.017   6.606   3.369
 7785TIP3    H223320   0.924   6.607   3.488
 7786TIP3   OH223321   4.506   3.493   4.211
 7786TIP3    H123322   4.566   3.481   4.285
 7786TIP3    H223323   4.448   3.417   4.216
 7787TIP3   OH223324   6.467   2.726   4.510
 7787TIP3    H123325   6.430   2.639   4.494
 7787TIP3    H223326   6.546   2.710   4.561
 7788TIP3   OH223327   3.919   2.974   2.804
 7788TIP3    H123328   3.900   3.028   2.881
 7788TIP3    H223329   3.840   2.979   2.751
 7789TIP3   OH223330   4.807   0.465   2.565
 7789TIP3    H123331   4.715   0.458   2.591
 7789TIP3    H223332   4.811   0.545   2.513
 7790TIP3   OH223333   2.017   1.326   5.863
 7790TIP3    H123334   1.983   1.275   5.788
 7790TIP3    H223335   2.104   1.290   5.879
 7791TIP3   OH223336   6.683   0.072   5.315
 7791TIP3    H123337   6.607   0.129   5.321
 7791TIP3    H223338   6.730   0.102   5.237
 7792TIP3   OH223339   2.993   3.158   0.515
 7792TIP3    H123340   3.070   3.109   0.542
 7792TIP3    H223341   2.992   3.150   0.420
 7793TIP3   OH223342   1.197   4.992   3.332
 7793TIP3    H123343   1.122   5.022   3.281
 7793TIP3    H223344   1.270   5.043   3.299
 7794TIP3   OH223345   6.453   6.029   4.846
 7794TIP3    H123346   6.407   6.041   4.929
 7794TIP3    H223347   6.386   5.995   4.786
 7795TIP3   OH223348   4.021   0.310   4.956
 7795TIP3    H123349   4.057   0.258   4.885
 7795TIP3    H223350   3.946   0.260   4.987
 7796TIP3   OH223351   5.992   0.100   2.048
 7796TIP3    H123352   6.036   0.019   2.074
 7796TIP3    H223353   6.040   0.130   1.971
 7797TIP3   OH223354   5.655   1.205   2.884
 7797TIP3    H123355   5.583   1.261   2.913
 7797TIP3    H223356   5.650   1.128   2.941
 7798TIP3   OH223357   1.171   4.639   4.084
 7798TIP3    H123358   1.166   4.566   4.146
 7798TIP3    H223359   1.135   4.713   4.132
 7799TIP3   OH223360   4.618   0.653   5.182
 7799TIP3    H123361   4.528   0.680   5.201
 7799TIP3    H223362   4.610   0.565   5.145
 7800TIP3   OH223363   5.846   6.636   3.169
 7800TIP3    H123364   5.933   6.596   3.169
 7800TIP3    H223365   5.785   6.563   3.166
 7801TIP3   OH223366   0.294   0.350   3.899
 7801TIP3    H123367   0.381   0.322   3.871
 7801TIP3    H223368   0.285   0.315   3.987
 7802TIP3   OH223369   0.385   6.547   5.268
 7802TIP3    H123370   0.370   6.463   5.224
 7802TIP3    H223371   0.479   6.550   5.284
 7803TIP3   OH223372   5.210   4.646   5.038
 7803TIP3    H123373   5.186   4.674   5.126
 7803TIP3    H223374   5.300   4.676   5.027
 7804TIP3   OH223375   0.323   0.392   4.487
 7804TIP3    H123376   0.316   0.399   4.392
 7804TIP3    H223377   0.255   0.328   4.511
 7805TIP3   OH223378   4.378   5.634   0.704
 7805TIP3    H123379   4.340   5.605   0.621
 7805TIP3    H223380   4.372   5.730   0.701
 7806TIP3   OH223381   2.915   4.304   3.279
 7806TIP3    H123382   2.977   4.241   3.316
 7806TIP3    H223383   2.848   4.314   3.347
 7807TIP3   OH223384   5.332   2.902   4.524
 7807TIP3    H123385   5.379   2.913   4.441
 7807TIP3    H223386   5.246   2.943   4.508
 7808TIP3   OH223387   7.193   6.530   5.789
 7808TIP3    H123388   7.221   6.619   5.811
 7808TIP3    H223389   7.143   6.501   5.866
 7809TIP3   OH223390   3.572   4.135   5.651
 7809TIP3    H123391   3.617   4.200   5.597
 7809TIP3    H223392   3.588   4.051   5.607
 7810TIP3   OH223393   2.385   2.907   3.197
 7810TIP3    H123394   2.449   2.970   3.229
 7810TIP3    H223395   2.342   2.952   3.124
 7811TIP3   OH223396   6.734   2.290   3.479
 7811TIP3    H123397   6.766   2.354   3.415
 7811TIP3    H223398   6.786   2.307   3.558
 7812TIP3   OH223399   1.604   6.129   1.815
 7812TIP3    H123400   1.519   6.143   1.774
 7812TIP3    H223401   1.639   6.051   1.771
 7813TIP3   OH223402   6.980   4.534   4.360
 7813TIP3    H123403   6.909   4.582   4.318
 7813TIP3    H223404   6.992   4.578   4.444
 7814TIP3   OH223405   4.527   3.816   1.076
 7814TIP3    H123406   4.506   3.906   1.102
 7814TIP3    H223407   4.456   3.764   1.113
 7815TIP3   OH223408   6.379   5.765   0.866
 7815TIP3    H123409   6.448   5.745   0.803
 7815TIP3    H223410   6.397   5.707   0.940
 7816TIP3   OH223411   1.274   5.057   0.305
 7816TIP3    H123412   1.201   5.038   0.247
 7816TIP3    H223413   1.234   5.098   0.382
 7817TIP3   OH223414   5.674   5.353   0.499
 7817TIP3    H123415   5.617   5.395   0.435
 7817TIP3    H223416   5.707   5.425   0.553
 7818TIP3   OH223417   6.063   2.717   5.638
 7818TIP3    H123418   6.096   2.799   5.674
 7818TIP3    H223419   5.968   2.729   5.632
 7819TIP3   OH223420   0.576   3.452   0.840
 7819TIP3    H123421   0.556   3.410   0.924
 7819TIP3    H223422   0.663   3.489   0.853
 7820TIP3   OH223423   3.518   0.108   1.235
 7820TIP3    H123424   3.486   0.020   1.254
 7820TIP3    H223425   3.575   0.097   1.159
 7821TIP3   OH223426   1.798   4.053   3.132
 7821TIP3    H123427   1.772   4.114   3.064
 7821TIP3    H223428   1.826   4.108   3.205
 7822TIP3   OH223429   7.052   6.731   3.088
 7822TIP3    H123430   7.034   6.806   3.144
 7822TIP3    H223431   7.100   6.766   3.014
 7823TIP3   OH223432   1.472   1.515   5.121
 7823TIP3    H123433   1.429   1.466   5.051
 7823TIP3    H223434   1.564   1.518   5.096
 7824TIP3   OH223435   1.645   1.691   2.948
 7824TIP3    H123436   1.647   1.707   3.042
 7824TIP3    H223437   1.590   1.614   2.937
 7825TIP3   OH223438   0.954   4.103   2.879
 7825TIP3    H123439   1.001   4.033   2.924
 7825TIP3    H223440   1.019   4.141   2.819
 7826TIP3   OH223441   5.960   1.767   3.519
 7826TIP3    H123442   5.899   1.702   3.555
 7826TIP3    H223443   6.042   1.720   3.510
 7827TIP3   OH223444   3.466   1.465   0.019
 7827TIP3    H123445   3.455   1.549   0.063
 7827TIP3    H223446   3.555   1.466  -0.016
 7828TIP3   OH223447   6.248   5.188   2.406
 7828TIP3    H123448   6.304   5.111   2.415
 7828TIP3    H223449   6.190   5.166   2.333
 7829TIP3   OH223450   1.754   1.247   2.823
 7829TIP3    H123451   1.668   1.206   2.826
 7829TIP3    H223452   1.787   1.243   2.913
 7830TIP3   OH223453   0.383   5.178   2.978
 7830TIP3    H123454   0.317   5.156   2.913
 7830TIP3    H223455   0.455   5.118   2.961
 7831TIP3   OH223456   7.032   3.415   2.892
 7831TIP3    H123457   7.103   3.354   2.915
 7831TIP3    H223458   7.070   3.502   2.904
 7832TIP3   OH223459   7.043   2.943   5.151
 7832TIP3    H123460   7.010   2.855   5.167
 7832TIP3    H223461   7.035   2.988   5.235
 7833TIP3   OH223462   6.010   4.953   3.979
 7833TIP3    H123463   6.106   4.954   3.975
 7833TIP3    H223464   5.983   5.036   3.941
 7834TIP3   OH223465   5.772   1.006   0.738
 7834TIP3    H123466   5.856   0.961   0.738
 7834TIP3    H223467   5.709   0.941   0.768
 7835TIP3   OH223468   0.512   2.611   5.140
 7835TIP3    H123469   0.434   2.651   5.177
 7835TIP3    H223470   0.495   2.606   5.046
 7836TIP3   OH223471   4.761   6.007   3.786
 7836TIP3    H123472   4.710   6.086   3.807
 7836TIP3    H223473   4.825   6.001   3.857
 7837TIP3   OH223474   5.839   4.097   0.949
 7837TIP3    H123475   5.843   4.033   0.878
 7837TIP3    H223476   5.915   4.077   1.004
 7838TIP3   OH223477   4.287   2.782   4.624
 7838TIP3    H123478   4.194   2.797   4.610
 7838TIP3    H223479   4.312   2.844   4.693
 7839TIP3   OH223480   2.968   4.920   3.888
 7839TIP3    H123481   2.939   4.844   3.838
 7839TIP3    H223482   3.001   4.981   3.822
 7840TIP3   OH223483   2.504   6.761   0.262
 7840TIP3    H123484   2.580   6.756   0.205
 7840TIP3    H223485   2.482   6.854   0.265
 7841TIP3   OH223486   5.282   5.715   2.071
 7841TIP3    H123487   5.348   5.766   2.024
 7841TIP3    H223488   5.232   5.671   2.002
 7842TIP3   OH223489   4.433   5.941   1.639
 7842TIP3    H123490   4.379   6.017   1.618
 7842TIP3    H223491   4.415   5.879   1.568
 7843TIP3   OH223492   4.855   3.750   4.081
 7843TIP3    H123493   4.838   3.696   4.158
 7843TIP3    H223494   4.783   3.812   4.079
 7844TIP3   OH223495   2.524   4.164   3.145
 7844TIP3    H123496   2.447   4.111   3.124
 7844TIP3    H223497   2.590   4.100   3.170
 7845TIP3   OH223498   6.970   5.019   1.975
 7845TIP3    H123499   7.032   5.073   1.926
 7845TIP3    H223500   7.012   5.007   2.061
 7846TIP3   OH223501   0.873   5.343   2.690
 7846TIP3    H123502   0.876   5.418   2.631
 7846TIP3    H223503   0.885   5.267   2.633
 7847TIP3   OH223504   6.009   1.586   2.228
 7847TIP3    H123505   5.929   1.569   2.278
 7847TIP3    H223506   6.021   1.507   2.174
 7848TIP3   OH223507   2.024   5.997   0.739
 7848TIP3    H123508   1.989   5.920   0.693
 7848TIP3    H223509   1.986   5.991   0.827
 7849TIP3   OH223510   5.460   2.675   2.053
 7849TIP3    H123511   5.431   2.617   2.124
 7849TIP3    H223512   5.486   2.755   2.098
 7850TIP3   OH223513   2.867   2.976   3.725
 7850TIP3    H123514   2.874   3.025   3.807
 7850TIP3    H223515   2.798   2.912   3.741
 7851TIP3   OH223516   2.682   0.732   3.261
 7851TIP3    H123517   2.778   0.734   3.261
 7851TIP3    H223518   2.660   0.643   3.288
 7852TIP3   OH223519   4.021   0.360   2.699
 7852TIP3    H123520   3.978   0.376   2.615
 7852TIP3    H223521   4.105   0.404   2.691
 7853TIP3   OH223522   6.366   3.177   3.051
 7853TIP3    H123523   6.285   3.146   3.091
 7853TIP3    H223524   6.364   3.143   2.962
 7854TIP3   OH223525   6.779   5.489   4.344
 7854TIP3    H123526   6.739   5.403   4.349
 7854TIP3    H223527   6.851   5.486   4.408
 7855TIP3   OH223528   1.126   3.760   0.053
 7855TIP3    H123529   1.108   3.839   0.104
 7855TIP3    H223530   1.163   3.793  -0.029
 7856TIP3   OH223531   3.435   3.304   3.829
 7856TIP3    H123532   3.402   3.390   3.803
 7856TIP3    H223533   3.479   3.320   3.913
 7857TIP3   OH223534   2.005   2.246   4.926
 7857TIP3    H123535   2.009   2.301   4.848
 7857TIP3    H223536   1.993   2.157   4.892
 7858TIP3   OH223537   2.932   0.381   4.848
 7858TIP3    H123538   2.963   0.395   4.759
 7858TIP3    H223539   2.998   0.325   4.888
 7859TIP3   OH223540   6.107   4.174   0.687
 7859TIP3    H123541   6.130   4.082   0.702
 7859TIP3    H223542   6.107   4.213   0.774
 7860TIP3   OH223543   2.172   6.301   3.195
 7860TIP3    H123544   2.188   6.220   3.243
 7860TIP3    H223545   2.116   6.353   3.253
 7861TIP3   OH223546   5.532   5.246   4.714
 7861TIP3    H123547   5.624   5.224   4.726
 7861TIP3    H223548   5.485   5.180   4.766
 7862TIP3   OH223549   0.802   4.063   3.586
 7862TIP3    H123550   0.754   4.119   3.646
 7862TIP3    H223551   0.872   4.119   3.552
 7863TIP3   OH223552   3.366   2.489   3.537
 7863TIP3    H123553   3.278   2.471   3.505
 7863TIP3    H223554   3.358   2.574   3.582
 7864TIP3   OH223555   5.003   5.542   2.457
 7864TIP3    H123556   5.041   5.548   2.369
 7864TIP3    H223557   4.909   5.530   2.442
 7865TIP3   OH223558   5.745   5.323   1.731
 7865TIP3    H123559   5.713   5.286   1.648
 7865TIP3    H223560   5.666   5.353   1.776
 7866TIP3   OH223561   6.878   0.348   5.384
 7866TIP3    H123562   6.854   0.406   5.311
 7866TIP3    H223563   6.882   0.407   5.459
 7867TIP3   OH223564   5.714   2.015   3.210
 7867TIP3    H123565   5.689   2.083   3.147
 7867TIP3    H223566   5.793   2.049   3.253
 7868TIP3   OH223567   0.040   2.797   5.525
 7868TIP3    H123568   0.119   2.744   5.520
 7868TIP3    H223569   0.069   2.886   5.503
 7869TIP3   OH223570   4.875   4.417   5.544
 7869TIP3    H123571   4.920   4.431   5.627
 7869TIP3    H223572   4.892   4.496   5.493
 7870TIP3   OH223573   0.151   0.494   0.381
 7870TIP3    H123574   0.063   0.456   0.382
 7870TIP3    H223575   0.206   0.426   0.341
 7871TIP3   OH223576   4.106   2.109   3.303
 7871TIP3    H123577   4.185   2.057   3.320
 7871TIP3    H223578   4.118   2.189   3.354
 7872TIP3   OH223579   5.931   3.078   1.865
 7872TIP3    H123580   5.968   2.991   1.845
 7872TIP3    H223581   5.992   3.139   1.823
 7873TIP3   OH223582   6.592   1.861   4.380
 7873TIP3    H123583   6.675   1.895   4.414
 7873TIP3    H223584   6.597   1.767   4.393
 7874TIP3   OH223585   1.889   3.772   4.049
 7874TIP3    H123586   1.836   3.788   3.971
 7874TIP3    H223587   1.829   3.733   4.112
 7875TIP3   OH223588   4.892   0.704   3.473
 7875TIP3    H123589   4.801   0.695   3.444
 7875TIP3    H223590   4.933   0.760   3.407
 7876TIP3   OH223591   5.816   4.446   1.981
 7876TIP3    H123592   5.854   4.471   1.897
 7876TIP3    H223593   5.733   4.404   1.959
 7877TIP3   OH223594   0.674   3.878   2.814
 7877TIP3    H123595   0.733   3.803   2.806
 7877TIP3    H223596   0.701   3.922   2.894
 7878TIP3   OH223597   4.937   4.203   0.126
 7878TIP3    H123598   4.846   4.234   0.135
 7878TIP3    H223599   4.976   4.262   0.062
 7879TIP3   OH223600   0.288   4.386   4.953
 7879TIP3    H123601   0.325   4.317   4.898
 7879TIP3    H223602   0.294   4.352   5.042
 7880TIP3   OH223603   0.949   0.544   5.463
 7880TIP3    H123604   0.928   0.453   5.481
 7880TIP3    H223605   0.895   0.567   5.387
 7881TIP3   OH223606   2.707   1.101   2.556
 7881TIP3    H123607   2.717   1.147   2.472
 7881TIP3    H223608   2.682   1.012   2.533
 7882TIP3   OH223609   5.760   2.636   4.848
 7882TIP3    H123610   5.839   2.612   4.896
 7882TIP3    H223611   5.692   2.644   4.915
 7883TIP3   OH223612   1.369   0.683   4.877
 7883TIP3    H123613   1.293   0.721   4.920
 7883TIP3    H223614   1.370   0.591   4.904
 7884TIP3   OH223615   1.727   4.564   1.919
 7884TIP3    H123616   1.703   4.493   1.860
 7884TIP3    H223617   1.808   4.535   1.961
 7885TIP3   OH223618   4.239   2.779   1.383
 7885TIP3    H123619   4.318   2.740   1.344
 7885TIP3    H223620   4.168   2.754   1.324
 7886TIP3   OH223621   1.430   0.075   1.566
 7886TIP3    H123622   1.434   0.014   1.640
 7886TIP3    H223623   1.341   0.110   1.568
 7887TIP3   OH223624   0.153   3.404   5.551
 7887TIP3    H123625   0.142   3.312   5.526
 7887TIP3    H223626   0.065   3.440   5.551
 7888TIP3   OH223627   2.626   5.044   5.671
 7888TIP3    H123628   2.575   5.060   5.592
 7888TIP3    H223629   2.644   5.131   5.707
 7889TIP3   OH223630   6.318   1.955   3.135
 7889TIP3    H123631   6.367   2.007   3.071
 7889TIP3    H223632   6.374   1.880   3.154
 7890TIP3   OH223633   2.904   2.774   5.730
 7890TIP3    H123634   2.996   2.761   5.755
 7890TIP3    H223635   2.858   2.782   5.814
 7891TIP3   OH223636   7.093   0.609   0.541
 7891TIP3    H123637   7.035   0.613   0.465
 7891TIP3    H223638   7.127   0.520   0.541
 7892TIP3   OH223639   6.468   2.413   0.198
 7892TIP3    H123640   6.379   2.440   0.221
 7892TIP3    H223641   6.461   2.386   0.106
 7893TIP3   OH223642   5.401   3.814   4.989
 7893TIP3    H123643   5.376   3.722   4.974
 7893TIP3    H223644   5.323   3.864   4.965
 7894TIP3   OH223645   3.426   4.852   1.374
 7894TIP3    H123646   3.447   4.943   1.394
 7894TIP3    H223647   3.475   4.833   1.294
 7895TIP3   OH223648   4.790   1.823   5.481
 7895TIP3    H123649   4.802   1.867   5.565
 7895TIP3    H223650   4.836   1.879   5.418
 7896TIP3   OH223651   2.600   3.059   2.364
 7896TIP3    H123652   2.585   3.022   2.452
 7896TIP3    H223653   2.655   2.994   2.320
 7897TIP3   OH223654   3.373   1.661   1.668
 7897TIP3    H123655   3.341   1.736   1.618
 7897TIP3    H223656   3.355   1.684   1.759
 7898TIP3   OH223657   1.424   5.689   4.926
 7898TIP3    H123658   1.362   5.632   4.881
 7898TIP3    H223659   1.438   5.649   5.011
 7899TIP3   OH223660   3.879   5.771   2.232
 7899TIP3    H123661   3.872   5.860   2.197
 7899TIP3    H223662   3.844   5.715   2.163
 7900TIP3   OH223663   0.197   2.693   5.215
 7900TIP3    H123664   0.196   2.788   5.205
 7900TIP3    H223665   0.195   2.679   5.309
 7901TIP3   OH223666   1.451   1.737   1.848
 7901TIP3    H123667   1.458   1.668   1.914
 7901TIP3    H223668   1.370   1.717   1.801
 7902TIP3   OH223669   2.138   1.971   5.550
 7902TIP3    H123670   2.161   1.972   5.457
 7902TIP3    H223671   2.190   2.041   5.589
 7903TIP3   OH223672   6.081   0.372   3.792
 7903TIP3    H123673   6.067   0.463   3.818
 7903TIP3    H223674   6.020   0.358   3.719
 7904TIP3   OH223675   4.830   5.251   3.013
 7904TIP3    H123676   4.910   5.208   2.982
 7904TIP3    H223677   4.826   5.333   2.964
 7905TIP3   OH223678   2.423   5.559   4.495
 7905TIP3    H123679   2.465   5.612   4.562
 7905TIP3    H223680   2.343   5.526   4.537
 7906TIP3   OH223681   2.219   4.281   3.193
 7906TIP3    H123682   2.250   4.368   3.168
 7906TIP3    H223683   2.207   4.235   3.110
 7907TIP3   OH223684   1.887   4.924   2.499
 7907TIP3    H123685   1.865   5.014   2.474
 7907TIP3    H223686   1.951   4.895   2.433
 7908TIP3   OH223687   0.794   4.370   0.899
 7908TIP3    H123688   0.827   4.296   0.950
 7908TIP3    H223689   0.861   4.385   0.833
 7909TIP3   OH223690   5.060   2.639   5.722
 7909TIP3    H123691   5.128   2.678   5.776
 7909TIP3    H223692   5.027   2.711   5.668
 7910TIP3   OH223693   4.207   5.405   0.564
 7910TIP3    H123694   4.161   5.412   0.648
 7910TIP3    H223695   4.167   5.473   0.509
 7911TIP3   OH223696   3.213   5.235   0.960
 7911TIP3    H123697   3.276   5.163   0.965
 7911TIP3    H223698   3.248   5.301   1.019
 7912TIP3   OH223699   0.415   3.600   2.191
 7912TIP3    H123700   0.474   3.621   2.119
 7912TIP3    H223701   0.327   3.601   2.151
 7913TIP3   OH223702   3.362   0.591   3.521
 7913TIP3    H123703   3.418   0.623   3.592
 7913TIP3    H223704   3.394   0.637   3.443
 7914TIP3   OH223705   1.733   0.639   1.945
 7914TIP3    H123706   1.709   0.710   1.886
 7914TIP3    H223707   1.815   0.667   1.984
 7915TIP3   OH223708   0.425   5.278   4.497
 7915TIP3    H123709   0.402   5.310   4.585
 7915TIP3    H223710   0.393   5.346   4.438
 7916TIP3   OH223711   0.238   0.103   0.640
 7916TIP3    H123712   0.269   0.193   0.652
 7916TIP3    H223713   0.209   0.100   0.549
 7917TIP3   OH223714   0.291   1.410   2.482
 7917TIP3    H123715   0.328   1.478   2.425
 7917TIP3    H223716   0.206   1.445   2.508
 7918TIP3   OH223717   2.351   4.821   0.830
 7918TIP3    H123718   2.357   4.916   0.830
 7918TIP3    H223719   2.257   4.803   0.826
 7919TIP3   OH223720   0.923   6.046   1.358
 7919TIP3    H123721   0.843   6.026   1.310
 7919TIP3    H223722   0.943   6.137   1.335
 7920TIP3   OH223723   0.339   2.381   4.087
 7920TIP3    H123724   0.264   2.399   4.030
 7920TIP3    H223725   0.303   2.388   4.176
 7921TIP3   OH223726   0.557   1.367   2.613
 7921TIP3    H123727   0.468   1.352   2.581
 7921TIP3    H223728   0.605   1.399   2.537
 7922TIP3   OH223729   0.909   2.469   1.045
 7922TIP3    H123730   0.853   2.410   0.995
 7922TIP3    H223731   0.995   2.463   1.002
 7923TIP3   OH223732   0.473   4.509   5.554
 7923TIP3    H123733   0.477   4.491   5.648
 7923TIP3    H223734   0.437   4.430   5.515
 7924TIP3   OH223735   2.015   3.006   2.194
 7924TIP3    H123736   1.998   3.095   2.226
 7924TIP3    H223737   2.065   2.965   2.264
 7925TIP3   OH223738   0.398   1.139   3.982
 7925TIP3    H123739   0.483   1.150   3.938
 7925TIP3    H223740   0.340   1.201   3.937
 7926TIP3   OH223741   6.788   2.048   1.291
 7926TIP3    H123742   6.849   2.007   1.352
 7926TIP3    H223743   6.809   2.142   1.297
 7927TIP3   OH223744   4.486   1.405   1.606
 7927TIP3    H123745   4.576   1.393   1.575
 7927TIP3    H223746   4.465   1.324   1.652
 7928TIP3   OH223747   0.469   6.490   5.678
 7928TIP3    H123748   0.374   6.485   5.680
 7928TIP3    H223749   0.493   6.525   5.764
 7929TIP3   OH223750   2.413   1.254   5.427
 7929TIP3    H123751   2.323   1.223   5.439
 7929TIP3    H223752   2.442   1.211   5.346
 7930TIP3   OH223753   6.529   4.729   5.619
 7930TIP3    H123754   6.592   4.703   5.551
 7930TIP3    H223755   6.477   4.651   5.634
 7931TIP3   OH223756   4.377   3.345   2.430
 7931TIP3    H123757   4.423   3.428   2.422
 7931TIP3    H223758   4.385   3.305   2.343
 7932TIP3   OH223759   0.109   1.667   2.257
 7932TIP3    H123760   0.122   1.745   2.202
 7932TIP3    H223761   0.107   1.594   2.195
 7933TIP3   OH223762   2.810   4.744   0.306
 7933TIP3    H123763   2.876   4.757   0.374
 7933TIP3    H223764   2.813   4.824   0.254
 7934TIP3   OH223765   0.892   1.068   1.537
 7934TIP3    H123766   0.966   1.105   1.489
 7934TIP3    H223767   0.906   0.973   1.533
 7935TIP3   OH223768   1.906   5.800   3.792
 7935TIP3    H123769   1.811   5.808   3.788
 7935TIP3    H223770   1.922   5.713   3.829
 7936TIP3   OH223771   4.337   5.456   3.435
 7936TIP3    H123772   4.405   5.396   3.404
 7936TIP3    H223773   4.255   5.409   3.420
 7937TIP3   OH223774   4.104   1.274   3.849
 7937TIP3    H123775   4.050   1.195   3.847
 7937TIP3    H223776   4.066   1.331   3.783
 7938TIP3   OH223777   3.113   6.770   3.479
 7938TIP3    H123778   3.030   6.816   3.493
 7938TIP3    H223779   3.157   6.821   3.411
 7939TIP3   OH223780   0.945   6.254   4.664
 7939TIP3    H123781   0.919   6.345   4.649
 7939TIP3    H223782   0.879   6.221   4.725
 7940TIP3   OH223783   0.186   2.580   1.177
 7940TIP3    H123784   0.155   2.654   1.230
 7940TIP3    H223785   0.278   2.570   1.199
 7941TIP3   OH223786   5.205   5.480   0.926
 7941TIP3    H123787   5.254   5.397   0.924
 7941TIP3    H223788   5.220   5.514   1.014
 7942TIP3   OH223789   4.151   5.043   0.642
 7942TIP3    H123790   4.205   5.117   0.614
 7942TIP3    H223791   4.091   5.028   0.569
 7943TIP3   OH223792   2.196   2.747   0.613
 7943TIP3    H123793   2.119   2.781   0.658
 7943TIP3    H223794   2.166   2.666   0.572
 7944TIP3   OH223795   7.032   6.506   1.174
 7944TIP3    H123796   7.055   6.420   1.140
 7944TIP3    H223797   7.116   6.546   1.197
 7945TIP3   OH223798   0.302   1.702   0.317
 7945TIP3    H123799   0.294   1.795   0.338
 7945TIP3    H223800   0.255   1.658   0.388
 7946TIP3   OH223801   5.659   5.266   3.275
 7946TIP3    H123802   5.656   5.186   3.326
 7946TIP3    H223803   5.657   5.237   3.184
 7947TIP3   OH223804   5.924   2.919   5.819
 7947TIP3    H123805   5.950   2.995   5.767
 7947TIP3    H223806   5.828   2.922   5.820
 7948TIP3   OH223807   1.652   3.810   4.950
 7948TIP3    H123808   1.683   3.719   4.950
 7948TIP3    H223809   1.608   3.821   4.866
 7949TIP3   OH223810   2.014   1.720   0.712
 7949TIP3    H123811   1.943   1.778   0.685
 7949TIP3    H223812   1.982   1.631   0.694
 7950TIP3   OH223813   0.877   3.783   3.254
 7950TIP3    H123814   0.792   3.794   3.298
 7950TIP3    H223815   0.861   3.813   3.165
 7951TIP3   OH223816   4.100   1.326   4.381
 7951TIP3    H123817   4.048   1.262   4.333
 7951TIP3    H223818   4.184   1.329   4.335
 7952TIP3   OH223819   1.287   5.156   4.907
 7952TIP3    H123820   1.343   5.095   4.859
 7952TIP3    H223821   1.198   5.131   4.882
 7953TIP3   OH223822   6.866   3.969   5.078
 7953TIP3    H123823   6.857   3.965   5.173
 7953TIP3    H223824   6.789   3.922   5.044
 7954TIP3   OH223825   5.903   4.491   2.240
 7954TIP3    H123826   5.846   4.480   2.316
 7954TIP3    H223827   5.842   4.499   2.166
 7955TIP3   OH223828   0.827   2.019   1.826
 7955TIP3    H123829   0.892   1.950   1.836
 7955TIP3    H223830   0.819   2.032   1.732
 7956TIP3   OH223831   1.055   5.129   0.482
 7956TIP3    H123832   1.002   5.052   0.459
 7956TIP3    H223833   1.011   5.165   0.559
 7957TIP3   OH223834   4.710   0.255   0.648
 7957TIP3    H123835   4.691   0.338   0.605
 7957TIP3    H223836   4.697   0.189   0.580
 7958TIP3   OH223837   4.919   5.774   1.851
 7958TIP3    H123838   4.883   5.779   1.762
 7958TIP3    H223839   4.872   5.702   1.892
 7959TIP3   OH223840   1.917   3.057   3.273
 7959TIP3    H123841   1.946   3.095   3.191
 7959TIP3    H223842   1.821   3.060   3.269
 7960TIP3   OH223843   3.903   4.332   2.672
 7960TIP3    H123844   3.832   4.289   2.721
 7960TIP3    H223845   3.938   4.397   2.733
 7961TIP3   OH223846   2.883   4.787   5.175
 7961TIP3    H123847   2.870   4.853   5.244
 7961TIP3    H223848   2.797   4.746   5.166
 7962TIP3   OH223849   2.976   2.633   0.387
 7962TIP3    H123850   2.894   2.583   0.386
 7962TIP3    H223851   2.991   2.657   0.296
 7963TIP3   OH223852   2.120   1.976   2.937
 7963TIP3    H123853   2.061   2.042   2.902
 7963TIP3    H223854   2.184   1.961   2.867
 7964TIP3   OH223855   0.853   4.419   2.440
 7964TIP3    H123856   0.815   4.341   2.481
 7964TIP3    H223857   0.866   4.394   2.349
 7965TIP3   OH223858   3.698   4.874   0.164
 7965TIP3    H123859   3.784   4.834   0.179
 7965TIP3    H223860   3.711   4.966   0.186
 7966TIP3   OH223861   3.554   1.618   3.331
 7966TIP3    H123862   3.572   1.663   3.248
 7966TIP3    H223863   3.544   1.689   3.395
 7967TIP3   OH223864   6.768   3.148   4.976
 7967TIP3    H123865   6.854   3.180   5.006
 7967TIP3    H223866   6.707   3.180   5.043
 7968TIP3   OH223867   0.230   1.918   4.895
 7968TIP3    H123868   0.222   1.828   4.926
 7968TIP3    H223869   0.318   1.922   4.858
 7969TIP3   OH223870   2.307   6.017   5.646
 7969TIP3    H123871   2.321   6.094   5.701
 7969TIP3    H223872   2.219   5.987   5.670
 7970TIP3   OH223873   3.894   3.944   2.121
 7970TIP3    H123874   3.857   3.860   2.093
 7970TIP3    H223875   3.979   3.922   2.159
 7971TIP3   OH223876   1.717   4.352   4.185
 7971TIP3    H123877   1.675   4.415   4.127
 7971TIP3    H223878   1.724   4.272   4.133
 7972TIP3   OH223879   1.386   0.599   4.245
 7972TIP3    H123880   1.359   0.514   4.211
 7972TIP3    H223881   1.394   0.587   4.339
 7973TIP3   OH223882   3.124   1.042   1.882
 7973TIP3    H123883   3.172   1.017   1.961
 7973TIP3    H223884   3.160   1.127   1.857
 7974TIP3   OH223885   5.057   1.024   3.713
 7974TIP3    H123886   5.062   1.038   3.808
 7974TIP3    H223887   5.055   1.113   3.676
 7975TIP3   OH223888   5.590   3.450   4.497
 7975TIP3    H123889   5.676   3.473   4.462
 7975TIP3    H223890   5.580   3.357   4.479
 7976TIP3   OH223891   3.064   1.691   0.487
 7976TIP3    H123892   3.122   1.720   0.417
 7976TIP3    H223893   3.115   1.704   0.567
 7977TIP3   OH223894   4.782   3.688   5.892
 7977TIP3    H123895   4.755   3.645   5.811
 7977TIP3    H223896   4.738   3.773   5.889
 7978TIP3   OH223897   1.677   6.090   4.376
 7978TIP3    H123898   1.582   6.098   4.386
 7978TIP3    H223899   1.695   6.127   4.290
 7979TIP3   OH223900   5.833   0.051   1.707
 7979TIP3    H123901   5.839   0.003   1.790
 7979TIP3    H223902   5.832  -0.017   1.640
 7980TIP3   OH223903   6.989   0.886   2.188
 7980TIP3    H123904   7.031   0.972   2.185
 7980TIP3    H223905   7.039   0.833   2.126
 7981TIP3   OH223906   2.158   5.667   5.155
 7981TIP3    H123907   2.140   5.738   5.094
 7981TIP3    H223908   2.089   5.674   5.222
 7982TIP3   OH223909   1.439   6.653   3.775
 7982TIP3    H123910   1.501   6.581   3.765
 7982TIP3    H223911   1.491   6.732   3.767
 7983TIP3   OH223912   1.569   0.165   4.855
 7983TIP3    H123913   1.548   0.089   4.910
 7983TIP3    H223914   1.618   0.223   4.912
 7984TIP3   OH223915   5.406   3.782   0.766
 7984TIP3    H123916   5.333   3.772   0.827
 7984TIP3    H223917   5.382   3.727   0.691
 7985TIP3   OH223918   7.131   4.985   4.623
 7985TIP3    H123919   7.208   5.027   4.585
 7985TIP3    H223920   7.061   5.048   4.611
 7986TIP3   OH223921   6.223   3.840   3.854
 7986TIP3    H123922   6.192   3.927   3.830
 7986TIP3    H223923   6.273   3.810   3.778
 7987TIP3   OH223924   2.673   2.030   0.138
 7987TIP3    H123925   2.743   2.081   0.098
 7987TIP3    H223926   2.717   1.949   0.168
 7988TIP3   OH223927   5.110   3.110   4.457
 7988TIP3    H123928   5.155   3.174   4.512
 7988TIP3    H223929   5.109   3.151   4.370
 7989TIP3   OH223930   2.887   0.849   2.796
 7989TIP3    H123931   2.867   0.922   2.738
 7989TIP3    H223932   2.956   0.800   2.750
 7990TIP3   OH223933   2.492   6.040   5.441
 7990TIP3    H123934   2.436   6.029   5.518
 7990TIP3    H223935   2.446   5.994   5.371
 7991TIP3   OH223936   1.767   5.380   1.678
 7991TIP3    H123937   1.672   5.371   1.679
 7991TIP3    H223938   1.783   5.474   1.688
 7992TIP3   OH223939   0.559   0.776   3.585
 7992TIP3    H123940   0.614   0.748   3.512
 7992TIP3    H223941   0.496   0.705   3.598
 7993TIP3   OH223942   1.533   4.694   3.020
 7993TIP3    H123943   1.530   4.773   3.073
 7993TIP3    H223944   1.560   4.624   3.080
 7994TIP3   OH223945   3.203   0.371   2.800
 7994TIP3    H123946   3.273   0.325   2.753
 7994TIP3    H223947   3.243   0.454   2.825
 7995TIP3   OH223948   2.073   6.173   0.296
 7995TIP3    H123949   2.016   6.161   0.372
 7995TIP3    H223950   2.014   6.203   0.227
 7996TIP3   OH223951   0.545   1.761   0.092
 7996TIP3    H123952   0.461   1.719   0.077
 7996TIP3    H223953   0.595   1.697   0.143
 7997TIP3   OH223954   6.449   1.824   1.053
 7997TIP3    H123955   6.534   1.863   1.075
 7997TIP3    H223956   6.410   1.885   0.991
 7998TIP3   OH223957   7.209   1.129   1.308
 7998TIP3    H123958   7.289   1.159   1.352
 7998TIP3    H223959   7.189   1.045   1.350
 7999TIP3   OH223960   5.273   1.623   0.366
 7999TIP3    H123961   5.273   1.558   0.435
 7999TIP3    H223962   5.349   1.678   0.384
 8000TIP3   OH223963   3.875   2.770   1.559
 8000TIP3    H123964   3.923   2.784   1.640
 8000TIP3    H223965   3.872   2.857   1.517
 8001TIP3   OH223966   1.111   4.663   2.159
 8001TIP3    H123967   1.193   4.706   2.181
 8001TIP3    H223968   1.075   4.714   2.087
 8002TIP3   OH223969   3.229   0.289   4.895
 8002TIP3    H123970   3.237   0.336   4.978
 8002TIP3    H223971   3.319   0.279   4.865
 8003TIP3   OH223972   0.535   2.057   4.614
 8003TIP3    H123973   0.616   2.108   4.615
 8003TIP3    H223974   0.465   2.122   4.604
 8004TIP3   OH223975   0.222   0.278   1.542
 8004TIP3    H123976   0.264   0.356   1.506
 8004TIP3    H223977   0.281   0.206   1.518
 8005TIP3   OH223978   5.206   4.254   5.459
 8005TIP3    H123979   5.239   4.167   5.439
 8005TIP3    H223980   5.166   4.284   5.377
 8006TIP3   OH223981   5.874   6.117   1.697
 8006TIP3    H123982   5.966   6.140   1.711
 8006TIP3    H223983   5.847   6.172   1.623
 8007TIP3   OH223984   1.647   1.757   2.124
 8007TIP3    H123985   1.725   1.788   2.171
 8007TIP3    H223986   1.674   1.674   2.085
 8008TIP3   OH223987   4.079   3.120   1.121
 8008TIP3    H123988   4.052   3.188   1.058
 8008TIP3    H223989   4.041   3.149   1.204
 8009TIP3   OH223990   2.889   3.576   4.926
 8009TIP3    H123991   2.851   3.524   4.855
 8009TIP3    H223992   2.919   3.512   4.990
 8010TIP3   OH223993   2.642   0.889   1.307
 8010TIP3    H123994   2.714   0.943   1.339
 8010TIP3    H223995   2.564   0.941   1.322
 8011TIP3   OH223996   6.114   1.534   0.780
 8011TIP3    H123997   6.204   1.562   0.799
 8011TIP3    H223998   6.118   1.439   0.783
 8012TIP3   OH223999   4.303   0.915   2.336
 8012TIP3    H124000   4.248   0.986   2.368
 8012TIP3    H224001   4.382   0.958   2.304
 8013TIP3   OH224002   3.959   2.052   0.856
 8013TIP3    H124003   3.942   2.145   0.841
 8013TIP3    H224004   4.047   2.038   0.822
 8014TIP3   OH224005   4.440   1.740   2.471
 8014TIP3    H124006   4.418   1.744   2.378
 8014TIP3    H224007   4.356   1.745   2.516
 8015TIP3   OH224008   5.520   2.610   2.812
 8015TIP3    H124009   5.462   2.537   2.788
 8015TIP3    H224010   5.463   2.687   2.810
 8016TIP3   OH224011   0.695   5.276   5.686
 8016TIP3    H124012   0.783   5.254   5.657
 8016TIP3    H224013   0.667   5.346   5.628
 8017TIP3   OH224014   5.077   1.915   0.817
 8017TIP3    H124015   4.987   1.922   0.786
 8017TIP3    H224016   5.128   1.902   0.737
 8018TIP3   OH224017   3.987   6.165   3.091
 8018TIP3    H124018   3.990   6.249   3.138
 8018TIP3    H224019   4.051   6.110   3.137
 8019TIP3   OH224020   5.406   2.312   2.716
 8019TIP3    H124021   5.497   2.300   2.745
 8019TIP3    H224022   5.414   2.331   2.622
 8020TIP3   OH224023   3.521   2.074   4.951
 8020TIP3    H124024   3.426   2.079   4.944
 8020TIP3    H224025   3.543   1.986   4.921
 8021TIP3   OH224026   4.914   2.245   2.595
 8021TIP3    H124027   4.987   2.231   2.535
 8021TIP3    H224028   4.930   2.183   2.666
 8022TIP3   OH224029   4.913   6.444   1.495
 8022TIP3    H124030   4.868   6.501   1.557
 8022TIP3    H224031   4.988   6.496   1.465
 8023TIP3   OH224032   6.465   1.201   3.265
 8023TIP3    H124033   6.373   1.176   3.252
 8023TIP3    H224034   6.466   1.296   3.253
 8024TIP3   OH224035   5.745   2.612   0.286
 8024TIP3    H124036   5.766   2.560   0.364
 8024TIP3    H224037   5.771   2.701   0.309
 8025TIP3   OH224038   3.674   1.247   5.593
 8025TIP3    H124039   3.621   1.218   5.518
 8025TIP3    H224040   3.683   1.341   5.581
 8026TIP3   OH224041   0.988   6.156   4.103
 8026TIP3    H124042   0.970   6.234   4.156
 8026TIP3    H224043   1.081   6.161   4.083
 8027TIP3   OH224044   3.639   4.446   3.340
 8027TIP3    H124045   3.695   4.436   3.417
 8027TIP3    H224046   3.550   4.446   3.375
 8028TIP3   OH224047   5.987   2.541   3.230
 8028TIP3    H124048   6.077   2.538   3.197
 8028TIP3    H224049   5.965   2.634   3.230
 8029TIP3   OH224050   5.506   2.638   5.805
 8029TIP3    H124051   5.550   2.722   5.816
 8029TIP3    H224052   5.576   2.573   5.810
 8030TIP3   OH224053   6.006   4.874   2.312
 8030TIP3    H124054   6.080   4.856   2.254
 8030TIP3    H224055   6.022   4.819   2.389
 8031TIP3   OH224056   0.560   1.979   5.457
 8031TIP3    H124057   0.545   1.978   5.362
 8031TIP3    H224058   0.655   1.971   5.466
 8032TIP3   OH224059   6.131   3.770   0.381
 8032TIP3    H124060   6.211   3.804   0.343
 8032TIP3    H224061   6.159   3.726   0.461
 8033TIP3   OH224062   7.127   2.187   5.513
 8033TIP3    H124063   7.110   2.127   5.586
 8033TIP3    H224064   7.172   2.133   5.448
 8034TIP3   OH224065   2.436   2.835   4.872
 8034TIP3    H124066   2.529   2.852   4.861
 8034TIP3    H224067   2.416   2.865   4.961
 8035TIP3   OH224068   1.437   3.042   4.932
 8035TIP3    H124069   1.505   3.047   4.999
 8035TIP3    H224070   1.381   3.118   4.950
 8036TIP3   OH224071   2.285   3.762   4.481
 8036TIP3    H124072   2.204   3.733   4.439
 8036TIP3    H224073   2.304   3.846   4.439
 8037TIP3   OH224074   6.092   5.736   4.370
 8037TIP3    H124075   5.997   5.738   4.381
 8037TIP3    H224076   6.106   5.758   4.278
 8038TIP3   OH224077   5.137   1.447   5.164
 8038TIP3    H124078   5.125   1.479   5.074
 8038TIP3    H224079   5.190   1.515   5.206
 8039TIP3   OH224080   3.364   3.877   3.627
 8039TIP3    H124081   3.357   3.787   3.596
 8039TIP3    H224082   3.353   3.931   3.549
 8040TIP3   OH224083   1.159   3.557   1.084
 8040TIP3    H124084   1.144   3.488   1.149
 8040TIP3    H224085   1.120   3.522   1.004
 8041TIP3   OH224086   1.795   2.942   0.929
 8041TIP3    H124087   1.861   2.975   0.990
 8041TIP3    H224088   1.714   2.943   0.979
 8042TIP3   OH224089   4.922   5.486   0.873
 8042TIP3    H124090   5.015   5.486   0.895
 8042TIP3    H224091   4.920   5.494   0.777
 8043TIP3   OH224092   6.190   0.657   0.146
 8043TIP3    H124093   6.160   0.610   0.067
 8043TIP3    H224094   6.198   0.748   0.117
 8044TIP3   OH224095   0.802   3.203   1.318
 8044TIP3    H124096   0.830   3.123   1.362
 8044TIP3    H224097   0.725   3.177   1.267
 8045TIP3   OH224098   1.596   4.151   2.056
 8045TIP3    H124099   1.589   4.130   2.149
 8045TIP3    H224100   1.529   4.097   2.015
 8046TIP3   OH224101   6.997   4.252   0.994
 8046TIP3    H124102   6.955   4.172   1.027
 8046TIP3    H224103   7.075   4.221   0.948
 8047TIP3   OH224104   6.701   1.625   4.099
 8047TIP3    H124105   6.721   1.603   4.008
 8047TIP3    H224106   6.623   1.573   4.119
 8048TIP3   OH224107   6.362   0.231   0.471
 8048TIP3    H124108   6.381   0.138   0.471
 8048TIP3    H224109   6.428   0.269   0.412
 8049TIP3   OH224110   0.376   6.244   5.234
 8049TIP3    H124111   0.412   6.246   5.322
 8049TIP3    H224112   0.291   6.200   5.244
 8050TIP3   OH224113   0.182   2.102   3.018
 8050TIP3    H124114   0.172   2.057   2.935
 8050TIP3    H224115   0.170   2.194   2.997
 8051TIP3   OH224116   0.838   3.389   3.598
 8051TIP3    H124117   0.751   3.428   3.606
 8051TIP3    H224118   0.898   3.464   3.604
 8052TIP3   OH224119   3.730   0.469   4.476
 8052TIP3    H124120   3.644   0.505   4.455
 8052TIP3    H224121   3.768   0.531   4.538
 8053TIP3   OH224122   3.962   0.784   4.081
 8053TIP3    H124123   4.049   0.822   4.090
 8053TIP3    H224124   3.949   0.735   4.163
 8054TIP3   OH224125   3.432   5.090   4.560
 8054TIP3    H124126   3.469   5.148   4.494
 8054TIP3    H224127   3.386   5.148   4.621
 8055TIP3   OH224128   2.310   5.151   4.227
 8055TIP3    H124129   2.228   5.194   4.204
 8055TIP3    H224130   2.316   5.159   4.322
 8056TIP3   OH224131   2.334   4.811   4.724
 8056TIP3    H124132   2.365   4.790   4.812
 8056TIP3    H224133   2.239   4.801   4.730
 8057TIP3   OH224134   3.804   6.006   0.488
 8057TIP3    H124135   3.800   5.930   0.546
 8057TIP3    H224136   3.756   6.075   0.535
 8058TIP3   OH224137   0.604   1.044   4.689
 8058TIP3    H124138   0.685   1.077   4.650
 8058TIP3    H224139   0.555   1.122   4.713
 8059TIP3   OH224140   6.427   5.759   5.714
 8059TIP3    H124141   6.443   5.711   5.795
 8059TIP3    H224142   6.475   5.841   5.724
 8060TIP3   OH224143   1.721   0.109   5.553
 8060TIP3    H124144   1.793   0.046   5.546
 8060TIP3    H224145   1.667   0.076   5.624
 8061TIP3   OH224146   6.361   2.257   3.755
 8061TIP3    H124147   6.440   2.209   3.782
 8061TIP3    H224148   6.345   2.227   3.665
 8062TIP3   OH224149   0.856   0.515   5.165
 8062TIP3    H124150   0.918   0.469   5.110
 8062TIP3    H224151   0.783   0.454   5.177
 8063TIP3   OH224152   4.649   3.920   4.081
 8063TIP3    H124153   4.637   3.947   3.990
 8063TIP3    H224154   4.604   3.988   4.132
 8064TIP3   OH224155   5.797   0.984   1.832
 8064TIP3    H124156   5.730   0.962   1.767
 8064TIP3    H224157   5.863   0.915   1.823
 8065TIP3   OH224158   6.506   1.946   5.556
 8065TIP3    H124159   6.572   1.881   5.578
 8065TIP3    H224160   6.522   2.018   5.615
 8066TIP3   OH224161   3.702   5.400   2.590
 8066TIP3    H124162   3.785   5.354   2.580
 8066TIP3    H224163   3.680   5.429   2.502
 8067TIP3   OH224164   6.066   1.584   2.772
 8067TIP3    H124165   6.008   1.516   2.806
 8067TIP3    H224166   6.045   1.590   2.679
 8068TIP3   OH224167   4.702   0.153   3.367
 8068TIP3    H124168   4.742   0.140   3.453
 8068TIP3    H224169   4.717   0.070   3.322
 8069TIP3   OH224170   4.838   1.204   1.502
 8069TIP3    H124171   4.794   1.287   1.479
 8069TIP3    H224172   4.930   1.228   1.512
 8070TIP3   OH224173   0.229   3.186   0.962
 8070TIP3    H124174   0.276   3.156   1.039
 8070TIP3    H224175   0.296   3.199   0.895
 8071TIP3   OH224176   3.605   0.135   1.732
 8071TIP3    H124177   3.653   0.138   1.815
 8071TIP3    H224178   3.672   0.144   1.665
 8072TIP3   OH224179   0.795   4.623   0.696
 8072TIP3    H124180   0.821   4.531   0.695
 8072TIP3    H224181   0.700   4.620   0.699
 8073TIP3   OH224182   3.446   3.227   5.064
 8073TIP3    H124183   3.444   3.256   4.973
 8073TIP3    H224184   3.373   3.166   5.072
 8074TIP3   OH224185   6.464   0.923   0.934
 8074TIP3    H124186   6.543   0.957   0.976
 8074TIP3    H224187   6.494   0.890   0.850
 8075TIP3   OH224188   5.558   5.981   4.674
 8075TIP3    H124189   5.565   5.971   4.769
 8075TIP3    H224190   5.487   5.921   4.649
 8076TIP3   OH224191   0.215   4.701   2.965
 8076TIP3    H124192   0.168   4.763   3.021
 8076TIP3    H224193   0.268   4.755   2.908
 8077TIP3   OH224194   1.453   0.141   5.411
 8077TIP3    H124195   1.478   0.086   5.486
 8077TIP3    H224196   1.492   0.226   5.430
 8078TIP3   OH224197   0.212   1.132   5.057
 8078TIP3    H124198   0.295   1.094   5.029
 8078TIP3    H224199   0.187   1.191   4.986
 8079TIP3   OH224200   0.465   4.883   2.581
 8079TIP3    H124201   0.527   4.827   2.627
 8079TIP3    H224202   0.455   4.842   2.494
 8080TIP3   OH224203   2.725   0.618   3.600
 8080TIP3    H124204   2.794   0.655   3.655
 8080TIP3    H224205   2.678   0.694   3.565
 8081TIP3   OH224206   3.384   4.528   0.726
 8081TIP3    H124207   3.348   4.566   0.646
 8081TIP3    H224208   3.328   4.453   0.744
 8082TIP3   OH224209   3.437   5.854   2.184
 8082TIP3    H124210   3.341   5.855   2.181
 8082TIP3    H224211   3.461   5.943   2.210
 8083TIP3   OH224212   4.362   6.526   4.880
 8083TIP3    H124213   4.391   6.616   4.866
 8083TIP3    H224214   4.307   6.506   4.805
 8084TIP3   OH224215   5.343   3.662   3.446
 8084TIP3    H124216   5.295   3.721   3.505
 8084TIP3    H224217   5.276   3.601   3.415
 8085TIP3   OH224218   6.334   3.282   0.365
 8085TIP3    H124219   6.252   3.306   0.321
 8085TIP3    H224220   6.400   3.337   0.325
 8086TIP3   OH224221   1.304   6.797   0.659
 8086TIP3    H124222   1.219   6.823   0.695
 8086TIP3    H224223   1.307   6.836   0.572
 8087TIP3   OH224224   1.065   4.710   0.106
 8087TIP3    H124225   1.035   4.647   0.172
 8087TIP3    H224226   1.148   4.674   0.075
 8088TIP3   OH224227   3.705   2.740   4.492
 8088TIP3    H124228   3.784   2.755   4.440
 8088TIP3    H224229   3.639   2.796   4.453
 8089TIP3   OH224230   2.067   0.955   0.903
 8089TIP3    H124231   1.987   0.928   0.948
 8089TIP3    H224232   2.124   0.985   0.974
 8090TIP3   OH224233   3.478   3.669   2.159
 8090TIP3    H124234   3.454   3.689   2.069
 8090TIP3    H224235   3.523   3.584   2.154
 8091TIP3   OH224236   0.159   1.003   4.326
 8091TIP3    H124237   0.079   1.028   4.373
 8091TIP3    H224238   0.197   1.086   4.298
 8092TIP3   OH224239   6.380   6.522   4.187
 8092TIP3    H124240   6.397   6.440   4.233
 8092TIP3    H224241   6.467   6.554   4.162
 8093TIP3   OH224242   4.397   6.198   2.856
 8093TIP3    H124243   4.482   6.213   2.897
 8093TIP3    H224244   4.359   6.285   2.845
 8094TIP3   OH224245   1.551   3.158   3.561
 8094TIP3    H124246   1.624   3.221   3.566
 8094TIP3    H224247   1.537   3.146   3.467
 8095TIP3   OH224248   4.749   6.618   1.943
 8095TIP3    H124249   4.773   6.566   2.019
 8095TIP3    H224250   4.658   6.596   1.926
 8096TIP3   OH224251   5.506   6.800   3.006
 8096TIP3    H124252   5.458   6.716   3.008
 8096TIP3    H224253   5.578   6.785   2.946
 8097TIP3   OH224254   2.451   1.770   4.645
 8097TIP3    H124255   2.439   1.684   4.605
 8097TIP3    H224256   2.503   1.819   4.582
 8098TIP3   OH224257   3.985   1.376   3.165
 8098TIP3    H124258   3.984   1.435   3.090
 8098TIP3    H224259   4.068   1.329   3.159
 8099TIP3   OH224260   0.735   6.770   3.864
 8099TIP3    H124261   0.772   6.699   3.916
 8099TIP3    H224262   0.809   6.828   3.847
 8100TIP3   OH224263   1.354   5.609   0.851
 8100TIP3    H124264   1.298   5.615   0.774
 8100TIP3    H224265   1.339   5.690   0.899
 8101TIP3   OH224266   0.904   0.884   0.518
 8101TIP3    H124267   0.832   0.880   0.455
 8101TIP3    H224268   0.946   0.969   0.502
 8102TIP3   OH224269   1.359   0.553   3.676
 8102TIP3    H124270   1.401   0.607   3.609
 8102TIP3    H224271   1.416   0.478   3.686
 8103TIP3   OH224272   2.665   6.545   4.675
 8103TIP3    H124273   2.731   6.487   4.637
 8103TIP3    H224274   2.714   6.623   4.701
 8104TIP3   OH224275   3.835   2.030   1.448
 8104TIP3    H124276   3.863   1.942   1.424
 8104TIP3    H224277   3.853   2.083   1.370
 8105TIP3   OH224278   0.038   4.617   2.418
 8105TIP3    H124279  -0.040   4.643   2.468
 8105TIP3    H224280   0.092   4.569   2.480
 8106TIP3   OH224281   2.732   2.949   1.000
 8106TIP3    H124282   2.816   2.934   0.955
 8106TIP3    H224283   2.667   2.910   0.942
 8107TIP3   OH224284   5.027   0.434   3.567
 8107TIP3    H124285   4.982   0.393   3.493
 8107TIP3    H224286   5.003   0.527   3.561
 8108TIP3   OH224287   0.133   5.366   3.871
 8108TIP3    H124288   0.071   5.295   3.886
 8108TIP3    H224289   0.081   5.435   3.829
 8109TIP3   OH224290   4.605   1.289   5.587
 8109TIP3    H124291   4.683   1.344   5.588
 8109TIP3    H224292   4.535   1.347   5.618
 8110TIP3   OH224293   1.603   5.293   3.820
 8110TIP3    H124294   1.509   5.296   3.804
 8110TIP3    H224295   1.612   5.252   3.906
 8111TIP3   OH224296   2.217   0.454   0.323
 8111TIP3    H124297   2.299   0.484   0.285
 8111TIP3    H224298   2.207   0.365   0.289
 8112TIP3   OH224299   0.497   3.054   2.562
 8112TIP3    H124300   0.424   2.992   2.568
 8112TIP3    H224301   0.574   3.001   2.582
 8113TIP3   OH224302   5.534   5.968   5.241
 8113TIP3    H124303   5.479   6.038   5.208
 8113TIP3    H224304   5.474   5.897   5.261
 8114TIP3   OH224305   2.313   2.092   0.908
 8114TIP3    H124306   2.394   2.135   0.881
 8114TIP3    H224307   2.303   2.116   1.000
 8115TIP3   OH224308   3.327   3.850   4.101
 8115TIP3    H124309   3.418   3.856   4.128
 8115TIP3    H224310   3.282   3.813   4.177
 8116TIP3   OH224311   0.321   0.200   2.141
 8116TIP3    H124312   0.343   0.238   2.057
 8116TIP3    H224313   0.401   0.208   2.193
 8117TIP3   OH224314   4.763   4.818   3.540
 8117TIP3    H124315   4.708   4.745   3.569
 8117TIP3    H224316   4.853   4.788   3.554
 8118TIP3   OH224317   3.526   1.300   4.387
 8118TIP3    H124318   3.543   1.209   4.361
 8118TIP3    H224319   3.558   1.352   4.313
 8119TIP3   OH224320   5.962   5.980   2.193
 8119TIP3    H124321   5.964   5.887   2.214
 8119TIP3    H224322   6.026   5.989   2.122
 8120TIP3   OH224323   2.843   0.409   1.743
 8120TIP3    H124324   2.853   0.486   1.687
 8120TIP3    H224325   2.785   0.351   1.694
 8121TIP3   OH224326   3.941   5.227   4.349
 8121TIP3    H124327   3.993   5.295   4.304
 8121TIP3    H224328   3.973   5.145   4.313
 8122TIP3   OH224329   6.189   4.859   2.092
 8122TIP3    H124330   6.281   4.856   2.120
 8122TIP3    H224331   6.187   4.922   2.021
 8123TIP3   OH224332   1.443   1.258   1.484
 8123TIP3    H124333   1.505   1.247   1.411
 8123TIP3    H224334   1.459   1.181   1.540
 8124TIP3   OH224335   3.875   4.812   5.253
 8124TIP3    H124336   3.861   4.906   5.267
 8124TIP3    H224337   3.819   4.790   5.178
 8125TIP3   OH224338   1.228   1.017   1.208
 8125TIP3    H124339   1.173   0.997   1.284
 8125TIP3    H224340   1.299   0.953   1.213
 8126TIP3   OH224341   4.241   4.120   0.739
 8126TIP3    H124342   4.296   4.176   0.794
 8126TIP3    H224343   4.208   4.052   0.798
 8127TIP3   OH224344   3.221   3.997   1.068
 8127TIP3    H124345   3.300   4.034   1.107
 8127TIP3    H224346   3.160   3.989   1.142
 8128TIP3   OH224347   6.745   0.499   1.043
 8128TIP3    H124348   6.660   0.536   1.067
 8128TIP3    H224349   6.730   0.457   0.959
 8129TIP3   OH224350   2.910   0.058   3.938
 8129TIP3    H124351   3.000   0.033   3.916
 8129TIP3    H224352   2.856   0.003   3.881
 8130TIP3   OH224353   1.647   6.495   3.789
 8130TIP3    H124354   1.709   6.507   3.717
 8130TIP3    H224355   1.654   6.402   3.811
 8131TIP3   OH224356   1.683   0.704   5.479
 8131TIP3    H124357   1.713   0.639   5.416
 8131TIP3    H224358   1.588   0.709   5.465
 8132TIP3   OH224359   0.844   1.394   5.004
 8132TIP3    H124360   0.791   1.428   5.076
 8132TIP3    H224361   0.901   1.466   4.979
 8133TIP3   OH224362   5.033   4.438   2.458
 8133TIP3    H124363   5.119   4.410   2.490
 8133TIP3    H224364   5.022   4.391   2.375
 8134TIP3   OH224365   1.289   5.205   4.266
 8134TIP3    H124366   1.196   5.203   4.241
 8134TIP3    H224367   1.325   5.280   4.218
 8135TIP3   OH224368   5.458   4.499   0.641
 8135TIP3    H124369   5.492   4.492   0.551
 8135TIP3    H224370   5.487   4.419   0.684
 8136TIP3   OH224371   3.812   2.891   5.794
 8136TIP3    H124372   3.861   2.815   5.824
 8136TIP3    H224373   3.831   2.896   5.700
 8137TIP3   OH224374   2.478   5.531   3.868
 8137TIP3    H124375   2.464   5.571   3.782
 8137TIP3    H224376   2.536   5.457   3.850
 8138TIP3   OH224377   1.793   1.020   3.543
 8138TIP3    H124378   1.825   1.104   3.576
 8138TIP3    H224379   1.700   1.018   3.566
 8139TIP3   OH224380   3.512   2.105   0.049
 8139TIP3    H124381   3.560   2.122  -0.032
 8139TIP3    H224382   3.513   2.189   0.095
 8140TIP3   OH224383   3.444   3.167   0.956
 8140TIP3    H124384   3.490   3.249   0.937
 8140TIP3    H224385   3.513   3.105   0.981
 8141TIP3   OH224386   3.605   2.925   3.543
 8141TIP3    H124387   3.590   2.935   3.449
 8141TIP3    H224388   3.679   2.983   3.561
 8142TIP3   OH224389   2.666   4.625   1.585
 8142TIP3    H124390   2.760   4.609   1.593
 8142TIP3    H224391   2.658   4.721   1.583
 8143TIP3   OH224392   4.738   5.841   1.593
 8143TIP3    H124393   4.647   5.813   1.600
 8143TIP3    H224394   4.744   5.917   1.650
 8144TIP3   OH224395   5.410   1.197   2.377
 8144TIP3    H124396   5.405   1.101   2.382
 8144TIP3    H224397   5.327   1.223   2.335
 8145TIP3   OH224398   4.464   0.983   1.559
 8145TIP3    H124399   4.488   1.032   1.480
 8145TIP3    H224400   4.548   0.967   1.602
 8146TIP3   OH224401   6.957   2.033   5.046
 8146TIP3    H124402   6.917   2.102   4.993
 8146TIP3    H224403   6.974   2.074   5.131
 8147TIP3   OH224404   4.515   2.110   3.602
 8147TIP3    H124405   4.555   2.126   3.688
 8147TIP3    H224406   4.424   2.088   3.622
 8148TIP3   OH224407   5.941   1.882   1.565
 8148TIP3    H124408   5.926   1.910   1.655
 8148TIP3    H224409   6.018   1.932   1.538
 8149TIP3   OH224410   1.289   0.123   2.569
 8149TIP3    H124411   1.210   0.102   2.519
 8149TIP3    H224412   1.334   0.040   2.579
 8150TIP3   OH224413   4.363   4.942   2.713
 8150TIP3    H124414   4.350   4.928   2.807
 8150TIP3    H224415   4.458   4.938   2.702
 8151TIP3   OH224416   1.513   6.565   1.990
 8151TIP3    H124417   1.514   6.528   2.078
 8151TIP3    H224418   1.594   6.616   1.984
 8152TIP3   OH224419   4.592   6.757   1.000
 8152TIP3    H124420   4.593   6.670   1.039
 8152TIP3    H224421   4.672   6.762   0.948
 8153TIP3   OH224422   6.359   1.695   4.936
 8153TIP3    H124423   6.302   1.771   4.934
 8153TIP3    H224424   6.384   1.680   4.845
 8154TIP3   OH224425   5.321   5.055   5.868
 8154TIP3    H124426   5.289   5.142   5.844
 8154TIP3    H224427   5.244   5.008   5.900
 8155TIP3   OH224428   0.762   4.271   4.359
 8155TIP3    H124429   0.709   4.208   4.408
 8155TIP3    H224430   0.805   4.218   4.292
 8156TIP3   OH224431   6.053   3.470   4.214
 8156TIP3    H124432   6.047   3.530   4.140
 8156TIP3    H224433   6.049   3.527   4.291
 8157TIP3   OH224434   3.094   4.423   3.973
 8157TIP3    H124435   3.161   4.368   4.013
 8157TIP3    H224436   3.029   4.436   4.043
 8158TIP3   OH224437   4.637   3.388   4.703
 8158TIP3    H124438   4.725   3.424   4.709
 8158TIP3    H224439   4.613   3.368   4.794
 8159TIP3   OH224440   5.026   2.054   4.265
 8159TIP3    H124441   4.985   2.091   4.344
 8159TIP3    H224442   5.024   2.126   4.202
 8160TIP3   OH224443   3.473   5.305   4.137
 8160TIP3    H124444   3.520   5.273   4.060
 8160TIP3    H224445   3.386   5.330   4.104
 8161TIP3   OH224446   2.552   2.064   3.715
 8161TIP3    H124447   2.610   2.062   3.639
 8161TIP3    H224448   2.611   2.055   3.790
 8162TIP3   OH224449   0.454   0.524   2.996
 8162TIP3    H124450   0.443   0.490   2.907
 8162TIP3    H224451   0.546   0.508   3.016
 8163TIP3   OH224452   0.257   6.792   2.829
 8163TIP3    H124453   0.322   6.742   2.879
 8163TIP3    H224454   0.304   6.820   2.750
 8164TIP3   OH224455   6.402   4.968   2.891
 8164TIP3    H124456   6.405   4.873   2.883
 8164TIP3    H224457   6.320   4.985   2.939
 8165TIP3   OH224458   0.208   5.690   4.318
 8165TIP3    H124459   0.114   5.682   4.306
 8165TIP3    H224460   0.236   5.746   4.245
 8166TIP3   OH224461   6.001   5.565   3.087
 8166TIP3    H124462   5.964   5.485   3.123
 8166TIP3    H224463   6.059   5.536   3.017
 8167TIP3   OH224464   1.163   1.013   4.721
 8167TIP3    H124465   1.074   0.981   4.707
 8167TIP3    H224466   1.174   1.013   4.816
 8168TIP3   OH224467   5.694   6.143   3.973
 8168TIP3    H124468   5.765   6.183   4.023
 8168TIP3    H224469   5.622   6.135   4.036
 8169TIP3   OH224470   4.833   2.686   5.411
 8169TIP3    H124471   4.880   2.765   5.384
 8169TIP3    H224472   4.901   2.619   5.418
 8170TIP3   OH224473   4.576   1.781   4.941
 8170TIP3    H124474   4.534   1.778   4.855
 8170TIP3    H224475   4.503   1.787   5.002
 8171TIP3   OH224476   2.100   2.007   0.713
 8171TIP3    H124477   2.160   2.060   0.766
 8171TIP3    H224478   2.033   2.070   0.684
 8172TIP3   OH224479   2.057   5.104   0.744
 8172TIP3    H124480   1.975   5.083   0.700
 8172TIP3    H224481   2.051   5.061   0.829
 8173TIP3   OH224482   3.822   3.971   4.578
 8173TIP3    H124483   3.791   3.943   4.664
 8173TIP3    H224484   3.791   4.061   4.570
 8174TIP3   OH224485   0.487   2.891   3.497
 8174TIP3    H124486   0.403   2.880   3.451
 8174TIP3    H224487   0.474   2.847   3.581
 8175TIP3   OH224488   7.019   6.516   0.079
 8175TIP3    H124489   6.984   6.479   0.161
 8175TIP3    H224490   7.110   6.486   0.077
 8176TIP3   OH224491   2.348   0.483   5.296
 8176TIP3    H124492   2.354   0.394   5.262
 8176TIP3    H224493   2.437   0.518   5.287
 8177TIP3   OH224494   1.534   4.952   3.124
 8177TIP3    H124495   1.488   5.029   3.158
 8177TIP3    H224496   1.619   4.985   3.097
 8178TIP3   OH224497   6.188   0.034   5.073
 8178TIP3    H124498   6.127   0.081   5.131
 8178TIP3    H224499   6.133  -0.031   5.029
 8179TIP3   OH224500   4.412   5.766   2.069
 8179TIP3    H124501   4.349   5.703   2.102
 8179TIP3    H224502   4.493   5.716   2.060
 8180TIP3   OH224503   6.496   2.241   1.798
 8180TIP3    H124504   6.530   2.327   1.774
 8180TIP3    H224505   6.520   2.230   1.890
 8181TIP3   OH224506   7.084   6.029   4.788
 8181TIP3    H124507   7.035   5.995   4.713
 8181TIP3    H224508   7.120   6.112   4.757
 8182TIP3   OH224509   5.913   6.164   2.415
 8182TIP3    H124510   5.951   6.249   2.394
 8182TIP3    H224511   5.931   6.110   2.338
 8183TIP3   OH224512   6.233   1.279   3.578
 8183TIP3    H124513   6.256   1.266   3.670
 8183TIP3    H224514   6.150   1.326   3.581
 8184TIP3   OH224515   1.801   5.181   3.400
 8184TIP3    H124516   1.823   5.179   3.493
 8184TIP3    H224517   1.804   5.089   3.373
 8185TIP3   OH224518   0.729   2.893   0.126
 8185TIP3    H124519   0.716   2.825   0.192
 8185TIP3    H224520   0.817   2.875   0.091
 8186TIP3   OH224521   1.613   2.244   3.405
 8186TIP3    H124522   1.647   2.261   3.318
 8186TIP3    H224523   1.527   2.286   3.406
 8187TIP3   OH224524   5.265   4.829   1.591
 8187TIP3    H124525   5.337   4.766   1.599
 8187TIP3    H224526   5.237   4.820   1.500
 8188TIP3   OH224527   2.724   3.988   3.024
 8188TIP3    H124528   2.670   3.910   3.016
 8188TIP3    H224529   2.779   3.972   3.101
 8189TIP3   OH224530   4.612   4.587   3.559
 8189TIP3    H124531   4.573   4.541   3.633
 8189TIP3    H224532   4.690   4.535   3.537
 8190TIP3   OH224533   4.707   1.811   1.895
 8190TIP3    H124534   4.621   1.806   1.937
 8190TIP3    H224535   4.735   1.901   1.909
 8191TIP3   OH224536   6.898   0.392   4.294
 8191TIP3    H124537   6.953   0.315   4.285
 8191TIP3    H224538   6.851   0.379   4.377
 8192TIP3   OH224539   2.383   6.457   5.185
 8192TIP3    H124540   2.412   6.366   5.193
 8192TIP3    H224541   2.349   6.479   5.272
 8193TIP3   OH224542   5.875   3.241   2.067
 8193TIP3    H124543   5.779   3.239   2.073
 8193TIP3    H224544   5.894   3.200   1.983
 8194TIP3   OH224545   2.576   0.496   3.322
 8194TIP3    H124546   2.512   0.520   3.388
 8194TIP3    H224547   2.546   0.411   3.288
 8195TIP3   OH224548   1.705   1.729   1.678
 8195TIP3    H124549   1.656   1.722   1.596
 8195TIP3    H224550   1.639   1.743   1.745
 8196TIP3   OH224551   6.212   3.642   0.612
 8196TIP3    H124552   6.307   3.644   0.598
 8196TIP3    H224553   6.198   3.569   0.672
 8197TIP3   OH224554   1.013   0.757   1.037
 8197TIP3    H124555   0.936   0.808   1.063
 8197TIP3    H224556   0.979   0.690   0.978
 8198TIP3   OH224557   1.226   5.623   3.678
 8198TIP3    H124558   1.310   5.578   3.673
 8198TIP3    H224559   1.184   5.587   3.756
 8199TIP3   OH224560   5.028   5.070   1.319
 8199TIP3    H124561   5.093   5.125   1.276
 8199TIP3    H224562   5.071   4.985   1.329
 8200TIP3   OH224563   5.569   5.851   5.771
 8200TIP3    H124564   5.605   5.940   5.772
 8200TIP3    H224565   5.479   5.862   5.802
 8201TIP3   OH224566   4.685   3.165   5.600
 8201TIP3    H124567   4.703   3.072   5.615
 8201TIP3    H224568   4.718   3.181   5.512
 8202TIP3   OH224569   2.224   2.730   3.613
 8202TIP3    H124570   2.229   2.702   3.522
 8202TIP3    H224571   2.213   2.825   3.609
 8203TIP3   OH224572   7.097   1.130   5.499
 8203TIP3    H124573   7.168   1.156   5.440
 8203TIP3    H224574   7.134   1.140   5.586
 8204TIP3   OH224575   3.754   5.649   0.816
 8204TIP3    H124576   3.798   5.591   0.753
 8204TIP3    H224577   3.724   5.591   0.885
 8205TIP3   OH224578   2.378   3.262   2.205
 8205TIP3    H124579   2.458   3.314   2.214
 8205TIP3    H224580   2.391   3.212   2.124
 8206TIP3   OH224581   1.433   4.298   3.264
 8206TIP3    H124582   1.357   4.255   3.224
 8206TIP3    H224583   1.437   4.263   3.353
 8207TIP3   OH224584   6.344   5.531   5.518
 8207TIP3    H124585   6.326   5.614   5.562
 8207TIP3    H224586   6.387   5.555   5.437
 8208TIP3   OH224587   0.903   3.298   3.255
 8208TIP3    H124588   0.824   3.347   3.275
 8208TIP3    H224589   0.974   3.360   3.270
 8209TIP3   OH224590   5.194   3.671   0.913
 8209TIP3    H124591   5.161   3.596   0.963
 8209TIP3    H224592   5.150   3.746   0.952
 8210TIP3   OH224593   5.468   6.005   4.151
 8210TIP3    H124594   5.424   6.068   4.094
 8210TIP3    H224595   5.397   5.946   4.179
 8211TIP3   OH224596   3.065   2.043   5.209
 8211TIP3    H124597   3.093   1.958   5.177
 8211TIP3    H224598   3.097   2.046   5.300
 8212TIP3   OH224599   0.863   4.338   4.642
 8212TIP3    H124600   0.835   4.297   4.560
 8212TIP3    H224601   0.958   4.329   4.641
 8213TIP3   OH224602   6.674   4.064   0.975
 8213TIP3    H124603   6.653   4.107   1.057
 8213TIP3    H224604   6.759   4.023   0.990
 8214TIP3   OH224605   4.468   1.851   0.286
 8214TIP3    H124606   4.460   1.890   0.373
 8214TIP3    H224607   4.555   1.813   0.284
 8215TIP3   OH224608   1.735   1.164   2.395
 8215TIP3    H124609   1.806   1.106   2.368
 8215TIP3    H224610   1.776   1.230   2.449
 8216TIP3   OH224611   1.656   0.513   1.156
 8216TIP3    H124612   1.663   0.418   1.141
 8216TIP3    H224613   1.747   0.541   1.168
 8217TIP3   OH224614   0.066   1.297   4.413
 8217TIP3    H124615   0.136   1.288   4.348
 8217TIP3    H224616  -0.013   1.315   4.362
 8218TIP3   OH224617   1.825   4.912   0.493
 8218TIP3    H124618   1.802   4.871   0.410
 8218TIP3    H224619   1.890   4.978   0.471
 8219TIP3   OH224620   3.589   5.975   1.351
 8219TIP3    H124621   3.641   6.054   1.366
 8219TIP3    H224622   3.501   5.999   1.380
 8220TIP3   OH224623   6.718   5.324   3.625
 8220TIP3    H124624   6.719   5.261   3.697
 8220TIP3    H224625   6.786   5.387   3.647
 8221TIP3   OH224626   1.553   5.842   2.132
 8221TIP3    H124627   1.535   5.779   2.202
 8221TIP3    H224628   1.478   5.902   2.134
 8222TIP3   OH224629   6.310   0.786   4.192
 8222TIP3    H124630   6.298   0.807   4.099
 8222TIP3    H224631   6.248   0.843   4.238
 8223TIP3   OH224632   5.884   0.964   3.177
 8223TIP3    H124633   5.940   0.886   3.181
 8223TIP3    H224634   5.855   0.978   3.267
 8224TIP3   OH224635   5.597   4.177   5.404
 8224TIP3    H124636   5.535   4.105   5.411
 8224TIP3    H224637   5.569   4.240   5.471
 8225TIP3   OH224638   0.204   2.408   4.315
 8225TIP3    H124639   0.200   2.445   4.403
 8225TIP3    H224640   0.113   2.401   4.288
 8226TIP3   OH224641   1.458   6.511   4.649
 8226TIP3    H124642   1.469   6.541   4.740
 8226TIP3    H224643   1.469   6.416   4.654
 8227TIP3   OH224644   3.604   6.088   3.040
 8227TIP3    H124645   3.558   6.136   2.972
 8227TIP3    H224646   3.545   6.088   3.115
 8228TIP3   OH224647   4.209   5.836   4.354
 8228TIP3    H124648   4.174   5.925   4.357
 8228TIP3    H224649   4.135   5.781   4.329
 8229TIP3   OH224650   2.667   1.949   5.280
 8229TIP3    H124651   2.731   1.878   5.290
 8229TIP3    H224652   2.582   1.904   5.280
 8230TIP3   OH224653   1.146   0.051   4.117
 8230TIP3    H124654   1.053   0.056   4.137
 8230TIP3    H224655   1.183   0.130   4.158
 8231TIP3   OH224656   2.178   3.957   0.180
 8231TIP3    H124657   2.192   3.877   0.231
 8231TIP3    H224658   2.086   3.978   0.194
 8232TIP3   OH224659   3.274   3.751   4.357
 8232TIP3    H124660   3.353   3.782   4.403
 8232TIP3    H224661   3.202   3.774   4.415
 8233TIP3   OH224662   0.864   6.780   1.554
 8233TIP3    H124663   0.860   6.757   1.461
 8233TIP3    H224664   0.925   6.717   1.593
 8234TIP3   OH224665   2.210   1.151   0.263
 8234TIP3    H124666   2.171   1.221   0.315
 8234TIP3    H224667   2.168   1.071   0.295
 8235TIP3   OH224668   2.883   5.684   4.902
 8235TIP3    H124669   2.871   5.737   4.981
 8235TIP3    H224670   2.798   5.689   4.857
 8236TIP3   OH224671   3.481   0.358   0.131
 8236TIP3    H124672   3.575   0.371   0.132
 8236TIP3    H224673   3.469   0.267   0.103
 8237TIP3   OH224674   0.431   6.249   5.550
 8237TIP3    H124675   0.398   6.170   5.592
 8237TIP3    H224676   0.430   6.316   5.619
 8238TIP3   OH224677   7.189   5.045   0.152
 8238TIP3    H124678   7.270   5.062   0.104
 8238TIP3    H224679   7.190   5.109   0.223
 8239TIP3   OH224680   4.817   0.476   4.183
 8239TIP3    H124681   4.836   0.570   4.179
 8239TIP3    H224682   4.867   0.438   4.111
 8240TIP3   OH224683   4.727   1.004   3.722
 8240TIP3    H124684   4.678   0.923   3.706
 8240TIP3    H224685   4.750   0.999   3.815
 8241TIP3   OH224686   1.346   4.804   2.491
 8241TIP3    H124687   1.441   4.793   2.486
 8241TIP3    H224688   1.311   4.734   2.435
 8242TIP3   OH224689   6.246   0.643   0.885
 8242TIP3    H124690   6.254   0.643   0.789
 8242TIP3    H224691   6.158   0.609   0.901
 8243TIP3   OH224692   3.905   4.626   3.602
 8243TIP3    H124693   3.997   4.636   3.580
 8243TIP3    H224694   3.881   4.709   3.644
 8244TIP3   OH224695   5.775   6.076   3.461
 8244TIP3    H124696   5.748   6.064   3.552
 8244TIP3    H224697   5.729   6.007   3.413
 8245TIP3   OH224698   5.951   4.225   1.727
 8245TIP3    H124699   5.920   4.312   1.702
 8245TIP3    H224700   6.032   4.213   1.679
 8246TIP3   OH224701   1.305   6.720   1.157
 8246TIP3    H124702   1.329   6.697   1.067
 8246TIP3    H224703   1.383   6.762   1.193
 8247TIP3   OH224704   1.538   6.671   0.406
 8247TIP3    H124705   1.524   6.604   0.338
 8247TIP3    H224706   1.466   6.732   0.395
 8248TIP3   OH224707   4.044   0.609   2.993
 8248TIP3    H124708   3.986   0.667   2.944
 8248TIP3    H224709   4.012   0.521   2.972
 8249TIP3   OH224710   5.907   1.373   0.151
 8249TIP3    H124711   5.854   1.452   0.163
 8249TIP3    H224712   5.864   1.326   0.079
 8250TIP3   OH224713   4.304   3.788   1.324
 8250TIP3    H124714   4.341   3.867   1.284
 8250TIP3    H224715   4.261   3.820   1.403
 8251TIP3   OH224716   0.139   5.075   2.296
 8251TIP3    H124717   0.049   5.052   2.272
 8251TIP3    H224718   0.166   5.139   2.230
 8252TIP3   OH224719   6.129   1.746   0.598
 8252TIP3    H124720   6.129   1.830   0.644
 8252TIP3    H224721   6.086   1.686   0.659
 8253TIP3   OH224722   0.863   4.917   0.426
 8253TIP3    H124723   0.833   4.962   0.347
 8253TIP3    H224724   0.790   4.861   0.450
 8254TIP3   OH224725   4.122   4.157   0.479
 8254TIP3    H124726   4.138   4.123   0.567
 8254TIP3    H224727   4.154   4.247   0.482
 8255TIP3   OH224728   5.264   0.095   3.374
 8255TIP3    H124729   5.181   0.048   3.380
 8255TIP3    H224730   5.312   0.051   3.304
 8256TIP3   OH224731   4.555   3.460   1.314
 8256TIP3    H124732   4.465   3.490   1.329
 8256TIP3    H224733   4.556   3.371   1.350
 8257TIP3   OH224734   2.478   2.323   5.654
 8257TIP3    H124735   2.492   2.412   5.621
 8257TIP3    H224736   2.393   2.297   5.618
 8258TIP3   OH224737   5.117   4.797   1.357
 8258TIP3    H124738   5.190   4.766   1.304
 8258TIP3    H224739   5.049   4.730   1.345
 8259TIP3   OH224740   5.605   0.765   2.845
 8259TIP3    H124741   5.666   0.768   2.771
 8259TIP3    H224742   5.618   0.848   2.890
 8260TIP3   OH224743   0.544   6.624   1.021
 8260TIP3    H124744   0.521   6.614   1.113
 8260TIP3    H224745   0.462   6.608   0.974
 8261TIP3   OH224746   5.442   0.605   4.356
 8261TIP3    H124747   5.385   0.630   4.428
 8261TIP3    H224748   5.529   0.636   4.381
 8262TIP3   OH224749   0.007   0.775   5.086
 8262TIP3    H124750   0.076   0.815   5.033
 8262TIP3    H224751   0.046   0.693   5.117
 8263TIP3   OH224752   3.830   2.216   5.670
 8263TIP3    H124753   3.890   2.282   5.636
 8263TIP3    H224754   3.886   2.141   5.691
 8264TIP3   OH224755   0.670   5.974   0.259
 8264TIP3    H124756   0.587   6.022   0.259
 8264TIP3    H224757   0.663   5.912   0.186
 8265TIP3   OH224758   4.137   1.977   0.481
 8265TIP3    H124759   4.094   1.903   0.525
 8265TIP3    H224760   4.081   1.996   0.406
 8266TIP3   OH224761   4.742   5.695   0.004
 8266TIP3    H124762   4.748   5.601   0.023
 8266TIP3    H224763   4.808   5.711  -0.063
 8267TIP3   OH224764   0.246   4.075   1.361
 8267TIP3    H124765   0.320   4.064   1.301
 8267TIP3    H224766   0.170   4.046   1.312
 8268TIP3   OH224767   6.815   2.840   0.746
 8268TIP3    H124768   6.748   2.872   0.685
 8268TIP3    H224769   6.832   2.915   0.804
 8269TIP3   OH224770   1.395   2.270   4.342
 8269TIP3    H124771   1.312   2.242   4.302
 8269TIP3    H224772   1.462   2.229   4.288
 8270TIP3   OH224773   4.978   0.599   0.865
 8270TIP3    H124774   5.028   0.560   0.937
 8270TIP3    H224775   4.887   0.599   0.895
 8271TIP3   OH224776   0.333   1.583   0.051
 8271TIP3    H124777   0.246   1.617   0.029
 8271TIP3    H224778   0.320   1.532   0.130
 8272TIP3   OH224779   2.853   0.151   5.116
 8272TIP3    H124780   2.943   0.128   5.092
 8272TIP3    H224781   2.801   0.076   5.089
 8273TIP3   OH224782   6.960   5.403   4.093
 8273TIP3    H124783   6.879   5.375   4.050
 8273TIP3    H224784   6.932   5.432   4.180
 8274TIP3   OH224785   4.018   2.467   5.250
 8274TIP3    H124786   4.004   2.561   5.248
 8274TIP3    H224787   3.987   2.436   5.165
 8275TIP3   OH224788   1.436   4.774   1.229
 8275TIP3    H124789   1.439   4.858   1.275
 8275TIP3    H224790   1.510   4.725   1.265
 8276TIP3   OH224791   5.397   1.440   0.688
 8276TIP3    H124792   5.410   1.364   0.745
 8276TIP3    H224793   5.311   1.474   0.714
 8277TIP3   OH224794   0.990   4.931   1.301
 8277TIP3    H124795   0.906   4.969   1.329
 8277TIP3    H224796   1.028   4.998   1.244
 8278TIP3   OH224797   0.897   6.514   3.939
 8278TIP3    H124798   0.834   6.478   4.001
 8278TIP3    H224799   0.896   6.453   3.865
 8279TIP3   OH224800   6.574   4.027   2.847
 8279TIP3    H124801   6.588   4.120   2.832
 8279TIP3    H224802   6.479   4.016   2.838
 8280TIP3   OH224803   6.965   3.981   5.874
 8280TIP3    H124804   6.893   4.043   5.885
 8280TIP3    H224805   7.028   4.007   5.942
 8281TIP3   OH224806   7.107   1.121   2.003
 8281TIP3    H124807   7.037   1.185   2.015
 8281TIP3    H224808   7.157   1.153   1.928
 8282TIP3   OH224809   4.010   2.662   2.999
 8282TIP3    H124810   3.999   2.674   3.093
 8282TIP3    H224811   3.925   2.630   2.968
 8283TIP3   OH224812   2.813   1.169   4.997
 8283TIP3    H124813   2.844   1.195   4.910
 8283TIP3    H224814   2.874   1.100   5.024
 8284TIP3   OH224815   4.557   0.459   2.283
 8284TIP3    H124816   4.479   0.493   2.240
 8284TIP3    H224817   4.627   0.521   2.260
 8285TIP3   OH224818   4.965   5.245   1.534
 8285TIP3    H124819   4.985   5.178   1.469
 8285TIP3    H224820   4.881   5.217   1.572
 8286TIP3   OH224821   2.758   6.346   0.561
 8286TIP3    H124822   2.673   6.305   0.547
 8286TIP3    H224823   2.801   6.344   0.475
 8287TIP3   OH224824   1.580   0.419   3.572
 8287TIP3    H124825   1.540   0.333   3.561
 8287TIP3    H224826   1.674   0.401   3.573
 8288TIP3   OH224827   4.416   5.154   4.002
 8288TIP3    H124828   4.477   5.083   4.023
 8288TIP3    H224829   4.445   5.187   3.917
 8289TIP3   OH224830   0.451   1.321   1.613
 8289TIP3    H124831   0.525   1.276   1.572
 8289TIP3    H224832   0.485   1.408   1.633
 8290TIP3   OH224833   2.923   5.502   0.968
 8290TIP3    H124834   2.891   5.413   0.951
 8290TIP3    H224835   2.993   5.490   1.032
 8291TIP3   OH224836   6.525   5.277   3.428
 8291TIP3    H124837   6.596   5.270   3.491
 8291TIP3    H224838   6.564   5.252   3.344
 8292TIP3   OH224839   1.828   6.635   2.923
 8292TIP3    H124840   1.859   6.713   2.968
 8292TIP3    H224841   1.899   6.612   2.863
 8293TIP3   OH224842   4.345   3.487   0.941
 8293TIP3    H124843   4.432   3.490   0.981
 8293TIP3    H224844   4.336   3.570   0.896
 8294TIP3   OH224845   0.807   5.484   5.172
 8294TIP3    H124846   0.759   5.409   5.137
 8294TIP3    H224847   0.832   5.457   5.261
 8295TIP3   OH224848   3.003   6.372   3.678
 8295TIP3    H124849   3.060   6.304   3.640
 8295TIP3    H224850   2.939   6.323   3.729
 8296TIP3   OH224851   4.117   5.194   3.046
 8296TIP3    H124852   4.193   5.196   3.104
 8296TIP3    H224853   4.149   5.232   2.964
 8297TIP3   OH224854   2.341   3.092   3.437
 8297TIP3    H124855   2.390   3.073   3.517
 8297TIP3    H224856   2.407   3.089   3.367
 8298TIP3   OH224857   7.185   6.227   2.715
 8298TIP3    H124858   7.145   6.146   2.685
 8298TIP3    H224859   7.119   6.268   2.771
 8299TIP3   OH224860   2.872   2.197   0.036
 8299TIP3    H124861   2.931   2.252   0.088
 8299TIP3    H224862   2.926   2.125   0.005
 8300TIP3   OH224863   6.707   2.879   4.888
 8300TIP3    H124864   6.724   2.966   4.923
 8300TIP3    H224865   6.789   2.831   4.901
 8301TIP3   OH224866   4.376   0.747   5.238
 8301TIP3    H124867   4.344   0.738   5.148
 8301TIP3    H224868   4.386   0.841   5.250
 8302TIP3   OH224869   1.663   3.961   0.808
 8302TIP3    H124870   1.699   4.041   0.771
 8302TIP3    H224871   1.584   3.989   0.854
 8303TIP3   OH224872   1.394   5.945   4.729
 8303TIP3    H124873   1.385   5.853   4.752
 8303TIP3    H224874   1.376   5.949   4.636
 8304TIP3   OH224875   4.279   6.499   2.823
 8304TIP3    H124876   4.368   6.528   2.800
 8304TIP3    H224877   4.232   6.580   2.843
 8305TIP3   OH224878   4.446   2.398   5.251
 8305TIP3    H124879   4.537   2.371   5.255
 8305TIP3    H224880   4.406   2.340   5.186
 8306TIP3   OH224881   2.931   5.672   1.530
 8306TIP3    H124882   2.898   5.619   1.458
 8306TIP3    H224883   2.925   5.763   1.498
 8307TIP3   OH224884   4.564   1.148   2.400
 8307TIP3    H124885   4.631   1.184   2.343
 8307TIP3    H224886   4.612   1.105   2.470
 8308TIP3   OH224887   1.480   6.657   4.379
 8308TIP3    H124888   1.503   6.598   4.307
 8308TIP3    H224889   1.465   6.598   4.453
 8309TIP3   OH224890   4.517   1.577   0.115
 8309TIP3    H124891   4.526   1.664   0.154
 8309TIP3    H224892   4.550   1.587   0.026
 8310TIP3   OH224893   0.532   3.679   1.932
 8310TIP3    H124894   0.549   3.587   1.912
 8310TIP3    H224895   0.618   3.720   1.934
 8311TIP3   OH224896   5.399   6.612   3.772
 8311TIP3    H124897   5.384   6.687   3.829
 8311TIP3    H224898   5.492   6.592   3.782
 8312TIP3   OH224899   5.211   6.026   2.100
 8312TIP3    H124900   5.265   6.005   2.176
 8312TIP3    H224901   5.136   5.966   2.108
 8313TIP3   OH224902   2.192   0.314   4.616
 8313TIP3    H124903   2.133   0.322   4.692
 8313TIP3    H224904   2.134   0.286   4.545
 8314TIP3   OH224905   0.599   3.242   3.035
 8314TIP3    H124906   0.638   3.240   3.122
 8314TIP3    H224907   0.517   3.290   3.046
 8315TIP3   OH224908   3.280   4.294   2.922
 8315TIP3    H124909   3.349   4.264   2.981
 8315TIP3    H224910   3.199   4.283   2.972
 8316TIP3   OH224911   4.264   4.006   5.090
 8316TIP3    H124912   4.217   4.089   5.097
 8316TIP3    H224913   4.218   3.958   5.021
 8317TIP3   OH224914   5.309   1.207   3.639
 8317TIP3    H124915   5.274   1.242   3.721
 8317TIP3    H224916   5.373   1.141   3.666
 8318TIP3   OH224917   5.719   6.029   0.318
 8318TIP3    H124918   5.736   6.043   0.411
 8318TIP3    H224919   5.782   5.961   0.293
 8319TIP3   OH224920   5.486   1.406   1.360
 8319TIP3    H124921   5.537   1.329   1.386
 8319TIP3    H224922   5.484   1.402   1.264
 8320TIP3   OH224923   3.020   0.770   2.393
 8320TIP3    H124924   2.972   0.689   2.376
 8320TIP3    H224925   3.050   0.799   2.307
 8321TIP3   OH224926   0.977   4.123   3.249
 8321TIP3    H124927   0.924   4.046   3.270
 8321TIP3    H224928   0.984   4.171   3.331
 8322TIP3   OH224929   0.033   5.519   1.971
 8322TIP3    H124930   0.015   5.498   1.880
 8322TIP3    H224931   0.109   5.578   1.967
 8323TIP3   OH224932   6.785   3.020   0.352
 8323TIP3    H124933   6.853   2.959   0.323
 8323TIP3    H224934   6.760   2.989   0.439
 8324TIP3   OH224935   3.187   6.754   3.814
 8324TIP3    H124936   3.262   6.813   3.823
 8324TIP3    H224937   3.115   6.811   3.787
 8325TIP3   OH224938   6.569   0.230   1.046
 8325TIP3    H124939   6.534   0.289   0.980
 8325TIP3    H224940   6.595   0.151   0.998
 8326TIP3   OH224941   3.169   5.852   2.330
 8326TIP3    H124942   3.154   5.847   2.424
 8326TIP3    H224943   3.161   5.761   2.300
 8327TIP3   OH224944   3.994   3.489   1.357
 8327TIP3    H124945   3.951   3.537   1.428
 8327TIP3    H224946   3.930   3.491   1.285
 8328TIP3   OH224947   6.803   2.988   3.751
 8328TIP3    H124948   6.874   2.995   3.688
 8328TIP3    H224949   6.836   3.032   3.829
 8329TIP3   OH224950   2.749   3.134   4.947
 8329TIP3    H124951   2.669   3.092   4.916
 8329TIP3    H224952   2.811   3.124   4.874
 8330TIP3   OH224953   2.618   6.554   1.543
 8330TIP3    H124954   2.671   6.633   1.554
 8330TIP3    H224955   2.627   6.508   1.627
 8331TIP3   OH224956   0.844   4.921   1.031
 8331TIP3    H124957   0.928   4.948   1.067
 8331TIP3    H224958   0.796   4.886   1.106
 8332TIP3   OH224959   6.695   5.339   2.850
 8332TIP3    H124960   6.614   5.297   2.877
 8332TIP3    H224961   6.707   5.313   2.759
 8333TIP3   OH224962   0.095   1.733   4.179
 8333TIP3    H124963   0.066   1.770   4.095
 8333TIP3    H224964   0.164   1.792   4.208
 8334TIP3   OH224965   5.816   4.478   1.175
 8334TIP3    H124966   5.849   4.561   1.140
 8334TIP3    H224967   5.758   4.504   1.247
 8335TIP3   OH224968   2.496   4.349   0.249
 8335TIP3    H124969   2.471   4.257   0.243
 8335TIP3    H224970   2.512   4.364   0.342
 8336TIP3   OH224971   6.098   5.141   0.752
 8336TIP3    H124972   6.163   5.071   0.751
 8336TIP3    H224973   6.051   5.132   0.669
 8337TIP3   OH224974   1.993   4.219   2.973
 8337TIP3    H124975   1.996   4.273   2.894
 8337TIP3    H224976   1.995   4.129   2.940
 8338TIP3   OH224977   4.862   5.811   4.428
 8338TIP3    H124978   4.947   5.785   4.463
 8338TIP3    H224979   4.852   5.903   4.455
 8339TIP3   OH224980   4.689   6.594   5.633
 8339TIP3    H124981   4.632   6.556   5.566
 8339TIP3    H224982   4.775   6.555   5.617
 8340TIP3   OH224983   0.445   1.011   4.948
 8340TIP3    H124984   0.478   1.020   4.859
 8340TIP3    H224985   0.519   1.033   5.004
 8341TIP3   OH224986   2.458   5.855   4.604
 8341TIP3    H124987   2.486   5.944   4.626
 8341TIP3    H224988   2.376   5.867   4.557
 8342TIP3   OH224989   1.333   0.771   0.671
 8342TIP3    H124990   1.298   0.775   0.761
 8342TIP3    H224991   1.428   0.768   0.683
 8343TIP3   OH224992   3.695   4.148   1.762
 8343TIP3    H124993   3.604   4.162   1.790
 8343TIP3    H224994   3.713   4.058   1.787
 8344TIP3   OH224995   5.891   4.391   0.919
 8344TIP3    H124996   5.852   4.433   0.996
 8344TIP3    H224997   5.881   4.297   0.936
 8345TIP3   OH224998   5.583   6.172   0.786
 8345TIP3    H124999   5.615   6.257   0.754
 8345TIP3    H225000   5.599   6.112   0.714
 8346TIP3   OH225001   3.954   6.206   2.515
 8346TIP3    H125002   3.997   6.221   2.431
 8346TIP3    H225003   3.964   6.288   2.563
 8347TIP3   OH225004   2.903   4.778   1.392
 8347TIP3    H125005   2.819   4.823   1.383
 8347TIP3    H225006   2.961   4.843   1.432
 8348TIP3   OH225007   5.674   3.642   0.428
 8348TIP3    H125008   5.646   3.552   0.416
 8348TIP3    H225009   5.770   3.636   0.436
 8349TIP3   OH225010   0.900   1.782   4.720
 8349TIP3    H125011   0.891   1.773   4.625
 8349TIP3    H225012   0.967   1.717   4.744
 8350TIP3   OH225013   6.406   6.321   4.364
 8350TIP3    H125014   6.383   6.403   4.409
 8350TIP3    H225015   6.440   6.265   4.433
 8351TIP3   OH225016   5.181   2.419   3.663
 8351TIP3    H125017   5.195   2.395   3.571
 8351TIP3    H225018   5.259   2.468   3.687
 8352TIP3   OH225019   1.287   6.748   0.073
 8352TIP3    H125020   1.287   6.843   0.086
 8352TIP3    H225021   1.247   6.713   0.153
 8353TIP3   OH225022   4.995   3.589   3.927
 8353TIP3    H125023   4.979   3.600   3.834
 8353TIP3    H225024   4.952   3.664   3.968
 8354TIP3   OH225025   6.078   6.706   4.586
 8354TIP3    H125026   6.152   6.669   4.634
 8354TIP3    H225027   6.077   6.659   4.503
 8355TIP3   OH225028   0.452   0.849   0.764
 8355TIP3    H125029   0.409   0.776   0.719
 8355TIP3    H225030   0.539   0.817   0.784
 8356TIP3   OH225031   6.382   4.643   3.829
 8356TIP3    H125032   6.473   4.669   3.838
 8356TIP3    H225033   6.339   4.680   3.906
 8357TIP3   OH225034   3.930   3.686   1.783
 8357TIP3    H125035   3.968   3.601   1.760
 8357TIP3    H225036   4.005   3.738   1.813
 8358TIP3   OH225037   2.484   3.003   3.658
 8358TIP3    H125038   2.505   3.005   3.752
 8358TIP3    H225039   2.519   2.919   3.627
 8359TIP3   OH225040   1.294   5.993   2.482
 8359TIP3    H125041   1.295   6.056   2.554
 8359TIP3    H225042   1.371   5.939   2.496
 8360TIP3   OH225043   5.902   4.520   2.910
 8360TIP3    H125044   5.885   4.594   2.852
 8360TIP3    H225045   5.818   4.504   2.953
 8361TIP3   OH225046   5.508   0.741   5.172
 8361TIP3    H125047   5.583   0.795   5.197
 8361TIP3    H225048   5.474   0.783   5.093
 8362TIP3   OH225049   6.722   3.951   3.394
 8362TIP3    H125050   6.756   3.861   3.390
 8362TIP3    H225051   6.800   4.006   3.396
 8363TIP3   OH225052   0.389   4.082   4.288
 8363TIP3    H125053   0.310   4.040   4.252
 8363TIP3    H225054   0.408   4.153   4.227
 8364TIP3   OH225055   0.957   4.736   3.316
 8364TIP3    H125056   0.900   4.786   3.259
 8364TIP3    H225057   1.000   4.672   3.259
 8365TIP3   OH225058   0.196   6.455   4.929
 8365TIP3    H125059   0.118   6.478   4.878
 8365TIP3    H225060   0.184   6.363   4.951
 8366TIP3   OH225061   3.493   0.543   2.479
 8366TIP3    H125062   3.430   0.558   2.409
 8366TIP3    H225063   3.576   0.576   2.444
 8367TIP3   OH225064   6.744   5.958   0.989
 8367TIP3    H125065   6.712   5.927   0.904
 8367TIP3    H225066   6.674   5.938   1.050
 8368TIP3   OH225067   2.608   0.315   2.224
 8368TIP3    H125068   2.642   0.309   2.134
 8368TIP3    H225069   2.653   0.244   2.270
 8369TIP3   OH225070   5.093   0.746   0.626
 8369TIP3    H125071   5.071   0.653   0.618
 8369TIP3    H225072   5.041   0.777   0.700
 8370TIP3   OH225073   1.057   5.918   3.938
 8370TIP3    H125074   1.009   5.905   4.019
 8370TIP3    H225075   1.001   5.976   3.886
 8371TIP3   OH225076   2.445   4.935   4.330
 8371TIP3    H125077   2.400   4.996   4.271
 8371TIP3    H225078   2.398   4.852   4.319
 8372TIP3   OH225079   2.883   3.594   4.106
 8372TIP3    H125080   2.914   3.506   4.127
 8372TIP3    H225081   2.962   3.642   4.082
 8373TIP3   OH225082   3.742   5.436   4.365
 8373TIP3    H125083   3.741   5.423   4.460
 8373TIP3    H225084   3.794   5.363   4.331
 8374TIP3   OH225085   1.597   3.860   1.256
 8374TIP3    H125086   1.580   3.770   1.229
 8374TIP3    H225087   1.677   3.884   1.209
 8375TIP3   OH225088   1.518   6.472   0.216
 8375TIP3    H125089   1.572   6.479   0.137
 8375TIP3    H225090   1.449   6.410   0.192
 8376TIP3   OH225091   4.472   6.552   1.970
 8376TIP3    H125092   4.379   6.531   1.963
 8376TIP3    H225093   4.477   6.611   2.046
 8377TIP3   OH225094   5.545   1.403   3.906
 8377TIP3    H125095   5.471   1.343   3.910
 8377TIP3    H225096   5.508   1.486   3.879
 8378TIP3   OH225097   3.686   5.783   2.724
 8378TIP3    H125098   3.718   5.807   2.811
 8378TIP3    H225099   3.730   5.844   2.665
 8379TIP3   OH225100   1.295   5.395   5.457
 8379TIP3    H125101   1.259   5.327   5.399
 8379TIP3    H225102   1.280   5.360   5.545
 8380TIP3   OH225103   4.462   0.833   5.719
 8380TIP3    H125104   4.502   0.759   5.672
 8380TIP3    H225105   4.372   0.836   5.685
 8381TIP3   OH225106   3.157   0.093   2.184
 8381TIP3    H125107   3.245   0.116   2.216
 8381TIP3    H225108   3.172   0.047   2.102
 8382TIP3   OH225109   2.680   3.373   0.046
 8382TIP3    H125110   2.691   3.282   0.016
 8382TIP3    H225111   2.600   3.403   0.002
 8383TIP3   OH225112   3.018   5.850   0.814
 8383TIP3    H125113   3.045   5.789   0.883
 8383TIP3    H225114   2.963   5.914   0.859
 8384TIP3   OH225115   4.834   5.985   5.372
 8384TIP3    H125116   4.867   6.035   5.297
 8384TIP3    H225117   4.800   5.905   5.333
 8385TIP3   OH225118   4.564   2.314   0.332
 8385TIP3    H125119   4.632   2.274   0.278
 8385TIP3    H225120   4.549   2.250   0.402
 8386TIP3   OH225121   4.769   4.307   2.525
 8386TIP3    H125122   4.795   4.379   2.582
 8386TIP3    H225123   4.839   4.301   2.460
 8387TIP3   OH225124   2.572   4.368   5.287
 8387TIP3    H125125   2.491   4.339   5.245
 8387TIP3    H225126   2.640   4.311   5.250
 8388TIP3   OH225127   1.500   4.278   0.502
 8388TIP3    H125128   1.426   4.300   0.445
 8388TIP3    H225129   1.542   4.204   0.458
 8389TIP3   OH225130   5.733   6.503   2.545
 8389TIP3    H125131   5.659   6.563   2.544
 8389TIP3    H225132   5.713   6.439   2.477
 8390TIP3   OH225133   0.698   2.141   0.969
 8390TIP3    H125134   0.688   2.236   0.970
 8390TIP3    H225135   0.614   2.109   0.936
 8391TIP3   OH225136   0.924   1.161   4.565
 8391TIP3    H125137   0.856   1.210   4.518
 8391TIP3    H225138   0.899   1.168   4.657
 8392TIP3   OH225139   4.258   2.223   0.132
 8392TIP3    H125140   4.344   2.182   0.144
 8392TIP3    H225141   4.208   2.161   0.080
 8393TIP3   OH225142   2.048   3.049   5.199
 8393TIP3    H125143   1.989   2.974   5.190
 8393TIP3    H225144   2.042   3.095   5.115
 8394TIP3   OH225145   5.913   0.094   1.099
 8394TIP3    H125146   5.994   0.049   1.077
 8394TIP3    H225147   5.866   0.034   1.157
 8395TIP3   OH225148   1.842   0.844   3.816
 8395TIP3    H125149   1.790   0.766   3.797
 8395TIP3    H225150   1.792   0.916   3.777
 8396TIP3   OH225151   3.394   1.044   2.404
 8396TIP3    H125152   3.477   1.057   2.357
 8396TIP3    H225153   3.353   1.130   2.405
 8397TIP3   OH225154   5.690   1.901   2.665
 8397TIP3    H125155   5.725   1.977   2.617
 8397TIP3    H225156   5.758   1.881   2.730
 8398TIP3   OH225157   3.207   3.032   4.125
 8398TIP3    H125158   3.139   3.063   4.066
 8398TIP3    H225159   3.161   2.974   4.187
 8399TIP3   OH225160   3.348   2.144   5.436
 8399TIP3    H125161   3.438   2.141   5.468
 8399TIP3    H225162   3.356   2.167   5.343
 8400TIP3   OH225163   3.318   1.718   1.320
 8400TIP3    H125164   3.330   1.784   1.387
 8400TIP3    H225165   3.266   1.649   1.362
 8401TIP3   OH225166   0.784   3.419   1.477
 8401TIP3    H125167   0.831   3.390   1.555
 8401TIP3    H225168   0.800   3.351   1.412
 8402TIP3   OH225169   4.938   4.579   1.394
 8402TIP3    H125170   4.992   4.520   1.341
 8402TIP3    H225171   4.858   4.529   1.412
 8403TIP3   OH225172   5.773   3.295   0.194
 8403TIP3    H125173   5.804   3.331   0.110
 8403TIP3    H225174   5.848   3.306   0.253
 8404TIP3   OH225175   6.145   6.132   1.734
 8404TIP3    H125176   6.141   6.049   1.686
 8404TIP3    H225177   6.125   6.108   1.825
 8405TIP3   OH225178   0.238   0.084   0.956
 8405TIP3    H125179   0.238  -0.012   0.946
 8405TIP3    H225180   0.162   0.102   1.011
 8406TIP3   OH225181   2.484   1.075   2.783
 8406TIP3    H125182   2.542   1.140   2.822
 8406TIP3    H225183   2.538   1.030   2.718
 8407TIP3   OH225184   5.692   5.066   2.530
 8407TIP3    H125185   5.737   5.118   2.596
 8407TIP3    H225186   5.671   5.128   2.460
 8408TIP3   OH225187   5.978   1.552   3.287
 8408TIP3    H125188   5.934   1.474   3.319
 8408TIP3    H225189   5.919   1.624   3.311
 8409TIP3   OH225190   0.816   4.876   3.693
 8409TIP3    H125191   0.828   4.899   3.785
 8409TIP3    H225192   0.723   4.855   3.684
 8410TIP3   OH225193   1.147   3.135   4.013
 8410TIP3    H125194   1.233   3.132   3.971
 8410TIP3    H225195   1.098   3.199   3.961
 8411TIP3   OH225196   1.028   2.799   0.465
 8411TIP3    H125197   0.949   2.818   0.515
 8411TIP3    H225198   1.030   2.865   0.396
 8412TIP3   OH225199   0.431   1.104   1.894
 8412TIP3    H125200   0.521   1.110   1.925
 8412TIP3    H225201   0.435   1.137   1.804
 8413TIP3   OH225202   2.634   4.126   2.764
 8413TIP3    H125203   2.623   4.221   2.758
 8413TIP3    H225204   2.695   4.114   2.837
 8414TIP3   OH225205   0.458   3.196   1.352
 8414TIP3    H125206   0.504   3.117   1.379
 8414TIP3    H225207   0.366   3.170   1.345
 8415TIP3   OH225208   5.562   3.854   0.297
 8415TIP3    H125209   5.488   3.883   0.350
 8415TIP3    H225210   5.598   3.779   0.345
 8416TIP3   OH225211   5.843   2.808   2.286
 8416TIP3    H125212   5.837   2.713   2.273
 8416TIP3    H225213   5.936   2.824   2.301
 8417TIP3   OH225214   6.323   1.055   4.819
 8417TIP3    H125215   6.409   1.017   4.804
 8417TIP3    H225216   6.330   1.145   4.787
 8418TIP3   OH225217   5.640   0.913   4.013
 8418TIP3    H125218   5.565   0.965   4.041
 8418TIP3    H225219   5.604   0.826   3.993
 8419TIP3   OH225220   6.991   5.246   0.849
 8419TIP3    H125221   7.032   5.332   0.855
 8419TIP3    H225222   7.059   5.185   0.878
 8420TIP3   OH225223   6.921   5.288   0.574
 8420TIP3    H125224   6.943   5.255   0.662
 8420TIP3    H225225   6.856   5.356   0.590
 8421TIP3   OH225226   5.654   0.304   1.044
 8421TIP3    H125227   5.717   0.375   1.049
 8421TIP3    H225228   5.653   0.266   1.131
 8422TIP3   OH225229   2.717   1.302   1.448
 8422TIP3    H125230   2.738   1.385   1.492
 8422TIP3    H225231   2.670   1.251   1.514
 8423TIP3   OH225232   5.559   6.363   1.033
 8423TIP3    H125233   5.632   6.310   0.999
 8423TIP3    H225234   5.481   6.310   1.014
 8424TIP3   OH225235   0.939   6.122   3.753
 8424TIP3    H125236   0.962   6.094   3.665
 8424TIP3    H225237   1.001   6.193   3.772
 8425TIP3   OH225238   4.571   1.931   0.832
 8425TIP3    H125239   4.620   1.912   0.913
 8425TIP3    H225240   4.637   1.967   0.773
 8426TIP3   OH225241   3.588   1.496   4.805
 8426TIP3    H125242   3.671   1.534   4.833
 8426TIP3    H225243   3.574   1.530   4.716
 8427TIP3   OH225244   1.548   0.408   2.276
 8427TIP3    H125245   1.535   0.393   2.370
 8427TIP3    H225246   1.517   0.497   2.261
 8428TIP3   OH225247   6.340   4.178   3.499
 8428TIP3    H125248   6.360   4.217   3.414
 8428TIP3    H225249   6.245   4.187   3.508
 8429TIP3   OH225250   4.419   4.593   4.393
 8429TIP3    H125251   4.334   4.575   4.433
 8429TIP3    H225252   4.474   4.620   4.467
 8430TIP3   OH225253   1.888   6.113   2.595
 8430TIP3    H125254   1.855   6.102   2.506
 8430TIP3    H225255   1.939   6.194   2.592
 8431TIP3   OH225256   2.457   5.108   2.182
 8431TIP3    H125257   2.429   5.038   2.241
 8431TIP3    H225258   2.548   5.125   2.206
 8432TIP3   OH225259   6.907   5.368   1.205
 8432TIP3    H125260   6.824   5.343   1.164
 8432TIP3    H225261   6.910   5.464   1.198
 8433TIP3   OH225262   0.563   4.466   1.998
 8433TIP3    H125263   0.560   4.500   1.909
 8433TIP3    H225264   0.621   4.526   2.045
 8434TIP3   OH225265   3.784   4.769   3.812
 8434TIP3    H125266   3.743   4.845   3.770
 8434TIP3    H225267   3.732   4.755   3.892
 8435TIP3   OH225268   5.458   3.926   2.087
 8435TIP3    H125269   5.419   3.980   2.156
 8435TIP3    H225270   5.451   3.980   2.008
 8436TIP3   OH225271   0.002   5.421   1.705
 8436TIP3    H125272   0.044   5.364   1.640
 8436TIP3    H225273  -0.064   5.469   1.656
 8437TIP3   OH225274   4.800   2.634   3.833
 8437TIP3    H125275   4.866   2.586   3.885
 8437TIP3    H225276   4.819   2.610   3.743
 8438TIP3   OH225277   7.050   4.400   0.639
 8438TIP3    H125278   7.104   4.332   0.680
 8438TIP3    H225279   7.104   4.479   0.640
 8439TIP3   OH225280   4.609   6.303   1.917
 8439TIP3    H125281   4.543   6.237   1.938
 8439TIP3    H225282   4.564   6.386   1.928
 8440TIP3   OH225283   0.964   0.600   4.807
 8440TIP3    H125284   1.034   0.552   4.851
 8440TIP3    H225285   0.890   0.539   4.807
 8441TIP3   OH225286   0.979   3.916   0.244
 8441TIP3    H125287   0.950   3.950   0.160
 8441TIP3    H225288   0.898   3.895   0.291
 8442TIP3   OH225289   2.192   2.043   3.519
 8442TIP3    H125290   2.163   2.061   3.609
 8442TIP3    H225291   2.229   1.954   3.523
 8443TIP3   OH225292   7.117   0.984   3.217
 8443TIP3    H125293   7.031   0.996   3.257
 8443TIP3    H225294   7.125   1.056   3.154
 8444TIP3   OH225295   5.487   2.305   2.141
 8444TIP3    H125296   5.571   2.315   2.097
 8444TIP3    H225297   5.462   2.214   2.125
 8445TIP3   OH225298   2.572   2.625   3.956
 8445TIP3    H125299   2.577   2.543   3.906
 8445TIP3    H225300   2.526   2.601   4.036
 8446TIP3   OH225301   1.729   3.693   2.263
 8446TIP3    H125302   1.823   3.678   2.248
 8446TIP3    H225303   1.726   3.757   2.334
 8447TIP3   OH225304   6.710   0.548   1.401
 8447TIP3    H125305   6.712   0.538   1.496
 8447TIP3    H225306   6.641   0.488   1.372
 8448TIP3   OH225307   4.151   6.680   5.134
 8448TIP3    H125308   4.162   6.767   5.171
 8448TIP3    H225309   4.235   6.637   5.148
 8449TIP3   OH225310   1.300   3.823   2.163
 8449TIP3    H125311   1.313   3.856   2.075
 8449TIP3    H225312   1.222   3.868   2.195
 8450TIP3   OH225313   0.028   5.338   1.021
 8450TIP3    H125314  -0.021   5.309   1.098
 8450TIP3    H225315   0.118   5.351   1.053
 8451TIP3   OH225316   6.032   3.007   0.414
 8451TIP3    H125317   6.011   3.097   0.391
 8451TIP3    H225318   5.948   2.965   0.430
 8452TIP3   OH225319   3.518   2.534   1.570
 8452TIP3    H125320   3.540   2.543   1.477
 8452TIP3    H225321   3.523   2.623   1.604
 8453TIP3   OH225322   3.609   6.406   4.559
 8453TIP3    H125323   3.608   6.369   4.647
 8453TIP3    H225324   3.690   6.457   4.555
 8454TIP3   OH225325   2.353   3.971   2.038
 8454TIP3    H125326   2.264   3.990   2.066
 8454TIP3    H225327   2.361   3.876   2.046
 8455TIP3   OH225328   0.399   4.012   3.869
 8455TIP3    H125329   0.333   4.081   3.883
 8455TIP3    H225330   0.438   4.033   3.785
 8456TIP3   OH225331   2.609   6.752   3.410
 8456TIP3    H125332   2.667   6.675   3.412
 8456TIP3    H225333   2.521   6.715   3.421
 8457TIP3   OH225334   3.007   0.399   5.651
 8457TIP3    H125335   3.037   0.483   5.686
 8457TIP3    H225336   2.941   0.422   5.586
 8458TIP3   OH225337   1.449   0.790   1.109
 8458TIP3    H125338   1.478   0.746   1.189
 8458TIP3    H225339   1.528   0.803   1.058
 8459TIP3   OH225340   6.238   0.164   1.485
 8459TIP3    H125341   6.162   0.112   1.459
 8459TIP3    H225342   6.311   0.103   1.484
 8460TIP3   OH225343   6.237   4.204   2.008
 8460TIP3    H125344   6.293   4.203   2.085
 8460TIP3    H225345   6.150   4.223   2.042
 8461TIP3   OH225346   7.035   1.553   3.700
 8461TIP3    H125347   7.088   1.625   3.666
 8461TIP3    H225348   6.996   1.588   3.781
 8462TIP3   OH225349   4.194   5.970   2.579
 8462TIP3    H125350   4.165   5.902   2.518
 8462TIP3    H225351   4.139   6.045   2.558
 8463TIP3   OH225352   2.621   0.110   5.671
 8463TIP3    H125353   2.544   0.126   5.616
 8463TIP3    H225354   2.694   0.107   5.610
 8464TIP3   OH225355   1.236   5.712   1.101
 8464TIP3    H125356   1.153   5.699   1.147
 8464TIP3    H225357   1.268   5.796   1.132
 8465TIP3   OH225358   4.409   5.343   4.933
 8465TIP3    H125359   4.356   5.275   4.892
 8465TIP3    H225360   4.383   5.342   5.025
 8466TIP3   OH225361   6.158   6.066   2.927
 8466TIP3    H125362   6.140   6.147   2.880
 8466TIP3    H225363   6.196   6.094   3.010
 8467TIP3   OH225364   6.568   4.561   3.330
 8467TIP3    H125365   6.586   4.574   3.237
 8467TIP3    H225366   6.521   4.640   3.356
 8468TIP3   OH225367   3.969   0.312   3.050
 8468TIP3    H125368   3.882   0.350   3.038
 8468TIP3    H225369   3.965   0.228   3.004
 8469TIP3   OH225370   5.755   4.648   5.786
 8469TIP3    H125371   5.697   4.597   5.843
 8469TIP3    H225372   5.786   4.720   5.841
 8470TIP3   OH225373   4.409   4.832   4.201
 8470TIP3    H125374   4.327   4.786   4.215
 8470TIP3    H225375   4.474   4.779   4.248
 8471TIP3   OH225376   0.458   5.856   1.549
 8471TIP3    H125377   0.407   5.777   1.530
 8471TIP3    H225378   0.547   5.834   1.520
 8472TIP3   OH225379   6.570   2.512   0.432
 8472TIP3    H125380   6.544   2.475   0.347
 8472TIP3    H225381   6.508   2.583   0.447
 8473TIP3   OH225382   6.732   4.879   2.021
 8473TIP3    H125383   6.798   4.944   1.995
 8473TIP3    H225384   6.671   4.877   1.948
 8474TIP3   OH225385   5.564   2.130   5.535
 8474TIP3    H125386   5.545   2.036   5.539
 8474TIP3    H225387   5.478   2.172   5.535
 8475TIP3   OH225388   6.097   1.546   4.878
 8475TIP3    H125389   6.187   1.562   4.908
 8475TIP3    H225390   6.044   1.552   4.957
 8476TIP3   OH225391   7.154   0.313   0.472
 8476TIP3    H125392   7.121   0.251   0.407
 8476TIP3    H225393   7.158   0.263   0.554
 8477TIP3   OH225394   3.858   1.802   2.781
 8477TIP3    H125395   3.795   1.801   2.709
 8477TIP3    H225396   3.836   1.880   2.832
 8478TIP3   OH225397   0.947   3.404   4.857
 8478TIP3    H125398   0.977   3.492   4.834
 8478TIP3    H225399   0.901   3.373   4.778
 8479TIP3   OH225400   1.199   1.689   0.045
 8479TIP3    H125401   1.153   1.636  -0.019
 8479TIP3    H225402   1.155   1.774   0.042
 8480TIP3   OH225403   4.997   2.895   5.267
 8480TIP3    H125404   5.023   2.877   5.177
 8480TIP3    H225405   5.032   2.983   5.286
 8481TIP3   OH225406   6.004   0.627   4.496
 8481TIP3    H125407   6.010   0.625   4.401
 8481TIP3    H225408   6.095   0.632   4.526
 8482TIP3   OH225409   0.886   4.174   1.106
 8482TIP3    H125410   0.898   4.080   1.092
 8482TIP3    H225411   0.799   4.181   1.146
 8483TIP3   OH225412   3.983   5.721   5.541
 8483TIP3    H125413   3.977   5.803   5.492
 8483TIP3    H225414   3.994   5.654   5.473
 8484TIP3   OH225415   5.949   2.353   3.418
 8484TIP3    H125416   5.946   2.423   3.352
 8484TIP3    H225417   6.018   2.380   3.478
 8485TIP3   OH225418   3.868   0.863   0.128
 8485TIP3    H125419   3.960   0.888   0.122
 8485TIP3    H225420   3.857   0.830   0.217
 8486TIP3   OH225421   2.220   4.633   4.280
 8486TIP3    H125422   2.256   4.564   4.223
 8486TIP3    H225423   2.284   4.642   4.350
 8487TIP3   OH225424   0.101   0.417   1.995
 8487TIP3    H125425   0.124   0.499   2.038
 8487TIP3    H225426   0.111   0.434   1.902
 8488TIP3   OH225427   4.776   4.827   4.750
 8488TIP3    H125428   4.820   4.817   4.834
 8488TIP3    H225429   4.701   4.768   4.756
 8489TIP3   OH225430   5.894   6.733   1.905
 8489TIP3    H125431   5.812   6.771   1.873
 8489TIP3    H225432   5.934   6.803   1.957
 8490TIP3   OH225433   5.185   1.884   2.227
 8490TIP3    H125434   5.154   1.841   2.307
 8490TIP3    H225435   5.114   1.869   2.163
 8491TIP3   OH225436   4.752   6.325   4.775
 8491TIP3    H125437   4.661   6.296   4.775
 8491TIP3    H225438   4.763   6.370   4.691
 8492TIP3   OH225439   6.216   2.022   4.013
 8492TIP3    H125440   6.168   2.099   3.985
 8492TIP3    H225441   6.292   2.018   3.955
 8493TIP3   OH225442   5.190   3.554   4.602
 8493TIP3    H125443   5.238   3.629   4.565
 8493TIP3    H225444   5.102   3.563   4.566
 8494TIP3   OH225445   2.288   6.486   1.161
 8494TIP3    H125446   2.354   6.494   1.230
 8494TIP3    H225447   2.314   6.551   1.095
 8495TIP3   OH225448   5.221   1.593   3.663
 8495TIP3    H125449   5.268   1.676   3.676
 8495TIP3    H225450   5.132   1.620   3.640
 8496TIP3   OH225451   2.111   4.831   4.854
 8496TIP3    H125452   2.032   4.864   4.812
 8496TIP3    H225453   2.093   4.738   4.869
 8497TIP3   OH225454   5.556   0.733   0.541
 8497TIP3    H125455   5.607   0.786   0.479
 8497TIP3    H225456   5.522   0.661   0.488
 8498TIP3   OH225457   7.162   2.243   3.317
 8498TIP3    H125458   7.251   2.279   3.315
 8498TIP3    H225459   7.107   2.312   3.279
 8499TIP3   OH225460   1.220   4.919   1.887
 8499TIP3    H125461   1.283   4.847   1.882
 8499TIP3    H225462   1.137   4.877   1.907
 8500TIP3   OH225463   0.128   1.924   5.817
 8500TIP3    H125464   0.062   1.865   5.855
 8500TIP3    H225465   0.084   2.009   5.814
 8501TIP3   OH225466   2.882   5.736   2.797
 8501TIP3    H125467   2.802   5.773   2.835
 8501TIP3    H225468   2.913   5.673   2.862
 8502TIP3   OH225469   0.715   2.252   3.180
 8502TIP3    H125470   0.745   2.254   3.271
 8502TIP3    H225471   0.623   2.226   3.185
 8503TIP3   OH225472   4.164   3.048   0.862
 8503TIP3    H125473   4.167   3.143   0.850
 8503TIP3    H225474   4.130   3.036   0.951
 8504TIP3   OH225475   5.962   5.384   1.447
 8504TIP3    H125476   6.004   5.299   1.459
 8504TIP3    H225477   6.031   5.447   1.468
 8505TIP3   OH225478   3.223   0.663   4.878
 8505TIP3    H125479   3.221   0.578   4.922
 8505TIP3    H225480   3.281   0.716   4.931
 8506TIP3   OH225481   3.389   0.850   5.774
 8506TIP3    H125482   3.296   0.864   5.789
 8506TIP3    H225483   3.425   0.828   5.860
 8507TIP3   OH225484   2.765   2.070   1.227
 8507TIP3    H125485   2.823   2.124   1.174
 8507TIP3    H225486   2.719   2.014   1.164
 8508TIP3   OH225487   0.294   3.962   1.768
 8508TIP3    H125488   0.272   4.052   1.745
 8508TIP3    H225489   0.386   3.952   1.742
 8509TIP3   OH225490   1.793   5.428   3.177
 8509TIP3    H125491   1.884   5.438   3.146
 8509TIP3    H225492   1.801   5.374   3.256
 8510TIP3   OH225493   2.656   4.748   4.843
 8510TIP3    H125494   2.723   4.772   4.778
 8510TIP3    H225495   2.592   4.820   4.839
 8511TIP3   OH225496   4.946   0.822   1.569
 8511TIP3    H125497   5.018   0.879   1.596
 8511TIP3    H225498   4.977   0.733   1.586
 8512TIP3   OH225499   5.714   6.514   1.579
 8512TIP3    H125500   5.789   6.458   1.561
 8512TIP3    H225501   5.724   6.588   1.519
 8513TIP3   OH225502   4.999   3.910   3.216
 8513TIP3    H125503   5.011   3.830   3.166
 8513TIP3    H225504   5.077   3.963   3.197
 8514TIP3   OH225505   3.555   3.243   4.794
 8514TIP3    H125506   3.537   3.149   4.786
 8514TIP3    H225507   3.649   3.247   4.814
 8515TIP3   OH225508   6.069   3.854   3.536
 8515TIP3    H125509   6.093   3.872   3.445
 8515TIP3    H225510   6.076   3.759   3.544
 8516TIP3   OH225511   1.215   5.711   4.093
 8516TIP3    H125512   1.183   5.621   4.092
 8516TIP3    H225513   1.142   5.763   4.059
 8517TIP3   OH225514   5.067   3.933   4.050
 8517TIP3    H125515   5.083   3.988   4.127
 8517TIP3    H225516   4.991   3.880   4.073
 8518TIP3   OH225517   3.010   0.055   1.639
 8518TIP3    H125518   3.104   0.038   1.626
 8518TIP3    H225519   2.986   0.111   1.565
 8519TIP3   OH225520   4.798   5.613   4.672
 8519TIP3    H125521   4.736   5.617   4.745
 8519TIP3    H225522   4.769   5.683   4.613
 8520TIP3   OH225523   5.561   5.108   2.006
 8520TIP3    H125524   5.642   5.091   1.957
 8520TIP3    H225525   5.511   5.027   1.999
 8521TIP3   OH225526   2.682   2.344   4.848
 8521TIP3    H125527   2.692   2.429   4.892
 8521TIP3    H225528   2.633   2.291   4.910
 8522TIP3   OH225529   3.783   6.796   4.327
 8522TIP3    H125530   3.713   6.858   4.348
 8522TIP3    H225531   3.804   6.814   4.235
 8523TIP3   OH225532   5.538   2.767   0.660
 8523TIP3    H125533   5.620   2.772   0.710
 8523TIP3    H225534   5.471   2.794   0.722
 8524TIP3   OH225535   3.354   3.865   2.952
 8524TIP3    H125536   3.370   3.784   2.904
 8524TIP3    H225537   3.339   3.931   2.884
 8525TIP3   OH225538   4.653   2.541   4.117
 8525TIP3    H125539   4.668   2.601   4.190
 8525TIP3    H225540   4.632   2.457   4.158
 8526TIP3   OH225541   2.635   5.245   0.553
 8526TIP3    H125542   2.679   5.162   0.575
 8526TIP3    H225543   2.551   5.218   0.516
 8527TIP3   OH225544   2.353   0.398   2.267
 8527TIP3    H125545   2.431   0.350   2.240
 8527TIP3    H225546   2.362   0.484   2.226
 8528TIP3   OH225547   0.987   3.458   2.355
 8528TIP3    H125548   0.970   3.391   2.421
 8528TIP3    H225549   1.066   3.503   2.387
 8529TIP3   OH225550   0.368   6.256   1.020
 8529TIP3    H125551   0.390   6.220   1.106
 8529TIP3    H225552   0.294   6.314   1.036
 8530TIP3   OH225553   6.125   0.133   2.356
 8530TIP3    H125554   6.221   0.136   2.358
 8530TIP3    H225555   6.103   0.041   2.362
 8531TIP3   OH225556   6.412   5.952   1.966
 8531TIP3    H125557   6.427   6.044   1.985
 8531TIP3    H225558   6.317   5.944   1.957
 8532TIP3   OH225559   0.214   1.965   0.081
 8532TIP3    H125560   0.164   2.014   0.015
 8532TIP3    H225561   0.264   1.901   0.030
 8533TIP3   OH225562   4.980   0.825   0.389
 8533TIP3    H125563   4.964   0.773   0.467
 8533TIP3    H225564   5.061   0.791   0.353
 8534TIP3   OH225565   6.648   4.778   2.423
 8534TIP3    H125566   6.594   4.725   2.365
 8534TIP3    H225567   6.735   4.774   2.385
 8535TIP3   OH225568   4.330   3.657   1.617
 8535TIP3    H125569   4.421   3.632   1.599
 8535TIP3    H225570   4.301   3.594   1.683
 8536TIP3   OH225571   5.024   4.448   3.834
 8536TIP3    H125572   5.073   4.433   3.753
 8536TIP3    H225573   4.999   4.360   3.863
 8537TIP3   OH225574   0.429   3.240   1.989
 8537TIP3    H125575   0.346   3.218   1.946
 8537TIP3    H225576   0.430   3.188   2.069
 8538TIP3   OH225577   4.276   1.997   0.814
 8538TIP3    H125578   4.277   2.088   0.841
 8538TIP3    H225579   4.367   1.969   0.822
 8539TIP3   OH225580   5.675   3.331   0.991
 8539TIP3    H125581   5.612   3.375   0.934
 8539TIP3    H225582   5.715   3.402   1.041
 8540TIP3   OH225583   3.260   0.350   5.536
 8540TIP3    H125584   3.186   0.410   5.538
 8540TIP3    H225585   3.294   0.356   5.447
 8541TIP3   OH225586   4.267   5.995   2.973
 8541TIP3    H125587   4.309   5.913   2.947
 8541TIP3    H225588   4.327   6.063   2.943
 8542TIP3   OH225589   3.112   6.620   2.035
 8542TIP3    H125590   3.097   6.695   2.093
 8542TIP3    H225591   3.207   6.610   2.032
 8543TIP3   OH225592   4.879   0.005   0.609
 8543TIP3    H125593   4.791  -0.017   0.640
 8543TIP3    H225594   4.906   0.078   0.665
 8544TIP3   OH225595   6.052   4.418   5.756
 8544TIP3    H125596   6.110   4.474   5.808
 8544TIP3    H225597   6.002   4.480   5.703
 8545TIP3   OH225598   1.215   2.216   5.562
 8545TIP3    H125599   1.121   2.227   5.544
 8545TIP3    H225600   1.245   2.304   5.585
 8546TIP3   OH225601   5.248   5.341   1.393
 8546TIP3    H125602   5.257   5.267   1.333
 8546TIP3    H225603   5.282   5.310   1.476
 8547TIP3   OH225604   5.482   3.537   0.942
 8547TIP3    H125605   5.415   3.595   0.906
 8547TIP3    H225606   5.554   3.595   0.966
 8548TIP3   OH225607   6.472   1.955   1.742
 8548TIP3    H125608   6.515   2.040   1.742
 8548TIP3    H225609   6.512   1.908   1.669
 8549TIP3   OH225610   6.981   5.879   1.433
 8549TIP3    H125611   6.996   5.926   1.351
 8549TIP3    H225612   7.068   5.851   1.461
 8550TIP3   OH225613   1.740   2.601   0.868
 8550TIP3    H125614   1.741   2.570   0.958
 8550TIP3    H225615   1.747   2.522   0.815
 8551TIP3   OH225616   2.852   6.226   3.845
 8551TIP3    H125617   2.774   6.171   3.844
 8551TIP3    H225618   2.925   6.165   3.833
 8552TIP3   OH225619   4.989   0.180   3.075
 8552TIP3    H125620   4.934   0.239   3.024
 8552TIP3    H225621   4.957   0.093   3.054
 8553TIP3   OH225622   4.009   6.408   3.187
 8553TIP3    H125623   4.042   6.497   3.177
 8553TIP3    H225624   4.030   6.384   3.277
 8554TIP3   OH225625   4.398   3.302   0.574
 8554TIP3    H125626   4.484   3.291   0.614
 8554TIP3    H225627   4.378   3.395   0.585
 8555TIP3   OH225628   6.583   4.727   3.577
 8555TIP3    H125629   6.653   4.745   3.514
 8555TIP3    H225630   6.623   4.670   3.642
 8556TIP3   OH225631   4.478   1.502   5.191
 8556TIP3    H125632   4.401   1.472   5.239
 8556TIP3    H225633   4.520   1.565   5.250
 8557TIP3   OH225634   0.693   0.878   2.567
 8557TIP3    H125635   0.713   0.849   2.656
 8557TIP3    H225636   0.720   0.970   2.565
 8558TIP3   OH225637   3.651   0.680   3.618
 8558TIP3    H125638   3.710   0.718   3.684
 8558TIP3    H225639   3.662   0.586   3.628
 8559TIP3   OH225640   2.021   6.101   1.234
 8559TIP3    H125641   1.961   6.118   1.307
 8559TIP3    H225642   2.087   6.171   1.241
 8560TIP3   OH225643   0.147   1.026   3.467
 8560TIP3    H125644   0.180   1.031   3.556
 8560TIP3    H225645   0.053   1.043   3.476
 8561TIP3   OH225646   2.788   2.859   5.300
 8561TIP3    H125647   2.759   2.797   5.367
 8561TIP3    H225648   2.750   2.826   5.219
 8562TIP3   OH225649   2.391   5.015   3.360
 8562TIP3    H125650   2.401   4.930   3.404
 8562TIP3    H225651   2.312   5.053   3.399
 8563TIP3   OH225652   5.925   1.113   4.661
 8563TIP3    H125653   5.957   1.183   4.604
 8563TIP3    H225654   5.970   1.034   4.631
 8564TIP3   OH225655   0.639   0.292   1.327
 8564TIP3    H125656   0.654   0.311   1.419
 8564TIP3    H225657   0.707   0.227   1.305
 8565TIP3   OH225658   0.393   6.225   3.282
 8565TIP3    H125659   0.420   6.220   3.373
 8565TIP3    H225660   0.312   6.275   3.282
 8566TIP3   OH225661   5.934   2.239   2.765
 8566TIP3    H125662   6.018   2.235   2.718
 8566TIP3    H225663   5.953   2.202   2.851
 8567TIP3   OH225664   1.424   6.365   0.922
 8567TIP3    H125665   1.499   6.423   0.913
 8567TIP3    H225666   1.364   6.391   0.852
 8568TIP3   OH225667   3.777   2.426   5.879
 8568TIP3    H125668   3.807   2.375   5.804
 8568TIP3    H225669   3.688   2.394   5.895
 8569TIP3   OH225670   4.743   0.493   0.520
 8569TIP3    H125671   4.727   0.584   0.546
 8569TIP3    H225672   4.673   0.473   0.458
 8570TIP3   OH225673   3.306   3.040   5.621
 8570TIP3    H125674   3.332   2.952   5.647
 8570TIP3    H225675   3.223   3.055   5.667
 8571TIP3   OH225676   0.330   1.828   2.595
 8571TIP3    H125677   0.368   1.784   2.672
 8571TIP3    H225678   0.251   1.778   2.576
 8572TIP3   OH225679   2.300   5.244   4.505
 8572TIP3    H125680   2.293   5.210   4.594
 8572TIP3    H225681   2.252   5.327   4.507
 8573TIP3   OH225682   3.665   3.408   0.096
 8573TIP3    H125683   3.642   3.315   0.102
 8573TIP3    H225684   3.616   3.440   0.021
 8574TIP3   OH225685   0.398   4.015   2.846
 8574TIP3    H125686   0.464   4.021   2.778
 8574TIP3    H225687   0.320   3.980   2.802
 8575TIP3   OH225688   0.701   1.414   2.368
 8575TIP3    H125689   0.625   1.444   2.319
 8575TIP3    H225690   0.765   1.485   2.359
 8576TIP3   OH225691   5.128   4.837   5.559
 8576TIP3    H125692   5.038   4.805   5.566
 8576TIP3    H225693   5.177   4.784   5.622
 8577TIP3   OH225694   5.366   4.573   3.195
 8577TIP3    H125695   5.389   4.609   3.281
 8577TIP3    H225696   5.276   4.601   3.180
 8578TIP3   OH225697   5.626   3.853   5.411
 8578TIP3    H125698   5.615   3.903   5.331
 8578TIP3    H225699   5.664   3.769   5.382
 8579TIP3   OH225700   2.641   0.495   2.994
 8579TIP3    H125701   2.604   0.425   2.941
 8579TIP3    H225702   2.645   0.459   3.083
 8580TIP3   OH225703   3.177   6.792   2.432
 8580TIP3    H125704   3.097   6.785   2.379
 8580TIP3    H225705   3.213   6.878   2.409
 8581TIP3   OH225706   2.615   5.457   3.231
 8581TIP3    H125707   2.625   5.453   3.135
 8581TIP3    H225708   2.629   5.367   3.260
 8582TIP3   OH225709   0.328   2.504   0.368
 8582TIP3    H125710   0.233   2.509   0.362
 8582TIP3    H225711   0.345   2.451   0.446
 8583TIP3   OH225712   0.122   4.853   0.344
 8583TIP3    H125713   0.070   4.921   0.302
 8583TIP3    H225714   0.196   4.841   0.284
 8584TIP3   OH225715   4.200   3.814   1.831
 8584TIP3    H125716   4.217   3.869   1.908
 8584TIP3    H225717   4.286   3.797   1.794
 8585TIP3   OH225718   3.917   6.770   3.348
 8585TIP3    H125719   3.891   6.763   3.257
 8585TIP3    H225720   3.958   6.856   3.355
 8586TIP3   OH225721   3.687   0.045   3.580
 8586TIP3    H125722   3.737  -0.030   3.611
 8586TIP3    H225723   3.668   0.096   3.659
 8587TIP3   OH225724   2.392   3.222   1.752
 8587TIP3    H125725   2.440   3.305   1.749
 8587TIP3    H225726   2.456   3.156   1.723
 8588TIP3   OH225727   3.055   3.629   0.086
 8588TIP3    H125728   3.027   3.653   0.174
 8588TIP3    H225729   3.026   3.539   0.074
 8589TIP3   OH225730   5.416   1.928   2.663
 8589TIP3    H125731   5.407   1.925   2.758
 8589TIP3    H225732   5.510   1.918   2.647
 8590TIP3   OH225733   4.070   5.769   3.388
 8590TIP3    H125734   4.002   5.703   3.402
 8590TIP3    H225735   4.043   5.813   3.307
 8591TIP3   OH225736   3.434   5.999   2.537
 8591TIP3    H125737   3.384   5.928   2.495
 8591TIP3    H225738   3.521   5.993   2.498
 8592TIP3   OH225739   3.028   2.615   3.059
 8592TIP3    H125740   2.998   2.595   3.148
 8592TIP3    H225741   3.094   2.684   3.071
 8593TIP3   OH225742   1.527   0.080   0.760
 8593TIP3    H125743   1.591   0.039   0.817
 8593TIP3    H225744   1.568   0.082   0.674
 8594TIP3   OH225745   5.499   6.129   5.685
 8594TIP3    H125746   5.500   6.151   5.592
 8594TIP3    H225747   5.425   6.070   5.695
 8595TIP3   OH225748   0.107   6.755   5.864
 8595TIP3    H125749   0.129   6.807   5.942
 8595TIP3    H225750   0.143   6.806   5.791
 8596TIP3   OH225751   6.142   5.964   3.585
 8596TIP3    H125752   6.112   6.034   3.528
 8596TIP3    H225753   6.073   5.954   3.651
 8597TIP3   OH225754   0.242   1.598   4.426
 8597TIP3    H125755   0.238   1.690   4.402
 8597TIP3    H225756   0.292   1.557   4.355
 8598TIP3   OH225757   5.156   3.229   1.744
 8598TIP3    H125758   5.121   3.315   1.720
 8598TIP3    H225759   5.085   3.187   1.792
 8599TIP3   OH225760   6.494   1.036   1.944
 8599TIP3    H125761   6.514   1.055   1.852
 8599TIP3    H225762   6.490   0.940   1.948
 8600TIP3   OH225763   1.137   3.139   1.219
 8600TIP3    H125764   1.183   3.139   1.136
 8600TIP3    H225765   1.049   3.107   1.198
 8601TIP3   OH225766   4.438   2.978   0.835
 8601TIP3    H125767   4.444   2.948   0.926
 8601TIP3    H225768   4.345   2.990   0.820
 8602TIP3   OH225769   1.104   4.302   1.180
 8602TIP3    H125770   1.031   4.241   1.176
 8602TIP3    H225771   1.066   4.386   1.151
 8603TIP3   OH225772   5.528   5.211   5.633
 8603TIP3    H125773   5.496   5.139   5.579
 8603TIP3    H225774   5.609   5.178   5.673
 8604TIP3   OH225775   4.852   3.425   3.229
 8604TIP3    H125776   4.774   3.448   3.177
 8604TIP3    H225777   4.817   3.375   3.303
 8605TIP3   OH225778   5.166   5.191   0.687
 8605TIP3    H125779   5.248   5.142   0.677
 8605TIP3    H225780   5.114   5.165   0.611
 8606TIP3   OH225781   0.529   4.544   2.833
 8606TIP3    H125782   0.494   4.585   2.913
 8606TIP3    H225783   0.568   4.617   2.784
 8607TIP3   OH225784   0.572   6.100   1.598
 8607TIP3    H125785   0.628   6.086   1.674
 8607TIP3    H225786   0.539   6.012   1.576
 8608TIP3   OH225787   2.820   5.846   2.191
 8608TIP3    H125788   2.899   5.883   2.150
 8608TIP3    H225789   2.778   5.797   2.120
 8609TIP3   OH225790   2.561   4.105   4.670
 8609TIP3    H125791   2.617   4.031   4.647
 8609TIP3    H225792   2.498   4.110   4.598
 8610TIP3   OH225793   5.609   5.807   4.290
 8610TIP3    H125794   5.572   5.886   4.251
 8610TIP3    H225795   5.534   5.763   4.330
 8611TIP3   OH225796   0.980   3.864   3.546
 8611TIP3    H125797   0.898   3.909   3.565
 8611TIP3    H225798   0.969   3.830   3.458
 8612TIP3   OH225799   6.566   1.318   5.350
 8612TIP3    H125800   6.500   1.288   5.411
 8612TIP3    H225801   6.649   1.287   5.387
 8613TIP3   OH225802   5.036   3.204   1.147
 8613TIP3    H125803   5.056   3.220   1.239
 8613TIP3    H225804   4.951   3.160   1.148
 8614TIP3   OH225805   6.615   6.586   1.089
 8614TIP3    H125806   6.559   6.538   1.150
 8614TIP3    H225807   6.566   6.586   1.007
 8615TIP3   OH225808   1.055   1.817   2.603
 8615TIP3    H125809   1.127   1.780   2.653
 8615TIP3    H225810   1.005   1.868   2.666
 8616TIP3   OH225811   3.416   1.747   2.401
 8616TIP3    H125812   3.453   1.671   2.357
 8616TIP3    H225813   3.470   1.821   2.372
 8617TIP3   OH225814   0.394   0.466   2.703
 8617TIP3    H125815   0.475   0.435   2.663
 8617TIP3    H225816   0.353   0.520   2.636
 8618TIP3   OH225817   6.939   0.454   3.394
 8618TIP3    H125818   6.959   0.511   3.319
 8618TIP3    H225819   6.900   0.512   3.459
 8619TIP3   OH225820   4.384   1.018   5.292
 8619TIP3    H125821   4.332   1.095   5.314
 8619TIP3    H225822   4.424   0.992   5.375
 8620TIP3   OH225823   4.419   0.151   0.511
 8620TIP3    H125824   4.338   0.101   0.502
 8620TIP3    H225825   4.423   0.174   0.604
 8621TIP3   OH225826   1.033   5.103   4.821
 8621TIP3    H125827   1.046   5.011   4.844
 8621TIP3    H225828   0.944   5.107   4.787
 8622TIP3   OH225829   0.902   3.443   5.578
 8622TIP3    H125830   0.881   3.350   5.565
 8622TIP3    H225831   0.943   3.447   5.664
 8623TIP3   OH225832   1.050   4.749   0.499
 8623TIP3    H125833   0.984   4.736   0.567
 8623TIP3    H225834   1.014   4.819   0.444
 8624TIP3   OH225835   3.770   0.451   1.732
 8624TIP3    H125836   3.768   0.458   1.827
 8624TIP3    H225837   3.817   0.370   1.714
 8625TIP3   OH225838   0.590   0.703   4.206
 8625TIP3    H125839   0.599   0.761   4.131
 8625TIP3    H225840   0.524   0.745   4.262
 8626TIP3   OH225841   1.391   5.679   0.240
 8626TIP3    H125842   1.410   5.772   0.231
 8626TIP3    H225843   1.354   5.654   0.155
 8627TIP3   OH225844   1.742   1.841   0.625
 8627TIP3    H125845   1.726   1.932   0.647
 8627TIP3    H225846   1.805   1.845   0.552
 8628TIP3   OH225847   2.855   1.863   3.917
 8628TIP3    H125848   2.838   1.770   3.909
 8628TIP3    H225849   2.946   1.869   3.945
 8629TIP3   OH225850   0.312   1.514   0.908
 8629TIP3    H125851   0.285   1.590   0.856
 8629TIP3    H225852   0.312   1.442   0.845
 8630TIP3   OH225853   4.067   2.630   3.579
 8630TIP3    H125854   4.066   2.711   3.528
 8630TIP3    H225855   4.063   2.659   3.670
 8631TIP3   OH225856   2.216   3.342   4.094
 8631TIP3    H125857   2.200   3.247   4.093
 8631TIP3    H225858   2.207   3.369   4.003
 8632TIP3   OH225859   5.677   5.119   0.638
 8632TIP3    H125860   5.688   5.205   0.596
 8632TIP3    H225861   5.741   5.063   0.595
 8633TIP3   OH225862   5.379   3.376   1.148
 8633TIP3    H125863   5.436   3.416   1.083
 8633TIP3    H225864   5.436   3.360   1.223
 8634TIP3   OH225865   6.615   3.810   0.726
 8634TIP3    H125866   6.639   3.760   0.648
 8634TIP3    H225867   6.589   3.896   0.692
 8635TIP3   OH225868   5.245   1.396   3.860
 8635TIP3    H125869   5.239   1.473   3.804
 8635TIP3    H225870   5.163   1.396   3.910
 8636TIP3   OH225871   1.110   4.678   5.711
 8636TIP3    H125872   1.063   4.631   5.779
 8636TIP3    H225873   1.187   4.624   5.693
 8637TIP3   OH225874   2.765   2.813   3.137
 8637TIP3    H125875   2.728   2.746   3.194
 8637TIP3    H225876   2.720   2.801   3.053
 8638TIP3   OH225877   2.064   0.730   1.458
 8638TIP3    H125878   1.974   0.747   1.485
 8638TIP3    H225879   2.090   0.653   1.509
 8639TIP3   OH225880   4.739   1.008   4.011
 8639TIP3    H125881   4.741   1.016   4.106
 8639TIP3    H225882   4.831   0.996   3.986
 8640TIP3   OH225883   5.777   1.727   3.911
 8640TIP3    H125884   5.857   1.771   3.941
 8640TIP3    H225885   5.749   1.675   3.986
 8641TIP3   OH225886   6.042   1.908   4.338
 8641TIP3    H125887   6.098   1.985   4.324
 8641TIP3    H225888   5.953   1.941   4.329
 8642TIP3   OH225889   7.047   3.114   5.373
 8642TIP3    H125890   7.006   3.154   5.449
 8642TIP3    H225891   7.141   3.128   5.386
 8643TIP3   OH225892   5.756   4.760   2.911
 8643TIP3    H125893   5.735   4.853   2.912
 8643TIP3    H225894   5.672   4.716   2.921
 8644TIP3   OH225895   4.195   4.904   3.518
 8644TIP3    H125896   4.125   4.910   3.583
 8644TIP3    H225897   4.276   4.914   3.568
 8645TIP3   OH225898   0.497   3.244   5.060
 8645TIP3    H125899   0.457   3.317   5.107
 8645TIP3    H225900   0.588   3.243   5.090
 8646TIP3   OH225901   3.857   0.635   4.678
 8646TIP3    H125902   3.949   0.660   4.687
 8646TIP3    H225903   3.809   0.704   4.725
 8647TIP3   OH225904   6.044   4.524   3.887
 8647TIP3    H125905   6.115   4.486   3.834
 8647TIP3    H225906   6.026   4.609   3.846
 8648TIP3   OH225907   1.945   5.739   5.330
 8648TIP3    H125908   1.901   5.810   5.283
 8648TIP3    H225909   1.897   5.731   5.412
 8649TIP3   OH225910   4.687   1.063   4.962
 8649TIP3    H125911   4.699   0.969   4.947
 8649TIP3    H225912   4.652   1.097   4.880
 8650TIP3   OH225913   3.631   5.119   2.697
 8650TIP3    H125914   3.556   5.064   2.674
 8650TIP3    H225915   3.695   5.101   2.628
 8651TIP3   OH225916   1.256   0.840   0.932
 8651TIP3    H125917   1.186   0.809   0.990
 8651TIP3    H225918   1.337   0.815   0.978
 8652TIP3   OH225919   5.336   6.538   5.140
 8652TIP3    H125920   5.265   6.476   5.125
 8652TIP3    H225921   5.349   6.580   5.055
 8653TIP3   OH225922   3.004   0.628   4.373
 8653TIP3    H125923   2.967   0.701   4.423
 8653TIP3    H225924   2.957   0.551   4.405
 8654TIP3   OH225925   5.431   1.295   1.068
 8654TIP3    H125926   5.362   1.248   1.114
 8654TIP3    H225927   5.435   1.253   0.982
 8655TIP3   OH225928   3.870   5.113   2.513
 8655TIP3    H125929   3.959   5.094   2.483
 8655TIP3    H225930   3.873   5.096   2.608
 8656TIP3   OH225931   2.994   4.986   2.141
 8656TIP3    H125932   2.964   4.898   2.119
 8656TIP3    H225933   3.042   4.975   2.223
 8657TIP3   OH225934   2.705   2.088   4.725
 8657TIP3    H125935   2.664   2.175   4.722
 8657TIP3    H225936   2.710   2.067   4.818
 8658TIP3   OH225937   5.346   3.688   0.498
 8658TIP3    H125938   5.396   3.654   0.424
 8658TIP3    H225939   5.314   3.773   0.467
 8659TIP3   OH225940   2.037   4.113   5.672
 8659TIP3    H125941   2.004   4.127   5.583
 8659TIP3    H225942   2.128   4.084   5.660
 8660TIP3   OH225943   6.966   0.825   2.446
 8660TIP3    H125944   6.971   0.848   2.354
 8660TIP3    H225945   6.918   0.742   2.447
 8661TIP3   OH225946   6.184   0.997   4.327
 8661TIP3    H125947   6.166   0.969   4.417
 8661TIP3    H225948   6.112   1.057   4.305
 8662TIP3   OH225949   1.227   6.552   1.927
 8662TIP3    H125950   1.191   6.465   1.943
 8662TIP3    H225951   1.321   6.543   1.946
 8663TIP3   OH225952   2.750   4.439   0.235
 8663TIP3    H125953   2.763   4.520   0.284
 8663TIP3    H225954   2.656   4.423   0.239
 8664TIP3   OH225955   2.523   2.162   1.734
 8664TIP3    H125956   2.608   2.169   1.691
 8664TIP3    H225957   2.484   2.082   1.698
 8665TIP3   OH225958   6.002   1.471   3.933
 8665TIP3    H125959   6.070   1.464   3.867
 8665TIP3    H225960   5.995   1.565   3.950
 8666TIP3   OH225961   4.209   1.590   0.335
 8666TIP3    H125962   4.154   1.552   0.403
 8666TIP3    H225963   4.289   1.617   0.382
 8667TIP3   OH225964   6.733   5.497   0.620
 8667TIP3    H125965   6.708   5.497   0.528
 8667TIP3    H225966   6.663   5.448   0.664
 8668TIP3   OH225967   6.843   1.178   5.473
 8668TIP3    H125968   6.931   1.145   5.458
 8668TIP3    H225969   6.853   1.247   5.538
 8669TIP3   OH225970   6.998   5.151   4.282
 8669TIP3    H125971   6.936   5.140   4.354
 8669TIP3    H225972   7.043   5.233   4.302
 8670TIP3   OH225973   6.753   0.382   0.791
 8670TIP3    H125974   6.826   0.343   0.837
 8670TIP3    H225975   6.717   0.311   0.738
 8671TIP3   OH225976   4.791   1.328   4.260
 8671TIP3    H125977   4.876   1.287   4.243
 8671TIP3    H225978   4.759   1.355   4.174
 8672TIP3   OH225979   5.105   0.015   3.700
 8672TIP3    H125980   5.162  -0.055   3.668
 8672TIP3    H225981   5.156   0.095   3.688
 8673TIP3   OH225982   4.882   6.468   4.571
 8673TIP3    H125983   4.859   6.535   4.506
 8673TIP3    H225984   4.925   6.399   4.520
 8674TIP3   OH225985   6.088   0.761   2.694
 8674TIP3    H125986   6.146   0.836   2.679
 8674TIP3    H225987   6.030   0.790   2.764
 8675TIP3   OH225988   5.452   5.160   0.109
 8675TIP3    H125989   5.414   5.077   0.139
 8675TIP3    H225990   5.536   5.135   0.071
 8676TIP3   OH225991   0.294   3.366   4.858
 8676TIP3    H125992   0.210   3.387   4.899
 8676TIP3    H225993   0.358   3.370   4.929
 8677TIP3   OH225994   0.298   2.743   4.693
 8677TIP3    H125995   0.302   2.802   4.618
 8677TIP3    H225996   0.277   2.799   4.767
 8678TIP3   OH225997   2.863   4.722   3.682
 8678TIP3    H125998   2.922   4.647   3.674
 8678TIP3    H225999   2.854   4.755   3.592
 8679TIP3   OH226000   2.159   3.051   4.098
 8679TIP3    H126001   2.073   3.060   4.057
 8679TIP3    H226002   2.216   3.022   4.027
 8680TIP3   OH226003   4.945   5.409   1.797
 8680TIP3    H126004   5.030   5.364   1.799
 8680TIP3    H226005   4.936   5.440   1.707
 8681TIP3   OH226006   5.799   4.451   4.009
 8681TIP3    H126007   5.887   4.483   3.988
 8681TIP3    H226008   5.766   4.513   4.075
 8682TIP3   OH226009   2.371   4.944   5.887
 8682TIP3    H126010   2.369   4.967   5.794
 8682TIP3    H226011   2.432   4.870   5.892
 8683TIP3   OH226012   7.201   1.784   1.254
 8683TIP3    H126013   7.253   1.718   1.208
 8683TIP3    H226014   7.261   1.858   1.265
 8684TIP3   OH226015   2.815   1.042   0.504
 8684TIP3    H126016   2.823   1.104   0.431
 8684TIP3    H226017   2.792   0.959   0.462
 8685TIP3   OH226018   5.753   4.044   2.173
 8685TIP3    H126019   5.767   4.059   2.266
 8685TIP3    H226020   5.675   3.990   2.168
 8686TIP3   OH226021   1.436   4.827   5.828
 8686TIP3    H126022   1.435   4.831   5.924
 8686TIP3    H226023   1.505   4.764   5.807
 8687TIP3   OH226024   4.469   3.099   1.897
 8687TIP3    H126025   4.513   3.172   1.940
 8687TIP3    H226026   4.462   3.031   1.964
 8688TIP3   OH226027   0.609   0.810   4.572
 8688TIP3    H126028   0.643   0.835   4.486
 8688TIP3    H226029   0.603   0.892   4.621
 8689TIP3   OH226030   6.017   4.808   2.846
 8689TIP3    H126031   5.925   4.796   2.867
 8689TIP3    H226032   6.060   4.730   2.880
 8690TIP3   OH226033   6.324   5.904   2.427
 8690TIP3    H126034   6.356   5.962   2.496
 8690TIP3    H226035   6.235   5.932   2.411
 8691TIP3   OH226036   1.854   0.136   5.297
 8691TIP3    H126037   1.784   0.146   5.362
 8691TIP3    H226038   1.831   0.056   5.249
 8692TIP3   OH226039   2.217   4.734   0.600
 8692TIP3    H126040   2.130   4.714   0.635
 8692TIP3    H226041   2.223   4.830   0.603
 8693TIP3   OH226042   4.615   5.044   3.579
 8693TIP3    H126043   4.543   4.982   3.590
 8693TIP3    H226044   4.694   4.990   3.583
 8694TIP3   OH226045   2.410   5.925   2.072
 8694TIP3    H126046   2.316   5.914   2.090
 8694TIP3    H226047   2.453   5.881   2.146
 8695TIP3   OH226048   0.597   6.393   3.119
 8695TIP3    H126049   0.553   6.326   3.171
 8695TIP3    H226050   0.596   6.358   3.029
 8696TIP3   OH226051   3.765   5.761   1.485
 8696TIP3    H126052   3.753   5.843   1.438
 8696TIP3    H226053   3.778   5.696   1.416
 8697TIP3   OH226054   2.418   6.480   1.811
 8697TIP3    H126055   2.385   6.520   1.730
 8697TIP3    H226056   2.443   6.391   1.785
 8698TIP3   OH226057   6.849   3.073   5.699
 8698TIP3    H126058   6.871   3.144   5.639
 8698TIP3    H226059   6.786   3.112   5.760
 8699TIP3   OH226060   4.690   4.738   2.222
 8699TIP3    H126061   4.645   4.716   2.140
 8699TIP3    H226062   4.679   4.661   2.277
 8700TIP3   OH226063   5.819   0.195   2.248
 8700TIP3    H126064   5.876   0.222   2.320
 8700TIP3    H226065   5.875   0.198   2.170
 8701TIP3   OH226066   2.669   3.277   0.905
 8701TIP3    H126067   2.741   3.238   0.955
 8701TIP3    H226068   2.593   3.272   0.963
 8702TIP3   OH226069   6.250   1.517   1.362
 8702TIP3    H126070   6.330   1.467   1.349
 8702TIP3    H226071   6.278   1.597   1.407
 8703TIP3   OH226072   0.440   2.318   0.564
 8703TIP3    H126073   0.498   2.320   0.488
 8703TIP3    H226074   0.492   2.355   0.636
 8704TIP3   OH226075   1.158   6.734   3.359
 8704TIP3    H126076   1.195   6.745   3.446
 8704TIP3    H226077   1.103   6.811   3.346
 8705TIP3   OH226078   3.467   3.168   1.452
 8705TIP3    H126079   3.554   3.199   1.476
 8705TIP3    H226080   3.474   3.146   1.359
 8706TIP3   OH226081   0.982   3.278   3.806
 8706TIP3    H126082   0.926   3.303   3.733
 8706TIP3    H226083   0.922   3.259   3.878
 8707TIP3   OH226084   4.315   2.782   4.119
 8707TIP3    H126085   4.240   2.729   4.091
 8707TIP3    H226086   4.325   2.762   4.212
 8708TIP3   OH226087   2.700   6.024   4.905
 8708TIP3    H126088   2.725   6.103   4.953
 8708TIP3    H226089   2.730   5.952   4.960
 8709TIP3   OH226090   1.713   2.528   2.801
 8709TIP3    H126091   1.728   2.584   2.877
 8709TIP3    H226092   1.622   2.544   2.777
 8710TIP3   OH226093   3.882   0.676   3.814
 8710TIP3    H126094   3.905   0.729   3.890
 8710TIP3    H226095   3.802   0.629   3.839
 8711TIP3   OH226096   2.289   3.886   3.602
 8711TIP3    H126097   2.261   3.927   3.521
 8711TIP3    H226098   2.383   3.902   3.606
 8712TIP3   OH226099   1.166   6.619   4.330
 8712TIP3    H126100   1.088   6.674   4.334
 8712TIP3    H226101   1.205   6.625   4.418
 8713TIP3   OH226102   4.771   3.402   3.990
 8713TIP3    H126103   4.703   3.468   3.983
 8713TIP3    H226104   4.854   3.451   3.985
 8714TIP3   OH226105   3.701   3.819   3.806
 8714TIP3    H126106   3.666   3.772   3.730
 8714TIP3    H226107   3.625   3.864   3.844
 8715TIP3   OH226108   0.989   6.304   1.304
 8715TIP3    H126109   0.914   6.360   1.287
 8715TIP3    H226110   1.047   6.317   1.229
 8716TIP3   OH226111   2.479   3.736   0.083
 8716TIP3    H126112   2.421   3.757   0.155
 8716TIP3    H226113   2.481   3.815   0.029
 8717TIP3   OH226114   1.858   4.000   5.460
 8717TIP3    H126115   1.790   4.021   5.524
 8717TIP3    H226116   1.810   3.970   5.383
 8718TIP3   OH226117   6.307   5.159   5.890
 8718TIP3    H126118   6.229   5.211   5.873
 8718TIP3    H226119   6.354   5.157   5.807
 8719TIP3   OH226120   0.442   4.708   0.387
 8719TIP3    H126121   0.526   4.749   0.368
 8719TIP3    H226122   0.391   4.720   0.307
 8720TIP3   OH226123   4.995   0.258   3.346
 8720TIP3    H126124   4.967   0.243   3.256
 8720TIP3    H226125   4.999   0.171   3.385
 8721TIP3   OH226126   5.418   1.439   5.478
 8721TIP3    H126127   5.507   1.456   5.445
 8721TIP3    H226128   5.421   1.468   5.569
 8722TIP3   OH226129   0.122   0.732   1.607
 8722TIP3    H126130   0.188   0.771   1.550
 8722TIP3    H226131   0.040   0.775   1.581
 8723TIP3   OH226132   3.597   3.860   3.375
 8723TIP3    H126133   3.539   3.786   3.391
 8723TIP3    H226134   3.671   3.846   3.434
 8724TIP3   OH226135   6.684   5.653   4.656
 8724TIP3    H126136   6.694   5.734   4.706
 8724TIP3    H226137   6.658   5.682   4.568
 8725TIP3   OH226138   1.476   4.184   4.088
 8725TIP3    H126139   1.526   4.236   4.025
 8725TIP3    H226140   1.402   4.151   4.038
 8726TIP3   OH226141   1.176   6.174   0.549
 8726TIP3    H126142   1.167   6.140   0.459
 8726TIP3    H226143   1.217   6.102   0.597
 8727TIP3   OH226144   5.139   3.239   2.142
 8727TIP3    H126145   5.108   3.161   2.188
 8727TIP3    H226146   5.101   3.231   2.054
 8728TIP3   OH226147   0.555   4.681   5.174
 8728TIP3    H126148   0.584   4.713   5.259
 8728TIP3    H226149   0.464   4.654   5.188
 8729TIP3   OH226150   7.074   3.017   4.272
 8729TIP3    H126151   7.050   3.109   4.260
 8729TIP3    H226152   7.092   3.008   4.365
 8730TIP3   OH226153   3.095   4.195   1.235
 8730TIP3    H126154   3.093   4.279   1.189
 8730TIP3    H226155   3.124   4.217   1.324
 8731TIP3   OH226156   2.310   4.538   1.386
 8731TIP3    H126157   2.228   4.586   1.402
 8731TIP3    H226158   2.288   4.478   1.315
 8732TIP3   OH226159   4.000   2.523   2.499
 8732TIP3    H126160   3.923   2.556   2.454
 8732TIP3    H226161   4.074   2.564   2.453
 8733TIP3   OH226162   7.150   3.004   4.894
 8733TIP3    H126163   7.097   2.998   4.973
 8733TIP3    H226164   7.107   2.945   4.832
 8734TIP3   OH226165   0.905   4.357   5.210
 8734TIP3    H126166   0.883   4.397   5.294
 8734TIP3    H226167   0.904   4.430   5.148
 8735TIP3   OH226168   5.534   6.585   5.484
 8735TIP3    H126169   5.522   6.497   5.448
 8735TIP3    H226170   5.480   6.642   5.430
 8736TIP3   OH226171   4.451   2.474   1.573
 8736TIP3    H126172   4.538   2.456   1.537
 8736TIP3    H226173   4.403   2.392   1.564
 8737TIP3   OH226174   6.324   6.745   1.093
 8737TIP3    H126175   6.402   6.774   1.045
 8737TIP3    H226176   6.318   6.651   1.073
 8738TIP3   OH226177   4.618   2.142   2.317
 8738TIP3    H126178   4.564   2.145   2.239
 8738TIP3    H226179   4.706   2.164   2.286
 8739TIP3   OH226180   4.846   5.828   1.350
 8739TIP3    H126181   4.940   5.827   1.370
 8739TIP3    H226182   4.803   5.803   1.431
 8740TIP3   OH226183   2.059   3.617   3.445
 8740TIP3    H126184   2.131   3.654   3.394
 8740TIP3    H226185   2.032   3.686   3.504
 8741TIP3   OH226186   0.498   5.295   3.197
 8741TIP3    H126187   0.576   5.242   3.215
 8741TIP3    H226188   0.455   5.250   3.124
 8742TIP3   OH226189   5.113   3.518   3.171
 8742TIP3    H126190   5.029   3.499   3.211
 8742TIP3    H226191   5.111   3.472   3.087
 8743TIP3   OH226192   3.089   0.344   2.210
 8743TIP3    H126193   3.113   0.351   2.117
 8743TIP3    H226194   3.087   0.250   2.228
 8744TIP3   OH226195   4.383   5.558   4.055
 8744TIP3    H126196   4.323   5.515   3.994
 8744TIP3    H226197   4.407   5.640   4.011
 8745TIP3   OH226198   2.184   4.671   3.573
 8745TIP3    H126199   2.196   4.666   3.667
 8745TIP3    H226200   2.126   4.598   3.552
 8746TIP3   OH226201   4.343   2.411   3.481
 8746TIP3    H126202   4.415   2.357   3.514
 8746TIP3    H226203   4.278   2.410   3.551
 8747TIP3   OH226204   1.447   2.463   0.610
 8747TIP3    H126205   1.410   2.547   0.582
 8747TIP3    H226206   1.372   2.405   0.617
 8748TIP3   OH226207   2.413   4.973   0.327
 8748TIP3    H126208   2.401   5.059   0.368
 8748TIP3    H226209   2.503   4.974   0.294
 8749TIP3   OH226210   4.650   5.149   2.116
 8749TIP3    H126211   4.566   5.108   2.098
 8749TIP3    H226212   4.677   5.188   2.033
 8750TIP3   OH226213   6.683   3.346   2.590
 8750TIP3    H126214   6.603   3.355   2.642
 8750TIP3    H226215   6.735   3.423   2.614
 8751TIP3   OH226216   1.930   6.056   3.891
 8751TIP3    H126217   1.919   5.968   3.855
 8751TIP3    H226218   2.012   6.053   3.939
 8752TIP3   OH226219   0.727   4.257   2.123
 8752TIP3    H126220   0.807   4.305   2.143
 8752TIP3    H226221   0.669   4.323   2.085
 8753TIP3   OH226222   5.731   1.567   2.763
 8753TIP3    H126223   5.768   1.618   2.835
 8753TIP3    H226224   5.636   1.577   2.772
 8754TIP3   OH226225   2.051   0.145   5.485
 8754TIP3    H126226   1.996   0.127   5.409
 8754TIP3    H226227   2.088   0.232   5.468
 8755TIP3   OH226228   6.150   0.933   4.607
 8755TIP3    H126229   6.220   0.985   4.647
 8755TIP3    H226230   6.137   0.860   4.667
 8756TIP3   OH226231   2.982   6.452   1.004
 8756TIP3    H126232   2.920   6.398   1.053
 8756TIP3    H226233   2.960   6.436   0.912
 8757TIP3   OH226234   0.053   5.939   4.526
 8757TIP3    H126235  -0.040   5.922   4.542
 8757TIP3    H226236   0.059   5.958   4.433
 8758TIP3   OH226237   1.408   6.572   3.450
 8758TIP3    H126238   1.426   6.491   3.498
 8758TIP3    H226239   1.433   6.552   3.359
 8759TIP3   OH226240   0.835   0.891   3.258
 8759TIP3    H126241   0.828   0.874   3.164
 8759TIP3    H226242   0.766   0.838   3.297
 8760TIP3   OH226243   2.167   1.733   4.612
 8760TIP3    H126244   2.256   1.713   4.639
 8760TIP3    H226245   2.172   1.821   4.575
 8761TIP3   OH226246   6.247   3.032   1.389
 8761TIP3    H126247   6.310   3.102   1.368
 8761TIP3    H226248   6.253   3.023   1.484
 8762TIP3   OH226249   0.647   0.792   5.658
 8762TIP3    H126250   0.579   0.785   5.725
 8762TIP3    H226251   0.729   0.794   5.708
 8763TIP3   OH226252   5.688   3.858   4.765
 8763TIP3    H126253   5.642   3.942   4.770
 8763TIP3    H226254   5.619   3.793   4.759
 8764TIP3   OH226255   0.079   3.258   2.983
 8764TIP3    H126256   0.137   3.320   3.028
 8764TIP3    H226257   0.085   3.178   3.035
 8765TIP3   OH226258   3.923   6.276   5.736
 8765TIP3    H126259   3.942   6.255   5.644
 8765TIP3    H226260   3.933   6.192   5.781
 8766TIP3   OH226261   5.091   3.833   0.420
 8766TIP3    H126262   5.010   3.880   0.403
 8766TIP3    H226263   5.160   3.899   0.407
 8767TIP3   OH226264   2.913   0.191   2.753
 8767TIP3    H126265   2.952   0.169   2.668
 8767TIP3    H226266   2.840   0.249   2.731
 8768TIP3   OH226267   6.637   0.790   1.702
 8768TIP3    H126268   6.652   0.815   1.611
 8768TIP3    H226269   6.543   0.804   1.715
 8769TIP3   OH226270   3.211   3.050   1.447
 8769TIP3    H126271   3.246   2.962   1.430
 8769TIP3    H226272   3.287   3.106   1.453
 8770TIP3   OH226273   3.404   4.133   1.497
 8770TIP3    H126274   3.401   4.070   1.426
 8770TIP3    H226275   3.497   4.155   1.507
 8771TIP3   OH226276   4.254   3.434   4.549
 8771TIP3    H126277   4.320   3.502   4.563
 8771TIP3    H226278   4.192   3.473   4.487
 8772TIP3   OH226279   0.009   4.693   5.384
 8772TIP3    H126280  -0.013   4.702   5.291
 8772TIP3    H226281  -0.075   4.677   5.427
 8773TIP3   OH226282   4.946   3.647   0.009
 8773TIP3    H126283   4.932   3.742  -0.002
 8773TIP3    H226284   4.985   3.619  -0.074
 8774TIP3   OH226285   5.125   3.560   5.352
 8774TIP3    H126286   5.206   3.580   5.306
 8774TIP3    H226287   5.056   3.574   5.287
 8775TIP3   OH226288   6.240   1.224   1.324
 8775TIP3    H126289   6.229   1.151   1.263
 8775TIP3    H226290   6.250   1.301   1.268
 8776TIP3   OH226291   0.724   6.009   3.866
 8776TIP3    H126292   0.782   6.075   3.827
 8776TIP3    H226293   0.749   5.927   3.823
 8777TIP3   OH226294   2.968   5.998   1.171
 8777TIP3    H126295   2.898   5.973   1.232
 8777TIP3    H226296   2.922   6.030   1.093
 8778TIP3   OH226297   0.572   2.898   1.403
 8778TIP3    H126298   0.604   2.928   1.318
 8778TIP3    H226299   0.634   2.831   1.430
 8779TIP3   OH226300   3.863   1.949   4.154
 8779TIP3    H126301   3.779   1.979   4.119
 8779TIP3    H226302   3.858   1.970   4.248
 8780TIP3   OH226303   0.717   2.335   2.244
 8780TIP3    H126304   0.650   2.275   2.276
 8780TIP3    H226305   0.671   2.389   2.179
 8781TIP3   OH226306   1.906   4.176   4.574
 8781TIP3    H126307   1.955   4.195   4.654
 8781TIP3    H226308   1.937   4.090   4.546
 8782TIP3   OH226309   0.717   0.865   5.390
 8782TIP3    H126310   0.760   0.950   5.404
 8782TIP3    H226311   0.707   0.829   5.478
 8783TIP3   OH226312   2.211   4.008   4.359
 8783TIP3    H126313   2.138   4.009   4.297
 8783TIP3    H226314   2.287   4.033   4.306
 8784TIP3   OH226315   6.905   3.815   1.339
 8784TIP3    H126316   6.920   3.760   1.416
 8784TIP3    H226317   6.811   3.805   1.321
 8785TIP3   OH226318   0.626   5.554   3.460
 8785TIP3    H126319   0.550   5.587   3.506
 8785TIP3    H226320   0.593   5.482   3.406
 8786TIP3   OH226321   5.048   1.158   2.928
 8786TIP3    H126322   5.007   1.104   2.861
 8786TIP3    H226323   4.991   1.234   2.936
 8787TIP3   OH226324   1.148   3.327   0.585
 8787TIP3    H126325   1.234   3.361   0.607
 8787TIP3    H226326   1.165   3.243   0.541
 8788TIP3   OH226327   2.101   3.904   1.792
 8788TIP3    H126328   2.171   3.891   1.728
 8788TIP3    H226329   2.020   3.889   1.743
 8789TIP3   OH226330   0.848   0.091   1.915
 8789TIP3    H126331   0.786   0.155   1.949
 8789TIP3    H226332   0.861   0.029   1.987
 8790TIP3   OH226333   0.409   5.493   4.012
 8790TIP3    H126334   0.379   5.411   4.052
 8790TIP3    H226335   0.339   5.516   3.950
 8791TIP3   OH226336   1.306   3.714   0.911
 8791TIP3    H126337   1.353   3.765   0.978
 8791TIP3    H226338   1.278   3.634   0.957
 8792TIP3   OH226339   5.625   6.100   1.799
 8792TIP3    H126340   5.717   6.105   1.771
 8792TIP3    H226341   5.591   6.188   1.784
 8793TIP3   OH226342   5.549   2.864   5.539
 8793TIP3    H126343   5.577   2.936   5.596
 8793TIP3    H226344   5.454   2.859   5.551
 8794TIP3   OH226345   1.672   0.953   0.943
 8794TIP3    H126346   1.732   1.004   0.998
 8794TIP3    H226347   1.611   1.017   0.908
 8795TIP3   OH226348   6.633   4.137   0.706
 8795TIP3    H126349   6.603   4.228   0.701
 8795TIP3    H226350   6.659   4.126   0.797
 8796TIP3   OH226351   2.405   4.145   3.787
 8796TIP3    H126352   2.453   4.090   3.724
 8796TIP3    H226353   2.427   4.235   3.763
 8797TIP3   OH226354   3.257   0.588   4.563
 8797TIP3    H126355   3.162   0.587   4.562
 8797TIP3    H226356   3.280   0.674   4.597
 8798TIP3   OH226357   6.645   6.167   2.497
 8798TIP3    H126358   6.560   6.137   2.531
 8798TIP3    H226359   6.681   6.090   2.452
 8799TIP3   OH226360   3.775   1.763   1.760
 8799TIP3    H126361   3.704   1.785   1.821
 8799TIP3    H226362   3.768   1.669   1.748
 8800TIP3   OH226363   4.257   6.040   1.234
 8800TIP3    H126364   4.201   5.974   1.275
 8800TIP3    H226365   4.285   6.097   1.306
 8801TIP3   OH226366   1.058   6.413   2.204
 8801TIP3    H126367   1.026   6.383   2.118
 8801TIP3    H226368   1.125   6.349   2.228
 8802TIP3   OH226369   6.187   5.876   1.574
 8802TIP3    H126370   6.112   5.826   1.541
 8802TIP3    H226371   6.264   5.825   1.547
 8803TIP3   OH226372   0.201   4.575   1.851
 8803TIP3    H126373   0.147   4.630   1.907
 8803TIP3    H226374   0.275   4.631   1.826
 8804TIP3   OH226375   0.326   2.869   0.475
 8804TIP3    H126376   0.281   2.915   0.545
 8804TIP3    H226377   0.392   2.816   0.520
 8805TIP3   OH226378   4.200   4.175   1.166
 8805TIP3    H126379   4.164   4.252   1.122
 8805TIP3    H226380   4.142   4.161   1.241
 8806TIP3   OH226381   4.445   3.177   0.330
 8806TIP3    H126382   4.413   3.229   0.404
 8806TIP3    H226383   4.511   3.119   0.368
 8807TIP3   OH226384   4.643   6.630   1.451
 8807TIP3    H126385   4.714   6.630   1.516
 8807TIP3    H226386   4.687   6.632   1.367
 8808TIP3   OH226387   5.719   6.264   4.790
 8808TIP3    H126388   5.634   6.249   4.749
 8808TIP3    H226389   5.743   6.180   4.827
 8809TIP3   OH226390   2.647   2.566   5.817
 8809TIP3    H126391   2.657   2.661   5.807
 8809TIP3    H226392   2.589   2.540   5.745
 8810TIP3   OH226393   0.858   0.922   4.416
 8810TIP3    H126394   0.891   0.979   4.486
 8810TIP3    H226395   0.897   0.957   4.336
 8811TIP3   OH226396   4.949   3.497   2.596
 8811TIP3    H126397   5.027   3.442   2.609
 8811TIP3    H226398   4.962   3.535   2.509
 8812TIP3   OH226399   5.295   2.910   5.648
 8812TIP3    H126400   5.280   2.893   5.741
 8812TIP3    H226401   5.246   2.842   5.602
 8813TIP3   OH226402   5.187   1.272   0.500
 8813TIP3    H126403   5.206   1.204   0.564
 8813TIP3    H226404   5.204   1.355   0.545
 8814TIP3   OH226405   6.929   1.135   0.899
 8814TIP3    H126406   6.991   1.167   0.964
 8814TIP3    H226407   6.959   1.047   0.877
 8815TIP3   OH226408   0.876   0.392   3.812
 8815TIP3    H126409   0.961   0.397   3.770
 8815TIP3    H226410   0.835   0.477   3.794
 8816TIP3   OH226411   0.821   0.707   2.304
 8816TIP3    H126412   0.817   0.779   2.368
 8816TIP3    H226413   0.910   0.675   2.310
 8817TIP3   OH226414   0.720   5.741   2.265
 8817TIP3    H126415   0.672   5.822   2.285
 8817TIP3    H226416   0.661   5.671   2.292
 8818TIP3   OH226417   7.188   6.266   4.727
 8818TIP3    H126418   7.259   6.262   4.790
 8818TIP3    H226419   7.231   6.263   4.642
 8819TIP3   OH226420   1.026   5.011   2.930
 8819TIP3    H126421   0.957   5.015   2.864
 8819TIP3    H226422   1.008   4.930   2.979
 8820TIP3   OH226423   5.975   5.332   5.227
 8820TIP3    H126424   5.901   5.354   5.170
 8820TIP3    H226425   5.969   5.237   5.238
 8821TIP3   OH226426   5.705   0.409   3.550
 8821TIP3    H126427   5.626   0.448   3.513
 8821TIP3    H226428   5.673   0.358   3.625
 8822TIP3   OH226429   6.256   5.798   4.832
 8822TIP3    H126430   6.223   5.839   4.753
 8822TIP3    H226431   6.277   5.708   4.806
 8823TIP3   OH226432   1.106   0.758   5.489
 8823TIP3    H126433   1.120   0.721   5.577
 8823TIP3    H226434   1.044   0.698   5.448
 8824TIP3   OH226435   3.249   0.686   0.317
 8824TIP3    H126436   3.220   0.689   0.226
 8824TIP3    H226437   3.192   0.747   0.363
 8825TIP3   OH226438   3.548   0.473   1.108
 8825TIP3    H126439   3.461   0.435   1.120
 8825TIP3    H226440   3.554   0.539   1.177
 8826TIP3   OH226441   2.633   3.915   1.113
 8826TIP3    H126442   2.721   3.946   1.137
 8826TIP3    H226443   2.649   3.837   1.060
 8827TIP3   OH226444   2.113   6.788   0.155
 8827TIP3    H126445   2.036   6.734   0.139
 8827TIP3    H226446   2.079   6.875   0.174
 8828TIP3   OH226447   1.942   4.280   3.227
 8828TIP3    H126448   2.029   4.310   3.250
 8828TIP3    H226449   1.951   4.246   3.137
 8829TIP3   OH226450   2.134   5.360   2.487
 8829TIP3    H126451   2.192   5.356   2.563
 8829TIP3    H226452   2.056   5.406   2.520
 8830TIP3   OH226453   5.410   1.803   1.368
 8830TIP3    H126454   5.347   1.735   1.390
 8830TIP3    H226455   5.493   1.758   1.359
 8831TIP3   OH226456   6.921   6.335   2.198
 8831TIP3    H126457   6.884   6.422   2.214
 8831TIP3    H226458   6.851   6.287   2.155
 8832TIP3   OH226459   3.859   0.692   1.022
 8832TIP3    H126460   3.864   0.728   1.111
 8832TIP3    H226461   3.912   0.613   1.025
 8833TIP3   OH226462   5.107   5.148   4.402
 8833TIP3    H126463   5.081   5.227   4.355
 8833TIP3    H226464   5.198   5.164   4.429
 8834TIP3   OH226465   2.748   0.583   0.599
 8834TIP3    H126466   2.715   0.648   0.537
 8834TIP3    H226467   2.829   0.551   0.560
 8835TIP3   OH226468   3.649   3.530   0.607
 8835TIP3    H126469   3.740   3.506   0.588
 8835TIP3    H226470   3.602   3.509   0.526
 8836TIP3   OH226471   5.919   6.586   2.233
 8836TIP3    H126472   5.929   6.667   2.283
 8836TIP3    H226473   5.837   6.598   2.185
 8837TIP3   OH226474   0.943   4.648   5.258
 8837TIP3    H126475   0.892   4.676   5.334
 8837TIP3    H226476   1.034   4.653   5.288
 8838TIP3   OH226477   6.001   4.587   4.658
 8838TIP3    H126478   6.062   4.544   4.597
 8838TIP3    H226479   5.983   4.672   4.618
 8839TIP3   OH226480   0.355   6.546   3.492
 8839TIP3    H126481   0.335   6.466   3.443
 8839TIP3    H226482   0.368   6.517   3.582
 8840TIP3   OH226483   3.967   6.349   1.490
 8840TIP3    H126484   4.024   6.315   1.421
 8840TIP3    H226485   3.914   6.416   1.447
 8841TIP3   OH226486   1.726   3.660   4.224
 8841TIP3    H126487   1.744   3.568   4.244
 8841TIP3    H226488   1.639   3.660   4.185
 8842TIP3   OH226489   4.219   4.095   3.628
 8842TIP3    H126490   4.218   4.181   3.669
 8842TIP3    H226491   4.127   4.068   3.627
 8843TIP3   OH226492   1.418   3.206   2.212
 8843TIP3    H126493   1.469   3.188   2.290
 8843TIP3    H226494   1.342   3.148   2.218
 8844TIP3   OH226495   3.127   1.896   3.896
 8844TIP3    H126496   3.169   1.908   3.981
 8844TIP3    H226497   3.125   1.801   3.884
 8845TIP3   OH226498   2.109   2.615   4.518
 8845TIP3    H126499   2.068   2.584   4.598
 8845TIP3    H226500   2.070   2.562   4.448
 8846TIP3   OH226501   4.178   0.981   1.072
 8846TIP3    H126502   4.216   0.957   0.987
 8846TIP3    H226503   4.122   1.056   1.053
 8847TIP3   OH226504   5.454   4.510   2.136
 8847TIP3    H126505   5.405   4.575   2.185
 8847TIP3    H226506   5.497   4.560   2.066
 8848TIP3   OH226507   2.834   4.194   0.066
 8848TIP3    H126508   2.762   4.223   0.011
 8848TIP3    H226509   2.852   4.269   0.124
 8849TIP3   OH226510   2.104   5.456   0.024
 8849TIP3    H126511   2.057   5.414   0.095
 8849TIP3    H226512   2.082   5.549   0.031
 8850TIP3   OH226513   6.964   4.284   4.893
 8850TIP3    H126514   7.025   4.300   4.821
 8850TIP3    H226515   7.009   4.219   4.948
 8851TIP3   OH226516   2.194   6.095   1.919
 8851TIP3    H126517   2.280   6.109   1.957
 8851TIP3    H226518   2.205   6.021   1.859
 8852TIP3   OH226519   3.377   5.944   4.004
 8852TIP3    H126520   3.361   5.901   3.920
 8852TIP3    H226521   3.358   6.036   3.989
 8853TIP3   OH226522   4.428   0.524   3.618
 8853TIP3    H126523   4.335   0.541   3.636
 8853TIP3    H226524   4.435   0.529   3.523
 8854TIP3   OH226525   0.325   6.676   3.810
 8854TIP3    H126526   0.379   6.597   3.800
 8854TIP3    H226527   0.293   6.672   3.900
 8855TIP3   OH226528   3.126   5.508   1.164
 8855TIP3    H126529   3.139   5.432   1.221
 8855TIP3    H226530   3.150   5.583   1.219
 8856TIP3   OH226531   0.167   3.449   4.095
 8856TIP3    H126532   0.239   3.386   4.106
 8856TIP3    H226533   0.122   3.448   4.180
 8857TIP3   OH226534   6.700   1.199   4.143
 8857TIP3    H126535   6.727   1.111   4.170
 8857TIP3    H226536   6.607   1.203   4.164
 8858TIP3   OH226537   3.564   6.535   1.862
 8858TIP3    H126538   3.484   6.495   1.826
 8858TIP3    H226539   3.534   6.584   1.939
 8859TIP3   OH226540   1.186   0.447   5.281
 8859TIP3    H126541   1.135   0.439   5.200
 8859TIP3    H226542   1.152   0.378   5.337
 8860TIP3   OH226543   1.994   4.219   5.193
 8860TIP3    H126544   1.930   4.152   5.169
 8860TIP3    H226545   2.068   4.203   5.135
 8861TIP3   OH226546   2.686   6.382   2.787
 8861TIP3    H126547   2.596   6.367   2.815
 8861TIP3    H226548   2.695   6.332   2.706
 8862TIP3   OH226549   2.102   3.945   3.791
 8862TIP3    H126550   2.147   3.962   3.874
 8862TIP3    H226551   2.171   3.921   3.730
 8863TIP3   OH226552   3.457   1.646   3.817
 8863TIP3    H126553   3.492   1.561   3.843
 8863TIP3    H226554   3.363   1.640   3.835
 8864TIP3   OH226555   5.085   3.336   0.599
 8864TIP3    H126556   5.031   3.387   0.539
 8864TIP3    H226557   5.024   3.306   0.667
 8865TIP3   OH226558   6.485   4.292   2.849
 8865TIP3    H126559   6.447   4.279   2.762
 8865TIP3    H226560   6.579   4.298   2.834
 8866TIP3   OH226561   0.451   2.228   4.404
 8866TIP3    H126562   0.544   2.237   4.381
 8866TIP3    H226563   0.409   2.302   4.362
 8867TIP3   OH226564   3.674   5.490   0.012
 8867TIP3    H126565   3.659   5.411   0.065
 8867TIP3    H226566   3.591   5.538   0.017
 8868TIP3   OH226567   6.934   4.279   3.067
 8868TIP3    H126568   6.955   4.199   3.019
 8868TIP3    H226569   6.899   4.339   3.000
 8869TIP3   OH226570   5.583   3.968   4.507
 8869TIP3    H126571   5.661   3.913   4.515
 8869TIP3    H226572   5.593   4.012   4.423
 8870TIP3   OH226573   2.964   2.599   5.254
 8870TIP3    H126574   2.993   2.679   5.209
 8870TIP3    H226575   2.980   2.618   5.347
 8871TIP3   OH226576   2.282   6.803   5.373
 8871TIP3    H126577   2.229   6.742   5.423
 8871TIP3    H226578   2.372   6.773   5.386
 8872TIP3   OH226579   6.254   3.365   3.257
 8872TIP3    H126580   6.182   3.415   3.294
 8872TIP3    H226581   6.241   3.276   3.289
 8873TIP3   OH226582   4.633   0.692   3.346
 8873TIP3    H126583   4.621   0.691   3.251
 8873TIP3    H226584   4.614   0.602   3.374
 8874TIP3   OH226585   2.978   5.633   3.558
 8874TIP3    H126586   2.943   5.616   3.470
 8874TIP3    H226587   3.060   5.583   3.561
 8875TIP3   OH226588   0.817   1.914   5.485
 8875TIP3    H126589   0.823   1.821   5.510
 8875TIP3    H226590   0.890   1.955   5.532
 8876TIP3   OH226591   3.693   3.831   3.116
 8876TIP3    H126592   3.673   3.912   3.070
 8876TIP3    H226593   3.649   3.840   3.201
 8877TIP3   OH226594   3.074   4.599   2.966
 8877TIP3    H126595   3.003   4.631   2.911
 8877TIP3    H226596   3.052   4.630   3.054
 8878TIP3   OH226597   1.504   1.121   2.791
 8878TIP3    H126598   1.421   1.079   2.814
 8878TIP3    H226599   1.490   1.155   2.702
 8879TIP3   OH226600   7.191   0.266   1.482
 8879TIP3    H126601   7.183   0.336   1.417
 8879TIP3    H226602   7.285   0.261   1.499
 8880TIP3   OH226603   1.646   5.730   4.766
 8880TIP3    H126604   1.589   5.731   4.843
 8880TIP3    H226605   1.702   5.807   4.776
 8881TIP3   OH226606   2.781   2.605   4.949
 8881TIP3    H126607   2.721   2.630   5.019
 8881TIP3    H226608   2.862   2.582   4.994
 8882TIP3   OH226609   3.107   1.177   2.214
 8882TIP3    H126610   3.088   1.225   2.134
 8882TIP3    H226611   3.133   1.090   2.184
 8883TIP3   OH226612   2.637   4.236   0.671
 8883TIP3    H126613   2.578   4.208   0.741
 8883TIP3    H226614   2.699   4.294   0.714
 8884TIP3   OH226615   0.090   5.696   0.072
 8884TIP3    H126616   0.183   5.716   0.082
 8884TIP3    H226617   0.068   5.729  -0.016
 8885TIP3   OH226618   5.021   0.924   1.002
 8885TIP3    H126619   4.961   0.886   1.066
 8885TIP3    H226620   4.981   0.905   0.917
 8886TIP3   OH226621   2.443   4.547   0.947
 8886TIP3    H126622   2.415   4.634   0.919
 8886TIP3    H226623   2.422   4.490   0.874
 8887TIP3   OH226624   3.241   2.139   2.623
 8887TIP3    H126625   3.308   2.187   2.672
 8887TIP3    H226626   3.159   2.183   2.644
 8888TIP3   OH226627   5.051   0.340   2.651
 8888TIP3    H126628   5.065   0.284   2.726
 8888TIP3    H226629   4.966   0.381   2.666
 8889TIP3   OH226630   6.970   0.689   1.114
 8889TIP3    H126631   6.996   0.666   1.203
 8889TIP3    H226632   6.912   0.618   1.087
 8890TIP3   OH226633   3.848   3.554   4.289
 8890TIP3    H126634   3.819   3.469   4.322
 8890TIP3    H226635   3.835   3.614   4.362
 8891TIP3   OH226636   2.479   5.687   5.041
 8891TIP3    H126637   2.412   5.621   5.061
 8891TIP3    H226638   2.459   5.716   4.952
 8892TIP3   OH226639   6.879   5.736   2.130
 8892TIP3    H126640   6.939   5.739   2.055
 8892TIP3    H226641   6.791   5.738   2.090
 8893TIP3   OH226642   0.703   2.288   5.653
 8893TIP3    H126643   0.730   2.363   5.707
 8893TIP3    H226644   0.668   2.328   5.573
 8894TIP3   OH226645   0.757   3.607   1.223
 8894TIP3    H126646   0.784   3.692   1.260
 8894TIP3    H226647   0.778   3.544   1.291
 8895TIP3   OH226648   6.563   6.380   2.323
 8895TIP3    H126649   6.556   6.343   2.235
 8895TIP3    H226650   6.615   6.316   2.372
 8896TIP3   OH226651   1.107   2.417   5.247
 8896TIP3    H126652   1.068   2.459   5.171
 8896TIP3    H226653   1.130   2.490   5.305
 8897TIP3   OH226654   1.605   5.172   4.063
 8897TIP3    H126655   1.663   5.102   4.035
 8897TIP3    H226656   1.583   5.150   4.154
 8898TIP3   OH226657   3.339   0.285   2.565
 8898TIP3    H126658   3.359   0.329   2.482
 8898TIP3    H226659   3.417   0.300   2.619
 8899TIP3   OH226660   3.530   1.141   3.294
 8899TIP3    H126661   3.610   1.159   3.245
 8899TIP3    H226662   3.487   1.227   3.301
 8900TIP3   OH226663   0.557   4.425   4.326
 8900TIP3    H126664   0.576   4.455   4.236
 8900TIP3    H226665   0.637   4.382   4.355
 8901TIP3   OH226666   1.875   2.470   2.579
 8901TIP3    H126667   1.824   2.487   2.658
 8901TIP3    H226668   1.898   2.556   2.545
 8902TIP3   OH226669   6.435   0.912   0.247
 8902TIP3    H126670   6.425   0.927   0.153
 8902TIP3    H226671   6.522   0.948   0.268
 8903TIP3   OH226672   0.420   4.847   2.304
 8903TIP3    H126673   0.509   4.881   2.306
 8903TIP3    H226674   0.386   4.873   2.218
 8904TIP3   OH226675   7.143   5.262   3.667
 8904TIP3    H126676   7.132   5.240   3.759
 8904TIP3    H226677   7.059   5.242   3.626
 8905TIP3   OH226678   4.221   6.781   2.597
 8905TIP3    H126679   4.304   6.773   2.551
 8905TIP3    H226680   4.245   6.797   2.688
 8906TIP3   OH226681   3.148   1.915   4.588
 8906TIP3    H126682   3.238   1.946   4.575
 8906TIP3    H226683   3.142   1.836   4.535
 8907TIP3   OH226684   4.580   4.897   1.378
 8907TIP3    H126685   4.608   4.978   1.336
 8907TIP3    H226686   4.647   4.880   1.444
 8908TIP3   OH226687   5.674   4.103   1.713
 8908TIP3    H126688   5.666   4.079   1.620
 8908TIP3    H226689   5.767   4.122   1.725
 8909TIP3   OH226690   0.452   2.604   1.319
 8909TIP3    H126691   0.390   2.599   1.392
 8909TIP3    H226692   0.477   2.696   1.315
 8910TIP3   OH226693   6.735   6.634   4.785
 8910TIP3    H126694   6.752   6.727   4.796
 8910TIP3    H226695   6.769   6.614   4.697
 8911TIP3   OH226696   4.499   6.134   2.608
 8911TIP3    H126697   4.463   6.129   2.696
 8911TIP3    H226698   4.592   6.155   2.621
 8912TIP3   OH226699   3.957   0.192   0.431
 8912TIP3    H126700   3.905   0.255   0.480
 8912TIP3    H226701   4.023   0.162   0.493
 8913TIP3   OH226702   3.878   1.110   2.188
 8913TIP3    H126703   3.925   1.027   2.194
 8913TIP3    H226704   3.920   1.157   2.116
 8914TIP3   OH226705   0.408   4.393   1.359
 8914TIP3    H126706   0.471   4.325   1.383
 8914TIP3    H226707   0.338   4.345   1.314
 8915TIP3   OH226708   4.779   3.140   2.151
 8915TIP3    H126709   4.848   3.077   2.170
 8915TIP3    H226710   4.712   3.122   2.216
 8916TIP3   OH226711   5.943   5.965   0.822
 8916TIP3    H126712   6.024   5.984   0.774
 8916TIP3    H226713   5.973   5.921   0.902
 8917TIP3   OH226714   1.754   5.524   4.485
 8917TIP3    H126715   1.782   5.483   4.567
 8917TIP3    H226716   1.703   5.600   4.512
 8918TIP3   OH226717   1.332   1.044   1.698
 8918TIP3    H126718   1.419   1.075   1.722
 8918TIP3    H226719   1.274   1.080   1.764
 8919TIP3   OH226720   3.047   1.433   3.725
 8919TIP3    H126721   3.081   1.377   3.656
 8919TIP3    H226722   2.994   1.375   3.780
 8920TIP3   OH226723   4.059   3.769   2.264
 8920TIP3    H126724   3.994   3.785   2.332
 8920TIP3    H226725   4.094   3.682   2.284
 8921TIP3   OH226726   3.522   2.761   5.709
 8921TIP3    H126727   3.595   2.781   5.769
 8921TIP3    H226728   3.461   2.709   5.762
 8922TIP3   OH226729   0.423   1.329   2.171
 8922TIP3    H126730   0.406   1.417   2.205
 8922TIP3    H226731   0.347   1.310   2.117
 8923TIP3   OH226732   5.182   6.484   2.389
 8923TIP3    H126733   5.140   6.437   2.317
 8923TIP3    H226734   5.275   6.465   2.379
 8924TIP3   OH226735   1.289   0.808   0.021
 8924TIP3    H126736   1.267   0.824  -0.070
 8924TIP3    H226737   1.211   0.767   0.058
 8925TIP3   OH226738   3.518   1.289   0.322
 8925TIP3    H126739   3.567   1.251   0.250
 8925TIP3    H226740   3.562   1.372   0.340
 8926TIP3   OH226741   5.560   5.521   1.518
 8926TIP3    H126742   5.567   5.426   1.522
 8926TIP3    H226743   5.508   5.545   1.594
 8927TIP3   OH226744   3.628   3.316   3.474
 8927TIP3    H126745   3.707   3.317   3.527
 8927TIP3    H226746   3.603   3.408   3.466
 8928TIP3   OH226747   1.334   6.297   4.444
 8928TIP3    H126748   1.290   6.362   4.389
 8928TIP3    H226749   1.265   6.234   4.466
 8929TIP3   OH226750   5.773   2.511   0.554
 8929TIP3    H126751   5.745   2.471   0.636
 8929TIP3    H226752   5.844   2.570   0.579
 8930TIP3   OH226753   4.225   2.380   5.846
 8930TIP3    H126754   4.308   2.352   5.806
 8930TIP3    H226755   4.160   2.372   5.776
 8931TIP3   OH226756   6.130   6.610   3.354
 8931TIP3    H126757   6.215   6.612   3.397
 8931TIP3    H226758   6.133   6.533   3.298
 8932TIP3   OH226759   2.384   5.069   1.560
 8932TIP3    H126760   2.289   5.067   1.545
 8932TIP3    H226761   2.416   5.135   1.497
 8933TIP3   OH226762   4.946   3.866   5.524
 8933TIP3    H126763   5.014   3.806   5.554
 8933TIP3    H226764   4.971   3.885   5.434
 8934TIP3   OH226765   4.371   4.278   0.945
 8934TIP3    H126766   4.300   4.330   0.982
 8934TIP3    H226767   4.438   4.276   1.013
 8935TIP3   OH226768   3.701   2.260   4.136
 8935TIP3    H126769   3.633   2.282   4.200
 8935TIP3    H226770   3.663   2.189   4.084
 8936TIP3   OH226771   2.645   3.252   1.453
 8936TIP3    H126772   2.648   3.232   1.547
 8936TIP3    H226773   2.611   3.172   1.413
 8937TIP3   OH226774   3.503   3.090   0.185
 8937TIP3    H126775   3.516   3.008   0.138
 8937TIP3    H226776   3.415   3.118   0.162
 8938TIP3   OH226777   4.104   6.512   5.700
 8938TIP3    H126778   4.048   6.435   5.710
 8938TIP3    H226779   4.186   6.477   5.665
 8939TIP3   OH226780   0.408   3.603   0.637
 8939TIP3    H126781   0.455   3.582   0.718
 8939TIP3    H226782   0.471   3.585   0.567
 8940TIP3   OH226783   4.602   3.642   1.592
 8940TIP3    H126784   4.594   3.733   1.621
 8940TIP3    H226785   4.680   3.641   1.537
 8941TIP3   OH226786   2.318   2.294   3.394
 8941TIP3    H126787   2.228   2.313   3.367
 8941TIP3    H226788   2.313   2.208   3.436
 8942TIP3   OH226789   2.038   0.088   3.236
 8942TIP3    H126790   1.987   0.093   3.316
 8942TIP3    H226791   2.095   0.165   3.239
 8943TIP3   OH226792   1.795   5.971   4.860
 8943TIP3    H126793   1.728   6.036   4.883
 8943TIP3    H226794   1.876   6.006   4.898
 8944TIP3   OH226795   0.939   2.460   0.376
 8944TIP3    H126796   0.962   2.386   0.319
 8944TIP3    H226797   0.930   2.534   0.316
 8945TIP3   OH226798   2.741   0.323   0.342
 8945TIP3    H126799   2.697   0.349   0.261
 8945TIP3    H226800   2.834   0.318   0.318
 8946TIP3   OH226801   6.239   0.550   0.390
 8946TIP3    H126802   6.240   0.456   0.371
 8946TIP3    H226803   6.222   0.591   0.305
 8947TIP3   OH226804   0.199   4.449   2.586
 8947TIP3    H126805   0.262   4.430   2.655
 8947TIP3    H226806   0.126   4.388   2.603
 8948TIP3   OH226807   0.180   0.418   2.441
 8948TIP3    H126808   0.112   0.390   2.379
 8948TIP3    H226809   0.220   0.336   2.471
 8949TIP3   OH226810   0.405   4.824   4.507
 8949TIP3    H126811   0.336   4.818   4.574
 8949TIP3    H226812   0.390   4.909   4.465
 8950TIP3   OH226813   4.842   6.716   1.277
 8950TIP3    H126814   4.906   6.754   1.336
 8950TIP3    H226815   4.891   6.649   1.229
 8951TIP3   OH226816   5.405   4.977   5.133
 8951TIP3    H126817   5.403   4.903   5.193
 8951TIP3    H226818   5.325   4.969   5.081
 8952TIP3   OH226819   5.246   4.378   5.711
 8952TIP3    H126820   5.215   4.348   5.625
 8952TIP3    H226821   5.168   4.414   5.753
 8953TIP3   OH226822   3.638   4.470   4.765
 8953TIP3    H126823   3.705   4.466   4.833
 8953TIP3    H226824   3.581   4.542   4.791
 8954TIP3   OH226825   5.519   5.042   1.044
 8954TIP3    H126826   5.489   4.951   1.042
 8954TIP3    H226827   5.604   5.040   0.999
 8955TIP3   OH226828   0.649   2.382   4.819
 8955TIP3    H126829   0.623   2.437   4.893
 8955TIP3    H226830   0.570   2.332   4.798
 8956TIP3   OH226831   1.282   1.440   3.634
 8956TIP3    H126832   1.192   1.417   3.655
 8956TIP3    H226833   1.313   1.489   3.710
 8957TIP3   OH226834   1.635   2.518   4.583
 8957TIP3    H126835   1.545   2.486   4.574
 8957TIP3    H226836   1.641   2.589   4.519
 8958TIP3   OH226837   1.998   4.837   3.904
 8958TIP3    H126838   2.035   4.925   3.908
 8958TIP3    H226839   2.061   4.785   3.855
 8959TIP3   OH226840   2.259   2.189   1.860
 8959TIP3    H126841   2.352   2.213   1.854
 8959TIP3    H226842   2.245   2.170   1.952
 8960TIP3   OH226843   6.192   4.274   0.925
 8960TIP3    H126844   6.173   4.350   0.980
 8960TIP3    H226845   6.269   4.234   0.964
 8961TIP3   OH226846   4.354   1.054   0.198
 8961TIP3    H126847   4.340   1.045   0.104
 8961TIP3    H226848   4.326   1.143   0.218
 8962TIP3   OH226849   3.808   0.705   3.387
 8962TIP3    H126850   3.875   0.638   3.397
 8962TIP3    H226851   3.738   0.679   3.447
 8963TIP3   OH226852   0.924   4.292   3.475
 8963TIP3    H126853   0.946   4.315   3.565
 8963TIP3    H226854   0.899   4.374   3.434
 8964TIP3   OH226855   0.708   1.551   1.450
 8964TIP3    H126856   0.689   1.458   1.443
 8964TIP3    H226857   0.789   1.563   1.401
 8965TIP3   OH226858   0.277   3.989   0.411
 8965TIP3    H126859   0.234   3.929   0.472
 8965TIP3    H226860   0.366   3.956   0.404
 8966TIP3   OH226861   5.703   1.389   4.848
 8966TIP3    H126862   5.660   1.366   4.766
 8966TIP3    H226863   5.645   1.354   4.916
 8967TIP3   OH226864   7.031   5.670   4.798
 8967TIP3    H126865   7.054   5.762   4.811
 8967TIP3    H226866   7.018   5.636   4.886
 8968TIP3   OH226867   3.590   5.286   0.200
 8968TIP3    H126868   3.545   5.202   0.193
 8968TIP3    H226869   3.624   5.288   0.289
 8969TIP3   OH226870   1.944   0.919   1.156
 8969TIP3    H126871   1.870   0.940   1.214
 8969TIP3    H226872   1.945   0.824   1.152
 8970TIP3   OH226873   0.855   1.181   4.818
 8970TIP3    H126874   0.868   1.252   4.880
 8970TIP3    H226875   0.802   1.117   4.865
 8971TIP3   OH226876   5.297   3.109   1.083
 8971TIP3    H126877   5.311   3.185   1.026
 8971TIP3    H226878   5.225   3.134   1.139
 8972TIP3   OH226879   4.067   4.910   2.288
 8972TIP3    H126880   4.006   4.857   2.238
 8972TIP3    H226881   4.142   4.853   2.303
 8973TIP3   OH226882   3.694   1.685   4.117
 8973TIP3    H126883   3.779   1.667   4.157
 8973TIP3    H226884   3.690   1.780   4.110
 8974TIP3   OH226885   0.083   6.591   0.465
 8974TIP3    H126886   0.027   6.627   0.535
 8974TIP3    H226887   0.073   6.654   0.393
 8975TIP3   OH226888   2.270   3.487   1.982
 8975TIP3    H126889   2.210   3.476   1.908
 8975TIP3    H226890   2.308   3.400   1.995
 8976TIP3   OH226891   3.520   1.739   0.191
 8976TIP3    H126892   3.588   1.725   0.257
 8976TIP3    H226893   3.564   1.790   0.122
 8977TIP3   OH226894   0.818   2.482   4.444
 8977TIP3    H126895   0.865   2.564   4.457
 8977TIP3    H226896   0.886   2.417   4.425
 8978TIP3   OH226897   5.539   1.826   5.108
 8978TIP3    H126898   5.568   1.789   5.191
 8978TIP3    H226899   5.444   1.834   5.117
 8979TIP3   OH226900   3.820   4.694   0.635
 8979TIP3    H126901   3.749   4.629   0.635
 8979TIP3    H226902   3.875   4.669   0.709
 8980TIP3   OH226903   3.025   2.377   1.157
 8980TIP3    H126904   3.018   2.285   1.134
 8980TIP3    H226905   3.061   2.377   1.246
 8981TIP3   OH226906   4.836   5.267   0.018
 8981TIP3    H126907   4.789   5.217   0.085
 8981TIP3    H226908   4.838   5.209  -0.058
 8982TIP3   OH226909   0.766   6.795   1.015
 8982TIP3    H126910   0.704   6.723   1.010
 8982TIP3    H226911   0.830   6.777   0.946
 8983TIP3   OH226912   1.575   6.049   4.035
 8983TIP3    H126913   1.526   6.097   4.102
 8983TIP3    H226914   1.610   6.118   3.978
 8984TIP3   OH226915   4.954   0.669   2.764
 8984TIP3    H126916   5.016   0.658   2.692
 8984TIP3    H226917   4.926   0.760   2.758
 8985TIP3   OH226918   1.483   1.546   0.423
 8985TIP3    H126919   1.556   1.585   0.375
 8985TIP3    H226920   1.412   1.541   0.358
 8986TIP3   OH226921   5.401   4.090   1.871
 8986TIP3    H126922   5.430   4.168   1.918
 8986TIP3    H226923   5.474   4.070   1.811
 8987TIP3   OH226924   4.170   4.514   4.519
 8987TIP3    H126925   4.096   4.502   4.579
 8987TIP3    H226926   4.142   4.471   4.438
 8988TIP3   OH226927   5.830   2.169   5.598
 8988TIP3    H126928   5.747   2.143   5.558
 8988TIP3    H226929   5.825   2.264   5.604
 8989TIP3   OH226930   1.249   1.385   3.296
 8989TIP3    H126931   1.160   1.392   3.330
 8989TIP3    H226932   1.300   1.350   3.368
 8990TIP3   OH226933   2.791   1.787   3.309
 8990TIP3    H126934   2.726   1.853   3.333
 8990TIP3    H226935   2.842   1.828   3.240
 8991TIP3   OH226936   3.152   2.788   4.709
 8991TIP3    H126937   3.211   2.712   4.714
 8991TIP3    H226938   3.067   2.751   4.685
 8992TIP3   OH226939   5.405   3.281   5.176
 8992TIP3    H126940   5.325   3.320   5.140
 8992TIP3    H226941   5.418   3.201   5.125
 8993TIP3   OH226942   4.538   5.256   3.381
 8993TIP3    H126943   4.622   5.240   3.337
 8993TIP3    H226944   4.547   5.212   3.465
 8994TIP3   OH226945   1.683   1.626   2.500
 8994TIP3    H126946   1.622   1.562   2.536
 8994TIP3    H226947   1.650   1.710   2.532
 8995TIP3   OH226948   4.781   4.566   4.327
 8995TIP3    H126949   4.733   4.646   4.350
 8995TIP3    H226950   4.830   4.590   4.249
 8996TIP3   OH226951   1.307   1.671   2.449
 8996TIP3    H126952   1.349   1.664   2.363
 8996TIP3    H226953   1.229   1.724   2.434
 8997TIP3   OH226954   2.742   4.983   0.535
 8997TIP3    H126955   2.795   4.953   0.461
 8997TIP3    H226956   2.656   4.943   0.521
 8998TIP3   OH226957   0.460   3.067   2.206
 8998TIP3    H126958   0.526   2.999   2.217
 8998TIP3    H226959   0.381   3.032   2.248
 8999TIP3   OH226960   5.819   6.349   5.117
 8999TIP3    H126961   5.833   6.350   5.022
 8999TIP3    H226962   5.868   6.272   5.147
 9000TIP3   OH226963   6.802   2.874   4.146
 9000TIP3    H126964   6.888   2.838   4.122
 9000TIP3    H226965   6.805   2.883   4.241
 9001TIP3   OH226966   3.564   0.015   4.034
 9001TIP3    H126967   3.642   0.014   4.090
 9001TIP3    H226968   3.595   0.048   3.950
 9002TIP3   OH226969   1.665   2.770   3.860
 9002TIP3    H126970   1.753   2.803   3.843
 9002TIP3    H226971   1.608   2.829   3.812
 9003TIP3   OH226972   0.087   0.552   5.770
 9003TIP3    H126973   0.036   0.633   5.765
 9003TIP3    H226974   0.166   0.576   5.817
 9004TIP3   OH226975   2.849   0.618   1.539
 9004TIP3    H126976   2.939   0.648   1.548
 9004TIP3    H226977   2.846   0.576   1.453
 9005TIP3   OH226978   7.140   6.697   1.833
 9005TIP3    H126979   7.068   6.754   1.859
 9005TIP3    H226980   7.219   6.744   1.861
 9006TIP3   OH226981   2.829   2.325   0.787
 9006TIP3    H126982   2.821   2.317   0.691
 9006TIP3    H226983   2.796   2.413   0.806
 9007TIP3   OH226984   4.985   3.643   5.119
 9007TIP3    H126985   5.016   3.615   5.033
 9007TIP3    H226986   4.895   3.610   5.123
 9008TIP3   OH226987   5.715   6.300   2.751
 9008TIP3    H126988   5.746   6.382   2.714
 9008TIP3    H226989   5.695   6.320   2.842
 9009TIP3   OH226990   6.308   3.516   0.958
 9009TIP3    H126991   6.232   3.459   0.951
 9009TIP3    H226992   6.328   3.518   1.051
 9010TIP3   OH226993   1.806   4.648   3.927
 9010TIP3    H126994   1.867   4.720   3.946
 9010TIP3    H226995   1.831   4.579   3.989
 9011TIP3   OH226996   6.731   2.958   2.129
 9011TIP3    H126997   6.702   2.875   2.167
 9011TIP3    H226998   6.801   2.989   2.187
 9012TIP3   OH226999   5.278   0.147   0.148
 9012TIP3    H127000   5.367   0.143   0.183
 9012TIP3    H227001   5.252   0.055   0.140
 9013TIP3   OH227002   1.706   3.008   5.034
 9013TIP3    H127003   1.748   2.961   5.106
 9013TIP3    H227004   1.777   3.028   4.974
 9014TIP3   OH227005   3.719   3.081   4.415
 9014TIP3    H127006   3.772   3.012   4.375
 9014TIP3    H227007   3.629   3.059   4.391
 9015TIP3   OH227008   4.423   3.561   2.254
 9015TIP3    H127009   4.376   3.587   2.174
 9015TIP3    H227010   4.490   3.499   2.224
 9016TIP3   OH227011   5.780   2.344   0.182
 9016TIP3    H127012   5.781   2.439   0.172
 9016TIP3    H227013   5.872   2.318   0.176
 9017TIP3   OH227014   1.705   6.538   3.506
 9017TIP3    H127015   1.613   6.565   3.504
 9017TIP3    H227016   1.744   6.581   3.429
 9018TIP3   OH227017   4.778   4.814   5.809
 9018TIP3    H127018   4.730   4.855   5.738
 9018TIP3    H227019   4.732   4.733   5.827
 9019TIP3   OH227020   2.555   6.693   2.259
 9019TIP3    H127021   2.570   6.642   2.179
 9019TIP3    H227022   2.642   6.726   2.282
 9020TIP3   OH227023   6.381   0.324   4.742
 9020TIP3    H127024   6.452   0.378   4.706
 9020TIP3    H227025   6.391   0.332   4.837
 9021TIP3   OH227026   6.585   2.631   2.003
 9021TIP3    H127027   6.665   2.579   2.000
 9021TIP3    H227028   6.548   2.622   1.915
 9022TIP3   OH227029   4.788   0.626   3.881
 9022TIP3    H127030   4.731   0.676   3.823
 9022TIP3    H227031   4.764   0.655   3.969
 9023TIP3   OH227032   4.219   0.832   5.572
 9023TIP3    H127033   4.161   0.898   5.533
 9023TIP3    H227034   4.269   0.798   5.498
 9024TIP3   OH227035   6.534   0.339   1.317
 9024TIP3    H127036   6.546   0.328   1.222
 9024TIP3    H227037   6.549   0.252   1.353
 9025TIP3   OH227038   7.044   3.502   3.380
 9025TIP3    H127039   7.004   3.520   3.295
 9025TIP3    H227040   7.138   3.519   3.366
 9026TIP3   OH227041   6.624   3.613   5.596
 9026TIP3    H127042   6.530   3.598   5.597
 9026TIP3    H227043   6.640   3.672   5.671
 9027TIP3   OH227044   3.001   4.894   4.927
 9027TIP3    H127045   2.975   4.843   5.003
 9027TIP3    H227046   2.987   4.835   4.853
 9028TIP3   OH227047   2.112   2.529   5.561
 9028TIP3    H127048   2.132   2.568   5.476
 9028TIP3    H227049   2.138   2.595   5.625
 9029TIP3   OH227050   1.761   4.625   0.270
 9029TIP3    H127051   1.669   4.623   0.296
 9029TIP3    H227052   1.804   4.566   0.332
 9030TIP3   OH227053   6.445   3.910   3.474
 9030TIP3    H127054   6.421   4.003   3.479
 9030TIP3    H227055   6.540   3.910   3.468
 9031TIP3   OH227056   3.002   4.356   0.492
 9031TIP3    H127057   2.989   4.265   0.466
 9031TIP3    H227058   3.023   4.352   0.585
 9032TIP3   OH227059   5.381   5.173   3.094
 9032TIP3    H127060   5.368   5.204   3.005
 9032TIP3    H227061   5.475   5.160   3.103
 9033TIP3   OH227062   0.835   2.040   5.843
 9033TIP3    H127063   0.878   1.971   5.792
 9033TIP3    H227064   0.746   2.045   5.807
 9034TIP3   OH227065   4.683   4.032   4.420
 9034TIP3    H127066   4.637   4.079   4.350
 9034TIP3    H227067   4.675   4.090   4.496
 9035TIP3   OH227068   5.755   3.063   1.250
 9035TIP3    H127069   5.684   3.081   1.189
 9035TIP3    H227070   5.785   2.975   1.227
 9036TIP3   OH227071   4.498   4.985   4.990
 9036TIP3    H127072   4.430   5.032   4.941
 9036TIP3    H227073   4.571   4.979   4.928
 9037TIP3   OH227074   4.184   0.367   3.898
 9037TIP3    H127075   4.238   0.297   3.862
 9037TIP3    H227076   4.181   0.433   3.829
 9038TIP3   OH227077   3.916   0.146   2.868
 9038TIP3    H127078   3.878   0.079   2.812
 9038TIP3    H227079   3.908   0.227   2.818
 9039TIP3   OH227080   5.322   1.850   3.328
 9039TIP3    H127081   5.228   1.837   3.322
 9039TIP3    H227082   5.339   1.931   3.279
 9040TIP3   OH227083   0.707   2.255   1.388
 9040TIP3    H127084   0.688   2.338   1.344
 9040TIP3    H227085   0.791   2.270   1.432
 9041TIP3   OH227086   2.933   2.959   1.544
 9041TIP3    H127087   2.891   3.044   1.534
 9041TIP3    H227088   3.008   2.962   1.484
 9042TIP3   OH227089   1.402   3.120   1.531
 9042TIP3    H127090   1.483   3.098   1.485
 9042TIP3    H227091   1.364   3.036   1.556
 9043TIP3   OH227092   0.495   6.749   4.201
 9043TIP3    H127093   0.505   6.796   4.119
 9043TIP3    H227094   0.415   6.698   4.190
 9044TIP3   OH227095   4.771   0.859   5.680
 9044TIP3    H127096   4.786   0.815   5.596
 9044TIP3    H227097   4.792   0.951   5.664
 9045TIP3   OH227098   3.320   6.117   1.400
 9045TIP3    H127099   3.231   6.138   1.428
 9045TIP3    H227100   3.327   6.154   1.313
 9046TIP3   OH227101   2.801   0.965   0.988
 9046TIP3    H127102   2.822   1.054   0.960
 9046TIP3    H227103   2.801   0.913   0.908
 9047TIP3   OH227104   4.585   6.201   0.401
 9047TIP3    H127105   4.581   6.213   0.306
 9047TIP3    H227106   4.660   6.255   0.429
 9048TIP3   OH227107   5.706   5.247   5.433
 9048TIP3    H127108   5.752   5.321   5.394
 9048TIP3    H227109   5.670   5.281   5.515
 9049TIP3   OH227110   3.384   4.295   4.783
 9049TIP3    H127111   3.453   4.310   4.848
 9049TIP3    H227112   3.371   4.200   4.784
 9050TIP3   OH227113   2.972   5.202   2.925
 9050TIP3    H127114   2.892   5.181   2.973
 9050TIP3    H227115   3.004   5.282   2.966
 9051TIP3   OH227116   5.102   4.468   3.180
 9051TIP3    H127117   5.018   4.512   3.166
 9051TIP3    H227118   5.085   4.405   3.250
 9052TIP3   OH227119   2.485   5.043   3.033
 9052TIP3    H127120   2.556   5.066   2.973
 9052TIP3    H227121   2.412   5.099   3.006
 9053TIP3   OH227122   1.302   5.540   3.103
 9053TIP3    H127123   1.296   5.499   3.017
 9053TIP3    H227124   1.332   5.629   3.085
 9054TIP3   OH227125   4.336   5.942   4.960
 9054TIP3    H127126   4.355   5.979   5.046
 9054TIP3    H227127   4.252   5.980   4.935
 9055TIP3   OH227128   5.139   5.082   5.445
 9055TIP3    H127129   5.140   4.988   5.462
 9055TIP3    H227130   5.046   5.105   5.446
 9056TIP3   OH227131   5.487   3.123   0.732
 9056TIP3    H127132   5.483   3.216   0.709
 9056TIP3    H227133   5.414   3.083   0.685
 9057TIP3   OH227134   3.561   6.192   4.104
 9057TIP3    H127135   3.501   6.265   4.090
 9057TIP3    H227136   3.537   6.128   4.037
 9058TIP3   OH227137   6.166   6.663   2.692
 9058TIP3    H127138   6.133   6.626   2.610
 9058TIP3    H227139   6.254   6.625   2.702
 9059TIP3   OH227140   5.006   2.616   4.074
 9059TIP3    H127141   4.916   2.617   4.107
 9059TIP3    H227142   5.007   2.545   4.010
 9060TIP3   OH227143   0.298   0.496   4.240
 9060TIP3    H127144   0.391   0.479   4.226
 9060TIP3    H227145   0.268   0.533   4.157
 9061TIP3   OH227146   6.142   5.182   4.290
 9061TIP3    H127147   6.114   5.265   4.251
 9061TIP3    H227148   6.170   5.206   4.379
 9062TIP3   OH227149   4.961   1.610   5.338
 9062TIP3    H127150   4.928   1.610   5.248
 9062TIP3    H227151   4.903   1.671   5.385
 9063TIP3   OH227152   4.464   0.857   4.446
 9063TIP3    H127153   4.534   0.823   4.391
 9063TIP3    H227154   4.390   0.870   4.387
 9064TIP3   OH227155   7.094   4.797   2.581
 9064TIP3    H127156   7.049   4.777   2.663
 9064TIP3    H227157   7.152   4.871   2.602
 9065TIP3   OH227158   2.721   2.566   1.779
 9065TIP3    H127159   2.636   2.554   1.736
 9065TIP3    H227160   2.744   2.657   1.761
 9066TIP3   OH227161   0.057   0.503   0.969
 9066TIP3    H127162   0.045   0.480   1.061
 9066TIP3    H227163  -0.003   0.576   0.954
 9067TIP3   OH227164   6.823   4.778   3.413
 9067TIP3    H127165   6.918   4.779   3.418
 9067TIP3    H227166   6.803   4.745   3.326
 9068TIP3   OH227167   2.821   1.019   1.958
 9068TIP3    H127168   2.805   0.934   1.918
 9068TIP3    H227169   2.913   1.039   1.939
 9069TIP3   OH227170   1.753   2.291   3.155
 9069TIP3    H127171   1.732   2.213   3.104
 9069TIP3    H227172   1.827   2.331   3.109
 9070TIP3   OH227173   6.916   3.306   5.535
 9070TIP3    H127174   6.968   3.385   5.553
 9070TIP3    H227175   6.828   3.340   5.517
 9071TIP3   OH227176   4.461   1.933   1.948
 9071TIP3    H127177   4.369   1.922   1.925
 9071TIP3    H227178   4.465   2.017   1.993
 9072TIP3   OH227179   3.906   3.086   2.293
 9072TIP3    H127180   3.815   3.057   2.302
 9072TIP3    H227181   3.905   3.143   2.216
 9073TIP3   OH227182   2.154   3.700   4.002
 9073TIP3    H127183   2.150   3.688   3.907
 9073TIP3    H227184   2.072   3.743   4.024
 9074TIP3   OH227185   1.071   4.128   5.147
 9074TIP3    H127186   0.988   4.169   5.174
 9074TIP3    H227187   1.137   4.169   5.202
 9075TIP3   OH227188   6.879   1.060   3.334
 9075TIP3    H127189   6.827   1.100   3.404
 9075TIP3    H227190   6.846   1.100   3.254
 9076TIP3   OH227191   6.279   4.615   5.864
 9076TIP3    H127192   6.341   4.579   5.801
 9076TIP3    H227193   6.334   4.653   5.933
 9077TIP3   OH227194   0.188   4.372   3.454
 9077TIP3    H127195   0.113   4.314   3.469
 9077TIP3    H227196   0.261   4.313   3.435
 9078TIP3   OH227197   4.613   2.575   3.612
 9078TIP3    H127198   4.547   2.644   3.608
 9078TIP3    H227199   4.611   2.546   3.704
 9079TIP3   OH227200   1.400   1.611   2.174
 9079TIP3    H127201   1.436   1.522   2.171
 9079TIP3    H227202   1.475   1.668   2.158
 9080TIP3   OH227203   5.534   1.989   1.184
 9080TIP3    H127204   5.578   1.923   1.130
 9080TIP3    H227205   5.484   1.939   1.247
 9081TIP3   OH227206   4.112   3.485   2.331
 9081TIP3    H127207   4.036   3.498   2.388
 9081TIP3    H227208   4.186   3.475   2.390
 9082TIP3   OH227209   0.857   2.253   3.997
 9082TIP3    H127210   0.773   2.263   4.040
 9082TIP3    H227211   0.866   2.332   3.944
 9083TIP3   OH227212   0.072   2.134   4.844
 9083TIP3    H127213   0.119   2.054   4.867
 9083TIP3    H227214   0.036   2.116   4.757
 9084TIP3   OH227215   3.144   0.163   5.756
 9084TIP3    H127216   3.222   0.209   5.788
 9084TIP3    H227217   3.082   0.233   5.734
 9085TIP3   OH227218   6.528   1.768   3.020
 9085TIP3    H127219   6.469   1.731   2.955
 9085TIP3    H227220   6.599   1.806   2.968
 9086TIP3   OH227221   6.348   2.950   2.577
 9086TIP3    H127222   6.353   2.854   2.575
 9086TIP3    H227223   6.255   2.969   2.575
 9087TIP3   OH227224   3.808   5.817   5.866
 9087TIP3    H127225   3.847   5.776   5.944
 9087TIP3    H227226   3.871   5.883   5.839
 9088TIP3   OH227227   0.690   6.767   5.543
 9088TIP3    H127228   0.701   6.803   5.631
 9088TIP3    H227229   0.777   6.772   5.503
 9089TIP3   OH227230   1.831   1.070   1.566
 9089TIP3    H127231   1.857   1.026   1.647
 9089TIP3    H227232   1.897   1.137   1.552
 9090TIP3   OH227233   5.772   2.578   2.669
 9090TIP3    H127234   5.692   2.623   2.695
 9090TIP3    H227235   5.841   2.643   2.682
 9091TIP3   OH227236   3.532   2.146   0.453
 9091TIP3    H127237   3.548   2.227   0.404
 9091TIP3    H227238   3.436   2.137   0.454
 9092TIP3   OH227239   0.402   5.811   2.568
 9092TIP3    H127240   0.422   5.840   2.479
 9092TIP3    H227241   0.488   5.788   2.605
 9093TIP3   OH227242   6.035   6.226   0.103
 9093TIP3    H127243   6.109   6.240   0.045
 9093TIP3    H227244   6.065   6.161   0.166
 9094TIP3   OH227245   2.998   4.612   0.154
 9094TIP3    H127246   2.919   4.631   0.204
 9094TIP3    H227247   3.046   4.548   0.206
 9095TIP3   OH227248   5.316   2.084   4.833
 9095TIP3    H127249   5.247   2.127   4.783
 9095TIP3    H227250   5.391   2.082   4.774
 9096TIP3   OH227251   1.879   1.189   4.495
 9096TIP3    H127252   1.897   1.274   4.535
 9096TIP3    H227253   1.915   1.197   4.406
 9097TIP3   OH227254   4.274   2.682   0.356
 9097TIP3    H127255   4.342   2.738   0.394
 9097TIP3    H227256   4.315   2.596   0.349
 9098TIP3   OH227257   5.808   6.332   0.218
 9098TIP3    H127258   5.779   6.244   0.240
 9098TIP3    H227259   5.888   6.319   0.167
 9099TIP3   OH227260   5.946   4.330   3.214
 9099TIP3    H127261   5.918   4.242   3.189
 9099TIP3    H227262   5.979   4.320   3.303
 9100TIP3   OH227263   4.662   6.684   0.655
 9100TIP3    H127264   4.713   6.604   0.664
 9100TIP3    H227265   4.575   6.654   0.627
 9101TIP3   OH227266   4.422   1.619   0.616
 9101TIP3    H127267   4.461   1.538   0.582
 9101TIP3    H227268   4.343   1.590   0.661
 9102TIP3   OH227269   1.131   3.199   3.507
 9102TIP3    H127270   1.172   3.285   3.500
 9102TIP3    H227271   1.046   3.210   3.465
 9103TIP3   OH227272   6.419   6.433   1.251
 9103TIP3    H127273   6.394   6.413   1.160
 9103TIP3    H227274   6.337   6.457   1.293
 9104TIP3   OH227275   4.753   4.169   0.365
 9104TIP3    H127276   4.749   4.253   0.321
 9104TIP3    H227277   4.812   4.183   0.439
 9105TIP3   OH227278   3.105   1.052   1.069
 9105TIP3    H127279   3.080   0.974   1.020
 9105TIP3    H227280   3.038   1.117   1.045
 9106TIP3   OH227281   5.238   0.474   3.292
 9106TIP3    H127282   5.223   0.491   3.199
 9106TIP3    H227283   5.177   0.403   3.314
 9107TIP3   OH227284   3.990   3.439   5.277
 9107TIP3    H127285   4.035   3.448   5.193
 9107TIP3    H227286   4.035   3.501   5.334
 9108TIP3   OH227287   4.877   4.649   2.523
 9108TIP3    H127288   4.813   4.633   2.453
 9108TIP3    H227289   4.935   4.573   2.519
 9109TIP3   OH227290   3.661   4.019   5.260
 9109TIP3    H127291   3.619   3.964   5.327
 9109TIP3    H227292   3.657   4.107   5.297
 9110TIP3   OH227293   3.010   4.551   1.259
 9110TIP3    H127294   2.977   4.639   1.277
 9110TIP3    H227295   2.932   4.497   1.249
 9111TIP3   OH227296   4.156   0.404   0.529
 9111TIP3    H127297   4.157   0.341   0.601
 9111TIP3    H227298   4.249   0.420   0.510
 9112TIP3   OH227299   3.244   2.261   0.300
 9112TIP3    H127300   3.150   2.281   0.296
 9112TIP3    H227301   3.273   2.264   0.209
 9113TIP3   OH227302   1.655   3.207   0.356
 9113TIP3    H127303   1.700   3.157   0.424
 9113TIP3    H227304   1.661   3.151   0.278
 9114TIP3   OH227305   0.442   0.048   0.136
 9114TIP3    H127306   0.527   0.060   0.177
 9114TIP3    H227307   0.423   0.132   0.094
 9115TIP3   OH227308   6.905   6.404   0.319
 9115TIP3    H127309   6.912   6.308   0.326
 9115TIP3    H227310   6.872   6.431   0.405
 9116TIP3   OH227311   0.872   6.396   1.983
 9116TIP3    H127312   0.821   6.377   1.905
 9116TIP3    H227313   0.807   6.418   2.050
 9117TIP3   OH227314   4.058   4.714   3.360
 9117TIP3    H127315   4.013   4.773   3.300
 9117TIP3    H227316   4.109   4.771   3.418
 9118TIP3   OH227317   0.790   5.297   0.253
 9118TIP3    H127318   0.884   5.295   0.273
 9118TIP3    H227319   0.776   5.383   0.214
 9119TIP3   OH227320   1.401   2.050   3.235
 9119TIP3    H127321   1.461   1.990   3.279
 9119TIP3    H227322   1.320   2.043   3.286
 9120TIP3   OH227323   5.085   6.602   1.708
 9120TIP3    H127324   4.989   6.596   1.710
 9120TIP3    H227325   5.103   6.694   1.725
 9121TIP3   OH227326   2.159   3.072   1.399
 9121TIP3    H127327   2.249   3.045   1.419
 9121TIP3    H227328   2.126   3.004   1.341
 9122TIP3   OH227329   2.351   3.067   1.046
 9122TIP3    H127330   2.308   3.153   1.051
 9122TIP3    H227331   2.362   3.051   0.952
 9123TIP3   OH227332   5.021   2.889   0.701
 9123TIP3    H127333   5.023   2.975   0.742
 9123TIP3    H227334   5.112   2.862   0.695
 9124TIP3   OH227335   2.763   4.928   4.655
 9124TIP3    H127336   2.694   4.977   4.700
 9124TIP3    H227337   2.765   4.965   4.567
 9125TIP3   OH227338   5.922   5.183   3.855
 9125TIP3    H127339   5.905   5.257   3.914
 9125TIP3    H227340   5.960   5.224   3.777
 9126TIP3   OH227341   1.542   1.716   5.489
 9126TIP3    H127342   1.493   1.796   5.508
 9126TIP3    H227343   1.480   1.645   5.505
 9127TIP3   OH227344   0.018   2.099   1.516
 9127TIP3    H127345   0.098   2.137   1.553
 9127TIP3    H227346  -0.046   2.107   1.587
 9128TIP3   OH227347   2.232   4.535   2.518
 9128TIP3    H127348   2.180   4.562   2.593
 9128TIP3    H227349   2.294   4.607   2.505
 9129TIP3   OH227350   4.094   1.615   5.739
 9129TIP3    H127351   4.119   1.699   5.700
 9129TIP3    H227352   4.154   1.604   5.813
 9130TIP3   OH227353   5.068   3.599   0.239
 9130TIP3    H127354   5.018   3.610   0.158
 9130TIP3    H227355   5.076   3.688   0.274
 9131TIP3   OH227356   5.178   4.460   0.963
 9131TIP3    H127357   5.178   4.440   0.869
 9131TIP3    H227358   5.106   4.407   0.999
 9132TIP3   OH227359   1.745   0.684   1.564
 9132TIP3    H127360   1.757   0.745   1.636
 9132TIP3    H227361   1.747   0.597   1.604
 9133TIP3   OH227362   7.180   2.764   4.755
 9133TIP3    H127363   7.189   2.672   4.733
 9133TIP3    H227364   7.219   2.772   4.842
 9134TIP3   OH227365   5.386   6.147   0.995
 9134TIP3    H127366   5.442   6.133   0.918
 9134TIP3    H227367   5.409   6.075   1.054
 9135TIP3   OH227368   1.523   6.571   4.914
 9135TIP3    H127369   1.610   6.576   4.875
 9135TIP3    H227370   1.535   6.599   5.004
 9136TIP3   OH227371   5.922   1.357   4.167
 9136TIP3    H127372   5.965   1.386   4.086
 9136TIP3    H227373   5.844   1.412   4.173
 9137TIP3   OH227374   4.455   4.725   5.130
 9137TIP3    H127375   4.532   4.764   5.089
 9137TIP3    H227376   4.490   4.680   5.207
 9138TIP3   OH227377   0.115   1.907   4.594
 9138TIP3    H127378   0.126   1.834   4.655
 9138TIP3    H227379   0.042   1.880   4.538
 9139TIP3   OH227380   3.273   3.281   1.619
 9139TIP3    H127381   3.353   3.288   1.568
 9139TIP3    H227382   3.302   3.289   1.710
 9140TIP3   OH227383   5.203   2.120   2.587
 9140TIP3    H127384   5.240   2.032   2.587
 9140TIP3    H227385   5.271   2.174   2.629
 9141TIP3   OH227386   0.259   6.534   0.011
 9141TIP3    H127387   0.274   6.552  -0.082
 9141TIP3    H227388   0.346   6.512   0.045
 9142TIP3   OH227389   3.470   2.662   3.294
 9142TIP3    H127390   3.564   2.644   3.286
 9142TIP3    H227391   3.432   2.578   3.321
 9143TIP3   OH227392   5.450   2.803   4.939
 9143TIP3    H127393   5.406   2.754   4.869
 9143TIP3    H227394   5.511   2.740   4.977
 9144TIP3   OH227395   5.136   3.950   4.904
 9144TIP3    H127396   5.041   3.935   4.897
 9144TIP3    H227397   5.163   3.968   4.814
 9145TIP3   OH227398   3.613   2.075   0.803
 9145TIP3    H127399   3.523   2.066   0.772
 9145TIP3    H227400   3.611   2.148   0.864
 9146TIP3   OH227401   4.204   0.963   4.059
 9146TIP3    H127402   4.145   1.038   4.063
 9146TIP3    H227403   4.292   1.001   4.057
 9147TIP3   OH227404   3.582   4.165   4.402
 9147TIP3    H127405   3.526   4.088   4.415
 9147TIP3    H227406   3.619   4.182   4.489
 9148TIP3   OH227407   0.826   2.910   0.798
 9148TIP3    H127408   0.766   2.880   0.866
 9148TIP3    H227409   0.793   2.998   0.775
 9149TIP3   OH227410   1.153   5.397   3.276
 9149TIP3    H127411   1.194   5.453   3.211
 9149TIP3    H227412   1.059   5.408   3.262
 9150TIP3   OH227413   3.599   0.758   0.065
 9150TIP3    H127414   3.541   0.815   0.115
 9150TIP3    H227415   3.678   0.809   0.052
 9151TIP3   OH227416   2.312   0.352   3.927
 9151TIP3    H127417   2.334   0.444   3.914
 9151TIP3    H227418   2.366   0.325   4.002
 9152TIP3   OH227419   2.681   6.213   1.183
 9152TIP3    H127420   2.608   6.164   1.147
 9152TIP3    H227421   2.688   6.290   1.126
 9153TIP3   OH227422   6.484   2.750   5.753
 9153TIP3    H127423   6.498   2.670   5.702
 9153TIP3    H227424   6.396   2.779   5.727
 9154TIP3   OH227425   0.862   4.620   3.546
 9154TIP3    H127426   0.852   4.700   3.598
 9154TIP3    H227427   0.868   4.651   3.456
 9155TIP3   OH227428   4.665   3.622   5.078
 9155TIP3    H127429   4.624   3.652   5.160
 9155TIP3    H227430   4.629   3.681   5.011
 9156TIP3   OH227431   7.047   3.448   2.028
 9156TIP3    H127432   6.976   3.510   2.010
 9156TIP3    H227433   7.123   3.486   1.984
 9157TIP3   OH227434   5.019   2.994   2.223
 9157TIP3    H127435   4.979   2.970   2.307
 9157TIP3    H227436   5.013   2.915   2.170
 9158TIP3   OH227437   1.368   6.472   2.797
 9158TIP3    H127438   1.400   6.563   2.796
 9158TIP3    H227439   1.327   6.462   2.883
 9159TIP3   OH227440   3.389   6.149   5.014
 9159TIP3    H127441   3.323   6.085   4.988
 9159TIP3    H227442   3.347   6.234   4.998
 9160TIP3   OH227443   0.011   3.894   0.164
 9160TIP3    H127444  -0.068   3.945   0.182
 9160TIP3    H227445   0.030   3.910   0.072
 9161TIP3   OH227446   2.869   4.711   2.783
 9161TIP3    H127447   2.950   4.716   2.733
 9161TIP3    H227448   2.813   4.653   2.732
 9162TIP3   OH227449   7.133   3.584   3.895
 9162TIP3    H127450   7.203   3.568   3.831
 9162TIP3    H227451   7.164   3.659   3.945
 9163TIP3   OH227452   0.469   6.444   3.802
 9163TIP3    H127453   0.556   6.406   3.816
 9163TIP3    H227454   0.409   6.380   3.839
 9164TIP3   OH227455   0.218   0.790   2.669
 9164TIP3    H127456   0.273   0.846   2.615
 9164TIP3    H227457   0.227   0.826   2.757
 9165TIP3   OH227458   0.307   3.854   5.774
 9165TIP3    H127459   0.315   3.899   5.858
 9165TIP3    H227460   0.214   3.855   5.755
 9166TIP3   OH227461   4.115   2.005   5.392
 9166TIP3    H127462   4.117   2.101   5.391
 9166TIP3    H227463   4.140   1.982   5.482
 9167TIP3   OH227464   5.400   5.034   0.741
 9167TIP3    H127465   5.421   4.943   0.763
 9167TIP3    H227466   5.485   5.076   0.729
 9168TIP3   OH227467   2.119   0.577   0.534
 9168TIP3    H127468   2.043   0.523   0.554
 9168TIP3    H227469   2.151   0.544   0.450
 9169TIP3   OH227470   3.155   5.769   5.111
 9169TIP3    H127471   3.094   5.705   5.147
 9169TIP3    H227472   3.237   5.722   5.101
 9170TIP3   OH227473   6.339   0.095   0.849
 9170TIP3    H127474   6.262   0.116   0.797
 9170TIP3    H227475   6.391   0.176   0.850
 9171TIP3   OH227476   1.672   1.187   5.194
 9171TIP3    H127477   1.688   1.110   5.249
 9171TIP3    H227478   1.741   1.184   5.128
 9172TIP3   OH227479   1.600   3.932   3.286
 9172TIP3    H127480   1.649   3.968   3.212
 9172TIP3    H227481   1.509   3.945   3.263
 9173TIP3   OH227482   5.104   6.753   5.604
 9173TIP3    H127483   5.196   6.739   5.623
 9173TIP3    H227484   5.090   6.847   5.616
 9174TIP3   OH227485   1.824   1.114   5.815
 9174TIP3    H127486   1.740   1.081   5.848
 9174TIP3    H227487   1.889   1.051   5.847
 9175TIP3   OH227488   5.906   2.405   2.479
 9175TIP3    H127489   5.847   2.458   2.532
 9175TIP3    H227490   5.896   2.440   2.390
 9176TIP3   OH227491   5.153   2.830   1.373
 9176TIP3    H127492   5.087   2.767   1.342
 9176TIP3    H227493   5.217   2.834   1.302
 9177TIP3   OH227494   2.680   0.259   2.629
 9177TIP3    H127495   2.663   0.349   2.601
 9177TIP3    H227496   2.628   0.205   2.570
 9178TIP3   OH227497   2.318   0.231   1.594
 9178TIP3    H127498   2.329   0.174   1.517
 9178TIP3    H227499   2.226   0.221   1.619
 9179TIP3   OH227500   4.318   6.176   4.583
 9179TIP3    H127501   4.277   6.262   4.589
 9179TIP3    H227502   4.267   6.129   4.517
 9180TIP3   OH227503   4.523   2.648   5.289
 9180TIP3    H127504   4.493   2.557   5.287
 9180TIP3    H227505   4.618   2.642   5.286
 9181TIP3   OH227506   2.626   1.230   1.996
 9181TIP3    H127507   2.654   1.316   2.028
 9181TIP3    H227508   2.698   1.171   2.018
 9182TIP3   OH227509   0.690   6.671   2.556
 9182TIP3    H127510   0.721   6.619   2.482
 9182TIP3    H227511   0.698   6.613   2.631
 9183TIP3   OH227512   2.042   4.323   4.773
 9183TIP3    H127513   1.950   4.340   4.755
 9183TIP3    H227514   2.090   4.376   4.710
 9184TIP3   OH227515   1.077   3.047   2.536
 9184TIP3    H127516   1.045   2.967   2.577
 9184TIP3    H227517   1.120   3.018   2.456
 9185TIP3   OH227518   3.030   4.073   2.288
 9185TIP3    H127519   2.976   4.028   2.354
 9185TIP3    H227520   3.003   4.164   2.293
 9186TIP3   OH227521   2.441   1.399   1.025
 9186TIP3    H127522   2.451   1.363   1.113
 9186TIP3    H227523   2.500   1.346   0.970
 9187TIP3   OH227524   5.711   3.757   0.083
 9187TIP3    H127525   5.640   3.786   0.139
 9187TIP3    H227526   5.778   3.725   0.144
 9188TIP3   OH227527   2.872   0.425   3.334
 9188TIP3    H127528   2.919   0.508   3.339
 9188TIP3    H227529   2.803   0.432   3.400
 9189TIP3   OH227530   5.373   1.197   0.815
 9189TIP3    H127531   5.406   1.128   0.757
 9189TIP3    H227532   5.278   1.183   0.817
 9190TIP3   OH227533   2.318   3.715   1.769
 9190TIP3    H127534   2.410   3.702   1.792
 9190TIP3    H227535   2.269   3.666   1.835
 9191TIP3   OH227536   3.987   0.591   2.119
 9191TIP3    H127537   3.901   0.550   2.108
 9191TIP3    H227538   4.043   0.519   2.150
 9192TIP3   OH227539   1.756   6.714   3.937
 9192TIP3    H127540   1.734   6.659   3.863
 9192TIP3    H227541   1.844   6.747   3.917
 9193TIP3   OH227542   5.312   2.457   5.661
 9193TIP3    H127543   5.229   2.493   5.692
 9193TIP3    H227544   5.378   2.513   5.701
 9194TIP3   OH227545   0.885   0.561   5.778
 9194TIP3    H127546   0.809   0.580   5.832
 9194TIP3    H227547   0.852   0.500   5.711
 9195TIP3   OH227548   6.077   3.425   0.237
 9195TIP3    H127549   6.030   3.508   0.223
 9195TIP3    H227550   6.136   3.417   0.163
 9196TIP3   OH227551   5.958   6.648   1.173
 9196TIP3    H127552   5.865   6.625   1.164
 9196TIP3    H227553   5.959   6.715   1.241
 9197TIP3   OH227554   0.672   0.801   2.838
 9197TIP3    H127555   0.581   0.798   2.865
 9197TIP3    H227556   0.706   0.713   2.856
 9198TIP3   OH227557   0.184   5.863   5.033
 9198TIP3    H127558   0.278   5.853   5.045
 9198TIP3    H227559   0.164   5.947   5.074
 9199TIP3   OH227560   1.654   4.210   5.202
 9199TIP3    H127561   1.620   4.127   5.235
 9199TIP3    H227562   1.688   4.189   5.115
 9200TIP3   OH227563   1.253   6.555   5.790
 9200TIP3    H127564   1.177   6.499   5.803
 9200TIP3    H227565   1.222   6.643   5.809
 9201TIP3   OH227566   4.056   0.493   0.928
 9201TIP3    H127567   4.020   0.506   0.840
 9201TIP3    H227568   3.984   0.455   0.978
 9202TIP3   OH227569   3.376   5.585   4.335
 9202TIP3    H127570   3.350   5.657   4.392
 9202TIP3    H227571   3.424   5.626   4.263
 9203TIP3   OH227572   2.078   3.090   0.225
 9203TIP3    H127573   2.157   3.077   0.172
 9203TIP3    H227574   2.104   3.064   0.313
 9204TIP3   OH227575   5.005   2.849   4.631
 9204TIP3    H127576   5.065   2.897   4.573
 9204TIP3    H227577   5.023   2.757   4.613
 9205TIP3   OH227578   0.510   5.564   1.275
 9205TIP3    H127579   0.486   5.641   1.222
 9205TIP3    H227580   0.567   5.513   1.218
 9206TIP3   OH227581   1.868   6.000   5.557
 9206TIP3    H127582   1.800   5.997   5.624
 9206TIP3    H227583   1.829   6.049   5.485
 9207TIP3   OH227584   1.410   4.733   0.948
 9207TIP3    H127585   1.406   4.745   1.043
 9207TIP3    H227586   1.404   4.822   0.912
 9208TIP3   OH227587   1.234   3.504   0.310
 9208TIP3    H127588   1.153   3.543   0.275
 9208TIP3    H227589   1.207   3.461   0.390
 9209TIP3   OH227590   2.587   3.808   3.402
 9209TIP3    H127591   2.531   3.735   3.376
 9209TIP3    H227592   2.676   3.773   3.399
 9210TIP3   OH227593   2.627   3.256   0.289
 9210TIP3    H127594   2.646   3.342   0.327
 9210TIP3    H227595   2.647   3.267   0.196
 9211TIP3   OH227596   5.368   5.966   3.563
 9211TIP3    H127597   5.282   5.932   3.539
 9211TIP3    H227598   5.353   6.058   3.582
 9212TIP3   OH227599   5.493   2.554   5.451
 9212TIP3    H127600   5.414   2.534   5.500
 9212TIP3    H227601   5.487   2.647   5.431
 9213TIP3   OH227602   5.543   1.066   2.669
 9213TIP3    H127603   5.447   1.064   2.665
 9213TIP3    H227604   5.562   1.105   2.754
 9214TIP3   OH227605   5.966   2.776   2.747
 9214TIP3    H127606   6.022   2.835   2.697
 9214TIP3    H227607   6.023   2.742   2.816
 9215TIP3   OH227608   7.037   4.383   1.615
 9215TIP3    H127609   7.009   4.396   1.706
 9215TIP3    H227610   7.128   4.412   1.613
 9216TIP3   OH227611   5.947   6.061   3.849
 9216TIP3    H127612   5.871   6.078   3.793
 9216TIP3    H227613   5.915   6.078   3.937
 9217TIP3   OH227614   5.440   1.659   4.472
 9217TIP3    H127615   5.356   1.648   4.428
 9217TIP3    H227616   5.504   1.669   4.401
 9218TIP3   OH227617   5.817   4.887   3.176
 9218TIP3    H127618   5.894   4.938   3.204
 9218TIP3    H227619   5.850   4.799   3.163
 9219TIP3   OH227620   3.741   2.590   3.418
 9219TIP3    H127621   3.758   2.628   3.504
 9219TIP3    H227622   3.688   2.513   3.436
 9220TIP3   OH227623   0.765   3.638   2.278
 9220TIP3    H127624   0.698   3.612   2.341
 9220TIP3    H227625   0.839   3.581   2.298
 9221TIP3   OH227626   2.711   5.335   1.495
 9221TIP3    H127627   2.768   5.389   1.440
 9221TIP3    H227628   2.633   5.321   1.441
 9222TIP3   OH227629   5.809   0.358   3.290
 9222TIP3    H127630   5.764   0.420   3.233
 9222TIP3    H227631   5.792   0.389   3.379
 9223TIP3   OH227632   1.711   0.687   4.265
 9223TIP3    H127633   1.616   0.700   4.275
 9223TIP3    H227634   1.749   0.771   4.287
 9224TIP3   OH227635   5.791   3.655   2.750
 9224TIP3    H127636   5.705   3.696   2.762
 9224TIP3    H227637   5.852   3.711   2.799
 9225TIP3   OH227638   5.406   5.338   5.268
 9225TIP3    H127639   5.429   5.421   5.226
 9225TIP3    H227640   5.337   5.301   5.213
 9226TIP3   OH227641   4.830   6.217   4.007
 9226TIP3    H127642   4.751   6.188   4.052
 9226TIP3    H227643   4.896   6.151   4.029
 9227TIP3   OH227644   1.295   3.878   2.806
 9227TIP3    H127645   1.233   3.889   2.734
 9227TIP3    H227646   1.363   3.821   2.771
 9228TIP3   OH227647   4.676   4.491   1.452
 9228TIP3    H127648   4.667   4.403   1.488
 9228TIP3    H227649   4.588   4.528   1.459
 9229TIP3   OH227650   4.909   4.403   2.829
 9229TIP3    H127651   4.821   4.383   2.796
 9229TIP3    H227652   4.900   4.489   2.870
 9230TIP3   OH227653   6.437   0.625   3.821
 9230TIP3    H127654   6.371   0.692   3.841
 9230TIP3    H227655   6.502   0.671   3.769
 9231TIP3   OH227656   4.245   3.999   2.073
 9231TIP3    H127657   4.235   3.951   2.155
 9231TIP3    H227658   4.304   4.070   2.093
 9232TIP3   OH227659   6.839   0.111   4.017
 9232TIP3    H127660   6.898   0.186   4.028
 9232TIP3    H227661   6.752   0.150   4.013
 9233TIP3   OH227662   1.773   1.252   3.100
 9233TIP3    H127663   1.712   1.181   3.118
 9233TIP3    H227664   1.784   1.296   3.184
 9234TIP3   OH227665   4.931   3.158   5.085
 9234TIP3    H127666   4.837   3.139   5.090
 9234TIP3    H227667   4.951   3.155   4.991
 9235TIP3   OH227668   4.099   1.833   2.444
 9235TIP3    H127669   4.006   1.811   2.438
 9235TIP3    H227670   4.109   1.876   2.529
 9236TIP3   OH227671   4.303   3.606   0.520
 9236TIP3    H127672   4.248   3.684   0.527
 9236TIP3    H227673   4.245   3.537   0.488
 9237TIP3   OH227674   0.942   1.684   0.497
 9237TIP3    H127675   1.036   1.666   0.506
 9237TIP3    H227676   0.900   1.599   0.510
 9238TIP3   OH227677   1.968   4.775   0.149
 9238TIP3    H127678   1.893   4.723   0.178
 9238TIP3    H227679   2.030   4.769   0.221
 9239TIP3   OH227680   2.207   3.579   0.528
 9239TIP3    H127681   2.158   3.647   0.573
 9239TIP3    H227682   2.143   3.509   0.513
 9240TIP3   OH227683   1.320   5.952   1.295
 9240TIP3    H127684   1.364   6.037   1.286
 9240TIP3    H227685   1.251   5.968   1.359
 9241TIP3   OH227686   2.887   2.776   1.189
 9241TIP3    H127687   2.840   2.835   1.130
 9241TIP3    H227688   2.878   2.690   1.148
 9242TIP3   OH227689   0.918   5.558   2.485
 9242TIP3    H127690   0.973   5.507   2.426
 9242TIP3    H227691   0.978   5.615   2.532
 9243TIP3   OH227692   4.119   4.931   4.940
 9243TIP3    H127693   4.024   4.929   4.943
 9243TIP3    H227694   4.140   5.021   4.914
 9244TIP3   OH227695   0.554   0.166   0.941
 9244TIP3    H127696   0.486   0.115   0.897
 9244TIP3    H227697   0.563   0.124   1.027
 9245TIP3   OH227698   1.465   2.898   3.172
 9245TIP3    H127699   1.407   2.844   3.119
 9245TIP3    H227700   1.477   2.849   3.253
 9246TIP3   OH227701   2.315   0.064   0.921
 9246TIP3    H127702   2.347  -0.024   0.945
 9246TIP3    H227703   2.392   0.120   0.929
 9247TIP3   OH227704   1.487   5.336   1.660
 9247TIP3    H127705   1.464   5.427   1.642
 9247TIP3    H227706   1.403   5.292   1.674
 9248TIP3   OH227707   6.566   0.846   5.639
 9248TIP3    H127708   6.540   0.916   5.700
 9248TIP3    H227709   6.529   0.873   5.555
 9249TIP3   OH227710   6.054   5.649   2.552
 9249TIP3    H127711   6.047   5.695   2.636
 9249TIP3    H227712   6.026   5.713   2.487
 9250TIP3   OH227713   2.987   4.114   2.839
 9250TIP3    H127714   2.912   4.099   2.896
 9250TIP3    H227715   2.965   4.194   2.791
 9251TIP3   OH227716   5.357   4.178   1.479
 9251TIP3    H127717   5.380   4.106   1.538
 9251TIP3    H227718   5.280   4.147   1.432
 9252TIP3   OH227719   6.354   3.455   1.223
 9252TIP3    H127720   6.315   3.506   1.294
 9252TIP3    H227721   6.361   3.367   1.258
 9253TIP3   OH227722   6.823   3.800   0.906
 9253TIP3    H127723   6.768   3.786   0.983
 9253TIP3    H227724   6.762   3.826   0.837
 9254TIP3   OH227725   5.790   5.148   4.725
 9254TIP3    H127726   5.872   5.099   4.726
 9254TIP3    H227727   5.793   5.199   4.806
 9255TIP3   OH227728   4.701   4.557   5.079
 9255TIP3    H127729   4.752   4.560   5.159
 9255TIP3    H227730   4.766   4.562   5.009
 9256TIP3   OH227731   5.686   4.686   5.171
 9256TIP3    H127732   5.776   4.715   5.152
 9256TIP3    H227733   5.696   4.599   5.209
 9257TIP3   OH227734   0.961   0.786   1.494
 9257TIP3    H127735   1.047   0.829   1.489
 9257TIP3    H227736   0.955   0.756   1.584
 9258TIP3   OH227737   3.546   3.433   1.227
 9258TIP3    H127738   3.637   3.404   1.232
 9258TIP3    H227739   3.548   3.508   1.168
 9259TIP3   OH227740   5.722   1.519   1.214
 9259TIP3    H127741   5.643   1.525   1.161
 9259TIP3    H227742   5.781   1.463   1.162
 9260TIP3   OH227743   6.797   1.524   2.317
 9260TIP3    H127744   6.839   1.457   2.263
 9260TIP3    H227745   6.862   1.594   2.325
 9261TIP3   OH227746   0.539   2.745   4.365
 9261TIP3    H127747   0.553   2.693   4.444
 9261TIP3    H227748   0.470   2.807   4.389
 9262TIP3   OH227749   0.781   2.864   5.549
 9262TIP3    H127750   0.850   2.864   5.483
 9262TIP3    H227751   0.702   2.890   5.502
 9263TIP3   OH227752   5.981   1.465   1.389
 9263TIP3    H127753   5.972   1.440   1.297
 9263TIP3    H227754   6.075   1.481   1.400
 9264TIP3   OH227755   6.508   3.853   2.083
 9264TIP3    H127756   6.591   3.834   2.039
 9264TIP3    H227757   6.534   3.897   2.164
 9265TIP3   OH227758   2.706   6.442   1.001
 9265TIP3    H127759   2.692   6.527   1.044
 9265TIP3    H227760   2.639   6.438   0.933
 9266TIP3   OH227761   2.517   2.741   2.582
 9266TIP3    H127762   2.539   2.754   2.489
 9266TIP3    H227763   2.523   2.829   2.620
 9267TIP3   OH227764   3.123   0.719   2.973
 9267TIP3    H127765   3.044   0.672   2.947
 9267TIP3    H227766   3.092   0.806   2.997
 9268TIP3   OH227767   6.568   3.184   3.976
 9268TIP3    H127768   6.663   3.197   3.975
 9268TIP3    H227769   6.557   3.098   4.016
 9269TIP3   OH227770   4.331   4.857   3.278
 9269TIP3    H127771   4.311   4.763   3.278
 9269TIP3    H227772   4.289   4.891   3.357
 9270TIP3   OH227773   4.337   4.545   3.750
 9270TIP3    H127774   4.422   4.501   3.755
 9270TIP3    H227775   4.287   4.493   3.686
 9271TIP3   OH227776   6.910   5.709   5.718
 9271TIP3    H127777   6.979   5.646   5.696
 9271TIP3    H227778   6.829   5.657   5.714
 9272TIP3   OH227779   6.173   0.248   2.970
 9272TIP3    H127780   6.154   0.252   2.876
 9272TIP3    H227781   6.124   0.322   3.007
 9273TIP3   OH227782   2.781   6.023   5.488
 9273TIP3    H127783   2.821   5.941   5.459
 9273TIP3    H227784   2.687   6.003   5.489
 9274TIP3   OH227785   2.067   6.383   1.801
 9274TIP3    H127786   1.975   6.358   1.810
 9274TIP3    H227787   2.115   6.307   1.832
 9275TIP3   OH227788   3.326   6.575   3.570
 9275TIP3    H127789   3.386   6.613   3.633
 9275TIP3    H227790   3.254   6.638   3.563
 9276TIP3   OH227791   3.097   6.527   5.110
 9276TIP3    H127792   3.027   6.592   5.112
 9276TIP3    H227793   3.069   6.459   5.171
 9277TIP3   OH227794   2.162   2.380   2.827
 9277TIP3    H127795   2.094   2.405   2.889
 9277TIP3    H227796   2.214   2.459   2.814
 9278TIP3   OH227797   3.578   5.515   1.821
 9278TIP3    H127798   3.658   5.551   1.783
 9278TIP3    H227799   3.526   5.486   1.745
 9279TIP3   OH227800   0.045   5.128   4.871
 9279TIP3    H127801   0.079   5.063   4.809
 9279TIP3    H227802  -0.047   5.138   4.846
 9280TIP3   OH227803   1.093   0.375   0.830
 9280TIP3    H127804   1.036   0.300   0.810
 9280TIP3    H227805   1.182   0.340   0.818
 9281TIP3   OH227806   5.138   2.838   3.001
 9281TIP3    H127807   5.073   2.870   2.939
 9281TIP3    H227808   5.108   2.749   3.023
 9282TIP3   OH227809   0.991   2.822   2.650
 9282TIP3    H127810   1.060   2.799   2.712
 9282TIP3    H227811   0.945   2.740   2.632
 9283TIP3   OH227812   2.743   0.787   0.802
 9283TIP3    H127813   2.719   0.717   0.863
 9283TIP3    H227814   2.758   0.742   0.718
 9284TIP3   OH227815   3.326   2.687   3.741
 9284TIP3    H127816   3.342   2.765   3.795
 9284TIP3    H227817   3.337   2.613   3.802
 9285TIP3   OH227818   1.675   3.630   5.832
 9285TIP3    H127819   1.610   3.564   5.806
 9285TIP3    H227820   1.704   3.668   5.749
 9286TIP3   OH227821   6.451   1.549   4.134
 9286TIP3    H127822   6.428   1.509   4.218
 9286TIP3    H227823   6.400   1.630   4.132
 9287TIP3   OH227824   1.942   3.115   1.731
 9287TIP3    H127825   2.004   3.058   1.777
 9287TIP3    H227826   1.997   3.171   1.677
 9288TIP3   OH227827   3.603   2.757   0.530
 9288TIP3    H127828   3.609   2.752   0.434
 9288TIP3    H227829   3.510   2.774   0.547
 9289TIP3   OH227830   5.836   1.361   2.319
 9289TIP3    H127831   5.782   1.314   2.255
 9289TIP3    H227832   5.783   1.362   2.399
 9290TIP3   OH227833   4.928   3.651   2.011
 9290TIP3    H127834   5.005   3.603   1.981
 9290TIP3    H227835   4.863   3.638   1.942
 9291TIP3   OH227836   6.674   0.286   3.695
 9291TIP3    H127837   6.613   0.310   3.765
 9291TIP3    H227838   6.674   0.361   3.636
 9292TIP3   OH227839   3.997   2.739   5.272
 9292TIP3    H127840   4.062   2.759   5.204
 9292TIP3    H227841   3.946   2.820   5.281
 9293TIP3   OH227842   0.257   3.914   0.720
 9293TIP3    H127843   0.352   3.918   0.732
 9293TIP3    H227844   0.223   3.977   0.784
 9294TIP3   OH227845   7.002   5.084   5.746
 9294TIP3    H127846   7.072   5.037   5.700
 9294TIP3    H227847   6.923   5.034   5.727
 9295TIP3   OH227848   4.106   3.307   0.927
 9295TIP3    H127849   4.179   3.369   0.927
 9295TIP3    H227850   4.042   3.347   0.868
 9296TIP3   OH227851   7.016   0.132   5.441
 9296TIP3    H127852   7.098   0.179   5.427
 9296TIP3    H227853   6.949   0.189   5.404
 9297TIP3   OH227854   1.396   5.589   1.607
 9297TIP3    H127855   1.334   5.621   1.542
 9297TIP3    H227856   1.393   5.655   1.677
 9298TIP3   OH227857   5.386   4.504   3.632
 9298TIP3    H127858   5.403   4.567   3.562
 9298TIP3    H227859   5.452   4.522   3.698
 9299TIP3   OH227860   5.945   0.762   5.500
 9299TIP3    H127861   6.019   0.771   5.441
 9299TIP3    H227862   5.904   0.679   5.474
 9300TIP3   OH227863   1.405   5.525   1.223
 9300TIP3    H127864   1.369   5.570   1.146
 9300TIP3    H227865   1.334   5.528   1.287
 9301TIP3   OH227866   2.903   5.044   0.764
 9301TIP3    H127867   2.979   4.985   0.771
 9301TIP3    H227868   2.872   5.031   0.674
 9302TIP3   OH227869   5.824   3.047   4.369
 9302TIP3    H127870   5.852   3.027   4.459
 9302TIP3    H227871   5.899   3.023   4.315
 9303TIP3   OH227872   4.492   1.614   3.792
 9303TIP3    H127873   4.416   1.664   3.763
 9303TIP3    H227874   4.525   1.572   3.713
 9304TIP3   OH227875   0.550   3.975   2.599
 9304TIP3    H127876   0.557   3.881   2.614
 9304TIP3    H227877   0.521   3.983   2.508
 9305TIP3   OH227878   6.935   4.941   1.694
 9305TIP3    H127879   6.944   4.935   1.789
 9305TIP3    H227880   6.896   5.027   1.678
 9306TIP3   OH227881   6.963   4.845   2.336
 9306TIP3    H127882   6.973   4.790   2.258
 9306TIP3    H227883   7.027   4.811   2.398
 9307TIP3   OH227884   5.898   1.813   2.833
 9307TIP3    H127885   5.934   1.848   2.915
 9307TIP3    H227886   5.957   1.741   2.811
 9308TIP3   OH227887   4.326   4.003   3.063
 9308TIP3    H127888   4.300   3.923   3.109
 9308TIP3    H227889   4.288   4.074   3.116
 9309TIP3   OH227890   5.353   2.895   0.483
 9309TIP3    H127891   5.325   2.893   0.575
 9309TIP3    H227892   5.444   2.864   0.486
 9310TIP3   OH227893   6.070   2.320   0.639
 9310TIP3    H127894   6.166   2.311   0.647
 9310TIP3    H227895   6.038   2.230   0.644
 9311TIP3   OH227896   0.178   5.648   1.082
 9311TIP3    H127897   0.238   5.580   1.053
 9311TIP3    H227898   0.176   5.712   1.011
 9312TIP3   OH227899   4.360   1.634   1.770
 9312TIP3    H127900   4.362   1.540   1.758
 9312TIP3    H227901   4.271   1.660   1.746
 9313TIP3   OH227902   3.776   5.891   2.981
 9313TIP3    H127903   3.857   5.899   2.932
 9313TIP3    H227904   3.743   5.981   2.989
 9314TIP3   OH227905   3.355   6.204   4.481
 9314TIP3    H127906   3.268   6.192   4.444
 9314TIP3    H227907   3.385   6.115   4.500
 9315TIP3   OH227908   3.254   5.252   0.190
 9315TIP3    H127909   3.231   5.298   0.109
 9315TIP3    H227910   3.301   5.318   0.242
 9316TIP3   OH227911   3.668   4.184   1.470
 9316TIP3    H127912   3.719   4.174   1.389
 9316TIP3    H227913   3.732   4.176   1.540
 9317TIP3   OH227914   0.228   6.060   1.921
 9317TIP3    H127915   0.194   6.147   1.902
 9317TIP3    H227916   0.260   6.065   2.011
 9318TIP3   OH227917   1.563   2.151   4.166
 9318TIP3    H127918   1.649   2.186   4.189
 9318TIP3    H227919   1.582   2.077   4.108
 9319TIP3   OH227920   1.492   3.947   4.231
 9319TIP3    H127921   1.475   4.033   4.193
 9319TIP3    H227922   1.575   3.957   4.278
 9320TIP3   OH227923   4.827   3.281   5.855
 9320TIP3    H127924   4.778   3.233   5.788
 9320TIP3    H227925   4.897   3.222   5.880
 9321TIP3   OH227926   0.766   3.755   4.461
 9321TIP3    H127927   0.755   3.772   4.368
 9321TIP3    H227928   0.856   3.781   4.480
 9322TIP3   OH227929   4.476   2.297   0.722
 9322TIP3    H127930   4.501   2.278   0.812
 9322TIP3    H227931   4.499   2.389   0.710
 9323TIP3   OH227932   7.177   3.074   1.709
 9323TIP3    H127933   7.207   3.001   1.763
 9323TIP3    H227934   7.188   3.152   1.764
 9324TIP3   OH227935   0.959   4.369   3.759
 9324TIP3    H127936   0.968   4.389   3.852
 9324TIP3    H227937   0.867   4.347   3.748
 9325TIP3   OH227938   5.110   2.807   0.033
 9325TIP3    H127939   5.043   2.872   0.009
 9325TIP3    H227940   5.104   2.801   0.128
 9326TIP3   OH227941   3.653   4.645   3.162
 9326TIP3    H127942   3.653   4.606   3.075
 9326TIP3    H227943   3.665   4.572   3.222
 9327TIP3   OH227944   1.522   3.227   2.945
 9327TIP3    H127945   1.496   3.315   2.973
 9327TIP3    H227946   1.472   3.212   2.864
 9328TIP3   OH227947   0.232   3.843   3.644
 9328TIP3    H127948   0.292   3.916   3.659
 9328TIP3    H227949   0.186   3.865   3.563
 9329TIP3   OH227950   5.152   0.493   3.024
 9329TIP3    H127951   5.072   0.441   3.013
 9329TIP3    H227952   5.181   0.513   2.935
 9330TIP3   OH227953   0.584   0.424   4.592
 9330TIP3    H127954   0.648   0.464   4.533
 9330TIP3    H227955   0.505   0.415   4.538
 9331TIP3   OH227956   7.111   0.078   2.036
 9331TIP3    H127957   7.030   0.053   2.081
 9331TIP3    H227958   7.148  -0.005   2.006
 9332TIP3   OH227959   6.486   3.331   3.464
 9332TIP3    H127960   6.526   3.413   3.435
 9332TIP3    H227961   6.553   3.290   3.519
 9333TIP3   OH227962   1.642   4.989   3.736
 9333TIP3    H127963   1.731   5.023   3.736
 9333TIP3    H227964   1.593   5.051   3.680
 9334TIP3   OH227965   2.119   0.410   5.447
 9334TIP3    H127966   2.051   0.458   5.399
 9334TIP3    H227967   2.201   0.432   5.401
 9335TIP3   OH227968   0.624   4.451   0.460
 9335TIP3    H127969   0.642   4.360   0.480
 9335TIP3    H227970   0.648   4.461   0.368
 9336TIP3   OH227971   0.414   6.541   2.087
 9336TIP3    H127972   0.365   6.493   2.020
 9336TIP3    H227973   0.446   6.473   2.147
 9337TIP3   OH227974   0.493   3.007   1.647
 9337TIP3    H127975   0.568   3.054   1.683
 9337TIP3    H227976   0.521   2.978   1.560
 9338TIP3   OH227977   6.498   6.312   0.422
 9338TIP3    H127978   6.420   6.367   0.413
 9338TIP3    H227979   6.464   6.224   0.432
 9339TIP3   OH227980   6.174   2.376   5.446
 9339TIP3    H127981   6.229   2.310   5.490
 9339TIP3    H227982   6.175   2.349   5.354
 9340TIP3   OH227983   4.823   0.910   3.011
 9340TIP3    H127984   4.767   0.976   3.050
 9340TIP3    H227985   4.827   0.932   2.918
 9341TIP3   OH227986   1.521   3.314   1.679
 9341TIP3    H127987   1.477   3.254   1.619
 9341TIP3    H227988   1.515   3.271   1.764
 9342TIP3   OH227989   4.014   5.000   1.237
 9342TIP3    H127990   4.012   5.050   1.155
 9342TIP3    H227991   4.010   5.066   1.306
 9343TIP3   OH227992   2.226   0.947   1.938
 9343TIP3    H127993   2.237   0.941   2.033
 9343TIP3    H227994   2.313   0.930   1.902
 9344TIP3   OH227995   1.455   2.789   2.622
 9344TIP3    H127996   1.450   2.700   2.657
 9344TIP3    H227997   1.453   2.846   2.699
 9345TIP3   OH227998   1.959   5.263   5.331
 9345TIP3    H127999   1.898   5.322   5.375
 9345TIP3    H228000   1.966   5.298   5.242
 9346TIP3   OH228001   5.460   0.383   5.477
 9346TIP3    H128002   5.497   0.433   5.404
 9346TIP3    H228003   5.415   0.310   5.436
 9347TIP3   OH228004   7.186   2.354   5.192
 9347TIP3    H128005   7.136   2.309   5.261
 9347TIP3    H228006   7.276   2.352   5.223
 9348TIP3   OH228007   1.955   5.755   1.528
 9348TIP3    H128008   1.990   5.690   1.588
 9348TIP3    H228009   2.010   5.748   1.449
 9349TIP3   OH228010   6.469   3.569   1.705
 9349TIP3    H128011   6.531   3.522   1.650
 9349TIP3    H228012   6.430   3.502   1.762
 9350TIP3   OH228013   2.196   0.290   3.252
 9350TIP3    H128014   2.260   0.309   3.321
 9350TIP3    H228015   2.209   0.359   3.188
 9351TIP3   OH228016   2.651   0.444   4.805
 9351TIP3    H128017   2.740   0.409   4.814
 9351TIP3    H228018   2.620   0.409   4.722
 9352TIP3   OH228019   6.230   1.040   0.992
 9352TIP3    H128020   6.312   1.003   0.959
 9352TIP3    H228021   6.222   1.124   0.947
 9353TIP3   OH228022   3.711   0.036   0.380
 9353TIP3    H128023   3.617   0.026   0.360
 9353TIP3    H228024   3.737   0.115   0.333
 9354TIP3   OH228025   5.993   0.158   4.775
 9354TIP3    H128026   5.975   0.080   4.724
 9354TIP3    H228027   6.038   0.218   4.715
 9355TIP3   OH228028   1.263   3.359   3.749
 9355TIP3    H128029   1.178   3.314   3.744
 9355TIP3    H228030   1.314   3.321   3.678
 9356TIP3   OH228031   2.061   0.402   2.941
 9356TIP3    H128032   2.007   0.424   3.017
 9356TIP3    H228033   2.142   0.450   2.955
 9357TIP3   OH228034   6.324   6.792   5.045
 9357TIP3    H128035   6.367   6.766   5.126
 9357TIP3    H228036   6.248   6.733   5.038
 9358TIP3   OH228037   6.451   2.392   2.495
 9358TIP3    H128038   6.368   2.373   2.451
 9358TIP3    H228039   6.471   2.482   2.471
 9359TIP3   OH228040   3.242   1.560   5.424
 9359TIP3    H128041   3.243   1.652   5.447
 9359TIP3    H228042   3.330   1.543   5.389
 9360TIP3   OH228043   0.551   0.368   4.220
 9360TIP3    H128044   0.574   0.281   4.251
 9360TIP3    H228045   0.613   0.426   4.265
 9361TIP3   OH228046   0.364   3.967   1.138
 9361TIP3    H128047   0.392   3.888   1.184
 9361TIP3    H228048   0.288   3.940   1.087
 9362TIP3   OH228049   4.950   6.144   2.344
 9362TIP3    H128050   4.885   6.214   2.335
 9362TIP3    H228051   4.993   6.140   2.258
 9363TIP3   OH228052   3.427   2.252   3.744
 9363TIP3    H128053   3.474   2.283   3.667
 9363TIP3    H228054   3.393   2.166   3.718
 9364TIP3   OH228055   5.083   1.393   3.126
 9364TIP3    H128056   4.989   1.380   3.109
 9364TIP3    H228057   5.109   1.316   3.176
 9365TIP3   OH228058   3.334   4.875   3.591
 9365TIP3    H128059   3.342   4.815   3.666
 9365TIP3    H228060   3.291   4.823   3.524
 9366TIP3   OH228061   1.089   3.489   3.974
 9366TIP3    H128062   1.111   3.436   3.897
 9366TIP3    H228063   1.020   3.548   3.943
 9367TIP3   OH228064   3.360   2.674   4.136
 9367TIP3    H128065   3.349   2.612   4.064
 9367TIP3    H228066   3.304   2.748   4.113
 9368TIP3   OH228067   5.475   3.964   0.567
 9368TIP3    H128068   5.466   3.886   0.622
 9368TIP3    H228069   5.567   3.988   0.575
 9369TIP3   OH228070   2.879   3.200   5.870
 9369TIP3    H128071   2.868   3.294   5.857
 9369TIP3    H228072   2.797   3.171   5.909
 9370TIP3   OH228073   5.393   6.293   3.679
 9370TIP3    H128074   5.333   6.271   3.607
 9370TIP3    H228075   5.388   6.388   3.687
 9371TIP3   OH228076   5.896   2.743   4.179
 9371TIP3    H128077   5.949   2.686   4.123
 9371TIP3    H228078   5.950   2.822   4.189
 9372TIP3   OH228079   1.104   1.395   2.482
 9372TIP3    H128080   1.136   1.369   2.395
 9372TIP3    H228081   1.173   1.450   2.518
 9373TIP3   OH228082   3.717   5.442   1.313
 9373TIP3    H128083   3.720   5.503   1.239
 9373TIP3    H228084   3.628   5.451   1.348
 9374TIP3   OH228085   5.048   2.706   2.084
 9374TIP3    H128086   5.014   2.690   1.996
 9374TIP3    H228087   5.093   2.624   2.107
 9375TIP3   OH228088   6.478   3.057   0.183
 9375TIP3    H128089   6.468   3.022   0.271
 9375TIP3    H228090   6.392   3.093   0.161
 9376TIP3   OH228091   6.254   0.623   3.371
 9376TIP3    H128092   6.311   0.640   3.296
 9376TIP3    H228093   6.308   0.641   3.447
 9377TIP3   OH228094   5.860   5.448   2.460
 9377TIP3    H128095   5.910   5.371   2.433
 9377TIP3    H228096   5.919   5.496   2.519
 9378TIP3   OH228097   0.073   2.599   2.365
 9378TIP3    H128098   0.125   2.598   2.285
 9378TIP3    H228099   0.125   2.649   2.427
 9379TIP3   OH228100   6.635   2.631   5.052
 9379TIP3    H128101   6.654   2.665   5.139
 9379TIP3    H228102   6.667   2.698   4.992
 9380TIP3   OH228103   1.428   2.386   3.734
 9380TIP3    H128104   1.418   2.366   3.828
 9380TIP3    H228105   1.484   2.464   3.732
 9381TIP3   OH228106   5.576   1.147   0.266
 9381TIP3    H128107   5.593   1.071   0.322
 9381TIP3    H228108   5.480   1.152   0.261
 9382TIP3   OH228109   0.471   0.612   0.245
 9382TIP3    H128110   0.529   0.616   0.169
 9382TIP3    H228111   0.510   0.546   0.302
 9383TIP3   OH228112   3.885   3.164   0.095
 9383TIP3    H128113   3.951   3.096   0.087
 9383TIP3    H228114   3.836   3.160   0.012
 9384TIP3   OH228115   1.768   6.685   5.477
 9384TIP3    H128116   1.808   6.757   5.525
 9384TIP3    H228117   1.688   6.664   5.526
 9385TIP3   OH228118   0.951   4.382   0.672
 9385TIP3    H128119   0.925   4.355   0.584
 9385TIP3    H228120   1.046   4.371   0.674
 9386TIP3   OH228121   0.780   3.910   2.276
 9386TIP3    H128122   0.694   3.951   2.288
 9386TIP3    H228123   0.761   3.816   2.270
 9387TIP3   OH228124   0.679   6.142   2.145
 9387TIP3    H128125   0.608   6.104   2.094
 9387TIP3    H228126   0.704   6.072   2.206
 9388TIP3   OH228127   1.465   6.393   1.769
 9388TIP3    H128128   1.533   6.416   1.706
 9388TIP3    H228129   1.486   6.444   1.846
 9389TIP3   OH228130   0.733   6.406   0.957
 9389TIP3    H128131   0.717   6.359   0.875
 9389TIP3    H228132   0.688   6.490   0.946
 9390TIP3   OH228133   0.416   2.990   5.096
 9390TIP3    H128134   0.417   3.085   5.084
 9390TIP3    H228135   0.398   2.978   5.189
 9391TIP3   OH228136   6.946   3.471   0.628
 9391TIP3    H128137   6.955   3.407   0.557
 9391TIP3    H228138   6.887   3.430   0.690
 9392TIP3   OH228139   3.698   0.485   1.998
 9392TIP3    H128140   3.631   0.540   1.960
 9392TIP3    H228141   3.660   0.453   2.080
 9393TIP3   OH228142   2.673   5.720   1.975
 9393TIP3    H128143   2.712   5.754   1.894
 9393TIP3    H228144   2.625   5.642   1.947
 9394TIP3   OH228145   0.001   1.175   2.608
 9394TIP3    H128146  -0.032   1.085   2.610
 9394TIP3    H228147   0.089   1.170   2.645
 9395TIP3   OH228148   2.389   5.766   1.173
 9395TIP3    H128149   2.432   5.849   1.154
 9395TIP3    H228150   2.328   5.754   1.100
 9396TIP3   OH228151   6.655   4.112   4.375
 9396TIP3    H128152   6.660   4.050   4.447
 9396TIP3    H228153   6.581   4.168   4.397
 9397TIP3   OH228154   4.084   5.367   0.814
 9397TIP3    H128155   4.079   5.430   0.886
 9397TIP3    H228156   4.119   5.287   0.853
 9398TIP3   OH228157   1.233   2.268   1.393
 9398TIP3    H128158   1.232   2.196   1.330
 9398TIP3    H228159   1.284   2.235   1.466
 9399TIP3   OH228160   1.819   2.858   5.240
 9399TIP3    H128161   1.860   2.846   5.326
 9399TIP3    H228162   1.787   2.771   5.217
 9400TIP3   OH228163   1.821   6.207   4.578
 9400TIP3    H128164   1.734   6.191   4.615
 9400TIP3    H228165   1.823   6.153   4.499
 9401TIP3   OH228166   5.618   1.798   5.771
 9401TIP3    H128167   5.655   1.876   5.811
 9401TIP3    H228168   5.691   1.756   5.726
 9402TIP3   OH228169   2.171   1.776   0.387
 9402TIP3    H128170   2.192   1.695   0.343
 9402TIP3    H228171   2.209   1.767   0.475
 9403TIP3   OH228172   4.952   2.238   4.461
 9403TIP3    H128173   5.003   2.203   4.534
 9403TIP3    H228174   4.984   2.327   4.450
 9404TIP3   OH228175   0.588   1.426   3.177
 9404TIP3    H128176   0.662   1.480   3.204
 9404TIP3    H228177   0.595   1.421   3.082
 9405TIP3   OH228178   5.876   0.060   3.486
 9405TIP3    H128179   5.936  -0.014   3.478
 9405TIP3    H228180   5.801   0.036   3.432
 9406TIP3   OH228181   7.134   5.017   0.832
 9406TIP3    H128182   7.143   5.079   0.760
 9406TIP3    H228183   7.093   4.940   0.792
 9407TIP3   OH228184   0.332   4.556   1.579
 9407TIP3    H128185   0.353   4.499   1.505
 9407TIP3    H228186   0.401   4.538   1.643
 9408TIP3   OH228187   5.498   6.306   4.976
 9408TIP3    H128188   5.477   6.265   4.892
 9408TIP3    H228189   5.574   6.361   4.957
 9409TIP3   OH228190   5.371   1.836   3.602
 9409TIP3    H128191   5.314   1.910   3.624
 9409TIP3    H228192   5.356   1.822   3.509
 9410TIP3   OH228193   5.625   2.070   0.765
 9410TIP3    H128194   5.658   2.009   0.698
 9410TIP3    H228195   5.606   2.150   0.717
 9411TIP3   OH228196   1.441   1.400   0.671
 9411TIP3    H128197   1.369   1.338   0.659
 9411TIP3    H228198   1.438   1.455   0.593
 9412TIP3   OH228199   1.936   3.289   0.116
 9412TIP3    H128200   1.990   3.218   0.151
 9412TIP3    H228201   1.933   3.274   0.022
 9413TIP3   OH228202   5.819   0.502   2.860
 9413TIP3    H128203   5.764   0.580   2.864
 9413TIP3    H228204   5.820   0.478   2.767
 9414TIP3   OH228205   5.449   6.563   5.752
 9414TIP3    H128206   5.480   6.589   5.665
 9414TIP3    H228207   5.409   6.477   5.739
 9415TIP3   OH228208   7.090   3.322   0.445
 9415TIP3    H128209   7.127   3.301   0.359
 9415TIP3    H228210   7.163   3.309   0.506
 9416TIP3   OH228211   4.690   0.818   1.163
 9416TIP3    H128212   4.725   0.904   1.184
 9416TIP3    H228213   4.596   0.826   1.172
 9417TIP3   OH228214   2.349   0.479   2.905
 9417TIP3    H128215   2.413   0.409   2.921
 9417TIP3    H228216   2.325   0.469   2.812
 9418TIP3   OH228217   6.981   5.102   2.726
 9418TIP3    H128218   6.902   5.139   2.686
 9418TIP3    H228219   6.976   5.131   2.817
 9419TIP3   OH228220   4.950   4.059   4.274
 9419TIP3    H128221   4.860   4.068   4.306
 9419TIP3    H228222   4.993   4.001   4.337
 9420TIP3   OH228223   1.198   1.614   0.519
 9420TIP3    H128224   1.213   1.557   0.444
 9420TIP3    H228225   1.254   1.690   0.503
 9421TIP3   OH228226   5.334   6.755   0.542
 9421TIP3    H128227   5.254   6.797   0.509
 9421TIP3    H228228   5.376   6.719   0.464
 9422TIP3   OH228229   3.689   6.673   0.443
 9422TIP3    H128230   3.694   6.604   0.509
 9422TIP3    H228231   3.633   6.741   0.483
 9423TIP3   OH228232   4.808   3.143   3.977
 9423TIP3    H128233   4.886   3.123   4.028
 9423TIP3    H228234   4.806   3.239   3.974
 9424TIP3   OH228235   4.765   3.530   1.795
 9424TIP3    H128236   4.698   3.585   1.754
 9424TIP3    H228237   4.739   3.441   1.772
 9425TIP3   OH228238   3.999   3.808   1.263
 9425TIP3    H128239   3.933   3.773   1.323
 9425TIP3    H228240   4.054   3.733   1.243
 9426TIP3   OH228241   6.929   2.012   2.668
 9426TIP3    H128242   7.000   2.071   2.694
 9426TIP3    H228243   6.923   1.949   2.740
 9427TIP3   OH228244   4.936   5.314   2.764
 9427TIP3    H128245   5.012   5.259   2.745
 9427TIP3    H228246   4.971   5.387   2.815
 9428TIP3   OH228247   0.927   6.108   1.641
 9428TIP3    H128248   0.945   6.094   1.548
 9428TIP3    H228249   1.011   6.095   1.684
 9429TIP3   OH228250   7.070   0.036   3.396
 9429TIP3    H128251   7.111   0.059   3.479
 9429TIP3    H228252   6.982   0.074   3.401
 9430TIP3   OH228253   3.379   0.113   4.197
 9430TIP3    H128254   3.438   0.064   4.139
 9430TIP3    H228255   3.324   0.046   4.238
 9431TIP3   OH228256   0.223   6.266   2.643
 9431TIP3    H128257   0.129   6.267   2.663
 9431TIP3    H228258   0.250   6.176   2.660
 9432TIP3   OH228259   5.805   2.753   1.235
 9432TIP3    H128260   5.838   2.707   1.312
 9432TIP3    H228261   5.742   2.692   1.196
 9433TIP3   OH228262   1.693   3.554   4.898
 9433TIP3    H128263   1.676   3.523   4.809
 9433TIP3    H228264   1.724   3.477   4.945
 9434TIP3   OH228265   0.387   5.826   4.500
 9434TIP3    H128266   0.367   5.784   4.584
 9434TIP3    H228267   0.302   5.833   4.456
 9435TIP3   OH228268   1.051   6.023   2.757
 9435TIP3    H128269   1.044   6.042   2.851
 9435TIP3    H228270   1.128   6.073   2.729
 9436TIP3   OH228271   3.080   5.284   3.873
 9436TIP3    H128272   3.123   5.221   3.814
 9436TIP3    H228273   3.149   5.311   3.933
 9437TIP3   OH228274   4.470   0.812   2.748
 9437TIP3    H128275   4.544   0.754   2.764
 9437TIP3    H228276   4.398   0.775   2.799
 9438TIP3   OH228277   4.048   2.550   1.292
 9438TIP3    H128278   4.107   2.576   1.221
 9438TIP3    H228279   4.100   2.488   1.344
 9439TIP3   OH228280   4.340   3.280   4.309
 9439TIP3    H128281   4.336   3.337   4.386
 9439TIP3    H228282   4.368   3.195   4.343
 9440TIP3   OH228283   0.062   0.900   2.281
 9440TIP3    H128284   0.152   0.911   2.249
 9440TIP3    H228285   0.064   0.820   2.333
 9441TIP3   OH228286   1.692   2.248   2.773
 9441TIP3    H128287   1.695   2.191   2.850
 9441TIP3    H228288   1.694   2.337   2.808
 9442TIP3   OH228289   6.904   1.374   4.052
 9442TIP3    H128290   6.887   1.416   3.968
 9442TIP3    H228291   6.826   1.321   4.069
 9443TIP3   OH228292   4.319   5.746   0.975
 9443TIP3    H128293   4.321   5.707   0.887
 9443TIP3    H228294   4.349   5.676   1.033
 9444TIP3   OH228295   1.076   1.413   1.188
 9444TIP3    H128296   1.161   1.383   1.157
 9444TIP3    H228297   1.023   1.420   1.109
 9445TIP3   OH228298   2.897   0.072   0.123
 9445TIP3    H128299   2.939   0.158   0.130
 9445TIP3    H228300   2.899   0.051   0.030
 9446TIP3   OH228301   1.037   3.724   1.822
 9446TIP3    H128302   0.980   3.692   1.752
 9446TIP3    H228303   1.104   3.656   1.832
 9447TIP3   OH228304   6.299   5.032   1.036
 9447TIP3    H128305   6.333   4.968   0.973
 9447TIP3    H228306   6.317   4.993   1.122
 9448TIP3   OH228307   5.333   6.113   5.127
 9448TIP3    H128308   5.253   6.084   5.084
 9448TIP3    H228309   5.367   6.182   5.071
 9449TIP3   OH228310   6.033   1.208   0.770
 9449TIP3    H128311   6.065   1.118   0.762
 9449TIP3    H228312   6.050   1.247   0.685
 9450TIP3   OH228313   6.731   6.304   5.225
 9450TIP3    H128314   6.777   6.268   5.301
 9450TIP3    H228315   6.786   6.280   5.150
 9451TIP3   OH228316   4.598   5.132   4.472
 9451TIP3    H128317   4.536   5.203   4.455
 9451TIP3    H228318   4.659   5.135   4.398
 9452TIP3   OH228319   0.134   2.012   1.261
 9452TIP3    H128320   0.184   2.076   1.210
 9452TIP3    H228321   0.105   2.059   1.338
 9453TIP3   OH228322   1.735   2.315   3.623
 9453TIP3    H128323   1.692   2.307   3.538
 9453TIP3    H228324   1.720   2.231   3.666
 9454TIP3   OH228325   4.478   5.633   4.546
 9454TIP3    H128326   4.448   5.703   4.605
 9454TIP3    H228327   4.428   5.647   4.466
 9455TIP3   OH228328   3.879   1.135   5.720
 9455TIP3    H128329   3.944   1.204   5.709
 9455TIP3    H228330   3.805   1.163   5.666
 9456TIP3   OH228331   1.665   1.899   5.706
 9456TIP3    H128332   1.720   1.904   5.628
 9456TIP3    H228333   1.725   1.873   5.776
 9457TIP3   OH228334   1.609   6.289   5.850
 9457TIP3    H128335   1.643   6.344   5.922
 9457TIP3    H228336   1.531   6.248   5.886
 9458TIP3   OH228337   4.109   5.768   2.421
 9458TIP3    H128338   4.121   5.674   2.411
 9458TIP3    H228339   4.033   5.789   2.366
 9459TIP3   OH228340   6.161   4.828   4.636
 9459TIP3    H128341   6.238   4.812   4.690
 9459TIP3    H228342   6.186   4.798   4.548
 9460TIP3   OH228343   1.096   3.907   2.990
 9460TIP3    H128344   1.103   3.848   3.065
 9460TIP3    H228345   1.156   3.870   2.925
 9461TIP3   OH228346   4.457   5.905   0.814
 9461TIP3    H128347   4.419   5.847   0.880
 9461TIP3    H228348   4.444   5.993   0.850
 9462TIP3   OH228349   5.702   4.915   5.330
 9462TIP3    H128350   5.669   4.835   5.290
 9462TIP3    H228351   5.701   4.898   5.424
 9463TIP3   OH228352   2.542   3.590   2.691
 9463TIP3    H128353   2.592   3.650   2.637
 9463TIP3    H228354   2.459   3.636   2.706
 9464TIP3   OH228355   1.871   4.402   1.723
 9464TIP3    H128356   1.835   4.361   1.644
 9464TIP3    H228357   1.920   4.478   1.691
 9465TIP3   OH228358   6.599   1.570   1.107
 9465TIP3    H128359   6.569   1.660   1.099
 9465TIP3    H228360   6.688   1.578   1.142
 9466TIP3   OH228361   1.401   3.718   0.284
 9466TIP3    H128362   1.338   3.789   0.292
 9466TIP3    H228363   1.349   3.639   0.296
 9467TIP3   OH228364   0.084   3.413   4.660
 9467TIP3    H128365   0.144   3.393   4.732
 9467TIP3    H228366   0.119   3.494   4.622
 9468TIP3   OH228367   6.097   2.616   2.526
 9468TIP3    H128368   6.078   2.633   2.434
 9468TIP3    H228369   6.054   2.533   2.544
 9469TIP3   OH228370   6.935   5.437   2.073
 9469TIP3    H128371   6.916   5.387   2.152
 9469TIP3    H228372   7.008   5.494   2.098
 9470TIP3   OH228373   4.200   1.311   0.265
 9470TIP3    H128374   4.169   1.332   0.177
 9470TIP3    H228375   4.224   1.395   0.303
 9471TIP3   OH228376   6.386   2.496   2.191
 9471TIP3    H128377   6.458   2.549   2.226
 9471TIP3    H228378   6.420   2.461   2.108
 9472TIP3   OH228379   6.169   0.282   0.698
 9472TIP3    H128380   6.208   0.369   0.714
 9472TIP3    H228381   6.187   0.264   0.606
 9473TIP3   OH228382   2.940   2.174   3.822
 9473TIP3    H128383   2.898   2.115   3.883
 9473TIP3    H228384   3.032   2.176   3.849
 9474TIP3   OH228385   3.785   2.545   2.900
 9474TIP3    H128386   3.716   2.612   2.898
 9474TIP3    H228387   3.737   2.462   2.898
 9475TIP3   OH228388   6.965   5.651   3.496
 9475TIP3    H128389   7.047   5.612   3.464
 9475TIP3    H228390   6.900   5.628   3.431
 9476TIP3   OH228391   3.905   3.926   3.982
 9476TIP3    H128392   3.843   3.869   3.935
 9476TIP3    H228393   3.850   3.980   4.038
 9477TIP3   OH228394   5.124   0.459   4.542
 9477TIP3    H128395   5.074   0.464   4.624
 9477TIP3    H228396   5.154   0.368   4.538
 9478TIP3   OH228397   0.039   4.528   5.061
 9478TIP3    H128398  -0.015   4.456   5.094
 9478TIP3    H228399   0.113   4.485   5.018
 9479TIP3   OH228400   1.223   5.676   1.410
 9479TIP3    H128401   1.247   5.752   1.358
 9479TIP3    H228402   1.127   5.679   1.414
 9480TIP3   OH228403   2.825   5.159   3.899
 9480TIP3    H128404   2.872   5.079   3.923
 9480TIP3    H228405   2.892   5.219   3.869
 9481TIP3   OH228406   2.423   0.172   2.461
 9481TIP3    H128407   2.379   0.252   2.433
 9481TIP3    H228408   2.437   0.123   2.380
 9482TIP3   OH228409   5.245   0.183   1.160
 9482TIP3    H128410   5.280   0.215   1.244
 9482TIP3    H228411   5.321   0.182   1.102
 9483TIP3   OH228412   6.192   4.438   4.094
 9483TIP3    H128413   6.136   4.479   4.028
 9483TIP3    H228414   6.243   4.511   4.130
 9484TIP3   OH228415   0.469   1.706   5.074
 9484TIP3    H128416   0.395   1.725   5.132
 9484TIP3    H228417   0.546   1.731   5.124
 9485TIP3   OH228418   5.332   1.948   4.529
 9485TIP3    H128419   5.366   1.860   4.513
 9485TIP3    H228420   5.406   1.996   4.565
 9486TIP3   OH228421   2.726   4.413   1.854
 9486TIP3    H128422   2.731   4.326   1.893
 9486TIP3    H228423   2.684   4.467   1.921
 9487TIP3   OH228424   6.002   0.971   0.340
 9487TIP3    H128425   6.031   1.063   0.338
 9487TIP3    H228426   6.028   0.936   0.255
 9488TIP3   OH228427   1.249   6.403   0.691
 9488TIP3    H128428   1.236   6.309   0.678
 9488TIP3    H228429   1.269   6.437   0.603
 9489TIP3   OH228430   3.724   1.451   5.244
 9489TIP3    H128431   3.738   1.404   5.162
 9489TIP3    H228432   3.811   1.468   5.277
 9490TIP3   OH228433   1.166   4.279   1.491
 9490TIP3    H128434   1.126   4.366   1.493
 9490TIP3    H228435   1.177   4.255   1.583
 9491TIP3   OH228436   2.356   2.151   2.765
 9491TIP3    H128437   2.437   2.185   2.727
 9491TIP3    H228438   2.286   2.197   2.718
 9492TIP3   OH228439   4.283   5.532   1.148
 9492TIP3    H128440   4.254   5.490   1.229
 9492TIP3    H228441   4.306   5.459   1.090
 9493TIP3   OH228442   2.713   3.947   3.882
 9493TIP3    H128443   2.693   4.032   3.921
 9493TIP3    H228444   2.672   3.950   3.796
 9494TIP3   OH228445   2.309   6.286   4.311
 9494TIP3    H128446   2.402   6.292   4.290
 9494TIP3    H228447   2.273   6.371   4.286
 9495TIP3   OH228448   6.407   6.761   1.365
 9495TIP3    H128449   6.342   6.801   1.423
 9495TIP3    H228450   6.355   6.719   1.296
 9496TIP3   OH228451   3.637   0.243   2.539
 9496TIP3    H128452   3.671   0.160   2.504
 9496TIP3    H228453   3.642   0.304   2.465
 9497TIP3   OH228454   3.025   2.468   3.968
 9497TIP3    H128455   2.937   2.435   3.983
 9497TIP3    H228456   3.083   2.395   3.989
 9498TIP3   OH228457   2.906   1.874   4.740
 9498TIP3    H128458   2.854   1.952   4.726
 9498TIP3    H228459   2.986   1.888   4.689
 9499TIP3   OH228460   3.569   1.768   0.928
 9499TIP3    H128461   3.605   1.780   0.840
 9499TIP3    H228462   3.606   1.686   0.959
 9500TIP3   OH228463   4.094   1.609   2.282
 9500TIP3    H128464   4.186   1.617   2.256
 9500TIP3    H228465   4.079   1.682   2.342
 9501TIP3   OH228466   0.078   4.161   3.066
 9501TIP3    H128467   0.055   4.245   3.106
 9501TIP3    H228468   0.009   4.101   3.093
 9502TIP3   OH228469   2.821   1.244   0.286
 9502TIP3    H128470   2.909   1.213   0.308
 9502TIP3    H228471   2.825   1.339   0.298
 9503TIP3   OH228472   4.546   4.574   0.889
 9503TIP3    H128473   4.576   4.484   0.880
 9503TIP3    H228474   4.564   4.597   0.980
 9504TIP3   OH228475   1.962   1.714   2.028
 9504TIP3    H128476   1.935   1.626   2.002
 9504TIP3    H228477   1.951   1.714   2.123
 9505TIP3   OH228478   3.243   4.451   1.120
 9505TIP3    H128479   3.171   4.487   1.171
 9505TIP3    H228480   3.313   4.435   1.183
 9506TIP3   OH228481   2.636   2.259   5.282
 9506TIP3    H128482   2.572   2.296   5.221
 9506TIP3    H228483   2.589   2.188   5.325
 9507TIP3   OH228484   3.022   3.211   4.502
 9507TIP3    H128485   2.969   3.133   4.514
 9507TIP3    H228486   3.097   3.199   4.561
 9508TIP3   OH228487   0.842   5.502   4.863
 9508TIP3    H128488   0.917   5.459   4.823
 9508TIP3    H228489   0.879   5.560   4.929
 9509TIP3   OH228490   1.000   2.928   0.093
 9509TIP3    H128491   0.999   2.987   0.168
 9509TIP3    H228492   1.049   2.975   0.026
 9510TIP3   OH228493   2.182   4.576   4.907
 9510TIP3    H128494   2.253   4.525   4.867
 9510TIP3    H228495   2.114   4.512   4.926
 9511TIP3   OH228496   1.687   4.589   2.245
 9511TIP3    H128497   1.733   4.641   2.179
 9511TIP3    H228498   1.756   4.539   2.288
 9512TIP3   OH228499   1.677   6.583   4.161
 9512TIP3    H128500   1.714   6.631   4.086
 9512TIP3    H228501   1.590   6.556   4.131
 9513TIP3   OH228502   1.318   0.167   4.576
 9513TIP3    H128503   1.286   0.078   4.587
 9513TIP3    H228504   1.266   0.218   4.639
 9514TIP3   OH228505   1.650   6.036   5.751
 9514TIP3    H128506   1.676   6.124   5.779
 9514TIP3    H228507   1.658   5.982   5.830
 9515TIP3   OH228508   2.166   4.386   2.310
 9515TIP3    H128509   2.203   4.448   2.247
 9515TIP3    H228510   2.179   4.428   2.395
 9516TIP3   OH228511   4.858   4.297   3.169
 9516TIP3    H128512   4.856   4.256   3.082
 9516TIP3    H228513   4.768   4.288   3.201
 9517TIP3   OH228514   3.938   5.750   4.625
 9517TIP3    H128515   3.952   5.663   4.588
 9517TIP3    H228516   4.026   5.781   4.646
 9518TIP3   OH228517   0.525   6.520   4.612
 9518TIP3    H128518   0.532   6.434   4.653
 9518TIP3    H228519   0.442   6.517   4.564
 9519TIP3   OH228520   4.586   1.667   5.404
 9519TIP3    H128521   4.640   1.737   5.441
 9519TIP3    H228522   4.521   1.649   5.472
 9520TIP3   OH228523   3.653   4.766   4.043
 9520TIP3    H128524   3.626   4.792   4.131
 9520TIP3    H228525   3.598   4.691   4.022
 9521TIP3   OH228526   3.390   2.125   2.118
 9521TIP3    H128527   3.329   2.198   2.105
 9521TIP3    H228528   3.444   2.125   2.039
 9522TIP3   OH228529   5.415   5.349   1.833
 9522TIP3    H128530   5.441   5.267   1.876
 9522TIP3    H228531   5.343   5.323   1.775
 9523TIP3   OH228532   1.018   4.965   3.998
 9523TIP3    H128533   1.036   5.036   4.060
 9523TIP3    H228534   1.035   4.885   4.048
 9524TIP3   OH228535   1.926   1.431   0.604
 9524TIP3    H128536   1.854   1.414   0.544
 9524TIP3    H228537   2.004   1.430   0.550
 9525TIP3   OH228538   2.549   3.673   5.183
 9525TIP3    H128539   2.516   3.742   5.241
 9525TIP3    H228540   2.618   3.716   5.132
 9526TIP3   OH228541   0.324   0.280   1.179
 9526TIP3    H128542   0.413   0.312   1.196
 9526TIP3    H228543   0.336   0.210   1.115
 9527TIP3   OH228544   2.765   1.740   1.841
 9527TIP3    H128545   2.774   1.793   1.921
 9527TIP3    H228546   2.854   1.736   1.806
 9528TIP3   OH228547   0.407   0.872   4.321
 9528TIP3    H128548   0.319   0.908   4.308
 9528TIP3    H228549   0.399   0.817   4.399
 9529TIP3   OH228550   6.483   5.722   1.644
 9529TIP3    H128551   6.471   5.679   1.728
 9529TIP3    H228552   6.545   5.793   1.662
 9530TIP3   OH228553   3.906   0.201   0.814
 9530TIP3    H128554   3.852   0.174   0.739
 9530TIP3    H228555   3.970   0.262   0.776
 9531TIP3   OH228556   1.135   0.333   3.707
 9531TIP3    H128557   1.225   0.361   3.726
 9531TIP3    H228558   1.142   0.281   3.627
 9532TIP3   OH228559   4.028   1.495   0.507
 9532TIP3    H128560   3.960   1.531   0.563
 9532TIP3    H228561   4.031   1.402   0.530
 9533TIP3   OH228562   0.974   5.690   3.243
 9533TIP3    H128563   0.927   5.608   3.257
 9533TIP3    H228564   1.039   5.693   3.312
 9534TIP3   OH228565   6.723   4.831   2.847
 9534TIP3    H128566   6.716   4.736   2.836
 9534TIP3    H228567   6.817   4.849   2.851
 9535TIP3   OH228568   2.196   6.366   2.337
 9535TIP3    H128569   2.256   6.403   2.272
 9535TIP3    H228570   2.134   6.436   2.356
 9536TIP3   OH228571   1.108   0.585   0.269
 9536TIP3    H128572   1.044   0.637   0.220
 9536TIP3    H228573   1.153   0.648   0.324
 9537TIP3   OH228574   4.122   2.243   4.265
 9537TIP3    H128575   4.040   2.270   4.306
 9537TIP3    H228576   4.106   2.252   4.171
 9538TIP3   OH228577   3.977   5.355   0.139
 9538TIP3    H128578   3.956   5.365   0.231
 9538TIP3    H228579   3.983   5.260   0.126
 9539TIP3   OH228580   1.500   2.462   3.998
 9539TIP3    H128581   1.434   2.531   4.006
 9539TIP3    H228582   1.526   2.443   4.088
 9540TIP3   OH228583   4.955   2.872   4.272
 9540TIP3    H128584   5.042   2.897   4.242
 9540TIP3    H228585   4.905   2.857   4.192
 9541TIP3   OH228586   3.055   4.758   3.267
 9541TIP3    H128587   3.056   4.854   3.259
 9541TIP3    H228588   2.964   4.733   3.251
 9542TIP3   OH228589   5.931   0.024   0.609
 9542TIP3    H128590   5.938  -0.008   0.699
 9542TIP3    H228591   5.938   0.119   0.617
 9543TIP3   OH228592   6.791   3.701   1.650
 9543TIP3    H128593   6.757   3.769   1.708
 9543TIP3    H228594   6.886   3.715   1.650
 9544TIP3   OH228595   6.377   3.047   0.481
 9544TIP3    H128596   6.353   3.134   0.448
 9544TIP3    H228597   6.302   2.992   0.461
 9545TIP3   OH228598   4.816   1.370   1.933
 9545TIP3    H128599   4.903   1.357   1.896
 9545TIP3    H228600   4.774   1.432   1.874
 9546TIP3   OH228601   5.914   6.791   3.848
 9546TIP3    H128602   5.831   6.795   3.801
 9546TIP3    H228603   5.898   6.837   3.930
 9547TIP3   OH228604   3.017   4.522   2.296
 9547TIP3    H128605   3.030   4.490   2.385
 9547TIP3    H228606   2.995   4.444   2.245
 9548TIP3   OH228607   5.866   5.390   4.014
 9548TIP3    H128608   5.902   5.398   4.103
 9548TIP3    H228609   5.786   5.444   4.016
 9549TIP3   OH228610   3.160   5.032   0.609
 9549TIP3    H128611   3.150   5.127   0.621
 9549TIP3    H228612   3.253   5.016   0.620
 9550TIP3   OH228613   2.486   3.696   0.545
 9550TIP3    H128614   2.425   3.627   0.521
 9550TIP3    H228615   2.559   3.687   0.484
 9551TIP3   OH228616   4.719   2.433   5.744
 9551TIP3    H128617   4.632   2.393   5.740
 9551TIP3    H228618   4.703   2.526   5.729
 9552TIP3   OH228619   1.312   5.066   1.585
 9552TIP3    H128620   1.274   5.153   1.589
 9552TIP3    H228621   1.315   5.037   1.676
 9553TIP3   OH228622   2.132   2.972   1.844
 9553TIP3    H128623   2.148   2.902   1.907
 9553TIP3    H228624   2.179   2.943   1.765
 9554TIP3   OH228625   2.471   1.770   5.151
 9554TIP3    H128626   2.486   1.796   5.060
 9554TIP3    H228627   2.518   1.687   5.159
 9555TIP3   OH228628   1.750   6.307   1.143
 9555TIP3    H128629   1.658   6.293   1.165
 9555TIP3    H228630   1.749   6.384   1.086
 9556TIP3   OH228631   1.387   4.842   5.222
 9556TIP3    H128632   1.431   4.922   5.193
 9556TIP3    H228633   1.386   4.786   5.144
 9557TIP3   OH228634   3.919   4.544   2.892
 9557TIP3    H128635   3.825   4.561   2.892
 9557TIP3    H228636   3.957   4.622   2.851
 9558TIP3   OH228637   3.711   4.107   2.240
 9558TIP3    H128638   3.792   4.061   2.217
 9558TIP3    H228639   3.739   4.181   2.294
 9559TIP3   OH228640   5.306   4.729   2.220
 9559TIP3    H128641   5.218   4.765   2.228
 9559TIP3    H228642   5.355   4.768   2.293
 9560TIP3   OH228643   5.329   4.299   4.451
 9560TIP3    H128644   5.244   4.274   4.417
 9560TIP3    H228645   5.372   4.345   4.379
 9561TIP3   OH228646   1.196   2.434   2.887
 9561TIP3    H128647   1.110   2.417   2.925
 9561TIP3    H228648   1.254   2.369   2.928
 9562TIP3   OH228649   6.486   2.722   0.756
 9562TIP3    H128650   6.396   2.702   0.781
 9562TIP3    H228651   6.538   2.656   0.801
 9563TIP3   OH228652   3.940   5.103   0.910
 9563TIP3    H128653   3.969   5.016   0.883
 9563TIP3    H228654   3.924   5.149   0.827
 9564TIP3   OH228655   5.719   1.668   4.966
 9564TIP3    H128656   5.694   1.634   4.880
 9564TIP3    H228657   5.636   1.688   5.009
 9565TIP3   OH228658   2.974   0.936   3.052
 9565TIP3    H128659   2.920   0.920   2.975
 9565TIP3    H228660   2.955   1.027   3.076
 9566TIP3   OH228661   6.928   3.583   4.666
 9566TIP3    H128662   6.880   3.666   4.658
 9566TIP3    H228663   6.956   3.580   4.757
 9567TIP3   OH228664   3.078   6.438   2.506
 9567TIP3    H128665   3.137   6.363   2.510
 9567TIP3    H228666   3.048   6.451   2.596
 9568TIP3   OH228667   1.804   3.084   0.565
 9568TIP3    H128668   1.773   3.017   0.504
 9568TIP3    H228669   1.898   3.069   0.570
 9569TIP3   OH228670   4.664   6.582   4.256
 9569TIP3    H128671   4.593   6.627   4.301
 9569TIP3    H228672   4.744   6.618   4.296
 9570TIP3   OH228673   4.118   5.548   2.685
 9570TIP3    H128674   4.027   5.566   2.707
 9570TIP3    H228675   4.165   5.627   2.713
 9571TIP3   OH228676   2.827   6.199   5.057
 9571TIP3    H128677   2.890   6.239   4.996
 9571TIP3    H228678   2.860   6.221   5.144
 9572TIP3   OH228679   6.534   3.517   0.788
 9572TIP3    H128680   6.540   3.605   0.825
 9572TIP3    H228681   6.461   3.476   0.834
 9573TIP3   OH228682   2.450   6.564   4.381
 9573TIP3    H128683   2.385   6.534   4.444
 9573TIP3    H228684   2.401   6.579   4.300
 9574TIP3   OH228685   6.227   3.440   0.030
 9574TIP3    H128686   6.228   3.425  -0.064
 9574TIP3    H228687   6.209   3.534   0.039
 9575TIP3   OH228688   6.175   2.326   3.963
 9575TIP3    H128689   6.238   2.316   3.892
 9575TIP3    H228690   6.229   2.334   4.042
 9576TIP3   OH228691   0.168   0.056   1.943
 9576TIP3    H128692   0.250   0.085   1.902
 9576TIP3    H228693   0.109   0.040   1.869
 9577TIP3   OH228694   1.544   0.998   5.397
 9577TIP3    H128695   1.499   0.930   5.447
 9577TIP3    H228696   1.631   0.962   5.379
 9578TIP3   OH228697   1.441   6.704   3.036
 9578TIP3    H128698   1.356   6.677   3.000
 9578TIP3    H228699   1.451   6.796   3.010
 9579TIP3   OH228700   3.834   3.368   3.855
 9579TIP3    H128701   3.829   3.343   3.948
 9579TIP3    H228702   3.836   3.464   3.856
 9580TIP3   OH228703   2.427   6.138   3.133
 9580TIP3    H128704   2.368   6.149   3.207
 9580TIP3    H228705   2.370   6.118   3.059
 9581TIP3   OH228706   2.859   5.487   1.298
 9581TIP3    H128707   2.936   5.431   1.291
 9581TIP3    H228708   2.814   5.476   1.214
 9582TIP3   OH228709   6.340   2.471   4.498
 9582TIP3    H128710   6.266   2.413   4.512
 9582TIP3    H228711   6.411   2.432   4.549
 9583TIP3   OH228712   2.233   2.043   5.300
 9583TIP3    H128713   2.189   2.063   5.217
 9583TIP3    H228714   2.231   2.125   5.349
 9584TIP3   OH228715   6.810   2.110   1.885
 9584TIP3    H128716   6.798   2.152   1.970
 9584TIP3    H228717   6.895   2.142   1.855
 9585TIP3   OH228718   6.514   3.900   1.346
 9585TIP3    H128719   6.553   3.928   1.429
 9585TIP3    H228720   6.430   3.860   1.372
 9586TIP3   OH228721   2.544   0.482   4.398
 9586TIP3    H128722   2.488   0.480   4.475
 9586TIP3    H228723   2.548   0.391   4.369
 9587TIP3   OH228724   1.455   2.855   2.213
 9587TIP3    H128725   1.530   2.915   2.221
 9587TIP3    H228726   1.488   2.771   2.245
 9588TIP3   OH228727   5.932   4.775   5.085
 9588TIP3    H128728   5.921   4.772   4.990
 9588TIP3    H228729   6.010   4.828   5.099
 9589TIP3   OH228730   0.427   0.416   5.809
 9589TIP3    H128731   0.406   0.342   5.866
 9589TIP3    H228732   0.491   0.467   5.857
 9590TIP3   OH228733   3.011   1.661   3.577
 9590TIP3    H128734   2.995   1.582   3.628
 9590TIP3    H228735   2.997   1.634   3.486
 9591TIP3   OH228736   1.382   3.703   5.114
 9591TIP3    H128737   1.327   3.713   5.191
 9591TIP3    H228738   1.409   3.611   5.116
 9592TIP3   OH228739   3.249   5.242   4.720
 9592TIP3    H128740   3.207   5.314   4.673
 9592TIP3    H228741   3.176   5.194   4.761
 9593TIP3   OH228742   3.214   1.832   5.458
 9593TIP3    H128743   3.270   1.908   5.478
 9593TIP3    H228744   3.137   1.870   5.415
 9594TIP3   OH228745   0.322   0.523   1.464
 9594TIP3    H128746   0.291   0.565   1.544
 9594TIP3    H228747   0.355   0.595   1.410
 9595TIP3   OH228748   1.944   6.185   3.051
 9595TIP3    H128749   1.968   6.103   3.010
 9595TIP3    H228750   2.022   6.211   3.101
 9596TIP3   OH228751   7.011   1.269   0.278
 9596TIP3    H128752   7.091   1.229   0.312
 9596TIP3    H228753   6.966   1.199   0.231
 9597TIP3   OH228754   1.702   3.825   1.501
 9597TIP3    H128755   1.637   3.839   1.432
 9597TIP3    H228756   1.650   3.823   1.582
 9598TIP3   OH228757   5.668   2.010   2.266
 9598TIP3    H128758   5.726   2.007   2.342
 9598TIP3    H228759   5.707   2.075   2.208
 9599TIP3   OH228760   4.510   3.883   0.720
 9599TIP3    H128761   4.535   3.949   0.785
 9599TIP3    H228762   4.416   3.870   0.735
 9600TIP3   OH228763   4.239   3.972   5.840
 9600TIP3    H128764   4.299   4.029   5.792
 9600TIP3    H228765   4.197   4.029   5.904
 9601TIP3   OH228766   2.173   4.578   3.267
 9601TIP3    H128767   2.141   4.532   3.189
 9601TIP3    H228768   2.094   4.619   3.304
 9602TIP3   OH228769   4.100   3.248   3.903
 9602TIP3    H128770   4.134   3.249   3.814
 9602TIP3    H228771   4.014   3.289   3.896
 9603TIP3   OH228772   3.798   5.518   2.047
 9603TIP3    H128773   3.867   5.469   2.091
 9603TIP3    H228774   3.751   5.453   1.995
 9604TIP3   OH228775   4.120   3.601   3.825
 9604TIP3    H128776   4.154   3.676   3.874
 9604TIP3    H228777   4.112   3.531   3.891
 9605TIP3   OH228778   4.045   1.638   3.841
 9605TIP3    H128779   3.966   1.692   3.847
 9605TIP3    H228780   4.025   1.572   3.775
 9606TIP3   OH228781   0.965   0.252   1.716
 9606TIP3    H128782   0.919   0.196   1.779
 9606TIP3    H228783   0.974   0.336   1.761
 9607TIP3   OH228784   4.056   6.739   2.931
 9607TIP3    H128785   4.011   6.806   2.981
 9607TIP3    H228786   3.986   6.690   2.887
 9608TIP3   OH228787   2.745   4.273   3.018
 9608TIP3    H128788   2.806   4.257   3.090
 9608TIP3    H228789   2.665   4.227   3.044
 9609TIP3   OH228790   3.915   1.636   0.242
 9609TIP3    H128791   4.006   1.605   0.245
 9609TIP3    H228792   3.910   1.686   0.161
 9610TIP3   OH228793   0.910   5.376   3.137
 9610TIP3    H128794   0.907   5.367   3.041
 9610TIP3    H228795   0.826   5.416   3.159
 9611TIP3   OH228796   1.645   2.142   1.470
 9611TIP3    H128797   1.711   2.158   1.537
 9611TIP3    H228798   1.690   2.159   1.387
 9612TIP3   OH228799   4.686   6.270   3.592
 9612TIP3    H128800   4.635   6.248   3.670
 9612TIP3    H228801   4.641   6.345   3.554
 9613TIP3   OH228802   3.394   6.662   2.324
 9613TIP3    H128803   3.335   6.730   2.355
 9613TIP3    H228804   3.419   6.613   2.403
 9614TIP3   OH228805   3.303   4.834   2.976
 9614TIP3    H128806   3.260   4.915   2.949
 9614TIP3    H228807   3.279   4.770   2.908
 9615TIP3   OH228808   2.579   0.017   1.840
 9615TIP3    H128809   2.615   0.037   1.927
 9615TIP3    H228810   2.642  -0.044   1.802
 9616TIP3   OH228811   6.686   2.741   4.671
 9616TIP3    H128812   6.761   2.689   4.698
 9616TIP3    H228813   6.673   2.804   4.742
 9617TIP3   OH228814   6.850   6.057   2.146
 9617TIP3    H128815   6.849   6.012   2.231
 9617TIP3    H228816   6.870   5.988   2.083
 9618TIP3   OH228817   6.428   0.810   3.201
 9618TIP3    H128818   6.464   0.744   3.141
 9618TIP3    H228819   6.339   0.825   3.169
 9619TIP3   OH228820   6.781   0.443   3.044
 9619TIP3    H128821   6.712   0.498   3.082
 9619TIP3    H228822   6.863   0.484   3.071
 9620TIP3   OH228823   4.443   2.684   5.605
 9620TIP3    H128824   4.361   2.717   5.568
 9620TIP3    H228825   4.506   2.755   5.591
 9621TIP3   OH228826   1.360   2.382   3.449
 9621TIP3    H128827   1.368   2.351   3.539
 9621TIP3    H228828   1.267   2.376   3.429
 9622TIP3   OH228829   4.817   1.159   0.177
 9622TIP3    H128830   4.753   1.115   0.121
 9622TIP3    H228831   4.838   1.240   0.131
 9623TIP3   OH228832   6.479   5.152   4.790
 9623TIP3    H128833   6.443   5.199   4.866
 9623TIP3    H228834   6.552   5.103   4.825
 9624TIP3   OH228835   2.082   4.359   0.753
 9624TIP3    H128836   2.177   4.352   0.746
 9624TIP3    H228837   2.053   4.378   0.664
 9625TIP3   OH228838   5.599   6.168   1.365
 9625TIP3    H128839   5.528   6.106   1.380
 9625TIP3    H228840   5.564   6.252   1.394
 9626TIP3   OH228841   3.130   4.157   4.681
 9626TIP3    H128842   3.083   4.227   4.726
 9626TIP3    H228843   3.071   4.082   4.683
 9627TIP3   OH228844   2.019   0.904   4.169
 9627TIP3    H128845   2.061   0.922   4.253
 9627TIP3    H228846   1.931   0.875   4.191
 9628TIP3   OH228847   0.577   1.092   5.184
 9628TIP3    H128848   0.629   1.157   5.230
 9628TIP3    H228849   0.531   1.044   5.253
 9629TIP3   OH228850   1.927   0.385   4.480
 9629TIP3    H128851   1.993   0.393   4.411
 9629TIP3    H228852   1.901   0.475   4.498
 9630TIP3   OH228853   6.461   3.534   3.225
 9630TIP3    H128854   6.488   3.553   3.315
 9630TIP3    H228855   6.381   3.482   3.234
 9631TIP3   OH228856   2.907   0.037   1.954
 9631TIP3    H128857   2.952  -0.032   1.906
 9631TIP3    H228858   2.864  -0.007   2.026
 9632TIP3   OH228859   6.195   1.872   4.878
 9632TIP3    H128860   6.188   1.844   4.787
 9632TIP3    H228861   6.108   1.853   4.915
 9633TIP3   OH228862   5.488   0.038   0.248
 9633TIP3    H128863   5.475  -0.050   0.284
 9633TIP3    H228864   5.583   0.049   0.245
 9634TIP3   OH228865   1.853   0.517   4.103
 9634TIP3    H128866   1.804   0.598   4.120
 9634TIP3    H228867   1.944   0.546   4.090
 9635TIP3   OH228868   5.201   6.314   0.723
 9635TIP3    H128869   5.281   6.352   0.688
 9635TIP3    H228870   5.138   6.386   0.724
 9636TIP3   OH228871   1.170   1.620   4.715
 9636TIP3    H128872   1.179   1.544   4.658
 9636TIP3    H228873   1.258   1.654   4.724
 9637TIP3   OH228874   6.969   2.358   0.689
 9637TIP3    H128875   6.941   2.393   0.604
 9637TIP3    H228876   6.968   2.263   0.677
 9638TIP3   OH228877   6.600   3.596   0.273
 9638TIP3    H128878   6.524   3.639   0.233
 9638TIP3    H228879   6.603   3.510   0.233
 9639TIP3   OH228880   7.159   5.471   0.812
 9639TIP3    H128881   7.226   5.532   0.782
 9639TIP3    H228882   7.194   5.436   0.894
 9640TIP3   OH228883   5.844   2.770   3.545
 9640TIP3    H128884   5.802   2.855   3.530
 9640TIP3    H228885   5.779   2.707   3.515
 9641TIP3   OH228886   1.702   2.159   4.883
 9641TIP3    H128887   1.617   2.152   4.840
 9641TIP3    H228888   1.740   2.072   4.877
 9642TIP3   OH228889   5.799   6.045   2.727
 9642TIP3    H128890   5.762   6.133   2.726
 9642TIP3    H228891   5.782   6.011   2.639
 9643TIP3   OH228892   4.802   5.003   2.318
 9643TIP3    H128893   4.755   4.925   2.287
 9643TIP3    H228894   4.776   5.072   2.256
 9644TIP3   OH228895   7.154   0.961   1.030
 9644TIP3    H128896   7.229   1.016   1.052
 9644TIP3    H228897   7.140   0.907   1.107
 9645TIP3   OH228898   5.602   0.713   0.828
 9645TIP3    H128899   5.585   0.795   0.874
 9645TIP3    H228900   5.521   0.695   0.780
 9646TIP3   OH228901   3.041   4.755   4.078
 9646TIP3    H128902   3.035   4.834   4.025
 9646TIP3    H228903   3.120   4.711   4.046
 9647TIP3   OH228904   6.382   1.667   0.743
 9647TIP3    H128905   6.396   1.749   0.695
 9647TIP3    H228906   6.453   1.664   0.807
 9648TIP3   OH228907   2.968   5.403   0.229
 9648TIP3    H128908   2.877   5.398   0.203
 9648TIP3    H228909   2.990   5.314   0.257
 9649TIP3   OH228910   0.227   2.424   5.237
 9649TIP3    H128911   0.307   2.384   5.272
 9649TIP3    H228912   0.251   2.515   5.220
 9650TIP3   OH228913   6.285   6.261   0.702
 9650TIP3    H128914   6.240   6.202   0.641
 9650TIP3    H228915   6.292   6.210   0.783
 9651TIP3   OH228916   2.672   5.222   1.048
 9651TIP3    H128917   2.652   5.147   1.103
 9651TIP3    H228918   2.767   5.220   1.038
 9652TIP3   OH228919   2.743   3.231   5.616
 9652TIP3    H128920   2.763   3.160   5.676
 9652TIP3    H228921   2.792   3.210   5.537
 9653TIP3   OH228922   3.589   4.630   0.935
 9653TIP3    H128923   3.532   4.574   0.883
 9653TIP3    H228924   3.618   4.698   0.874
 9654TIP3   OH228925   2.442   1.560   4.486
 9654TIP3    H128926   2.531   1.530   4.464
 9654TIP3    H228927   2.384   1.503   4.435
 9655TIP3   OH228928   4.187   0.130   2.597
 9655TIP3    H128929   4.156   0.207   2.550
 9655TIP3    H228930   4.166   0.147   2.689
 9656TIP3   OH228931   4.292   1.501   4.716
 9656TIP3    H128932   4.313   1.477   4.626
 9656TIP3    H228933   4.262   1.420   4.756
 9657TIP3   OH228934   5.839   3.241   5.859
 9657TIP3    H128935   5.853   3.333   5.881
 9657TIP3    H228936   5.922   3.213   5.819
 9658TIP3   OH228937   5.665   5.109   5.061
 9658TIP3    H128938   5.679   5.179   4.999
 9658TIP3    H228939   5.646   5.032   5.007
 9659TIP3   OH228940   5.447   1.589   2.858
 9659TIP3    H128941   5.466   1.531   2.932
 9659TIP3    H228942   5.442   1.677   2.897
 9660TIP3   OH228943   3.846   0.816   0.629
 9660TIP3    H128944   3.779   0.804   0.696
 9660TIP3    H228945   3.914   0.868   0.672
 9661TIP3   OH228946   2.971   4.485   4.254
 9661TIP3    H128947   2.998   4.577   4.256
 9661TIP3    H228948   2.949   4.465   4.345
 9662TIP3   OH228949   4.312   1.810   3.712
 9662TIP3    H128950   4.293   1.904   3.711
 9662TIP3    H228951   4.231   1.770   3.743
 9663TIP3   OH228952   0.328   6.704   0.312
 9663TIP3    H128953   0.364   6.779   0.265
 9663TIP3    H228954   0.236   6.701   0.286
 9664TIP3   OH228955   2.252   6.435   0.765
 9664TIP3    H128956   2.233   6.394   0.849
 9664TIP3    H228957   2.232   6.367   0.700
 9665TIP3   OH228958   3.686   4.522   1.675
 9665TIP3    H128959   3.639   4.505   1.594
 9665TIP3    H228960   3.709   4.615   1.670
 9666TIP3   OH228961   1.892   0.651   4.545
 9666TIP3    H128962   1.855   0.731   4.507
 9666TIP3    H228963   1.983   0.673   4.563
 9667TIP3   OH228964   2.837   0.806   4.255
 9667TIP3    H128965   2.908   0.744   4.271
 9667TIP3    H228966   2.759   0.752   4.244
 9668TIP3   OH228967   1.566   0.671   0.381
 9668TIP3    H128968   1.577   0.743   0.442
 9668TIP3    H228969   1.484   0.629   0.407
 9669TIP3   OH228970   1.895   4.687   4.600
 9669TIP3    H128971   1.983   4.708   4.569
 9669TIP3    H228972   1.861   4.625   4.535
 9670TIP3   OH228973   6.649   0.219   5.681
 9670TIP3    H128974   6.723   0.199   5.739
 9670TIP3    H228975   6.607   0.134   5.666
 9671TIP3   OH228976   0.062   5.586   4.596
 9671TIP3    H128977   0.078   5.586   4.691
 9671TIP3    H228978   0.063   5.678   4.572
 9672TIP3   OH228979   2.439   4.091   0.894
 9672TIP3    H128980   2.499   4.102   0.968
 9672TIP3    H228981   2.479   4.023   0.840
 9673TIP3   OH228982   3.806   3.432   1.130
 9673TIP3    H128983   3.767   3.369   1.069
 9673TIP3    H228984   3.831   3.506   1.075
 9674TIP3   OH228985   4.090   2.618   4.085
 9674TIP3    H128986   4.042   2.634   4.166
 9674TIP3    H228987   4.047   2.541   4.046
 9675TIP3   OH228988   1.822   2.416   5.816
 9675TIP3    H128989   1.842   2.369   5.897
 9675TIP3    H228990   1.791   2.349   5.755
 9676TIP3   OH228991   4.680   3.388   2.322
 9676TIP3    H128992   4.750   3.323   2.327
 9676TIP3    H228993   4.658   3.406   2.414
 9677TIP3   OH228994   6.984   5.793   2.800
 9677TIP3    H128995   7.070   5.800   2.760
 9677TIP3    H228996   7.000   5.809   2.893
 9678TIP3   OH228997   6.478   6.268   1.021
 9678TIP3    H128998   6.545   6.259   1.089
 9678TIP3    H228999   6.429   6.186   1.024
 9679TIP3   OH229000   1.668   3.515   1.516
 9679TIP3    H129001   1.698   3.494   1.428
 9679TIP3    H229002   1.612   3.441   1.540
 9680TIP3   OH229003   3.082   4.347   0.764
 9680TIP3    H129004   3.004   4.293   0.774
 9680TIP3    H229005   3.142   4.316   0.831
 9681TIP3   OH229006   0.876   4.708   5.564
 9681TIP3    H129007   0.820   4.682   5.637
 9681TIP3    H229008   0.965   4.698   5.597
 9682TIP3   OH229009   3.947   0.611   4.968
 9682TIP3    H129010   3.975   0.521   4.951
 9682TIP3    H229011   3.856   0.613   4.939
 9683TIP3   OH229012   6.551   5.553   0.103
 9683TIP3    H129013   6.548   5.628   0.044
 9683TIP3    H229014   6.603   5.487   0.056
 9684TIP3   OH229015   3.304   3.852   1.399
 9684TIP3    H129016   3.331   3.872   1.309
 9684TIP3    H229017   3.384   3.819   1.441
 9685TIP3   OH229018   5.656   5.010   3.421
 9685TIP3    H129019   5.708   4.967   3.354
 9685TIP3    H229020   5.698   4.986   3.504
 9686TIP3   OH229021   4.201   2.015   1.463
 9686TIP3    H129022   4.206   1.919   1.468
 9686TIP3    H229023   4.168   2.033   1.375
 9687TIP3   OH229024   3.760   2.883   3.128
 9687TIP3    H129025   3.761   2.880   3.032
 9687TIP3    H229026   3.844   2.846   3.154
 9688TIP3   OH229027   3.103   3.782   3.512
 9688TIP3    H129028   3.129   3.849   3.450
 9688TIP3    H229029   3.177   3.722   3.516
 9689TIP3   OH229030   7.063   1.986   5.698
 9689TIP3    H129031   7.030   2.011   5.785
 9689TIP3    H229032   7.098   1.898   5.710
 9690TIP3   OH229033   5.739   4.910   2.183
 9690TIP3    H129034   5.832   4.916   2.205
 9690TIP3    H229035   5.699   4.985   2.227
 9691TIP3   OH229036   3.617   1.555   2.118
 9691TIP3    H129037   3.567   1.554   2.036
 9691TIP3    H229038   3.563   1.507   2.180
 9692TIP3   OH229039   3.589   1.385   2.564
 9692TIP3    H129040   3.600   1.352   2.653
 9692TIP3    H229041   3.672   1.367   2.521
 9693TIP3   OH229042   1.654   5.619   1.844
 9693TIP3    H129043   1.582   5.682   1.848
 9693TIP3    H229044   1.732   5.672   1.829
 9694TIP3   OH229045   1.619   0.182   1.785
 9694TIP3    H129046   1.591   0.206   1.697
 9694TIP3    H229047   1.612   0.263   1.835
 9695TIP3   OH229048   1.303   0.572   1.876
 9695TIP3    H129049   1.329   0.620   1.797
 9695TIP3    H229050   1.381   0.523   1.902
 9696TIP3   OH229051   1.307   4.491   1.337
 9696TIP3    H129052   1.323   4.521   1.427
 9696TIP3    H229053   1.234   4.545   1.307
 9697TIP3   OH229054   0.306   6.038   4.724
 9697TIP3    H129055   0.262   5.963   4.686
 9697TIP3    H229056   0.344   6.005   4.806
 9698TIP3   OH229057   0.556   2.053   4.907
 9698TIP3    H129058   0.524   2.102   4.832
 9698TIP3    H229059   0.646   2.030   4.884
 9699TIP3   OH229060   1.105   3.894   0.948
 9699TIP3    H129061   1.162   3.819   0.963
 9699TIP3    H229062   1.155   3.951   0.890
 9700TIP3   OH229063   2.091   1.643   1.186
 9700TIP3    H129064   2.088   1.727   1.139
 9700TIP3    H229065   2.119   1.580   1.120
 9701TIP3   OH229066   6.197   2.521   5.759
 9701TIP3    H129067   6.273   2.508   5.701
 9701TIP3    H229068   6.138   2.577   5.709
 9702TIP3   OH229069   6.018   3.566   5.503
 9702TIP3    H129070   6.052   3.596   5.588
 9702TIP3    H229071   6.095   3.565   5.446
 9703TIP3   OH229072   1.882   5.744   0.335
 9703TIP3    H129073   1.833   5.817   0.298
 9703TIP3    H229074   1.886   5.763   0.429
 9704TIP3   OH229075   3.033   2.613   4.353
 9704TIP3    H129076   3.121   2.603   4.391
 9704TIP3    H229077   3.032   2.703   4.320
 9705TIP3   OH229078   1.904   5.939   3.535
 9705TIP3    H129079   1.905   5.929   3.630
 9705TIP3    H229080   1.848   6.016   3.520
 9706TIP3   OH229081   1.051   5.537   5.048
 9706TIP3    H129082   0.994   5.551   5.124
 9706TIP3    H229083   1.135   5.573   5.075
 9707TIP3   OH229084   0.346   2.829   1.094
 9707TIP3    H129085   0.263   2.853   1.136
 9707TIP3    H229086   0.320   2.784   1.014
 9708TIP3   OH229087   5.678   3.644   1.967
 9708TIP3    H129088   5.735   3.570   1.987
 9708TIP3    H229089   5.738   3.718   1.956
 9709TIP3   OH229090   1.987   2.500   4.740
 9709TIP3    H129091   1.893   2.486   4.752
 9709TIP3    H229092   2.013   2.558   4.812
 9710TIP3   OH229093   1.986   0.741   5.377
 9710TIP3    H129094   2.012   0.815   5.431
 9710TIP3    H229095   1.993   0.665   5.434
 9711TIP3   OH229096   1.157   2.144   0.765
 9711TIP3    H129097   1.142   2.222   0.711
 9711TIP3    H229098   1.251   2.145   0.783
 9712TIP3   OH229099   3.466   0.763   3.334
 9712TIP3    H129100   3.555   0.750   3.302
 9712TIP3    H229101   3.410   0.738   3.260
 9713TIP3   OH229102   5.163   1.663   2.005
 9713TIP3    H129103   5.145   1.757   2.009
 9713TIP3    H229104   5.180   1.638   2.096
 9714TIP3   OH229105   6.620   0.851   0.686
 9714TIP3    H129106   6.704   0.807   0.685
 9714TIP3    H229107   6.601   0.870   0.594
 9715TIP3   OH229108   0.803   3.231   4.150
 9715TIP3    H129109   0.752   3.150   4.143
 9715TIP3    H229110   0.883   3.206   4.196
 9716TIP3   OH229111   3.222   0.381   3.161
 9716TIP3    H129112   3.236   0.289   3.137
 9716TIP3    H229113   3.200   0.378   3.254
 9717TIP3   OH229114   2.066   4.914   0.932
 9717TIP3    H129115   2.107   4.886   1.015
 9717TIP3    H229116   1.973   4.895   0.945
 9718TIP3   OH229117   4.855   0.364   4.428
 9718TIP3    H129118   4.855   0.399   4.339
 9718TIP3    H229119   4.862   0.269   4.417
 9719TIP3   OH229120   0.173   2.205   2.244
 9719TIP3    H129121   0.185   2.141   2.315
 9719TIP3    H229122   0.114   2.161   2.183
 9720TIP3   OH229123   7.107   4.280   1.353
 9720TIP3    H129124   7.077   4.319   1.436
 9720TIP3    H229125   7.072   4.338   1.286
 9721TIP3   OH229126   5.966   4.381   2.629
 9721TIP3    H129127   5.946   4.312   2.692
 9721TIP3    H229128   6.053   4.359   2.596
 9722TIP3   OH229129   3.312   4.969   4.122
 9722TIP3    H129130   3.307   4.877   4.093
 9722TIP3    H229131   3.368   5.011   4.057
 9723TIP3   OH229132   0.336   3.180   5.711
 9723TIP3    H129133   0.242   3.167   5.724
 9723TIP3    H229134   0.341   3.243   5.639
 9724TIP3   OH229135   2.747   0.837   2.517
 9724TIP3    H129136   2.757   0.775   2.590
 9724TIP3    H229137   2.820   0.818   2.459
 9725TIP3   OH229138   5.194   1.826   0.572
 9725TIP3    H129139   5.276   1.820   0.522
 9725TIP3    H229140   5.125   1.810   0.507
 9726TIP3   OH229141   2.864   4.430   3.576
 9726TIP3    H129142   2.941   4.457   3.525
 9726TIP3    H229143   2.895   4.357   3.630
 9727TIP3   OH229144   0.480   6.291   5.000
 9727TIP3    H129145   0.450   6.264   5.086
 9727TIP3    H229146   0.401   6.325   4.957
 9728TIP3   OH229147   2.989   1.255   0.047
 9728TIP3    H129148   3.068   1.243   0.100
 9728TIP3    H229149   2.918   1.221   0.101
 9729TIP3   OH229150   0.770   2.032   1.230
 9729TIP3    H129151   0.742   2.059   1.142
 9729TIP3    H229152   0.721   2.089   1.289
 9730TIP3   OH229153   2.299   0.904   2.201
 9730TIP3    H129154   2.353   0.969   2.246
 9730TIP3    H229155   2.356   0.828   2.191
 9731TIP3   OH229156   6.900   2.444   4.813
 9731TIP3    H129157   6.978   2.413   4.860
 9731TIP3    H229158   6.930   2.458   4.724
 9732TIP3   OH229159   3.695   1.529   5.842
 9732TIP3    H129160   3.667   1.616   5.871
 9732TIP3    H229161   3.775   1.511   5.891
 9733TIP3   OH229162   1.676   0.107   0.087
 9733TIP3    H129163   1.719   0.183   0.049
 9733TIP3    H229164   1.640   0.059   0.012
 9734TIP3   OH229165   1.234   3.543   1.875
 9734TIP3    H129166   1.206   3.464   1.920
 9734TIP3    H229167   1.309   3.575   1.926
 9735TIP3   OH229168   6.671   5.257   3.988
 9735TIP3    H129169   6.657   5.345   4.024
 9735TIP3    H229170   6.597   5.243   3.929
 9736TIP3   OH229171   5.924   4.438   4.881
 9736TIP3    H129172   6.005   4.460   4.926
 9736TIP3    H229173   5.942   4.456   4.788
 9737TIP3   OH229174   4.730   1.482   1.483
 9737TIP3    H129175   4.818   1.516   1.499
 9737TIP3    H229176   4.672   1.556   1.501
 9738TIP3   OH229177   6.979   3.239   1.196
 9738TIP3    H129178   6.942   3.325   1.176
 9738TIP3    H229179   7.032   3.217   1.120
 9739TIP3   OH229180   1.563   2.700   0.348
 9739TIP3    H129181   1.606   2.726   0.266
 9739TIP3    H229182   1.610   2.621   0.376
 9740TIP3   OH229183   1.397   5.525   5.879
 9740TIP3    H129184   1.458   5.592   5.910
 9740TIP3    H229185   1.452   5.457   5.841
 9741TIP3   OH229186   1.288   1.404   4.124
 9741TIP3    H129187   1.308   1.318   4.088
 9741TIP3    H229188   1.219   1.388   4.188
 9742TIP3   OH229189   1.189   2.574   5.887
 9742TIP3    H129190   1.098   2.545   5.878
 9742TIP3    H229191   1.230   2.507   5.942
 9743TIP3   OH229192   0.904   5.886   4.416
 9743TIP3    H129193   0.975   5.873   4.479
 9743TIP3    H229194   0.840   5.939   4.464
 9744TIP3   OH229195   3.834   6.402   5.235
 9744TIP3    H129196   3.886   6.467   5.284
 9744TIP3    H229197   3.747   6.407   5.274
 9745TIP3   OH229198   6.668   1.365   4.431
 9745TIP3    H129199   6.630   1.277   4.422
 9745TIP3    H229200   6.762   1.350   4.440
 9746TIP3   OH229201   2.267   5.002   0.600
 9746TIP3    H129202   2.186   5.052   0.594
 9746TIP3    H229203   2.310   5.035   0.679
 9747TIP3   OH229204   6.385   4.530   4.289
 9747TIP3    H129205   6.476   4.551   4.268
 9747TIP3    H229206   6.380   4.540   4.384
 9748TIP3   OH229207   2.586   2.269   1.316
 9748TIP3    H129208   2.643   2.336   1.352
 9748TIP3    H229209   2.637   2.189   1.320
 9749TIP3   OH229210   0.342   1.795   1.620
 9749TIP3    H129211   0.412   1.859   1.631
 9749TIP3    H229212   0.333   1.786   1.525
   7.21690   6.80417   5.89257   0.00000   0.00000  -2.40564   0.00000  -2.40564  -3.40208
